Title
82341
    1SAPS     N    1   3.831   1.305  10.949  0.3974 -0.6329  0.5459
    1SAPS   HN1    2   3.775   1.382  10.907  0.9258 -0.5685 -0.0451
    1SAPS   HN2    3   3.785   1.212  10.946  0.3134 -0.6179  1.1414
    1SAPS   HN3    4   3.842   1.328  11.050  1.4184 -0.0512  0.3083
    1SAPS   C12    5   3.965   1.290  10.885 -0.1600  0.1849 -0.3301
    1SAPS  H12A    6   3.950   1.323  10.783 -0.6062  1.8913  0.2464
    1SAPS   C13    7   4.076   1.390  10.954 -0.5869  0.6183  0.3664
    1SAPS  O13A    8   4.039   1.461  11.050  0.0540 -0.0409 -0.2321
    1SAPS  O13B    9   4.192   1.380  10.912  0.1737 -0.2594 -0.2791
    1SAPS   C11   10   4.022   1.137  10.888  0.2216  0.2407 -0.2110
    1SAPS  H11A   11   4.024   1.108  10.996 -1.0913 -1.8048 -0.6677
    1SAPS  H11B   12   4.127   1.128  10.853  0.2170  1.0314 -0.4352
    1SAPS     P   13   3.983   0.893  10.800  0.3147 -0.4853 -0.1912
    1SAPS   O13   14   3.982   0.844  10.942 -0.2371 -0.0348 -0.0047
    1SAPS   O14   15   3.906   0.813  10.709 -0.0476 -0.6114  0.2157
    1SAPS   O12   16   3.934   1.045  10.805 -0.2223  0.0399 -0.6790
    1SAPS   O11   17   4.132   0.899  10.752 -0.0395  0.1325  0.7625
    1SAPS    C1   18   4.160   0.949  10.620 -0.0926 -0.0917 -0.1938
    1SAPS    HA   19   4.101   1.037  10.587 -1.3539 -1.1114 -0.7482
    1SAPS    HB   20   4.263   0.991  10.621 -0.1104  0.2881 -3.4472
    1SAPS    C2   21   4.166   0.842  10.508 -0.4040 -0.2214  0.0012
    1SAPS    HS   22   4.237   0.886  10.435 -2.1882  1.1180 -1.0208
    1SAPS   O21   23   4.039   0.810  10.444  0.1768  0.4782 -0.1077
    1SAPS   C21   24   4.004   0.903  10.359  0.8821 -0.0034  0.1504
    1SAPS   O22   25   4.083   0.986  10.316  0.3097  0.3201 -0.5775
    1SAPS   C22   26   3.857   0.895  10.313 -0.5334  0.1245 -0.2691
    1SAPS   H2R   27   3.813   0.795  10.293  0.3666 -0.3388  0.0130
    1SAPS   H2S   28   3.794   0.932  10.396 -0.2038  1.7555 -0.7031
    1SAPS    C3   29   4.238   0.712  10.548 -0.1488 -0.0234 -0.3035
    1SAPS    HX   30   4.161   0.644  10.591 -0.2031 -0.3364 -0.8864
    1SAPS    HY   31   4.321   0.729  10.620 -1.3653 -1.9032  1.6657
    1SAPS   O31   32   4.293   0.637  10.440 -0.1291 -0.5437  0.2861
    1SAPS   C31   33   4.396   0.690  10.381 -0.4373 -0.1232 -0.0438
    1SAPS   O32   34   4.453   0.791  10.413 -0.1405 -1.3150  0.1737
    1SAPS   C32   35   4.432   0.603  10.269 -0.5759  0.7771  0.0537
    1SAPS   H2X   36   4.366   0.514  10.280  2.4116 -1.4200  1.6199
    1SAPS   H2Y   37   4.533   0.562  10.292  0.3510  2.5948 -0.5870
    1SAPS   C23   38   3.819   0.982  10.192 -0.2811 -0.7521  0.1758
    1SAPS   H3R   39   3.877   0.941  10.106  0.6646  2.9270 -1.1081
    1SAPS   H3S   40   3.830   1.092  10.203  1.3818 -1.0379  1.8685
    1SAPS   C24   41   3.672   0.968  10.146  0.1553  0.5304 -0.0385
    1SAPS   H4R   42   3.665   0.872  10.089 -1.9179  0.5173  0.1449
    1SAPS   H4S   43   3.645   1.043  10.068 -0.1773 -0.6266 -1.0687
    1SAPS   C25   44   3.573   0.962  10.255  0.5168 -0.1091 -0.1097
    1SAPS   H5R   45   3.583   1.032  10.339  1.4481 -2.2580  1.6657
    1SAPS   C26   46   3.473   0.870  10.265  0.7083  0.3879 -0.6534
    1SAPS   H6R   47   3.407   0.879  10.353  3.1454 -0.4944  1.3982
    1SAPS   C27   48   3.443   0.754  10.172 -0.1958  0.0789 -0.0174
    1SAPS   H7R   49   3.412   0.793  10.073 -1.2321  0.8895  0.6040
    1SAPS   H7S   50   3.346   0.710  10.205 -0.5187 -0.2168 -1.3071
    1SAPS   C28   51   3.547   0.647  10.176  0.3912  0.0802  0.5670
    1SAPS   H8R   52   3.602   0.623  10.269  2.8570 -0.6422 -0.9575
    1SAPS   C29   53   3.584   0.586  10.071 -0.0247  0.0960  0.7777
    1SAPS   H9R   54   3.663   0.512  10.087 -1.6119 -1.5762  1.2797
    1SAPS  C210   55   3.539   0.591   9.927  0.1450 -0.4217 -1.1172
    1SAPS  H10R   56   3.629   0.599   9.863  1.4048 -2.3093  0.3063
    1SAPS  H10S   57   3.501   0.695   9.918  1.9936  0.2769 -1.3012
    1SAPS  C211   58   3.435   0.488   9.892 -0.2267 -0.2136  0.1086
    1SAPS  H11R   59   3.384   0.435   9.974 -3.0266  1.4028 -0.4677
    1SAPS  C212   60   3.401   0.457   9.766 -0.7706 -0.0055 -0.5802
    1SAPS  H12R   61   3.316   0.393   9.739 -0.9346  0.6151 -1.5935
    1SAPS  C213   62   3.453   0.524   9.641 -0.3022  0.4576  0.1170
    1SAPS  H13R   63   3.406   0.473   9.554 -1.4068 -2.9089  2.4752
    1SAPS  H13S   64   3.563   0.516   9.635  0.0814  1.8380  3.2736
    1SAPS  C214   65   3.419   0.672   9.626 -0.3371  0.1812  0.5573
    1SAPS  H14R   66   3.345   0.718   9.693 -0.7679 -0.4561  0.5257
    1SAPS  C215   67   3.474   0.760   9.531  0.5181  0.2964 -0.4982
    1SAPS  H15R   68   3.461   0.869   9.539  2.2028  0.4772  0.2619
    1SAPS  C216   69   3.572   0.732   9.415 -0.2380 -0.0259  0.4540
    1SAPS  H16R   70   3.620   0.632   9.425 -0.7215 -0.2701  0.3591
    1SAPS  H16S   71   3.650   0.812   9.420  0.7898 -0.9979  0.4423
    1SAPS  C217   72   3.510   0.750   9.275 -0.0707 -0.0148  0.2235
    1SAPS  H17R   73   3.470   0.854   9.270  2.0985  0.8635  0.0106
    1SAPS  H17S   74   3.422   0.682   9.273  1.4863 -2.0964 -0.7661
    1SAPS  C218   75   3.597   0.719   9.155  0.3318  0.3186 -0.2682
    1SAPS  H18R   76   3.531   0.686   9.072 -0.0693  1.7895 -0.5591
    1SAPS  H18S   77   3.650   0.625   9.180 -0.6611 -0.1392  0.1747
    1SAPS  C219   78   3.688   0.834   9.102 -0.9942  0.8855 -0.0508
    1SAPS  H19R   79   3.760   0.844   9.186  0.3562 -0.3080 -1.0145
    1SAPS  H19S   80   3.619   0.921   9.102 -0.8657  0.9893  0.4144
    1SAPS  C220   81   3.760   0.809   8.970  0.5109  0.6925  0.0594
    1SAPS  H20R   82   3.826   0.895   8.945 -1.9713  2.3098 -1.4775
    1SAPS  H20S   83   3.696   0.812   8.879  0.0157 -0.1966  0.3701
    1SAPS  H20T   84   3.811   0.710   8.973 -1.2375 -0.3860 -2.5775
    1SAPS   C33   85   4.421   0.669  10.131 -0.1506  0.0305 -0.4612
    1SAPS   H3X   86   4.508   0.738  10.128 -0.4414  0.3680 -1.7105
    1SAPS   H3Y   87   4.333   0.736  10.143 -0.5518 -0.0262 -2.7002
    1SAPS   C34   88   4.405   0.563  10.029  0.3502  0.4372 -0.6250
    1SAPS   H4X   89   4.328   0.489  10.061  1.1771  0.5637  1.7995
    1SAPS   H4Y   90   4.491   0.494  10.039  0.3594  0.7027  1.4514
    1SAPS   C35   91   4.399   0.608   9.888  0.6848  1.1133  0.8289
    1SAPS   H5X   92   4.489   0.669   9.864  2.4199 -1.4194  0.5219
    1SAPS   H5Y   93   4.304   0.660   9.863 -0.7923 -1.8396 -0.1836
    1SAPS   C36   94   4.398   0.484   9.796 -0.4046  0.5958 -0.2783
    1SAPS   H6X   95   4.348   0.399   9.847  0.1959  1.0578  1.1277
    1SAPS   H6Y   96   4.502   0.455   9.772 -0.8375  0.7170 -2.4814
    1SAPS   C37   97   4.318   0.517   9.667 -0.1340  0.5305  1.4235
    1SAPS   H7X   98   4.219   0.562   9.690 -1.4735 -0.4243 -1.9590
    1SAPS   H7Y   99   4.300   0.424   9.609  0.7211  1.4206 -0.3471
    1SAPS   C38  100   4.396   0.601   9.569  0.7075 -0.3242  1.0845
    1SAPS   H8X  101   4.475   0.655   9.626  0.3994 -0.0093  1.2145
    1SAPS   H8Y  102   4.334   0.684   9.529  0.7919 -1.3329 -1.3090
    1SAPS   C39  103   4.450   0.512   9.452  0.5530  0.7639 -0.5692
    1SAPS   H9X  104   4.371   0.469   9.387  0.5506 -2.4166  1.3046
    1SAPS   H9Y  105   4.507   0.437   9.511  1.1256  2.4015  1.0779
    1SAPS  C310  106   4.555   0.588   9.365 -0.5382  0.9719 -0.6435
    1SAPS  H10X  107   4.643   0.579   9.431 -0.4886  1.4416 -0.6422
    1SAPS  H10Y  108   4.542   0.698   9.363 -0.0831  1.0199 -1.4281
    1SAPS  C311  109   4.582   0.518   9.231 -0.2412 -0.7029  0.3592
    1SAPS  H11X  110   4.576   0.408   9.248 -0.5448 -0.3247  3.1219
    1SAPS  H11Y  111   4.683   0.541   9.192 -0.8302  2.9993  0.6594
    1SAPS  C312  112   4.481   0.561   9.123  0.2321  0.4431 -1.0897
    1SAPS  H12X  113   4.478   0.672   9.122  1.0435  0.4687 -1.4902
    1SAPS  H12Y  114   4.384   0.515   9.152 -0.0073  2.1401  1.1392
    1SAPS  C313  115   4.524   0.502   8.990 -0.1986  0.5462 -0.5996
    1SAPS  H13X  116   4.569   0.404   9.019 -0.7933  0.8439  1.5071
    1SAPS  H13Y  117   4.610   0.558   8.949 -0.3091 -0.3831 -2.1803
    1SAPS  C314  118   4.422   0.497   8.885 -0.3635 -0.0836  0.2412
    1SAPS  H14X  119   4.402   0.595   8.838 -2.2918  0.4125  1.9649
    1SAPS  H14Y  120   4.321   0.476   8.925 -0.7083  0.6789 -0.2120
    1SAPS  C315  121   4.443   0.390   8.767 -0.5484 -0.2188  0.0280
    1SAPS  H15X  122   4.540   0.423   8.723 -0.8126 -0.6314 -0.8787
    1SAPS  H15Y  123   4.365   0.409   8.690 -0.5906  0.5140  0.2445
    1SAPS  C316  124   4.440   0.243   8.806  0.0691 -0.4070  0.6473
    1SAPS  H16X  125   4.344   0.219   8.857 -0.4463  1.4583  0.6158
    1SAPS  H16Y  126   4.522   0.217   8.877  3.6650 -0.8531 -3.3040
    1SAPS  C317  127   4.440   0.146   8.679  0.7957  0.4065  0.2823
    1SAPS  H17X  128   4.341   0.156   8.628  0.6865  0.8308  0.5676
    1SAPS  H17Y  129   4.452   0.039   8.704 -1.2468 -0.4691 -2.0821
    1SAPS  C318  130   4.539   0.178   8.572 -0.0734  0.1982  0.3988
    1SAPS  H18X  131   4.514   0.277   8.531 -0.1573 -0.2266 -0.5887
    1SAPS  H18Y  132   4.534   0.111   8.483 -1.3999 -0.4263  0.9217
    1SAPS  H18Z  133   4.647   0.175   8.600  0.8075  0.0853 -2.6544
    2SAPS     N  134   2.930   4.917  10.800  0.4319 -0.5452  0.5786
    2SAPS   HN1  135   2.862   4.854  10.848 -1.0429 -0.0143 -0.7128
    2SAPS   HN2  136   2.910   5.014  10.833 -0.9100 -1.0676  1.4202
    2SAPS   HN3  137   2.905   4.922  10.699  0.4594  0.0270  0.5989
    2SAPS   C12  138   3.071   4.875  10.826 -0.0044 -0.5611 -0.0972
    2SAPS  H12A  139   3.130   4.944  10.767 -3.5598  2.6532 -0.2843
    2SAPS   C13  140   3.117   4.891  10.975  0.1190  0.2501  0.1335
    2SAPS  O13A  141   3.043   4.933  11.065  0.0658  0.2182 -0.2771
    2SAPS  O13B  142   3.244   4.883  10.984  0.0289  0.2538  0.0927
    2SAPS   C11  143   3.091   4.728  10.778  1.0618 -0.1928  0.5210
    2SAPS  H11A  144   3.194   4.690  10.794  0.8371 -0.4102  1.5247
    2SAPS  H11B  145   3.075   4.730  10.668  2.6107 -0.1369  0.2808
    2SAPS     P  146   2.947   4.499  10.792  0.7654 -0.5120  0.0682
    2SAPS   O13  147   3.051   4.400  10.825 -0.4349 -0.0107  0.0324
    2SAPS   O14  148   2.812   4.473  10.848 -0.0823 -0.1331  0.4286
    2SAPS   O12  149   2.996   4.635  10.842  0.1147 -0.0003 -0.1289
    2SAPS   O11  150   2.939   4.514  10.637 -0.0324 -0.3793  0.1107
    2SAPS    C1  151   2.834   4.451  10.572 -0.6823  0.1224  0.3242
    2SAPS    HA  152   2.830   4.342  10.592  0.1100 -0.3419 -1.7848
    2SAPS    HB  153   2.735   4.490  10.604 -0.9622 -1.7417  1.9558
    2SAPS    C2  154   2.847   4.478  10.419  0.2009 -1.3092 -0.3901
    2SAPS    HS  155   2.762   4.430  10.367 -0.1021  1.4556 -2.7139
    2SAPS   O21  156   2.969   4.419  10.361  0.4327  0.1619 -0.0790
    2SAPS   C21  157   2.973   4.288  10.353  0.5679 -0.6066  0.0163
    2SAPS   O22  158   2.883   4.213  10.387 -0.2874 -0.3665  0.2172
    2SAPS   C22  159   3.104   4.238  10.296 -0.3204 -0.2650  0.6310
    2SAPS   H2R  160   3.170   4.326  10.311 -0.1545 -0.2120 -0.3667
    2SAPS   H2S  161   3.141   4.151  10.355  0.2835 -1.2152 -1.0903
    2SAPS    C3  162   2.837   4.630  10.394 -0.8428 -0.5132 -0.1987
    2SAPS    HX  163   2.900   4.688  10.464  1.3515 -0.2313 -2.2513
    2SAPS    HY  164   2.732   4.664  10.402 -1.5099 -1.9457 -1.9518
    2SAPS   O31  165   2.868   4.663  10.258  0.1443 -0.2311  0.5899
    2SAPS   C31  166   3.000   4.685  10.237  0.6168  0.0904  0.2200
    2SAPS   O32  167   3.082   4.705  10.324 -0.6852  0.6103 -0.5879
    2SAPS   C32  168   3.037   4.678  10.092  0.4224 -0.2824 -0.1551
    2SAPS   H2X  169   3.057   4.782  10.061  3.4311 -1.4555 -2.6971
    2SAPS   H2Y  170   2.958   4.634  10.027  0.5121 -0.8720  0.1232
    2SAPS   C23  171   3.083   4.211  10.146 -0.5788 -0.1298  0.1606
    2SAPS   H3R  172   3.025   4.296  10.105  0.9913  1.5552  1.2871
    2SAPS   H3S  173   3.016   4.122  10.143 -1.5713  0.5474  1.2142
    2SAPS   C24  174   3.215   4.166  10.084 -0.7889  0.0407 -0.2257
    2SAPS   H4R  175   3.216   4.056  10.070  0.1765  0.1308 -0.9620
    2SAPS   H4S  176   3.297   4.170  10.159 -1.3259 -2.7086  0.6074
    2SAPS   C25  177   3.243   4.238   9.958  0.2823  0.3559  0.3725
    2SAPS   H5R  178   3.290   4.336   9.974 -0.9260  1.0216 -0.0162
    2SAPS   C26  179   3.214   4.203   9.834 -0.2746 -0.0437  1.0534
    2SAPS   H6R  180   3.240   4.264   9.746  0.4480 -0.8814  0.6801
    2SAPS   C27  181   3.161   4.065   9.795  0.7503 -0.5239  0.2673
    2SAPS   H7R  182   3.100   4.067   9.702  1.8367 -1.9690 -0.5195
    2SAPS   H7S  183   3.100   4.032   9.881  1.4667 -0.3709  0.8376
    2SAPS   C28  184   3.266   3.963   9.764 -1.2392  0.1088 -0.3097
    2SAPS   H8R  185   3.288   3.897   9.850  2.2907  1.4965  0.0195
    2SAPS   C29  186   3.338   3.935   9.656  0.0984 -0.0059  0.7411
    2SAPS   H9R  187   3.413   3.856   9.661  0.7202  0.6124  1.4803
    2SAPS  C210  188   3.313   4.002   9.521 -0.3651  0.1017 -0.2047
    2SAPS  H10R  189   3.415   4.020   9.482 -0.2403  0.1609  0.1459
    2SAPS  H10S  190   3.273   4.104   9.543 -1.4044 -0.8216  2.6278
    2SAPS  C211  191   3.222   3.940   9.416 -0.2806 -0.8607 -0.1763
    2SAPS  H11R  192   3.128   3.894   9.452 -1.1683 -1.1001 -2.6568
    2SAPS  C212  193   3.243   3.941   9.284  0.0625 -0.2012 -0.1776
    2SAPS  H12R  194   3.168   3.892   9.220  0.4956 -0.2234 -0.6766
    2SAPS  C213  195   3.355   3.996   9.189 -0.1070  0.4294 -1.2192
    2SAPS  H13R  196   3.439   4.039   9.249 -1.4817 -1.1024  2.0342
    2SAPS  H13S  197   3.294   4.053   9.117 -2.2621  0.1113  0.2609
    2SAPS  C214  198   3.413   3.886   9.118 -0.1214  0.2996  0.2843
    2SAPS  H14R  199   3.502   3.835   9.159 -0.2557 -0.4991 -0.3759
    2SAPS  C215  200   3.389   3.856   8.986 -0.5817 -0.8895  0.0497
    2SAPS  H15R  201   3.426   3.763   8.941  0.9508  0.8659 -2.5569
    2SAPS  C216  202   3.288   3.927   8.893  0.2335 -0.1839 -0.3873
    2SAPS  H16R  203   3.267   4.033   8.916 -0.3352 -0.3670 -0.0541
    2SAPS  H16S  204   3.197   3.864   8.894  0.6274 -0.7909 -1.2366
    2SAPS  C217  205   3.329   3.934   8.744 -0.5303 -0.3821  0.0779
    2SAPS  H17R  206   3.249   3.989   8.691  0.6104  2.4851  1.1413
    2SAPS  H17S  207   3.328   3.827   8.714 -1.5234 -0.3833  0.0862
    2SAPS  C218  208   3.463   4.001   8.716  0.1072  0.1231  0.3462
    2SAPS  H18R  209   3.540   3.961   8.785  1.1837 -0.5280 -1.1983
    2SAPS  H18S  210   3.459   4.110   8.738 -2.4680  0.0271  0.7126
    2SAPS  C219  211   3.522   3.966   8.576  0.7060 -0.0424 -0.0369
    2SAPS  H19R  212   3.526   3.855   8.571 -0.4883 -0.0487 -1.6875
    2SAPS  H19S  213   3.627   4.002   8.587  1.0495 -0.7736 -0.7868
    2SAPS  C220  214   3.443   4.027   8.455 -0.4409  0.4790  0.0695
    2SAPS  H20R  215   3.459   4.137   8.458  1.3579  0.2787 -0.7095
    2SAPS  H20S  216   3.341   3.987   8.438  0.7992 -3.0443  0.0628
    2SAPS  H20T  217   3.497   3.992   8.364 -1.6960 -0.2103 -0.4295
    2SAPS   C33  218   3.166   4.604  10.052  0.7387  0.2102  0.0881
    2SAPS   H3X  219   3.162   4.493  10.050  0.3056  0.1415  2.2919
    2SAPS   H3Y  220   3.234   4.633  10.135  0.5506 -0.1094  0.3573
    2SAPS   C34  221   3.222   4.645   9.916 -0.1488 -0.5149  0.5464
    2SAPS   H4X  222   3.326   4.607   9.906  0.5692  1.8223 -2.1609
    2SAPS   H4Y  223   3.226   4.756   9.916  1.3736 -0.5380  1.6900
    2SAPS   C35  224   3.138   4.589   9.803  0.0315 -0.0457  0.3891
    2SAPS   H5X  225   3.043   4.647   9.802  0.5212  0.8727  2.0725
    2SAPS   H5Y  226   3.131   4.480   9.819 -2.1892 -0.1744 -1.0676
    2SAPS   C36  227   3.210   4.609   9.670 -0.1852  0.4113 -0.4250
    2SAPS   H6X  228   3.317   4.581   9.675 -0.3536 -0.2090 -0.2393
    2SAPS   H6Y  229   3.193   4.713   9.635  1.7367  0.8174 -0.2482
    2SAPS   C37  230   3.154   4.505   9.561  0.2489  0.1689  0.0826
    2SAPS   H7X  231   3.056   4.548   9.529 -0.1837 -1.0327 -0.2674
    2SAPS   H7Y  232   3.143   4.401   9.599 -0.2420  0.3615  0.4952
    2SAPS   C38  233   3.245   4.517   9.430 -0.4070  0.8887 -0.1962
    2SAPS   H8X  234   3.348   4.485   9.454 -0.3538  1.2757  0.1130
    2SAPS   H8Y  235   3.248   4.625   9.403  1.2427  1.8407  3.2460
    2SAPS   C39  236   3.178   4.433   9.322  0.1408  0.3721 -0.4293
    2SAPS   H9X  237   3.071   4.462   9.314  0.3742  1.7543  0.9280
    2SAPS   H9Y  238   3.184   4.327   9.355  2.2667  0.4981 -0.2860
    2SAPS  C310  239   3.252   4.438   9.190  0.4889  0.0257 -0.2005
    2SAPS  H10X  240   3.352   4.395   9.213  0.3952  0.6274  1.4879
    2SAPS  H10Y  241   3.281   4.542   9.164  2.1935 -0.2586  0.4121
    2SAPS  C311  242   3.182   4.369   9.077 -0.6024 -0.5204 -0.1052
    2SAPS  H11X  243   3.078   4.407   9.071 -0.6342 -0.4002  1.0318
    2SAPS  H11Y  244   3.178   4.260   9.100 -1.7728 -0.6977 -1.0967
    2SAPS  C312  245   3.238   4.386   8.932  0.1288  0.4028 -0.5695
    2SAPS  H12X  246   3.346   4.359   8.934  0.4217  1.3869  2.2729
    2SAPS  H12Y  247   3.241   4.495   8.908  0.0277  0.0227 -2.4237
    2SAPS  C313  248   3.173   4.313   8.813 -0.2510 -0.2283 -0.9069
    2SAPS  H13X  249   3.164   4.205   8.840 -2.6273  0.2727  0.5616
    2SAPS  H13Y  250   3.237   4.329   8.724  0.8474 -0.1880 -0.1311
    2SAPS  C314  251   3.031   4.360   8.800 -1.1982  0.0838  0.1420
    2SAPS  H14X  252   3.037   4.468   8.774 -2.9554  0.1329 -0.1297
    2SAPS  H14Y  253   2.972   4.343   8.892  1.7378  1.7395  2.5016
    2SAPS  C315  254   2.938   4.294   8.693  0.2220  0.4306  0.0503
    2SAPS  H15X  255   2.922   4.185   8.702  0.7850 -0.2180 -4.5661
    2SAPS  H15Y  256   2.992   4.306   8.597 -3.3547  0.8950 -2.0968
    2SAPS  C316  257   2.804   4.370   8.681  0.2525 -0.1226 -0.1106
    2SAPS  H16X  258   2.775   4.350   8.576 -0.2915 -0.6929  0.1449
    2SAPS  H16Y  259   2.832   4.477   8.692  3.6245 -0.7377 -1.5773
    2SAPS  C317  260   2.696   4.339   8.782  0.1512  0.2086  1.0990
    2SAPS  H17X  261   2.736   4.357   8.884 -1.0083  0.0808  1.5894
    2SAPS  H17Y  262   2.674   4.230   8.770  1.7616  0.0622 -1.2434
    2SAPS  C318  263   2.566   4.424   8.771  0.2768  0.4023  0.6023
    2SAPS  H18X  264   2.594   4.526   8.804  0.8542  0.6098 -0.4845
    2SAPS  H18Y  265   2.486   4.388   8.839 -1.2653  3.4093  0.5115
    2SAPS  H18Z  266   2.537   4.430   8.664  2.0739  5.1945  0.1477
    3SAPS     N  267   4.837   3.777  10.824 -0.3858  0.5373 -0.0564
    3SAPS   HN1  268   4.748   3.818  10.859  0.0065 -0.2555  1.9834
    3SAPS   HN2  269   4.900   3.850  10.784  1.0022 -0.3234  0.5001
    3SAPS   HN3  270   4.811   3.715  10.744  0.1465  0.0269  0.1677
    3SAPS   C12  271   4.886   3.684  10.937 -0.0286  0.6254  0.0730
    3SAPS  H12A  272   4.886   3.736  11.031  1.5095 -1.3969  1.2476
    3SAPS   C13  273   4.803   3.556  10.957 -0.0466 -0.3986 -0.4913
    3SAPS  O13A  274   4.703   3.539  10.882  0.0520 -0.5441  0.2594
    3SAPS  O13B  275   4.833   3.474  11.047 -0.3362  0.5386 -0.4430
    3SAPS   C11  276   5.031   3.638  10.907 -0.6966 -0.2079  0.6107
    3SAPS  H11A  277   5.085   3.595  10.994  2.2429  0.1729 -0.9015
    3SAPS  H11B  278   5.089   3.729  10.879 -0.2761 -0.9273 -0.9208
    3SAPS     P  279   5.137   3.450  10.744  0.0276  0.5506  0.0738
    3SAPS   O13  280   5.193   3.386  10.864  0.1834  0.2348  0.2283
    3SAPS   O14  281   5.075   3.362  10.641 -0.0825  0.0852  0.5666
    3SAPS   O12  282   5.033   3.553  10.798  0.0873  0.0458  0.3001
    3SAPS   O11  283   5.256   3.529  10.668 -0.3885 -0.4702 -0.0779
    3SAPS    C1  284   5.248   3.668  10.624  0.7450  0.3559  0.0957
    3SAPS    HA  285   5.156   3.724  10.651  1.0070  0.9689 -0.2562
    3SAPS    HB  286   5.343   3.718  10.653  0.9611  0.2897 -0.4927
    3SAPS    C2  287   5.232   3.665  10.471  0.3125 -0.5088 -0.3756
    3SAPS    HS  288   5.132   3.618  10.462 -1.8812  3.1696  2.3426
    3SAPS   O21  289   5.342   3.593  10.411  0.1833 -0.0264 -0.6955
    3SAPS   C21  290   5.305   3.492  10.336 -0.0434 -0.2243  1.0982
    3SAPS   O22  291   5.190   3.463  10.308 -0.2111 -0.0602  0.0808
    3SAPS   C22  292   5.425   3.422  10.288 -0.5680  0.3802 -0.0725
    3SAPS   H2R  293   5.521   3.472  10.310 -1.9771  3.1944  0.0955
    3SAPS   H2S  294   5.410   3.326  10.343  0.3644  0.1940 -0.1361
    3SAPS    C3  295   5.229   3.810  10.411 -0.3138 -0.5201 -0.8829
    3SAPS    HX  296   5.326   3.858  10.434 -0.2957  0.1131 -2.1840
    3SAPS    HY  297   5.162   3.878  10.468  0.9155  0.2829 -0.3620
    3SAPS   O31  298   5.207   3.807  10.270  0.5326 -0.1858 -0.2261
    3SAPS   C31  299   5.074   3.791  10.228  0.7270 -0.1669  0.1630
    3SAPS   O32  300   4.979   3.770  10.298 -0.0018 -0.3737 -0.0005
    3SAPS   C32  301   5.083   3.783  10.075 -1.1478 -0.1701  0.0616
    3SAPS   H2X  302   5.174   3.724  10.051  0.3001  1.8024  0.4046
    3SAPS   H2Y  303   5.110   3.879  10.026  2.7134 -2.0681 -1.9897
    3SAPS   C23  304   5.439   3.381  10.139  0.0360  0.0093 -0.0443
    3SAPS   H3R  305   5.363   3.303  10.117 -0.6274  0.5388  0.3345
    3SAPS   H3S  306   5.539   3.333  10.132 -1.3745 -3.3066  0.7610
    3SAPS   C24  307   5.416   3.501  10.038  0.6004  0.5096 -0.0125
    3SAPS   H4R  308   5.308   3.526  10.027  0.3943 -1.0740 -2.1551
    3SAPS   H4S  309   5.448   3.462   9.939 -0.3981  1.1902 -0.6199
    3SAPS   C25  310   5.495   3.620  10.072 -0.5333 -0.2027  0.0162
    3SAPS   H5R  311   5.451   3.695  10.139 -1.6945 -0.4029 -0.4956
    3SAPS   C26  312   5.621   3.657  10.021  0.0569 -0.1464  0.1188
    3SAPS   H6R  313   5.655   3.756  10.054 -0.4488 -0.3902  1.3991
    3SAPS   C27  314   5.705   3.588   9.915  0.0179 -0.0293 -0.0108
    3SAPS   H7R  315   5.638   3.541   9.840 -3.2367  0.5216  2.3433
    3SAPS   H7S  316   5.748   3.499   9.966  3.3909  2.0121  1.0113
    3SAPS   C28  317   5.817   3.665   9.857 -0.2039 -0.8255  0.1773
    3SAPS   H8R  318   5.837   3.754   9.920  0.6683 -2.9551  3.1678
    3SAPS   C29  319   5.896   3.625   9.753 -0.2665 -0.4528 -0.5926
    3SAPS   H9R  320   5.986   3.682   9.725 -1.1394  0.2904 -2.0197
    3SAPS  C210  321   5.879   3.496   9.676 -0.7364 -0.3808 -1.0682
    3SAPS  H10R  322   5.801   3.426   9.711 -1.1147 -0.5581 -2.2371
    3SAPS  H10S  323   5.974   3.439   9.676 -0.8223 -0.5250 -0.6408
    3SAPS  C211  324   5.857   3.529   9.533 -0.7010  0.5587  0.2723
    3SAPS  H11R  325   5.752   3.550   9.508 -1.3104 -0.5740  1.7550
    3SAPS  C212  326   5.950   3.548   9.433 -0.5279 -0.7263 -0.4134
    3SAPS  H12R  327   5.915   3.567   9.331 -1.4086  1.3968  0.2339
    3SAPS  C213  328   6.103   3.533   9.443 -0.4178 -0.1027 -0.2151
    3SAPS  H13R  329   6.134   3.426   9.437  1.8526  0.2906  2.4696
    3SAPS  H13S  330   6.140   3.553   9.546  0.9194  0.0052 -0.7050
    3SAPS  C214  331   6.157   3.613   9.331 -0.5225 -0.0429 -0.0587
    3SAPS  H14R  332   6.202   3.711   9.354  1.6620 -1.0392  0.1111
    3SAPS  C215  333   6.175   3.577   9.200 -0.2607  0.1560  0.2463
    3SAPS  H15R  334   6.223   3.643   9.126  0.8459 -2.6247 -1.7109
    3SAPS  C216  335   6.137   3.449   9.138 -0.4853 -0.2348  0.6997
    3SAPS  H16R  336   6.045   3.407   9.184 -2.2002  0.2006 -2.1142
    3SAPS  H16S  337   6.230   3.389   9.152  0.0528  0.4327  0.0648
    3SAPS  C217  338   6.106   3.461   8.982 -0.3364 -0.5042  1.2402
    3SAPS  H17R  339   6.065   3.363   8.948 -0.3237 -0.1955  0.3188
    3SAPS  H17S  340   6.202   3.456   8.926 -0.6449 -0.2744  0.6934
    3SAPS  C218  341   6.016   3.586   8.945  0.2838 -0.6226 -1.0541
    3SAPS  H18R  342   6.016   3.615   8.838  3.2411  3.0444 -0.2577
    3SAPS  H18S  343   6.073   3.674   8.981 -2.3994  1.3547 -1.3029
    3SAPS  C219  344   5.875   3.572   9.009 -1.0732 -0.3952  0.2131
    3SAPS  H19R  345   5.826   3.670   8.989  0.1628 -0.0144 -1.1769
    3SAPS  H19S  346   5.886   3.565   9.119 -1.0140  1.7193  0.3908
    3SAPS  C220  347   5.794   3.454   8.971 -0.1621  0.0698  0.5962
    3SAPS  H20R  348   5.684   3.469   8.977  0.0891  1.9489  1.0849
    3SAPS  H20S  349   5.824   3.365   9.031  2.7744  0.2033 -0.4919
    3SAPS  H20T  350   5.796   3.415   8.867 -0.3336  0.8255  0.3040
    3SAPS   C33  351   4.955   3.726  10.011  0.3463  0.1531 -0.8754
    3SAPS   H3X  352   4.860   3.747  10.064  0.3325 -2.6571  0.3983
    3SAPS   H3Y  353   4.966   3.621  10.043  1.5973  0.2862 -0.8014
    3SAPS   C34  354   4.943   3.745   9.858  0.2626  0.1168  0.4776
    3SAPS   H4X  355   4.879   3.661   9.823 -1.0011  1.5044 -0.6990
    3SAPS   H4Y  356   5.040   3.729   9.804  0.6331  0.9634  0.8694
    3SAPS   C35  357   4.885   3.888   9.818 -0.2103 -0.6925 -0.4156
    3SAPS   H5X  358   4.948   3.972   9.856 -0.4492 -1.0378  0.7806
    3SAPS   H5Y  359   4.790   3.893   9.875 -0.1060  1.4296 -0.3579
    3SAPS   C36  360   4.864   3.911   9.672  0.1143  0.4774 -0.8009
    3SAPS   H6X  361   4.813   4.009   9.671  2.1401  1.6205  0.9351
    3SAPS   H6Y  362   4.794   3.843   9.617  0.6405  0.7615 -1.8532
    3SAPS   C37  363   4.985   3.931   9.586  0.6040  0.3438 -0.2850
    3SAPS   H7X  364   5.044   3.837   9.590 -0.5685 -0.3961  0.7021
    3SAPS   H7Y  365   5.040   4.008   9.644  2.3022  0.0492 -1.4301
    3SAPS   C38  366   4.965   3.972   9.434 -0.0768  0.5638 -0.9585
    3SAPS   H8X  367   5.070   3.978   9.396  0.8328 -2.3957  0.7651
    3SAPS   H8Y  368   4.921   4.074   9.433  0.6726  0.9534  1.1472
    3SAPS   C39  369   4.883   3.882   9.337  0.4360 -0.2990 -0.2502
    3SAPS   H9X  370   4.878   3.934   9.239 -1.9663  1.0959  0.5250
    3SAPS   H9Y  371   4.778   3.872   9.373  0.6823  1.6665  1.1800
    3SAPS  C310  372   4.945   3.740   9.330  0.5919  0.0650 -0.2645
    3SAPS  H10X  373   4.950   3.675   9.420 -1.5405 -2.5965 -1.8881
    3SAPS  H10Y  374   5.050   3.758   9.297  0.9180  2.5254  1.8214
    3SAPS  C311  375   4.859   3.660   9.233  0.4510  0.4492 -0.2217
    3SAPS  H11X  376   4.845   3.732   9.149  1.7445  1.1223  0.1205
    3SAPS  H11Y  377   4.757   3.643   9.274  0.3579  1.0426 -0.2054
    3SAPS  C312  378   4.907   3.521   9.187  0.0378  0.3010  0.0051
    3SAPS  H12X  379   4.862   3.439   9.248  0.3495  0.2927  0.2270
    3SAPS  H12Y  380   5.017   3.511   9.199  0.1042  0.9420 -0.0344
    3SAPS  C313  381   4.878   3.489   9.038 -0.1551 -0.4351  0.3916
    3SAPS  H13X  382   4.900   3.381   9.027  0.5830 -0.5940  2.7625
    3SAPS  H13Y  383   4.941   3.557   8.978 -0.9513 -1.3877 -1.6084
    3SAPS  C314  384   4.733   3.520   8.997 -0.7566  0.2032 -0.3216
    3SAPS  H14X  385   4.726   3.623   8.956 -0.9290  0.9937  1.5984
    3SAPS  H14Y  386   4.659   3.514   9.080 -0.6437 -0.8115 -0.2740
    3SAPS  C315  387   4.675   3.422   8.886 -0.0673  0.4546 -0.1897
    3SAPS  H15X  388   4.668   3.323   8.935 -0.0835  0.9875  0.9365
    3SAPS  H15Y  389   4.749   3.422   8.803  0.8077  0.2532  0.5757
    3SAPS  C316  390   4.538   3.472   8.832 -0.0781 -0.1163 -0.4875
    3SAPS  H16X  391   4.555   3.576   8.797 -0.1480 -0.1668 -0.6726
    3SAPS  H16Y  392   4.465   3.471   8.916 -1.5675 -1.0417 -1.7419
    3SAPS  C317  393   4.482   3.399   8.713  0.2082 -0.3213  0.4070
    3SAPS  H17X  394   4.451   3.295   8.737 -1.8481  0.0845 -0.3214
    3SAPS  H17Y  395   4.559   3.391   8.633  2.4459  0.1465  2.4049
    3SAPS  C318  396   4.352   3.468   8.674 -0.1596 -0.8172  0.4970
    3SAPS  H18X  397   4.311   3.410   8.588  0.9562 -2.4781  1.0338
    3SAPS  H18Y  398   4.374   3.564   8.622 -3.6668  0.7884  1.6321
    3SAPS  H18Z  399   4.280   3.485   8.756 -2.2594 -1.9653 -1.0041
    4SAPS     N  400   4.915   5.382  10.558 -0.2277 -0.4830  0.6649
    4SAPS   HN1  401   4.983   5.438  10.503 -0.2989  0.6711  1.7296
    4SAPS   HN2  402   4.849   5.324  10.502 -0.8866 -1.5184  2.4435
    4SAPS   HN3  403   4.865   5.443  10.625 -0.7843 -1.4482  1.1514
    4SAPS   C12  404   4.988   5.286  10.649 -0.0233 -0.2144  0.7609
    4SAPS  H12A  405   5.040   5.353  10.716  0.5807  0.1035 -0.0076
    4SAPS   C13  406   4.895   5.191  10.736 -0.2297 -0.0984  0.3150
    4SAPS  O13A  407   4.770   5.203  10.714  0.0533  0.7960  0.6135
    4SAPS  O13B  408   4.947   5.107  10.814  1.0603 -0.0664  0.3289
    4SAPS   C11  409   5.091   5.202  10.560 -0.0688  0.0240 -0.5288
    4SAPS  H11A  410   5.022   5.169  10.479  0.8018 -5.0762  0.4614
    4SAPS  H11B  411   5.122   5.110  10.614 -1.0956 -0.8036 -1.3086
    4SAPS     P  412   5.327   5.322  10.597 -0.1521  0.3984  0.0221
    4SAPS   O13  413   5.309   5.458  10.642 -0.0985  0.3508 -0.1612
    4SAPS   O14  414   5.347   5.223  10.705  0.0998  0.6613 -0.1292
    4SAPS   O12  415   5.201   5.283  10.512  0.5872  0.3750 -0.4431
    4SAPS   O11  416   5.451   5.315  10.493  0.0659  0.0607 -0.2587
    4SAPS    C1  417   5.457   5.218  10.388 -0.3380 -0.7375 -0.2426
    4SAPS    HA  418   5.562   5.214  10.351  0.3038  1.3511  1.1885
    4SAPS    HB  419   5.423   5.120  10.427 -0.4949 -0.2069  0.9765
    4SAPS    C2  420   5.381   5.257  10.266  0.7562  0.8333  0.2788
    4SAPS    HS  421   5.273   5.238  10.282  1.0052 -0.6822  0.2334
    4SAPS   O21  422   5.435   5.175  10.153  0.4851 -0.1285 -0.0565
    4SAPS   C21  423   5.388   5.056  10.150  0.0783  0.4797  0.6906
    4SAPS   O22  424   5.308   4.999  10.225 -0.4057  0.4023  0.5816
    4SAPS   C22  425   5.436   4.982  10.024 -0.4022 -0.8661 -0.7573
    4SAPS   H2R  426   5.524   5.041   9.990 -1.3691  1.7670  0.9579
    4SAPS   H2S  427   5.478   4.889  10.069 -0.1456 -1.5423 -2.3486
    4SAPS    C3  428   5.405   5.409  10.244  0.5975 -0.0351  0.0029
    4SAPS    HX  429   5.514   5.428  10.231  0.5689  0.2781  0.2026
    4SAPS    HY  430   5.353   5.464  10.326 -0.0426 -0.1001 -0.3563
    4SAPS   O31  431   5.341   5.451  10.116  0.3947 -0.3177 -0.5440
    4SAPS   C31  432   5.229   5.526  10.139 -0.3923  0.0310  0.8243
    4SAPS   O32  433   5.157   5.520  10.235  0.6143 -0.2834 -0.5435
    4SAPS   C32  434   5.213   5.614  10.015 -0.2001 -0.8938  0.3565
    4SAPS   H2X  435   5.219   5.541   9.931  0.6413 -0.3379 -0.0871
    4SAPS   H2Y  436   5.297   5.686   9.999 -1.0055 -0.2030 -0.9316
    4SAPS   C23  437   5.336   4.944   9.914 -0.1505 -1.1846  1.1249
    4SAPS   H3R  438   5.247   5.008   9.923  0.3341 -0.1068 -1.0711
    4SAPS   H3S  439   5.312   4.836   9.925 -2.3495 -1.2459 -2.5595
    4SAPS   C24  440   5.393   4.978   9.775 -0.6304  0.1653  0.0670
    4SAPS   H4R  441   5.337   4.922   9.697 -1.2745  2.7680 -1.4604
    4SAPS   H4S  442   5.498   4.946   9.766 -0.2042  1.4405  0.2932
    4SAPS   C25  443   5.373   5.122   9.730 -0.3988 -0.0212 -0.0898
    4SAPS   H5R  444   5.386   5.199   9.808 -2.1718  0.2139  0.0045
    4SAPS   C26  445   5.352   5.172   9.606  0.7862  0.1370  0.1772
    4SAPS   H6R  446   5.321   5.277   9.600  0.2058 -0.0195  0.3503
    4SAPS   C27  447   5.343   5.097   9.478  0.5109  0.3208  0.4666
    4SAPS   H7R  448   5.286   5.151   9.399  2.5323  0.1868 -1.1691
    4SAPS   H7S  449   5.277   5.009   9.494  2.8285 -1.5526  0.3132
    4SAPS   C28  450   5.474   5.063   9.435 -0.4043  0.5821  0.4214
    4SAPS   H8R  451   5.523   4.990   9.502 -1.1771 -0.4416 -0.1078
    4SAPS   C29  452   5.531   5.103   9.316  0.4739 -1.0440  0.2563
    4SAPS   H9R  453   5.635   5.072   9.294  1.3995  0.0071  2.7526
    4SAPS  C210  454   5.478   5.190   9.201  0.2013 -0.4983  0.1760
    4SAPS  H10R  455   5.553   5.250   9.146 -1.0525  1.2230  0.2184
    4SAPS  H10S  456   5.422   5.278   9.242  0.4507 -0.0048 -0.5277
    4SAPS  C211  457   5.384   5.122   9.103 -0.3093  0.4036 -0.2566
    4SAPS  H11R  458   5.331   5.036   9.147  1.3544 -0.4511  0.1621
    4SAPS  C212  459   5.369   5.153   8.971 -0.2304 -0.1885  0.5635
    4SAPS  H12R  460   5.311   5.085   8.906 -0.3071  0.3336  0.0813
    4SAPS  C213  461   5.452   5.258   8.896 -0.1660  0.3444  0.0668
    4SAPS  H13R  462   5.555   5.215   8.895 -0.6991 -1.2109  2.6882
    4SAPS  H13S  463   5.463   5.342   8.967 -0.4343  1.1336 -0.7997
    4SAPS  C214  464   5.407   5.315   8.769  0.0792 -0.1763  0.1310
    4SAPS  H14R  465   5.342   5.400   8.793  0.5773  0.0949  0.5454
    4SAPS  C215  466   5.462   5.297   8.651 -0.0266 -0.2371  0.4183
    4SAPS  H15R  467   5.417   5.352   8.567 -0.0877 -0.6546  0.1746
    4SAPS  C216  468   5.576   5.204   8.614 -0.3026  0.3435  0.4693
    4SAPS  H16R  469   5.569   5.171   8.508  2.2597  1.1668 -0.0242
    4SAPS  H16S  470   5.580   5.122   8.689 -0.9197 -1.0458 -0.9799
    4SAPS  C217  471   5.712   5.277   8.631  0.3397 -0.3039  0.5622
    4SAPS  H17R  472   5.723   5.302   8.739 -1.0555  2.9162  0.0764
    4SAPS  H17S  473   5.721   5.374   8.577  1.9165  1.2691  3.4375
    4SAPS  C218  474   5.828   5.192   8.598 -0.2484  0.2861 -0.7050
    4SAPS  H18R  475   5.828   5.109   8.672 -1.7468 -0.7517 -1.8185
    4SAPS  H18S  476   5.923   5.248   8.613  0.1483  0.1819 -2.6217
    4SAPS  C219  477   5.844   5.120   8.463 -0.4868 -0.1762 -0.2122
    4SAPS  H19R  478   5.838   5.194   8.381  0.9422  0.4658  0.2427
    4SAPS  H19S  479   5.766   5.043   8.446  0.0168 -0.5601 -0.7999
    4SAPS  C220  480   5.982   5.045   8.451  0.2937 -0.2258  0.6120
    4SAPS  H20R  481   6.017   4.990   8.541  2.7014 -1.1113 -0.7914
    4SAPS  H20S  482   6.054   5.124   8.421  0.3141 -0.6765 -0.5828
    4SAPS  H20T  483   5.970   4.982   8.361 -1.5437  0.0475  0.6294
    4SAPS   C33  484   5.075   5.688  10.008  0.0736 -0.1471 -0.2125
    4SAPS   H3X  485   5.059   5.730  10.110  1.4252  0.8518 -0.3876
    4SAPS   H3Y  486   4.985   5.628   9.981 -1.0246  0.9275  0.9345
    4SAPS   C34  487   5.073   5.803   9.903  0.8120  0.7115 -0.5217
    4SAPS   H4X  488   5.165   5.865   9.906  2.0770 -1.1324  1.1634
    4SAPS   H4Y  489   4.992   5.872   9.936 -0.3341 -1.0018  0.4241
    4SAPS   C35  490   5.035   5.735   9.766 -0.1712 -0.3537 -0.1419
    4SAPS   H5X  491   4.931   5.697   9.764 -0.5441  0.6168 -2.0871
    4SAPS   H5Y  492   5.100   5.645   9.757  1.6130  0.5797  2.2212
    4SAPS   C36  493   5.043   5.830   9.640  0.3858  0.1259  0.3933
    4SAPS   H6X  494   5.151   5.852   9.647  0.1664  0.6793  4.2782
    4SAPS   H6Y  495   4.979   5.920   9.655  1.5765  0.6864  2.6255
    4SAPS   C37  496   5.011   5.763   9.510  0.6905 -0.1705  0.7365
    4SAPS   H7X  497   4.904   5.732   9.507 -0.0481  1.8053  3.1386
    4SAPS   H7Y  498   5.068   5.668   9.500 -0.3369 -0.9394  1.9407
    4SAPS   C38  499   5.061   5.852   9.393  0.2238 -0.0695 -0.3944
    4SAPS   H8X  500   5.146   5.914   9.428  1.8129 -2.0020 -0.6417
    4SAPS   H8Y  501   4.979   5.924   9.369 -1.6892 -1.6472  1.0862
    4SAPS   C39  502   5.108   5.778   9.267  0.1968 -0.2015  0.0639
    4SAPS   H9X  503   5.012   5.745   9.222 -0.7529  1.2240  0.9468
    4SAPS   H9Y  504   5.161   5.687   9.302  1.4152  0.0082 -1.1690
    4SAPS  C310  505   5.188   5.850   9.157  0.1387  0.0441  0.1515
    4SAPS  H10X  506   5.290   5.876   9.193 -0.3528  0.6567  1.1746
    4SAPS  H10Y  507   5.135   5.943   9.128 -1.4936 -0.6016  0.8943
    4SAPS  C311  508   5.206   5.762   9.027 -0.1815  0.5364 -0.0017
    4SAPS  H11X  509   5.107   5.726   8.990 -0.7924  0.4308  1.6435
    4SAPS  H11Y  510   5.273   5.676   9.050 -1.6054 -0.6872 -0.2396
    4SAPS  C312  511   5.280   5.843   8.917 -0.4776  0.2893 -0.3944
    4SAPS  H12X  512   5.365   5.901   8.960 -0.2436 -1.3067  1.4053
    4SAPS  H12Y  513   5.225   5.926   8.868  1.0498  0.7681 -1.3831
    4SAPS  C313  514   5.336   5.758   8.804  0.1969  0.2600 -1.0345
    4SAPS  H13X  515   5.247   5.721   8.749  0.3653  0.8914 -1.7495
    4SAPS  H13Y  516   5.395   5.669   8.838 -0.3356  0.2048 -0.2256
    4SAPS  C314  517   5.436   5.832   8.714  0.1761 -0.5833 -0.0061
    4SAPS  H14X  518   5.517   5.872   8.778  1.3291 -2.4879 -0.2143
    4SAPS  H14Y  519   5.378   5.916   8.668  0.1037 -0.6823 -0.0954
    4SAPS  C315  520   5.499   5.743   8.603 -0.1005  0.3319  0.9804
    4SAPS  H15X  521   5.421   5.708   8.533  0.3525  1.6013 -0.1916
    4SAPS  H15Y  522   5.551   5.657   8.650  0.4937  0.9728  1.5362
    4SAPS  C316  523   5.603   5.815   8.519  0.0485 -0.0352  0.6975
    4SAPS  H16X  524   5.643   5.898   8.582  2.4832 -0.1942 -0.5002
    4SAPS  H16Y  525   5.550   5.866   8.437  1.9295 -0.9094 -1.1511
    4SAPS  C317  526   5.713   5.724   8.462  0.1453  0.2643  0.2544
    4SAPS  H17X  527   5.663   5.640   8.409  2.8717 -1.3510  0.0731
    4SAPS  H17Y  528   5.779   5.676   8.537 -0.6353 -0.9170  0.2197
    4SAPS  C318  529   5.812   5.802   8.368 -0.3606  0.1119  0.0602
    4SAPS  H18X  530   5.868   5.875   8.431 -1.8084  0.2239  1.2657
    4SAPS  H18Y  531   5.751   5.856   8.293 -0.6132 -0.5359 -0.2008
    4SAPS  H18Z  532   5.877   5.731   8.312  0.1772 -1.0248  2.0314
    5SAPS     N  533   4.622   5.205  10.918  0.2926  0.4348  0.0309
    5SAPS   HN1  534   4.583   5.109  10.920  0.7991  0.1827  3.2311
    5SAPS   HN2  535   4.673   5.227  10.831  0.5645  3.1061  0.7664
    5SAPS   HN3  536   4.678   5.217  11.005 -0.1124 -0.7948  0.4878
    5SAPS   C12  537   4.503   5.293  10.930 -0.1508  0.1449  0.0889
    5SAPS  H12A  538   4.445   5.299  10.840 -1.0619  0.1212  0.6610
    5SAPS   C13  539   4.397   5.231  11.018 -0.2694  0.1297 -0.1384
    5SAPS  O13A  540   4.408   5.112  11.068  0.2091  0.5206 -0.0443
    5SAPS  O13B  541   4.291   5.291  11.028  0.7589  0.5976 -0.3008
    5SAPS   C11  542   4.539   5.438  10.973  0.0990 -0.8156  0.2215
    5SAPS  H11A  543   4.554   5.442  11.083 -0.0974 -1.1386  0.2610
    5SAPS  H11B  544   4.452   5.502  10.947  0.3498 -0.6246 -0.1514
    5SAPS     P  545   4.636   5.581  10.772  0.0278 -0.3166 -0.0118
    5SAPS   O13  546   4.628   5.716  10.836  0.5718  0.5445  0.1783
    5SAPS   O14  547   4.751   5.559  10.683  0.3018  0.4690  0.8006
    5SAPS   O12  548   4.654   5.480  10.896  0.5414  0.4287  0.1133
    5SAPS   O11  549   4.495   5.539  10.712 -0.6756  0.3980  0.3237
    5SAPS    C1  550   4.479   5.475  10.593  0.2081  0.1656 -0.3051
    5SAPS    HA  551   4.560   5.399  10.579  1.4572  1.4294 -0.1851
    5SAPS    HB  552   4.387   5.413  10.589 -1.6779  2.6096  1.8954
    5SAPS    C2  553   4.470   5.568  10.471  0.4108 -0.0659 -0.4406
    5SAPS    HS  554   4.551   5.644  10.471  2.4012 -2.0585 -2.0115
    5SAPS   O21  555   4.344   5.641  10.482 -0.2128 -0.2448 -0.0877
    5SAPS   C21  556   4.341   5.772  10.442 -0.9503 -0.3342 -0.0397
    5SAPS   O22  557   4.434   5.828  10.391 -0.3955 -0.4074 -0.3270
    5SAPS   C22  558   4.205   5.837  10.457 -0.1267  0.4650  0.3816
    5SAPS   H2R  559   4.121   5.765  10.447  1.5045 -1.3502 -0.9433
    5SAPS   H2S  560   4.204   5.897  10.551  3.9600  1.4096 -0.0025
    5SAPS    C3  561   4.471   5.493  10.340  0.2782  0.1170  0.0321
    5SAPS    HX  562   4.387   5.421  10.336  0.1169  0.2685  0.5458
    5SAPS    HY  563   4.556   5.421  10.334 -0.3038 -0.4815 -1.2200
    5SAPS   O31  564   4.469   5.583  10.232 -0.1311 -0.9599  0.1785
    5SAPS   C31  565   4.580   5.656  10.224  0.1270 -0.3263  0.5065
    5SAPS   O32  566   4.680   5.642  10.295  0.0444 -0.5274 -0.0014
    5SAPS   C32  567   4.571   5.737  10.098 -0.2319 -0.1495 -0.2654
    5SAPS   H2X  568   4.488   5.810  10.104 -0.0732 -0.0845  1.6166
    5SAPS   H2Y  569   4.548   5.663  10.018 -2.2002  1.4120 -1.2464
    5SAPS   C23  570   4.184   5.938  10.342 -0.3260 -0.2993  0.5272
    5SAPS   H3R  571   4.214   5.898  10.243  1.5221  3.4977 -0.6778
    5SAPS   H3S  572   4.260   6.016  10.368 -1.4474  1.7908 -2.0036
    5SAPS   C24  573   4.041   6.002  10.327  0.2247  0.3874 -0.3460
    5SAPS   H4R  574   4.015   6.033  10.430  0.5545  3.7201 -1.1665
    5SAPS   H4S  575   3.976   5.914  10.306  0.3587 -0.4027  2.1752
    5SAPS   C25  576   4.042   6.121  10.229 -0.1870 -0.1706  0.4728
    5SAPS   H5R  577   4.000   6.219  10.253 -0.8542 -0.4673  0.5390
    5SAPS   C26  578   4.063   6.106  10.099  0.2966  0.1549  0.2418
    5SAPS   H6R  579   4.067   6.199  10.041  1.1231  0.5517  0.9199
    5SAPS   C27  580   4.086   5.982  10.014 -0.9013  0.3048 -1.0438
    5SAPS   H7R  581   4.009   5.988   9.934 -1.6062 -0.8516 -0.4842
    5SAPS   H7S  582   4.057   5.890  10.069 -0.3816 -0.0301 -1.3294
    5SAPS   C28  583   4.232   5.972   9.970  0.5609 -0.1871 -0.3350
    5SAPS   H8R  584   4.301   6.001  10.051 -0.4980 -1.4396  1.0997
    5SAPS   C29  585   4.279   5.942   9.842  0.1124  0.1975 -0.3043
    5SAPS   H9R  586   4.387   5.949   9.824 -0.0089  1.7617 -0.5574
    5SAPS  C210  587   4.198   5.922   9.714 -0.7369  1.1895  0.4627
    5SAPS  H10R  588   4.115   5.848   9.719  0.6260 -0.3631  0.8582
    5SAPS  H10S  589   4.275   5.891   9.639 -1.0168  1.8297 -0.1056
    5SAPS  C211  590   4.143   6.055   9.670  0.4486  0.8554 -0.1661
    5SAPS  H11R  591   4.062   6.101   9.728  0.1038 -1.2652  1.1498
    5SAPS  C212  592   4.165   6.112   9.555 -0.2383 -1.0688  0.1971
    5SAPS  H12R  593   4.118   6.211   9.543  0.2071 -0.4902  2.5993
    5SAPS  C213  594   4.257   6.075   9.438  0.1840  0.2363 -0.0808
    5SAPS  H13R  595   4.340   6.011   9.475  1.5389  0.0434 -3.1168
    5SAPS  H13S  596   4.296   6.167   9.389  1.3004 -0.5223 -0.6739
    5SAPS  C214  597   4.182   5.990   9.340  0.7585  0.0620 -0.0689
    5SAPS  H14R  598   4.148   5.894   9.383  1.9007 -0.4808 -0.3496
    5SAPS  C215  599   4.148   6.030   9.211 -0.2783  0.4209 -0.2256
    5SAPS  H15R  600   4.100   5.953   9.149  2.8670 -1.9862  0.0531
    5SAPS  C216  601   4.184   6.168   9.147  0.2069 -0.1337 -0.4194
    5SAPS  H16R  602   4.226   6.238   9.223 -2.9179  1.7587 -0.2470
    5SAPS  H16S  603   4.082   6.207   9.124  0.7420  0.5828 -1.6923
    5SAPS  C217  604   4.260   6.143   9.019 -0.3886 -0.0559 -0.4295
    5SAPS  H17R  605   4.203   6.069   8.959 -1.5788  0.5971 -0.1441
    5SAPS  H17S  606   4.356   6.094   9.044 -0.5540 -0.2724 -0.2116
    5SAPS  C218  607   4.282   6.267   8.938  0.2692  0.4184  0.6164
    5SAPS  H18R  608   4.189   6.328   8.934  0.9130  1.5914  2.2042
    5SAPS  H18S  609   4.356   6.342   8.975  0.8303  0.6153 -0.8621
    5SAPS  C219  610   4.306   6.219   8.792 -0.1768  0.5024  0.2163
    5SAPS  H19R  611   4.314   6.309   8.727  0.2968  1.4765  1.5644
    5SAPS  H19S  612   4.228   6.154   8.747  2.1735 -0.5888 -2.5692
    5SAPS  C220  613   4.436   6.150   8.781 -0.2808  0.4386 -0.3246
    5SAPS  H20R  614   4.486   6.145   8.682  1.6605  0.1164  0.6335
    5SAPS  H20S  615   4.432   6.047   8.823 -1.5445 -0.0408 -1.5290
    5SAPS  H20T  616   4.510   6.201   8.846 -0.9628 -0.5661  1.3067
    5SAPS   C33  617   4.697   5.812  10.053 -0.5855  0.0041  0.0275
    5SAPS   H3X  618   4.777   5.736  10.047  0.1955  0.5271  2.5889
    5SAPS   H3Y  619   4.738   5.871  10.138  2.5107 -1.1488 -0.5466
    5SAPS   C34  620   4.686   5.888   9.921  0.3790 -0.2770  0.2343
    5SAPS   H4X  621   4.784   5.939   9.902 -0.1930 -0.2706 -3.6348
    5SAPS   H4Y  622   4.614   5.972   9.929  0.4850 -0.0006 -1.3070
    5SAPS   C35  623   4.644   5.818   9.783  0.0588  0.1280 -0.0308
    5SAPS   H5X  624   4.555   5.752   9.783  0.6801 -0.7370  0.6531
    5SAPS   H5Y  625   4.723   5.747   9.749 -1.0978 -0.0156 -2.6777
    5SAPS   C36  626   4.624   5.922   9.669  0.7172  0.3175 -0.0412
    5SAPS   H6X  627   4.717   5.981   9.653  1.7403 -0.7810  1.5264
    5SAPS   H6Y  628   4.534   5.986   9.680  0.9779  1.0897 -1.9700
    5SAPS   C37  629   4.600   5.851   9.529  0.8342  0.6089 -0.2663
    5SAPS   H7X  630   4.492   5.824   9.527  1.0540 -0.3234 -0.0627
    5SAPS   H7Y  631   4.662   5.759   9.529  0.8242  0.5983  0.2158
    5SAPS   C38  632   4.645   5.942   9.407  0.2086  0.6709  0.3326
    5SAPS   H8X  633   4.755   5.954   9.402  0.2973  0.3377  1.2708
    5SAPS   H8Y  634   4.605   6.045   9.407 -1.0803  0.2406 -1.8928
    5SAPS   C39  635   4.603   5.877   9.266 -0.5287  0.3335 -0.3323
    5SAPS   H9X  636   4.492   5.881   9.255 -0.5870 -0.5612 -0.1092
    5SAPS   H9Y  637   4.611   5.766   9.271 -0.3996  0.3769  0.9167
    5SAPS  C310  638   4.678   5.938   9.136 -0.1401 -0.4003 -0.8790
    5SAPS  H10X  639   4.782   5.970   9.155 -0.5738  0.6532 -0.1364
    5SAPS  H10Y  640   4.627   6.031   9.102  0.3964  0.0706 -0.4147
    5SAPS  C311  641   4.696   5.828   9.027  0.0840  0.1995 -0.1308
    5SAPS  H11X  642   4.595   5.782   9.022 -0.8032  1.4779  3.0926
    5SAPS  H11Y  643   4.763   5.755   9.077 -1.3511 -0.7288  0.5035
    5SAPS  C312  644   4.745   5.861   8.886  0.3450  0.0256  0.2646
    5SAPS  H12X  645   4.662   5.913   8.834  0.3658 -0.0763  0.1251
    5SAPS  H12Y  646   4.755   5.768   8.826 -1.6426  0.3644 -0.6592
    5SAPS  C313  647   4.868   5.950   8.879 -0.0473 -0.1804  0.3471
    5SAPS  H13X  648   4.957   5.897   8.921  1.3969  0.1163 -2.1618
    5SAPS  H13Y  649   4.854   6.029   8.956 -1.0272 -4.1937  4.7719
    5SAPS  C314  650   4.893   6.006   8.741  0.0742  0.5005  0.0483
    5SAPS  H14X  651   4.941   6.106   8.747  1.9624 -0.3607  0.2022
    5SAPS  H14Y  652   4.790   6.019   8.702 -1.6135 -1.3377  3.4509
    5SAPS  C315  653   4.987   5.915   8.659 -0.5535 -0.4588  0.0179
    5SAPS  H15X  654   5.051   5.856   8.729 -1.4086 -0.5713  0.7241
    5SAPS  H15Y  655   5.059   5.974   8.599 -0.1426 -0.7682  0.1994
    5SAPS  C316  656   4.926   5.816   8.557  0.0794 -0.8479  0.4371
    5SAPS  H16X  657   4.866   5.867   8.479  0.2344 -0.9331  0.2619
    5SAPS  H16Y  658   4.855   5.756   8.619 -0.6124 -0.8418 -0.3275
    5SAPS  C317  659   5.013   5.708   8.489  0.4653  0.0273 -0.4364
    5SAPS  H17X  660   4.957   5.621   8.450  0.2843 -0.6880  1.3025
    5SAPS  H17Y  661   5.068   5.662   8.574  1.0420  1.5078  0.0253
    5SAPS  C318  662   5.108   5.769   8.383 -1.1347  0.1290 -0.6655
    5SAPS  H18X  663   5.135   5.869   8.425 -3.4306  1.2847 -1.7231
    5SAPS  H18Y  664   5.050   5.789   8.290 -1.6831  1.3198 -0.0972
    5SAPS  H18Z  665   5.194   5.708   8.348 -1.6975 -0.2565 -1.4063
    6SAPS     N  666   2.545   5.668  10.544  0.1004  0.1809 -0.3981
    6SAPS   HN1  667   2.598   5.676  10.455 -0.5102 -0.6373 -0.8522
    6SAPS   HN2  668   2.456   5.623  10.517  0.7987 -0.9879 -0.8126
    6SAPS   HN3  669   2.526   5.764  10.579 -0.6596  0.1194 -0.6324
    6SAPS   C12  670   2.614   5.596  10.651  0.0291  0.6303  0.0479
    6SAPS  H12A  671   2.692   5.655  10.697 -0.1872 -0.0741  1.3736
    6SAPS   C13  672   2.510   5.558  10.757  0.1776 -0.9658 -0.1954
    6SAPS  O13A  673   2.386   5.582  10.746 -0.4425 -0.2340 -0.0808
    6SAPS  O13B  674   2.547   5.491  10.856  0.2498 -0.0019  0.5569
    6SAPS   C11  675   2.678   5.466  10.588 -0.0134 -0.1294  0.7752
    6SAPS  H11A  676   2.594   5.406  10.548 -0.5864  0.7275  0.6655
    6SAPS  H11B  677   2.726   5.409  10.671 -1.0190 -1.6644  0.3300
    6SAPS     P  678   2.906   5.569  10.507 -0.1334 -0.0478 -0.2234
    6SAPS   O13  679   2.892   5.715  10.478 -0.0535  0.1681  0.2778
    6SAPS   O14  680   2.959   5.529  10.637 -0.4341  0.1159  0.5967
    6SAPS   O12  681   2.765   5.498  10.475  0.2461 -0.0229 -0.4633
    6SAPS   O11  682   2.999   5.511  10.397 -0.2014  0.0710 -0.4207
    6SAPS    C1  683   2.988   5.379  10.347  0.0894 -0.7496  0.0526
    6SAPS    HA  684   3.080   5.325  10.377  0.9056  1.5465  1.9767
    6SAPS    HB  685   2.898   5.331  10.391 -1.5079  1.2547 -0.8159
    6SAPS    C2  686   2.969   5.387  10.193 -0.3442 -0.1860 -0.8106
    6SAPS    HS  687   2.962   5.287  10.145 -0.9034  0.7444 -2.7592
    6SAPS   O21  688   3.071   5.464  10.139 -0.1240 -0.7730 -0.1613
    6SAPS   C21  689   3.182   5.399  10.133  0.1321 -0.6757  0.4994
    6SAPS   O22  690   3.197   5.284  10.165 -0.3894 -0.4194 -0.2085
    6SAPS   C22  691   3.282   5.494  10.068 -0.5252  0.2553 -0.2139
    6SAPS   H2R  692   3.225   5.573  10.014 -1.5380 -0.1423  0.2447
    6SAPS   H2S  693   3.325   5.557  10.149 -3.5133  0.5260  1.3390
    6SAPS    C3  694   2.826   5.443  10.170 -0.2933 -0.9742 -0.2660
    6SAPS    HX  695   2.820   5.549  10.204 -4.2276  0.5026 -4.5054
    6SAPS    HY  696   2.757   5.392  10.240 -0.5661  1.3956  1.2986
    6SAPS   O31  697   2.785   5.425  10.033  0.7635  0.1811  0.6426
    6SAPS   C31  698   2.705   5.514   9.984  0.4398 -0.5852 -0.1701
    6SAPS   O32  699   2.667   5.622  10.034 -0.7879  0.0130  0.1621
    6SAPS   C32  700   2.672   5.482   9.836  0.1448  0.0158  0.3352
    6SAPS   H2X  701   2.668   5.581   9.785 -2.2234 -0.7082 -1.0769
    6SAPS   H2Y  702   2.575   5.428   9.829 -0.5626  1.0225  1.7562
    6SAPS   C23  703   3.389   5.425   9.977 -0.4339 -0.2534 -0.6150
    6SAPS   H3R  704   3.441   5.354  10.045 -0.7663 -1.2499 -1.3791
    6SAPS   H3S  705   3.460   5.507   9.950 -0.6176  0.2122  0.2735
    6SAPS   C24  706   3.336   5.343   9.863  0.1571 -0.2711 -0.5141
    6SAPS   H4R  707   3.270   5.263   9.905  2.0379 -1.9515 -0.5844
    6SAPS   H4S  708   3.417   5.288   9.811  0.2790 -0.8763  0.2880
    6SAPS   C25  709   3.252   5.436   9.773  0.2270  0.4595 -0.0556
    6SAPS   H5R  710   3.229   5.530   9.823  0.0586  0.1656  0.4214
    6SAPS   C26  711   3.225   5.421   9.641  0.0610  0.5024  0.2390
    6SAPS   H6R  712   3.176   5.500   9.583  0.2178 -1.5906 -2.9994
    6SAPS   C27  713   3.272   5.302   9.551  0.9433 -0.0832  0.4667
    6SAPS   H7R  714   3.189   5.248   9.501  0.7373  2.1896 -1.8479
    6SAPS   H7S  715   3.313   5.225   9.619 -0.0921 -0.1946  0.9836
    6SAPS   C28  716   3.365   5.357   9.447 -0.0879 -0.2474  0.1610
    6SAPS   H8R  717   3.336   5.451   9.397  0.1542 -0.8800 -1.2189
    6SAPS   C29  718   3.494   5.324   9.433  0.0457  0.2032 -0.6061
    6SAPS   H9R  719   3.567   5.388   9.380  0.8983  0.0429  0.3390
    6SAPS  C210  720   3.567   5.226   9.527 -0.1827 -0.2520  0.2421
    6SAPS  H10R  721   3.635   5.153   9.477  1.0803 -0.0599  1.6196
    6SAPS  H10S  722   3.501   5.156   9.582 -1.1082  0.4304  0.0311
    6SAPS  C211  723   3.650   5.294   9.633 -0.0807  0.1924 -0.1292
    6SAPS  H11R  724   3.609   5.394   9.654 -0.0806  0.0633  0.5055
    6SAPS  C212  725   3.775   5.261   9.681 -0.2063 -0.5296  0.0307
    6SAPS  H12R  726   3.820   5.323   9.760  0.9690  0.3413 -1.2492
    6SAPS  C213  727   3.859   5.146   9.655 -0.3303 -0.2031 -0.3287
    6SAPS  H13R  728   3.811   5.073   9.586 -2.1932  0.8107 -0.1583
    6SAPS  H13S  729   3.872   5.107   9.758 -0.9166 -1.1186 -0.5900
    6SAPS  C214  730   3.987   5.176   9.587 -0.6637  0.0567  1.4112
    6SAPS  H14R  731   4.072   5.191   9.654  2.5581 -2.1603 -1.7925
    6SAPS  C215  732   4.000   5.184   9.451 -0.0914 -0.4408  0.1511
    6SAPS  H15R  733   4.099   5.189   9.404  0.1258 -1.0016  0.5358
    6SAPS  C216  734   3.882   5.174   9.359  0.0357  0.2675  0.7429
    6SAPS  H16R  735   3.802   5.246   9.388  1.5650  2.3042  0.1257
    6SAPS  H16S  736   3.833   5.074   9.361  0.8576 -0.1981 -0.7926
    6SAPS  C217  737   3.921   5.208   9.208  0.0734  0.1119  0.3020
    6SAPS  H17R  738   4.017   5.154   9.191  1.4030  1.6793  2.3801
    6SAPS  H17S  739   3.958   5.311   9.193  0.5987 -0.2170 -0.7534
    6SAPS  C218  740   3.821   5.168   9.089  0.2100 -0.2813 -0.9921
    6SAPS  H18R  741   3.728   5.228   9.088  0.1038 -0.4439 -0.8229
    6SAPS  H18S  742   3.790   5.063   9.108 -1.2741  0.0792 -1.3397
    6SAPS  C219  743   3.893   5.171   8.951 -0.5555 -0.0897 -0.4061
    6SAPS  H19R  744   3.934   5.069   8.934 -1.3096 -0.2911 -1.0675
    6SAPS  H19S  745   3.983   5.237   8.953 -0.3023 -0.3935  2.9868
    6SAPS  C220  746   3.807   5.211   8.830  0.3784  0.4220  0.2542
    6SAPS  H20R  747   3.767   5.315   8.826  0.0541  0.2625 -2.9314
    6SAPS  H20S  748   3.714   5.150   8.822  0.8596 -0.1196 -1.5844
    6SAPS  H20T  749   3.869   5.197   8.739 -0.9885  0.1446 -0.6616
    6SAPS   C33  750   2.782   5.397   9.771  0.5460 -0.1806 -0.0860
    6SAPS   H3X  751   2.791   5.301   9.826  0.1195 -0.8220 -1.1109
    6SAPS   H3Y  752   2.881   5.444   9.785  2.3550 -3.7833  0.3505
    6SAPS   C34  753   2.775   5.363   9.616  0.1319  0.4936  0.9318
    6SAPS   H4X  754   2.689   5.297   9.590  0.4656  0.4703 -0.1832
    6SAPS   H4Y  755   2.861   5.294   9.601 -1.0601 -0.5170 -2.0918
    6SAPS   C35  756   2.791   5.475   9.511 -0.3012 -0.3329  0.5569
    6SAPS   H5X  757   2.870   5.545   9.545  0.0235 -1.3658  2.0498
    6SAPS   H5Y  758   2.695   5.531   9.524 -0.2027 -0.0602  0.1263
    6SAPS   C36  759   2.824   5.434   9.369 -0.6236 -0.4927 -0.2980
    6SAPS   H6X  760   2.820   5.525   9.305  2.3251 -0.6632 -0.8808
    6SAPS   H6Y  761   2.752   5.363   9.324 -1.7327  0.8533 -0.7331
    6SAPS   C37  762   2.972   5.403   9.345  0.2284  1.0185  0.1664
    6SAPS   H7X  763   3.003   5.304   9.386  0.4193  0.5772 -1.0228
    6SAPS   H7Y  764   3.043   5.484   9.370  1.2385  0.6774 -1.4419
    6SAPS   C38  765   3.004   5.381   9.191 -0.4758  0.3395 -0.0921
    6SAPS   H8X  766   3.007   5.487   9.157  1.7859 -0.3877 -2.4878
    6SAPS   H8Y  767   2.924   5.326   9.137  1.7022 -1.9610 -1.1932
    6SAPS   C39  768   3.139   5.318   9.156  0.0648  1.1198 -0.3484
    6SAPS   H9X  769   3.147   5.214   9.194 -1.0746  1.1108 -0.0805
    6SAPS   H9Y  770   3.210   5.372   9.221 -0.5110 -0.2051  1.4471
    6SAPS  C310  771   3.181   5.340   9.011 -0.6465  0.6223  0.5984
    6SAPS  H10X  772   3.158   5.445   8.984  2.1842  1.1948  0.0972
    6SAPS  H10Y  773   3.122   5.284   8.935  0.4255  1.2978 -0.7687
    6SAPS  C311  774   3.330   5.326   8.977 -0.0562  0.0027  0.3193
    6SAPS  H11X  775   3.359   5.221   8.999 -1.4050 -0.1513  1.5157
    6SAPS  H11Y  776   3.389   5.381   9.053  1.1298  0.3764 -0.8265
    6SAPS  C312  777   3.377   5.358   8.838  0.3465  0.1745  0.6704
    6SAPS  H12X  778   3.486   5.376   8.834  0.3677  0.8968  2.9832
    6SAPS  H12Y  779   3.317   5.449   8.818 -1.0376 -1.0219 -0.9068
    6SAPS  C313  780   3.329   5.257   8.728  0.1210 -0.1354  0.1224
    6SAPS  H13X  781   3.322   5.304   8.628 -0.6185  1.1370  0.7585
    6SAPS  H13Y  782   3.231   5.216   8.760 -0.5371  0.8913 -0.5359
    6SAPS  C314  783   3.421   5.135   8.723 -0.4933  0.1618 -0.4255
    6SAPS  H14X  784   3.378   5.033   8.733  0.3051 -0.2683 -1.2172
    6SAPS  H14Y  785   3.496   5.137   8.805 -0.8569 -0.0933 -0.0824
    6SAPS  C315  786   3.503   5.137   8.592 -0.0854 -0.3311 -0.0191
    6SAPS  H15X  787   3.593   5.072   8.604  1.1670  0.7207 -2.9238
    6SAPS  H15Y  788   3.541   5.240   8.573 -2.4693  0.6280  0.1061
    6SAPS  C316  789   3.418   5.086   8.479 -0.2539 -0.5297  0.1732
    6SAPS  H16X  790   3.330   5.149   8.457 -0.0581 -0.4223 -0.2973
    6SAPS  H16Y  791   3.391   4.979   8.494  0.9739 -0.8185  0.3846
    6SAPS  C317  792   3.488   5.081   8.349 -0.0572  0.4614 -0.1675
    6SAPS  H17X  793   3.560   4.997   8.354 -1.7102 -0.9545  0.4797
    6SAPS  H17Y  794   3.544   5.173   8.321  2.2119 -1.0948 -0.9826
    6SAPS  C318  795   3.396   5.055   8.233  0.3820 -0.0195  1.0482
    6SAPS  H18X  796   3.339   5.146   8.202  1.8219  0.9996  1.2887
    6SAPS  H18Y  797   3.313   4.988   8.264  0.4143 -0.3142  0.5105
    6SAPS  H18Z  798   3.449   5.009   8.146  1.2537  3.1761 -0.2561
    7SAPS     N  799   5.910   6.359  10.419 -0.3363  0.1148  0.1676
    7SAPS   HN1  800   5.824   6.323  10.373 -2.2901  1.4911  2.4851
    7SAPS   HN2  801   5.969   6.413  10.352 -1.8482  0.7333 -0.7027
    7SAPS   HN3  802   5.962   6.280  10.463 -3.6797 -1.7802  1.0784
    7SAPS   C12  803   5.880   6.462  10.531  0.2793  0.5360 -0.2732
    7SAPS  H12A  804   5.800   6.527  10.499 -0.3429 -0.7863 -1.5510
    7SAPS   C13  805   5.829   6.393  10.658 -0.4756 -0.2667  0.2316
    7SAPS  O13A  806   5.803   6.266  10.657 -0.2686 -0.1142  0.0595
    7SAPS  O13B  807   5.788   6.461  10.755  0.6864 -0.5730  0.4720
    7SAPS   C11  808   6.015   6.525  10.572 -0.1471  0.3018  0.0300
    7SAPS  H11A  809   6.081   6.445  10.613  1.1210  0.7815 -0.9895
    7SAPS  H11B  810   5.993   6.599  10.651 -2.7566 -1.5421  1.1704
    7SAPS     P  811   6.199   6.696  10.496  0.3238 -0.0692 -0.3829
    7SAPS   O13  812   6.151   6.831  10.448 -0.0321  0.3814 -0.2593
    7SAPS   O14  813   6.235   6.692  10.637 -0.6971 -0.8503 -0.4192
    7SAPS   O12  814   6.080   6.593  10.460 -0.1380 -0.0183 -0.2641
    7SAPS   O11  815   6.322   6.652  10.400  1.0366  0.3915 -0.1934
    7SAPS    C1  816   6.307   6.546  10.316  0.2910 -0.2159 -0.9765
    7SAPS    HA  817   6.409   6.514  10.288 -0.3655 -3.5218  0.0607
    7SAPS    HB  818   6.256   6.459  10.362  1.7046  0.2006  1.5584
    7SAPS    C2  819   6.252   6.604  10.186  0.0149 -0.3774  0.1944
    7SAPS    HS  820   6.159   6.663  10.198  0.6758  0.5337  0.9588
    7SAPS   O21  821   6.239   6.496  10.089 -0.1363 -0.0095  0.3639
    7SAPS   C21  822   6.143   6.408  10.114  0.1553 -0.1922 -0.3262
    7SAPS   O22  823   6.067   6.407  10.211  0.3473  0.1477  0.0631
    7SAPS   C22  824   6.127   6.299  10.003 -0.2308 -0.3951 -0.2305
    7SAPS   H2R  825   6.223   6.303   9.948  0.6623 -0.5904  1.2438
    7SAPS   H2S  826   6.118   6.201  10.055 -0.5721 -2.0144 -3.1606
    7SAPS    C3  827   6.348   6.710  10.119  0.8063 -0.0142 -0.6042
    7SAPS    HX  828   6.444   6.656  10.105  0.8624  0.2116 -1.1294
    7SAPS    HY  829   6.356   6.795  10.190  1.2366 -0.8474  0.3675
    7SAPS   O31  830   6.294   6.752   9.988  0.1299  0.5681 -0.2747
    7SAPS   C31  831   6.202   6.848  10.001 -0.2844  0.4217  0.8582
    7SAPS   O32  832   6.179   6.921  10.096 -0.0718 -0.4540 -0.3457
    7SAPS   C32  833   6.120   6.849   9.880 -0.0379 -0.3354  0.2400
    7SAPS   H2X  834   6.097   6.956   9.863 -1.8678 -0.6187  0.7254
    7SAPS   H2Y  835   6.025   6.800   9.911  0.7847 -2.8981 -0.9826
    7SAPS   C23  836   5.999   6.323   9.914 -0.2176  0.3329 -0.2461
    7SAPS   H3R  837   5.905   6.321   9.973  0.1107  0.4082  0.2802
    7SAPS   H3S  838   5.995   6.236   9.845 -0.3528  1.4796 -1.7381
    7SAPS   C24  839   5.999   6.438   9.813 -0.1570  0.1693  0.5531
    7SAPS   H4R  840   5.991   6.532   9.871 -1.2755 -0.4130  1.3710
    7SAPS   H4S  841   5.902   6.416   9.764 -0.2004  0.2460  0.6060
    7SAPS   C25  842   6.109   6.430   9.718  0.1857  1.2026 -0.1174
    7SAPS   H5R  843   6.203   6.455   9.770 -0.0471 -0.2397  1.0979
    7SAPS   C26  844   6.105   6.372   9.596 -0.8337  0.3478  0.2890
    7SAPS   H6R  845   6.204   6.365   9.548 -0.8303 -1.0727  0.4563
    7SAPS   C27  846   5.987   6.300   9.528  0.2286 -0.5955 -0.7186
    7SAPS   H7R  847   5.899   6.292   9.594  1.3939 -0.2522  0.9547
    7SAPS   H7S  848   6.029   6.199   9.511  3.5282  0.3221  1.0265
    7SAPS   C28  849   5.940   6.358   9.392 -0.7334 -0.3902 -0.2947
    7SAPS   H8R  850   5.857   6.429   9.404  0.1521  1.1722 -2.6113
    7SAPS   C29  851   5.986   6.345   9.272  0.0451  0.3967  0.2183
    7SAPS   H9R  852   5.944   6.404   9.190  0.7264  0.8656  0.1982
    7SAPS  C210  853   6.114   6.270   9.233  0.1514  0.3112 -0.1609
    7SAPS  H10R  854   6.131   6.200   9.317  0.2398  0.4870 -0.0321
    7SAPS  H10S  855   6.196   6.344   9.219  0.5371 -0.4148 -1.9991
    7SAPS  C211  856   6.090   6.218   9.090  1.1453  0.0260  0.4318
    7SAPS  H11R  857   6.043   6.119   9.090  0.1593  0.4178  2.7556
    7SAPS  C212  858   6.085   6.285   8.972  0.1180  0.2298 -0.6766
    7SAPS  H12R  859   6.074   6.233   8.876  2.3478 -0.4509 -0.6136
    7SAPS  C213  860   6.106   6.429   8.942  0.0400  0.1661  1.0673
    7SAPS  H13R  861   6.152   6.484   9.026  2.1725 -1.1650  0.8537
    7SAPS  H13S  862   6.002   6.464   8.925 -1.2792 -3.3790  0.9818
    7SAPS  C214  863   6.198   6.463   8.820 -0.7140 -0.0798 -0.4957
    7SAPS  H14R  864   6.301   6.489   8.846  0.1521 -1.7803 -2.0452
    7SAPS  C215  865   6.167   6.459   8.694  0.0952 -0.8960 -0.3734
    7SAPS  H15R  866   6.242   6.484   8.618  0.3870  0.5422  0.3488
    7SAPS  C216  867   6.027   6.447   8.640 -0.1357 -0.0168 -0.7020
    7SAPS  H16R  868   5.953   6.477   8.717 -0.6737 -1.7611 -0.4945
    7SAPS  H16S  869   6.009   6.341   8.614  1.6329  0.1846 -3.1862
    7SAPS  C217  870   6.013   6.543   8.521  0.7236  0.9609  0.2515
    7SAPS  H17R  871   6.057   6.642   8.544  0.3601  0.9912  0.8244
    7SAPS  H17S  872   5.904   6.547   8.500  0.4612 -3.2800 -0.0347
    7SAPS  C218  873   6.063   6.494   8.382 -0.5604 -0.6319  0.3252
    7SAPS  H18R  874   6.040   6.387   8.366 -1.7883 -0.1928 -1.0920
    7SAPS  H18S  875   6.174   6.495   8.378 -0.4486 -3.4540  0.7982
    7SAPS  C219  876   6.011   6.580   8.274 -0.8361 -0.1319  0.1419
    7SAPS  H19R  877   6.054   6.559   8.174 -1.4545 -0.0045 -0.1600
    7SAPS  H19S  878   6.047   6.683   8.294 -1.3057  0.4624 -1.8257
    7SAPS  C220  879   5.859   6.588   8.251  0.7681  0.0056  0.2891
    7SAPS  H20R  880   5.846   6.661   8.169 -3.8948 -1.8664 -0.9860
    7SAPS  H20S  881   5.808   6.626   8.342 -0.8074  1.4580 -1.1190
    7SAPS  H20T  882   5.817   6.494   8.209  3.2398 -1.1628  0.2394
    7SAPS   C33  883   6.178   6.774   9.756 -0.2933  0.4781 -0.0979
    7SAPS   H3X  884   6.113   6.685   9.741 -0.5090  0.8721 -1.5952
    7SAPS   H3Y  885   6.283   6.739   9.757 -0.8656 -1.3628 -0.1878
    7SAPS   C34  886   6.166   6.869   9.636  1.0053  0.3344  0.1207
    7SAPS   H4X  887   6.242   6.949   9.634  1.9717 -0.5377  0.9079
    7SAPS   H4Y  888   6.067   6.921   9.632  1.8844  2.2425  1.5072
    7SAPS   C35  889   6.181   6.792   9.505  0.0512  0.1216 -0.2356
    7SAPS   H5X  890   6.097   6.719   9.501 -0.3481  0.2166  3.4417
    7SAPS   H5Y  891   6.278   6.738   9.510  1.9957  3.1727 -1.7857
    7SAPS   C36  892   6.178   6.881   9.381  0.9767 -0.2305  0.5714
    7SAPS   H6X  893   6.229   6.979   9.397  0.2941 -0.1729  2.8440
    7SAPS   H6Y  894   6.070   6.901   9.363  0.4378 -3.2841 -0.1315
    7SAPS   C37  895   6.234   6.804   9.264 -0.2326 -0.0872 -0.4463
    7SAPS   H7X  896   6.174   6.712   9.251  0.6452 -0.9743  1.3453
    7SAPS   H7Y  897   6.342   6.787   9.286 -0.0958  0.7324 -0.4653
    7SAPS   C38  898   6.223   6.875   9.131 -0.3806  0.3218  0.6903
    7SAPS   H8X  899   6.258   6.979   9.146 -3.1294  1.4113 -0.0158
    7SAPS   H8Y  900   6.121   6.889   9.090 -0.0209  0.5187 -0.1546
    7SAPS   C39  901   6.311   6.803   9.023  0.2679  0.2116  0.2104
    7SAPS   H9X  902   6.281   6.697   9.014  0.2463  0.3090 -1.0300
    7SAPS   H9Y  903   6.419   6.795   9.046  0.7689  2.1104 -1.2263
    7SAPS  C310  904   6.285   6.870   8.882 -0.3871  0.1630  0.5916
    7SAPS  H10X  905   6.329   6.972   8.888  0.8295 -0.1400 -1.8342
    7SAPS  H10Y  906   6.177   6.878   8.858 -0.0742 -0.5357 -1.1505
    7SAPS  C311  907   6.348   6.787   8.768 -0.8155 -0.5401  0.5415
    7SAPS  H11X  908   6.294   6.693   8.749  0.7362 -1.3832  0.1021
    7SAPS  H11Y  909   6.450   6.750   8.794 -1.2364 -2.2969 -0.2242
    7SAPS  C312  910   6.345   6.868   8.644 -0.3213 -0.6402  0.5516
    7SAPS  H12X  911   6.386   6.970   8.663 -0.1033 -0.9481  1.8004
    7SAPS  H12Y  912   6.244   6.876   8.598  0.0083  0.7252  0.0080
    7SAPS  C313  913   6.434   6.796   8.541  0.6553  0.1120 -0.0035
    7SAPS  H13X  914   6.404   6.690   8.534  1.2362  0.0131 -1.5842
    7SAPS  H13Y  915   6.540   6.799   8.572  0.7864 -0.2115 -0.4042
    7SAPS  C314  916   6.423   6.867   8.405 -0.2561  0.8083  0.1439
    7SAPS  H14X  917   6.450   6.975   8.410 -0.0123  0.6984  1.7269
    7SAPS  H14Y  918   6.315   6.863   8.378 -0.5344  0.2734  1.2829
    7SAPS  C315  919   6.511   6.790   8.304  0.0997 -0.4858 -0.0085
    7SAPS  H15X  920   6.491   6.835   8.204 -0.4853 -0.0103  0.3156
    7SAPS  H15Y  921   6.487   6.683   8.287  0.4050 -0.4515 -0.7332
    7SAPS  C316  922   6.665   6.792   8.332  1.0505  0.4342 -0.5086
    7SAPS  H16X  923   6.690   6.744   8.429  2.0132 -2.3893 -2.0400
    7SAPS  H16Y  924   6.705   6.896   8.331  2.3130 -0.0015  1.2702
    7SAPS  C317  925   6.753   6.727   8.227 -0.4136 -0.0141 -0.0680
    7SAPS  H17X  926   6.720   6.766   8.128  2.3876 -0.8079 -1.4402
    7SAPS  H17Y  927   6.735   6.618   8.239 -1.8410 -0.1152 -2.4141
    7SAPS  C318  928   6.902   6.748   8.248  0.4235 -0.2200  0.4200
    7SAPS  H18X  929   6.930   6.703   8.345 -0.2841 -0.2918  0.5962
    7SAPS  H18Y  930   6.924   6.857   8.243  0.1034 -0.0795  1.7512
    7SAPS  H18Z  931   6.954   6.692   8.167 -0.8061 -0.9535  0.1178
    8SAPS     N  932   1.345   0.096  10.946  0.1948 -0.0205  0.1578
    8SAPS   HN1  933   1.325  -0.006  10.939  0.9036 -0.1449 -0.2071
    8SAPS   HN2  934   1.265   0.150  10.907  1.9159  3.8742  1.4767
    8SAPS   HN3  935   1.427   0.122  10.887  0.1127 -2.6117 -1.2634
    8SAPS   C12  936   1.362   0.116  11.095 -0.6072 -0.3182  0.2252
    8SAPS  H12A  937   1.389   0.219  11.112  2.1891 -0.9720  0.1200
    8SAPS   C13  938   1.237   0.097  11.175  0.6808 -0.0920 -0.1661
    8SAPS  O13A  939   1.130   0.053  11.121 -0.2712 -0.2102 -0.1891
    8SAPS  O13B  940   1.241   0.093  11.303  0.3763 -0.1907  0.2863
    8SAPS   C11  941   1.478   0.027  11.151  0.0758 -0.1277 -0.0528
    8SAPS  H11A  942   1.459  -0.083  11.147 -1.6528  0.0330  2.2416
    8SAPS  H11B  943   1.484   0.046  11.260 -1.2423  2.3375 -0.3461
    8SAPS     P  944   1.700   0.166  11.126 -0.1133 -0.8960  0.2519
    8SAPS   O13  945   1.640   0.301  11.105 -0.6424  0.2461 -0.0058
    8SAPS   O14  946   1.723   0.135  11.268 -0.2299  0.0103 -0.7008
    8SAPS   O12  947   1.600   0.053  11.075  0.0538  0.7297  0.1220
    8SAPS   O11  948   1.825   0.147  11.053 -0.3102  0.0142  0.0570
    8SAPS    C1  949   1.838   0.197  10.916  0.1531  0.2854 -0.0936
    8SAPS    HA  950   1.787   0.293  10.897 -2.0813 -0.7465  0.3896
    8SAPS    HB  951   1.945   0.225  10.905 -0.1719  1.9055  0.5674
    8SAPS    C2  952   1.817   0.098  10.800  0.0720 -0.0116 -0.2546
    8SAPS    HS  953   1.713   0.061  10.814  0.4950 -1.4983 -0.8625
    8SAPS   O21  954   1.912  -0.013  10.805 -0.1615 -0.0898  0.2879
    8SAPS   C21  955   1.875  -0.123  10.734 -0.2241 -0.1400  0.0908
    8SAPS   O22  956   1.765  -0.140  10.691 -0.5178  0.6665  0.7100
    8SAPS   C22  957   1.994  -0.221  10.725  0.2825 -1.3064  0.2209
    8SAPS   H2R  958   2.086  -0.172  10.762 -0.3799  0.6234 -0.5545
    8SAPS   H2S  959   1.957  -0.305  10.788  0.7955 -1.5323  0.2231
    8SAPS    C3  960   1.829   0.179  10.665 -0.2377 -0.6074  0.8135
    8SAPS    HX  961   1.933   0.217  10.669 -0.2777 -0.4594  0.5093
    8SAPS    HY  962   1.766   0.270  10.667  1.8744  1.0167 -1.0622
    8SAPS   O31  963   1.824   0.097  10.544 -0.1530 -0.2901 -0.2536
    8SAPS   C31  964   1.700   0.080  10.503 -1.2114  0.3028 -0.9023
    8SAPS   O32  965   1.601   0.132  10.546  0.5103 -0.5351  0.6871
    8SAPS   C32  966   1.706  -0.016  10.388 -0.4118  0.6398  0.3475
    8SAPS   H2X  967   1.605  -0.013  10.341 -0.0847  0.5627 -0.3708
    8SAPS   H2Y  968   1.739  -0.116  10.421 -0.4233  0.5567  0.1074
    8SAPS   C23  969   2.002  -0.282  10.583  0.0463 -0.1655 -1.1249
    8SAPS   H3R  970   1.902  -0.318  10.550  0.5756 -0.6551 -2.2241
    8SAPS   H3S  971   2.070  -0.364  10.615 -0.0872  0.7569  1.8766
    8SAPS   C24  972   2.061  -0.185  10.486 -0.7116  0.5243  0.2614
    8SAPS   H4R  973   2.029  -0.083  10.517  0.9496  0.8758  0.9338
    8SAPS   H4S  974   2.026  -0.216  10.386  0.1846 -0.5036  0.2490
    8SAPS   C25  975   2.208  -0.185  10.507  0.0634 -0.4700  0.0129
    8SAPS   H5R  976   2.234  -0.213  10.610  0.6533 -2.0808 -0.5564
    8SAPS   C26  977   2.309  -0.152  10.422 -0.1689 -0.0095 -0.9336
    8SAPS   H6R  978   2.410  -0.164  10.464 -0.8808  0.5742  1.0793
    8SAPS   C27  979   2.289  -0.099  10.284  0.0778 -0.5820  1.0808
    8SAPS   H7R  980   2.179  -0.101  10.265  0.2728 -0.6289 -0.1235
    8SAPS   H7S  981   2.337  -0.165  10.209  2.4358  3.1398 -1.0070
    8SAPS   C28  982   2.342   0.037  10.258 -0.1156  0.4743 -0.9753
    8SAPS   H8R  983   2.366   0.100  10.345  1.2723 -1.0726 -0.1747
    8SAPS   C29  984   2.384   0.086  10.143 -0.7762 -0.2849  1.3109
    8SAPS   H9R  985   2.410   0.192  10.132 -3.6088  0.2937 -0.8190
    8SAPS  C210  986   2.380   0.018  10.010 -0.4464  0.4553  0.6121
    8SAPS  H10R  987   2.321  -0.075  10.021  0.4818  0.0901  3.0240
    8SAPS  H10S  988   2.474  -0.035   9.984 -0.4944  0.3884  0.5718
    8SAPS  C211  989   2.348   0.107   9.888  0.7944  0.6757  0.3487
    8SAPS  H11R  990   2.327   0.210   9.920 -0.2745  0.9305 -1.0527
    8SAPS  C212  991   2.332   0.074   9.755  0.2735 -0.1540  0.5051
    8SAPS  H12R  992   2.337   0.149   9.674  1.0226 -0.8768 -0.1367
    8SAPS  C213  993   2.351  -0.063   9.699  0.9856  0.0375 -0.1224
    8SAPS  H13R  994   2.274  -0.076   9.620 -1.0500 -1.4581  1.9704
    8SAPS  H13S  995   2.313  -0.136   9.774 -0.8255  0.7843 -0.2608
    8SAPS  C214  996   2.483  -0.086   9.639 -0.2514 -0.6124 -0.0170
    8SAPS  H14R  997   2.565  -0.085   9.713 -0.6489  0.4820  0.4246
    8SAPS  C215  998   2.511  -0.106   9.506 -0.3571  0.2118  0.3131
    8SAPS  H15R  999   2.617  -0.116   9.481  0.2538  0.8868  2.4350
    8SAPS  C216 1000   2.415  -0.132   9.389 -0.4185  0.1449 -0.4413
    8SAPS  H16R 1001   2.310  -0.100   9.410 -0.7286  0.0972 -1.7836
    8SAPS  H16S 1002   2.409  -0.243   9.381  2.2271 -0.2366  1.7196
    8SAPS  C217 1003   2.453  -0.061   9.256  0.5066 -0.7678 -0.2335
    8SAPS  H17R 1004   2.544  -0.103   9.209  1.0669 -0.0564  0.1895
    8SAPS  H17S 1005   2.463   0.049   9.272  0.7183 -0.8621  0.3125
    8SAPS  C218 1006   2.355  -0.071   9.144 -0.3224 -0.0361 -0.2429
    8SAPS  H18R 1007   2.260  -0.020   9.171  0.0840 -0.3133  1.9430
    8SAPS  H18S 1008   2.340  -0.181   9.138  2.7041 -0.5756  0.6339
    8SAPS  C219 1009   2.395  -0.010   9.010 -0.0701  0.4444 -0.1407
    8SAPS  H19R 1010   2.454  -0.084   8.951  0.9604  0.5460  0.7217
    8SAPS  H19S 1011   2.463   0.073   9.038  0.3809 -0.2406  0.8374
    8SAPS  C220 1012   2.274   0.048   8.926  0.6002 -0.5281  0.3225
    8SAPS  H20R 1013   2.190  -0.024   8.942 -0.9551  1.5346  2.2469
    8SAPS  H20S 1014   2.301   0.062   8.820 -0.3548  0.0462  0.1388
    8SAPS  H20T 1015   2.257   0.150   8.969  2.4665 -0.2414  0.4408
    8SAPS   C33 1016   1.810   0.028  10.278 -0.0128 -0.7038  0.1130
    8SAPS   H3X 1017   1.907   0.044  10.330 -1.1020 -1.7448  2.5925
    8SAPS   H3Y 1018   1.775   0.130  10.249 -0.3824 -1.1465 -1.0508
    8SAPS   C34 1019   1.812  -0.061  10.155  0.2620 -0.3400 -0.2873
    8SAPS   H4X 1020   1.711  -0.056  10.107  0.4101  0.4899 -0.5279
    8SAPS   H4Y 1021   1.822  -0.165  10.194 -3.9564 -0.2125  1.7745
    8SAPS   C35 1022   1.912  -0.029  10.048 -0.2930 -0.2236 -0.4504
    8SAPS   H5X 1023   2.020  -0.032  10.077 -0.4348  0.1562  0.1387
    8SAPS   H5Y 1024   1.900   0.081  10.036  1.8081  0.4056  2.1266
    8SAPS   C36 1025   1.879  -0.112   9.925  0.3830 -0.2126  0.1880
    8SAPS   H6X 1026   1.770  -0.095   9.909  0.0057  0.7121  3.1628
    8SAPS   H6Y 1027   1.896  -0.219   9.948 -0.4474 -0.1661  1.0874
    8SAPS   C37 1028   1.953  -0.064   9.795 -0.3278 -0.5632 -0.9260
    8SAPS   H7X 1029   2.063  -0.078   9.809 -0.4425 -2.8904 -1.8239
    8SAPS   H7Y 1030   1.947   0.045   9.779  0.6822 -0.3706 -0.1399
    8SAPS   C38 1031   1.904  -0.139   9.672  0.2396  0.3129 -0.3993
    8SAPS   H8X 1032   1.795  -0.126   9.652 -0.1644 -1.0339  0.7862
    8SAPS   H8Y 1033   1.924  -0.244   9.701  1.2692  1.2428  2.7054
    8SAPS   C39 1034   1.967  -0.097   9.540  0.1095 -0.1716 -0.0449
    8SAPS   H9X 1035   2.075  -0.124   9.534 -0.0013 -0.9701  1.3456
    8SAPS   H9Y 1036   1.954   0.012   9.522 -0.6740 -0.4761 -1.4791
    8SAPS  C310 1037   1.899  -0.167   9.424 -0.2400  0.6669  0.5036
    8SAPS  H10X 1038   1.796  -0.133   9.401 -0.4094 -0.7558 -1.0547
    8SAPS  H10Y 1039   1.915  -0.276   9.438  1.4422  0.6289 -1.2365
    8SAPS  C311 1040   1.983  -0.149   9.295 -0.0933 -0.2291 -0.0173
    8SAPS  H11X 1041   2.078  -0.206   9.297 -0.3979 -0.7333  0.1375
    8SAPS  H11Y 1042   2.020  -0.045   9.279 -0.8327  0.6363  3.1273
    8SAPS  C312 1043   1.899  -0.199   9.181  0.0551  0.0173  0.5887
    8SAPS  H12X 1044   1.798  -0.154   9.172  0.6419  1.2362 -0.1678
    8SAPS  H12Y 1045   1.862  -0.303   9.199  0.3485 -0.2107 -0.0900
    8SAPS  C313 1046   1.984  -0.191   9.057 -0.1398 -0.7443  0.0256
    8SAPS  H13X 1047   2.078  -0.240   9.092  0.6104  0.9756  0.5801
    8SAPS  H13Y 1048   2.025  -0.091   9.031  1.5514 -1.6893 -1.1313
    8SAPS  C314 1049   1.926  -0.246   8.926 -0.1173  0.0605 -0.1233
    8SAPS  H14X 1050   1.822  -0.211   8.909 -0.3022  0.3596  1.5124
    8SAPS  H14Y 1051   1.921  -0.356   8.943 -2.6912 -0.2088 -1.9784
    8SAPS  C315 1052   2.019  -0.233   8.801 -0.6953  0.4633  0.2298
    8SAPS  H15X 1053   2.058  -0.129   8.792 -0.3449  0.1789 -1.9234
    8SAPS  H15Y 1054   1.977  -0.271   8.706  0.0955 -1.7578  0.7089
    8SAPS  C316 1055   2.151  -0.312   8.824  0.6977 -0.7508 -0.4860
    8SAPS  H16X 1056   2.130  -0.413   8.866  2.2174 -0.7103  0.4391
    8SAPS  H16Y 1057   2.214  -0.255   8.896 -1.4627 -0.2950  1.1255
    8SAPS  C317 1058   2.232  -0.340   8.700  0.2852  0.0837 -0.0336
    8SAPS  H17X 1059   2.164  -0.363   8.615 -1.0085  1.3205  0.6244
    8SAPS  H17Y 1060   2.277  -0.439   8.725 -0.5284  0.1316  1.8117
    8SAPS  C318 1061   2.335  -0.237   8.657  0.1655 -0.2085  0.2068
    8SAPS  H18X 1062   2.283  -0.140   8.643  1.8674  0.9529  1.5156
    8SAPS  H18Y 1063   2.383  -0.268   8.561 -1.6839 -1.2300 -0.4555
    8SAPS  H18Z 1064   2.416  -0.228   8.732  2.4169 -0.1384 -2.1013
    9SAPS     N 1065   3.574   3.949   6.072  0.2959 -0.1187 -0.2934
    9SAPS   HN1 1066   3.580   3.896   6.162 -1.4687 -0.6334 -0.4494
    9SAPS   HN2 1067   3.577   4.051   6.090  1.1628 -0.2080  0.1561
    9SAPS   HN3 1068   3.484   3.923   6.028 -0.3171  2.2247 -0.5131
    9SAPS   C12 1069   3.690   3.913   5.987 -0.2461 -0.3355  0.4630
    9SAPS  H12A 1070   3.696   3.805   5.988  1.9478 -0.3698 -2.5525
    9SAPS   C13 1071   3.681   3.953   5.833  0.3417 -0.2532  0.0886
    9SAPS  O13A 1072   3.577   4.009   5.795 -0.0038 -0.6281 -0.4123
    9SAPS  O13B 1073   3.772   3.915   5.750 -0.0836 -0.3566  0.2396
    9SAPS   C11 1074   3.821   3.966   6.056 -0.3659  0.6545 -0.3873
    9SAPS  H11A 1075   3.903   3.934   5.989 -2.6105  1.0881 -3.6238
    9SAPS  H11B 1076   3.812   3.912   6.152 -0.7896 -0.4302 -1.0189
    9SAPS     P 1077   3.917   4.176   6.186  0.3685 -0.1317 -0.5926
    9SAPS   O13 1078   4.062   4.148   6.150 -0.0459 -0.0239 -0.1277
    9SAPS   O14 1079   3.882   4.318   6.220 -0.3298  0.3642 -0.4251
    9SAPS   O12 1080   3.824   4.111   6.071  0.2596  0.1012 -0.0697
    9SAPS   O11 1081   3.888   4.080   6.306 -0.6512 -0.3389  0.0347
    9SAPS    C1 1082   3.763   4.093   6.385 -0.0305  0.0642  0.1195
    9SAPS    HA 1083   3.678   4.120   6.318  0.8448 -2.3654 -2.1699
    9SAPS    HB 1084   3.737   3.993   6.425 -0.9905  0.1104 -0.3733
    9SAPS    C2 1085   3.775   4.200   6.500 -0.1168 -0.0217  0.3538
    9SAPS    HS 1086   3.815   4.296   6.460 -1.0951  0.7941  1.3013
    9SAPS   O21 1087   3.855   4.151   6.609  0.4387 -0.0878 -0.1587
    9SAPS   C21 1088   3.902   4.244   6.689 -0.1476  0.3841  0.1160
    9SAPS   O22 1089   3.901   4.365   6.671  0.1279 -0.1174 -0.3112
    9SAPS   C22 1090   3.966   4.169   6.805 -0.0688 -0.1100 -0.1121
    9SAPS   H2R 1091   3.893   4.109   6.864  1.1543 -0.0728  1.5189
    9SAPS   H2S 1092   4.041   4.100   6.759  0.6974 -0.2498  1.2872
    9SAPS    C3 1093   3.640   4.237   6.561  0.7776 -0.3990 -0.3332
    9SAPS    HX 1094   3.607   4.154   6.626 -0.0685  0.3820  0.2640
    9SAPS    HY 1095   3.566   4.237   6.478  0.5886 -2.1441 -0.1885
    9SAPS   O31 1096   3.636   4.371   6.618 -0.4279  0.2643  0.0873
    9SAPS   C31 1097   3.603   4.370   6.745  0.4401  0.2480 -0.2560
    9SAPS   O32 1098   3.564   4.268   6.800 -0.1883  0.6714 -0.5980
    9SAPS   C32 1099   3.595   4.513   6.789 -0.0502  0.1446 -0.1769
    9SAPS   H2X 1100   3.491   4.539   6.820  0.5568  0.3722  1.7521
    9SAPS   H2Y 1101   3.622   4.586   6.710 -4.8300  2.8968  0.3619
    9SAPS   C23 1102   4.025   4.271   6.902 -0.9392  0.2060  0.5380
    9SAPS   H3R 1103   3.957   4.359   6.902 -0.4794  0.5654  0.4912
    9SAPS   H3S 1104   4.120   4.306   6.855 -1.2162  0.7143  0.3509
    9SAPS   C24 1105   4.046   4.224   7.041 -0.4570  0.8889 -0.4303
    9SAPS   H4R 1106   3.943   4.189   7.068 -0.4069 -0.7978 -2.1642
    9SAPS   H4S 1107   4.092   4.293   7.115  1.4560 -0.2911 -0.4628
    9SAPS   C25 1108   4.121   4.093   7.048  0.0006 -0.2587  0.3935
    9SAPS   H5R 1109   4.142   4.042   6.952  0.8465  1.5862 -0.4377
    9SAPS   C26 1110   4.188   4.040   7.155  0.4175 -0.5671  0.3151
    9SAPS   H6R 1111   4.254   3.954   7.134 -0.9192 -0.6629 -4.8551
    9SAPS   C27 1112   4.194   4.103   7.292 -0.4579 -0.0139 -0.1834
    9SAPS   H7R 1113   4.200   4.018   7.363  0.0311 -0.5023 -0.8003
    9SAPS   H7S 1114   4.109   4.167   7.325  0.5107  1.7038 -0.8918
    9SAPS   C28 1115   4.330   4.165   7.315  0.1486 -0.1859 -0.0453
    9SAPS   H8R 1116   4.380   4.184   7.218 -3.2349 -0.1870 -1.9702
    9SAPS   C29 1117   4.395   4.181   7.431  0.5075  0.6420  0.2182
    9SAPS   H9R 1118   4.489   4.239   7.431  1.1660 -0.3855  0.5827
    9SAPS  C210 1119   4.338   4.143   7.568  0.0544  0.5534  0.0214
    9SAPS  H10R 1120   4.421   4.092   7.622  0.4862  0.0434 -1.1059
    9SAPS  H10S 1121   4.249   4.077   7.562  0.3024  0.1637  0.5761
    9SAPS  C211 1122   4.274   4.258   7.628 -0.0046  0.3103 -0.0970
    9SAPS  H11R 1123   4.240   4.343   7.567  3.8681 -0.2568 -3.4390
    9SAPS  C212 1124   4.270   4.282   7.757  0.8122 -0.2507  0.0528
    9SAPS  H12R 1125   4.239   4.381   7.793  1.0532 -0.6042  1.2804
    9SAPS  C213 1126   4.313   4.185   7.864 -0.5757 -0.0423  1.0304
    9SAPS  H13R 1127   4.351   4.084   7.839  0.2893  0.6436 -0.5223
    9SAPS  H13S 1128   4.223   4.156   7.922  0.9687 -1.3090  2.9070
    9SAPS  C214 1129   4.415   4.261   7.948 -0.1045  0.1652 -0.1842
    9SAPS  H14R 1130   4.503   4.300   7.897  0.3105 -0.4638  0.0334
    9SAPS  C215 1131   4.412   4.294   8.080  0.1211 -0.4360  0.3141
    9SAPS  H15R 1132   4.491   4.358   8.122 -1.4298  2.1589 -0.5000
    9SAPS  C216 1133   4.298   4.261   8.179  0.5805 -0.4034 -0.1041
    9SAPS  H16R 1134   4.356   4.218   8.263  1.5219  2.2547  0.7417
    9SAPS  H16S 1135   4.228   4.188   8.135 -0.3868  0.4915 -0.0968
    9SAPS  C217 1136   4.208   4.374   8.224  0.0885  0.2604  0.8366
    9SAPS  H17R 1137   4.162   4.411   8.130 -0.1006 -0.2977  0.7035
    9SAPS  H17S 1138   4.266   4.457   8.270 -2.3239  2.2472  0.5268
    9SAPS  C218 1139   4.096   4.343   8.326 -0.1457  0.8178 -0.1059
    9SAPS  H18R 1140   4.055   4.440   8.362 -0.0533  0.2930  1.4534
    9SAPS  H18S 1141   4.130   4.274   8.406  0.1938  1.7666  0.5911
    9SAPS  C219 1142   3.972   4.261   8.271 -0.1101 -0.2905 -0.4024
    9SAPS  H19R 1143   4.005   4.159   8.243 -1.3751 -0.9905  0.5975
    9SAPS  H19S 1144   3.917   4.304   8.184 -2.9022  0.6437  1.6855
    9SAPS  C220 1145   3.868   4.238   8.387 -0.0284 -0.5897  0.2971
    9SAPS  H20R 1146   3.840   4.343   8.411  0.3280 -0.3006 -0.5096
    9SAPS  H20S 1147   3.922   4.197   8.475  0.4400 -1.0479 -0.1964
    9SAPS  H20T 1148   3.778   4.189   8.344  0.4371  1.0838 -2.9262
    9SAPS   C33 1149   3.700   4.540   6.901  0.0044  0.1603  0.5526
    9SAPS   H3X 1150   3.804   4.554   6.864  0.4017  1.0942  1.9575
    9SAPS   H3Y 1151   3.687   4.476   6.991 -1.4629 -0.4905 -0.0911
    9SAPS   C34 1152   3.676   4.685   6.949 -0.2170 -0.0686  0.6249
    9SAPS   H4X 1153   3.599   4.677   7.029 -0.6471 -0.4499  0.1799
    9SAPS   H4Y 1154   3.642   4.753   6.868  0.2541  0.8877  1.2120
    9SAPS   C35 1155   3.799   4.751   7.019 -0.3875 -0.0732  0.2322
    9SAPS   H5X 1156   3.857   4.800   6.938 -2.7869  1.1276 -0.8926
    9SAPS   H5Y 1157   3.855   4.666   7.062 -0.6920 -0.6929 -0.5764
    9SAPS   C36 1158   3.764   4.843   7.139 -0.3950  0.6879 -0.3783
    9SAPS   H6X 1159   3.687   4.798   7.206  0.8462 -1.3045 -0.2066
    9SAPS   H6Y 1160   3.711   4.933   7.102  0.5042  1.4086  0.0611
    9SAPS   C37 1161   3.889   4.874   7.232  0.6609 -0.2708  0.4541
    9SAPS   H7X 1162   3.963   4.910   7.158 -1.0393  0.7104 -0.8437
    9SAPS   H7Y 1163   3.912   4.783   7.291 -1.7402 -0.0746  1.8249
    9SAPS   C38 1164   3.874   4.998   7.329  0.2751 -0.8434 -0.2113
    9SAPS   H8X 1165   3.968   4.999   7.388 -0.1272 -0.3283  0.4372
    9SAPS   H8Y 1166   3.788   4.972   7.394  1.4139 -0.8473  1.3277
    9SAPS   C39 1167   3.835   5.136   7.256 -0.8682  0.6838  0.6941
    9SAPS   H9X 1168   3.754   5.120   7.182  0.3547 -0.9862 -0.3698
    9SAPS   H9Y 1169   3.921   5.160   7.189 -1.5911  0.6418 -0.2808
    9SAPS  C310 1170   3.805   5.248   7.356  0.5846  0.1265 -0.3668
    9SAPS  H10X 1171   3.896   5.285   7.408  0.9742 -1.7593  0.3844
    9SAPS  H10Y 1172   3.740   5.217   7.441 -1.9717  0.6441 -2.0240
    9SAPS  C311 1173   3.741   5.368   7.287 -0.3907  0.2176  0.0221
    9SAPS  H11X 1174   3.665   5.324   7.219  0.4174 -1.3747  0.0908
    9SAPS  H11Y 1175   3.827   5.409   7.229 -1.9341  3.9447  0.1477
    9SAPS  C312 1176   3.684   5.474   7.380  0.4853 -1.0447 -0.5785
    9SAPS  H12X 1177   3.757   5.510   7.455 -1.7194  1.0261  0.6998
    9SAPS  H12Y 1178   3.599   5.430   7.436 -0.2513  1.1852  0.1414
    9SAPS  C313 1179   3.622   5.595   7.315 -0.1834 -0.3352  0.2807
    9SAPS  H13X 1180   3.703   5.671   7.317 -0.4551 -0.0589  1.0861
    9SAPS  H13Y 1181   3.543   5.636   7.381 -0.5014 -1.2105  0.4608
    9SAPS  C314 1182   3.566   5.579   7.175  1.2288  0.1356  0.6666
    9SAPS  H14X 1183   3.488   5.500   7.182  0.8023  0.4902  0.0635
    9SAPS  H14Y 1184   3.638   5.543   7.098  0.2440  2.1629 -1.3363
    9SAPS  C315 1185   3.503   5.706   7.111 -0.8225  0.2982 -0.7215
    9SAPS  H15X 1186   3.592   5.772   7.124  0.6323 -1.7032  0.0254
    9SAPS  H15Y 1187   3.413   5.738   7.167 -0.6306 -3.7886  2.3929
    9SAPS  C316 1188   3.483   5.700   6.959  0.4953 -0.1283  0.7921
    9SAPS  H16X 1189   3.422   5.608   6.944  1.1582 -0.0954 -3.3111
    9SAPS  H16Y 1190   3.578   5.674   6.907 -0.2363 -1.3100 -0.0148
    9SAPS  C317 1191   3.430   5.821   6.883 -0.8492  0.3093  0.1109
    9SAPS  H17X 1192   3.344   5.863   6.938  0.3205 -0.0541  2.3170
    9SAPS  H17Y 1193   3.395   5.789   6.782  0.9812 -0.2177 -0.4046
    9SAPS  C318 1194   3.527   5.939   6.868 -0.4466  0.9387  0.0950
    9SAPS  H18X 1195   3.624   5.885   6.858 -1.0270  0.1015 -1.1495
    9SAPS  H18Y 1196   3.533   6.008   6.955 -0.8162  1.4347 -0.2666
    9SAPS  H18Z 1197   3.521   6.003   6.778  0.9991  0.1017 -0.6305
   10SAPS     N 1198   2.965   3.814   5.986 -1.2570 -0.3244 -0.7928
   10SAPS   HN1 1199   2.973   3.912   5.952  0.2374  0.2587  1.0858
   10SAPS   HN2 1200   2.943   3.748   5.909 -1.3933 -0.9218 -0.2534
   10SAPS   HN3 1201   2.884   3.815   6.052 -0.1195 -0.7306  0.6666
   10SAPS   C12 1202   3.100   3.786   6.056 -0.1299  0.2606 -0.4297
   10SAPS  H12A 1203   3.112   3.679   6.061 -1.6325  0.1147  0.5626
   10SAPS   C13 1204   3.226   3.821   5.970  0.8679  0.1493 -0.5503
   10SAPS  O13A 1205   3.207   3.847   5.847  0.2565 -0.2881  0.3971
   10SAPS  O13B 1206   3.339   3.797   6.017  0.4353  0.5085 -0.1469
   10SAPS   C11 1207   3.095   3.867   6.191 -0.9745  0.0967 -0.5826
   10SAPS  H11A 1208   3.115   3.975   6.176  0.0158  0.0010 -0.0646
   10SAPS  H11B 1209   3.187   3.829   6.241 -0.1736  0.4578 -1.7322
   10SAPS     P 1210   2.929   3.907   6.398  0.1231  0.2902 -0.0003
   10SAPS   O13 1211   2.951   4.052   6.373  0.0211  0.9034  0.1760
   10SAPS   O14 1212   2.792   3.869   6.441  0.4656 -0.2720 -0.4534
   10SAPS   O12 1213   2.979   3.829   6.268  0.0501 -0.5691 -0.4059
   10SAPS   O11 1214   3.033   3.871   6.516 -0.6798  0.0459  0.3947
   10SAPS    C1 1215   3.030   3.750   6.585  0.1344 -0.0887  0.6623
   10SAPS    HA 1216   2.982   3.665   6.533  1.6238 -2.4558  2.9163
   10SAPS    HB 1217   3.137   3.727   6.600  0.1535 -0.1657  0.4033
   10SAPS    C2 1218   2.967   3.747   6.719  0.2692  0.0699 -0.0520
   10SAPS    HS 1219   2.863   3.785   6.704 -0.4073 -2.2654 -1.7877
   10SAPS   O21 1220   3.044   3.833   6.810  1.0035 -0.4613  0.7631
   10SAPS   C21 1221   2.974   3.901   6.900  0.8111  0.4008  0.0208
   10SAPS   O22 1222   2.859   3.884   6.928  0.1406  0.1202 -0.5702
   10SAPS   C22 1223   3.070   3.992   6.970 -0.1428  0.0434 -0.8149
   10SAPS   H2R 1224   3.179   3.971   6.958 -0.7215 -2.1173 -2.9971
   10SAPS   H2S 1225   3.047   4.086   6.915 -0.0789  0.2768 -0.4551
   10SAPS    C3 1226   2.965   3.604   6.782  0.0915  0.3509  0.1264
   10SAPS    HX 1227   3.075   3.585   6.789  0.3635  1.7612  0.0556
   10SAPS    HY 1228   2.926   3.536   6.703 -0.2611  1.3392 -0.5765
   10SAPS   O31 1229   2.913   3.605   6.915 -0.2154 -0.4923 -0.1596
   10SAPS   C31 1230   2.787   3.564   6.912 -0.6792 -0.0160 -0.2191
   10SAPS   O32 1231   2.728   3.528   6.813  0.0879  0.4032  0.4508
   10SAPS   C32 1232   2.721   3.596   7.044 -0.2033  0.0214 -0.1234
   10SAPS   H2X 1233   2.614   3.569   7.054 -0.2268  0.2050  0.1267
   10SAPS   H2Y 1234   2.714   3.707   7.033  1.0937 -0.0063 -1.6297
   10SAPS   C23 1235   3.034   3.996   7.112  0.6178 -1.0007  0.3992
   10SAPS   H3R 1236   2.929   4.032   7.109  1.4495  1.6418 -0.2762
   10SAPS   H3S 1237   3.084   4.070   7.178 -1.0863 -0.2501  0.8876
   10SAPS   C24 1238   3.036   3.855   7.179 -0.3807 -0.2866  0.5531
   10SAPS   H4R 1239   3.142   3.822   7.179  0.3009  1.6337  2.4939
   10SAPS   H4S 1240   2.972   3.784   7.122 -1.4634  0.8142  0.3362
   10SAPS   C25 1241   2.991   3.874   7.320  0.0545 -0.3007  0.1575
   10SAPS   H5R 1242   2.885   3.899   7.334  0.0878  0.2645 -0.5064
   10SAPS   C26 1243   3.067   3.868   7.430 -0.1410 -0.7576 -0.0620
   10SAPS   H6R 1244   3.024   3.913   7.521 -0.6989  2.1726 -1.6447
   10SAPS   C27 1245   3.214   3.860   7.449 -0.5196 -0.1077 -0.3190
   10SAPS   H7R 1246   3.257   3.791   7.373  3.3396  1.5783  0.0894
   10SAPS   H7S 1247   3.235   3.824   7.552 -0.9007 -1.3920 -0.6752
   10SAPS   C28 1248   3.284   3.991   7.416  0.3371 -0.4072  0.4246
   10SAPS   H8R 1249   3.294   4.002   7.307 -0.6487 -0.2617  0.3404
   10SAPS   C29 1250   3.342   4.079   7.501 -0.2101 -0.0728  0.2528
   10SAPS   H9R 1251   3.402   4.157   7.452  1.9430 -0.2916  2.4038
   10SAPS  C210 1252   3.349   4.070   7.649  0.1465  0.2358 -0.2151
   10SAPS  H10R 1253   3.444   4.123   7.671 -1.0487  1.7353  1.6308
   10SAPS  H10S 1254   3.373   3.967   7.685 -1.3913 -0.4160 -0.9683
   10SAPS  C211 1255   3.246   4.142   7.735 -0.1065 -0.1474 -0.1925
   10SAPS  H11R 1256   3.217   4.240   7.694  0.3196  0.0061 -0.1271
   10SAPS  C212 1257   3.184   4.102   7.850  0.2174  0.3153  0.5984
   10SAPS  H12R 1258   3.112   4.171   7.898 -1.2774 -0.6717 -0.1313
   10SAPS  C213 1259   3.218   3.978   7.937 -0.1004  0.4013 -0.1601
   10SAPS  H13R 1260   3.231   4.006   8.044 -0.7745 -0.8182  0.2634
   10SAPS  H13S 1261   3.322   3.947   7.915  0.2887  2.5880 -1.8103
   10SAPS  C214 1262   3.120   3.862   7.929 -0.1196 -0.4524 -0.1993
   10SAPS  H14R 1263   3.098   3.833   7.825 -3.0846 -1.0943  0.5115
   10SAPS  C215 1264   3.058   3.808   8.033 -0.0978 -0.1184 -0.2252
   10SAPS  H15R 1265   2.994   3.719   8.022  0.4136 -0.4968 -0.1660
   10SAPS  C216 1266   3.053   3.843   8.180  0.4599  0.0651 -0.3672
   10SAPS  H16R 1267   2.958   3.843   8.238  2.0139  1.5841  2.3667
   10SAPS  H16S 1268   3.084   3.948   8.197  1.2867 -0.3486  0.7445
   10SAPS  C217 1269   3.141   3.747   8.260 -0.1786 -0.4570 -0.2344
   10SAPS  H17R 1270   3.244   3.755   8.221 -0.7351 -0.1801 -1.7097
   10SAPS  H17S 1271   3.114   3.640   8.241 -1.0314 -0.3439  0.2834
   10SAPS  C218 1272   3.142   3.767   8.409  0.5525 -0.7044 -0.6823
   10SAPS  H18R 1273   3.128   3.878   8.412 -0.2453 -0.8104  0.6373
   10SAPS  H18S 1274   3.236   3.736   8.459 -0.2410 -0.3179  1.1382
   10SAPS  C219 1275   3.010   3.715   8.467 -0.1097  0.4350  0.1295
   10SAPS  H19R 1276   3.003   3.604   8.463  2.8244  0.1955 -3.3192
   10SAPS  H19S 1277   2.920   3.760   8.422  0.3635  0.2562 -1.0380
   10SAPS  C220 1278   3.000   3.757   8.609 -0.2925 -0.0743 -0.8657
   10SAPS  H20R 1279   2.972   3.865   8.613  1.7652  0.4667  2.0320
   10SAPS  H20S 1280   3.094   3.744   8.666 -1.1898 -1.0849  0.4644
   10SAPS  H20T 1281   2.916   3.719   8.672  0.3275  0.4033  0.2958
   10SAPS   C33 1282   2.800   3.539   7.162  0.2586  0.2266 -0.0877
   10SAPS   H3X 1283   2.910   3.554   7.156  0.2979 -0.3821 -1.0856
   10SAPS   H3Y 1284   2.772   3.432   7.161  0.4262  0.1679 -2.0773
   10SAPS   C34 1285   2.757   3.583   7.306 -0.0624  0.3572  0.1670
   10SAPS   H4X 1286   2.662   3.529   7.329  1.3260 -2.7425 -0.7949
   10SAPS   H4Y 1287   2.735   3.692   7.310 -0.3319  0.3004  0.3000
   10SAPS   C35 1288   2.862   3.553   7.414 -0.2908  0.3146 -0.3597
   10SAPS   H5X 1289   2.953   3.610   7.386 -0.6660  1.6633  0.9878
   10SAPS   H5Y 1290   2.878   3.445   7.436 -1.1036  0.5697  1.7124
   10SAPS   C36 1291   2.824   3.609   7.555 -0.0930  0.5290 -0.1656
   10SAPS   H6X 1292   2.728   3.571   7.597 -0.5534  3.2268  1.4798
   10SAPS   H6Y 1293   2.802   3.717   7.543 -0.2585  0.5354  0.1813
   10SAPS   C37 1294   2.935   3.610   7.662 -0.1525 -0.2504  0.5261
   10SAPS   H7X 1295   2.900   3.685   7.737 -1.1903 -0.1982  0.0094
   10SAPS   H7Y 1296   3.034   3.633   7.620 -0.3636 -0.5792 -0.1697
   10SAPS   C38 1297   2.957   3.472   7.732  0.1896  0.4769 -0.0254
   10SAPS   H8X 1298   3.007   3.396   7.668  1.2502 -0.2873  1.6519
   10SAPS   H8Y 1299   2.861   3.431   7.771 -0.6751  3.3892  1.1724
   10SAPS   C39 1300   3.049   3.485   7.850  0.1328 -0.2864 -0.4977
   10SAPS   H9X 1301   3.022   3.552   7.934  3.3714  1.4143 -0.6319
   10SAPS   H9Y 1302   3.125   3.554   7.806 -2.7104  2.7322 -1.0668
   10SAPS  C310 1303   3.103   3.352   7.909 -0.1500  0.1112  0.8501
   10SAPS  H10X 1304   3.151   3.303   7.821  0.3953  1.1482  0.5554
   10SAPS  H10Y 1305   3.009   3.294   7.922 -0.5561  0.7245  0.6873
   10SAPS  C311 1306   3.190   3.354   8.030  0.3554  0.4927 -0.7415
   10SAPS  H11X 1307   3.131   3.405   8.108 -1.1324 -0.7199 -1.0301
   10SAPS  H11Y 1308   3.285   3.410   8.014  2.0310 -1.2544  2.3496
   10SAPS  C312 1309   3.233   3.211   8.069  0.5137  0.3738  0.0871
   10SAPS  H12X 1310   3.305   3.168   7.996  1.9640  0.8374  1.1931
   10SAPS  H12Y 1311   3.144   3.148   8.087 -0.7249  2.3117  1.1615
   10SAPS  C313 1312   3.300   3.212   8.205 -0.0848  0.1338  0.2658
   10SAPS  H13X 1313   3.382   3.287   8.206 -1.6823  1.9627  1.8665
   10SAPS  H13Y 1314   3.347   3.115   8.234  0.2483  0.6173  1.4188
   10SAPS  C314 1315   3.206   3.244   8.321  0.8720 -1.1069  0.0505
   10SAPS  H14X 1316   3.128   3.165   8.320 -0.6059  0.2893  0.4226
   10SAPS  H14Y 1317   3.153   3.339   8.300  2.2644 -0.7327 -2.1173
   10SAPS  C315 1318   3.282   3.259   8.451  0.0995 -0.2220  0.1152
   10SAPS  H15X 1319   3.379   3.205   8.458  0.6885  0.7809 -0.1466
   10SAPS  H15Y 1320   3.215   3.224   8.532 -0.2981  0.8823  0.2852
   10SAPS  C316 1321   3.317   3.403   8.479  0.9659  0.1813  0.5365
   10SAPS  H16X 1322   3.233   3.471   8.454 -1.6740 -1.7773  3.2847
   10SAPS  H16Y 1323   3.404   3.427   8.415  0.7016  1.6081  0.6871
   10SAPS  C317 1324   3.350   3.430   8.628  0.5555 -0.6426 -0.2868
   10SAPS  H17X 1325   3.416   3.518   8.643 -2.0564  0.9966  2.9509
   10SAPS  H17Y 1326   3.422   3.357   8.671  1.1233  0.7411  1.1984
   10SAPS  C318 1327   3.227   3.435   8.719  0.3625  0.3534 -0.3488
   10SAPS  H18X 1328   3.260   3.438   8.825 -2.7748  1.0292  0.7222
   10SAPS  H18Y 1329   3.167   3.342   8.713 -0.1986  0.6444  0.5444
   10SAPS  H18Z 1330   3.159   3.521   8.702  0.8646  1.5462  2.8424
   11SAPS     N 1331   0.918   2.265   5.990 -0.0816  0.6079 -0.1543
   11SAPS   HN1 1332   0.886   2.167   5.975 -0.5920  0.8847 -0.8894
   11SAPS   HN2 1333   1.018   2.263   5.960 -0.1352 -0.0809 -0.3107
   11SAPS   HN3 1334   0.902   2.281   6.091 -2.4012  0.3048 -0.4224
   11SAPS   C12 1335   0.831   2.357   5.908  0.2459 -1.0129 -0.4158
   11SAPS  H12A 1336   0.856   2.459   5.932 -0.4254 -0.6686 -1.1753
   11SAPS   C13 1337   0.870   2.347   5.758 -0.4766  0.4412 -0.5644
   11SAPS  O13A 1338   0.958   2.266   5.726 -0.2452 -0.7859 -0.2852
   11SAPS  O13B 1339   0.810   2.422   5.671  0.1226  0.1315  0.0787
   11SAPS   C11 1340   0.677   2.327   5.938 -0.0659 -0.4112  1.1948
   11SAPS  H11A 1341   0.652   2.223   5.909 -1.4433 -0.2148  1.5862
   11SAPS  H11B 1342   0.616   2.400   5.879  0.8897  1.8825  2.8762
   11SAPS     P 1343   0.491   2.363   6.118  0.6105  0.0208 -0.0377
   11SAPS   O13 1344   0.456   2.504   6.088 -0.4974  0.2072 -0.2598
   11SAPS   O14 1345   0.415   2.256   6.048 -0.4826 -0.5590 -0.5166
   11SAPS   O12 1346   0.652   2.343   6.080 -0.4166 -0.0656 -0.1269
   11SAPS   O11 1347   0.497   2.338   6.274 -0.1848 -0.4074 -0.0362
   11SAPS    C1 1348   0.578   2.229   6.317 -0.4604  0.0858  0.5413
   11SAPS    HA 1349   0.550   2.131   6.273 -2.4943  0.3870  1.0347
   11SAPS    HB 1350   0.683   2.243   6.284 -1.4960  0.8244 -2.7830
   11SAPS    C2 1351   0.582   2.218   6.473  0.5333  0.0081  0.3821
   11SAPS    HS 1352   0.642   2.128   6.495 -1.4672 -1.1483  1.4003
   11SAPS   O21 1353   0.443   2.226   6.516 -0.7960  0.2851 -0.1401
   11SAPS   C21 1354   0.383   2.110   6.501  0.8263  1.2143 -0.9633
   11SAPS   O22 1355   0.421   2.002   6.466 -0.3240  0.0909  0.5567
   11SAPS   C22 1356   0.244   2.133   6.561 -0.5339 -0.4487 -0.3556
   11SAPS   H2R 1357   0.268   2.200   6.646 -0.0679 -1.1185  0.0578
   11SAPS   H2S 1358   0.195   2.187   6.477  0.8197 -1.9121 -2.1754
   11SAPS    C3 1359   0.667   2.333   6.536 -0.2089 -0.4935 -0.0342
   11SAPS    HX 1360   0.635   2.434   6.503  1.1730 -1.2828 -4.3976
   11SAPS    HY 1361   0.773   2.319   6.505 -0.5402 -1.0226 -0.9476
   11SAPS   O31 1362   0.653   2.307   6.675  0.2225  0.3273 -0.3073
   11SAPS   C31 1363   0.559   2.373   6.744  0.1113  0.4980 -0.7754
   11SAPS   O32 1364   0.481   2.453   6.701  0.2983 -0.2166  0.8584
   11SAPS   C32 1365   0.555   2.335   6.889 -0.4276  0.5314 -1.2680
   11SAPS   H2X 1366   0.459   2.370   6.932  1.5014  2.6096  1.8090
   11SAPS   H2Y 1367   0.633   2.397   6.939 -1.4965  2.2169 -1.6532
   11SAPS   C23 1368   0.158   2.011   6.585  0.5611  0.3321 -1.0752
   11SAPS   H3R 1369   0.139   1.963   6.487 -1.9947  1.3485 -1.1696
   11SAPS   H3S 1370   0.061   2.044   6.630  1.0429  0.7845 -0.3456
   11SAPS   C24 1371   0.215   1.909   6.695  0.4746  0.2634  0.6316
   11SAPS   H4R 1372   0.309   1.865   6.655 -1.0119 -3.8343  1.1334
   11SAPS   H4S 1373   0.140   1.827   6.695 -0.8712  1.1406 -4.3517
   11SAPS   C25 1374   0.238   1.976   6.822 -0.3080 -0.3876 -0.8409
   11SAPS   H5R 1375   0.287   2.073   6.809  1.9657 -1.6476 -2.4490
   11SAPS   C26 1376   0.208   1.932   6.946  0.4750  0.8790 -0.2559
   11SAPS   H6R 1377   0.239   1.992   7.033 -2.4558  0.0269  1.5318
   11SAPS   C27 1378   0.145   1.799   6.980  0.3406 -0.5413  0.3113
   11SAPS   H7R 1379   0.106   1.748   6.889 -1.4849 -1.1683  1.3877
   11SAPS   H7S 1380   0.056   1.825   7.042 -1.1448 -1.2074 -1.4292
   11SAPS   C28 1381   0.243   1.715   7.056  0.1895  0.5611  0.6557
   11SAPS   H8R 1382   0.294   1.641   6.993 -2.4049 -0.2065 -0.6952
   11SAPS   C29 1383   0.270   1.724   7.188  0.3740 -0.3741 -0.4274
   11SAPS   H9R 1384   0.356   1.666   7.225  0.6616  1.4247  1.9545
   11SAPS  C210 1385   0.210   1.817   7.292 -0.1390 -0.2501 -0.1804
   11SAPS  H10R 1386   0.158   1.893   7.230  0.8809 -2.2689 -3.8359
   11SAPS  H10S 1387   0.296   1.869   7.341  2.1045 -2.5657 -1.4032
   11SAPS  C211 1388   0.110   1.767   7.392  0.2842 -0.5779 -0.0826
   11SAPS  H11R 1389   0.024   1.711   7.351 -1.0384  2.2985 -1.5320
   11SAPS  C212 1390   0.122   1.773   7.525 -0.3701 -0.3642  0.3308
   11SAPS  H12R 1391   0.044   1.733   7.591  1.8951 -2.5643  1.9236
   11SAPS  C213 1392   0.238   1.833   7.608 -0.0952 -0.0776 -0.1758
   11SAPS  H13R 1393   0.334   1.809   7.559  1.2698  0.9653  1.8603
   11SAPS  H13S 1394   0.231   1.782   7.706 -2.7649 -1.2683 -0.8861
   11SAPS  C214 1395   0.215   1.983   7.616 -0.1335  0.4657  0.4520
   11SAPS  H14R 1396   0.156   2.019   7.530 -3.5956 -2.8923  1.1548
   11SAPS  C215 1397   0.250   2.074   7.706  0.5854  0.0218  0.1281
   11SAPS  H15R 1398   0.226   2.181   7.697 -1.0871 -0.1586  1.6317
   11SAPS  C216 1399   0.331   2.043   7.828  0.2566 -0.8490 -0.9097
   11SAPS  H16R 1400   0.421   2.108   7.825  1.9133 -2.9412  0.7872
   11SAPS  H16S 1401   0.376   1.942   7.825  4.2186  0.6733  0.6023
   11SAPS  C217 1402   0.274   2.073   7.964  0.7318 -0.0571  0.2958
   11SAPS  H17R 1403   0.176   2.021   7.973  1.4135 -1.4141  0.0817
   11SAPS  H17S 1404   0.238   2.178   7.967 -2.7470 -1.1182  0.9248
   11SAPS  C218 1405   0.366   2.052   8.084  0.0794  0.0578 -0.1626
   11SAPS  H18R 1406   0.461   2.106   8.064 -1.3214  2.3182 -1.0332
   11SAPS  H18S 1407   0.394   1.944   8.086  0.9648  0.2477 -1.1859
   11SAPS  C219 1408   0.308   2.086   8.215 -0.4157 -1.0823 -0.9295
   11SAPS  H19R 1409   0.226   2.015   8.239 -0.5704 -0.0098  2.2635
   11SAPS  H19S 1410   0.266   2.189   8.206  1.2608 -0.0664  1.7482
   11SAPS  C220 1411   0.412   2.063   8.324  0.4134  0.6577  0.2249
   11SAPS  H20R 1412   0.438   1.955   8.321 -1.0105  0.2530  1.4109
   11SAPS  H20S 1413   0.372   2.085   8.426  1.5525 -0.8750  1.0535
   11SAPS  H20T 1414   0.505   2.124   8.317  0.9919  0.2698  3.1215
   11SAPS   C33 1415   0.563   2.185   6.919  0.7354  0.0389 -0.0332
   11SAPS   H3X 1416   0.659   2.136   6.891 -0.5420 -1.3942 -2.1526
   11SAPS   H3Y 1417   0.483   2.123   6.875  1.3064 -2.0994  1.7302
   11SAPS   C34 1418   0.544   2.151   7.067 -0.2190  0.1586  0.1449
   11SAPS   H4X 1419   0.502   2.048   7.059  1.2850 -0.3172 -3.0076
   11SAPS   H4Y 1420   0.474   2.219   7.120  0.0391  0.0573  0.6258
   11SAPS   C35 1421   0.676   2.116   7.150  0.2552 -0.5311  0.2131
   11SAPS   H5X 1422   0.717   2.214   7.183 -0.6744 -0.1343  0.2440
   11SAPS   H5Y 1423   0.748   2.065   7.083  0.1647 -0.5536  0.1316
   11SAPS   C36 1424   0.645   2.033   7.282  0.2650 -0.1971 -0.1490
   11SAPS   H6X 1425   0.679   1.930   7.257  2.9695  0.1086  1.8609
   11SAPS   H6Y 1426   0.534   2.038   7.291  0.2259  2.7408 -1.2422
   11SAPS   C37 1427   0.722   2.092   7.404  0.4806  0.2336 -0.4386
   11SAPS   H7X 1428   0.700   2.198   7.427 -1.0343 -0.5215  2.0733
   11SAPS   H7Y 1429   0.832   2.080   7.396  0.3553 -1.7535  0.1507
   11SAPS   C38 1430   0.676   2.012   7.526 -0.0951 -0.7681 -0.3670
   11SAPS   H8X 1431   0.727   1.913   7.522  0.4644 -0.5028  0.0187
   11SAPS   H8Y 1432   0.567   1.992   7.524 -0.3903  0.4846  1.2626
   11SAPS   C39 1433   0.718   2.081   7.657 -0.2579 -0.0294 -0.3162
   11SAPS   H9X 1434   0.646   2.158   7.692  1.0948  0.9749  0.3662
   11SAPS   H9Y 1435   0.817   2.128   7.639 -0.0030 -0.0544  0.9022
   11SAPS  C310 1436   0.739   1.980   7.773 -0.0647  0.0957  0.4371
   11SAPS  H10X 1437   0.833   1.927   7.749  0.1451  0.9972 -0.8049
   11SAPS  H10Y 1438   0.650   1.914   7.768  0.1298 -0.2762  1.4873
   11SAPS  C311 1439   0.740   2.039   7.908  0.5211 -0.0338  0.1159
   11SAPS  H11X 1440   0.650   2.102   7.927  0.0951 -0.5744 -0.1039
   11SAPS  H11Y 1441   0.824   2.108   7.928  0.4982  0.7065 -2.1058
   11SAPS  C312 1442   0.743   1.939   8.023 -0.7096  0.3814 -0.3638
   11SAPS  H12X 1443   0.839   1.885   8.019 -1.3476 -0.7330 -2.1739
   11SAPS  H12Y 1444   0.671   1.856   8.002 -3.8381  2.5512  0.9741
   11SAPS  C313 1445   0.718   2.000   8.154  0.4586  0.6299 -0.2594
   11SAPS  H13X 1446   0.610   2.022   8.167  0.2166 -0.0556 -1.0182
   11SAPS  H13Y 1447   0.781   2.090   8.168  2.4489 -0.9260  1.5906
   11SAPS  C314 1448   0.764   1.905   8.264 -0.3196 -0.5971  0.2869
   11SAPS  H14X 1449   0.874   1.887   8.255 -0.1326  0.7464 -0.3879
   11SAPS  H14Y 1450   0.723   1.802   8.261 -1.9587  0.0443 -0.0663
   11SAPS  C315 1451   0.755   1.973   8.405  0.2105 -0.0164 -0.6617
   11SAPS  H15X 1452   0.807   1.906   8.476 -0.0195  0.4908 -0.0087
   11SAPS  H15Y 1453   0.650   1.973   8.441  0.8791 -0.8708  1.4123
   11SAPS  C316 1454   0.805   2.115   8.416 -0.1716  0.2483 -0.3508
   11SAPS  H16X 1455   0.731   2.176   8.360  0.6068  0.6784 -0.9157
   11SAPS  H16Y 1456   0.905   2.127   8.371  0.5354 -0.1706  1.0375
   11SAPS  C317 1457   0.795   2.161   8.562  0.0682 -0.3329 -0.2557
   11SAPS  H17X 1458   0.696   2.163   8.612  1.0695  0.3688  1.8191
   11SAPS  H17Y 1459   0.811   2.271   8.559  1.7426 -0.3781  2.7346
   11SAPS  C318 1460   0.917   2.113   8.645  0.3156 -0.7559 -0.3529
   11SAPS  H18X 1461   0.906   2.136   8.753 -2.1147  0.9092 -0.8807
   11SAPS  H18Y 1462   1.012   2.158   8.609 -1.3066  2.0670 -1.4785
   11SAPS  H18Z 1463   0.927   2.003   8.631 -0.4214 -1.1966  2.0589
   12SAPS     N 1464   1.150   6.123   5.706 -0.1441  0.0359 -0.2820
   12SAPS   HN1 1465   1.066   6.182   5.724 -0.5831 -0.6203 -0.1489
   12SAPS   HN2 1466   1.178   6.130   5.606  1.3996  2.6649  0.2322
   12SAPS   HN3 1467   1.135   6.022   5.727  1.1902 -0.2105 -0.4525
   12SAPS   C12 1468   1.246   6.170   5.805 -0.4695  0.3017  0.8252
   12SAPS  H12A 1469   1.317   6.090   5.820 -1.6208 -0.8975  0.0369
   12SAPS   C13 1470   1.322   6.297   5.749  0.2645  0.9815 -0.7444
   12SAPS  O13A 1471   1.304   6.333   5.634  0.4493 -0.4795  0.7229
   12SAPS  O13B 1472   1.429   6.324   5.809  0.5542  0.6386  0.4187
   12SAPS   C11 1473   1.173   6.207   5.936 -0.9309 -1.6539 -0.0412
   12SAPS  H11A 1474   1.109   6.295   5.913 -0.2407 -0.8039  1.1454
   12SAPS  H11B 1475   1.238   6.240   6.020 -0.5038 -2.7471  0.0726
   12SAPS     P 1476   1.003   6.102   6.096  0.2908 -0.0550  0.2985
   12SAPS   O13 1477   0.954   6.240   6.106  0.3226 -0.4650 -0.0345
   12SAPS   O14 1478   0.898   5.997   6.089 -0.1853  0.6233 -0.0837
   12SAPS   O12 1479   1.108   6.091   5.977  0.2606  0.3125 -0.2294
   12SAPS   O11 1480   1.102   6.076   6.216 -0.3370 -0.4275  0.6228
   12SAPS    C1 1481   1.141   6.171   6.314 -0.2486 -0.3604  0.9868
   12SAPS    HA 1482   1.252   6.168   6.326 -0.4408 -1.4775  2.7588
   12SAPS    HB 1483   1.120   6.279   6.301  1.7175 -0.0354  0.0208
   12SAPS    C2 1484   1.086   6.126   6.457  0.3983 -0.0607 -0.6970
   12SAPS    HS 1485   0.979   6.156   6.455  0.3011 -0.3787 -0.2949
   12SAPS   O21 1486   1.158   6.182   6.571 -0.5377 -0.6184 -0.5757
   12SAPS   C21 1487   1.152   6.313   6.577 -0.6033  0.0020  0.3094
   12SAPS   O22 1488   1.086   6.387   6.503 -0.1126 -0.0550  0.3567
   12SAPS   C22 1489   1.248   6.360   6.679  0.0656 -0.3263  0.1712
   12SAPS   H2R 1490   1.272   6.269   6.738  0.6633 -1.6245 -1.9590
   12SAPS   H2S 1491   1.338   6.404   6.632 -1.2424  2.2380 -0.1639
   12SAPS    C3 1492   1.082   5.976   6.477 -0.3793  0.2835 -0.8072
   12SAPS    HX 1493   1.187   5.938   6.477 -0.6625 -0.5371 -0.4788
   12SAPS    HY 1494   1.026   5.935   6.390  0.0561 -0.6364 -0.6662
   12SAPS   O31 1495   1.008   5.935   6.594  0.0974  0.1464  0.1301
   12SAPS   C31 1496   0.977   5.806   6.614 -0.2554 -0.9372  0.5481
   12SAPS   O32 1497   0.986   5.720   6.523  0.0544 -0.6524 -0.4700
   12SAPS   C32 1498   0.914   5.786   6.749  0.0274 -0.7281 -0.0387
   12SAPS   H2X 1499   0.816   5.839   6.750 -0.7020 -2.0233 -0.1429
   12SAPS   H2Y 1500   0.977   5.823   6.833 -2.2680 -2.9776  2.8990
   12SAPS   C23 1501   1.191   6.471   6.770  0.0287 -0.0139  0.1513
   12SAPS   H3R 1502   1.101   6.446   6.830  0.6414 -1.7462  0.3889
   12SAPS   H3S 1503   1.157   6.542   6.691  0.2963 -2.1448 -2.0203
   12SAPS   C24 1504   1.297   6.540   6.860 -0.1045 -0.2227 -0.0747
   12SAPS   H4R 1505   1.381   6.567   6.793  0.3640  1.9381  1.2926
   12SAPS   H4S 1506   1.330   6.478   6.946  0.3919  2.1277  1.4994
   12SAPS   C25 1507   1.239   6.679   6.898  0.0130 -0.3955  0.3431
   12SAPS   H5R 1508   1.239   6.751   6.815  2.7604  2.4439  2.5535
   12SAPS   C26 1509   1.215   6.723   7.024  0.3964 -1.0822 -0.7249
   12SAPS   H6R 1510   1.179   6.826   7.036  0.0652 -1.2244 -0.4893
   12SAPS   C27 1511   1.231   6.640   7.147 -0.0667 -0.6474  0.0509
   12SAPS   H7R 1512   1.329   6.656   7.197 -0.9475 -0.6959  1.8737
   12SAPS   H7S 1513   1.215   6.532   7.129 -3.2537 -0.2078 -0.4795
   12SAPS   C28 1514   1.117   6.668   7.235 -0.9842 -0.7110  0.5361
   12SAPS   H8R 1515   1.020   6.675   7.184  0.6189 -0.1355 -2.6806
   12SAPS   C29 1516   1.123   6.680   7.375  0.0679 -0.0143 -0.4138
   12SAPS   H9R 1517   1.033   6.718   7.426 -1.4064  0.0486 -2.8816
   12SAPS  C210 1518   1.246   6.664   7.464 -0.6584  0.4647  0.4276
   12SAPS  H10R 1519   1.338   6.645   7.404 -2.1553 -3.1144 -1.0184
   12SAPS  H10S 1520   1.250   6.570   7.522 -0.5351  0.1850 -0.0249
   12SAPS  C211 1521   1.267   6.767   7.567 -0.3199 -0.5302  0.2281
   12SAPS  H11R 1522   1.261   6.870   7.530 -1.5289 -1.1104 -1.2819
   12SAPS  C212 1523   1.299   6.747   7.696  0.2810  0.3447  0.4374
   12SAPS  H12R 1524   1.299   6.834   7.764  0.0743  1.1957 -0.6236
   12SAPS  C213 1525   1.338   6.618   7.767 -0.2717 -0.2311 -0.6584
   12SAPS  H13R 1526   1.346   6.543   7.686 -1.4874  0.8377 -1.8142
   12SAPS  H13S 1527   1.271   6.599   7.854 -1.3552  0.8092 -1.2374
   12SAPS  C214 1528   1.479   6.615   7.830  0.0635  0.5231 -0.4484
   12SAPS  H14R 1529   1.552   6.688   7.792  1.6777 -0.0767  1.3134
   12SAPS  C215 1530   1.510   6.539   7.940  0.3242  0.0231 -0.1180
   12SAPS  H15R 1531   1.614   6.524   7.974 -0.6421 -1.3992  2.4697
   12SAPS  C216 1532   1.418   6.441   8.023  0.4451  0.7680 -0.3586
   12SAPS  H16R 1533   1.447   6.335   8.031  1.2350  1.0904  1.6376
   12SAPS  H16S 1534   1.322   6.434   7.966  0.9093  0.4657 -1.1175
   12SAPS  C217 1535   1.388   6.498   8.164 -0.1581 -0.7606 -0.7014
   12SAPS  H17R 1536   1.333   6.590   8.134  1.3382  0.3480 -0.1319
   12SAPS  H17S 1537   1.487   6.526   8.204  0.5576 -1.6487 -1.7969
   12SAPS  C218 1538   1.298   6.408   8.254 -0.1857 -0.8537 -0.6243
   12SAPS  H18R 1539   1.335   6.304   8.266  0.2255 -0.4978  1.5920
   12SAPS  H18S 1540   1.206   6.396   8.193  0.5802 -1.5783 -1.6645
   12SAPS  C219 1541   1.270   6.477   8.390 -0.0989  0.2975 -0.6084
   12SAPS  H19R 1542   1.224   6.576   8.369  0.8344  1.0621  0.8022
   12SAPS  H19S 1543   1.369   6.493   8.439 -0.2162  0.9030 -0.5602
   12SAPS  C220 1544   1.178   6.394   8.475  0.0730  0.0351  0.3259
   12SAPS  H20R 1545   1.075   6.373   8.438  0.6132 -0.8560 -0.7318
   12SAPS  H20S 1546   1.167   6.446   8.573  0.4939  2.3928 -0.8152
   12SAPS  H20T 1547   1.221   6.303   8.521  0.4915  0.0617 -0.0122
   12SAPS   C33 1548   0.893   5.639   6.785  0.5249  0.1302  0.3041
   12SAPS   H3X 1549   0.989   5.584   6.774  0.4021  0.2337 -1.6067
   12SAPS   H3Y 1550   0.825   5.592   6.711  1.3295  3.3053 -2.7378
   12SAPS   C34 1551   0.824   5.608   6.917  0.2883 -0.2866 -0.5131
   12SAPS   H4X 1552   0.839   5.498   6.927  4.7095  0.0763 -1.0386
   12SAPS   H4Y 1553   0.721   5.649   6.918 -0.6656 -2.5167 -0.9685
   12SAPS   C35 1554   0.886   5.676   7.045 -0.5526 -0.5142 -0.1211
   12SAPS   H5X 1555   0.843   5.773   7.079  1.2820 -0.3554  2.0712
   12SAPS   H5Y 1556   0.992   5.684   7.012  0.1690  2.7109  2.4366
   12SAPS   C36 1557   0.854   5.590   7.167 -0.1517  0.1302  0.0651
   12SAPS   H6X 1558   0.834   5.485   7.137 -1.5164 -0.2090  2.0255
   12SAPS   H6Y 1559   0.754   5.621   7.204 -1.1701 -3.0642  0.3410
   12SAPS   C37 1560   0.968   5.600   7.271  0.1140 -0.6048  0.5224
   12SAPS   H7X 1561   0.996   5.707   7.284 -1.7412 -0.0219  0.0598
   12SAPS   H7Y 1562   1.061   5.560   7.225  0.2189 -0.0845  0.2773
   12SAPS   C38 1563   0.915   5.531   7.395  0.0131  0.1148 -0.7778
   12SAPS   H8X 1564   0.922   5.422   7.376 -1.4692  0.0025 -0.7745
   12SAPS   H8Y 1565   0.807   5.552   7.412 -0.4621 -2.8675  0.4190
   12SAPS   C39 1566   0.979   5.575   7.525 -0.1119  0.4430  0.5626
   12SAPS   H9X 1567   0.970   5.686   7.536 -2.1701  0.2945  0.8581
   12SAPS   H9Y 1568   1.086   5.547   7.519 -0.4990 -0.9672 -0.3104
   12SAPS  C310 1569   0.918   5.515   7.646  0.2938  0.6558  0.3321
   12SAPS  H10X 1570   0.923   5.404   7.651 -0.0812  0.4405 -2.5398
   12SAPS  H10Y 1571   0.811   5.542   7.640  0.3369  0.6388 -0.7009
   12SAPS  C311 1572   0.981   5.564   7.769 -0.2543  0.2321 -0.5892
   12SAPS  H11X 1573   0.970   5.674   7.778  2.2631  0.4629  0.6591
   12SAPS  H11Y 1574   1.089   5.546   7.750 -0.4033 -0.5171 -0.7607
   12SAPS  C312 1575   0.943   5.486   7.895  0.4500  0.4226 -0.4364
   12SAPS  H12X 1576   0.965   5.378   7.880  0.3667  0.2980  0.3330
   12SAPS  H12Y 1577   0.837   5.501   7.924  0.1695  0.8539 -1.6034
   12SAPS  C313 1578   1.034   5.522   8.009 -0.1015 -0.7522 -0.9399
   12SAPS  H13X 1579   1.013   5.625   8.046 -1.5119 -1.3373  0.0124
   12SAPS  H13Y 1580   1.135   5.525   7.963 -0.0917  2.8442 -0.9447
   12SAPS  C314 1581   1.026   5.434   8.135 -0.4279 -0.6095  0.7277
   12SAPS  H14X 1582   1.050   5.329   8.105 -0.1150 -0.2162 -0.4686
   12SAPS  H14Y 1583   0.927   5.432   8.185 -0.6728 -2.6670  0.2703
   12SAPS  C315 1584   1.125   5.485   8.239  0.2672  1.1007 -0.3050
   12SAPS  H15X 1585   1.102   5.592   8.255 -0.6495  0.4363  3.8118
   12SAPS  H15Y 1586   1.225   5.471   8.192  0.2242  1.0069 -0.3703
   12SAPS  C316 1587   1.130   5.416   8.380  0.5280  0.1994  0.0379
   12SAPS  H16X 1588   1.170   5.315   8.359 -2.3354 -0.9613 -0.2148
   12SAPS  H16Y 1589   1.027   5.400   8.417  0.1083  3.7589  0.8451
   12SAPS  C317 1590   1.216   5.497   8.478 -0.4389 -0.1550 -0.4361
   12SAPS  H17X 1591   1.228   5.445   8.575  0.2127  0.9397  0.0897
   12SAPS  H17Y 1592   1.175   5.598   8.500  2.3947  0.5910  2.0268
   12SAPS  C318 1593   1.353   5.534   8.427 -0.0203 -0.4014  0.0156
   12SAPS  H18X 1594   1.344   5.569   8.322  1.8040 -0.1153 -0.0757
   12SAPS  H18Y 1595   1.412   5.440   8.430 -1.4844 -1.3719  3.6103
   12SAPS  H18Z 1596   1.418   5.609   8.476  1.7098 -0.9602 -1.3034
   13SAPS     N 1597   0.033   3.917   5.871 -0.1912  0.0036  0.1577
   13SAPS   HN1 1598   0.115   3.969   5.908 -0.3039  0.2818  0.0164
   13SAPS   HN2 1599   0.059   3.819   5.847 -1.4719 -0.5583  0.9177
   13SAPS   HN3 1600  -0.012   3.963   5.790 -0.9909  1.1280  1.2058
   13SAPS   C12 1601  -0.064   3.912   5.997  0.0985 -0.2404 -0.7642
   13SAPS  H12A 1602  -0.008   3.957   6.076 -1.9106 -0.5572  0.9346
   13SAPS   C13 1603  -0.191   3.994   5.977  0.3607  0.3232  0.1661
   13SAPS  O13A 1604  -0.228   4.042   5.861  0.4151  0.5061  0.5809
   13SAPS  O13B 1605  -0.267   4.006   6.074 -0.2831 -0.1380 -0.4026
   13SAPS   C11 1606  -0.087   3.769   6.040  0.5463  0.2604 -0.0623
   13SAPS  H11A 1607  -0.117   3.708   5.952  2.3009  0.1037 -0.5852
   13SAPS  H11B 1608  -0.167   3.761   6.117  1.1720  0.7840  0.6605
   13SAPS     P 1609   0.055   3.584   6.145  0.0319  0.0197  0.0024
   13SAPS   O13 1610  -0.036   3.485   6.081  0.5290  0.2926 -0.3420
   13SAPS   O14 1611   0.201   3.547   6.161 -0.1773  0.3930  0.1513
   13SAPS   O12 1612   0.038   3.722   6.072  0.4585 -0.2516 -0.0986
   13SAPS   O11 1613  -0.002   3.610   6.290  0.2460  0.2267  0.1213
   13SAPS    C1 1614   0.026   3.731   6.356 -0.0884 -0.2015 -0.1375
   13SAPS    HA 1615   0.134   3.751   6.374 -1.0698  3.5690  2.9195
   13SAPS    HB 1616  -0.025   3.817   6.309  3.0607  0.9826 -1.6472
   13SAPS    C2 1617  -0.030   3.718   6.506  0.1488 -0.0219  0.1936
   13SAPS    HS 1618  -0.026   3.821   6.547  1.5865 -0.5689  1.5420
   13SAPS   O21 1619   0.059   3.630   6.583  0.5001  0.0604  0.6122
   13SAPS   C21 1620   0.161   3.691   6.634  0.1260  0.3013 -0.5578
   13SAPS   O22 1621   0.182   3.811   6.627 -0.0688  0.1132  0.1734
   13SAPS   C22 1622   0.248   3.587   6.709 -1.3629 -0.0209 -0.7579
   13SAPS   H2R 1623   0.201   3.486   6.710 -0.9145 -0.2416 -1.4292
   13SAPS   H2S 1624   0.342   3.582   6.650 -0.2471  0.5588  0.9324
   13SAPS    C3 1625  -0.178   3.665   6.504 -0.6117 -0.5638  0.1551
   13SAPS    HX 1626  -0.175   3.566   6.455  1.9309 -0.2116 -0.5783
   13SAPS    HY 1627  -0.241   3.733   6.443 -1.1942  1.0315  2.4037
   13SAPS   O31 1628  -0.232   3.660   6.639 -0.2274  0.2519 -0.5116
   13SAPS   C31 1629  -0.246   3.540   6.695  0.0475  0.9940  0.9414
   13SAPS   O32 1630  -0.224   3.433   6.635  0.1428 -0.2507 -0.1549
   13SAPS   C32 1631  -0.281   3.545   6.841  0.2249  0.2835 -0.4174
   13SAPS   H2X 1632  -0.206   3.601   6.901  1.1452 -1.8131  0.4839
   13SAPS   H2Y 1633  -0.277   3.442   6.882  0.4311  1.6591  3.4946
   13SAPS   C23 1634   0.278   3.640   6.854 -0.4463  0.2835 -1.2544
   13SAPS   H3R 1635   0.329   3.738   6.844  1.3794 -0.2335  1.8291
   13SAPS   H3S 1636   0.352   3.575   6.906  0.6234  2.4955  0.0921
   13SAPS   C24 1637   0.151   3.646   6.938 -0.9171 -0.7636 -0.2383
   13SAPS   H4R 1638   0.076   3.715   6.892 -1.4814 -0.6460  0.8261
   13SAPS   H4S 1639   0.163   3.692   7.038 -1.0640 -1.8149  0.2709
   13SAPS   C25 1640   0.087   3.513   6.965 -0.4036 -0.4637 -0.0184
   13SAPS   H5R 1641   0.081   3.450   6.876 -2.0538 -0.4365  0.0485
   13SAPS   C26 1642   0.016   3.462   7.068 -0.5515 -0.2486 -0.5349
   13SAPS   H6R 1643  -0.029   3.363   7.054  1.2512 -0.9777 -1.5537
   13SAPS   C27 1644  -0.012   3.531   7.191  0.0352 -0.4031 -1.1565
   13SAPS   H7R 1645  -0.095   3.474   7.238  0.4947 -1.4610 -1.6037
   13SAPS   H7S 1646  -0.046   3.636   7.179 -1.5365 -0.5830  1.2018
   13SAPS   C28 1647   0.108   3.527   7.281  0.3970  1.1897 -0.5522
   13SAPS   H8R 1648   0.191   3.464   7.246  0.8355 -0.4863  3.1518
   13SAPS   C29 1649   0.121   3.603   7.391 -0.3976 -0.3905  0.0081
   13SAPS   H9R 1650   0.213   3.597   7.451  0.0759 -0.1948 -0.6908
   13SAPS  C210 1651   0.021   3.702   7.441 -0.4303 -0.2844 -0.4317
   13SAPS  H10R 1652  -0.081   3.694   7.397 -1.8279 -2.3379  2.8264
   13SAPS  H10S 1653   0.060   3.800   7.406 -2.2282  0.4866 -0.4146
   13SAPS  C211 1654   0.012   3.706   7.591  0.5186 -0.6756  0.2644
   13SAPS  H11R 1655   0.044   3.617   7.648 -0.9697 -1.5697 -0.2198
   13SAPS  C212 1656  -0.051   3.804   7.653 -0.7559 -0.4151 -1.2773
   13SAPS  H12R 1657  -0.050   3.803   7.763 -1.0190  0.2638 -1.2623
   13SAPS  C213 1658  -0.113   3.931   7.590  0.2822  0.6365  0.0729
   13SAPS  H13R 1659  -0.053   3.968   7.504  1.1016  0.1789  0.4383
   13SAPS  H13S 1660  -0.128   4.016   7.660 -1.6111  1.5122 -1.3004
   13SAPS  C214 1661  -0.248   3.887   7.542 -0.8343 -0.3152 -1.0302
   13SAPS  H14R 1662  -0.293   3.799   7.590  0.1579 -1.2638 -1.8084
   13SAPS  C215 1663  -0.303   3.937   7.431  0.7317  1.1179 -0.4303
   13SAPS  H15R 1664  -0.404   3.901   7.404 -0.6059  3.9720  0.3294
   13SAPS  C216 1665  -0.239   4.031   7.336  0.5360  0.4193 -0.1418
   13SAPS  H16R 1666  -0.149   4.084   7.373 -0.2150  1.7257 -0.1244
   13SAPS  H16S 1667  -0.308   4.116   7.313 -1.7419 -1.3158 -0.0710
   13SAPS  C217 1668  -0.189   3.964   7.207 -0.0929 -0.4217  0.1570
   13SAPS  H17R 1669  -0.273   3.938   7.139  0.4052 -0.1114 -0.5986
   13SAPS  H17S 1670  -0.141   3.868   7.233 -0.7078 -0.7329  0.1584
   13SAPS  C218 1671  -0.087   4.046   7.130  0.0928 -0.2231 -0.5788
   13SAPS  H18R 1672  -0.007   4.079   7.199  0.5624  0.4627 -1.4230
   13SAPS  H18S 1673  -0.130   4.142   7.096 -3.5097 -1.1248  0.9950
   13SAPS  C219 1674  -0.035   3.982   7.008  0.4240  0.2059 -0.1871
   13SAPS  H19R 1675   0.036   3.898   7.022  1.4469  0.3441 -3.6599
   13SAPS  H19S 1676   0.008   4.070   6.955  0.1624  0.2531 -0.3231
   13SAPS  C220 1677  -0.145   3.914   6.921 -0.0502  0.4658 -0.1701
   13SAPS  H20R 1678  -0.098   3.872   6.830 -1.7475  1.2047 -1.4389
   13SAPS  H20S 1679  -0.222   3.991   6.897 -1.0968  0.1528  1.9342
   13SAPS  H20T 1680  -0.186   3.832   6.983  0.6978  2.5283  3.3135
   13SAPS   C33 1681  -0.421   3.606   6.871  0.1660  0.1054 -0.3264
   13SAPS   H3X 1682  -0.493   3.565   6.797 -0.4814  1.4919 -0.4980
   13SAPS   H3Y 1683  -0.419   3.716   6.855 -2.2811  0.0735 -1.1776
   13SAPS   C34 1684  -0.477   3.562   7.006 -1.2729 -0.9923  0.5313
   13SAPS   H4X 1685  -0.491   3.452   7.002  3.7153 -1.8804  1.0720
   13SAPS   H4Y 1686  -0.569   3.623   7.018 -0.0572  1.0916 -0.2226
   13SAPS   C35 1687  -0.393   3.588   7.125 -0.1444  0.0816 -0.7323
   13SAPS   H5X 1688  -0.388   3.695   7.153 -0.5427  0.0150 -0.3916
   13SAPS   H5Y 1689  -0.295   3.539   7.105 -1.1098 -1.5406 -1.7129
   13SAPS   C36 1690  -0.451   3.520   7.250  0.6719  0.2039  0.0305
   13SAPS   H6X 1691  -0.450   3.410   7.237  2.2513  0.1089  0.8353
   13SAPS   H6Y 1692  -0.561   3.540   7.254  0.5381 -0.7319  3.1334
   13SAPS   C37 1693  -0.385   3.571   7.376 -0.0918 -0.3974  0.3152
   13SAPS   H7X 1694  -0.449   3.655   7.411 -1.5060 -1.0497 -0.5783
   13SAPS   H7Y 1695  -0.280   3.604   7.369  0.0023 -0.5628  0.8692
   13SAPS   C38 1696  -0.394   3.466   7.487 -0.3303 -0.5268  0.1799
   13SAPS   H8X 1697  -0.336   3.376   7.455  2.6440  2.5669 -4.3460
   13SAPS   H8Y 1698  -0.495   3.426   7.510 -1.6761  2.6074  0.2544
   13SAPS   C39 1699  -0.323   3.507   7.622  0.1402 -0.2504 -0.1271
   13SAPS   H9X 1700  -0.382   3.585   7.675  1.7780  0.6332  0.4359
   13SAPS   H9Y 1701  -0.227   3.558   7.602  0.2184 -0.5098 -0.4107
   13SAPS  C310 1702  -0.299   3.393   7.718 -0.1024 -0.0551 -0.7652
   13SAPS  H10X 1703  -0.249   3.314   7.658 -1.1954 -0.7071 -0.8500
   13SAPS  H10Y 1704  -0.390   3.343   7.756  1.5751 -1.9302  1.0656
   13SAPS  C311 1705  -0.210   3.429   7.837 -0.5561 -0.6734 -0.1160
   13SAPS  H11X 1706  -0.253   3.515   7.893 -2.9697 -2.0665  0.3107
   13SAPS  H11Y 1707  -0.112   3.461   7.794  0.8027 -3.9361  0.2745
   13SAPS  C312 1708  -0.173   3.318   7.932 -0.1557  0.1067 -0.5197
   13SAPS  H12X 1709  -0.080   3.353   7.981 -0.4349  0.0714  0.0462
   13SAPS  H12Y 1710  -0.130   3.233   7.876  2.2860  0.8588  0.1130
   13SAPS  C313 1711  -0.271   3.288   8.036 -0.0315 -0.4551 -0.2255
   13SAPS  H13X 1712  -0.358   3.263   7.971 -0.1493 -0.9339  0.1162
   13SAPS  H13Y 1713  -0.283   3.388   8.084 -3.9257 -0.5626 -0.6822
   13SAPS  C314 1714  -0.237   3.178   8.132 -0.1653  0.1464 -0.5198
   13SAPS  H14X 1715  -0.135   3.200   8.169 -0.1665  0.8692 -0.9360
   13SAPS  H14Y 1716  -0.221   3.083   8.076 -0.1768 -0.7554  0.9352
   13SAPS  C315 1717  -0.334   3.154   8.246 -0.0328  0.8082  0.1269
   13SAPS  H15X 1718  -0.436   3.150   8.202  0.7624  0.5958 -1.8071
   13SAPS  H15Y 1719  -0.323   3.242   8.313 -0.3688  1.5731 -0.7966
   13SAPS  C316 1720  -0.290   3.023   8.307 -0.1468  0.8881  0.5599
   13SAPS  H16X 1721  -0.180   3.018   8.313 -0.2015 -2.2359  0.4737
   13SAPS  H16Y 1722  -0.319   2.938   8.241  2.1002 -2.0152  3.0311
   13SAPS  C317 1723  -0.360   3.002   8.445  0.1982  0.0658  0.5587
   13SAPS  H17X 1724  -0.345   2.896   8.474  2.3183  0.0947 -0.2891
   13SAPS  H17Y 1725  -0.470   3.009   8.430  0.3785  0.9375 -0.5184
   13SAPS  C318 1726  -0.304   3.088   8.552 -0.3542 -0.5520 -0.4173
   13SAPS  H18X 1727  -0.194   3.093   8.537 -0.4424 -0.2260 -0.9689
   13SAPS  H18Y 1728  -0.317   3.045   8.654 -0.1026  0.5642  0.0995
   13SAPS  H18Z 1729  -0.339   3.192   8.533  2.0975 -0.0231 -2.7581
   14SAPS     N 1730   0.751   5.851   5.894 -0.0140 -0.0002 -0.0017
   14SAPS   HN1 1731   0.666   5.796   5.920  0.8782 -2.3704 -1.7301
   14SAPS   HN2 1732   0.818   5.790   5.843 -0.8405  0.2362 -1.4055
   14SAPS   HN3 1733   0.800   5.890   5.977 -1.0528 -1.0616  1.1587
   14SAPS   C12 1734   0.699   5.957   5.805  0.0659  0.5919  0.2843
   14SAPS  H12A 1735   0.779   6.014   5.760  0.0889  1.8510  1.8190
   14SAPS   C13 1736   0.612   5.892   5.689  0.2038  0.3012  0.0751
   14SAPS  O13A 1737   0.630   5.780   5.641 -0.2562 -0.3196  0.4502
   14SAPS  O13B 1738   0.568   5.987   5.609  0.2075  0.1103 -0.1874
   14SAPS   C11 1739   0.607   6.044   5.892 -0.3446  0.0151  0.5215
   14SAPS  H11A 1740   0.571   6.126   5.827  1.2455 -0.6840 -1.3447
   14SAPS  H11B 1741   0.673   6.088   5.970  1.0905  0.0841 -0.6877
   14SAPS     P 1742   0.349   5.998   5.975  0.0494 -0.1888 -0.5245
   14SAPS   O13 1743   0.331   6.146   5.996  0.1555  0.2605  0.3698
   14SAPS   O14 1744   0.276   5.936   5.861  0.8244 -0.0767  0.8582
   14SAPS   O12 1745   0.504   5.971   5.962  0.0477 -0.3603  0.6894
   14SAPS   O11 1746   0.309   5.934   6.117  0.3960  0.4268  0.1148
   14SAPS    C1 1747   0.394   5.839   6.191  0.0454  0.2511 -0.7233
   14SAPS    HA 1748   0.349   5.741   6.219  1.8280 -0.0981  1.1548
   14SAPS    HB 1749   0.483   5.813   6.129 -0.0929 -1.7902 -0.1243
   14SAPS    C2 1750   0.434   5.897   6.327 -0.1477  0.8031 -0.1096
   14SAPS    HS 1751   0.509   5.830   6.375 -0.7472  0.3856  0.2540
   14SAPS   O21 1752   0.321   5.916   6.406 -0.4140 -0.4483 -0.2009
   14SAPS   C21 1753   0.286   5.822   6.494 -0.2778  0.1064 -0.3422
   14SAPS   O22 1754   0.340   5.712   6.501 -0.4579  0.4155 -1.1224
   14SAPS   C22 1755   0.182   5.877   6.592 -0.0394 -0.2111  0.0611
   14SAPS   H2R 1756   0.104   5.927   6.530  0.2979 -0.6159 -0.6994
   14SAPS   H2S 1757   0.134   5.785   6.634  1.5105 -1.3257 -0.5415
   14SAPS    C3 1758   0.507   6.036   6.308 -0.5414 -0.2256  1.0474
   14SAPS    HX 1759   0.436   6.091   6.242  0.4052 -1.8338 -1.4505
   14SAPS    HY 1760   0.594   6.023   6.241 -1.4985  0.6153 -0.4339
   14SAPS   O31 1761   0.529   6.101   6.436  0.3192  0.0785 -0.1992
   14SAPS   C31 1762   0.650   6.092   6.494  0.7271 -0.1922  0.4371
   14SAPS   O32 1763   0.736   6.023   6.447 -0.1558  0.3486 -0.1077
   14SAPS   C32 1764   0.646   6.161   6.632  0.3202  0.7187  0.1242
   14SAPS   H2X 1765   0.595   6.086   6.697 -2.2394  2.6883  0.5697
   14SAPS   H2Y 1766   0.571   6.243   6.625  1.0176  1.6340  2.3541
   14SAPS   C23 1767   0.242   5.959   6.708  0.4989  0.3144 -0.2998
   14SAPS   H3R 1768   0.173   5.963   6.796  0.1628 -4.1038 -0.1336
   14SAPS   H3S 1769   0.258   6.062   6.670  1.7521 -0.7954 -3.0136
   14SAPS   C24 1770   0.374   5.905   6.769  0.7003 -0.6739  0.1770
   14SAPS   H4R 1771   0.459   5.905   6.698 -0.6016  2.5310 -1.5804
   14SAPS   H4S 1772   0.348   5.804   6.806 -2.0317 -0.1034  0.0237
   14SAPS   C25 1773   0.424   6.007   6.870  0.1399  0.5375 -0.2692
   14SAPS   H5R 1774   0.448   6.104   6.825 -0.9311  0.4389 -1.0823
   14SAPS   C26 1775   0.457   5.979   6.996  0.3789 -0.8677  0.1776
   14SAPS   H6R 1776   0.499   6.062   7.054 -2.8939  0.7136  0.4764
   14SAPS   C27 1777   0.447   5.847   7.068  0.4243 -0.0391  0.5652
   14SAPS   H7R 1778   0.552   5.815   7.088  0.9370  2.0564  1.5757
   14SAPS   H7S 1779   0.401   5.774   6.998  0.7681  1.3298 -1.1585
   14SAPS   C28 1780   0.355   5.861   7.190 -0.1420 -0.2778  0.2590
   14SAPS   H8R 1781   0.248   5.882   7.174  0.3116  1.2055 -1.3095
   14SAPS   C29 1782   0.399   5.853   7.311  0.3165  0.7749  0.0800
   14SAPS   H9R 1783   0.337   5.895   7.391 -0.0085 -2.7910  1.8637
   14SAPS  C210 1784   0.540   5.839   7.352 -0.5644 -0.2402  0.3950
   14SAPS  H10R 1785   0.618   5.818   7.275  1.8681  0.5936  2.4845
   14SAPS  H10S 1786   0.553   5.758   7.427  0.5212  0.9076  1.5162
   14SAPS  C211 1787   0.581   5.962   7.416  0.4923  0.0665 -0.1594
   14SAPS  H11R 1788   0.532   6.050   7.371 -1.4040 -1.2465 -0.8239
   14SAPS  C212 1789   0.670   5.982   7.510  0.1490  0.0151 -0.4737
   14SAPS  H12R 1790   0.683   6.089   7.533 -0.2472 -0.1610  0.6798
   14SAPS  C213 1791   0.763   5.885   7.582 -0.0267 -0.4968  0.0265
   14SAPS  H13R 1792   0.842   5.932   7.644 -1.4375  0.3079  1.2755
   14SAPS  H13S 1793   0.817   5.833   7.500  0.4077 -1.5334  0.9547
   14SAPS  C214 1794   0.681   5.790   7.665 -0.1659  0.0249 -0.5719
   14SAPS  H14R 1795   0.620   5.718   7.607 -2.2243 -0.2875  1.8103
   14SAPS  C215 1796   0.679   5.781   7.798  0.5845  0.0264 -0.1428
   14SAPS  H15R 1797   0.613   5.705   7.842  1.5901  0.9977  3.4098
   14SAPS  C216 1798   0.763   5.861   7.893 -0.8729  0.0850  0.1484
   14SAPS  H16R 1799   0.810   5.952   7.850 -0.2955  0.9542  2.4517
   14SAPS  H16S 1800   0.847   5.801   7.934 -1.4037  0.3652  1.7032
   14SAPS  C217 1801   0.683   5.902   8.011  0.1258 -0.6089 -0.1379
   14SAPS  H17R 1802   0.631   5.812   8.048 -1.2354  0.8441  1.6367
   14SAPS  H17S 1803   0.610   5.979   7.978 -1.2495 -2.1643 -0.8712
   14SAPS  C218 1804   0.766   5.968   8.122 -0.1845 -0.2723 -0.3339
   14SAPS  H18R 1805   0.831   6.049   8.082 -0.3642  0.7608  1.3399
   14SAPS  H18S 1806   0.837   5.899   8.174  0.7872  1.1229  0.2765
   14SAPS  C219 1807   0.675   6.040   8.229 -0.6147  0.0883  0.3284
   14SAPS  H19R 1808   0.607   6.107   8.173  0.8292  1.1008 -0.2746
   14SAPS  H19S 1809   0.748   6.098   8.288 -1.4320  2.2499 -0.6988
   14SAPS  C220 1810   0.590   5.946   8.318  0.3120  0.5409  0.1266
   14SAPS  H20R 1811   0.556   5.995   8.411  1.4697 -0.7473  1.2776
   14SAPS  H20S 1812   0.664   5.867   8.344  1.1262  1.1473 -0.3179
   14SAPS  H20T 1813   0.507   5.903   8.258  1.8526 -0.4362 -1.4314
   14SAPS   C33 1814   0.780   6.220   6.687  0.3540 -0.0888  0.1497
   14SAPS   H3X 1815   0.807   6.309   6.626 -1.6857  0.1840 -0.4222
   14SAPS   H3Y 1816   0.860   6.145   6.670  0.7160  0.0084  1.2986
   14SAPS   C34 1817   0.785   6.237   6.839 -0.1049 -0.3412 -0.2428
   14SAPS   H4X 1818   0.694   6.293   6.872 -0.4495 -0.1659 -1.4385
   14SAPS   H4Y 1819   0.883   6.287   6.855  0.0140 -0.3978 -0.7760
   14SAPS   C35 1820   0.783   6.109   6.924  0.5254  0.8555  0.3248
   14SAPS   H5X 1821   0.861   6.033   6.901  1.0073  0.0318  3.9602
   14SAPS   H5Y 1822   0.686   6.062   6.897  1.6506 -1.3981 -0.0488
   14SAPS   C36 1823   0.779   6.120   7.073 -0.5051  0.4850  0.1997
   14SAPS   H6X 1824   0.774   6.020   7.120  0.0046  0.9745  1.3420
   14SAPS   H6Y 1825   0.683   6.171   7.096 -1.8785 -1.0654 -1.7570
   14SAPS   C37 1826   0.902   6.192   7.142 -0.0969  0.5346 -0.9016
   14SAPS   H7X 1827   0.912   6.293   7.097  0.6414  0.9067  0.0428
   14SAPS   H7Y 1828   0.994   6.139   7.111 -1.7490 -2.6350 -0.6979
   14SAPS   C38 1829   0.882   6.198   7.294  0.1480  0.3279  1.0408
   14SAPS   H8X 1830   0.885   6.094   7.334 -0.4645  0.2548  0.9090
   14SAPS   H8Y 1831   0.781   6.234   7.321 -0.4691 -1.2375  0.9457
   14SAPS   C39 1832   0.980   6.284   7.371  0.2458  0.0572  0.4676
   14SAPS   H9X 1833   0.968   6.389   7.339 -1.2569 -0.2661 -0.1356
   14SAPS   H9Y 1834   1.081   6.256   7.334 -0.2204  0.0491 -0.8913
   14SAPS  C310 1835   0.971   6.254   7.523  0.1756 -0.0406 -0.2255
   14SAPS  H10X 1836   1.068   6.288   7.565  0.6443 -0.9792 -0.5146
   14SAPS  H10Y 1837   0.976   6.145   7.544 -4.3015 -0.4698 -0.4049
   14SAPS  C311 1838   0.857   6.327   7.597 -0.4299  0.3466  0.2794
   14SAPS  H11X 1839   0.759   6.307   7.548  1.6829 -2.4638 -3.3651
   14SAPS  H11Y 1840   0.885   6.435   7.599  1.4094 -0.1126  2.0582
   14SAPS  C312 1841   0.853   6.288   7.745  0.5965 -0.0109 -0.3385
   14SAPS  H12X 1842   0.824   6.183   7.769  0.3643  0.4955  1.8033
   14SAPS  H12Y 1843   0.770   6.340   7.797 -0.2883  0.9161 -2.5409
   14SAPS  C313 1844   0.990   6.323   7.813 -0.1902 -0.0975  0.5092
   14SAPS  H13X 1845   1.017   6.426   7.784  0.2628 -0.2079  0.5387
   14SAPS  H13Y 1846   1.065   6.257   7.765  0.5027  0.6225  0.5813
   14SAPS  C314 1847   0.992   6.305   7.960  0.3611  0.5369 -0.0621
   14SAPS  H14X 1848   1.092   6.322   8.004  0.1865 -1.7018  1.3506
   14SAPS  H14Y 1849   0.966   6.198   7.975  1.2864  0.5400  1.8838
   14SAPS  C315 1850   0.894   6.388   8.036  0.3633  0.1823  0.3806
   14SAPS  H15X 1851   0.895   6.368   8.145  0.0496  0.4874  0.4426
   14SAPS  H15Y 1852   0.789   6.373   8.002  0.8376 -0.8295 -0.6762
   14SAPS  C316 1853   0.939   6.544   8.028 -0.1875 -0.0562 -0.5421
   14SAPS  H16X 1854   0.905   6.580   7.929  0.9115  3.6578  0.2972
   14SAPS  H16Y 1855   1.050   6.549   8.028  0.0712 -3.1578 -2.0763
   14SAPS  C317 1856   0.869   6.636   8.124 -0.1919  0.1746  0.1529
   14SAPS  H17X 1857   0.761   6.612   8.108  0.3202 -0.9611 -1.8447
   14SAPS  H17Y 1858   0.894   6.740   8.092  1.3793  0.3094  1.6872
   14SAPS  C318 1859   0.908   6.620   8.271 -0.8252  0.2208 -0.1836
   14SAPS  H18X 1860   1.013   6.587   8.288 -0.0401  1.0252 -3.0116
   14SAPS  H18Y 1861   0.839   6.544   8.313 -2.6593  1.2469 -1.1988
   14SAPS  H18Z 1862   0.889   6.710   8.333  1.0815  1.1597 -0.8838
   15SAPS     N 1863   0.451   3.650   6.101 -0.7068 -0.8959  0.0802
   15SAPS   HN1 1864   0.469   3.678   6.199  1.0368  0.8638 -0.6774
   15SAPS   HN2 1865   0.443   3.742   6.054 -3.3266 -1.2216 -0.2690
   15SAPS   HN3 1866   0.353   3.616   6.100 -1.3800  0.9345  0.7492
   15SAPS   C12 1867   0.548   3.559   6.034  0.4706  0.0321  0.2032
   15SAPS  H12A 1868   0.556   3.466   6.089  1.3151  0.7901  1.4152
   15SAPS   C13 1869   0.521   3.531   5.889 -0.2098 -0.2647  0.0072
   15SAPS  O13A 1870   0.414   3.570   5.831 -0.3105 -0.0661 -0.1332
   15SAPS  O13B 1871   0.601   3.455   5.835 -0.8548 -0.5532  0.2947
   15SAPS   C11 1872   0.686   3.633   6.034 -0.3625  0.2492 -0.0432
   15SAPS  H11A 1873   0.669   3.733   5.988  2.0694  1.2100  0.9690
   15SAPS  H11B 1874   0.764   3.585   5.972 -0.9842  1.0528 -1.5085
   15SAPS     P 1875   0.885   3.681   6.206  0.1441 -0.0294  0.1187
   15SAPS   O13 1876   0.972   3.605   6.111  0.0223 -0.2402 -0.0107
   15SAPS   O14 1877   0.928   3.823   6.223  0.1328 -0.1953 -0.0856
   15SAPS   O12 1878   0.732   3.663   6.167  0.2144 -0.6980 -0.5651
   15SAPS   O11 1879   0.904   3.612   6.350 -0.8618  0.2137 -0.1363
   15SAPS    C1 1880   0.799   3.538   6.412 -0.0753 -0.4675 -0.0772
   15SAPS    HA 1881   0.703   3.588   6.385  0.8780  1.3979 -0.1914
   15SAPS    HB 1882   0.787   3.438   6.366 -4.1510 -0.7337  1.1282
   15SAPS    C2 1883   0.816   3.519   6.566  0.1598 -0.1125 -0.9199
   15SAPS    HS 1884   0.734   3.461   6.614  1.2382 -0.5518  0.4848
   15SAPS   O21 1885   0.834   3.647   6.633 -0.5462 -0.1872 -0.2199
   15SAPS   C21 1886   0.730   3.721   6.655  0.9915  0.8152  0.0075
   15SAPS   O22 1887   0.619   3.700   6.611 -0.0141 -0.0182  0.0362
   15SAPS   C22 1888   0.756   3.844   6.737 -0.0154  1.0208  0.0276
   15SAPS   H2R 1889   0.831   3.900   6.678  0.7117  0.4120  0.3563
   15SAPS   H2S 1890   0.666   3.909   6.747  1.7064  3.6401 -0.5809
   15SAPS    C3 1891   0.933   3.431   6.592 -0.1666  0.0947 -0.2205
   15SAPS    HX 1892   1.022   3.468   6.535  1.5370  0.6343  2.5953
   15SAPS    HY 1893   0.927   3.332   6.542 -0.8281  0.5377 -1.0470
   15SAPS   O31 1894   0.970   3.419   6.729 -0.3010  0.3887 -0.1001
   15SAPS   C31 1895   0.906   3.316   6.784 -0.2790  0.4663 -0.2482
   15SAPS   O32 1896   0.814   3.260   6.724 -0.4563  0.6272 -0.3658
   15SAPS   C32 1897   0.958   3.281   6.920  0.0413  0.7257 -0.0598
   15SAPS   H2X 1898   1.068   3.271   6.923  0.0793  0.9235 -0.6289
   15SAPS   H2Y 1899   0.905   3.189   6.954 -0.9263  1.7135  1.2449
   15SAPS   C23 1900   0.827   3.807   6.873 -0.5875 -0.0850  0.2198
   15SAPS   H3R 1901   0.839   3.906   6.923 -0.1421  0.2889 -0.6017
   15SAPS   H3S 1902   0.929   3.769   6.850 -1.2368 -2.0914  0.4693
   15SAPS   C24 1903   0.745   3.718   6.962 -0.4563  0.2969 -0.6793
   15SAPS   H4R 1904   0.806   3.727   7.054  0.4913  0.4813 -1.3088
   15SAPS   H4S 1905   0.746   3.612   6.930 -1.4481  0.7593 -2.3525
   15SAPS   C25 1906   0.603   3.773   6.984 -0.1584  0.5275  0.0405
   15SAPS   H5R 1907   0.565   3.827   6.896 -1.4925 -0.7505 -0.1934
   15SAPS   C26 1908   0.527   3.757   7.095  0.5365  0.0983 -0.5751
   15SAPS   H6R 1909   0.419   3.773   7.089  0.6383  1.2267  0.2112
   15SAPS   C27 1910   0.576   3.680   7.215 -0.0379  1.0526 -0.1054
   15SAPS   H7R 1911   0.653   3.608   7.181  0.3218  1.8614 -1.0344
   15SAPS   H7S 1912   0.499   3.615   7.263  1.1405  1.3641  2.3377
   15SAPS   C28 1913   0.634   3.766   7.325  0.4913  0.1426  0.5064
   15SAPS   H8R 1914   0.723   3.823   7.293  0.8280 -0.0239  1.1201
   15SAPS   C29 1915   0.583   3.798   7.443 -1.1759  0.1777 -1.0286
   15SAPS   H9R 1916   0.633   3.860   7.518 -3.8712 -2.9241  3.8506
   15SAPS  C210 1917   0.458   3.739   7.505  0.1196  0.7749  0.5336
   15SAPS  H10R 1918   0.493   3.662   7.576 -2.0507 -0.4802  0.3409
   15SAPS  H10S 1919   0.397   3.687   7.428 -0.6548  0.8549  1.0795
   15SAPS  C211 1920   0.362   3.826   7.577 -0.4092  0.0911 -0.3102
   15SAPS  H11R 1921   0.289   3.879   7.513  0.0103 -0.9544 -1.7204
   15SAPS  C212 1922   0.375   3.869   7.706  0.1650 -0.6386  0.4099
   15SAPS  H12R 1923   0.304   3.947   7.737  0.4834  0.4734 -1.4599
   15SAPS  C213 1924   0.476   3.827   7.807 -0.2978 -0.7494  0.5508
   15SAPS  H13R 1925   0.577   3.830   7.760 -0.9607  1.3621 -0.8875
   15SAPS  H13S 1926   0.445   3.722   7.825 -3.3623 -0.2968 -1.3458
   15SAPS  C214 1927   0.486   3.905   7.935 -0.0036  1.4512  0.2177
   15SAPS  H14R 1928   0.564   3.981   7.944  0.0474  1.1233  3.9007
   15SAPS  C215 1929   0.414   3.876   8.052  0.2975 -0.8631  0.6804
   15SAPS  H15R 1930   0.447   3.912   8.151  1.6633 -0.5924  0.1533
   15SAPS  C216 1931   0.310   3.768   8.062  0.2770  0.1591  0.3702
   15SAPS  H16R 1932   0.336   3.685   8.131 -0.0711  0.1990  0.5528
   15SAPS  H16S 1933   0.288   3.733   7.959  1.1318  1.2458 -0.1930
   15SAPS  C217 1934   0.185   3.818   8.126  0.5974 -0.1443 -0.2206
   15SAPS  H17R 1935   0.190   3.862   8.228 -1.8505 -0.7805  0.2320
   15SAPS  H17S 1936   0.114   3.735   8.142  0.0573  0.3212 -0.1929
   15SAPS  C218 1937   0.113   3.914   8.032  0.3075 -0.4807 -0.0418
   15SAPS  H18R 1938   0.077   3.871   7.937 -0.3933 -0.6457  0.2939
   15SAPS  H18S 1939   0.183   3.992   7.995 -0.5147 -0.5448 -1.8146
   15SAPS  C219 1940  -0.004   3.988   8.096  0.1799  0.2820  0.4469
   15SAPS  H19R 1941   0.047   4.050   8.172  0.1533  0.7731  0.0689
   15SAPS  H19S 1942  -0.072   3.914   8.143  0.7397  0.1087  0.9945
   15SAPS  C220 1943  -0.068   4.067   7.992  0.3395 -0.2781  0.5338
   15SAPS  H20R 1944  -0.153   4.128   8.029 -0.6300 -1.4162  0.2279
   15SAPS  H20S 1945  -0.106   4.001   7.911 -0.1014  2.0333 -1.2614
   15SAPS  H20T 1946   0.002   4.135   7.938  0.5486 -1.0412 -0.1840
   15SAPS   C33 1947   0.926   3.396   7.018  0.0818 -0.7717  0.5006
   15SAPS   H3X 1948   0.817   3.415   7.027  0.1983  0.8184 -0.8917
   15SAPS   H3Y 1949   0.973   3.490   6.982  0.2294 -1.2467 -0.6043
   15SAPS   C34 1950   0.996   3.379   7.153  0.7760  0.0804 -0.3344
   15SAPS   H4X 1951   1.106   3.382   7.146  0.6798  0.7643 -1.8586
   15SAPS   H4Y 1952   0.966   3.276   7.182  0.2860 -0.3929 -2.3590
   15SAPS   C35 1953   0.940   3.486   7.247 -0.5717  0.1808  0.5662
   15SAPS   H5X 1954   0.833   3.462   7.264 -0.2324 -0.7465  1.5470
   15SAPS   H5Y 1955   0.957   3.577   7.186  1.6297 -2.0696 -2.5130
   15SAPS   C36 1956   1.018   3.484   7.377 -0.8469 -0.2773 -0.4924
   15SAPS   H6X 1957   1.127   3.498   7.358 -0.5027 -1.0794  0.8406
   15SAPS   H6Y 1958   1.012   3.384   7.424  1.0230 -0.7672 -1.1696
   15SAPS   C37 1959   0.965   3.592   7.478  0.6937  0.1686 -0.0871
   15SAPS   H7X 1960   0.854   3.587   7.479  0.6668  0.6591  0.5047
   15SAPS   H7Y 1961   1.012   3.688   7.447  0.2143 -0.1031 -1.7320
   15SAPS   C38 1962   1.005   3.557   7.621 -0.1164 -0.7199 -0.2798
   15SAPS   H8X 1963   1.115   3.540   7.624 -0.3091 -3.3919 -3.0120
   15SAPS   H8Y 1964   0.963   3.461   7.657  3.0761 -1.7777  0.9557
   15SAPS   C39 1965   0.971   3.659   7.727  0.0273 -0.3125 -0.2477
   15SAPS   H9X 1966   0.997   3.621   7.828  0.7419  1.7398  0.3961
   15SAPS   H9Y 1967   0.861   3.670   7.737 -0.3148 -1.8468 -1.8022
   15SAPS  C310 1968   1.019   3.800   7.706 -0.5837 -0.4613 -0.5491
   15SAPS  H10X 1969   0.985   3.839   7.607 -1.1140  1.9471  0.5020
   15SAPS  H10Y 1970   1.129   3.814   7.708 -0.6457  0.8019  3.6293
   15SAPS  C311 1971   0.962   3.902   7.816 -0.5324 -0.1686 -0.5645
   15SAPS  H11X 1972   0.863   3.862   7.850 -0.1015 -0.6435  0.1654
   15SAPS  H11Y 1973   0.931   3.999   7.773  0.8296  2.2049  3.3166
   15SAPS  C312 1974   1.075   3.943   7.923 -0.0052 -0.3572  0.1949
   15SAPS  H12X 1975   1.154   3.991   7.862 -1.6928  4.3806  1.3264
   15SAPS  H12Y 1976   1.102   3.845   7.968 -0.7563 -0.7866 -0.2451
   15SAPS  C313 1977   1.010   4.039   8.018 -0.7033 -0.2189  0.2589
   15SAPS  H13X 1978   0.940   4.107   7.965 -0.4868  0.9177  1.3919
   15SAPS  H13Y 1979   1.093   4.105   8.053 -1.5818  1.2902 -0.4212
   15SAPS  C314 1980   0.943   3.960   8.133 -0.7063  0.1826 -1.1386
   15SAPS  H14X 1981   1.014   3.883   8.170  2.0163  1.9110 -2.4187
   15SAPS  H14Y 1982   0.851   3.906   8.103 -2.4863  2.3006  0.1544
   15SAPS  C315 1983   0.911   4.061   8.247  0.6066 -0.7447  0.2634
   15SAPS  H15X 1984   0.861   4.148   8.199  0.8934  0.5719  2.1790
   15SAPS  H15Y 1985   0.994   4.117   8.296 -0.5249  0.3572  1.0061
   15SAPS  C316 1986   0.820   4.021   8.359 -0.2409  0.5893 -0.3826
   15SAPS  H16X 1987   0.784   4.114   8.407 -0.3776  0.0296  0.6442
   15SAPS  H16Y 1988   0.874   3.960   8.434 -1.2609 -2.0044 -1.6275
   15SAPS  C317 1989   0.702   3.933   8.310  0.5622  0.1504  0.6384
   15SAPS  H17X 1990   0.723   3.826   8.287 -2.5555  0.1049 -3.1304
   15SAPS  H17Y 1991   0.664   3.988   8.222 -0.8466 -2.1718 -0.3165
   15SAPS  C318 1992   0.591   3.935   8.412  0.0027  0.7752 -0.1934
   15SAPS  H18X 1993   0.568   4.038   8.446 -0.7899  0.0843  1.4570
   15SAPS  H18Y 1994   0.627   3.867   8.492 -0.0256 -1.7861 -2.2258
   15SAPS  H18Z 1995   0.499   3.887   8.374  0.1981 -0.7283  1.1576
   16SAPS     N 1996   3.804   6.718   6.401  0.0486 -0.8755 -0.6566
   16SAPS   HN1 1997   3.747   6.634   6.379 -0.1580 -1.3015  1.3284
   16SAPS   HN2 1998   3.905   6.697   6.391  1.1812  3.1833  0.6374
   16SAPS   HN3 1999   3.773   6.736   6.498  1.5163 -1.5318 -0.0436
   16SAPS   C12 2000   3.748   6.807   6.296 -0.5599 -0.4540 -0.5046
   16SAPS  H12A 2001   3.799   6.902   6.291 -0.5397 -0.4693 -0.5846
   16SAPS   C13 2002   3.754   6.733   6.149  0.7000 -0.2457 -0.2857
   16SAPS  O13A 2003   3.809   6.623   6.144 -0.5013 -0.2439 -0.1628
   16SAPS  O13B 2004   3.740   6.800   6.045  0.1889  0.4343  0.6581
   16SAPS   C11 2005   3.604   6.837   6.336  0.0802 -0.2161 -0.4951
   16SAPS  H11A 2006   3.551   6.744   6.364  2.1126 -1.2480  0.1106
   16SAPS  H11B 2007   3.555   6.890   6.252  0.3202 -0.6909 -0.9374
   16SAPS     P 2008   3.467   6.992   6.506  0.5083 -0.0615  0.0203
   16SAPS   O13 2009   3.502   7.132   6.533 -0.2934 -0.1577  0.0207
   16SAPS   O14 2010   3.347   6.968   6.423 -0.0791 -0.2734  0.5454
   16SAPS   O12 2011   3.603   6.915   6.448  0.8095 -0.0483 -0.2320
   16SAPS   O11 2012   3.444   6.924   6.647 -0.4949 -0.1726 -0.4984
   16SAPS    C1 2013   3.323   6.909   6.718 -0.0111  0.1420 -0.1903
   16SAPS    HA 2014   3.238   6.902   6.647 -0.3102 -1.3562  0.2977
   16SAPS    HB 2015   3.317   6.808   6.762 -1.0163  1.1924  2.2842
   16SAPS    C2 2016   3.304   7.017   6.833 -0.2753  0.0898  1.1440
   16SAPS    HS 2017   3.320   7.113   6.780 -1.0396  0.6051  1.8227
   16SAPS   O21 2018   3.404   7.002   6.940 -0.3172  0.3169  0.1599
   16SAPS   C21 2019   3.446   7.127   6.989  0.5437 -0.0007  0.0151
   16SAPS   O22 2020   3.416   7.235   6.945 -0.6095  0.3983  0.0717
   16SAPS   C22 2021   3.542   7.097   7.102  0.0334 -0.6683  0.3138
   16SAPS   H2R 2022   3.640   7.078   7.053 -0.5475 -0.7237 -0.8727
   16SAPS   H2S 2023   3.552   7.193   7.157  0.1603 -0.7940  0.5113
   16SAPS    C3 2024   3.160   7.009   6.888  0.6306  0.0805  0.5233
   16SAPS    HX 2025   3.140   6.901   6.904  0.2310 -0.0991 -0.9732
   16SAPS    HY 2026   3.091   7.045   6.809  1.9469 -0.2173 -0.8086
   16SAPS   O31 2027   3.149   7.090   7.009  0.3638  0.7628 -0.0298
   16SAPS   C31 2028   3.105   7.205   6.996  0.0249  0.7420  0.0802
   16SAPS   O32 2029   3.042   7.248   6.897  0.7190  0.5572  0.2685
   16SAPS   C32 2030   3.119   7.284   7.126 -0.0942 -0.3227  0.0358
   16SAPS   H2X 2031   3.017   7.288   7.169  0.3612 -0.5645  1.1824
   16SAPS   H2Y 2032   3.159   7.387   7.111 -0.5528 -0.4254 -2.3992
   16SAPS   C23 2033   3.489   6.992   7.199  0.4545  0.0669 -0.0841
   16SAPS   H3R 2034   3.451   6.903   7.145 -3.4909  0.1216  2.2390
   16SAPS   H3S 2035   3.399   7.030   7.251 -0.1608 -2.2003  0.6166
   16SAPS   C24 2036   3.582   6.937   7.310 -0.1377  0.1927 -0.4276
   16SAPS   H4R 2037   3.682   6.913   7.270  0.9764  1.2729  1.5385
   16SAPS   H4S 2038   3.528   6.847   7.346 -1.2877  0.2805 -1.8466
   16SAPS   C25 2039   3.605   7.031   7.424  0.2218  0.2929 -1.1158
   16SAPS   H5R 2040   3.665   7.112   7.382  1.4985  0.1905  0.4028
   16SAPS   C26 2041   3.587   7.024   7.557 -0.3815 -0.3770  0.6789
   16SAPS   H6R 2042   3.617   7.112   7.616  0.2698 -0.4279  0.4321
   16SAPS   C27 2043   3.517   6.915   7.633  0.0566  0.1617 -0.6459
   16SAPS   H7R 2044   3.599   6.869   7.693  1.0680  2.1531 -0.3977
   16SAPS   H7S 2045   3.468   6.847   7.560 -0.1631  0.9496 -1.2366
   16SAPS   C28 2046   3.412   6.975   7.724 -0.0208 -0.4099  0.1433
   16SAPS   H8R 2047   3.319   7.012   7.678 -0.4597  2.2354  2.8819
   16SAPS   C29 2048   3.418   6.983   7.860  0.5096 -0.4632 -0.0502
   16SAPS   H9R 2049   3.327   7.004   7.919  0.9679 -0.7843  0.7859
   16SAPS  C210 2050   3.533   6.932   7.950 -0.1615 -0.1143  0.3510
   16SAPS  H10R 2051   3.603   6.861   7.900  1.3427  1.7150 -0.2645
   16SAPS  H10S 2052   3.482   6.879   8.033 -3.8351 -1.8391 -2.7038
   16SAPS  C211 2053   3.616   7.054   7.985  0.3872  0.2183 -0.5440
   16SAPS  H11R 2054   3.638   7.112   7.894 -0.6413  1.5796  0.0499
   16SAPS  C212 2055   3.658   7.081   8.105  0.2434 -0.3514  0.7577
   16SAPS  H12R 2056   3.728   7.164   8.122 -0.5211  0.6446 -0.7530
   16SAPS  C213 2057   3.641   7.007   8.235  0.0724  0.2971  0.5652
   16SAPS  H13R 2058   3.565   6.925   8.230 -0.5233  0.8576  0.3148
   16SAPS  H13S 2059   3.593   7.082   8.302  1.1119  2.2800 -0.8276
   16SAPS  C214 2060   3.768   6.971   8.308 -0.2466  0.0977  1.1927
   16SAPS  H14R 2061   3.835   7.054   8.334  0.4077 -0.5018  1.4768
   16SAPS  C215 2062   3.807   6.854   8.360  0.2810 -0.0492  0.0202
   16SAPS  H15R 2063   3.904   6.860   8.413  0.5466  3.5381 -0.5833
   16SAPS  C216 2064   3.732   6.725   8.350  0.1884  0.3659 -0.1883
   16SAPS  H16R 2065   3.649   6.746   8.280 -1.1772  2.1951  1.8386
   16SAPS  H16S 2066   3.683   6.710   8.449  0.0506  0.1228 -0.2937
   16SAPS  C217 2067   3.805   6.597   8.297  0.0919 -0.0801 -0.2209
   16SAPS  H17R 2068   3.832   6.536   8.385  0.1543  2.3889  1.5851
   16SAPS  H17S 2069   3.899   6.630   8.249  0.5670 -2.2309 -0.8852
   16SAPS  C218 2070   3.716   6.513   8.211 -0.4034 -0.0564 -0.2233
   16SAPS  H18R 2071   3.707   6.569   8.115  0.0529  0.8990  0.2749
   16SAPS  H18S 2072   3.615   6.512   8.256 -0.9931  1.2522 -1.4381
   16SAPS  C219 2073   3.770   6.369   8.188 -0.0207 -1.0089 -0.2150
   16SAPS  H19R 2074   3.767   6.327   8.291 -1.6244 -0.3944  0.0172
   16SAPS  H19S 2075   3.874   6.368   8.148 -0.5419  0.5908 -1.7203
   16SAPS  C220 2076   3.685   6.289   8.093 -0.0896  0.4744 -1.0223
   16SAPS  H20R 2077   3.692   6.333   7.991 -1.0134  2.0051 -0.4624
   16SAPS  H20S 2078   3.580   6.283   8.128  0.1808  0.7181 -0.1450
   16SAPS  H20T 2079   3.721   6.184   8.099  2.0961  1.2635  1.7867
   16SAPS   C33 2080   3.205   7.220   7.243 -0.6169 -0.0930 -0.9198
   16SAPS   H3X 2081   3.315   7.228   7.230 -0.5610  0.0719 -0.3875
   16SAPS   H3Y 2082   3.188   7.112   7.263  1.0352 -0.2486 -0.1435
   16SAPS   C34 2083   3.181   7.285   7.373 -0.2332 -1.3072  0.0787
   16SAPS   H4X 2084   3.075   7.315   7.381 -0.0699 -0.7125  0.0648
   16SAPS   H4Y 2085   3.243   7.378   7.371 -1.4811 -0.4178 -3.5057
   16SAPS   C35 2086   3.219   7.195   7.485  0.5248 -0.9982  0.1393
   16SAPS   H5X 2087   3.329   7.185   7.499  0.4455 -0.1434  1.5994
   16SAPS   H5Y 2088   3.165   7.100   7.465  0.6098 -0.6250 -2.0778
   16SAPS   C36 2089   3.167   7.245   7.629  0.7026  0.4256  0.4519
   16SAPS   H6X 2090   3.188   7.160   7.697 -2.3970 -2.1836 -1.5717
   16SAPS   H6Y 2091   3.056   7.253   7.630  0.7408  1.9001 -1.4972
   16SAPS   C37 2092   3.229   7.379   7.669 -0.2257 -0.1890  0.1435
   16SAPS   H7X 2093   3.195   7.458   7.597 -0.2299 -0.8536 -0.5945
   16SAPS   H7Y 2094   3.339   7.378   7.657 -0.1735 -0.0145  0.5952
   16SAPS   C38 2095   3.200   7.407   7.813 -0.1813 -0.1786 -0.1794
   16SAPS   H8X 2096   3.095   7.376   7.832 -0.1708 -0.1319 -0.0470
   16SAPS   H8Y 2097   3.211   7.517   7.825 -1.5629 -0.2438  2.3912
   16SAPS   C39 2098   3.291   7.349   7.921  0.0301  0.6777 -0.5395
   16SAPS   H9X 2099   3.387   7.402   7.904 -0.8450  2.6740  0.3995
   16SAPS   H9Y 2100   3.297   7.238   7.911 -0.3454  0.2213  2.9933
   16SAPS  C310 2101   3.261   7.389   8.058  0.4564 -1.1712 -0.1415
   16SAPS  H10X 2102   3.159   7.349   8.077 -0.5203  0.6717 -1.2645
   16SAPS  H10Y 2103   3.266   7.500   8.069  0.6183 -1.1543 -0.3930
   16SAPS  C311 2104   3.357   7.328   8.154  0.5094 -0.0932 -0.0541
   16SAPS  H11X 2105   3.459   7.358   8.123 -0.3723  0.8425 -2.2804
   16SAPS  H11Y 2106   3.371   7.218   8.148  2.5386  0.1612 -0.8115
   16SAPS  C312 2107   3.336   7.366   8.300 -0.0698  0.2664  0.2354
   16SAPS  H12X 2108   3.237   7.322   8.326 -0.7247  1.3437 -0.3709
   16SAPS  H12Y 2109   3.346   7.476   8.316  2.6176  0.4646 -2.0110
   16SAPS  C313 2110   3.439   7.297   8.394  0.6827  0.1661  0.4725
   16SAPS  H13X 2111   3.548   7.317   8.384  0.6848 -0.0999 -0.0758
   16SAPS  H13Y 2112   3.440   7.188   8.372  0.3232  0.3507 -0.5269
   16SAPS  C314 2113   3.412   7.321   8.548 -1.2014 -0.6083  0.4970
   16SAPS  H14X 2114   3.305   7.294   8.557 -1.3085 -0.6002 -0.6540
   16SAPS  H14Y 2115   3.402   7.430   8.562 -0.4013 -0.6752  1.7664
   16SAPS  C315 2116   3.503   7.247   8.651 -0.3247 -0.3019 -0.0129
   16SAPS  H15X 2117   3.507   7.139   8.626 -0.5594 -0.4644  0.6207
   16SAPS  H15Y 2118   3.446   7.246   8.746 -0.3328 -2.1098 -0.0036
   16SAPS  C316 2119   3.645   7.309   8.668  0.7013 -0.2582  0.0417
   16SAPS  H16X 2120   3.641   7.417   8.692  2.7343 -0.1436  0.0293
   16SAPS  H16Y 2121   3.689   7.299   8.566 -3.1789 -1.6556 -1.6753
   16SAPS  C317 2122   3.739   7.244   8.769 -0.1664  0.4701 -0.9977
   16SAPS  H17X 2123   3.672   7.232   8.857  1.9619  1.1285  0.8304
   16SAPS  H17Y 2124   3.821   7.315   8.795 -0.9950  0.6209  1.5505
   16SAPS  C318 2125   3.789   7.102   8.736 -0.8836  0.3109  0.2655
   16SAPS  H18X 2126   3.858   7.063   8.814  0.7271  1.8252 -0.3441
   16SAPS  H18Y 2127   3.847   7.097   8.642  0.2073  0.4596  0.9148
   16SAPS  H18Z 2128   3.703   7.035   8.717  1.0643 -1.7386 -1.9762
   17SAPC     N 2129   6.258   4.494  10.764  0.0972  0.6107  0.1031
   17SAPC   C12 2130   6.173   4.502  10.639  0.4987 -0.4343  1.1864
   17SAPC  H12A 2131   6.117   4.592  10.659  1.0820  0.3886 -0.7128
   17SAPC  H12B 2132   6.109   4.416  10.626  0.6452 -0.1923 -1.8066
   17SAPC   C13 2133   6.328   4.621  10.786 -0.1718  0.1280 -0.0278
   17SAPC  H13A 2134   6.265   4.706  10.809  1.3083  1.0042  0.9552
   17SAPC  H13B 2135   6.418   4.618  10.846  0.0991 -1.2107 -0.4642
   17SAPC  H13C 2136   6.378   4.650  10.695  0.2925 -0.7673 -0.0666
   17SAPC   C14 2137   6.175   4.452  10.880  0.1578  0.9191  0.1062
   17SAPC  H14A 2138   6.223   4.427  10.973  0.5261  1.4407  0.0623
   17SAPC  H14B 2139   6.101   4.525  10.909  1.1575  1.8195  0.4489
   17SAPC  H14C 2140   6.106   4.371  10.864 -1.1911  1.2852  3.2627
   17SAPC   C15 2141   6.357   4.387  10.740 -0.0241 -0.1728  0.6312
   17SAPC  H15A 2142   6.402   4.409  10.645 -1.4026  0.1097  0.0329
   17SAPC  H15B 2143   6.426   4.389  10.824  0.1961 -1.0040  0.4836
   17SAPC  H15C 2144   6.309   4.290  10.733  0.4964 -0.6795  2.9648
   17SAPC   C11 2145   6.241   4.532  10.496 -0.0075 -0.0998 -0.5025
   17SAPC  H11A 2146   6.164   4.542  10.416 -1.3998 -0.4629  0.7490
   17SAPC  H11B 2147   6.314   4.451  10.472  0.3345 -0.0328  0.3036
   17SAPC     P 2148   6.298   4.775  10.416 -0.0697 -0.0500  0.4968
   17SAPC   O13 2149   6.152   4.797  10.421  0.5850  0.3582  0.1616
   17SAPC   O14 2150   6.387   4.878  10.478  0.3644  0.6231 -0.2920
   17SAPC   O12 2151   6.320   4.651  10.492 -0.1456  0.3411 -0.2730
   17SAPC   O11 2152   6.345   4.751  10.270 -0.0000  0.9483 -0.0822
   17SAPC    C1 2153   6.477   4.725  10.231 -0.4000  0.1651  0.6583
   17SAPC    HA 2154   6.540   4.802  10.279 -1.4416  0.7605  1.0907
   17SAPC    HB 2155   6.494   4.624  10.275 -3.0597  0.2995  2.2254
   17SAPC    C2 2156   6.497   4.727  10.073  0.0684 -0.4480 -0.5608
   17SAPC    HS 2157   6.599   4.691  10.053  0.9283  1.2557  0.4993
   17SAPC   O21 2158   6.461   4.861  10.026  0.4008  0.7974 -0.3425
   17SAPC   C21 2159   6.569   4.932  10.000  0.4091  0.0424  0.2328
   17SAPC   O22 2160   6.683   4.897  10.021 -0.0285  0.5357 -0.5322
   17SAPC   C22 2161   6.529   5.083   9.970  0.1850  0.2853  0.6798
   17SAPC   H2R 2162   6.479   5.084   9.871  1.1556  0.4037  0.1693
   17SAPC   H2S 2163   6.456   5.115  10.047  0.0913 -1.7192  1.4985
   17SAPC    C3 2164   6.399   4.628  10.007  0.5604 -0.3963 -0.8704
   17SAPC    HX 2165   6.297   4.661  10.035  1.4253  0.8717  0.9630
   17SAPC    HY 2166   6.415   4.534  10.064  2.1167  1.0306  1.2079
   17SAPC   O31 2167   6.427   4.611   9.868  0.5440  0.1694  0.4967
   17SAPC   C31 2168   6.360   4.691   9.790 -0.7589  0.3762  0.3340
   17SAPC   O32 2169   6.283   4.779   9.823  0.3317 -0.2061  0.1603
   17SAPC   C32 2170   6.391   4.654   9.643  0.7068 -0.2007  0.2218
   17SAPC   H2X 2171   6.322   4.571   9.618  1.3487 -0.3794 -1.0478
   17SAPC   H2Y 2172   6.492   4.608   9.646  0.4222 -0.8069  2.9660
   17SAPC   C23 2173   6.646   5.180   9.979 -0.2349 -0.4684  0.3593
   17SAPC   H3R 2174   6.741   5.141   9.938 -0.2603  1.6658 -1.9725
   17SAPC   H3S 2175   6.666   5.214  10.083  0.7967  0.1658 -0.0319
   17SAPC   C24 2176   6.610   5.313   9.908  0.5462 -0.4807 -0.1757
   17SAPC   H4R 2177   6.520   5.355   9.960  0.5847 -1.2293  0.5183
   17SAPC   H4S 2178   6.606   5.302   9.798 -1.7101 -2.9482  0.0484
   17SAPC   C25 2179   6.716   5.409   9.940  0.0900 -0.2435 -0.0259
   17SAPC   H5R 2180   6.807   5.369   9.987  2.2294  2.4278 -1.5688
   17SAPC   C26 2181   6.723   5.541   9.903  0.0811  0.6123  0.0847
   17SAPC   H6R 2182   6.805   5.598   9.949  0.2491 -0.3993  1.0847
   17SAPC   C27 2183   6.615   5.610   9.824  0.0088  0.3225 -0.1076
   17SAPC   H7R 2184   6.517   5.581   9.869 -0.9127  0.6555 -1.8230
   17SAPC   H7S 2185   6.614   5.556   9.727  1.5224  0.4154 -0.1996
   17SAPC   C28 2186   6.616   5.760   9.810  0.1562 -0.1583  0.0834
   17SAPC   H8R 2187   6.648   5.803   9.906  1.8948 -1.5393  0.1803
   17SAPC   C29 2188   6.604   5.847   9.706  0.1221  0.1661  0.8257
   17SAPC   H9R 2189   6.588   5.954   9.726 -2.2629  0.5576 -2.3763
   17SAPC  C210 2190   6.577   5.806   9.561  0.0807  0.1985 -0.1854
   17SAPC  H10R 2191   6.481   5.858   9.544  0.0734  1.6488  3.3098
   17SAPC  H10S 2192   6.568   5.696   9.548 -0.8487 -0.3703  3.8497
   17SAPC  C211 2193   6.683   5.862   9.473  0.4148 -0.3915 -0.1374
   17SAPC  H11R 2194   6.708   5.967   9.498 -0.2267  0.2528 -2.0331
   17SAPC  C212 2195   6.745   5.805   9.375 -0.0772  0.3260 -0.0954
   17SAPC  H12R 2196   6.822   5.869   9.330 -0.3220  1.8114  1.4724
   17SAPC  C213 2197   6.732   5.669   9.315 -0.8212  0.1759 -0.4873
   17SAPC  H13R 2198   6.645   5.660   9.246 -0.6884  0.8713 -0.7551
   17SAPC  H13S 2199   6.699   5.602   9.396 -0.7769  0.3666 -0.3106
   17SAPC  C214 2200   6.860   5.626   9.248 -0.4539 -0.0442  0.0118
   17SAPC  H14R 2201   6.950   5.671   9.293 -2.3061  0.9840  3.0396
   17SAPC  C215 2202   6.863   5.535   9.151 -0.8124 -0.1026  0.3053
   17SAPC  H15R 2203   6.966   5.513   9.117 -1.4943 -1.9704 -0.6828
   17SAPC  C216 2204   6.747   5.458   9.088 -0.2113  0.4490  0.0941
   17SAPC  H16R 2205   6.653   5.477   9.144  0.9421  1.5401  1.7492
   17SAPC  H16S 2206   6.773   5.350   9.093  0.3019  0.5898  0.4793
   17SAPC  C217 2207   6.720   5.486   8.941  1.2572 -0.1805  0.0249
   17SAPC  H17R 2208   6.654   5.404   8.907  0.8441 -0.9141  2.4413
   17SAPC  H17S 2209   6.811   5.484   8.877 -0.1228 -0.4806 -2.0291
   17SAPC  C218 2210   6.650   5.619   8.916 -0.0149  0.5446  0.8870
   17SAPC  H18R 2211   6.723   5.701   8.931 -1.1841  1.4608  1.7299
   17SAPC  H18S 2212   6.569   5.629   8.991 -0.3579  1.4119  0.4205
   17SAPC  C219 2213   6.581   5.639   8.783  0.2185 -0.5749 -0.6763
   17SAPC  H19R 2214   6.652   5.599   8.706  0.6068  0.0398 -0.6441
   17SAPC  H19S 2215   6.567   5.745   8.753 -0.2340 -0.8264 -1.3860
   17SAPC  C220 2216   6.445   5.575   8.770 -0.6749 -0.3809 -0.1091
   17SAPC  H20R 2217   6.420   5.538   8.668 -0.9744  0.3760 -0.3235
   17SAPC  H20S 2218   6.370   5.649   8.805 -0.5870 -0.9897  1.4399
   17SAPC  H20T 2219   6.428   5.490   8.839  1.7151  0.7511  1.9945
   17SAPC   C33 2220   6.374   4.778   9.557  0.0362 -0.4189  0.0015
   17SAPC   H3X 2221   6.442   4.854   9.602 -1.0672  0.6214 -0.0357
   17SAPC   H3Y 2222   6.274   4.826   9.565 -0.3057 -1.1165 -0.0599
   17SAPC   C34 2223   6.392   4.755   9.409 -0.3312 -0.4419  0.3657
   17SAPC   H4X 2224   6.469   4.679   9.382 -1.0150 -1.1305  0.3308
   17SAPC   H4Y 2225   6.422   4.850   9.360 -1.4671  0.0774  0.6486
   17SAPC   C35 2226   6.260   4.706   9.349  0.6393  0.1700  0.7036
   17SAPC   H5X 2227   6.176   4.777   9.363  0.7039  0.5259 -0.5929
   17SAPC   H5Y 2228   6.245   4.606   9.395 -0.1482  0.0165  0.1323
   17SAPC   C36 2229   6.264   4.678   9.192 -0.7733 -0.1394 -0.3644
   17SAPC   H6X 2230   6.336   4.594   9.174 -0.2553 -0.4228  2.6162
   17SAPC   H6Y 2231   6.295   4.771   9.140 -0.8275 -0.2222 -0.5468
   17SAPC   C37 2232   6.130   4.630   9.142  0.9016 -0.3860  0.6586
   17SAPC   H7X 2233   6.045   4.695   9.171  0.4911 -0.6419  0.0578
   17SAPC   H7Y 2234   6.109   4.534   9.193 -2.4444  0.3719  0.9433
   17SAPC   C38 2235   6.147   4.599   8.995 -0.0516  0.4468  0.5011
   17SAPC   H8X 2236   6.244   4.551   8.973 -0.9224 -0.7874 -0.8859
   17SAPC   H8Y 2237   6.144   4.693   8.936  1.9483  0.8349  0.9521
   17SAPC   C39 2238   6.029   4.503   8.944  0.2345 -0.5391 -0.0105
   17SAPC   H9X 2239   6.056   4.472   8.841 -1.4066 -0.4285 -0.5133
   17SAPC   H9Y 2240   5.930   4.548   8.922  0.9635  0.6330 -1.0218
   17SAPC  C310 2241   6.011   4.379   9.031  0.6050 -0.0448 -0.1877
   17SAPC  H10X 2242   5.947   4.397   9.120 -1.6729 -0.1759 -1.7084
   17SAPC  H10Y 2243   6.112   4.355   9.071  0.2639  0.0513  0.7362
   17SAPC  C311 2244   5.965   4.264   8.941 -0.3087 -0.3421 -0.7965
   17SAPC  H11X 2245   6.034   4.250   8.855 -1.6899 -0.3008 -1.9486
   17SAPC  H11Y 2246   5.873   4.274   8.879 -1.1520 -0.8537  0.3372
   17SAPC  C312 2247   5.961   4.128   9.017 -1.1474  0.5554  0.0167
   17SAPC  H12X 2248   5.928   4.048   8.948  0.7269 -0.7519  0.5669
   17SAPC  H12Y 2249   5.898   4.136   9.108  0.9543  1.4582  1.4837
   17SAPC  C313 2250   6.105   4.100   9.074  0.5867 -0.2837 -0.2271
   17SAPC  H13X 2251   6.142   4.162   9.158 -0.6194 -0.3065  0.3371
   17SAPC  H13Y 2252   6.168   4.101   8.982 -1.4195  0.3056 -1.6546
   17SAPC  C314 2253   6.096   3.961   9.119  0.1667 -0.2666 -0.6685
   17SAPC  H14X 2254   6.192   3.909   9.140 -1.1154 -1.6355  2.4235
   17SAPC  H14Y 2255   6.042   3.896   9.047  0.2399  2.0777 -2.9668
   17SAPC  C315 2256   6.018   3.932   9.253 -0.1678  0.6615  0.1426
   17SAPC  H15X 2257   5.999   3.824   9.270  1.0730  0.6616  1.8619
   17SAPC  H15Y 2258   5.918   3.981   9.250 -0.2607  0.4377 -0.3991
   17SAPC  C316 2259   6.104   3.971   9.376  0.1037  0.2906  0.4258
   17SAPC  H16X 2260   6.114   4.079   9.401  0.5759 -0.2840  3.1215
   17SAPC  H16Y 2261   6.206   3.927   9.366 -0.3657 -0.9907  0.9589
   17SAPC  C317 2262   6.038   3.903   9.499 -0.5596 -0.2830  0.1852
   17SAPC  H17X 2263   6.085   3.943   9.592 -0.2343  1.6953 -0.7896
   17SAPC  H17Y 2264   6.043   3.792   9.499  1.4578 -0.2449  0.3482
   17SAPC  C318 2265   5.893   3.954   9.529  0.0420 -0.6271  0.6493
   17SAPC  H18X 2266   5.885   4.063   9.510  0.5711 -0.3165  2.0811
   17SAPC  H18Y 2267   5.822   3.901   9.461  1.3092 -0.0585 -1.1795
   17SAPC  H18Z 2268   5.863   3.947   9.636 -0.0782 -2.0064  0.5519
   18SAPC     N 2269   5.137   2.129  10.514  0.4914  0.4235  0.7511
   18SAPC   C12 2270   5.239   2.218  10.565  0.2578  0.9461  0.0828
   18SAPC  H12A 2271   5.335   2.201  10.517 -0.3648 -1.4231 -0.4611
   18SAPC  H12B 2272   5.254   2.213  10.672 -0.8268  2.4467  0.3447
   18SAPC   C13 2273   5.107   2.161  10.371 -0.1233 -0.0373  0.1851
   18SAPC  H13A 2274   5.115   2.268  10.358  1.4923  0.0027  1.2598
   18SAPC  H13B 2275   5.186   2.122  10.310 -0.5282 -0.6223  0.0227
   18SAPC  H13C 2276   5.017   2.114  10.332  0.3610 -0.0010 -0.9873
   18SAPC   C14 2277   5.181   1.984  10.538  0.7542  0.2567  0.3129
   18SAPC  H14A 2278   5.275   1.966  10.489  0.6926  2.0877 -0.5732
   18SAPC  H14B 2279   5.196   1.960  10.642  2.3533  0.8706  0.2525
   18SAPC  H14C 2280   5.107   1.912  10.503 -0.0889  1.4425 -0.4379
   18SAPC   C15 2281   5.005   2.149  10.589 -0.1228 -0.1824 -0.3247
   18SAPC  H15A 2282   4.924   2.089  10.549 -1.7698  0.4541  1.8785
   18SAPC  H15B 2283   5.016   2.129  10.694 -0.6338 -1.7382 -0.5300
   18SAPC  H15C 2284   4.963   2.247  10.575 -0.9085 -0.2920  1.0700
   18SAPC   C11 2285   5.210   2.376  10.547  0.2621  0.3246 -0.6481
   18SAPC  H11A 2286   5.109   2.405  10.584 -0.0095  1.0865 -1.8995
   18SAPC  H11B 2287   5.209   2.415  10.442 -1.1987  2.9663  0.2636
   18SAPC     P 2288   5.461   2.463  10.561  0.3166  0.1209  0.2894
   18SAPC   O13 2289   5.513   2.592  10.621 -0.3609  0.4413 -0.3759
   18SAPC   O14 2290   5.541   2.343  10.585  0.0837 -0.2664 -0.0535
   18SAPC   O12 2291   5.318   2.437  10.621 -0.1274  0.4185 -0.0125
   18SAPC   O11 2292   5.436   2.487  10.405 -0.2726 -0.2322 -0.3998
   18SAPC    C1 2293   5.476   2.398  10.305 -0.8300 -0.8029 -0.0932
   18SAPC    HA 2294   5.586   2.402  10.291 -0.9275 -0.8945 -0.9095
   18SAPC    HB 2295   5.453   2.294  10.338 -1.9357 -1.5941 -3.0136
   18SAPC    C2 2296   5.411   2.422  10.165 -0.0031  0.1770  0.4790
   18SAPC    HS 2297   5.302   2.405  10.175 -0.1083 -0.5736 -1.5753
   18SAPC   O21 2298   5.469   2.324  10.076  0.5083 -0.0857 -0.5088
   18SAPC   C21 2299   5.413   2.203  10.086 -0.4264  0.8380  0.0288
   18SAPC   O22 2300   5.318   2.173  10.157  0.6344  0.7756 -0.1814
   18SAPC   C22 2301   5.505   2.108  10.019 -0.2071  0.7543  0.3944
   18SAPC   H2R 2302   5.577   2.165   9.955 -0.3208 -0.7939 -1.2063
   18SAPC   H2S 2303   5.563   2.062  10.102 -2.3016 -1.0769  0.9262
   18SAPC    C3 2304   5.440   2.565  10.111  0.3061  0.5941  0.0095
   18SAPC    HX 2305   5.550   2.565  10.092  0.4875 -1.8653  0.7006
   18SAPC    HY 2306   5.420   2.624  10.203  0.5438  1.5772 -0.5642
   18SAPC   O31 2307   5.362   2.592   9.994 -0.3582  0.2430 -0.2535
   18SAPC   C31 2308   5.366   2.723   9.960 -0.7684  0.7539  0.9053
   18SAPC   O32 2309   5.435   2.800  10.027 -0.1498 -0.5325  0.3240
   18SAPC   C32 2310   5.280   2.746   9.837  0.0260  0.3556 -0.7332
   18SAPC   H2X 2311   5.174   2.727   9.862  0.6983 -1.7974  0.8107
   18SAPC   H2Y 2312   5.315   2.667   9.767 -0.2604 -1.3071  0.9297
   18SAPC   C23 2313   5.442   1.993   9.935  0.2022  0.1125  0.2763
   18SAPC   H3R 2314   5.423   2.050   9.841  1.8408  1.3266  0.6417
   18SAPC   H3S 2315   5.349   1.961   9.987 -0.4179  1.1724 -0.1282
   18SAPC   C24 2316   5.543   1.886   9.891  0.8970 -0.3031 -0.4520
   18SAPC   H4R 2317   5.482   1.804   9.847 -0.0969  1.6566 -2.9117
   18SAPC   H4S 2318   5.596   1.846   9.981  0.5430  3.5158  1.6814
   18SAPC   C25 2319   5.653   1.942   9.801  0.9555  0.3477  0.0640
   18SAPC   H5R 2320   5.722   2.011   9.851 -1.6517  1.8609  1.8337
   18SAPC   C26 2321   5.656   1.934   9.667  0.2912  0.5298  0.3954
   18SAPC   H6R 2322   5.741   1.982   9.617  0.9269  0.8856  1.7832
   18SAPC   C27 2323   5.568   1.857   9.573 -0.3855  0.3428  0.3790
   18SAPC   H7R 2324   5.523   1.772   9.629 -1.5647 -0.7915 -2.1209
   18SAPC   H7S 2325   5.634   1.811   9.496  0.2323  1.1774  0.3865
   18SAPC   C28 2326   5.460   1.939   9.505  0.6098 -0.1035  0.1131
   18SAPC   H8R 2327   5.379   1.979   9.568  0.7872  2.2028 -1.0026
   18SAPC   C29 2328   5.457   1.978   9.372 -0.2527  0.0497 -0.6770
   18SAPC   H9R 2329   5.368   2.034   9.338 -2.3143 -2.4169  0.3438
   18SAPC  C210 2330   5.559   1.962   9.263  0.3471 -0.3671 -0.3721
   18SAPC  H10R 2331   5.550   1.861   9.218 -0.4784 -0.1850 -0.6405
   18SAPC  H10S 2332   5.660   1.959   9.310  0.5757 -0.8688 -0.8822
   18SAPC  C211 2333   5.535   2.078   9.164 -0.0241  0.7693 -0.1377
   18SAPC  H11R 2334   5.441   2.135   9.171 -0.3340  0.3095 -0.4797
   18SAPC  C212 2335   5.616   2.116   9.062 -0.0912 -0.0865  0.9548
   18SAPC  H12R 2336   5.580   2.193   8.992 -3.1455 -1.1164  1.2436
   18SAPC  C213 2337   5.742   2.058   9.012  0.1008 -0.4082  0.2004
   18SAPC  H13R 2338   5.793   2.035   9.108 -1.3794 -0.5767  0.9768
   18SAPC  H13S 2339   5.803   2.142   8.974 -0.7052  0.5637  1.0159
   18SAPC  C214 2340   5.726   1.956   8.901  0.2525  0.5250  0.0414
   18SAPC  H14R 2341   5.760   1.853   8.920 -1.5235  0.5013  4.2050
   18SAPC  C215 2342   5.691   1.981   8.775 -0.2760 -0.3507  0.2203
   18SAPC  H15R 2343   5.716   1.901   8.705  0.7923 -0.9616  1.2631
   18SAPC  C216 2344   5.667   2.125   8.722 -0.4494  0.1566  0.2256
   18SAPC  H16R 2345   5.680   2.205   8.798  1.8828 -2.2008  2.5462
   18SAPC  H16S 2346   5.559   2.132   8.699  0.0925 -1.1274 -3.3900
   18SAPC  C217 2347   5.749   2.151   8.589  0.6976 -0.4489  0.3602
   18SAPC  H17R 2348   5.748   2.259   8.563 -1.2400 -0.4586  0.2005
   18SAPC  H17S 2349   5.715   2.095   8.499 -1.0025  0.2892  0.5019
   18SAPC  C218 2350   5.892   2.103   8.591 -0.9469 -0.7967 -0.6865
   18SAPC  H18R 2351   5.936   2.127   8.492  0.1116 -0.0640 -0.0645
   18SAPC  H18S 2352   5.899   1.992   8.593  1.9502 -0.7694 -2.6441
   18SAPC  C219 2353   5.985   2.181   8.697  1.2573 -0.5944  0.1878
   18SAPC  H19R 2354   6.089   2.144   8.687  0.6221 -2.0680 -1.7573
   18SAPC  H19S 2355   5.945   2.149   8.795 -0.2510 -0.2299 -0.2763
   18SAPC  C220 2356   5.988   2.335   8.696  0.6575 -0.0566  0.5246
   18SAPC  H20R 2357   5.992   2.372   8.592 -2.6349  0.3115  0.4247
   18SAPC  H20S 2358   6.066   2.385   8.758 -0.1425 -0.0357  1.5488
   18SAPC  H20T 2359   5.888   2.368   8.732  0.2646 -1.2601  0.5779
   18SAPC   C33 2360   5.307   2.879   9.757 -0.8986 -1.1274  0.1932
   18SAPC   H3X 2361   5.270   2.968   9.813 -0.0541 -0.2621 -0.5796
   18SAPC   H3Y 2362   5.256   2.874   9.658 -2.4326  0.9571  0.8008
   18SAPC   C34 2363   5.449   2.910   9.708  0.2698  0.4425 -0.1670
   18SAPC   H4X 2364   5.522   2.924   9.792  1.7013  0.7039 -1.4033
   18SAPC   H4Y 2365   5.439   3.006   9.653 -1.2378 -0.9778 -2.5006
   18SAPC   C35 2366   5.501   2.797   9.617  0.0812 -0.6929 -0.3192
   18SAPC   H5X 2367   5.411   2.768   9.558 -3.4551  1.9501  3.1753
   18SAPC   H5Y 2368   5.520   2.713   9.687 -1.4755 -0.3920  0.5069
   18SAPC   C36 2369   5.619   2.840   9.528  0.5135 -0.5062 -0.1780
   18SAPC   H6X 2370   5.658   2.751   9.475  2.1914  0.1416 -0.1049
   18SAPC   H6Y 2371   5.705   2.885   9.582  1.4219 -1.5424 -0.7095
   18SAPC   C37 2372   5.578   2.932   9.412 -0.2455 -0.2452 -0.1096
   18SAPC   H7X 2373   5.674   2.948   9.358  0.5973 -2.6269  0.5551
   18SAPC   H7Y 2374   5.543   3.030   9.449  0.4212 -0.0914  0.1275
   18SAPC   C38 2375   5.482   2.871   9.320  0.3845 -0.1652  0.5449
   18SAPC   H8X 2376   5.379   2.874   9.363  0.3657 -2.2706  0.7744
   18SAPC   H8Y 2377   5.500   2.762   9.312  1.0378  0.0181 -0.5561
   18SAPC   C39 2378   5.481   2.926   9.174  0.0419  0.1609 -0.1452
   18SAPC   H9X 2379   5.588   2.933   9.145 -0.5111  0.5144 -2.2756
   18SAPC   H9Y 2380   5.429   3.024   9.177 -0.1598  0.0272  1.5899
   18SAPC  C310 2381   5.407   2.829   9.081 -0.2022 -0.6545 -1.2037
   18SAPC  H10X 2382   5.308   2.804   9.124 -0.9514 -0.4933 -2.7675
   18SAPC  H10Y 2383   5.468   2.736   9.081  1.0874  0.1282  1.0133
   18SAPC  C311 2384   5.389   2.879   8.935 -0.1021  0.8060  0.6707
   18SAPC  H11X 2385   5.495   2.877   8.901 -0.8528 -0.7759 -1.8566
   18SAPC  H11Y 2386   5.342   2.980   8.929 -1.2679  0.2062 -0.8555
   18SAPC  C312 2387   5.300   2.774   8.853 -0.4285  0.0660  0.3737
   18SAPC  H12X 2388   5.197   2.781   8.895  0.0538 -2.1822  2.1107
   18SAPC  H12Y 2389   5.349   2.685   8.897 -0.7595  0.4837  1.6398
   18SAPC  C313 2390   5.309   2.770   8.698  0.4328 -0.0963 -0.3108
   18SAPC  H13X 2391   5.242   2.851   8.663 -1.2470 -2.1440 -2.0854
   18SAPC  H13Y 2392   5.259   2.677   8.666  0.4173 -0.1484 -0.1341
   18SAPC  C314 2393   5.459   2.793   8.655 -0.4966  0.0034  0.5502
   18SAPC  H14X 2394   5.533   2.748   8.725  2.0539  3.1551  0.1216
   18SAPC  H14Y 2395   5.484   2.901   8.663 -0.6261  0.1279 -0.5826
   18SAPC  C315 2396   5.478   2.750   8.505 -0.4311 -0.1304 -0.5463
   18SAPC  H15X 2397   5.410   2.812   8.442 -0.3414  0.7703  0.2156
   18SAPC  H15Y 2398   5.455   2.644   8.481 -0.4122 -0.5846  1.3145
   18SAPC  C316 2399   5.627   2.766   8.450 -0.3913  0.0545 -0.1649
   18SAPC  H16X 2400   5.697   2.712   8.518 -0.3217  2.1105  1.4890
   18SAPC  H16Y 2401   5.675   2.866   8.451  0.1512 -0.1909 -0.8627
   18SAPC  C317 2402   5.636   2.702   8.317 -0.4474 -0.3435  0.2773
   18SAPC  H17X 2403   5.555   2.748   8.257 -1.8377 -0.9687  1.5923
   18SAPC  H17Y 2404   5.611   2.594   8.324 -2.6389 -0.2549 -3.4169
   18SAPC  C318 2405   5.771   2.726   8.251 -0.0145 -0.1359 -0.2449
   18SAPC  H18X 2406   5.790   2.663   8.162 -1.9092 -0.3442 -0.5473
   18SAPC  H18Y 2407   5.851   2.698   8.323 -0.8886  0.6030  1.0598
   18SAPC  H18Z 2408   5.784   2.834   8.227  2.3816 -0.2915  0.1281
   19SAPC     N 2409   6.768   5.194  10.706  0.5546  0.8889 -0.8046
   19SAPC   C12 2410   6.893   5.215  10.789 -0.4695 -0.0237  0.3956
   19SAPC  H12A 2411   6.962   5.133  10.771  0.1462  0.5705  0.0070
   19SAPC  H12B 2412   6.856   5.204  10.889 -0.4426 -3.7729  0.1558
   19SAPC   C13 2413   6.812   5.191  10.560  0.7803  0.8747 -0.6919
   19SAPC  H13A 2414   6.903   5.133  10.557  0.1984 -0.1675  0.6303
   19SAPC  H13B 2415   6.737   5.141  10.500 -1.0208  0.2635  1.8594
   19SAPC  H13C 2416   6.838   5.285  10.514 -1.0633  0.6730 -2.2778
   19SAPC   C14 2417   6.694   5.066  10.742  0.4249 -0.3685 -0.9661
   19SAPC  H14A 2418   6.688   5.059  10.850 -0.8592 -2.3129 -1.1117
   19SAPC  H14B 2419   6.590   5.075  10.714 -0.0117  1.7274  0.9720
   19SAPC  H14C 2420   6.738   4.978  10.699  0.4973 -1.3474  0.9914
   19SAPC   C15 2421   6.670   5.304  10.725 -0.2533 -0.3765  0.1686
   19SAPC  H15A 2422   6.717   5.396  10.693 -2.4160  1.2134  1.2594
   19SAPC  H15B 2423   6.578   5.310  10.669  0.1335  3.4489 -0.3712
   19SAPC  H15C 2424   6.649   5.324  10.829 -0.0311  0.5298  0.0478
   19SAPC   C11 2425   6.969   5.344  10.779 -0.7317 -0.4429 -0.0334
   19SAPC  H11A 2426   7.046   5.346  10.858 -0.5365 -1.0242 -0.2073
   19SAPC  H11B 2427   6.905   5.435  10.775 -0.2461 -0.1343 -0.9600
   19SAPC     P 2428   7.157   5.252  10.628  0.2052 -0.1245  0.2694
   19SAPC   O13 2429   7.251   5.265  10.741 -0.1422  0.6933  0.0867
   19SAPC   O14 2430   7.105   5.121  10.595  0.0342  0.5072  0.4215
   19SAPC   O12 2431   7.037   5.352  10.655 -0.3654  0.7693  0.8200
   19SAPC   O11 2432   7.224   5.320  10.502  0.5758 -0.5449  0.4135
   19SAPC    C1 2433   7.275   5.453  10.507  0.5719  0.4153  0.4336
   19SAPC    HA 2434   7.268   5.494  10.610 -0.3158  1.3113  0.0340
   19SAPC    HB 2435   7.380   5.450  10.472  0.0342  1.2402 -1.3186
   19SAPC    C2 2436   7.197   5.546  10.410  0.0912  0.0014  0.0159
   19SAPC    HS 2437   7.090   5.527  10.434  0.1183 -0.9945 -0.6176
   19SAPC   O21 2438   7.237   5.490  10.282 -0.1694  0.1881  0.1175
   19SAPC   C21 2439   7.154   5.486  10.183 -0.0104 -0.2037 -0.4640
   19SAPC   O22 2440   7.033   5.512  10.199 -0.5609 -0.2284  0.4533
   19SAPC   C22 2441   7.208   5.442  10.050  0.2993  0.1755 -0.9827
   19SAPC   H2R 2442   7.309   5.485  10.039  0.6441 -0.6396 -1.0703
   19SAPC   H2S 2443   7.223   5.332  10.042 -0.9653 -0.0161 -0.9185
   19SAPC    C3 2444   7.232   5.695  10.417 -0.3227 -0.6279 -0.2998
   19SAPC    HX 2445   7.338   5.709  10.386 -0.5834 -0.7420 -1.2715
   19SAPC    HY 2446   7.226   5.719  10.525  2.7307 -4.4575  0.9579
   19SAPC   O31 2447   7.135   5.777  10.340 -0.1056  0.8879  0.0400
   19SAPC   C31 2448   7.169   5.812  10.215  0.0058 -0.8716 -0.4214
   19SAPC   O32 2449   7.275   5.791  10.154  0.1788  0.4766 -0.2211
   19SAPC   C32 2450   7.073   5.923  10.179 -0.3251 -0.5202 -0.0481
   19SAPC   H2X 2451   7.118   6.021  10.206 -3.0431  0.8950 -0.4004
   19SAPC   H2Y 2452   6.977   5.911  10.234 -0.2564 -4.8016 -0.5080
   19SAPC   C23 2453   7.127   5.491   9.930 -0.2738  0.2921  0.1751
   19SAPC   H3R 2454   7.141   5.601   9.925 -1.4233  0.4100 -0.7026
   19SAPC   H3S 2455   7.021   5.466   9.949 -0.7162  2.4914  0.8129
   19SAPC   C24 2456   7.154   5.427   9.799  0.0985 -0.8541  0.4027
   19SAPC   H4R 2457   7.133   5.318   9.787  0.4946 -0.8461 -0.5270
   19SAPC   H4S 2458   7.262   5.430   9.771 -0.8353 -0.7900 -3.9174
   19SAPC   C25 2459   7.085   5.513   9.695 -0.8781 -0.4611  0.1489
   19SAPC   H5R 2460   7.119   5.617   9.689 -0.0532 -0.2775  4.6141
   19SAPC   C26 2461   6.989   5.470   9.616  0.3795 -0.1925  0.1441
   19SAPC   H6R 2462   6.954   5.543   9.542 -2.4463 -0.7981  0.7268
   19SAPC   C27 2463   6.929   5.328   9.618 -0.4167  0.4249 -0.4793
   19SAPC   H7R 2464   6.893   5.306   9.721 -0.3480 -1.7220 -0.8649
   19SAPC   H7S 2465   7.000   5.245   9.597  1.5364  0.9989  2.9867
   19SAPC   C28 2466   6.810   5.327   9.527 -0.3325 -0.9809 -0.5823
   19SAPC   H8R 2467   6.731   5.396   9.560 -1.5788 -1.5439 -2.2230
   19SAPC   C29 2468   6.799   5.260   9.414 -0.7145 -0.3728 -0.6432
   19SAPC   H9R 2469   6.705   5.253   9.357  0.3114  0.1688 -2.4734
   19SAPC  C210 2470   6.904   5.173   9.350 -0.0858  0.3578  0.3194
   19SAPC  H10R 2471   7.004   5.197   9.391 -0.3284  0.2572  0.9815
   19SAPC  H10S 2472   6.902   5.189   9.240 -0.7572 -0.6708  0.1760
   19SAPC  C211 2473   6.879   5.029   9.382 -0.2247  0.0205  0.2357
   19SAPC  H11R 2474   6.934   4.991   9.469 -0.1210  0.1180  0.2125
   19SAPC  C212 2475   6.799   4.942   9.317  0.4910 -0.7114  0.1167
   19SAPC  H12R 2476   6.781   4.839   9.352 -0.7779 -1.1701 -1.7249
   19SAPC  C213 2477   6.712   4.983   9.202 -0.2438 -0.7716  0.7149
   19SAPC  H13R 2478   6.670   5.081   9.232  1.6419 -0.4489  2.5887
   19SAPC  H13S 2479   6.618   4.924   9.206  0.6417 -2.2214  1.0251
   19SAPC  C214 2480   6.779   4.977   9.070 -0.1921  0.1889 -0.0985
   19SAPC  H14R 2481   6.868   5.041   9.064  0.0056 -0.0848 -0.0824
   19SAPC  C215 2482   6.757   4.895   8.973 -0.1760  0.2831  0.6261
   19SAPC  H15R 2483   6.796   4.924   8.874 -2.4267 -0.5007 -0.5664
   19SAPC  C216 2484   6.661   4.782   8.959 -0.3006  0.3031 -0.1323
   19SAPC  H16R 2485   6.587   4.791   9.042  0.5501 -0.1567  0.6919
   19SAPC  H16S 2486   6.720   4.689   8.972  2.4024  1.6969 -1.5878
   19SAPC  C217 2487   6.557   4.783   8.841  0.0791 -0.1162  0.0983
   19SAPC  H17R 2488   6.511   4.883   8.848 -0.3386 -0.1829 -1.4527
   19SAPC  H17S 2489   6.476   4.713   8.871 -2.0501  1.8531 -0.7719
   19SAPC  C218 2490   6.620   4.758   8.703  0.4516 -0.0519  0.3673
   19SAPC  H18R 2491   6.693   4.674   8.700 -0.2985 -0.7159  0.2949
   19SAPC  H18S 2492   6.665   4.858   8.685 -0.4242  0.8793  2.8313
   19SAPC  C219 2493   6.504   4.734   8.600  0.7280  0.0354 -0.2593
   19SAPC  H19R 2494   6.440   4.824   8.603 -1.5629 -1.5129  0.7580
   19SAPC  H19S 2495   6.447   4.648   8.641  3.5202 -0.3150  3.3627
   19SAPC  C220 2496   6.547   4.699   8.458 -0.1875 -0.1838 -0.3829
   19SAPC  H20R 2497   6.606   4.605   8.449  0.1490 -0.0897  0.6673
   19SAPC  H20S 2498   6.602   4.786   8.415 -0.5505  1.3244  1.9764
   19SAPC  H20T 2499   6.450   4.690   8.406  0.0513 -0.3887 -0.7896
   19SAPC   C33 2500   7.035   5.945  10.032  0.2151  0.2985  0.2078
   19SAPC   H3X 2501   7.011   5.851   9.977 -0.5564  2.2176 -2.9530
   19SAPC   H3Y 2502   7.119   5.990   9.974  0.1628 -1.3778 -1.2590
   19SAPC   C34 2503   6.906   6.028  10.025  0.1114  0.3305 -0.6509
   19SAPC   H4X 2504   6.910   6.121  10.085  0.1277  0.8149 -1.3834
   19SAPC   H4Y 2505   6.832   5.957  10.067 -1.0355  1.0755 -1.3348
   19SAPC   C35 2506   6.843   6.053   9.884 -0.8493  0.0893  0.0213
   19SAPC   H5X 2507   6.741   6.095   9.898 -1.4556 -1.2908 -0.0844
   19SAPC   H5Y 2508   6.839   5.951   9.840 -1.4201  0.4919 -0.8834
   19SAPC   C36 2509   6.928   6.145   9.797  0.3540 -0.6291  0.1467
   19SAPC   H6X 2510   7.030   6.104   9.786  0.2635 -0.5799 -1.0208
   19SAPC   H6Y 2511   6.942   6.249   9.833  0.8075 -1.1601  1.5879
   19SAPC   C37 2512   6.877   6.137   9.651 -0.8509  0.3948  0.4603
   19SAPC   H7X 2513   6.769   6.115   9.640 -0.3996 -1.9917  0.2189
   19SAPC   H7Y 2514   6.926   6.042   9.622 -0.2365  0.8801 -0.1583
   19SAPC   C38 2515   6.930   6.237   9.544  0.0840  0.1007 -0.4341
   19SAPC   H8X 2516   7.040   6.253   9.552  0.4022 -1.7562 -0.6020
   19SAPC   H8Y 2517   6.867   6.327   9.563 -0.9720 -0.6866 -0.1074
   19SAPC   C39 2518   6.903   6.175   9.402 -0.2488 -0.1495  0.9390
   19SAPC   H9X 2519   6.795   6.153   9.387 -0.2358  0.0101  0.5950
   19SAPC   H9Y 2520   6.950   6.074   9.400 -0.4270 -0.2549  1.7463
   19SAPC  C310 2521   6.949   6.263   9.284  0.1315 -0.6243  0.1830
   19SAPC  H10X 2522   7.054   6.289   9.311 -0.1563  0.4488  0.3155
   19SAPC  H10Y 2523   6.898   6.361   9.296 -0.0503 -0.9051  1.9337
   19SAPC  C311 2524   6.939   6.201   9.154 -0.4256 -0.1479  0.4890
   19SAPC  H11X 2525   7.002   6.109   9.146  0.0949  0.3231 -1.4223
   19SAPC  H11Y 2526   6.981   6.278   9.086  0.2533  1.7256  2.9086
   19SAPC  C312 2527   6.803   6.136   9.118 -0.5924 -0.1207 -0.6097
   19SAPC  H12X 2528   6.728   6.217   9.127 -1.1171 -0.6850  0.2341
   19SAPC  H12Y 2529   6.778   6.051   9.184 -0.8678  1.4946  1.4924
   19SAPC  C313 2530   6.779   6.094   8.976 -0.2572  0.2313  0.6477
   19SAPC  H13X 2531   6.769   6.181   8.907  0.4661  0.8472  1.2973
   19SAPC  H13Y 2532   6.682   6.040   8.980  0.7983 -1.7150  3.8502
   19SAPC  C314 2533   6.882   5.999   8.912  0.0110 -0.1164  0.1064
   19SAPC  H14X 2534   6.871   5.901   8.964 -0.4129 -1.0729 -1.6814
   19SAPC  H14Y 2535   6.988   6.030   8.927 -0.0024  0.8357 -1.5725
   19SAPC  C315 2536   6.844   5.959   8.770  0.1751 -0.4000  0.2111
   19SAPC  H15X 2537   6.796   6.042   8.715  0.0434 -1.6312 -1.6621
   19SAPC  H15Y 2538   6.768   5.878   8.774 -1.7347  1.3553  1.0157
   19SAPC  C316 2539   6.972   5.902   8.702 -0.0117  0.1119  0.1217
   19SAPC  H16X 2540   6.996   5.794   8.719  0.6227  0.4491  1.5256
   19SAPC  H16Y 2541   7.051   5.961   8.754  1.2512 -0.4564 -1.0776
   19SAPC  C317 2542   6.982   5.930   8.547  0.4889  0.2972 -0.1445
   19SAPC  H17X 2543   7.089   5.918   8.520  1.1306  3.0324  0.8892
   19SAPC  H17Y 2544   6.961   6.037   8.527 -3.4125 -0.4034 -0.5057
   19SAPC  C318 2545   6.880   5.849   8.469 -0.5454 -0.8731  0.2718
   19SAPC  H18X 2546   6.885   5.742   8.500  0.8700 -0.9217 -0.0449
   19SAPC  H18Y 2547   6.916   5.844   8.364 -0.5549 -0.8149  0.2658
   19SAPC  H18Z 2548   6.782   5.887   8.504 -0.1267 -0.4014  0.9354
   20SAPC     N 2549   5.882   3.495  10.949  0.0061 -1.0270  0.9570
   20SAPC   C12 2550   5.896   3.459  10.801 -0.1921  0.0435 -0.1618
   20SAPC  H12A 2551   5.933   3.542  10.742 -0.5442 -0.3995 -1.0283
   20SAPC  H12B 2552   5.795   3.443  10.768 -0.6588  2.4914 -0.1135
   20SAPC   C13 2553   5.758   3.571  10.969 -0.3015  0.6445 -0.0531
   20SAPC  H13A 2554   5.743   3.584  11.075  1.0527  0.9260  0.1208
   20SAPC  H13B 2555   5.760   3.665  10.914 -0.6393  0.3116 -0.6508
   20SAPC  H13C 2556   5.674   3.514  10.932 -0.2717 -0.6841  1.8362
   20SAPC   C14 2557   5.881   3.364  11.031 -0.5633  0.1411  0.2342
   20SAPC  H14A 2558   5.978   3.318  11.019  0.6960  2.4447  1.0324
   20SAPC  H14B 2559   5.849   3.379  11.133 -1.5399 -1.3998  0.1834
   20SAPC  H14C 2560   5.806   3.294  10.999 -1.2498 -0.0377  2.0895
   20SAPC   C15 2561   6.001   3.579  10.990  0.2214 -0.5094 -0.1798
   20SAPC  H15A 2562   6.010   3.667  10.929 -0.7260 -0.8430 -0.8264
   20SAPC  H15B 2563   5.984   3.610  11.092 -1.3119 -2.3764  0.2024
   20SAPC  H15C 2564   6.092   3.520  10.988 -0.3461 -1.4349  0.2799
   20SAPC   C11 2565   5.986   3.338  10.758  0.3267  0.0893  0.2819
   20SAPC  H11A 2566   5.970   3.324  10.649 -0.1896  0.2140  0.3412
   20SAPC  H11B 2567   5.940   3.253  10.811  0.0027 -0.5984 -1.0637
   20SAPC     P 2568   6.198   3.473  10.720 -0.5279 -0.0505  0.1859
   20SAPC   O13 2569   6.109   3.523  10.621  0.3374 -0.1369 -0.3333
   20SAPC   O14 2570   6.251   3.566  10.830  0.0117  0.1568  0.4813
   20SAPC   O12 2571   6.131   3.348  10.788  0.3116 -0.1702  0.0932
   20SAPC   O11 2572   6.325   3.415  10.644  0.0313 -0.6369  0.4299
   20SAPC    C1 2573   6.335   3.281  10.595 -0.2467 -0.1454 -0.7811
   20SAPC    HA 2574   6.407   3.230  10.661  1.6036  2.1978 -0.8358
   20SAPC    HB 2575   6.234   3.235  10.602 -0.3341 -0.1182 -1.7036
   20SAPC    C2 2576   6.364   3.273  10.446  0.2293 -0.1973  0.4557
   20SAPC    HS 2577   6.448   3.343  10.424 -0.2731  0.2122 -0.2201
   20SAPC   O21 2578   6.234   3.297  10.374  0.3728  0.7496 -0.4680
   20SAPC   C21 2579   6.232   3.423  10.335  0.3919 -0.2037  0.1662
   20SAPC   O22 2580   6.326   3.500  10.343 -0.4630 -0.2859  0.5130
   20SAPC   C22 2581   6.098   3.454  10.284  0.3121  0.3018 -0.1219
   20SAPC   H2R 2582   6.024   3.393  10.340  0.0469  1.2864  0.6193
   20SAPC   H2S 2583   6.075   3.559  10.308 -0.8867 -0.0951  0.5168
   20SAPC    C3 2584   6.412   3.133  10.414 -1.0359 -0.3257 -0.7943
   20SAPC    HX 2585   6.347   3.059  10.465  1.2717 -0.5591  2.0790
   20SAPC    HY 2586   6.499   3.123  10.482 -1.8302  2.9308  0.8974
   20SAPC   O31 2587   6.426   3.113  10.270 -0.6919 -0.1075 -0.8437
   20SAPC   C31 2588   6.526   3.177  10.214  0.3057 -0.3165  0.1535
   20SAPC   O32 2589   6.613   3.238  10.270 -0.5625  0.5751 -0.3778
   20SAPC   C32 2590   6.502   3.163  10.064 -0.4839  0.0948 -0.0938
   20SAPC   H2X 2591   6.400   3.194  10.035 -0.4276  1.4387  1.0735
   20SAPC   H2Y 2592   6.527   3.060  10.029 -1.3908 -0.4353  0.7680
   20SAPC   C23 2593   6.080   3.409  10.137 -0.5006 -0.1518 -0.4676
   20SAPC   H3R 2594   5.979   3.438  10.100 -0.0449  0.2462 -1.4537
   20SAPC   H3S 2595   6.095   3.299  10.129  0.1525 -0.0161 -1.3301
   20SAPC   C24 2596   6.183   3.480  10.049 -0.5134  0.0985 -0.2378
   20SAPC   H4R 2597   6.283   3.452  10.089 -0.3960  0.2714 -0.4079
   20SAPC   H4S 2598   6.180   3.590  10.062  1.6489  0.0529  1.1641
   20SAPC   C25 2599   6.173   3.437   9.902 -0.3848 -0.1690 -0.9199
   20SAPC   H5R 2600   6.086   3.375   9.877 -0.7628  0.3811 -1.0020
   20SAPC   C26 2601   6.250   3.481   9.801 -0.1995 -0.9067  0.5441
   20SAPC   H6R 2602   6.237   3.447   9.698  1.7321  0.9092 -0.3825
   20SAPC   C27 2603   6.369   3.576   9.810  0.6936  0.5003  0.5775
   20SAPC   H7R 2604   6.463   3.523   9.781  0.5191  0.1753  0.6048
   20SAPC   H7S 2605   6.370   3.617   9.913  0.3883  0.4181  0.6135
   20SAPC   C28 2606   6.356   3.688   9.714 -0.0942  0.6453  0.3787
   20SAPC   H8R 2607   6.304   3.776   9.754 -1.4949  0.2817 -0.5807
   20SAPC   C29 2608   6.397   3.716   9.585  0.2750  0.2004  0.5174
   20SAPC   H9R 2609   6.384   3.816   9.541 -2.3146 -0.4201 -0.2634
   20SAPC  C210 2610   6.487   3.633   9.497 -0.3348  0.4942 -0.2023
   20SAPC  H10R 2611   6.428   3.587   9.415  2.3848 -3.7036 -0.1380
   20SAPC  H10S 2612   6.524   3.549   9.560 -1.4145 -1.6002 -2.1837
   20SAPC  C211 2613   6.607   3.701   9.443 -0.5565 -0.7827 -0.3571
   20SAPC  H11R 2614   6.695   3.711   9.508  1.3521  2.9195 -3.1125
   20SAPC  C212 2615   6.624   3.778   9.335  0.3994  0.7278  0.4515
   20SAPC  H12R 2616   6.723   3.825   9.320  2.3576 -1.9926  3.5403
   20SAPC  C213 2617   6.504   3.811   9.240 -0.0343 -0.6688  0.3379
   20SAPC  H13R 2618   6.525   3.910   9.196 -1.1514 -0.8615 -0.6582
   20SAPC  H13S 2619   6.405   3.819   9.289 -0.0892 -0.0350  0.1268
   20SAPC  C214 2620   6.492   3.703   9.132 -0.3630  0.0273 -0.0030
   20SAPC  H14R 2621   6.506   3.601   9.170  0.8850  0.4792  0.8266
   20SAPC  C215 2622   6.465   3.718   9.003 -0.2333  0.2607 -0.1397
   20SAPC  H15R 2623   6.460   3.624   8.946  0.2163 -1.5172  2.5581
   20SAPC  C216 2624   6.449   3.850   8.934 -0.7094 -0.4659  0.0561
   20SAPC  H16R 2625   6.548   3.878   8.891 -0.6990 -0.4489  0.0922
   20SAPC  H16S 2626   6.424   3.927   9.011 -0.5043 -0.5706  0.2284
   20SAPC  C217 2627   6.345   3.852   8.822  0.0851  0.4338 -0.4117
   20SAPC  H17R 2628   6.337   3.953   8.778  3.2203  0.9288 -0.0542
   20SAPC  H17S 2629   6.245   3.818   8.857  0.0959 -0.9219 -1.5911
   20SAPC  C218 2630   6.367   3.754   8.698  0.5600  0.0382 -0.4712
   20SAPC  H18R 2631   6.372   3.651   8.738  0.3160  0.4875  0.7678
   20SAPC  H18S 2632   6.462   3.791   8.655  0.4575  1.2632  0.3030
   20SAPC  C219 2633   6.259   3.786   8.597 -0.2474 -0.8827 -0.0637
   20SAPC  H19R 2634   6.290   3.873   8.535  0.2883 -0.7574  0.3760
   20SAPC  H19S 2635   6.168   3.810   8.655  0.6364  1.0598  0.5880
   20SAPC  C220 2636   6.233   3.666   8.507 -0.4667 -0.5557  0.2196
   20SAPC  H20R 2637   6.317   3.641   8.439 -1.5001 -0.6144 -1.0629
   20SAPC  H20S 2638   6.148   3.694   8.442  1.0678  1.4743 -1.0434
   20SAPC  H20T 2639   6.209   3.577   8.570 -1.2527 -1.4496 -1.2882
   20SAPC   C33 2640   6.613   3.255   9.992  0.1821 -0.2727 -0.1261
   20SAPC   H3X 2641   6.717   3.220  10.009  0.2525  0.5450  1.2686
   20SAPC   H3Y 2642   6.602   3.356  10.037  0.7022 -0.1691 -0.2226
   20SAPC   C34 2643   6.586   3.277   9.842  0.8913 -0.1471 -0.9146
   20SAPC   H4X 2644   6.662   3.350   9.807  0.8966  0.0282 -0.5418
   20SAPC   H4Y 2645   6.482   3.315   9.830  1.3592  2.1617  1.4136
   20SAPC   C35 2646   6.615   3.151   9.756  0.4997 -0.4662 -0.0485
   20SAPC   H5X 2647   6.547   3.076   9.800 -0.0237  0.2017  0.2901
   20SAPC   H5Y 2648   6.714   3.106   9.780  0.5855 -0.3294 -0.1391
   20SAPC   C36 2649   6.588   3.168   9.611 -0.3138 -0.3459  0.3812
   20SAPC   H6X 2650   6.484   3.187   9.575 -0.2205  0.4930  0.5258
   20SAPC   H6Y 2651   6.616   3.074   9.559  1.1758  0.1622  0.2209
   20SAPC   C37 2652   6.681   3.281   9.552 -0.5262 -0.3478  0.1629
   20SAPC   H7X 2653   6.782   3.275   9.597 -0.8996  1.4323  1.3502
   20SAPC   H7Y 2654   6.635   3.378   9.582  1.5201  0.3223  1.3391
   20SAPC   C38 2655   6.681   3.275   9.398 -0.2742  0.3055  0.6173
   20SAPC   H8X 2656   6.583   3.274   9.346  1.6046 -0.1215 -3.2402
   20SAPC   H8Y 2657   6.726   3.178   9.367 -0.7692  0.2285  0.1280
   20SAPC   C39 2658   6.767   3.387   9.348  0.3937 -0.1317 -0.4154
   20SAPC   H9X 2659   6.869   3.367   9.387  0.6522  0.5048 -0.7358
   20SAPC   H9Y 2660   6.740   3.488   9.385  2.2331 -0.0749  0.8749
   20SAPC  C310 2661   6.773   3.404   9.193 -0.6478  0.3871  0.0795
   20SAPC  H10X 2662   6.666   3.415   9.166 -0.6137  4.0337  0.8756
   20SAPC  H10Y 2663   6.820   3.320   9.136 -0.5440  1.3492 -1.3040
   20SAPC  C311 2664   6.837   3.534   9.150  0.6744 -0.5575 -0.6380
   20SAPC  H11X 2665   6.794   3.620   9.206  0.2348 -0.9891 -0.3181
   20SAPC  H11Y 2666   6.820   3.554   9.042 -3.4247  1.2362  0.1670
   20SAPC  C312 2667   6.991   3.553   9.183  0.5817 -0.3962 -0.2841
   20SAPC  H12X 2668   7.026   3.501   9.275 -1.6892  1.4078  1.7453
   20SAPC  H12Y 2669   7.019   3.660   9.189  2.0228 -0.7773  0.0940
   20SAPC  C313 2670   7.072   3.488   9.071 -0.2438  0.0386 -0.4902
   20SAPC  H13X 2671   7.043   3.529   8.972  0.9860  1.1983 -0.3976
   20SAPC  H13Y 2672   7.035   3.385   9.056 -2.0336  0.5859 -0.0697
   20SAPC  C314 2673   7.219   3.473   9.095  0.5198 -0.9528  0.4252
   20SAPC  H14X 2674   7.242   3.408   9.182  2.4336  0.6846  1.2215
   20SAPC  H14Y 2675   7.256   3.574   9.121 -1.4538  0.3655 -1.5828
   20SAPC  C315 2676   7.294   3.411   8.980 -0.0855 -0.0930 -0.3848
   20SAPC  H15X 2677   7.260   3.305   8.977 -0.5554  0.0185  0.7742
   20SAPC  H15Y 2678   7.403   3.411   9.004  0.2945 -2.0489 -1.8320
   20SAPC  C316 2679   7.277   3.483   8.845  0.1888 -0.5771  0.0908
   20SAPC  H16X 2680   7.173   3.464   8.811 -0.0955  0.9745  0.0361
   20SAPC  H16Y 2681   7.336   3.437   8.763  0.3647  1.7529 -1.1695
   20SAPC  C317 2682   7.292   3.635   8.839 -0.2148 -0.3891 -0.8881
   20SAPC  H17X 2683   7.384   3.665   8.894 -0.8948  0.1619 -0.0247
   20SAPC  H17Y 2684   7.212   3.686   8.896 -1.5035 -2.5009 -0.6855
   20SAPC  C318 2685   7.282   3.717   8.707  0.3904 -0.5340 -0.1707
   20SAPC  H18X 2686   7.187   3.687   8.658 -0.3775  0.4967  0.6526
   20SAPC  H18Y 2687   7.363   3.690   8.636  0.0815  0.2718 -0.8334
   20SAPC  H18Z 2688   7.270   3.826   8.723  1.1225 -0.1037 -2.2190
   21SAPC     N 2689   0.516   1.855  10.661 -0.3519  0.6442 -0.0361
   21SAPC   C12 2690   0.365   1.847  10.665 -0.0127  0.1453  0.0687
   21SAPC  H12A 2691   0.326   1.917  10.736 -1.2939 -1.8187  1.4115
   21SAPC  H12B 2692   0.333   1.750  10.699 -2.3899  0.6901 -0.4138
   21SAPC   C13 2693   0.568   1.988  10.609  0.9982  0.0263  0.2495
   21SAPC  H13A 2694   0.520   2.023  10.519 -0.5055 -2.8713 -0.2202
   21SAPC  H13B 2695   0.553   2.063  10.685  0.8884  0.9236 -0.6342
   21SAPC  H13C 2696   0.674   1.971  10.596  0.6144 -2.3765 -0.3107
   21SAPC   C14 2697   0.571   1.830  10.801 -0.3364  0.4542  0.3779
   21SAPC  H14A 2698   0.574   1.723  10.819  1.1538 -0.3157 -3.4919
   21SAPC  H14B 2699   0.673   1.863  10.813  0.5004 -1.3910 -1.2107
   21SAPC  H14C 2700   0.514   1.874  10.882 -1.2222  1.0021 -0.5150
   21SAPC   C15 2701   0.580   1.747  10.567 -0.2198  0.4991 -0.5539
   21SAPC  H15A 2702   0.540   1.751  10.466 -0.6790  0.6999 -0.3653
   21SAPC  H15B 2703   0.686   1.766  10.569 -0.3013  0.8788  1.1463
   21SAPC  H15C 2704   0.571   1.652  10.617 -0.3359  0.0922 -1.3201
   21SAPC   C11 2705   0.288   1.879  10.533 -0.4168  0.4651  0.1799
   21SAPC  H11A 2706   0.184   1.842  10.537 -0.6601  1.0653 -0.3911
   21SAPC  H11B 2707   0.353   1.822  10.463 -2.5411 -1.2093 -0.5337
   21SAPC     P 2708   0.212   2.114  10.598  0.0565  0.3384  0.1766
   21SAPC   O13 2709   0.155   2.040  10.717 -0.2450  0.2698  0.5309
   21SAPC   O14 2710   0.304   2.226  10.630  0.0471  0.0780  0.4737
   21SAPC   O12 2711   0.290   2.017  10.496  0.1757 -0.5382  0.1612
   21SAPC   O11 2712   0.093   2.165  10.508 -0.2315  0.3983  0.9689
   21SAPC    C1 2713   0.119   2.223  10.380 -0.4641 -0.2507  0.5646
   21SAPC    HA 2714   0.115   2.334  10.393  0.7689 -0.2140  0.7182
   21SAPC    HB 2715   0.228   2.216  10.361 -0.1705  0.3266  1.8473
   21SAPC    C2 2716   0.047   2.164  10.253 -0.0327  0.2484 -0.0955
   21SAPC    HS 2717   0.065   2.221  10.159 -0.7551 -1.1659 -1.1241
   21SAPC   O21 2718  -0.099   2.166  10.268 -0.1540  0.3658 -0.1185
   21SAPC   C21 2719  -0.148   2.284  10.249 -0.9412  0.4737 -0.0026
   21SAPC   O22 2720  -0.096   2.372  10.181  0.3207 -1.0201  1.0150
   21SAPC   C22 2721  -0.279   2.315  10.322  0.0761 -0.2534  0.1240
   21SAPC   H2R 2722  -0.251   2.325  10.429  2.3291 -2.7699 -0.1026
   21SAPC   H2S 2723  -0.300   2.415  10.280 -0.3193 -1.2579 -2.2431
   21SAPC    C3 2724   0.093   2.012  10.229 -0.0944 -0.9843  0.5541
   21SAPC    HX 2725   0.030   1.950  10.297 -0.1779 -2.1517 -0.5523
   21SAPC    HY 2726   0.199   2.000  10.259  0.1648  0.8377  0.5089
   21SAPC   O31 2727   0.071   1.972  10.087  0.1081  0.0668 -0.0560
   21SAPC   C31 2728   0.079   1.846  10.066  0.6924 -0.0527 -0.2103
   21SAPC   O32 2729   0.110   1.755  10.148 -0.1746 -0.3936 -0.3686
   21SAPC   C32 2730   0.040   1.818   9.920 -0.4646  0.6130 -0.2290
   21SAPC   H2X 2731  -0.062   1.861   9.909 -0.6612 -0.1953 -1.9502
   21SAPC   H2Y 2732   0.035   1.707   9.917 -0.2315  0.5510  1.0322
   21SAPC   C23 2733  -0.391   2.223  10.293  0.7498  0.1505  0.3438
   21SAPC   H3R 2734  -0.479   2.265  10.346 -0.0619  0.7467 -1.3948
   21SAPC   H3S 2735  -0.370   2.120  10.328 -0.4523 -0.3439 -0.3188
   21SAPC   C24 2736  -0.431   2.207  10.137  0.2997 -0.3480  0.4811
   21SAPC   H4R 2737  -0.518   2.138  10.139  0.4087 -0.5082  2.4384
   21SAPC   H4S 2738  -0.350   2.164  10.075 -0.3557 -1.9460  0.6833
   21SAPC   C25 2739  -0.482   2.340  10.070  1.1765  1.1472 -0.3140
   21SAPC   H5R 2740  -0.548   2.402  10.133  0.8153  0.9913 -0.5340
   21SAPC   C26 2741  -0.450   2.385   9.950 -0.8206 -0.6864  0.1748
   21SAPC   H6R 2742  -0.506   2.475   9.919  0.6524  1.2181  2.6249
   21SAPC   C27 2743  -0.366   2.322   9.850 -0.1508  0.3176  0.3409
   21SAPC   H7R 2744  -0.403   2.355   9.751 -0.0531 -1.3751 -0.2947
   21SAPC   H7S 2745  -0.393   2.214   9.850  0.0741  0.1474 -3.4132
   21SAPC   C28 2746  -0.219   2.344   9.859 -0.4636 -0.1018 -0.1616
   21SAPC   H8R 2747  -0.181   2.386   9.954  0.5755 -1.9225  0.2645
   21SAPC   C29 2748  -0.126   2.306   9.762  0.3710 -0.4454  0.3191
   21SAPC   H9R 2749  -0.020   2.323   9.787  0.3847  1.3414 -0.7715
   21SAPC  C210 2750  -0.137   2.234   9.632  0.2616  0.6725  0.0673
   21SAPC  H10R 2751  -0.220   2.160   9.634  1.1316 -0.4564 -2.1201
   21SAPC  H10S 2752  -0.037   2.186   9.622  0.9613  2.2596 -1.0796
   21SAPC  C211 2753  -0.163   2.323   9.516 -0.1830  0.3931  0.3538
   21SAPC  H11R 2754  -0.194   2.423   9.550 -0.8745 -0.2085  1.5646
   21SAPC  C212 2755  -0.158   2.291   9.388 -0.1592 -0.3698 -1.0589
   21SAPC  H12R 2756  -0.179   2.375   9.321 -0.3675 -0.5736 -1.2543
   21SAPC  C213 2757  -0.109   2.157   9.333 -0.2822  0.5640  0.2869
   21SAPC  H13R 2758  -0.102   2.077   9.410  2.0236  0.1160 -0.3044
   21SAPC  H13S 2759  -0.018   2.169   9.270 -1.5529  0.8969 -1.5667
   21SAPC  C214 2760  -0.220   2.118   9.238  0.4338 -0.2165  0.0783
   21SAPC  H14R 2761  -0.320   2.125   9.284 -0.1609 -1.2932 -0.9977
   21SAPC  C215 2762  -0.218   2.099   9.105 -0.2254  0.0277  0.2106
   21SAPC  H15R 2763  -0.304   2.047   9.060  1.3813 -3.5356  0.9448
   21SAPC  C216 2764  -0.101   2.099   9.010  0.1381 -0.0623 -0.3038
   21SAPC  H16R 2765  -0.144   2.027   8.937 -1.7900 -0.1510  0.8596
   21SAPC  H16S 2766  -0.008   2.062   9.057  0.3181 -1.0053 -1.3524
   21SAPC  C217 2767  -0.075   2.244   8.962 -0.1817  0.4943 -0.2133
   21SAPC  H17R 2768  -0.014   2.304   9.033 -1.9773  0.6990  1.2403
   21SAPC  H17S 2769  -0.165   2.300   8.929 -1.8224 -2.9972 -2.1615
   21SAPC  C218 2770  -0.011   2.249   8.826 -0.3392 -0.3443 -0.8142
   21SAPC  H18R 2771  -0.077   2.191   8.757  2.7391 -2.9646 -1.8543
   21SAPC  H18S 2772   0.087   2.197   8.834  0.2896  1.0455  1.2918
   21SAPC  C219 2773   0.016   2.382   8.769  0.1185 -0.0584  0.3512
   21SAPC  H19R 2774   0.097   2.441   8.819  1.8631 -1.5276 -0.6442
   21SAPC  H19S 2775  -0.081   2.436   8.765 -1.0552 -2.1372 -0.3388
   21SAPC  C220 2776   0.055   2.368   8.620  0.2253 -0.2741 -0.0017
   21SAPC  H20R 2777  -0.034   2.326   8.568 -2.1102  3.7015  0.4020
   21SAPC  H20S 2778   0.139   2.295   8.619  0.1604 -0.3447 -0.4223
   21SAPC  H20T 2779   0.088   2.459   8.566 -0.3948 -1.1585 -1.9692
   21SAPC   C33 2780   0.134   1.875   9.815 -0.2319 -0.2307  0.5524
   21SAPC   H3X 2781   0.234   1.836   9.842 -0.3422 -1.3851 -0.5982
   21SAPC   H3Y 2782   0.133   1.985   9.802  0.6009 -0.3775 -1.0011
   21SAPC   C34 2783   0.091   1.822   9.681  0.1742  0.0087 -0.0157
   21SAPC   H4X 2784  -0.015   1.845   9.654  0.1257  0.8031  0.8284
   21SAPC   H4Y 2785   0.095   1.711   9.692  0.7386 -0.0078 -0.3490
   21SAPC   C35 2786   0.174   1.875   9.565 -0.2867 -0.2369 -0.2888
   21SAPC   H5X 2787   0.284   1.867   9.582 -0.3126 -1.3343 -0.5388
   21SAPC   H5Y 2788   0.156   1.984   9.561 -0.7364 -0.3273 -0.7843
   21SAPC   C36 2789   0.124   1.805   9.437  0.2523  0.8169  0.2803
   21SAPC   H6X 2790   0.019   1.836   9.418  0.3547  2.2557  1.8376
   21SAPC   H6Y 2791   0.105   1.697   9.456  0.3462  0.9599  1.2116
   21SAPC   C37 2792   0.206   1.835   9.310  0.2936  0.8670 -0.1014
   21SAPC   H7X 2793   0.301   1.780   9.326 -1.4944 -2.9039 -1.0945
   21SAPC   H7Y 2794   0.222   1.944   9.301  0.5070  0.9076  0.7622
   21SAPC   C38 2795   0.149   1.780   9.182  0.8689  0.8843 -0.2992
   21SAPC   H8X 2796   0.055   1.839   9.171 -1.4498 -2.4156  0.1899
   21SAPC   H8Y 2797   0.114   1.675   9.190 -3.3304  1.9333 -2.0658
   21SAPC   C39 2798   0.231   1.807   9.058  0.1561  0.0351 -0.5387
   21SAPC   H9X 2799   0.304   1.724   9.045  0.6236  0.4595 -0.6395
   21SAPC   H9Y 2800   0.278   1.906   9.075 -1.7497  0.9241 -0.1731
   21SAPC  C310 2801   0.153   1.803   8.933  0.4232  0.9983  0.5312
   21SAPC  H10X 2802   0.071   1.876   8.949 -0.5938 -0.6523  3.6996
   21SAPC  H10Y 2803   0.117   1.699   8.916 -0.2224  1.7058 -3.3009
   21SAPC  C311 2804   0.246   1.833   8.810 -0.1719 -0.7487  0.4333
   21SAPC  H11X 2805   0.294   1.929   8.841 -0.8954 -0.5247  0.9085
   21SAPC  H11Y 2806   0.178   1.866   8.729 -1.0677  1.5645  2.0118
   21SAPC  C312 2807   0.349   1.723   8.782  0.3333 -0.1152  0.3926
   21SAPC  H12X 2808   0.302   1.625   8.802  0.2129 -0.0082  0.6493
   21SAPC  H12Y 2809   0.429   1.741   8.857  0.2175  0.1851  0.4482
   21SAPC  C313 2810   0.398   1.722   8.640  0.0156 -0.5070 -0.3718
   21SAPC  H13X 2811   0.452   1.814   8.610  1.2184 -1.0912 -0.0675
   21SAPC  H13Y 2812   0.309   1.702   8.577 -0.0231 -0.1708 -0.4237
   21SAPC  C314 2813   0.515   1.616   8.626 -0.2809 -0.1556  0.1515
   21SAPC  H14X 2814   0.492   1.516   8.671  0.4317  0.6978  2.5752
   21SAPC  H14Y 2815   0.601   1.661   8.680  1.5143 -0.8836 -1.9821
   21SAPC  C315 2816   0.582   1.599   8.489 -0.0760  0.1957  0.2834
   21SAPC  H15X 2817   0.674   1.537   8.492  0.7425  1.2734 -1.0234
   21SAPC  H15Y 2818   0.612   1.698   8.446 -0.5531  0.0674 -0.3605
   21SAPC  C316 2819   0.482   1.521   8.391 -0.4901  0.1358 -0.6878
   21SAPC  H16X 2820   0.394   1.589   8.389  0.3462  1.3926  1.3011
   21SAPC  H16Y 2821   0.449   1.424   8.434 -1.0398  0.6357  0.0539
   21SAPC  C317 2822   0.535   1.500   8.253  0.3192  0.1259 -0.0460
   21SAPC  H17X 2823   0.597   1.408   8.252  0.2206  0.0611 -0.4253
   21SAPC  H17Y 2824   0.591   1.583   8.206  1.1982 -1.0365 -1.1005
   21SAPC  C318 2825   0.417   1.459   8.156  1.3125  0.1862 -0.3069
   21SAPC  H18X 2826   0.343   1.542   8.151 -0.9728 -1.4487  2.7478
   21SAPC  H18Y 2827   0.358   1.379   8.206  1.1914  0.2663 -0.3196
   21SAPC  H18Z 2828   0.457   1.422   8.059  1.4850 -1.1832  0.2630
   22SAPC     N 2829   6.557   3.664  10.633 -0.0159 -0.1078 -0.4364
   22SAPC   C12 2830   6.451   3.679  10.525 -0.5833 -0.3008 -0.2641
   22SAPC  H12A 2831   6.373   3.606  10.543 -1.2834  0.5606  0.2954
   22SAPC  H12B 2832   6.496   3.650  10.431 -1.0748  0.1438 -0.6439
   22SAPC   C13 2833   6.666   3.756  10.602 -0.0968 -0.1107 -0.0450
   22SAPC  H13A 2834   6.642   3.860  10.588  2.4213  0.2512 -2.7372
   22SAPC  H13B 2835   6.756   3.738  10.658 -0.3972 -0.8582  0.2167
   22SAPC  H13C 2836   6.698   3.724  10.504  0.7906  1.3015 -0.2413
   22SAPC   C14 2837   6.503   3.707  10.767 -0.0447  0.5711 -0.6025
   22SAPC  H14A 2838   6.441   3.626  10.804 -0.9934  2.2095  1.6978
   22SAPC  H14B 2839   6.584   3.717  10.838 -1.8466  0.1815  1.6498
   22SAPC  H14C 2840   6.446   3.798  10.751 -1.0937 -0.0435 -0.4625
   22SAPC   C15 2841   6.597   3.522  10.646 -0.1697  0.2851 -0.1944
   22SAPC  H15A 2842   6.624   3.484  10.549  0.5498  2.2670 -0.8320
   22SAPC  H15B 2843   6.677   3.512  10.718 -2.1241 -1.1956  1.9220
   22SAPC  H15C 2844   6.513   3.466  10.685 -0.8362  0.5015 -1.2721
   22SAPC   C11 2845   6.388   3.821  10.500  1.5211 -0.1525  0.1805
   22SAPC  H11A 2846   6.311   3.790  10.426 -0.0421 -0.9151  2.0221
   22SAPC  H11B 2847   6.459   3.897  10.463  0.9012  0.8018  0.9087
   22SAPC     P 2848   6.255   4.009  10.603 -0.1910 -0.6803 -0.3720
   22SAPC   O13 2849   6.146   4.010  10.703 -0.0830  0.3205 -0.2953
   22SAPC   O14 2850   6.351   4.122  10.620  0.3401  0.5399 -0.1764
   22SAPC   O12 2851   6.325   3.870  10.619  0.0526  0.2488  0.0805
   22SAPC   O11 2852   6.188   4.020  10.463  0.3735  0.3029 -0.5237
   22SAPC    C1 2853   6.142   4.156  10.415 -0.0614  1.2535  0.0531
   22SAPC    HA 2854   6.034   4.143  10.394 -0.0263  0.2427  0.4659
   22SAPC    HB 2855   6.154   4.238  10.489  2.4510  0.1431  0.9751
   22SAPC    C2 2856   6.201   4.201  10.279 -0.2638  0.7228  0.0579
   22SAPC    HS 2857   6.174   4.308  10.267 -0.0959  0.8284  0.5893
   22SAPC   O21 2858   6.161   4.114  10.171 -0.1567  0.5011 -0.1861
   22SAPC   C21 2859   6.037   4.126  10.126 -0.1796  0.5654 -0.3491
   22SAPC   O22 2860   5.949   4.199  10.169 -0.3558  0.1199 -0.3634
   22SAPC   C22 2861   6.012   4.034  10.005  0.5781  0.1090 -0.2850
   22SAPC   H2R 2862   6.041   3.935  10.046 -0.9954 -1.1989 -2.1364
   22SAPC   H2S 2863   5.906   4.045   9.975  0.2548  0.9911  1.1076
   22SAPC    C3 2864   6.356   4.211  10.280  0.4539  0.9122 -0.2439
   22SAPC    HX 2865   6.399   4.115  10.314 -1.5989  0.4973  1.3839
   22SAPC    HY 2866   6.373   4.281  10.365  0.1568 -1.5240  1.9192
   22SAPC   O31 2867   6.410   4.261  10.149  0.0171 -0.1340 -0.0025
   22SAPC   C31 2868   6.468   4.166  10.077 -0.2938  0.3627  1.1413
   22SAPC   O32 2869   6.471   4.047  10.105 -0.2864 -0.0708 -0.1623
   22SAPC   C32 2870   6.526   4.238   9.946 -0.2840  0.9207 -0.2247
   22SAPC   H2X 2871   6.634   4.251   9.964 -0.0999 -2.3025  1.9174
   22SAPC   H2Y 2872   6.469   4.333   9.933 -0.5287  0.6687 -1.0428
   22SAPC   C23 2873   6.101   4.064   9.881 -0.0416 -0.8100  0.2247
   22SAPC   H3R 2874   6.085   3.984   9.806 -0.3985  2.0993 -3.0176
   22SAPC   H3S 2875   6.209   4.067   9.909  0.4632  1.5951 -1.6749
   22SAPC   C24 2876   6.075   4.188   9.795 -0.1278 -0.3372 -0.7537
   22SAPC   H4R 2877   5.966   4.183   9.775 -0.6461 -1.2800  1.8403
   22SAPC   H4S 2878   6.132   4.177   9.700 -0.5922  3.3360 -1.6126
   22SAPC   C25 2879   6.120   4.317   9.866  0.2443  0.5090 -1.0877
   22SAPC   H5R 2880   6.180   4.311   9.957 -2.6977  4.1659  1.3964
   22SAPC   C26 2881   6.074   4.440   9.846  1.1746  0.0552  0.2135
   22SAPC   H6R 2882   6.099   4.518   9.920  1.4933 -0.3339  0.5182
   22SAPC   C27 2883   5.965   4.475   9.752  0.6840  1.1417  0.5558
   22SAPC   H7R 2884   5.882   4.528   9.805 -0.0839  0.1685  0.3567
   22SAPC   H7S 2885   5.925   4.390   9.693  2.8288  0.3667  0.1331
   22SAPC   C28 2886   6.012   4.582   9.652  0.3792  0.1059 -0.3225
   22SAPC   H8R 2887   6.089   4.654   9.683 -2.8180  2.6252  2.5840
   22SAPC   C29 2888   5.966   4.591   9.521 -0.3445  0.1117  0.5787
   22SAPC   H9R 2889   6.000   4.667   9.449 -2.7202  1.3296  0.6335
   22SAPC  C210 2890   5.862   4.508   9.462  0.5025 -0.5150  0.4073
   22SAPC  H10R 2891   5.834   4.563   9.371  1.6689 -0.8243 -0.1583
   22SAPC  H10S 2892   5.770   4.507   9.525  0.6796 -0.1929  0.6726
   22SAPC  C211 2893   5.899   4.364   9.421 -1.1526  0.0243 -0.0016
   22SAPC  H11R 2894   5.984   4.312   9.467 -0.2248 -1.9010 -3.5093
   22SAPC  C212 2895   5.838   4.281   9.341  0.1779  0.0369 -0.0922
   22SAPC  H12R 2896   5.884   4.187   9.310  1.6235  0.5568  0.4134
   22SAPC  C213 2897   5.715   4.305   9.261  0.4961 -0.1513 -0.4554
   22SAPC  H13R 2898   5.741   4.266   9.160 -0.5185 -1.1855 -0.3318
   22SAPC  H13S 2899   5.702   4.413   9.237 -3.1670 -0.8396 -2.2039
   22SAPC  C214 2900   5.587   4.235   9.311 -0.2488 -0.1706  0.1516
   22SAPC  H14R 2901   5.528   4.301   9.376 -0.0540 -0.1326  0.2911
   22SAPC  C215 2902   5.532   4.118   9.281 -0.0181 -0.2309  0.9243
   22SAPC  H15R 2903   5.437   4.085   9.325  0.1338 -1.8723  0.0882
   22SAPC  C216 2904   5.592   4.021   9.176  0.5484 -0.7412 -0.1519
   22SAPC  H16R 2905   5.637   3.932   9.223 -0.0159 -0.4598  0.9541
   22SAPC  H16S 2906   5.666   4.076   9.115  2.3694 -0.8065  1.8950
   22SAPC  C217 2907   5.476   3.990   9.075 -0.3427 -0.4471  0.3336
   22SAPC  H17R 2908   5.429   4.083   9.037  1.1346  0.1730 -0.0687
   22SAPC  H17S 2909   5.410   3.915   9.122 -1.4999  0.1505 -0.2849
   22SAPC  C218 2910   5.539   3.918   8.956 -0.2821  0.6128 -0.0648
   22SAPC  H18R 2911   5.592   3.832   9.002 -1.2135  0.6859  1.2023
   22SAPC  H18S 2912   5.615   3.984   8.908 -1.0622  0.5597 -1.4181
   22SAPC  C219 2913   5.439   3.861   8.845  0.4049  0.0345  0.7940
   22SAPC  H19R 2914   5.505   3.850   8.756 -1.9686  2.5318 -1.4380
   22SAPC  H19S 2915   5.360   3.938   8.830  0.0998 -0.0698  1.8281
   22SAPC  C220 2916   5.383   3.717   8.872 -0.3759  0.2698  0.1240
   22SAPC  H20R 2917   5.467   3.646   8.868  0.3163  0.9734  1.5729
   22SAPC  H20S 2918   5.318   3.690   8.786 -0.5519  2.6163 -0.5530
   22SAPC  H20T 2919   5.326   3.715   8.968 -0.9849 -1.5265 -0.2359
   22SAPC   C33 2920   6.492   4.150   9.815 -0.4814 -0.0806  0.5126
   22SAPC   H3X 2921   6.384   4.127   9.816 -0.3599 -0.7220 -0.3548
   22SAPC   H3Y 2922   6.561   4.063   9.816 -0.0866  0.2283  0.4604
   22SAPC   C34 2923   6.519   4.229   9.687  0.4619 -0.3628 -0.1052
   22SAPC   H4X 2924   6.614   4.281   9.711  0.1536 -0.3699  1.2372
   22SAPC   H4Y 2925   6.431   4.293   9.665 -1.7905 -2.7264  1.3594
   22SAPC   C35 2926   6.535   4.136   9.561  0.1824  0.2574 -0.5964
   22SAPC   H5X 2927   6.443   4.074   9.568  0.2261  0.3300  0.9985
   22SAPC   H5Y 2928   6.624   4.071   9.574  1.7229  1.9958 -1.8364
   22SAPC   C36 2929   6.531   4.210   9.430  0.3497  0.3201  0.3001
   22SAPC   H6X 2930   6.583   4.146   9.356  1.2893  1.0951  0.2660
   22SAPC   H6Y 2931   6.600   4.297   9.437  1.5485 -0.7209  2.5942
   22SAPC   C37 2932   6.391   4.257   9.377  0.3488 -0.4896  0.1734
   22SAPC   H7X 2933   6.372   4.324   9.463  2.4717  0.1006  0.2404
   22SAPC   H7Y 2934   6.325   4.168   9.376  0.3915 -0.5224 -0.5275
   22SAPC   C38 2935   6.398   4.328   9.242 -0.9367 -0.2803 -0.0889
   22SAPC   H8X 2936   6.455   4.423   9.246 -2.1175  0.4155  1.0356
   22SAPC   H8Y 2937   6.299   4.371   9.217 -1.0927 -0.5761  0.0137
   22SAPC   C39 2938   6.447   4.240   9.130 -0.2658  0.2991  0.6249
   22SAPC   H9X 2939   6.393   4.143   9.132 -0.3071  0.3256  0.8501
   22SAPC   H9Y 2940   6.556   4.228   9.145 -0.0272  1.9814  0.4671
   22SAPC  C310 2941   6.446   4.318   8.999 -0.3315 -0.0522 -0.7243
   22SAPC  H10X 2942   6.514   4.405   9.013 -0.7586  0.6099 -2.4486
   22SAPC  H10Y 2943   6.342   4.343   8.970 -1.7560  0.1538  3.7785
   22SAPC  C311 2944   6.502   4.234   8.888 -0.1014  0.0101 -0.5027
   22SAPC  H11X 2945   6.466   4.129   8.887 -0.6811  0.1535 -3.6557
   22SAPC  H11Y 2946   6.613   4.239   8.885 -0.1070 -0.1993 -1.0648
   22SAPC  C312 2947   6.447   4.304   8.757 -0.2822 -0.1096  0.1395
   22SAPC  H12X 2948   6.534   4.369   8.734  0.1027 -0.1314  1.4348
   22SAPC  H12Y 2949   6.353   4.364   8.767 -0.3310  0.3478 -2.4249
   22SAPC  C313 2950   6.425   4.201   8.648  0.0174 -0.1894  0.2860
   22SAPC  H13X 2951   6.328   4.148   8.659 -0.2624 -0.2124 -1.8162
   22SAPC  H13Y 2952   6.504   4.122   8.651  2.7521  2.2891 -1.3639
   22SAPC  C314 2953   6.438   4.255   8.502  0.5823  0.2519 -0.7593
   22SAPC  H14X 2954   6.371   4.344   8.496  1.8566  1.2542 -0.5315
   22SAPC  H14Y 2955   6.406   4.172   8.437 -1.5739 -0.7227  1.3853
   22SAPC  C315 2956   6.576   4.293   8.465 -0.2363 -1.4456  0.9305
   22SAPC  H15X 2957   6.658   4.227   8.501  0.6778 -1.2165 -0.6036
   22SAPC  H15Y 2958   6.606   4.392   8.507  0.4078 -0.8406 -0.8330
   22SAPC  C316 2959   6.595   4.301   8.316 -0.7400  0.5626  0.5447
   22SAPC  H16X 2960   6.585   4.199   8.273  0.7451  1.2077 -1.4855
   22SAPC  H16Y 2961   6.703   4.321   8.298 -0.7890  1.9515  1.6276
   22SAPC  C317 2962   6.499   4.387   8.241  0.1114 -0.8785  0.4157
   22SAPC  H17X 2963   6.494   4.487   8.291  1.4596 -0.8193  0.4577
   22SAPC  H17Y 2964   6.400   4.338   8.255 -0.1306 -0.6779 -0.5231
   22SAPC  C318 2965   6.526   4.395   8.085 -0.2656  0.0222 -0.3340
   22SAPC  H18X 2966   6.610   4.467   8.086 -0.9652  0.8589  0.1070
   22SAPC  H18Y 2967   6.444   4.445   8.029  1.9454  2.2433 -1.7844
   22SAPC  H18Z 2968   6.569   4.300   8.046 -1.4644  0.0262 -1.7764
   23SAPC     N 2969   1.252   1.720  11.034  0.4881  0.3454  0.1079
   23SAPC   C12 2970   1.149   1.660  10.944 -0.0697 -0.2038 -0.3438
   23SAPC  H12A 2971   1.045   1.667  10.971  0.0789  1.8167 -0.2120
   23SAPC  H12B 2972   1.157   1.552  10.943 -0.9901 -0.3232 -2.8888
   23SAPC   C13 2973   1.263   1.650  11.171  0.2389  0.1937  0.3419
   23SAPC  H13A 2974   1.282   1.544  11.165 -0.8578 -0.0145  0.3261
   23SAPC  H13B 2975   1.346   1.682  11.232 -0.3048  0.2294  1.0803
   23SAPC  H13C 2976   1.167   1.660  11.220 -0.6020  2.5707 -1.5624
   23SAPC   C14 2977   1.386   1.707  10.970 -0.1073 -0.1109  0.2268
   23SAPC  H14A 2978   1.385   1.766  10.879 -0.1766  1.1540  1.0140
   23SAPC  H14B 2979   1.453   1.739  11.049 -0.2625  0.4777  0.1305
   23SAPC  H14C 2980   1.409   1.604  10.948  1.3623 -0.2958  2.3494
   23SAPC   C15 2981   1.224   1.863  11.061  0.7839  0.1355  0.2332
   23SAPC  H15A 2982   1.145   1.853  11.134  1.0851 -2.8776  0.2834
   23SAPC  H15B 2983   1.308   1.913  11.106  0.6238 -1.8383  2.9574
   23SAPC  H15C 2984   1.190   1.918  10.974  0.7342 -1.8316 -1.0543
   23SAPC   C11 2985   1.159   1.691  10.788 -0.0738 -1.2279 -0.1646
   23SAPC  H11A 2986   1.096   1.614  10.738 -1.8656 -1.5430  2.3731
   23SAPC  H11B 2987   1.261   1.672  10.747  0.0252 -0.5402 -0.2507
   23SAPC     P 2988   0.964   1.860  10.740  0.0972 -0.1175 -0.2351
   23SAPC   O13 2989   0.879   1.814  10.850 -0.3927 -0.1690 -0.3747
   23SAPC   O14 2990   0.955   2.005  10.714  0.0626  0.3161  0.3386
   23SAPC   O12 2991   1.113   1.828  10.773 -0.3129 -0.2137 -0.0611
   23SAPC   O11 2992   0.932   1.768  10.605  0.2439  0.1821  0.3145
   23SAPC    C1 2993   0.953   1.827  10.479  0.9093  0.1014 -0.4042
   23SAPC    HA 2994   0.853   1.858  10.440 -0.6579 -0.2486  3.0055
   23SAPC    HB 2995   1.028   1.909  10.484 -0.1817  1.0572  1.3545
   23SAPC    C2 2996   1.008   1.725  10.376 -0.4943 -0.0155  0.4213
   23SAPC    HS 2997   0.994   1.766  10.274 -1.0369 -0.5285  0.2832
   23SAPC   O21 2998   0.940   1.599  10.382  0.1787  0.5142 -0.1253
   23SAPC   C21 2999   0.820   1.593  10.345  0.6488  0.5102 -0.5759
   23SAPC   O22 3000   0.746   1.682  10.300  0.2669 -0.7936  0.4065
   23SAPC   C22 3001   0.762   1.456  10.395 -0.4799  0.1414  0.1962
   23SAPC   H2R 3002   0.843   1.380  10.387 -0.7541 -0.5271  2.9645
   23SAPC   H2S 3003   0.728   1.462  10.500 -2.4773  1.8352 -0.4711
   23SAPC    C3 3004   1.161   1.704  10.383 -0.0746 -0.1661 -0.1096
   23SAPC    HX 3005   1.178   1.655  10.481 -0.4650  1.5573  0.8651
   23SAPC    HY 3006   1.217   1.800  10.380 -1.9142  0.9554 -0.7544
   23SAPC   O31 3007   1.208   1.619  10.272  0.0876  0.1857  0.4537
   23SAPC   C31 3008   1.219   1.490  10.303  0.6221 -0.0405  0.7971
   23SAPC   O32 3009   1.221   1.438  10.413  0.1475 -0.0888 -0.5075
   23SAPC   C32 3010   1.222   1.403  10.178 -0.3346 -0.1796  0.1452
   23SAPC   H2X 3011   1.245   1.301  10.215  0.7828  0.5859  1.6832
   23SAPC   H2Y 3012   1.302   1.446  10.113 -0.3347 -1.0213 -0.4252
   23SAPC   C23 3013   0.646   1.426  10.306 -0.0240  0.0423  0.3591
   23SAPC   H3R 3014   0.574   1.511  10.307  0.4905  0.6960 -3.6808
   23SAPC   H3S 3015   0.588   1.339  10.345 -3.5684  1.2778 -1.6622
   23SAPC   C24 3016   0.680   1.386  10.157  0.1668  0.1986 -0.0517
   23SAPC   H4R 3017   0.749   1.300  10.169 -0.3297 -0.2151 -0.1736
   23SAPC   H4S 3018   0.737   1.466  10.104 -2.5533  1.3056 -1.4903
   23SAPC   C25 3019   0.547   1.351  10.084 -0.0578  0.3310  0.3456
   23SAPC   H5R 3020   0.481   1.290  10.148  0.7784 -0.4518  0.4881
   23SAPC   C26 3021   0.511   1.398   9.961  0.0076 -0.3242 -0.2587
   23SAPC   H6R 3022   0.417   1.367   9.914  0.9796 -3.3088 -0.4760
   23SAPC   C27 3023   0.599   1.487   9.872  0.2947  0.1942 -0.2976
   23SAPC   H7R 3024   0.638   1.413   9.799  0.2657  1.4854 -1.6911
   23SAPC   H7S 3025   0.691   1.528   9.920  1.1155  1.2194 -2.5505
   23SAPC   C28 3026   0.510   1.597   9.809 -0.1496 -0.8301 -0.2395
   23SAPC   H8R 3027   0.464   1.656   9.889  1.9533 -2.5946  2.4661
   23SAPC   C29 3028   0.463   1.597   9.688  0.0076 -0.4148 -0.3062
   23SAPC   H9R 3029   0.410   1.689   9.657 -0.6195 -0.6899 -0.0743
   23SAPC  C210 3030   0.521   1.503   9.584  0.3607  0.3450 -0.5204
   23SAPC  H10R 3031   0.548   1.402   9.622 -0.3578  0.2795 -0.1680
   23SAPC  H10S 3032   0.616   1.549   9.550  0.6692  0.1318  0.0378
   23SAPC  C211 3033   0.422   1.498   9.469 -0.0918  0.0862 -0.2284
   23SAPC  H11R 3034   0.328   1.453   9.504  0.0772 -0.8250 -0.9274
   23SAPC  C212 3035   0.427   1.547   9.345 -0.3919 -0.1999 -0.1021
   23SAPC  H12R 3036   0.348   1.531   9.270  0.5716 -0.2681 -1.1400
   23SAPC  C213 3037   0.537   1.636   9.292 -0.5127 -0.2188 -0.2325
   23SAPC  H13R 3038   0.573   1.695   9.379  1.4144 -0.0054 -1.1280
   23SAPC  H13S 3039   0.497   1.711   9.221 -1.6421 -0.4504  0.1406
   23SAPC  C214 3040   0.660   1.571   9.238 -0.1812  0.4602  0.6413
   23SAPC  H14R 3041   0.745   1.555   9.305  0.8974  1.3596 -0.4593
   23SAPC  C215 3042   0.672   1.514   9.119  0.9987  0.0691  0.6984
   23SAPC  H15R 3043   0.769   1.473   9.088  1.1518  1.5051 -0.8769
   23SAPC  C216 3044   0.560   1.496   9.023  0.0808 -0.2952 -0.2532
   23SAPC  H16R 3045   0.556   1.574   8.945  0.7549  0.4427  0.4350
   23SAPC  H16S 3046   0.460   1.512   9.069  0.3247  0.2516  0.0938
   23SAPC  C217 3047   0.571   1.360   8.951 -0.5799  0.2096  0.3333
   23SAPC  H17R 3048   0.477   1.337   8.897 -0.2081  2.4197 -1.4028
   23SAPC  H17S 3049   0.599   1.272   9.012  3.0718  1.4531  0.6665
   23SAPC  C218 3050   0.688   1.361   8.850  0.1678  0.1350  0.5746
   23SAPC  H18R 3051   0.784   1.351   8.905  0.5336 -2.4771 -0.3765
   23SAPC  H18S 3052   0.697   1.460   8.801  3.3704 -0.1958  0.2545
   23SAPC  C219 3053   0.676   1.253   8.749 -0.6767  0.5397  0.5391
   23SAPC  H19R 3054   0.578   1.246   8.699 -0.5079  0.7665  0.1721
   23SAPC  H19S 3055   0.688   1.158   8.805 -0.8687  0.1539 -0.0787
   23SAPC  C220 3056   0.774   1.258   8.634 -0.2251 -0.9398  0.1613
   23SAPC  H20R 3057   0.735   1.192   8.553  0.2095 -0.7032 -0.2427
   23SAPC  H20S 3058   0.872   1.219   8.670 -0.1168 -0.6775  0.1478
   23SAPC  H20T 3059   0.796   1.363   8.605 -0.7623 -0.9584 -0.3384
   23SAPC   C33 3060   1.097   1.412  10.097  0.6650  0.0324 -0.2231
   23SAPC   H3X 3061   1.060   1.517  10.094 -1.5660 -0.7023 -0.1617
   23SAPC   H3Y 3062   1.008   1.360  10.138 -0.3624  2.0779  0.3195
   23SAPC   C34 3063   1.111   1.374   9.954  0.2841  0.1843 -0.4301
   23SAPC   H4X 3064   1.152   1.272   9.934 -0.9349 -0.2589 -0.7286
   23SAPC   H4Y 3065   1.176   1.450   9.905  0.7125  0.0774 -0.0412
   23SAPC   C35 3066   0.975   1.379   9.873 -0.0557 -0.2027 -0.1432
   23SAPC   H5X 3067   0.931   1.481   9.877 -2.1151 -0.9568 -1.5136
   23SAPC   H5Y 3068   0.910   1.308   9.929  0.4901 -1.6610 -1.2963
   23SAPC   C36 3069   0.996   1.339   9.723  0.9537  0.5122  0.1082
   23SAPC   H6X 3070   0.898   1.329   9.671  1.0164  0.5272 -0.0120
   23SAPC   H6Y 3071   1.047   1.240   9.732  1.8112  1.0011  0.8204
   23SAPC   C37 3072   1.085   1.430   9.637  0.4849 -0.1834  0.3800
   23SAPC   H7X 3073   1.189   1.444   9.674  0.1266  1.1531  0.9417
   23SAPC   H7Y 3074   1.029   1.524   9.619  0.2781  0.0472  2.0644
   23SAPC   C38 3075   1.112   1.366   9.498  0.3909  0.1497 -0.1520
   23SAPC   H8X 3076   1.014   1.322   9.470  0.1690  0.9102 -0.6061
   23SAPC   H8Y 3077   1.182   1.280   9.501 -1.9908 -1.8952  1.0062
   23SAPC   C39 3078   1.151   1.476   9.393 -0.2440 -0.2583 -0.1976
   23SAPC   H9X 3079   1.220   1.553   9.435  1.0065 -0.5536 -1.6473
   23SAPC   H9Y 3080   1.058   1.535   9.380 -0.4651 -0.1665  1.4766
   23SAPC  C310 3081   1.221   1.424   9.267  0.0493 -0.3463 -0.6534
   23SAPC  H10X 3082   1.160   1.347   9.217  0.7276 -1.4845  0.2168
   23SAPC  H10Y 3083   1.318   1.379   9.298 -0.4965  0.0090  1.7130
   23SAPC  C311 3084   1.247   1.527   9.149  0.6258 -0.1782 -0.6973
   23SAPC  H11X 3085   1.270   1.630   9.183  1.9337  0.2080 -2.5740
   23SAPC  H11Y 3086   1.149   1.537   9.097  0.7029 -0.7304 -0.9557
   23SAPC  C312 3087   1.350   1.483   9.046  0.1125 -0.3338 -0.5201
   23SAPC  H12X 3088   1.452   1.500   9.087 -0.8170 -0.3605  2.0059
   23SAPC  H12Y 3089   1.337   1.553   8.961 -1.1529  1.1614  0.8383
   23SAPC  C313 3090   1.340   1.349   8.992 -0.6872 -0.1524  0.8989
   23SAPC  H13X 3091   1.234   1.339   8.958 -0.4913  1.5996 -0.3491
   23SAPC  H13Y 3092   1.360   1.275   9.073  2.5093 -2.4368 -1.7190
   23SAPC  C314 3093   1.445   1.330   8.877 -1.0528 -0.3464 -0.5377
   23SAPC  H14X 3094   1.490   1.229   8.868  2.6861  1.2443 -1.7159
   23SAPC  H14Y 3095   1.532   1.395   8.898 -0.7143 -2.0317  4.3057
   23SAPC  C315 3096   1.397   1.385   8.748 -0.4645  0.1823  0.6517
   23SAPC  H15X 3097   1.337   1.475   8.772 -1.1596 -0.1573  0.2233
   23SAPC  H15Y 3098   1.322   1.318   8.700 -1.7292  2.3538 -0.5673
   23SAPC  C316 3099   1.509   1.404   8.646 -0.3664 -0.1891  0.6571
   23SAPC  H16X 3100   1.591   1.456   8.700 -2.1118  0.7094  2.5885
   23SAPC  H16Y 3101   1.472   1.464   8.560 -0.9771  0.7711  1.5692
   23SAPC  C317 3102   1.559   1.270   8.594  0.0193 -0.1637  0.5854
   23SAPC  H17X 3103   1.472   1.214   8.553  0.8142 -1.7021  0.9187
   23SAPC  H17Y 3104   1.610   1.211   8.673 -1.0879 -0.7279  0.9007
   23SAPC  C318 3105   1.658   1.291   8.476  0.0174 -0.1711  0.3289
   23SAPC  H18X 3106   1.751   1.337   8.516  0.5512 -0.4615 -0.5481
   23SAPC  H18Y 3107   1.623   1.363   8.399 -2.2030 -0.2565  1.1922
   23SAPC  H18Z 3108   1.676   1.194   8.424 -0.7965 -0.5065  0.6643
   24SAPC     N 3109   2.304   1.329  11.128 -0.2592  0.7244 -0.1870
   24SAPC   C12 3110   2.188   1.422  11.079  0.2464  0.4132 -0.5558
   24SAPC  H12A 3111   2.112   1.362  11.030  0.9678  1.2862 -2.9057
   24SAPC  H12B 3112   2.215   1.490  11.000 -0.4738 -1.0900 -2.1852
   24SAPC   C13 3113   2.371   1.259  11.014  0.2811 -0.7625  0.4687
   24SAPC  H13A 3114   2.292   1.223  10.949 -0.4878 -0.7474  1.3672
   24SAPC  H13B 3115   2.426   1.332  10.956  0.0167  0.8629  2.1828
   24SAPC  H13C 3116   2.434   1.180  11.052  0.9476 -0.9335 -0.9107
   24SAPC   C14 3117   2.406   1.409  11.196 -0.4856 -0.7292  0.2572
   24SAPC  H14A 3118   2.442   1.486  11.130  0.2471  0.2010  1.6793
   24SAPC  H14B 3119   2.357   1.463  11.276  0.7412 -0.1014  0.6060
   24SAPC  H14C 3120   2.492   1.354  11.232 -1.5765 -1.6599  1.5508
   24SAPC   C15 3121   2.249   1.232  11.230 -0.0661  0.2668 -0.2931
   24SAPC  H15A 3122   2.324   1.171  11.278  0.0738  1.2788  0.8043
   24SAPC  H15B 3123   2.193   1.283  11.307  0.1351 -1.0389  0.7609
   24SAPC  H15C 3124   2.182   1.159  11.185 -0.7746  0.5988  0.1974
   24SAPC   C11 3125   2.121   1.515  11.185  0.7604  0.3892 -0.5483
   24SAPC  H11A 3126   2.091   1.455  11.273  1.4486  0.0331 -0.5471
   24SAPC  H11B 3127   2.024   1.554  11.149 -1.5156 -2.6368  1.7991
   24SAPC     P 3128   2.225   1.744  11.119 -0.3366  0.3043 -0.0736
   24SAPC   O13 3129   2.106   1.834  11.135  0.4284 -0.6682 -0.4846
   24SAPC   O14 3130   2.354   1.811  11.150  0.5157 -0.8311 -0.7583
   24SAPC   O12 3131   2.209   1.617  11.221 -0.0693 -0.5301 -0.5570
   24SAPC   O11 3132   2.234   1.685  10.974  0.4223  0.0809 -0.2463
   24SAPC    C1 3133   2.330   1.734  10.881 -0.1186 -0.0212  1.3893
   24SAPC    HA 3134   2.351   1.843  10.883 -0.8886  0.3972 -2.9701
   24SAPC    HB 3135   2.426   1.689  10.914 -0.0933 -0.4498  0.7588
   24SAPC    C2 3136   2.297   1.681  10.736 -0.4343  0.7192 -0.2682
   24SAPC    HS 3137   2.387   1.709  10.677 -0.7186  0.5305 -0.7980
   24SAPC   O21 3138   2.176   1.737  10.682  0.0251 -1.0731  0.2251
   24SAPC   C21 3139   2.191   1.863  10.655  0.2528 -0.7634  0.5079
   24SAPC   O22 3140   2.297   1.925  10.652  1.0108  0.5394  0.3635
   24SAPC   C22 3141   2.058   1.913  10.611  0.0221 -0.3669  0.7697
   24SAPC   H2R 3142   1.979   1.835  10.605 -2.4350  1.9068  1.6083
   24SAPC   H2S 3143   2.017   1.996  10.672  1.4148  1.7359 -0.9937
   24SAPC    C3 3144   2.299   1.522  10.744  0.2067  0.1932  0.0476
   24SAPC    HX 3145   2.213   1.511  10.814  0.6031 -2.0729  0.2717
   24SAPC    HY 3146   2.384   1.468  10.791 -0.3804 -0.7836  0.0187
   24SAPC   O31 3147   2.266   1.453  10.625 -0.6927 -0.3853 -0.1396
   24SAPC   C31 3148   2.353   1.460  10.521  0.3114 -0.2220 -0.2899
   24SAPC   O32 3149   2.470   1.493  10.531 -0.0213 -0.2219 -0.5842
   24SAPC   C32 3150   2.289   1.425  10.391 -0.4398  0.4800  0.8128
   24SAPC   H2X 3151   2.178   1.432  10.392 -0.5992 -1.3689  2.1269
   24SAPC   H2Y 3152   2.307   1.318  10.368 -0.7826 -0.2287  3.4519
   24SAPC   C23 3153   2.070   1.971  10.471 -0.3336  0.6244  0.3590
   24SAPC   H3R 3154   2.148   2.051  10.462  1.5512 -1.2694 -1.2999
   24SAPC   H3S 3155   1.974   2.026  10.465 -0.8583 -0.1818  1.2100
   24SAPC   C24 3156   2.091   1.870  10.354  0.4766 -0.2041  0.0511
   24SAPC   H4R 3157   2.033   1.779  10.381  0.7894  0.0799  1.7866
   24SAPC   H4S 3158   2.201   1.850  10.347  0.3457 -1.4176  1.0110
   24SAPC   C25 3159   2.039   1.924  10.219  0.0156 -0.3546  0.0895
   24SAPC   H5R 3160   1.932   1.945  10.234  0.3149  0.3158  1.4825
   24SAPC   C26 3161   2.104   1.927  10.101  0.7377  0.1337  0.3243
   24SAPC   H6R 3162   2.042   1.970  10.021 -1.3289 -0.0617  1.7471
   24SAPC   C27 3163   2.244   1.877  10.061 -0.0647 -0.2051  0.1319
   24SAPC   H7R 3164   2.229   1.771  10.030 -1.1783 -0.4611  1.4076
   24SAPC   H7S 3165   2.318   1.870  10.144  0.1834 -2.2749 -0.2123
   24SAPC   C28 3166   2.304   1.972   9.956  0.1354 -0.3355 -0.0263
   24SAPC   H8R 3167   2.264   2.074   9.967 -0.3485 -0.6148  1.0082
   24SAPC   C29 3168   2.387   1.954   9.852 -0.4524  0.1755  0.3288
   24SAPC   H9R 3169   2.431   2.037   9.795  0.0468  0.2384  0.7963
   24SAPC  C210 3170   2.450   1.822   9.806  0.2257 -0.7891  0.2264
   24SAPC  H10R 3171   2.423   1.741   9.877 -1.0900 -0.1628  0.4736
   24SAPC  H10S 3172   2.560   1.830   9.790  0.1006 -1.7738 -1.3001
   24SAPC  C211 3173   2.383   1.794   9.677  0.0448 -0.3744 -0.1203
   24SAPC  H11R 3174   2.295   1.729   9.680 -1.5980  1.8118  1.4982
   24SAPC  C212 3175   2.431   1.829   9.557  0.1550  0.9600  0.0637
   24SAPC  H12R 3176   2.375   1.796   9.468  0.3056  2.2845 -0.5529
   24SAPC  C213 3177   2.563   1.896   9.521 -0.4881  0.6007  0.0979
   24SAPC  H13R 3178   2.583   1.973   9.599 -0.6388  0.1296  0.6050
   24SAPC  H13S 3179   2.552   1.969   9.438 -0.6876  0.4981  0.0341
   24SAPC  C214 3180   2.662   1.782   9.497 -0.0656 -0.5997 -0.4885
   24SAPC  H14R 3181   2.683   1.728   9.590  0.7526  0.9915  0.2865
   24SAPC  C215 3182   2.728   1.761   9.382 -0.2040 -0.4999  0.0646
   24SAPC  H15R 3183   2.800   1.679   9.366 -0.1121 -0.5090  0.5190
   24SAPC  C216 3184   2.693   1.840   9.253  0.1366 -0.1716 -0.3177
   24SAPC  H16R 3185   2.762   1.926   9.242 -1.9659  1.6204 -0.2793
   24SAPC  H16S 3186   2.593   1.888   9.263 -0.7856 -2.2844  1.3464
   24SAPC  C217 3187   2.708   1.752   9.125 -0.0571 -0.8435 -0.1558
   24SAPC  H17R 3188   2.655   1.816   9.051 -0.9484 -0.7397  0.5620
   24SAPC  H17S 3189   2.665   1.651   9.142  0.6614 -1.6910 -2.7957
   24SAPC  C218 3190   2.851   1.722   9.068 -0.1947 -0.4083  0.1187
   24SAPC  H18R 3191   2.840   1.656   8.979 -1.2473  1.3598 -1.1058
   24SAPC  H18S 3192   2.908   1.663   9.143 -1.1748 -2.1273 -0.4237
   24SAPC  C219 3193   2.938   1.842   9.043  0.2047 -0.4695 -0.0807
   24SAPC  H19R 3194   3.040   1.809   9.013  0.8266  0.7727  0.6047
   24SAPC  H19S 3195   2.952   1.891   9.141 -2.5125  1.8945 -0.7344
   24SAPC  C220 3196   2.885   1.942   8.940  0.2490 -0.1483  0.2740
   24SAPC  H20R 3197   2.965   2.016   8.918  0.0499 -0.1508 -0.4692
   24SAPC  H20S 3198   2.803   2.009   8.974 -0.9164  0.6465 -3.6116
   24SAPC  H20T 3199   2.859   1.886   8.848  2.3960 -0.1956 -0.3529
   24SAPC   C33 3200   2.349   1.518  10.284 -0.3063 -0.3517  0.9332
   24SAPC   H3X 3201   2.455   1.542  10.305 -0.5779  0.4813  1.3972
   24SAPC   H3Y 3202   2.287   1.610  10.282  0.0447 -0.0656 -2.2188
   24SAPC   C34 3203   2.355   1.445  10.146  0.3059 -0.1554 -0.7386
   24SAPC   H4X 3204   2.251   1.428  10.112  0.0012  1.4382 -0.6400
   24SAPC   H4Y 3205   2.412   1.349  10.153  1.8382  0.8454  2.7895
   24SAPC   C35 3206   2.445   1.521  10.055 -0.7044 -0.6085 -0.1624
   24SAPC   H5X 3207   2.540   1.540  10.109 -0.4508 -0.6214 -0.6061
   24SAPC   H5Y 3208   2.411   1.626  10.038  2.3427  0.2227 -1.8670
   24SAPC   C36 3209   2.472   1.447   9.923 -0.3644 -0.8231 -0.4672
   24SAPC   H6X 3210   2.512   1.344   9.933 -0.2556 -0.9893 -2.1942
   24SAPC   H6Y 3211   2.531   1.505   9.849  0.1474 -1.2448 -0.3974
   24SAPC   C37 3212   2.343   1.430   9.843  0.6100  0.3675 -0.4936
   24SAPC   H7X 3213   2.290   1.526   9.858 -0.5614 -0.2254 -0.6649
   24SAPC   H7Y 3214   2.276   1.356   9.893  0.3613  1.2510  0.5136
   24SAPC   C38 3215   2.354   1.386   9.699  0.6803  0.4769 -0.5946
   24SAPC   H8X 3216   2.397   1.283   9.699  1.2541  0.7032 -1.2653
   24SAPC   H8Y 3217   2.427   1.454   9.649  1.9327 -0.6969 -0.4246
   24SAPC   C39 3218   2.218   1.385   9.624 -0.2908  0.3240 -0.3308
   24SAPC   H9X 3219   2.195   1.493   9.616  1.6176  0.8301  0.5274
   24SAPC   H9Y 3220   2.139   1.327   9.677 -0.1643  1.4845  1.1854
   24SAPC  C310 3221   2.222   1.329   9.475 -0.8192  0.0619 -0.5721
   24SAPC  H10X 3222   2.122   1.328   9.428 -1.6784 -1.0428  1.2039
   24SAPC  H10Y 3223   2.256   1.223   9.480 -2.3169 -0.4255 -0.3811
   24SAPC  C311 3224   2.322   1.411   9.391  0.4887  0.5611  0.7942
   24SAPC  H11X 3225   2.419   1.398   9.444  0.4384  1.8215  1.2183
   24SAPC  H11Y 3226   2.287   1.515   9.379 -1.1955 -0.2625 -2.4873
   24SAPC  C312 3227   2.335   1.346   9.257 -0.4142 -0.5244  0.9222
   24SAPC  H12X 3228   2.235   1.344   9.209  0.3231  0.7116 -0.7472
   24SAPC  H12Y 3229   2.372   1.241   9.260  1.2179 -0.1778 -2.2259
   24SAPC  C313 3230   2.437   1.417   9.169  0.5932 -0.1943  0.2565
   24SAPC  H13X 3231   2.535   1.419   9.221  2.4465  0.9251 -2.9769
   24SAPC  H13Y 3232   2.409   1.523   9.149 -1.9637 -1.2437 -2.4285
   24SAPC  C314 3233   2.450   1.361   9.031  0.0817  0.4703 -0.4889
   24SAPC  H14X 3234   2.347   1.370   8.990 -1.0031 -1.7732  1.5309
   24SAPC  H14Y 3235   2.482   1.255   9.027 -1.8355 -0.1381 -0.8622
   24SAPC  C315 3236   2.543   1.449   8.944 -0.2495 -0.3085  0.4683
   24SAPC  H15X 3237   2.646   1.422   8.975 -0.4253  0.0515  1.3900
   24SAPC  H15Y 3238   2.527   1.557   8.963  1.3893  0.3123 -1.3096
   24SAPC  C316 3239   2.509   1.428   8.796 -0.4885 -0.2241  0.6645
   24SAPC  H16X 3240   2.414   1.477   8.767 -0.7596 -0.9142  0.3640
   24SAPC  H16Y 3241   2.491   1.320   8.777 -0.2786 -0.1363 -0.0731
   24SAPC  C317 3242   2.631   1.471   8.711  0.0148 -0.7437 -0.1735
   24SAPC  H17X 3243   2.654   1.397   8.632  0.5316 -1.0722  0.2787
   24SAPC  H17Y 3244   2.720   1.458   8.777  0.1778  2.0958  0.2971
   24SAPC  C318 3245   2.608   1.612   8.647 -0.4904  0.1526  0.1765
   24SAPC  H18X 3246   2.531   1.621   8.568  0.4195 -1.4491 -0.9458
   24SAPC  H18Y 3247   2.708   1.644   8.612 -0.1619 -1.4058 -0.3814
   24SAPC  H18Z 3248   2.581   1.682   8.729 -0.8433  0.3372 -0.0946
   25SAPC     N 3249   6.646   2.048   5.884  0.0143  0.5250  1.1257
   25SAPC   C12 3250   6.594   2.030   6.022 -0.1209 -0.1443 -0.7376
   25SAPC  H12A 3251   6.517   2.106   6.031  1.3262  1.0812  2.4586
   25SAPC  H12B 3252   6.671   2.061   6.090  0.2445 -0.2392 -1.1027
   25SAPC   C13 3253   6.528   2.041   5.792  0.0157 -0.3066  0.8027
   25SAPC  H13A 3254   6.468   2.130   5.782  0.0694 -0.4777 -2.1299
   25SAPC  H13B 3255   6.554   2.028   5.688  0.7474  0.5903  0.8722
   25SAPC  H13C 3256   6.461   1.960   5.818 -2.1211  0.3895 -1.9957
   25SAPC   C14 3257   6.722   2.164   5.855  0.3311  0.1841 -0.3541
   25SAPC  H14A 3258   6.680   2.256   5.895  1.8876 -0.7251  3.9480
   25SAPC  H14B 3259   6.825   2.162   5.888  0.1545  0.9568  0.2737
   25SAPC  H14C 3260   6.743   2.177   5.750  1.1966  1.8507 -0.0137
   25SAPC   C15 3261   6.719   1.923   5.844 -0.5979 -0.5812  0.3400
   25SAPC  H15A 3262   6.733   1.917   5.737 -0.5783 -1.7078  0.3933
   25SAPC  H15B 3263   6.817   1.915   5.888  0.1656  0.8418 -1.0230
   25SAPC  H15C 3264   6.658   1.836   5.866 -1.2101  0.0804  1.3477
   25SAPC   C11 3265   6.532   1.892   6.068 -0.6270 -0.4725  0.3256
   25SAPC  H11A 3266   6.490   1.901   6.170  0.0536 -1.2836  0.6871
   25SAPC  H11B 3267   6.621   1.827   6.063  0.4223  0.9088  0.5301
   25SAPC     P 3268   6.420   1.696   5.932 -0.2860  0.7102 -0.1077
   25SAPC   O13 3269   6.280   1.655   5.911  0.0685  0.3135  0.1077
   25SAPC   O14 3270   6.519   1.683   5.816  0.2437  0.3391 -0.7768
   25SAPC   O12 3271   6.426   1.847   5.987  0.6792 -0.2387 -0.1646
   25SAPC   O11 3272   6.483   1.621   6.062 -0.4180  0.4203 -0.1056
   25SAPC    C1 3273   6.430   1.491   6.098 -0.1584  0.0585  0.6097
   25SAPC    HA 3274   6.393   1.441   6.006 -0.7843 -1.3351  1.5660
   25SAPC    HB 3275   6.511   1.432   6.146 -0.6605 -1.4108 -0.2813
   25SAPC    C2 3276   6.315   1.504   6.202 -0.2312  0.1900  0.4101
   25SAPC    HS 3277   6.226   1.550   6.155  0.4562  0.1403 -1.0131
   25SAPC   O21 3278   6.378   1.580   6.302 -0.2335  0.5150  0.3591
   25SAPC   C21 3279   6.326   1.699   6.321  0.5757 -0.2311  0.2304
   25SAPC   O22 3280   6.235   1.749   6.257  0.3295 -0.3617 -0.2008
   25SAPC   C22 3281   6.406   1.780   6.423 -0.7409 -0.2597  0.3038
   25SAPC   H2R 3282   6.464   1.711   6.488  1.0585  0.4794 -0.4470
   25SAPC   H2S 3283   6.475   1.852   6.375 -0.5542 -1.0600 -0.6738
   25SAPC    C3 3284   6.274   1.368   6.258 -0.2002  0.6023 -0.3710
   25SAPC    HX 3285   6.362   1.303   6.277  0.2624  0.8905 -1.4134
   25SAPC    HY 3286   6.224   1.307   6.179 -1.4574  0.2935  0.6297
   25SAPC   O31 3287   6.209   1.383   6.387 -0.0834  0.2088 -0.0950
   25SAPC   C31 3288   6.082   1.349   6.387  0.4875  0.3895 -0.0302
   25SAPC   O32 3289   6.027   1.287   6.299 -0.0473  0.1193  0.1111
   25SAPC   C32 3290   6.004   1.384   6.516  0.3195 -0.2363  0.1247
   25SAPC   H2X 3291   6.016   1.298   6.585  1.4449 -0.2103 -0.0330
   25SAPC   H2Y 3292   5.897   1.404   6.493  0.7017  1.1570 -0.5506
   25SAPC   C23 3293   6.316   1.863   6.518 -0.3393  0.5680 -0.7133
   25SAPC   H3R 3294   6.233   1.795   6.546  0.3793 -0.7267 -1.6026
   25SAPC   H3S 3295   6.268   1.954   6.476 -1.8722  0.2061  0.1714
   25SAPC   C24 3296   6.391   1.906   6.649 -0.6039 -0.3145 -0.6714
   25SAPC   H4R 3297   6.434   1.812   6.690  0.6308 -0.1009 -1.4174
   25SAPC   H4S 3298   6.323   1.936   6.732  0.6448 -2.3505  1.2013
   25SAPC   C25 3299   6.504   1.999   6.626 -0.5900  0.0489 -0.1604
   25SAPC   H5R 3300   6.504   2.045   6.526 -1.5781 -3.6960 -2.0876
   25SAPC   C26 3301   6.594   2.041   6.716  0.4902  0.0752 -0.0668
   25SAPC   H6R 3302   6.664   2.120   6.686  1.3486 -1.2782 -1.7617
   25SAPC   C27 3303   6.605   1.990   6.857  0.2903 -1.0088 -0.2361
   25SAPC   H7R 3304   6.709   1.952   6.870  0.7140 -1.0676 -3.0218
   25SAPC   H7S 3305   6.536   1.905   6.876 -0.3671 -0.3589  0.3065
   25SAPC   C28 3306   6.559   2.102   6.956 -0.8341 -0.9049  0.3281
   25SAPC   H8R 3307   6.539   2.203   6.919  1.1437  0.1578  1.9291
   25SAPC   C29 3308   6.563   2.086   7.088  0.4669 -0.1505 -0.7048
   25SAPC   H9R 3309   6.521   2.175   7.137 -3.3824 -0.9248 -2.2370
   25SAPC  C210 3310   6.610   1.966   7.169  0.4855  0.1143 -0.3118
   25SAPC  H10R 3311   6.654   1.892   7.099 -1.5236 -0.9508 -0.5098
   25SAPC  H10S 3312   6.521   1.922   7.220  0.6060 -0.4305 -0.5680
   25SAPC  C211 3313   6.706   1.999   7.280  0.4997 -0.4990 -0.5274
   25SAPC  H11R 3314   6.808   2.007   7.240  0.2859  2.8284 -0.6594
   25SAPC  C212 3315   6.679   2.004   7.411  0.7814 -0.0038 -0.0518
   25SAPC  H12R 3316   6.758   2.017   7.488 -1.2350 -1.6820  2.4737
   25SAPC  C213 3317   6.539   1.994   7.473  0.0374 -0.6697 -0.6585
   25SAPC  H13R 3318   6.460   2.003   7.395 -0.1832 -3.0814 -0.7878
   25SAPC  H13S 3319   6.527   2.084   7.537 -1.2381 -0.6878 -0.8531
   25SAPC  C214 3320   6.502   1.865   7.532 -0.1144 -0.6890 -0.0034
   25SAPC  H14R 3321   6.451   1.794   7.465 -0.9008  0.6497 -0.8785
   25SAPC  C215 3322   6.535   1.825   7.658  0.3522 -0.2068  0.1576
   25SAPC  H15R 3323   6.506   1.728   7.700  0.1721  0.6165  2.0459
   25SAPC  C216 3324   6.599   1.920   7.759  0.5554  0.6452  0.0708
   25SAPC  H16R 3325   6.617   2.018   7.709  0.2871 -0.0173 -1.3607
   25SAPC  H16S 3326   6.693   1.869   7.790  0.0634  0.5819  1.5443
   25SAPC  C217 3327   6.524   1.938   7.895 -0.0015  0.0684 -0.7375
   25SAPC  H17R 3328   6.468   1.845   7.918  0.1166  0.5551  1.8460
   25SAPC  H17S 3329   6.449   2.016   7.870 -0.6860 -0.6371 -0.9451
   25SAPC  C218 3330   6.618   1.971   8.010  0.1236  0.0739 -0.1425
   25SAPC  H18R 3331   6.707   2.028   7.974 -0.0067 -1.3527 -3.0970
   25SAPC  H18S 3332   6.649   1.877   8.060  0.6731 -0.1857 -0.9445
   25SAPC  C219 3333   6.553   2.053   8.122  0.0733  0.0212 -0.2060
   25SAPC  H19R 3334   6.469   1.996   8.167 -1.0525  1.9897  0.2967
   25SAPC  H19S 3335   6.512   2.153   8.095  0.6618  0.6410  1.1063
   25SAPC  C220 3336   6.646   2.086   8.243  0.4987 -0.4016 -0.0260
   25SAPC  H20R 3337   6.677   2.001   8.307  0.9062 -0.1671  0.0923
   25SAPC  H20S 3338   6.595   2.167   8.300 -2.3646  0.1998 -3.1269
   25SAPC  H20T 3339   6.742   2.129   8.205 -0.7915  1.5364 -1.3032
   25SAPC   C33 3340   6.060   1.507   6.589 -0.0471 -0.3368 -0.2744
   25SAPC   H3X 3341   6.048   1.603   6.535 -0.7802 -0.0082  0.4581
   25SAPC   H3Y 3342   6.169   1.485   6.588 -0.3445 -1.9744 -1.4672
   25SAPC   C34 3343   6.005   1.532   6.730 -0.4973  0.8318  0.1935
   25SAPC   H4X 3344   6.016   1.439   6.790 -1.6418  0.2650 -0.4395
   25SAPC   H4Y 3345   5.897   1.556   6.727 -0.1808  2.3034 -0.6812
   25SAPC   C35 3346   6.076   1.652   6.783 -0.3735  0.5741 -0.0492
   25SAPC   H5X 3347   6.046   1.735   6.716 -1.8062 -1.6512 -2.3974
   25SAPC   H5Y 3348   6.183   1.627   6.764 -0.0009  1.4397  0.8516
   25SAPC   C36 3349   6.049   1.678   6.928 -0.6335 -0.6002 -0.2323
   25SAPC   H6X 3350   5.939   1.666   6.941 -0.9101  2.6363  1.3126
   25SAPC   H6Y 3351   6.076   1.784   6.946  1.2726 -0.8003 -1.5401
   25SAPC   C37 3352   6.123   1.578   7.022  0.5607 -0.1978 -0.2578
   25SAPC   H7X 3353   6.233   1.592   7.018  0.6750 -0.4628  1.1928
   25SAPC   H7Y 3354   6.097   1.471   7.010  2.0194 -0.3978 -2.2055
   25SAPC   C38 3355   6.077   1.590   7.169  0.0720 -0.5385  0.1436
   25SAPC   H8X 3356   6.136   1.510   7.220  0.2835 -0.0144  0.7251
   25SAPC   H8Y 3357   5.972   1.561   7.190 -0.9321  0.1183 -3.3584
   25SAPC   C39 3358   6.097   1.725   7.236  0.1089 -0.7370 -0.0429
   25SAPC   H9X 3359   6.022   1.800   7.202  0.9895 -0.0272 -0.4536
   25SAPC   H9Y 3360   6.184   1.782   7.199  0.3187 -2.0766 -1.7362
   25SAPC  C310 3361   6.097   1.703   7.389 -0.2182  0.0000 -0.3385
   25SAPC  H10X 3362   6.169   1.622   7.410  0.7542  0.9191 -0.0672
   25SAPC  H10Y 3363   5.999   1.654   7.410 -0.0813  0.3990  1.3450
   25SAPC  C311 3364   6.125   1.823   7.476  0.2909  1.0335 -0.0594
   25SAPC  H11X 3365   6.056   1.905   7.448 -1.5419  0.1487  1.6704
   25SAPC  H11Y 3366   6.231   1.852   7.459  0.5332  0.6491  0.7639
   25SAPC  C312 3367   6.113   1.780   7.621 -0.7465  0.7713  0.1568
   25SAPC  H12X 3368   6.199   1.712   7.642 -1.0795 -0.1452 -1.2749
   25SAPC  H12Y 3369   6.016   1.728   7.634 -1.1973  1.5837  0.1186
   25SAPC  C313 3370   6.130   1.902   7.715 -0.3787 -0.0499 -0.9009
   25SAPC  H13X 3371   6.053   1.976   7.684 -0.0189  0.0247 -1.6371
   25SAPC  H13Y 3372   6.225   1.959   7.699 -0.7609  1.7502  2.2855
   25SAPC  C314 3373   6.128   1.869   7.867 -0.4618  0.0468 -0.0595
   25SAPC  H14X 3374   6.208   1.795   7.890 -0.0554  0.6480  0.5075
   25SAPC  H14Y 3375   6.025   1.830   7.883 -0.4507  0.7677  2.1209
   25SAPC  C315 3376   6.146   1.989   7.960  0.0745 -0.0445 -0.3761
   25SAPC  H15X 3377   6.062   2.058   7.939 -0.0351 -0.5371 -1.6262
   25SAPC  H15Y 3378   6.236   2.051   7.947  0.7805 -0.9655  0.0061
   25SAPC  C316 3379   6.141   1.945   8.100  0.3984  0.1514 -0.5041
   25SAPC  H16X 3380   6.143   2.042   8.155  0.7302  0.4329 -1.0019
   25SAPC  H16Y 3381   6.238   1.897   8.126  0.2019 -0.9152 -1.6641
   25SAPC  C317 3382   6.021   1.864   8.139 -0.4204  0.0879 -0.6508
   25SAPC  H17X 3383   6.028   1.759   8.103 -0.4168 -0.9430  2.0847
   25SAPC  H17Y 3384   5.931   1.909   8.091 -0.8257 -2.8292 -2.8799
   25SAPC  C318 3385   6.003   1.856   8.290 -0.9577  0.0145  0.4792
   25SAPC  H18X 3386   5.987   1.956   8.335 -0.5222  0.4883 -0.3835
   25SAPC  H18Y 3387   6.095   1.810   8.333 -0.1727  0.5766 -0.5653
   25SAPC  H18Z 3388   5.920   1.789   8.322 -1.3409 -0.1786 -0.8581
   26SAPC     N 3389   4.374   4.017   6.320 -0.0695 -0.1086  0.4262
   26SAPC   C12 3390   4.249   4.074   6.374  0.5444  0.2590  0.6437
   26SAPC  H12A 3391   4.197   3.991   6.420 -0.1514 -1.2965 -2.6410
   26SAPC  H12B 3392   4.183   4.102   6.293  2.1620 -0.2731 -0.9103
   26SAPC   C13 3393   4.440   4.104   6.221  0.9204 -0.2364  0.1453
   26SAPC  H13A 3394   4.537   4.063   6.196  0.1582 -1.7542 -0.5130
   26SAPC  H13B 3395   4.382   4.113   6.130 -1.1115 -5.6372  0.5321
   26SAPC  H13C 3396   4.466   4.201   6.260  2.7695  0.2722 -2.1059
   26SAPC   C14 3397   4.469   3.991   6.436 -0.3732  1.3300  0.3796
   26SAPC  H14A 3398   4.490   4.085   6.486 -0.1899  0.1679  2.5921
   26SAPC  H14B 3399   4.418   3.929   6.508  0.9632 -0.5393 -0.1968
   26SAPC  H14C 3400   4.565   3.949   6.410 -0.3492  0.8239  1.2408
   26SAPC   C15 3401   4.345   3.884   6.255 -0.1315 -0.3058 -0.0702
   26SAPC  H15A 3402   4.434   3.824   6.241  1.4281  1.5365  1.3371
   26SAPC  H15B 3403   4.268   3.832   6.310 -1.0263 -0.3854 -1.3488
   26SAPC  H15C 3404   4.309   3.900   6.155 -0.5841 -2.8835 -0.4032
   26SAPC   C11 3405   4.263   4.193   6.473 -0.1408  0.3005  0.0238
   26SAPC  H11A 3406   4.265   4.159   6.579  3.3481  0.4008  0.1024
   26SAPC  H11B 3407   4.165   4.245   6.481 -0.3065  0.2410 -1.3613
   26SAPC     P 3408   4.359   4.433   6.387 -0.0320 -0.4197 -0.3019
   26SAPC   O13 3409   4.381   4.420   6.240 -0.0237  0.0143  0.2355
   26SAPC   O14 3410   4.238   4.508   6.433  0.1036  0.4294  0.8574
   26SAPC   O12 3411   4.371   4.288   6.451  0.4322 -0.0084 -0.0426
   26SAPC   O11 3412   4.487   4.505   6.441 -0.6094  0.0417  0.1315
   26SAPC    C1 3413   4.620   4.449   6.427 -0.5252  0.0751  0.0259
   26SAPC    HA 3414   4.641   4.409   6.326 -0.2688 -1.3617  0.6293
   26SAPC    HB 3415   4.689   4.534   6.447  0.2492 -0.3591 -0.7782
   26SAPC    C2 3416   4.649   4.333   6.532 -0.8358  0.2606 -0.1422
   26SAPC    HS 3417   4.621   4.234   6.490 -0.9363  0.3488 -0.2857
   26SAPC   O21 3418   4.581   4.355   6.654 -0.1244 -0.0204  0.5049
   26SAPC   C21 3419   4.524   4.252   6.712  0.6677  0.5595 -0.6021
   26SAPC   O22 3420   4.557   4.137   6.702 -0.2655  0.5848  0.1882
   26SAPC   C22 3421   4.408   4.303   6.792 -0.0431 -1.1562 -0.1932
   26SAPC   H2R 3422   4.396   4.412   6.777 -1.9467 -0.6434  3.7869
   26SAPC   H2S 3423   4.313   4.256   6.758 -2.0047  2.4911 -0.1822
   26SAPC    C3 3424   4.798   4.328   6.564  0.1427  0.1956 -0.7518
   26SAPC    HX 3425   4.825   4.415   6.628  0.1299  0.1543 -0.6902
   26SAPC    HY 3426   4.855   4.326   6.469  0.1029 -0.5806 -0.7603
   26SAPC   O31 3427   4.840   4.224   6.654  0.2729 -0.3167  0.2375
   26SAPC   C31 3428   4.868   4.112   6.599  0.7890  0.3778 -0.4541
   26SAPC   O32 3429   4.851   4.080   6.482  0.0631  0.3184 -1.0694
   26SAPC   C32 3430   4.941   4.011   6.688 -0.1613 -0.0154 -0.5293
   26SAPC   H2X 3431   5.043   4.000   6.647 -0.1970 -4.3169  0.0450
   26SAPC   H2Y 3432   4.909   3.905   6.691  3.7864 -1.3264  0.8271
   26SAPC   C23 3433   4.419   4.256   6.941 -0.8199 -0.2564  0.6194
   26SAPC   H3R 3434   4.449   4.149   6.949  1.6259  0.3957  0.8710
   26SAPC   H3S 3435   4.320   4.266   6.990 -1.3393 -0.7063 -0.2995
   26SAPC   C24 3436   4.517   4.343   7.019  0.4840 -0.1874 -0.1214
   26SAPC   H4R 3437   4.501   4.325   7.127 -2.5722 -0.2113 -0.4871
   26SAPC   H4S 3438   4.504   4.451   6.994  1.3317 -0.1548 -0.4458
   26SAPC   C25 3439   4.665   4.305   7.001  0.7167 -0.1042  0.4234
   26SAPC   H5R 3440   4.698   4.307   6.896 -1.5462 -2.1785 -0.4232
   26SAPC   C26 3441   4.753   4.280   7.099 -0.1983 -0.2193 -0.8115
   26SAPC   H6R 3442   4.855   4.239   7.088 -0.6423 -3.3868  4.0505
   26SAPC   C27 3443   4.726   4.272   7.244  0.8202 -1.1328 -0.4249
   26SAPC   H7R 3444   4.619   4.242   7.249  0.3861  0.3514 -0.3963
   26SAPC   H7S 3445   4.736   4.371   7.292  1.5269 -1.9193  1.1388
   26SAPC   C28 3446   4.809   4.174   7.323  0.5446 -0.5238  0.4520
   26SAPC   H8R 3447   4.798   4.070   7.290 -1.0880 -0.2469  0.0102
   26SAPC   C29 3448   4.878   4.207   7.436  1.1844 -0.1961 -0.3719
   26SAPC   H9R 3449   4.918   4.124   7.495  0.8506  0.0666  0.2362
   26SAPC  C210 3450   4.884   4.340   7.506  0.0807  0.3478  0.1260
   26SAPC  H10R 3451   4.912   4.421   7.435  1.5689 -1.0853 -0.9986
   26SAPC  H10S 3452   4.975   4.321   7.568  1.4925  0.7803 -1.7416
   26SAPC  C211 3453   4.778   4.381   7.607 -0.2510  0.2391 -0.0884
   26SAPC  H11R 3454   4.693   4.434   7.562 -1.3547 -1.7212 -0.4243
   26SAPC  C212 3455   4.767   4.336   7.731 -0.0548 -0.6084  0.1678
   26SAPC  H12R 3456   4.691   4.373   7.801 -0.0605 -0.3744  0.0421
   26SAPC  C213 3457   4.872   4.253   7.791  0.0265 -0.2332 -0.6504
   26SAPC  H13R 3458   4.908   4.182   7.713  0.3687 -4.0171  2.6353
   26SAPC  H13S 3459   4.813   4.184   7.855  1.4152 -0.6921  0.2009
   26SAPC  C214 3460   4.975   4.333   7.864  0.5975 -0.3098 -0.2735
   26SAPC  H14R 3461   5.046   4.381   7.796 -1.3306 -0.9194 -2.8845
   26SAPC  C215 3462   5.005   4.327   7.992 -0.6326 -0.0951  0.4050
   26SAPC  H15R 3463   5.084   4.392   8.033  1.1424 -0.1160 -2.6899
   26SAPC  C216 3464   4.933   4.248   8.094  0.0836 -0.2943 -0.5369
   26SAPC  H16R 3465   4.995   4.162   8.130 -0.3620 -1.3466 -2.1635
   26SAPC  H16S 3466   4.844   4.189   8.063 -0.0832 -1.5691  2.0767
   26SAPC  C217 3467   4.876   4.333   8.210  0.3946 -0.1528  1.2737
   26SAPC  H17R 3468   4.801   4.403   8.170  0.5027 -1.3217 -1.1210
   26SAPC  H17S 3469   4.957   4.377   8.272  0.7809 -1.2415  1.5696
   26SAPC  C218 3470   4.822   4.243   8.309  0.1975  0.3090 -0.2322
   26SAPC  H18R 3471   4.891   4.180   8.369 -2.0149  0.6620  2.9504
   26SAPC  H18S 3472   4.744   4.178   8.263 -0.5427 -0.7080  2.2938
   26SAPC  C219 3473   4.736   4.311   8.421 -0.4410  0.5863  0.5013
   26SAPC  H19R 3474   4.690   4.234   8.488  1.7796  0.3887  1.9375
   26SAPC  H19S 3475   4.658   4.375   8.376  0.2361  1.8759  1.1067
   26SAPC  C220 3476   4.830   4.393   8.512 -0.4850  0.7295 -0.3514
   26SAPC  H20R 3477   4.897   4.327   8.572 -0.2647  2.0416  0.9162
   26SAPC  H20S 3478   4.765   4.438   8.589  0.3669  1.5034 -0.0548
   26SAPC  H20T 3479   4.876   4.478   8.457  0.1814  0.7589  0.2284
   26SAPC   C33 3480   4.960   4.068   6.825 -0.2423  0.6641 -0.6835
   26SAPC   H3X 3481   4.861   4.080   6.875  1.6927  1.9729  3.3487
   26SAPC   H3Y 3482   4.997   4.173   6.822  1.5504  0.1100  0.1866
   26SAPC   C34 3483   5.053   3.984   6.915 -0.0475  0.2943 -0.2080
   26SAPC   H4X 3484   5.142   3.950   6.857 -1.4411 -1.4064 -1.4654
   26SAPC   H4Y 3485   4.999   3.890   6.936  0.0024  0.4821  0.7994
   26SAPC   C35 3486   5.097   4.045   7.045 -0.8607 -0.3991  0.1204
   26SAPC   H5X 3487   5.008   4.085   7.098 -0.7477  1.0383 -0.7441
   26SAPC   H5Y 3488   5.163   4.132   7.031 -2.1651  0.4192 -1.3876
   26SAPC   C36 3489   5.162   3.942   7.140 -0.0628 -0.4807  0.1474
   26SAPC   H6X 3490   5.271   3.943   7.120 -0.0104 -1.6133  0.3125
   26SAPC   H6Y 3491   5.113   3.848   7.105 -1.1304  0.7340 -1.8681
   26SAPC   C37 3492   5.127   3.978   7.285  0.5869 -0.8553 -0.1454
   26SAPC   H7X 3493   5.024   3.941   7.303  0.9019 -1.4969  0.3609
   26SAPC   H7Y 3494   5.130   4.087   7.307 -1.3536 -1.0903  1.5095
   26SAPC   C38 3495   5.222   3.909   7.377 -0.9322  0.3320 -0.2643
   26SAPC   H8X 3496   5.323   3.929   7.334 -0.6645 -0.6249 -0.1177
   26SAPC   H8Y 3497   5.211   3.798   7.375 -0.0730  0.2397 -1.6075
   26SAPC   C39 3498   5.206   3.958   7.525 -0.4096 -0.1762 -0.2301
   26SAPC   H9X 3499   5.100   3.960   7.559 -0.7656  0.6777 -1.3447
   26SAPC   H9Y 3500   5.245   4.061   7.536  1.5247 -0.9361  0.4693
   26SAPC  C310 3501   5.281   3.863   7.617  0.3540  0.2829 -0.3499
   26SAPC  H10X 3502   5.384   3.846   7.579  2.6261  2.7752  3.8779
   26SAPC  H10Y 3503   5.236   3.761   7.617  1.6539 -0.3230 -1.4187
   26SAPC  C311 3504   5.278   3.921   7.754  0.5155 -0.6801  0.4891
   26SAPC  H11X 3505   5.173   3.937   7.787 -0.1093 -1.4693 -1.0361
   26SAPC  H11Y 3506   5.334   4.016   7.746 -0.0090 -0.5560 -2.9646
   26SAPC  C312 3507   5.339   3.829   7.851 -0.1885  0.5965  0.1998
   26SAPC  H12X 3508   5.450   3.834   7.851 -0.2246  1.8099  0.9686
   26SAPC  H12Y 3509   5.304   3.726   7.827  1.9194  0.3495 -2.3282
   26SAPC  C313 3510   5.275   3.850   7.993 -0.6894  0.5531 -0.1519
   26SAPC  H13X 3511   5.181   3.794   8.015 -0.0401 -0.6012 -0.2348
   26SAPC  H13Y 3512   5.261   3.960   8.000  1.4326  0.8364  0.2550
   26SAPC  C314 3513   5.379   3.820   8.102 -0.6707 -0.0481  0.5447
   26SAPC  H14X 3514   5.479   3.833   8.055 -0.5947 -0.6447  0.5335
   26SAPC  H14Y 3515   5.369   3.711   8.124 -1.1552  0.1758  1.4627
   26SAPC  C315 3516   5.367   3.906   8.216  0.4072 -0.6786 -0.5043
   26SAPC  H15X 3517   5.265   3.904   8.260  0.8719 -0.5549  0.6323
   26SAPC  H15Y 3518   5.386   4.012   8.188 -0.9733  0.1005  1.2722
   26SAPC  C316 3519   5.474   3.894   8.333 -0.5342  0.6847  0.1905
   26SAPC  H16X 3520   5.471   3.982   8.401  0.9054  1.9582 -1.3083
   26SAPC  H16Y 3521   5.576   3.901   8.290 -0.2808  0.7363  0.7842
   26SAPC  C317 3522   5.471   3.758   8.403  0.3271  0.1512 -0.3207
   26SAPC  H17X 3523   5.577   3.747   8.437 -0.1182 -1.5157  0.6451
   26SAPC  H17Y 3524   5.462   3.691   8.315  0.4107  1.2915 -1.2282
   26SAPC  C318 3525   5.372   3.730   8.514  0.0097 -0.3877  0.0032
   26SAPC  H18X 3526   5.405   3.638   8.566  0.0555  0.3743  1.3839
   26SAPC  H18Y 3527   5.265   3.716   8.488  0.1041  2.0015 -2.1285
   26SAPC  H18Z 3528   5.374   3.804   8.597 -0.4137  0.7773 -0.9843
   27SAPC     N 3529   2.225   0.110   6.297  0.0835 -0.6797  0.2352
   27SAPC   C12 3530   2.216  -0.012   6.392  0.7512 -0.1009 -0.3513
   27SAPC  H12A 3531   2.291  -0.083   6.359 -1.4975 -1.5654 -2.6686
   27SAPC  H12B 3532   2.117  -0.052   6.378  0.4886  0.5597 -0.4260
   27SAPC   C13 3533   2.366   0.167   6.299 -0.0934 -0.4373 -0.5666
   27SAPC  H13A 3534   2.381   0.250   6.231 -1.3908  0.7111  0.4810
   27SAPC  H13B 3535   2.382   0.210   6.397 -2.7563  0.2743 -0.3570
   27SAPC  H13C 3536   2.436   0.089   6.273  0.8624  0.2352 -0.1124
   27SAPC   C14 3537   2.199   0.066   6.155 -0.0618 -0.3117 -0.9266
   27SAPC  H14A 3538   2.272  -0.001   6.112 -0.7177  0.3632 -3.2687
   27SAPC  H14B 3539   2.098   0.028   6.143 -1.1520  2.0489  0.2006
   27SAPC  H14C 3540   2.199   0.157   6.097  1.5242 -1.7366 -3.3568
   27SAPC   C15 3541   2.128   0.218   6.325  1.1180  0.0462 -0.2081
   27SAPC  H15A 3542   2.025   0.194   6.306  0.7178  0.8750  0.8519
   27SAPC  H15B 3543   2.127   0.231   6.432  0.7734 -0.4716 -0.1450
   27SAPC  H15C 3544   2.150   0.309   6.273  1.7990  0.6941  1.1530
   27SAPC   C11 3545   2.231   0.013   6.544  0.1420 -0.1090  0.9048
   27SAPC  H11A 3546   2.149   0.079   6.581  0.1202  0.9221 -0.8791
   27SAPC  H11B 3547   2.327   0.061   6.569  0.0853  0.6321 -0.2416
   27SAPC     P 3548   2.336  -0.214   6.605 -0.0336  0.0505  0.2631
   27SAPC   O13 3549   2.340  -0.271   6.469  0.4545 -0.4176  0.4140
   27SAPC   O14 3550   2.458  -0.156   6.660  0.2611 -0.6606  0.5228
   27SAPC   O12 3551   2.214  -0.117   6.606  0.8112  0.0239  0.3056
   27SAPC   O11 3552   2.302  -0.332   6.719  0.2894  0.1249  0.2914
   27SAPC    C1 3553   2.171  -0.333   6.781  0.2414 -0.6535  0.0440
   27SAPC    HA 3554   2.117  -0.238   6.798  2.5290  0.6384  0.4452
   27SAPC    HB 3555   2.101  -0.389   6.715  0.0344 -1.2600  0.7633
   27SAPC    C2 3556   2.168  -0.414   6.913 -0.3867 -0.2893 -1.1905
   27SAPC    HS 3557   2.063  -0.420   6.949  0.3690 -1.1133  1.0189
   27SAPC   O21 3558   2.235  -0.334   7.007 -0.6326  0.0614  0.1637
   27SAPC   C21 3559   2.177  -0.217   7.035  0.4634  0.6664 -0.6481
   27SAPC   O22 3560   2.062  -0.193   7.009 -0.2394  0.1291  0.8470
   27SAPC   C22 3561   2.267  -0.132   7.120  0.5228 -0.7554  0.2073
   27SAPC   H2R 3562   2.371  -0.117   7.084  0.0161  1.6870 -0.4343
   27SAPC   H2S 3563   2.210  -0.038   7.107 -2.2189 -2.2800  0.4783
   27SAPC    C3 3564   2.235  -0.556   6.902  0.0702  0.5349  0.1438
   27SAPC    HX 3565   2.337  -0.554   6.857 -0.0763 -0.1499 -0.2475
   27SAPC    HY 3566   2.167  -0.601   6.826 -0.2365  0.7453  0.2968
   27SAPC   O31 3567   2.224  -0.624   7.029 -0.4580  0.3850 -0.1544
   27SAPC   C31 3568   2.117  -0.704   7.040 -0.4784  0.4558  1.0163
   27SAPC   O32 3569   2.048  -0.747   6.953  0.0061  0.0283  0.7274
   27SAPC   C32 3570   2.090  -0.725   7.187  0.1803  0.5836  0.3135
   27SAPC   H2X 3571   2.173  -0.688   7.250 -0.8749 -2.0482  3.5480
   27SAPC   H2Y 3572   2.070  -0.834   7.191 -0.2456  0.6269 -0.3776
   27SAPC   C23 3573   2.269  -0.163   7.271  0.5557 -0.3564  0.3641
   27SAPC   H3R 3574   2.311  -0.263   7.293  0.1084 -0.5724  0.2451
   27SAPC   H3S 3575   2.168  -0.150   7.314  0.2367  1.6921 -0.8381
   27SAPC   C24 3576   2.369  -0.082   7.354  0.3515  0.2767 -0.5568
   27SAPC   H4R 3577   2.469  -0.089   7.306  0.7937  3.0129 -0.2152
   27SAPC   H4S 3578   2.366  -0.137   7.450 -1.0824 -0.0738 -0.7767
   27SAPC   C25 3579   2.338   0.058   7.387  0.2980 -0.3281  0.2331
   27SAPC   H5R 3580   2.336   0.126   7.301 -0.2851  0.1298  0.6006
   27SAPC   C26 3581   2.296   0.112   7.503  0.0520 -0.1962  0.2332
   27SAPC   H6R 3582   2.290   0.222   7.503 -0.2504 -0.2019  1.3166
   27SAPC   C27 3583   2.258   0.046   7.632 -0.1530 -0.6243 -0.0929
   27SAPC   H7R 3584   2.206  -0.052   7.629  0.1541 -0.8032  0.3444
   27SAPC   H7S 3585   2.172   0.104   7.673 -0.7192 -0.3099 -1.6496
   27SAPC   C28 3586   2.375   0.022   7.728  0.1290  0.0497  0.3778
   27SAPC   H8R 3587   2.450  -0.055   7.702  1.2149  1.2466 -0.1562
   27SAPC   C29 3588   2.411   0.107   7.824  0.0842 -0.1019  0.3200
   27SAPC   H9R 3589   2.486   0.079   7.899 -1.0874  1.1702  2.0488
   27SAPC  C210 3590   2.338   0.231   7.854  0.3739  0.1485 -0.0138
   27SAPC  H10R 3591   2.306   0.283   7.761  1.3332 -0.2920 -0.6031
   27SAPC  H10S 3592   2.406   0.298   7.910  0.6337 -0.0030 -0.1464
   27SAPC  C211 3593   2.221   0.203   7.941 -0.0276 -0.0597  0.2665
   27SAPC  H11R 3594   2.171   0.106   7.927 -1.0033  0.6105 -1.1462
   27SAPC  C212 3595   2.178   0.277   8.043  0.0251  0.4883 -0.3130
   27SAPC  H12R 3596   2.103   0.226   8.105  0.8928 -2.3980 -1.4436
   27SAPC  C213 3597   2.229   0.412   8.089 -0.9187  1.2625 -0.1051
   27SAPC  H13R 3598   2.286   0.462   8.009  2.1459  0.4584  1.4462
   27SAPC  H13S 3599   2.297   0.406   8.177 -3.3465 -0.6696  1.8302
   27SAPC  C214 3600   2.112   0.491   8.138  0.6934 -0.8694 -0.0151
   27SAPC  H14R 3601   2.060   0.551   8.062 -2.1942  0.1071  2.5444
   27SAPC  C215 3602   2.055   0.504   8.258  0.1555 -0.5701  0.1016
   27SAPC  H15R 3603   1.967   0.569   8.270  1.2107  0.9755 -0.1954
   27SAPC  C216 3604   2.096   0.437   8.384 -0.0298  0.3140 -0.2819
   27SAPC  H16R 3605   2.093   0.513   8.464 -1.7174  0.2777 -0.2810
   27SAPC  H16S 3606   2.204   0.413   8.376  0.0885  1.1656 -1.3445
   27SAPC  C217 3607   2.015   0.312   8.425  0.0467  0.1813  0.2713
   27SAPC  H17R 3608   2.005   0.240   8.342  2.0062 -2.1186  1.8944
   27SAPC  H17S 3609   1.908   0.339   8.439 -0.4364 -1.1938 -0.5883
   27SAPC  C218 3610   2.069   0.242   8.551  0.8439  0.2871 -0.5289
   27SAPC  H18R 3611   2.055   0.327   8.620  0.9935 -0.8840  0.9965
   27SAPC  H18S 3612   2.176   0.224   8.526  1.3791  2.4592  0.0504
   27SAPC  C219 3613   2.014   0.112   8.593 -0.2409 -0.0193 -0.9404
   27SAPC  H19R 3614   2.078   0.072   8.675 -0.8152 -0.2982 -0.6209
   27SAPC  H19S 3615   2.035   0.042   8.509  0.4755 -1.4404  0.3613
   27SAPC  C220 3616   1.862   0.103   8.624 -0.2063 -0.4040  0.2727
   27SAPC  H20R 3617   1.800   0.111   8.532  1.4685  1.0750 -0.7743
   27SAPC  H20S 3618   1.837   0.193   8.683 -0.2738 -0.7528  0.7818
   27SAPC  H20T 3619   1.826   0.012   8.677  0.5710 -0.7058  0.2912
   27SAPC   C33 3620   1.965  -0.664   7.256 -0.1768 -0.4959 -0.0451
   27SAPC   H3X 3621   1.952  -0.679   7.365 -4.1587  1.4819 -0.0334
   27SAPC   H3Y 3622   1.872  -0.713   7.218  0.6007 -1.6155 -0.5269
   27SAPC   C34 3623   1.961  -0.509   7.246  0.4247  0.4292 -0.2129
   27SAPC   H4X 3624   1.870  -0.467   7.294  1.3343  0.3768  1.6536
   27SAPC   H4Y 3625   1.966  -0.469   7.143  0.5718  0.9893  0.0106
   27SAPC   C35 3626   2.078  -0.444   7.312 -0.5310 -0.1146  0.1381
   27SAPC   H5X 3627   2.054  -0.336   7.307 -0.1915 -0.0994 -2.6641
   27SAPC   H5Y 3628   2.171  -0.465   7.256  0.4644 -0.5652  1.8893
   27SAPC   C36 3629   2.101  -0.480   7.463 -0.1919  0.3584  0.2851
   27SAPC   H6X 3630   2.114  -0.589   7.480  1.4857  0.7709  2.0511
   27SAPC   H6Y 3631   2.009  -0.458   7.520 -0.4560 -1.0191  0.4264
   27SAPC   C37 3632   2.220  -0.404   7.523  0.4710 -0.2502 -0.3622
   27SAPC   H7X 3633   2.197  -0.296   7.512 -1.7200 -0.9393 -4.8390
   27SAPC   H7Y 3634   2.306  -0.433   7.459 -0.3473 -1.2229 -1.0595
   27SAPC   C38 3635   2.247  -0.449   7.669 -0.5187 -0.2902  0.2777
   27SAPC   H8X 3636   2.296  -0.548   7.668 -0.6387 -0.3916 -2.0442
   27SAPC   H8Y 3637   2.144  -0.453   7.713 -1.0873  0.4067 -0.9266
   27SAPC   C39 3638   2.325  -0.341   7.750  0.0698 -0.4804  1.3403
   27SAPC   H9X 3639   2.282  -0.241   7.725  2.7820  0.7592  1.3638
   27SAPC   H9Y 3640   2.428  -0.346   7.710 -0.4735  0.5130 -0.2871
   27SAPC  C310 3641   2.317  -0.374   7.895  0.8757  0.4909  0.4121
   27SAPC  H10X 3642   2.387  -0.454   7.929 -0.4333 -0.5648  0.7130
   27SAPC  H10Y 3643   2.222  -0.425   7.920  1.2133 -0.5117 -0.2909
   27SAPC  C311 3644   2.335  -0.252   7.978  0.6993  0.0183 -0.4139
   27SAPC  H11X 3645   2.249  -0.187   7.953  0.9206  0.4272 -0.1112
   27SAPC  H11Y 3646   2.434  -0.209   7.954  1.3851 -2.7753 -3.1682
   27SAPC  C312 3647   2.334  -0.283   8.124 -0.7599  0.5031  0.3001
   27SAPC  H12X 3648   2.391  -0.375   8.147 -0.0581  0.9331  0.2912
   27SAPC  H12Y 3649   2.229  -0.304   8.155 -0.5824 -1.4441 -0.2614
   27SAPC  C313 3650   2.392  -0.189   8.227  0.3716 -0.3950 -0.4644
   27SAPC  H13X 3651   2.376  -0.244   8.322  1.3696  0.6897  0.3667
   27SAPC  H13Y 3652   2.317  -0.108   8.220 -0.4945 -1.1744 -0.3709
   27SAPC  C314 3653   2.530  -0.149   8.207  0.4453 -0.3497  0.0230
   27SAPC  H14X 3654   2.541  -0.132   8.098 -2.9696  1.4966 -0.1573
   27SAPC  H14Y 3655   2.593  -0.231   8.247 -1.2717 -1.8343 -0.1549
   27SAPC  C315 3656   2.574  -0.021   8.270 -0.4420  0.1044 -0.0511
   27SAPC  H15X 3657   2.513   0.059   8.223 -0.7356  0.5026  0.9807
   27SAPC  H15Y 3658   2.675   0.012   8.239  0.1517 -2.0627 -0.6245
   27SAPC  C316 3659   2.562  -0.026   8.422 -0.4701  0.0078  0.7756
   27SAPC  H16X 3660   2.601  -0.117   8.471 -0.6202 -0.2911  0.3461
   27SAPC  H16Y 3661   2.456  -0.013   8.452 -0.4803 -0.8976  1.1727
   27SAPC  C317 3662   2.645   0.093   8.472  0.5293 -0.1393 -0.5645
   27SAPC  H17X 3663   2.747   0.096   8.427  0.9984  0.0649  0.4913
   27SAPC  H17Y 3664   2.654   0.086   8.582  2.2457 -1.6074 -0.7595
   27SAPC  C318 3665   2.577   0.226   8.435  0.9097 -0.2726  0.5750
   27SAPC  H18X 3666   2.571   0.292   8.524 -0.9373 -0.5560  0.6997
   27SAPC  H18Y 3667   2.468   0.211   8.417  0.6079  1.3660  0.9320
   27SAPC  H18Z 3668   2.619   0.268   8.341 -1.8131 -1.1768 -1.1594
   28SAPC     N 3669   3.924   6.265   6.225 -0.0586  0.0608 -0.4372
   28SAPC   C12 3670   3.968   6.118   6.194 -0.3138 -0.2995 -0.1178
   28SAPC  H12A 3671   4.002   6.116   6.092  0.3856  0.4083  0.0878
   28SAPC  H12B 3672   3.886   6.048   6.196  0.8637 -1.7841  2.8519
   28SAPC   C13 3673   3.805   6.321   6.157 -0.6746  0.0971 -0.3876
   28SAPC  H13A 3674   3.714   6.273   6.187 -0.6033 -1.1877 -2.0615
   28SAPC  H13B 3675   3.801   6.422   6.194 -1.1169 -0.0940  0.0884
   28SAPC  H13C 3676   3.816   6.312   6.050  2.8856 -0.2454 -0.1170
   28SAPC   C14 3677   3.901   6.288   6.370 -0.6622  0.0711  0.2284
   28SAPC  H14A 3678   3.968   6.233   6.434  0.0391 -0.2203 -0.7353
   28SAPC  H14B 3679   3.911   6.389   6.405  1.1114 -0.7375  2.2989
   28SAPC  H14C 3680   3.797   6.264   6.389 -1.5175 -0.6713 -4.1518
   28SAPC   C15 3681   4.038   6.358   6.192 -0.1397 -0.5300  0.3959
   28SAPC  H15A 3682   4.058   6.368   6.086 -2.2606  1.2341  0.0862
   28SAPC  H15B 3683   4.013   6.460   6.217 -0.3018 -0.5474  0.3033
   28SAPC  H15C 3684   4.132   6.328   6.237  1.4858 -0.3938 -2.6346
   28SAPC   C11 3685   4.072   6.047   6.294 -0.0946 -0.3205  0.3273
   28SAPC  H11A 3686   4.105   5.952   6.247  0.2222  0.1297 -0.3785
   28SAPC  H11B 3687   4.011   6.034   6.385 -0.5395  0.8800  0.2207
   28SAPC     P 3688   4.309   6.141   6.246  0.6081  0.3525 -0.0483
   28SAPC   O13 3689   4.282   6.101   6.105 -0.6667 -0.3870 -0.1819
   28SAPC   O14 3690   4.357   6.281   6.254  0.2182 -0.2482  0.2368
   28SAPC   O12 3691   4.178   6.136   6.333 -0.0811 -0.0868  0.0718
   28SAPC   O11 3692   4.417   6.036   6.317 -0.4197  0.0174 -0.0461
   28SAPC    C1 3693   4.391   5.963   6.433 -0.2976 -0.3140 -0.0826
   28SAPC    HA 3694   4.289   5.919   6.422 -1.1528  1.0757  1.7779
   28SAPC    HB 3695   4.466   5.885   6.456  0.7330  1.4463  3.0226
   28SAPC    C2 3696   4.390   6.046   6.564 -0.0383  0.1946  0.0722
   28SAPC    HS 3697   4.331   6.137   6.543 -0.8921 -0.3377  0.0824
   28SAPC   O21 3698   4.528   6.073   6.607 -0.1629 -0.2416 -0.4471
   28SAPC   C21 3699   4.539   6.184   6.682  0.9317  0.2912 -0.0608
   28SAPC   O22 3700   4.445   6.256   6.710 -0.1074 -0.4552 -0.1859
   28SAPC   C22 3701   4.674   6.191   6.764  0.0304  1.3692 -0.4490
   28SAPC   H2R 3702   4.768   6.180   6.706  0.4840  0.5112  0.4164
   28SAPC   H2S 3703   4.665   6.294   6.805 -0.7378  1.3106 -0.4598
   28SAPC    C3 3704   4.305   5.974   6.672  0.7008  0.5029 -1.3251
   28SAPC    HX 3705   4.319   5.865   6.681  2.1143  0.6692 -1.2605
   28SAPC    HY 3706   4.199   5.980   6.640  0.6830  0.5680 -1.2550
   28SAPC   O31 3707   4.313   6.041   6.805 -0.0090 -0.4542  0.1492
   28SAPC   C31 3708   4.213   6.106   6.856  1.1104 -0.3710 -0.3184
   28SAPC   O32 3709   4.102   6.100   6.806  0.0838 -0.1042 -0.0574
   28SAPC   C32 3710   4.253   6.169   6.993 -0.0102 -0.2986 -0.1481
   28SAPC   H2X 3711   4.201   6.266   7.005  0.8025  0.1249  0.0665
   28SAPC   H2Y 3712   4.359   6.204   6.987  0.1518 -0.2634  1.9584
   28SAPC   C23 3713   4.666   6.085   6.878  0.4027  0.5643  0.2552
   28SAPC   H3R 3714   4.676   5.992   6.817  0.2969  0.4354  0.4316
   28SAPC   H3S 3715   4.570   6.095   6.932  1.1236  0.0545  1.6715
   28SAPC   C24 3716   4.771   6.091   6.991 -0.0085  0.2828  0.3928
   28SAPC   H4R 3717   4.768   5.991   7.041  1.7166 -0.8996 -1.6791
   28SAPC   H4S 3718   4.871   6.107   6.944 -0.3180 -1.4589 -0.9503
   28SAPC   C25 3719   4.742   6.208   7.074  0.8502 -0.5025  0.4328
   28SAPC   H5R 3720   4.737   6.302   7.018  1.3138 -1.6585 -1.6333
   28SAPC   C26 3721   4.717   6.205   7.204 -0.0862 -0.9136 -0.0274
   28SAPC   H6R 3722   4.698   6.300   7.255  1.4756 -0.3050 -0.5078
   28SAPC   C27 3723   4.725   6.086   7.296 -0.2230 -0.1166  0.7062
   28SAPC   H7R 3724   4.681   5.997   7.245 -0.1758  0.3457 -0.1584
   28SAPC   H7S 3725   4.670   6.108   7.390 -1.0715  4.1207 -0.5700
   28SAPC   C28 3726   4.871   6.058   7.320  0.4820  0.0786  0.4922
   28SAPC   H8R 3727   4.934   6.060   7.230  0.5972 -0.2039  0.5662
   28SAPC   C29 3728   4.936   6.030   7.436  0.2484 -0.2207 -0.4152
   28SAPC   H9R 3729   5.043   6.002   7.435  0.4385  0.4892 -1.3050
   28SAPC  C210 3730   4.869   6.019   7.565  0.9507 -0.1713 -0.3773
   28SAPC  H10R 3731   4.929   5.946   7.623  0.4148 -0.1737  0.1816
   28SAPC  H10S 3732   4.768   5.972   7.558  0.1342  1.3828  0.4935
   28SAPC  C211 3733   4.858   6.146   7.641 -0.2801  0.0827 -0.3694
   28SAPC  H11R 3734   4.793   6.223   7.598 -3.1087 -1.7610  0.3761
   28SAPC  C212 3735   4.925   6.177   7.752  0.3124 -0.6058 -0.3314
   28SAPC  H12R 3736   4.904   6.275   7.797 -1.9049 -1.9283  1.7611
   28SAPC  C213 3737   5.026   6.093   7.830  0.0273 -0.2426  0.0174
   28SAPC  H13R 3738   5.100   6.160   7.878  1.0779 -0.7056 -0.9087
   28SAPC  H13S 3739   5.092   6.042   7.757 -0.1487 -2.2047  1.1691
   28SAPC  C214 3740   4.955   5.986   7.915 -0.5399  0.3501 -0.6077
   28SAPC  H14R 3741   4.886   5.922   7.859 -0.6513 -1.1585  1.1784
   28SAPC  C215 3742   4.970   5.981   8.047  0.9856  0.5635  0.0542
   28SAPC  H15R 3743   4.932   5.896   8.106 -0.1807  1.3566  0.4676
   28SAPC  C216 3744   5.057   6.064   8.140 -0.7845 -0.7314 -0.0359
   28SAPC  H16R 3745   5.115   6.144   8.090 -0.6313  0.8907  2.5385
   28SAPC  H16S 3746   5.134   5.993   8.179 -0.3549  0.1377  0.7350
   28SAPC  C217 3747   4.987   6.127   8.266  0.2286  0.5087  0.5435
   28SAPC  H17R 3748   4.898   6.074   8.305  0.1368 -2.0821 -2.6781
   28SAPC  H17S 3749   4.934   6.209   8.214  0.2255  0.3860  0.3511
   28SAPC  C218 3750   5.094   6.167   8.369  0.1430 -0.2209 -0.6928
   28SAPC  H18R 3751   5.182   6.201   8.310  0.9870 -2.2345 -0.6706
   28SAPC  H18S 3752   5.121   6.091   8.445 -0.0535  1.7217  1.4168
   28SAPC  C219 3753   5.057   6.285   8.462 -0.4261 -0.7103  0.0354
   28SAPC  H19R 3754   5.151   6.313   8.515 -0.5050  1.5618 -0.8987
   28SAPC  H19S 3755   4.979   6.242   8.527  0.8669 -1.8473  0.8957
   28SAPC  C220 3756   5.005   6.408   8.384 -0.0638 -0.5288 -0.0646
   28SAPC  H20R 3757   5.074   6.453   8.309  0.4470  1.2068  1.3680
   28SAPC  H20S 3758   4.992   6.488   8.460  1.6579 -1.2491  1.0495
   28SAPC  H20T 3759   4.906   6.393   8.337  0.5027 -0.4060 -1.3662
   28SAPC   C33 3760   4.224   6.082   7.112  1.0649 -0.0082 -0.1122
   28SAPC   H3X 3761   4.274   5.985   7.093  1.6543  0.1727  0.5132
   28SAPC   H3Y 3762   4.114   6.067   7.123  1.0071 -1.0193 -1.6971
   28SAPC   C34 3763   4.282   6.136   7.245 -0.1998  0.0495 -0.1392
   28SAPC   H4X 3764   4.253   6.239   7.274 -0.0858  0.2048 -0.5720
   28SAPC   H4Y 3765   4.392   6.149   7.242 -0.3282  1.5062  0.5155
   28SAPC   C35 3766   4.240   6.042   7.361  0.4615 -0.1510  0.6893
   28SAPC   H5X 3767   4.264   5.936   7.336 -2.1582 -0.4185 -1.1384
   28SAPC   H5Y 3768   4.129   6.050   7.365  0.5819  1.5259  2.1134
   28SAPC   C36 3769   4.302   6.076   7.490 -0.1066 -0.1349 -0.2861
   28SAPC   H6X 3770   4.294   6.187   7.489  0.4457 -0.0914 -0.2240
   28SAPC   H6Y 3771   4.408   6.044   7.489  1.3740  4.1530 -1.4654
   28SAPC   C37 3772   4.230   6.008   7.603  0.3918  0.1020  0.2354
   28SAPC   H7X 3773   4.231   5.899   7.582  2.8640  0.1757 -0.3742
   28SAPC   H7Y 3774   4.129   6.051   7.620  1.3024  1.7152  2.0646
   28SAPC   C38 3775   4.309   6.028   7.736 -0.6226  0.0725  0.0091
   28SAPC   H8X 3776   4.353   6.130   7.742  0.1957  0.0305 -3.3187
   28SAPC   H8Y 3777   4.393   5.956   7.740 -0.4533  0.3142  0.8297
   28SAPC   C39 3778   4.221   5.996   7.854  0.1316  0.2753 -0.5568
   28SAPC   H9X 3779   4.288   5.983   7.942  0.5998  3.7591 -0.2293
   28SAPC   H9Y 3780   4.174   5.900   7.826  0.0641 -0.2661  1.3303
   28SAPC  C310 3781   4.115   6.098   7.882 -0.3806  0.2438 -0.2142
   28SAPC  H10X 3782   4.056   6.098   7.788  1.7793 -0.8705 -1.6413
   28SAPC  H10Y 3783   4.150   6.200   7.909  0.7209  0.2432 -1.5711
   28SAPC  C311 3784   4.032   6.059   8.007 -0.6804 -1.2570  0.4677
   28SAPC  H11X 3785   3.975   5.964   7.993 -1.0241 -0.8766 -0.7953
   28SAPC  H11Y 3786   3.958   6.138   8.030  0.9323 -0.0975  1.8989
   28SAPC  C312 3787   4.120   6.062   8.132 -0.4961 -0.1099  0.2313
   28SAPC  H12X 3788   4.185   6.153   8.132 -0.3313 -0.2264  0.0397
   28SAPC  H12Y 3789   4.184   5.971   8.130  3.9576  2.6867 -1.1993
   28SAPC  C313 3790   4.040   6.069   8.265  0.4164 -0.1277 -0.4797
   28SAPC  H13X 3791   3.965   5.987   8.262  0.7071 -0.4432  0.4599
   28SAPC  H13Y 3792   3.997   6.172   8.267  1.4485  0.3148 -0.5447
   28SAPC  C314 3793   4.126   6.053   8.398  0.1463  0.7847  0.0438
   28SAPC  H14X 3794   4.071   6.066   8.494 -0.5996  0.0887 -0.2751
   28SAPC  H14Y 3795   4.215   6.119   8.407  1.5497 -1.1472  1.3943
   28SAPC  C315 3796   4.186   5.911   8.416  0.1263  0.1725  0.6828
   28SAPC  H15X 3797   4.229   5.876   8.320  0.7176  0.3170  0.8894
   28SAPC  H15Y 3798   4.113   5.835   8.452  1.6212 -1.8003 -0.2813
   28SAPC  C316 3799   4.306   5.916   8.519 -0.4150 -0.2638  0.8284
   28SAPC  H16X 3800   4.264   5.938   8.620 -1.4577 -3.6234  1.2590
   28SAPC  H16Y 3801   4.370   6.003   8.496 -0.9373  0.0959  0.7158
   28SAPC  C317 3802   4.377   5.781   8.536 -0.6486  0.4941 -0.3318
   28SAPC  H17X 3803   4.407   5.742   8.436  3.0854  0.5972  0.5910
   28SAPC  H17Y 3804   4.311   5.704   8.581  0.1065  0.8242  1.4147
   28SAPC  C318 3805   4.487   5.788   8.640  0.4779  0.1235  0.0221
   28SAPC  H18X 3806   4.570   5.853   8.603  0.7329 -0.5560 -0.6419
   28SAPC  H18Y 3807   4.546   5.694   8.644  2.5438  1.3611  0.9426
   28SAPC  H18Z 3808   4.456   5.807   8.745 -0.7943  2.1405 -0.6640
   29SAPC     N 3809   4.588   0.340   6.262 -0.0859 -0.6830  0.1716
   29SAPC   C12 3810   4.613   0.198   6.235 -0.4934 -0.3981 -0.0490
   29SAPC  H12A 3811   4.559   0.180   6.143 -1.2061  0.4807  0.1787
   29SAPC  H12B 3812   4.561   0.137   6.307  1.2922 -3.3619 -1.1252
   29SAPC   C13 3813   4.635   0.435   6.162 -0.4622 -0.1187  0.0643
   29SAPC  H13A 3814   4.741   0.428   6.143 -0.6961  1.5279 -2.2294
   29SAPC  H13B 3815   4.597   0.410   6.064 -0.5165 -0.0883  0.0775
   29SAPC  H13C 3816   4.615   0.540   6.176 -3.2865 -0.6130  0.5345
   29SAPC   C14 3817   4.438   0.366   6.278  0.9485 -0.3394 -0.0010
   29SAPC  H14A 3818   4.404   0.324   6.371 -0.3197 -0.5147 -0.5161
   29SAPC  H14B 3819   4.409   0.470   6.278 -1.1090 -0.8135  2.2269
   29SAPC  H14C 3820   4.391   0.314   6.196  2.6565 -1.0797 -0.5612
   29SAPC   C15 3821   4.663   0.385   6.384 -0.0289  0.1053 -0.5941
   29SAPC  H15A 3822   4.624   0.351   6.479 -0.0498  2.1419  0.1883
   29SAPC  H15B 3823   4.766   0.356   6.384 -0.3337 -1.4811  2.8167
   29SAPC  H15C 3824   4.664   0.493   6.391  0.0816  0.0837 -0.2768
   29SAPC   C11 3825   4.764   0.164   6.218  0.5259  0.0150  0.1171
   29SAPC  H11A 3826   4.812   0.239   6.151  0.6408 -1.0884 -1.0878
   29SAPC  H11B 3827   4.776   0.067   6.165 -0.4860 -1.5324  2.5356
   29SAPC     P 3828   4.819   0.049   6.449 -0.1835 -0.2098 -0.4164
   29SAPC   O13 3829   4.714   0.096   6.537 -0.3769  0.0997  0.1199
   29SAPC   O14 3830   4.794  -0.080   6.377 -0.7138 -0.8910 -0.3306
   29SAPC   O12 3831   4.841   0.166   6.339 -1.1986  0.0160  0.4148
   29SAPC   O11 3832   4.961   0.027   6.531  0.1607  0.1258 -0.7677
   29SAPC    C1 3833   5.052   0.140   6.515 -0.0675  0.4422 -0.7856
   29SAPC    HA 3834   5.109   0.121   6.421  1.0279  0.8275 -0.2218
   29SAPC    HB 3835   5.001   0.239   6.518 -0.4869  0.2347  2.0275
   29SAPC    C2 3836   5.150   0.154   6.636 -0.7926  0.0584 -0.2183
   29SAPC    HS 3837   5.204   0.250   6.623 -0.3615 -0.2183 -0.4891
   29SAPC   O21 3838   5.244   0.041   6.644  0.4356 -0.8329 -0.1767
   29SAPC   C21 3839   5.359   0.071   6.705  0.7774 -0.2110  0.0136
   29SAPC   O22 3840   5.403   0.182   6.728 -0.1032  0.2888  0.2683
   29SAPC   C22 3841   5.434  -0.060   6.735 -0.5237  0.0823 -0.6547
   29SAPC   H2R 3842   5.356  -0.140   6.731  0.2881 -0.7244 -0.6254
   29SAPC   H2S 3843   5.513  -0.072   6.658 -0.3223  1.7809 -0.7396
   29SAPC    C3 3844   5.062   0.146   6.767 -0.4321 -0.4947  0.2134
   29SAPC    HX 3845   5.018   0.045   6.775 -0.1028 -0.5605  1.2710
   29SAPC    HY 3846   4.974   0.214   6.762  0.6654  0.9079 -1.2619
   29SAPC   O31 3847   5.133   0.178   6.889 -0.1780  0.1444  0.7717
   29SAPC   C31 3848   5.134   0.310   6.915 -0.1553 -0.3395 -0.3618
   29SAPC   O32 3849   5.095   0.402   6.842  0.3635 -0.3278  0.4723
   29SAPC   C32 3850   5.204   0.335   7.048 -0.4813 -0.6320  0.0646
   29SAPC   H2X 3851   5.284   0.259   7.061 -1.0037 -1.3344 -0.7450
   29SAPC   H2Y 3852   5.127   0.327   7.127 -0.1545  1.3559  0.6443
   29SAPC   C23 3853   5.497  -0.058   6.880 -0.5924 -0.5229 -0.0117
   29SAPC   H3R 3854   5.563   0.030   6.897 -1.4167  0.0583  0.2531
   29SAPC   H3S 3855   5.566  -0.144   6.886  0.1449  0.0450 -0.1864
   29SAPC   C24 3856   5.380  -0.067   6.986 -0.7091 -0.0538 -0.3820
   29SAPC   H4R 3857   5.307  -0.143   6.951  1.6844 -2.1559 -1.0830
   29SAPC   H4S 3858   5.331   0.033   6.985  0.0446  0.3757  1.6959
   29SAPC   C25 3859   5.441  -0.104   7.111 -0.0406  0.5063 -0.7545
   29SAPC   H5R 3860   5.508  -0.190   7.099 -1.4207 -0.3924 -2.5079
   29SAPC   C26 3861   5.430  -0.057   7.235  0.1371  0.2109  0.0384
   29SAPC   H6R 3862   5.476  -0.120   7.312 -0.5705 -0.8233 -0.3529
   29SAPC   C27 3863   5.341   0.042   7.287  0.1566  0.1732  0.3281
   29SAPC   H7R 3864   5.266  -0.017   7.344  0.5910 -1.1754 -0.4391
   29SAPC   H7S 3865   5.293   0.089   7.198 -0.6493  2.0185  1.6708
   29SAPC   C28 3866   5.398   0.154   7.359  0.3404 -0.1601  0.3350
   29SAPC   H8R 3867   5.443   0.236   7.301 -0.3660 -1.1110 -1.6636
   29SAPC   C29 3868   5.385   0.181   7.489  0.1734 -0.4123  0.1103
   29SAPC   H9R 3869   5.430   0.273   7.530 -2.1975  0.6975  0.3786
   29SAPC  C210 3870   5.324   0.095   7.597 -0.2010 -0.5451  0.1306
   29SAPC  H10R 3871   5.215   0.087   7.577 -0.7656  2.7233  1.2151
   29SAPC  H10S 3872   5.319   0.151   7.693 -0.3083 -0.8248  0.2910
   29SAPC  C211 3873   5.383  -0.037   7.640 -0.1499  0.4400  0.3787
   29SAPC  H11R 3874   5.492  -0.046   7.629  0.1404 -1.9504  3.8374
   29SAPC  C212 3875   5.320  -0.133   7.712  0.3673  0.5217  0.2034
   29SAPC  H12R 3876   5.379  -0.220   7.745  0.6597  0.8255  0.4885
   29SAPC  C213 3877   5.177  -0.127   7.756 -0.5516  0.8082  0.0217
   29SAPC  H13R 3878   5.104  -0.097   7.678 -1.3059 -0.2602  0.2871
   29SAPC  H13S 3879   5.163  -0.059   7.843  1.1786  0.7035  0.4220
   29SAPC  C214 3880   5.135  -0.262   7.802 -0.1270  0.2344  0.8388
   29SAPC  H14R 3881   5.190  -0.339   7.745  0.4856  0.4187  1.1721
   29SAPC  C215 3882   5.043  -0.284   7.903  0.1913  0.7509  0.9270
   29SAPC  H15R 3883   5.004  -0.385   7.922  1.1122  0.4568  1.2545
   29SAPC  C216 3884   4.974  -0.172   7.973  0.5230  0.8094 -0.7452
   29SAPC  H16R 3885   4.874  -0.203   8.009  1.4994 -1.6143  0.1577
   29SAPC  H16S 3886   4.955  -0.095   7.896  0.2676  0.2512 -1.2513
   29SAPC  C217 3887   5.052  -0.115   8.099 -0.3276 -0.6637 -0.1468
   29SAPC  H17R 3888   5.153  -0.086   8.063 -0.8109 -1.5641 -2.3868
   29SAPC  H17S 3889   5.062  -0.195   8.175 -0.3856 -1.6920 -1.1875
   29SAPC  C218 3890   4.992   0.021   8.153  0.4914  0.3124 -0.0652
   29SAPC  H18R 3891   4.987   0.074   8.055 -0.0183 -0.2015 -0.3229
   29SAPC  H18S 3892   5.059   0.067   8.229 -2.6493  1.2699  2.2987
   29SAPC  C219 3893   4.853   0.006   8.212  0.2391  0.6647  0.0010
   29SAPC  H19R 3894   4.784  -0.047   8.144  1.1638  0.6751 -0.9585
   29SAPC  H19S 3895   4.799   0.104   8.211 -0.2736  0.4685 -3.6360
   29SAPC  C220 3896   4.859  -0.068   8.348  0.1751 -0.2484  0.4080
   29SAPC  H20R 3897   4.795  -0.018   8.424 -0.7948 -1.4685  0.4224
   29SAPC  H20S 3898   4.956  -0.079   8.401 -1.7288 -0.4436  4.2426
   29SAPC  H20T 3899   4.814  -0.169   8.344 -1.8387  0.2549  4.6431
   29SAPC   C33 3900   5.257   0.480   7.076  0.0308  0.1746  0.0933
   29SAPC   H3X 3901   5.177   0.556   7.093 -0.3603 -0.3855  0.7863
   29SAPC   H3Y 3902   5.310   0.512   6.983 -1.6927 -0.7028 -1.2419
   29SAPC   C34 3903   5.343   0.495   7.197  0.2706 -0.3571 -1.3295
   29SAPC   H4X 3904   5.377   0.600   7.202 -1.0092  0.0460 -0.7341
   29SAPC   H4Y 3905   5.439   0.440   7.186  0.8152  0.4824 -0.9052
   29SAPC   C35 3906   5.266   0.484   7.329 -0.1140 -0.1792  0.5228
   29SAPC   H5X 3907   5.249   0.375   7.337  2.3987 -1.0173 -3.0172
   29SAPC   H5Y 3908   5.176   0.546   7.309  0.8867  0.7667 -1.2696
   29SAPC   C36 3909   5.337   0.535   7.451 -0.3364  0.1053  0.0315
   29SAPC   H6X 3910   5.354   0.645   7.448 -1.9171  0.3546 -0.6696
   29SAPC   H6Y 3911   5.435   0.484   7.459 -0.8585 -0.8428  0.4744
   29SAPC   C37 3912   5.247   0.501   7.576 -0.7192 -0.1441  0.3973
   29SAPC   H7X 3913   5.228   0.392   7.587 -3.1138 -0.0138 -1.6699
   29SAPC   H7Y 3914   5.152   0.555   7.559 -0.4750  1.0316  2.4306
   29SAPC   C38 3915   5.306   0.555   7.712  0.2345 -0.1663  0.0758
   29SAPC   H8X 3916   5.227   0.560   7.791  1.6747  0.5995  1.5353
   29SAPC   H8Y 3917   5.332   0.663   7.710 -3.8734  1.0089  0.3220
   29SAPC   C39 3918   5.409   0.470   7.791 -0.3127  0.1357  0.2777
   29SAPC   H9X 3919   5.493   0.452   7.721 -0.9968  1.2902 -0.8815
   29SAPC   H9Y 3920   5.372   0.369   7.818  0.4433  0.5374  3.1713
   29SAPC  C310 3921   5.465   0.545   7.913 -0.6584 -1.1300 -0.0939
   29SAPC  H10X 3922   5.525   0.470   7.970  1.7435 -0.4600 -1.5993
   29SAPC  H10Y 3923   5.389   0.590   7.980  1.7267 -1.1508  2.8042
   29SAPC  C311 3924   5.560   0.655   7.880  0.1117 -0.9075 -0.0873
   29SAPC  H11X 3925   5.497   0.725   7.820 -0.5877 -1.5426 -0.0967
   29SAPC  H11Y 3926   5.634   0.625   7.804 -1.7907  0.1356 -2.4827
   29SAPC  C312 3927   5.620   0.734   8.003  0.5098 -0.0097  0.5980
   29SAPC  H12X 3928   5.536   0.794   8.044 -1.5328 -1.5558 -1.0848
   29SAPC  H12Y 3929   5.693   0.808   7.963 -0.5995  0.9446  0.2994
   29SAPC  C313 3930   5.686   0.641   8.105  0.0601  0.1142 -0.3909
   29SAPC  H13X 3931   5.758   0.574   8.053  0.9871  0.8820 -0.1298
   29SAPC  H13Y 3932   5.612   0.578   8.158 -0.0809  0.7822  0.2357
   29SAPC  C314 3933   5.746   0.724   8.225 -0.3160  0.0376 -0.6802
   29SAPC  H14X 3934   5.666   0.790   8.266  1.0757  1.8941 -0.7880
   29SAPC  H14Y 3935   5.831   0.782   8.182 -0.3213  0.2127 -0.4531
   29SAPC  C315 3936   5.789   0.647   8.357  0.2874 -0.4980 -0.5934
   29SAPC  H15X 3937   5.822   0.543   8.334  0.2134 -0.2944 -1.6614
   29SAPC  H15Y 3938   5.700   0.636   8.423  0.4186 -0.2062 -0.3667
   29SAPC  C316 3939   5.911   0.722   8.421 -0.1850 -0.1762  0.3234
   29SAPC  H16X 3940   6.003   0.702   8.362  0.8278  0.0982  1.7345
   29SAPC  H16Y 3941   5.935   0.668   8.515  1.8019  1.2621  0.7245
   29SAPC  C317 3942   5.890   0.870   8.445  0.5608  0.1340  0.5007
   29SAPC  H17X 3943   5.862   0.917   8.348  0.2106 -2.1375 -0.5669
   29SAPC  H17Y 3944   5.990   0.907   8.477  0.9920 -0.7499  0.2075
   29SAPC  C318 3945   5.781   0.892   8.550 -0.5075 -0.2853  0.1760
   29SAPC  H18X 3946   5.780   1.000   8.575 -1.2833 -0.3445  0.4562
   29SAPC  H18Y 3947   5.812   0.837   8.641  1.8612 -1.6760 -1.3779
   29SAPC  H18Z 3948   5.675   0.863   8.528 -1.3031  1.9091  0.8455
   30SAPC     N 3949   5.691   0.837   5.717  0.5288  0.3006  0.2167
   30SAPC   C12 3950   5.650   0.822   5.870  0.2621 -0.4590 -0.1056
   30SAPC  H12A 3951   5.597   0.907   5.910  2.2246  0.2017  1.2609
   30SAPC  H12B 3952   5.738   0.812   5.932 -0.0952 -0.5319  0.3936
   30SAPC   C13 3953   5.739   0.979   5.709 -0.4704 -0.4105 -0.6685
   30SAPC  H13A 3954   5.823   0.994   5.776  0.4889  0.3835 -2.0041
   30SAPC  H13B 3955   5.776   0.982   5.608 -0.4613  0.5891 -0.6480
   30SAPC  H13C 3956   5.664   1.054   5.731 -0.3128 -1.0702  2.8140
   30SAPC   C14 3957   5.802   0.748   5.672 -0.4175 -0.3046 -0.8473
   30SAPC  H14A 3958   5.800   0.643   5.697  4.2041 -0.4406 -0.1281
   30SAPC  H14B 3959   5.837   0.760   5.571  0.7658 -4.0142 -1.0048
   30SAPC  H14C 3960   5.886   0.779   5.732 -1.9954 -0.2670  1.4886
   30SAPC   C15 3961   5.567   0.830   5.623  0.4032 -0.6558  0.2447
   30SAPC  H15A 3962   5.492   0.904   5.648 -0.4813 -0.9025 -1.5505
   30SAPC  H15B 3963   5.590   0.854   5.521 -0.2041  0.3126  0.3256
   30SAPC  H15C 3964   5.519   0.734   5.616  0.2491 -0.7060  1.6956
   30SAPC   C11 3965   5.571   0.694   5.903 -0.1114 -0.2947  0.1228
   30SAPC  H11A 3966   5.486   0.700   5.832  1.9817 -0.9156 -2.6094
   30SAPC  H11B 3967   5.534   0.706   6.008  0.3201 -0.1799  0.2662
   30SAPC     P 3968   5.740   0.527   5.996  0.3469  0.1410  0.1090
   30SAPC   O13 3969   5.657   0.484   6.112  0.4074  0.4068 -0.3423
   30SAPC   O14 3970   5.841   0.419   5.952  0.8965 -0.2316 -0.0784
   30SAPC   O12 3971   5.650   0.574   5.877  0.0961  0.0401  0.1157
   30SAPC   O11 3972   5.816   0.662   6.033  0.1506  0.2516 -0.7019
   30SAPC    C1 3973   5.958   0.676   6.027  0.1059 -0.3078 -0.4538
   30SAPC    HA 3974   6.012   0.592   5.980  1.5405  1.0520 -1.3460
   30SAPC    HB 3975   5.972   0.764   5.960 -0.8200 -1.4449 -2.1925
   30SAPC    C2 3976   6.011   0.702   6.172 -0.6538  0.3243 -0.2345
   30SAPC    HS 3977   5.983   0.611   6.228 -1.6807  0.4777 -0.4607
   30SAPC   O21 3978   5.950   0.818   6.224  0.1710 -0.3639  0.1754
   30SAPC   C21 3979   5.858   0.800   6.316 -0.7384 -0.3674  0.6090
   30SAPC   O22 3980   5.823   0.695   6.364  0.1729  0.6968 -0.1051
   30SAPC   C22 3981   5.798   0.941   6.343  0.4479 -0.0651 -0.8928
   30SAPC   H2R 3982   5.879   1.017   6.337  1.5043 -1.0852 -0.0488
   30SAPC   H2S 3983   5.720   0.962   6.267 -0.5199 -0.9591 -0.1866
   30SAPC    C3 3984   6.169   0.719   6.179 -0.1638 -0.0987 -0.1147
   30SAPC    HX 3985   6.200   0.801   6.111 -0.9828  0.1172 -0.2334
   30SAPC    HY 3986   6.208   0.627   6.131 -1.4190 -0.4264 -0.5369
   30SAPC   O31 3987   6.214   0.728   6.319  0.1782 -0.2787 -0.1021
   30SAPC   C31 3988   6.243   0.856   6.354  0.2853  0.4162 -0.2441
   30SAPC   O32 3989   6.240   0.949   6.276  0.4584  0.1160  0.0449
   30SAPC   C32 3990   6.267   0.879   6.506 -0.6602  0.4577 -0.4481
   30SAPC   H2X 3991   6.372   0.847   6.520 -0.7820  0.2191 -0.0706
   30SAPC   H2Y 3992   6.197   0.813   6.562 -0.5877  0.7111 -0.0518
   30SAPC   C23 3993   5.719   0.952   6.475 -0.2363 -0.1526 -0.4912
   30SAPC   H3R 3994   5.622   0.902   6.453  0.7435 -1.6713 -1.5537
   30SAPC   H3S 3995   5.697   1.061   6.476  0.7998  0.0702 -0.9240
   30SAPC   C24 3996   5.773   0.913   6.613 -0.3331  0.4197 -0.0485
   30SAPC   H4R 3997   5.805   0.807   6.624  2.2482  0.9096 -1.8973
   30SAPC   H4S 3998   5.694   0.932   6.689  0.4555 -1.5065  1.3489
   30SAPC   C25 3999   5.888   0.999   6.651  0.7223 -0.4459 -0.3084
   30SAPC   H5R 4000   5.980   0.963   6.602  0.4100 -0.3599 -0.9651
   30SAPC   C26 4001   5.889   1.102   6.730  0.9012 -1.0820 -0.2132
   30SAPC   H6R 4002   5.985   1.148   6.757  0.4511 -0.5786  0.5752
   30SAPC   C27 4003   5.765   1.159   6.801  0.1176 -0.3037 -0.2831
   30SAPC   H7R 4004   5.790   1.178   6.907 -0.8744 -1.6871  0.2265
   30SAPC   H7S 4005   5.691   1.078   6.814  1.0248 -0.9137  1.3653
   30SAPC   C28 4006   5.703   1.276   6.727 -0.7324  0.1033 -0.4955
   30SAPC   H8R 4007   5.714   1.274   6.617 -0.4066 -0.4516 -0.4549
   30SAPC   C29 4008   5.626   1.373   6.783  0.3867 -0.0944  1.0265
   30SAPC   H9R 4009   5.609   1.456   6.713  1.5675 -0.0456  0.7731
   30SAPC  C210 4010   5.583   1.403   6.928 -1.0438 -0.1766  0.2567
   30SAPC  H10R 4011   5.624   1.332   7.003 -0.1899 -0.9251 -0.8747
   30SAPC  H10S 4012   5.472   1.394   6.935 -0.9539 -0.9888  0.7600
   30SAPC  C211 4013   5.633   1.542   6.973 -0.4848  0.3448 -0.0922
   30SAPC  H11R 4014   5.687   1.603   6.899  1.3981  0.5702  1.4020
   30SAPC  C212 4015   5.631   1.586   7.103  0.3085  0.6974 -0.7834
   30SAPC  H12R 4016   5.680   1.680   7.132 -0.2189  0.8083 -0.2491
   30SAPC  C213 4017   5.577   1.516   7.228 -0.0699  0.6405  0.3360
   30SAPC  H13R 4018   5.474   1.475   7.214  0.6440 -1.8945  1.8518
   30SAPC  H13S 4019   5.572   1.602   7.298 -0.3620 -0.0810  1.2288
   30SAPC  C214 4020   5.682   1.416   7.271 -0.3311 -0.4827  0.2703
   30SAPC  H14R 4021   5.698   1.327   7.209 -0.9486 -0.3129 -0.1355
   30SAPC  C215 4022   5.744   1.401   7.387  0.1510  0.8146  0.0539
   30SAPC  H15R 4023   5.814   1.319   7.410 -2.5145 -0.9880  2.4181
   30SAPC  C216 4024   5.730   1.497   7.502  0.5293 -0.2197  0.0114
   30SAPC  H16R 4025   5.628   1.490   7.544  0.6717  1.1469  0.6272
   30SAPC  H16S 4026   5.748   1.604   7.478 -1.2226  0.3186  0.9178
   30SAPC  C217 4027   5.815   1.474   7.630  0.5193 -0.3193  0.2295
   30SAPC  H17R 4028   5.925   1.470   7.615  0.6528 -3.9009  1.1668
   30SAPC  H17S 4029   5.775   1.380   7.673 -1.8907 -0.0289 -1.2356
   30SAPC  C218 4030   5.792   1.580   7.730  0.5056 -0.2200  1.0675
   30SAPC  H18R 4031   5.685   1.585   7.760  0.4167 -0.6111  0.8202
   30SAPC  H18S 4032   5.805   1.670   7.667 -0.7240 -0.4429  0.4735
   30SAPC  C219 4033   5.882   1.585   7.851 -0.3545  0.6392  0.9989
   30SAPC  H19R 4034   5.872   1.681   7.906 -0.8379  1.9959 -1.3125
   30SAPC  H19S 4035   5.984   1.594   7.807 -0.6924 -0.4822 -0.0853
   30SAPC  C220 4036   5.871   1.467   7.948  0.4252  0.2345  0.2868
   30SAPC  H20R 4037   5.963   1.442   8.005 -1.0155  1.0062  3.1260
   30SAPC  H20S 4038   5.845   1.377   7.888  1.5507  0.5517 -0.7090
   30SAPC  H20T 4039   5.795   1.485   8.027 -0.5781 -2.6047  0.0920
   30SAPC   C33 4040   6.250   1.026   6.548 -1.3023 -0.2261  0.0137
   30SAPC   H3X 4041   6.158   1.075   6.510  0.0886  0.4186 -2.8552
   30SAPC   H3Y 4042   6.328   1.082   6.491 -0.0887 -1.4955  0.3747
   30SAPC   C34 4043   6.253   1.050   6.697  0.2610  0.2205 -0.6620
   30SAPC   H4X 4044   6.338   0.996   6.745 -1.6092 -1.1536  1.2758
   30SAPC   H4Y 4045   6.156   1.009   6.732  0.3083 -0.7904 -1.6688
   30SAPC   C35 4046   6.275   1.197   6.734 -0.4099 -0.0131  0.0129
   30SAPC   H5X 4047   6.197   1.261   6.689 -0.1592  0.2627 -0.0285
   30SAPC   H5Y 4048   6.370   1.220   6.682 -0.4105 -0.3221 -0.1288
   30SAPC   C36 4049   6.299   1.211   6.887 -0.2305 -0.2626 -0.2721
   30SAPC   H6X 4050   6.318   1.319   6.903  1.8418 -0.2975 -1.9411
   30SAPC   H6Y 4051   6.388   1.152   6.920 -2.2952 -2.7064  1.3127
   30SAPC   C37 4052   6.181   1.160   6.967 -0.2834  0.0449  0.0334
   30SAPC   H7X 4053   6.172   1.052   6.941  3.2449 -0.2961 -0.2262
   30SAPC   H7Y 4054   6.097   1.225   6.935  1.7052  2.6336 -0.2270
   30SAPC   C38 4055   6.203   1.184   7.118 -0.0251  0.2295  0.8257
   30SAPC   H8X 4056   6.247   1.286   7.126  2.1465 -0.4233 -1.5123
   30SAPC   H8Y 4057   6.283   1.115   7.153  1.6804  1.6056 -0.1692
   30SAPC   C39 4058   6.071   1.160   7.187 -0.2657 -0.3761  0.0723
   30SAPC   H9X 4059   6.040   1.064   7.141  0.5566 -0.6538  0.0719
   30SAPC   H9Y 4060   6.000   1.238   7.151  0.7389 -0.4149 -2.1746
   30SAPC  C310 4061   6.072   1.143   7.337  0.5426  0.0305 -0.3175
   30SAPC  H10X 4062   6.143   1.063   7.368  0.4996 -0.3964 -1.2801
   30SAPC  H10Y 4063   5.968   1.121   7.368  0.7252  0.3335  0.5489
   30SAPC  C311 4064   6.125   1.270   7.407 -0.5045  0.5179 -0.7290
   30SAPC  H11X 4065   6.059   1.357   7.386  0.9891  1.2477 -2.7683
   30SAPC  H11Y 4066   6.225   1.285   7.361 -0.3656 -2.3067 -1.5048
   30SAPC  C312 4067   6.146   1.246   7.557 -0.2640  0.0854 -0.4293
   30SAPC  H12X 4068   6.226   1.171   7.579  0.2452 -0.0046 -2.4193
   30SAPC  H12Y 4069   6.050   1.236   7.612 -0.2777 -0.7886 -0.6035
   30SAPC  C313 4070   6.206   1.370   7.628  0.3785  0.1437 -0.3917
   30SAPC  H13X 4071   6.127   1.444   7.656 -0.5726 -0.2485 -1.9422
   30SAPC  H13Y 4072   6.272   1.417   7.552  1.1534 -1.9410 -1.0679
   30SAPC  C314 4073   6.289   1.335   7.750 -0.2147  0.5927  0.0598
   30SAPC  H14X 4074   6.381   1.286   7.711 -0.6786  0.9254 -1.5362
   30SAPC  H14Y 4075   6.234   1.247   7.790  1.6009 -0.7743 -0.3169
   30SAPC  C315 4076   6.322   1.456   7.847  0.4843  0.6760  0.8897
   30SAPC  H15X 4077   6.228   1.510   7.871  1.3313  2.2420  0.8021
   30SAPC  H15Y 4078   6.386   1.526   7.789  0.6238  0.5053  0.8366
   30SAPC  C316 4079   6.386   1.414   7.977  0.7868 -0.4075 -0.6756
   30SAPC  H16X 4080   6.483   1.372   7.942  0.7538 -0.3250 -0.8686
   30SAPC  H16Y 4081   6.304   1.358   8.026  0.3048  1.5743  0.8990
   30SAPC  C317 4082   6.416   1.532   8.063  0.1186  0.3718  0.0058
   30SAPC  H17X 4083   6.323   1.590   8.077 -0.7397 -1.0383  0.3644
   30SAPC  H17Y 4084   6.485   1.596   8.004  0.2579 -0.6703 -1.0112
   30SAPC  C318 4085   6.471   1.500   8.200 -0.9261  0.6099  0.0430
   30SAPC  H18X 4086   6.482   1.590   8.264 -1.5035  0.3415  0.5283
   30SAPC  H18Y 4087   6.570   1.451   8.191 -1.3002  0.2338 -3.2445
   30SAPC  H18Z 4088   6.401   1.426   8.245 -1.5920  0.8966 -0.5050
   31SAPC     N 4089   4.044   3.313   6.107  0.3410  0.1735 -0.0356
   31SAPC   C12 4090   4.130   3.321   6.223 -0.3697  0.1948 -0.3467
   31SAPC  H12A 4091   4.152   3.426   6.238 -0.1016  0.0456  0.3656
   31SAPC  H12B 4092   4.224   3.268   6.218  0.3555  1.4310 -0.3177
   31SAPC   C13 4093   4.019   3.168   6.076 -0.2155  0.2282 -0.0301
   31SAPC  H13A 4094   3.939   3.150   6.007 -1.3239  3.0143  0.4015
   31SAPC  H13B 4095   4.104   3.111   6.043 -0.3006  0.3586 -0.4722
   31SAPC  H13C 4096   3.993   3.123   6.171  0.3368  1.8211  0.9112
   31SAPC   C14 4097   3.915   3.388   6.141 -0.0203 -0.3838 -0.3351
   31SAPC  H14A 4098   3.839   3.370   6.067 -0.5350 -2.3188  0.5995
   31SAPC  H14B 4099   3.870   3.355   6.233 -0.7420  0.2317 -0.4603
   31SAPC  H14C 4100   3.945   3.490   6.163 -0.3264 -0.1950 -0.7663
   31SAPC   C15 4101   4.095   3.374   5.984  0.2230  0.2885  0.3313
   31SAPC  H15A 4102   4.029   3.358   5.901 -0.4131  1.8812  0.4883
   31SAPC  H15B 4103   4.109   3.480   6.000  0.4635  0.3123 -0.0236
   31SAPC  H15C 4104   4.192   3.338   5.953  2.2321  4.7584  0.6904
   31SAPC   C11 4105   4.076   3.269   6.365  0.1847 -0.5318  0.7104
   31SAPC  H11A 4106   3.970   3.290   6.391  0.7959  0.3853  2.6349
   31SAPC  H11B 4107   4.128   3.340   6.432 -1.1233 -0.2473  1.4519
   31SAPC     P 4108   4.257   3.092   6.427 -0.4094  0.0383 -0.0641
   31SAPC   O13 4109   4.273   2.946   6.405 -0.1356  0.2451  0.5187
   31SAPC   O14 4110   4.353   3.182   6.357  0.3388  0.1337 -1.1033
   31SAPC   O12 4111   4.104   3.134   6.378 -0.1258  0.8009 -0.0716
   31SAPC   O11 4112   4.263   3.127   6.580 -0.0114  0.3582 -0.1866
   31SAPC    C1 4113   4.182   3.050   6.666  0.2243  0.1017  0.4780
   31SAPC    HA 4114   4.078   3.038   6.630  0.1166  0.4811  0.6453
   31SAPC    HB 4115   4.230   2.950   6.671  1.2144  0.3894 -1.8535
   31SAPC    C2 4116   4.175   3.108   6.816  0.3285 -0.0621  0.7823
   31SAPC    HS 4117   4.149   3.017   6.875  1.8641 -1.3757 -0.4873
   31SAPC   O21 4118   4.077   3.213   6.835 -0.1744 -0.0582  0.6698
   31SAPC   C21 4119   3.954   3.172   6.824 -0.9787 -0.0034 -0.0782
   31SAPC   O22 4120   3.915   3.058   6.810 -0.0733 -0.3580 -0.6282
   31SAPC   C22 4121   3.858   3.285   6.826 -0.9913 -0.5141 -0.4449
   31SAPC   H2R 4122   3.905   3.382   6.798  0.2591 -0.3037  2.1079
   31SAPC   H2S 4123   3.772   3.260   6.759  0.0521  0.5601 -2.2774
   31SAPC    C3 4124   4.312   3.155   6.868  0.4286  0.6580 -0.7214
   31SAPC    HX 4125   4.319   3.257   6.825 -2.4299  1.3434  0.1869
   31SAPC    HY 4126   4.387   3.089   6.819  0.1482  0.1519 -0.4779
   31SAPC   O31 4127   4.314   3.153   7.008 -0.2850 -0.0435 -0.1186
   31SAPC   C31 4128   4.358   3.261   7.073  0.5481  0.6174  0.4701
   31SAPC   O32 4129   4.413   3.362   7.033  0.2048 -0.0729  0.2221
   31SAPC   C32 4130   4.313   3.228   7.220  0.3792  0.6519  0.0560
   31SAPC   H2X 4131   4.363   3.139   7.264 -0.6799 -0.6208 -1.1861
   31SAPC   H2Y 4132   4.204   3.208   7.224  0.5167  0.1135  1.9250
   31SAPC   C23 4133   3.790   3.322   6.957 -0.6075 -0.3058  0.1177
   31SAPC   H3R 4134   3.735   3.418   6.943 -1.1427 -0.7283 -0.8171
   31SAPC   H3S 4135   3.867   3.345   7.033 -0.4199  0.9910 -0.4350
   31SAPC   C24 4136   3.697   3.218   7.007 -0.4107  0.1145 -0.7171
   31SAPC   H4R 4137   3.750   3.121   7.017 -1.2951 -0.2393  1.0573
   31SAPC   H4S 4138   3.619   3.197   6.931  0.6722 -2.0619 -1.3018
   31SAPC   C25 4139   3.634   3.252   7.135 -1.2627  0.1602 -0.4054
   31SAPC   H5R 4140   3.526   3.275   7.137 -1.2273  0.3983  2.5055
   31SAPC   C26 4141   3.692   3.255   7.258 -0.2256 -0.2761  1.0019
   31SAPC   H6R 4142   3.627   3.281   7.342 -2.0955 -0.2341 -0.3905
   31SAPC   C27 4143   3.838   3.215   7.292  0.3391 -0.6498  0.1676
   31SAPC   H7R 4144   3.894   3.309   7.311  0.5191 -0.4754 -1.1470
   31SAPC   H7S 4145   3.904   3.159   7.223  1.7886 -0.3072  1.2270
   31SAPC   C28 4146   3.841   3.129   7.418 -0.1211  0.4749  0.3756
   31SAPC   H8R 4147   3.844   3.020   7.411 -0.4345  0.5496 -1.2024
   31SAPC   C29 4148   3.865   3.178   7.537  0.7190 -0.2849  0.0203
   31SAPC   H9R 4149   3.874   3.121   7.631  0.1750  0.2358  0.4021
   31SAPC  C210 4150   3.883   3.326   7.562  0.4518 -0.5315 -0.5167
   31SAPC  H10R 4151   3.804   3.384   7.510  0.1110 -0.2667  0.2754
   31SAPC  H10S 4152   3.975   3.373   7.521 -0.1718  0.7008 -0.5520
   31SAPC  C211 4153   3.867   3.365   7.703 -0.1138 -0.1647  0.0368
   31SAPC  H11R 4154   3.790   3.443   7.707 -0.4872 -0.5136 -0.2611
   31SAPC  C212 4155   3.926   3.333   7.811  0.0570  1.3374 -0.1374
   31SAPC  H12R 4156   3.874   3.365   7.902  0.0046  0.7907  0.0246
   31SAPC  C213 4157   4.036   3.230   7.824 -0.0805 -0.1973 -0.1944
   31SAPC  H13R 4158   4.076   3.206   7.723  2.2624 -0.6100  0.7717
   31SAPC  H13S 4159   3.990   3.135   7.858 -3.7906  0.5142 -2.6369
   31SAPC  C214 4160   4.156   3.278   7.900 -0.5232 -0.7269  0.1770
   31SAPC  H14R 4161   4.217   3.358   7.856  0.1494  0.3629  2.8782
   31SAPC  C215 4162   4.188   3.235   8.025  0.6408  0.3155  1.2378
   31SAPC  H15R 4163   4.276   3.275   8.078  1.3424  2.1764 -1.1151
   31SAPC  C216 4164   4.123   3.125   8.104  0.3219 -0.0268  0.2830
   31SAPC  H16R 4165   4.172   3.027   8.087 -1.3055 -0.5314 -2.0451
   31SAPC  H16S 4166   4.017   3.108   8.073  0.1569 -2.3083  1.8988
   31SAPC  C217 4167   4.153   3.137   8.257  0.6731  0.2953 -0.2473
   31SAPC  H17R 4168   4.096   3.229   8.281 -1.5384 -0.5526 -1.8882
   31SAPC  H17S 4169   4.261   3.161   8.264  0.3460  1.4821  0.9864
   31SAPC  C218 4170   4.104   3.014   8.343  0.3496 -0.6335 -0.2710
   31SAPC  H18R 4171   4.150   2.919   8.308 -0.8317 -1.9619  1.6410
   31SAPC  H18S 4172   3.995   3.008   8.326  0.3089  0.9662 -0.7491
   31SAPC  C219 4173   4.132   3.028   8.498 -0.1800 -0.1465  0.1519
   31SAPC  H19R 4174   4.111   3.132   8.530  1.7892  0.1344  0.6414
   31SAPC  H19S 4175   4.241   3.008   8.506  0.1611  1.5838  0.3030
   31SAPC  C220 4176   4.065   2.924   8.591 -0.2414  0.2428  0.1685
   31SAPC  H20R 4177   3.956   2.918   8.572 -0.1021 -1.8454 -0.2451
   31SAPC  H20S 4178   4.086   2.945   8.698  3.0667  0.6096 -0.4389
   31SAPC  H20T 4179   4.109   2.825   8.566  1.1010  0.6228  0.9252
   31SAPC   C33 4180   4.349   3.343   7.312  0.0505  0.0851 -0.3908
   31SAPC   H3X 4181   4.318   3.437   7.263 -0.2462  0.0431 -0.2889
   31SAPC   H3Y 4182   4.458   3.351   7.333 -0.5008  1.8236  2.3862
   31SAPC   C34 4183   4.281   3.327   7.448  0.3177  0.1646 -0.8876
   31SAPC   H4X 4184   4.296   3.224   7.486  2.4562  0.5622 -0.5366
   31SAPC   H4Y 4185   4.172   3.339   7.431 -0.0451 -1.1158  0.3879
   31SAPC   C35 4186   4.313   3.431   7.558  0.2331 -0.1131  0.1411
   31SAPC   H5X 4187   4.405   3.400   7.613  0.3330  2.7624  1.8109
   31SAPC   H5Y 4188   4.234   3.417   7.635  0.3671  0.7065  0.4437
   31SAPC   C36 4189   4.314   3.572   7.499 -0.5308  0.4610  0.6761
   31SAPC   H6X 4190   4.214   3.592   7.454 -0.4956 -1.8952 -0.6259
   31SAPC   H6Y 4191   4.390   3.585   7.420  0.0320 -1.1671  0.9200
   31SAPC   C37 4192   4.334   3.673   7.608  0.2736  0.2152  0.1490
   31SAPC   H7X 4193   4.259   3.654   7.688 -2.5695  1.4781 -2.0552
   31SAPC   H7Y 4194   4.310   3.769   7.557  1.0375 -0.2051 -1.0288
   31SAPC   C38 4195   4.482   3.671   7.644 -0.0979 -0.3644  0.5677
   31SAPC   H8X 4196   4.531   3.701   7.549  0.0670 -1.2135  0.3823
   31SAPC   H8Y 4197   4.525   3.570   7.660  2.1290  0.5720  0.8220
   31SAPC   C39 4198   4.540   3.776   7.744  0.2565 -0.2058  0.0025
   31SAPC   H9X 4199   4.534   3.873   7.691 -1.7354  0.2280  0.8909
   31SAPC   H9Y 4200   4.648   3.752   7.751  0.3202  0.0889  0.0071
   31SAPC  C310 4201   4.471   3.785   7.883  0.4538  0.4442  0.4993
   31SAPC  H10X 4202   4.463   3.684   7.926  1.6891  0.4914  0.8646
   31SAPC  H10Y 4203   4.367   3.823   7.873  0.1479 -0.8902 -3.0529
   31SAPC  C311 4204   4.560   3.868   7.983  0.6228  0.4646  0.2991
   31SAPC  H11X 4205   4.490   3.904   8.061  1.2831  0.6970  0.7916
   31SAPC  H11Y 4206   4.608   3.941   7.915  1.4344 -1.5500 -1.4351
   31SAPC  C312 4207   4.677   3.797   8.052 -0.4994  0.2764 -0.0367
   31SAPC  H12X 4208   4.760   3.804   7.978 -0.2340  2.3107  0.4135
   31SAPC  H12Y 4209   4.666   3.705   8.113 -3.0526  2.0991  2.5126
   31SAPC  C313 4210   4.737   3.893   8.162 -0.6722  0.5362 -0.0024
   31SAPC  H13X 4211   4.660   3.934   8.231 -2.0781 -0.2803 -1.0322
   31SAPC  H13Y 4212   4.777   3.976   8.100 -0.1916  0.6757  0.4882
   31SAPC  C314 4213   4.848   3.836   8.249 -0.0324 -0.1587 -0.4817
   31SAPC  H14X 4214   4.890   3.934   8.280  0.3011 -0.0094 -1.3451
   31SAPC  H14Y 4215   4.934   3.794   8.191 -1.5281 -1.7316 -1.6834
   31SAPC  C315 4216   4.789   3.738   8.353 -0.8936  0.9378  0.7425
   31SAPC  H15X 4217   4.766   3.639   8.308 -1.8033  0.4523  2.2234
   31SAPC  H15Y 4218   4.690   3.768   8.392 -1.2829  2.7320 -1.4469
   31SAPC  C316 4219   4.890   3.720   8.465 -0.9707 -0.4519  0.0021
   31SAPC  H16X 4220   4.905   3.811   8.528 -3.0508 -0.4324  0.5547
   31SAPC  H16Y 4221   4.981   3.691   8.409  0.4661  3.2231  0.1328
   31SAPC  C317 4222   4.864   3.608   8.561 -0.7681  0.1127  0.0066
   31SAPC  H17X 4223   4.828   3.522   8.501 -0.7721  0.6962 -0.8521
   31SAPC  H17Y 4224   4.777   3.622   8.629 -1.1472 -0.6415 -0.3076
   31SAPC  C318 4225   4.987   3.560   8.644  0.0226 -0.4358  0.4463
   31SAPC  H18X 4226   5.019   3.640   8.714 -0.5370  0.2982 -0.1248
   31SAPC  H18Y 4227   5.075   3.553   8.577  0.5746  1.0005  0.9835
   31SAPC  H18Z 4228   4.961   3.468   8.702 -0.1596 -0.8536 -0.2893
   32SAPC     N 4229   0.587   1.544   5.927  0.0425 -0.3069  0.4506
   32SAPC   C12 4230   0.694   1.652   5.929  0.3555 -0.3633  0.3354
   32SAPC  H12A 4231   0.647   1.742   5.893  1.7708  0.5244  0.6269
   32SAPC  H12B 4232   0.778   1.647   5.861  0.4830  1.2896  0.3340
   32SAPC   C13 4233   0.463   1.594   5.994 -0.4243 -0.1366 -0.2708
   32SAPC  H13A 4234   0.423   1.681   5.945 -0.7473 -0.4906 -0.6469
   32SAPC  H13B 4235   0.392   1.512   5.998 -0.8356  0.2478  0.8955
   32SAPC  H13C 4236   0.478   1.629   6.095  1.0279  0.8754 -0.8197
   32SAPC   C14 4237   0.556   1.512   5.782  0.2091 -0.4702  0.5378
   32SAPC  H14A 4238   0.505   1.592   5.730  0.9177 -0.4872 -0.2107
   32SAPC  H14B 4239   0.642   1.495   5.719 -2.0897  0.1606 -3.0452
   32SAPC  H14C 4240   0.495   1.426   5.765 -1.8664  1.4392 -2.6859
   32SAPC   C15 4241   0.625   1.413   5.987 -0.5001 -0.0398  0.4215
   32SAPC  H15A 4242   0.641   1.405   6.093 -0.7411  2.0484  0.6500
   32SAPC  H15B 4243   0.547   1.344   5.960 -2.7983  2.5998 -0.0858
   32SAPC  H15C 4244   0.714   1.385   5.933  0.2136  1.3236  0.8475
   32SAPC   C11 4245   0.747   1.669   6.072  0.1552  0.0881  0.4391
   32SAPC  H11A 4246   0.801   1.579   6.107 -1.1924 -1.3033 -0.9251
   32SAPC  H11B 4247   0.664   1.693   6.141 -1.7938  0.7642 -1.9732
   32SAPC     P 4248   0.801   1.927   6.122 -0.2047 -0.0213 -0.1979
   32SAPC   O13 4249   0.917   2.016   6.113 -0.1182 -0.1420  0.4742
   32SAPC   O14 4250   0.674   1.964   6.066 -0.1143 -0.2005  0.3678
   32SAPC   O12 4251   0.837   1.785   6.063  0.2672 -0.0321 -0.1041
   32SAPC   O11 4252   0.779   1.889   6.275  0.5900  0.1419  0.2884
   32SAPC    C1 4253   0.886   1.831   6.346  0.3193  0.9052 -0.1345
   32SAPC    HA 4254   0.856   1.727   6.373  0.3631  1.3100  1.5911
   32SAPC    HB 4255   0.980   1.817   6.288  1.1592  0.1967  1.3100
   32SAPC    C2 4256   0.912   1.900   6.491 -1.0260 -0.3643  0.4419
   32SAPC    HS 4257   0.985   1.831   6.538  1.9986  1.2456 -1.5624
   32SAPC   O21 4258   0.793   1.911   6.564  0.4353 -0.3552 -0.4532
   32SAPC   C21 4259   0.760   1.801   6.640  0.4689 -0.7586  1.3683
   32SAPC   O22 4260   0.825   1.697   6.646  0.1787  0.5420 -0.1108
   32SAPC   C22 4261   0.633   1.832   6.720  0.1777 -0.3168  0.5927
   32SAPC   H2R 4262   0.610   1.939   6.705  0.6089 -0.4431 -1.1952
   32SAPC   H2S 4263   0.544   1.781   6.677  0.1047  1.5211 -1.6106
   32SAPC    C3 4264   0.977   2.033   6.475  0.6214 -0.7043  0.4223
   32SAPC    HX 4265   0.902   2.110   6.448  1.1502 -0.4438 -0.3743
   32SAPC    HY 4266   1.040   2.025   6.383  1.9959  1.4979  1.0794
   32SAPC   O31 4267   1.049   2.071   6.593  0.4131 -0.5704  0.0389
   32SAPC   C31 4268   1.089   2.194   6.586 -0.1954 -1.2746 -0.5404
   32SAPC   O32 4269   1.066   2.276   6.498 -0.0459  0.2196  0.4990
   32SAPC   C32 4270   1.147   2.232   6.728  0.1790  0.0563  0.3884
   32SAPC   H2X 4271   1.222   2.312   6.707 -0.1531  1.0748  2.7557
   32SAPC   H2Y 4272   1.211   2.149   6.764 -0.0695  0.1207  0.9843
   32SAPC   C23 4273   0.654   1.809   6.868  0.6683  0.0450 -0.6473
   32SAPC   H3R 4274   0.566   1.868   6.900 -0.8783 -2.0409 -0.8666
   32SAPC   H3S 4275   0.751   1.844   6.911 -0.1196 -0.1436  1.3706
   32SAPC   C24 4276   0.651   1.664   6.920 -0.0146  0.2444  0.4977
   32SAPC   H4R 4277   0.755   1.624   6.908 -0.2408 -0.7153  1.5489
   32SAPC   H4S 4278   0.591   1.600   6.852  1.5043  0.8740 -1.5628
   32SAPC   C25 4279   0.612   1.644   7.064  0.2511  0.3180 -0.1659
   32SAPC   H5R 4280   0.545   1.722   7.103 -0.6541 -0.5649  0.1049
   32SAPC   C26 4281   0.657   1.545   7.144 -0.4173  0.3238  0.0529
   32SAPC   H6R 4282   0.614   1.543   7.245 -1.1272  0.6856 -0.2321
   32SAPC   C27 4283   0.741   1.432   7.097 -0.6265  0.0419 -0.8484
   32SAPC   H7R 4284   0.828   1.426   7.166 -1.2800 -0.5353 -0.0599
   32SAPC   H7S 4285   0.789   1.441   6.998  1.8537 -1.1248  0.1481
   32SAPC   C28 4286   0.671   1.300   7.109  0.2033 -0.2809 -0.2755
   32SAPC   H8R 4287   0.615   1.264   7.022 -1.6187 -0.8381  1.0584
   32SAPC   C29 4288   0.679   1.217   7.212 -0.6890  1.0712 -0.2817
   32SAPC   H9R 4289   0.624   1.122   7.213 -2.0957  1.8497 -0.8222
   32SAPC  C210 4290   0.754   1.248   7.343 -0.2676  0.6869 -0.5013
   32SAPC  H10R 4291   0.848   1.303   7.325 -0.8398  1.4306 -1.2708
   32SAPC  H10S 4292   0.779   1.147   7.383 -0.6269  0.0360 -1.8532
   32SAPC  C211 4293   0.668   1.313   7.453  0.4548  0.3613  0.9282
   32SAPC  H11R 4294   0.570   1.266   7.467  1.3194 -1.7155  0.3065
   32SAPC  C212 4295   0.711   1.406   7.543  0.3521  0.1289  0.3645
   32SAPC  H12R 4296   0.632   1.437   7.614  0.3074 -0.3258  0.5136
   32SAPC  C213 4297   0.847   1.462   7.566  0.0213 -0.0179 -0.4941
   32SAPC  H13R 4298   0.887   1.494   7.467  0.9637 -1.0560 -0.4771
   32SAPC  H13S 4299   0.914   1.377   7.592 -1.3874 -0.9780  0.1077
   32SAPC  C214 4300   0.866   1.581   7.656  0.1844 -0.0769 -0.0024
   32SAPC  H14R 4301   0.879   1.674   7.600  0.0069  0.0046  0.0919
   32SAPC  C215 4302   0.870   1.581   7.792 -0.0033  0.1851  0.4515
   32SAPC  H15R 4303   0.852   1.678   7.841  0.1516 -0.3777  1.6482
   32SAPC  C216 4304   0.848   1.465   7.887  0.6895 -0.1853 -0.4023
   32SAPC  H16R 4305   0.875   1.363   7.850  1.2393  0.2121 -1.1195
   32SAPC  H16S 4306   0.743   1.466   7.922  1.2435 -2.3276  1.5954
   32SAPC  C217 4307   0.932   1.473   8.017  0.4797 -0.4396  0.1006
   32SAPC  H17R 4308   0.964   1.578   8.035  1.1344 -0.8369  1.3270
   32SAPC  H17S 4309   1.027   1.415   8.013 -0.3962 -1.8876 -1.2828
   32SAPC  C218 4310   0.858   1.423   8.136 -0.8854  0.1755 -0.0944
   32SAPC  H18R 4311   0.798   1.332   8.113  0.3168 -0.9814  1.1195
   32SAPC  H18S 4312   0.780   1.501   8.145 -1.5966 -0.5160 -0.2084
   32SAPC  C219 4313   0.929   1.399   8.269 -0.5944 -0.1926  0.5147
   32SAPC  H19R 4314   0.851   1.387   8.346 -0.1328 -1.8796  0.7596
   32SAPC  H19S 4315   0.980   1.493   8.302  0.0470 -1.0554  2.0481
   32SAPC  C220 4316   1.016   1.276   8.287 -0.2035  0.3714 -0.0653
   32SAPC  H20R 4317   1.118   1.287   8.244  0.8741  2.2312  2.6877
   32SAPC  H20S 4318   0.955   1.193   8.246 -0.3435  0.1012  0.6682
   32SAPC  H20T 4319   1.040   1.249   8.392 -2.3706 -1.8704 -0.0422
   32SAPC   C33 4320   1.036   2.266   6.829  0.9975  0.4248  0.9318
   32SAPC   H3X 4321   0.964   2.182   6.824  0.3190  1.0583 -0.7521
   32SAPC   H3Y 4322   0.983   2.360   6.803  0.2341  0.7576  3.4653
   32SAPC   C34 4323   1.075   2.286   6.972  0.4864 -0.6124 -0.7709
   32SAPC   H4X 4324   1.161   2.353   6.990  0.4562 -1.1398  1.8878
   32SAPC   H4Y 4325   1.094   2.189   7.023  0.2063 -1.6812 -2.6179
   32SAPC   C35 4326   0.959   2.356   7.054  0.1457 -1.1414  0.4746
   32SAPC   H5X 4327   0.861   2.309   7.031 -0.3264  0.9055 -2.1752
   32SAPC   H5Y 4328   0.954   2.463   7.025  0.5166 -1.4358 -0.7111
   32SAPC   C36 4329   0.994   2.347   7.198  0.0518  0.0228 -0.1745
   32SAPC   H6X 4330   1.095   2.392   7.199  0.4520 -0.6991 -2.5694
   32SAPC   H6Y 4331   1.009   2.242   7.233  1.0579  0.2633  0.1448
   32SAPC   C37 4332   0.898   2.426   7.281 -0.1578 -0.0628 -0.3414
   32SAPC   H7X 4333   0.796   2.382   7.281  0.4339 -1.5387 -1.9901
   32SAPC   H7Y 4334   0.881   2.519   7.222 -0.2921 -0.2423 -0.5883
   32SAPC   C38 4335   0.945   2.445   7.426  0.4102  0.2243  0.2456
   32SAPC   H8X 4336   1.044   2.496   7.428  1.7818 -2.1372 -1.7467
   32SAPC   H8Y 4337   0.968   2.351   7.481  2.4667 -0.1464 -1.1425
   32SAPC   C39 4338   0.854   2.528   7.518  0.3695 -0.6231 -0.5035
   32SAPC   H9X 4339   0.748   2.501   7.495  0.0537  0.9565 -1.0084
   32SAPC   H9Y 4340   0.850   2.636   7.494  0.7692 -0.4917 -0.0076
   32SAPC  C310 4341   0.881   2.512   7.668  0.0265 -0.0694  0.1191
   32SAPC  H10X 4342   0.917   2.408   7.682  0.9179  0.0628 -1.0054
   32SAPC  H10Y 4343   0.782   2.513   7.718 -0.3356 -1.9509 -0.4647
   32SAPC  C311 4344   0.966   2.624   7.722 -0.0791  0.0121 -0.3470
   32SAPC  H11X 4345   0.921   2.717   7.682  2.1478  0.0542 -3.0538
   32SAPC  H11Y 4346   1.061   2.613   7.667 -0.1028  1.2506 -0.6619
   32SAPC  C312 4347   0.993   2.622   7.881 -0.1296 -0.6236 -0.0390
   32SAPC  H12X 4348   1.034   2.520   7.899  1.8335 -0.1618 -1.5727
   32SAPC  H12Y 4349   0.899   2.623   7.939  0.4133 -0.2486  0.8639
   32SAPC  C313 4350   1.082   2.741   7.928 -0.3492  0.0856  0.2193
   32SAPC  H13X 4351   1.046   2.837   7.886 -2.7479 -1.5876 -1.8627
   32SAPC  H13Y 4352   1.178   2.731   7.874  0.0096  3.1487  0.1397
   32SAPC  C314 4353   1.104   2.741   8.079 -0.1951 -0.3280  0.0208
   32SAPC  H14X 4354   1.161   2.652   8.111  0.4158 -0.4245 -1.2717
   32SAPC  H14Y 4355   1.010   2.744   8.138 -1.1756  0.8971 -1.5184
   32SAPC  C315 4356   1.193   2.864   8.126 -0.2942 -0.0856 -0.0055
   32SAPC  H15X 4357   1.141   2.957   8.094 -1.5482  0.3285  2.9671
   32SAPC  H15Y 4358   1.286   2.851   8.065 -0.8107  0.6398 -0.9849
   32SAPC  C316 4359   1.207   2.867   8.282  0.1162  0.0483 -0.3679
   32SAPC  H16X 4360   1.289   2.807   8.327 -0.9631 -0.2838  1.2500
   32SAPC  H16Y 4361   1.113   2.848   8.338 -0.7914 -0.3533 -1.9519
   32SAPC  C317 4362   1.229   3.013   8.338 -0.4074  0.0516 -0.5804
   32SAPC  H17X 4363   1.205   3.024   8.446  1.9508 -1.4320  0.1504
   32SAPC  H17Y 4364   1.169   3.090   8.284 -0.3633 -1.3513 -2.7391
   32SAPC  C318 4365   1.378   3.058   8.331  0.3470 -0.3110  0.3011
   32SAPC  H18X 4366   1.442   2.968   8.343  0.0006 -0.3054  2.6852
   32SAPC  H18Y 4367   1.411   3.127   8.411 -0.6563 -1.5401  1.8383
   32SAPC  H18Z 4368   1.398   3.121   8.242 -2.3628 -0.0027 -0.1676
   33POPC     N 4369   5.726   2.410  10.863 -0.1880  0.2749  0.5734
   33POPC   C12 4370   5.784   2.367  10.733 -0.5219  0.3418  0.1517
   33POPC  H12A 4371   5.852   2.439  10.689 -1.3649  0.8241 -0.3825
   33POPC  H12B 4372   5.704   2.360  10.662  1.0240 -2.2017 -1.5004
   33POPC   C13 4373   5.602   2.343  10.902 -0.2962  0.3736  0.4047
   33POPC  H13A 4374   5.627   2.247  10.945  1.8606 -0.0035 -1.4742
   33POPC  H13B 4375   5.543   2.398  10.974  0.3529  1.3797  0.1968
   33POPC  H13C 4376   5.545   2.333  10.810  2.2622  4.4402 -1.9450
   33POPC   C14 4377   5.834   2.388  10.969  0.3628 -0.3370 -0.2145
   33POPC  H14A 4378   5.870   2.287  10.978 -2.1785 -1.2265  1.0433
   33POPC  H14B 4379   5.923   2.440  10.936  1.1495 -0.5771  1.4551
   33POPC  H14C 4380   5.799   2.422  11.065  1.5177 -3.1707  1.3378
   33POPC   C15 4381   5.705   2.556  10.859 -0.1858 -0.0173 -0.1198
   33POPC  H15A 4382   5.659   2.597  10.771 -0.3298 -1.3787 -0.7023
   33POPC  H15B 4383   5.790   2.617  10.885  0.9132 -1.3788 -0.4029
   33POPC  H15C 4384   5.631   2.586  10.931 -0.2481 -0.6285  0.0840
   33POPC   C11 4385   5.860   2.232  10.729  0.6281  0.1293  0.6557
   33POPC  H11A 4386   5.834   2.192  10.629 -0.6189  1.5786  0.3643
   33POPC  H11B 4387   5.805   2.166  10.800 -0.8526 -0.4179 -0.9429
   33POPC     P 4388   6.100   2.285  10.665  0.2494 -0.1542 -0.4127
   33POPC   O13 4389   6.231   2.299  10.730 -0.4254  0.0722 -0.2915
   33POPC   O14 4390   6.045   2.401  10.586 -0.3143 -0.0726  0.2848
   33POPC   O12 4391   5.991   2.247  10.779  0.5009  0.7465  0.1288
   33POPC   O11 4392   6.104   2.159  10.575 -0.3193  0.0694  0.1746
   33POPC    C1 4393   6.128   2.030  10.639  0.4483  0.8779  0.5697
   33POPC    HA 4394   6.218   2.034  10.704  2.8047 -2.7988 -2.0588
   33POPC    HB 4395   6.042   2.011  10.706 -1.1987 -1.3951 -1.9459
   33POPC    C2 4396   6.144   1.912  10.537  0.3870 -0.5074 -0.2438
   33POPC    HS 4397   6.126   1.823  10.601  2.3797  1.0431  2.6788
   33POPC   O21 4398   6.274   1.914  10.485 -0.0377  0.7690 -0.4829
   33POPC   C21 4399   6.343   1.803  10.489 -0.4739  0.7866  0.4181
   33POPC   O22 4400   6.315   1.699  10.544  0.2845  0.0240 -0.3422
   33POPC   C22 4401   6.482   1.834  10.434 -0.1499 -0.1525 -0.2766
   33POPC   H2R 4402   6.559   1.808  10.511 -0.1458 -1.0192 -0.5645
   33POPC   H2S 4403   6.492   1.942  10.409  0.6562 -0.4135 -1.1399
   33POPC    C3 4404   6.054   1.918  10.411  0.6306 -0.0655 -1.6715
   33POPC    HX 4405   6.068   2.020  10.369 -0.0305  0.5078 -0.5290
   33POPC    HY 4406   5.950   1.908  10.449  0.3010 -2.2231 -2.9387
   33POPC   O31 4407   6.079   1.818  10.307 -0.4607 -0.2849 -0.1993
   33POPC   C31 4408   5.999   1.840  10.207 -0.3017 -0.1151  0.3484
   33POPC   O32 4409   5.902   1.914  10.214  0.6158  0.4167  0.5312
   33POPC   C32 4410   6.047   1.772  10.086 -0.5192  0.1167  0.3076
   33POPC   H2X 4411   6.075   1.665  10.097 -0.5861 -0.2633 -2.3748
   33POPC   H2Y 4412   6.132   1.826  10.038  0.7133 -0.3238  1.9124
   33POPC   C23 4413   6.516   1.753  10.309 -0.3150  0.0618  0.2514
   33POPC   H3R 4414   6.491   1.650  10.343  1.2100 -0.4319 -0.0402
   33POPC   H3S 4415   6.624   1.749  10.284 -0.6804  1.8186 -1.8373
   33POPC   C24 4416   6.427   1.792  10.190 -0.1000 -0.0019 -0.0887
   33POPC   H4R 4417   6.427   1.899  10.163 -0.3197 -0.1640 -0.7398
   33POPC   H4S 4418   6.321   1.780  10.222  0.3472  0.3540  1.6605
   33POPC   C25 4419   6.466   1.710  10.063 -0.0376  0.4240  0.0920
   33POPC   H5R 4420   6.457   1.600  10.080 -1.6834  0.5628  0.3104
   33POPC   H5S 4421   6.574   1.730  10.044 -0.5949  1.1670 -2.6239
   33POPC   C26 4422   6.388   1.737   9.935  0.7604  0.1040  0.0144
   33POPC   H6R 4423   6.283   1.702   9.942  0.4259  1.0380 -0.0984
   33POPC   H6S 4424   6.436   1.675   9.857  0.9330 -0.1383  0.3116
   33POPC   C27 4425   6.379   1.886   9.883 -0.2548 -0.5125 -0.3340
   33POPC   H7R 4426   6.460   1.951   9.923 -1.1469  0.8100 -0.6080
   33POPC   H7S 4427   6.287   1.930   9.926  0.1967 -0.5640  0.7171
   33POPC   C28 4428   6.365   1.888   9.728 -0.4312 -0.6383 -0.5128
   33POPC   H8R 4429   6.351   1.993   9.696  1.6871 -0.2311 -0.2820
   33POPC   H8S 4430   6.281   1.830   9.684  0.1704  0.6257 -3.5695
   33POPC   C29 4431   6.499   1.863   9.665 -0.2737  0.2159 -0.3834
   33POPC   H91 4432   6.567   1.945   9.690 -1.6324  0.5365  2.7835
   33POPC  C210 4433   6.527   1.771   9.573  0.0251 -0.1999  0.1880
   33POPC  H101 4434   6.628   1.768   9.531  0.3621  0.6724  0.8964
   33POPC  C211 4435   6.434   1.666   9.529  0.5123  0.3645  0.7873
   33POPC  H11R 4436   6.340   1.656   9.586 -0.1514  0.2176 -0.2977
   33POPC  H11S 4437   6.482   1.565   9.526 -0.5637 -0.1750 -2.0755
   33POPC  C212 4438   6.398   1.698   9.385 -0.1291  0.0297  0.3418
   33POPC  H12R 4439   6.350   1.798   9.373 -2.3705 -0.8236  1.5119
   33POPC  H12S 4440   6.324   1.623   9.349  0.1744 -0.1889  0.1718
   33POPC  C213 4441   6.503   1.681   9.279  0.3252  0.2929 -0.7661
   33POPC  H13R 4442   6.519   1.573   9.260  2.1146  0.5974 -1.1423
   33POPC  H13S 4443   6.599   1.732   9.301  0.2039  0.4635 -0.6308
   33POPC  C214 4444   6.459   1.743   9.148 -0.0473 -0.6667  0.0299
   33POPC  H14R 4445   6.437   1.851   9.164  0.2674 -0.3876 -1.3106
   33POPC  H14S 4446   6.364   1.693   9.122 -1.9237  2.3394  0.5495
   33POPC  C215 4447   6.558   1.725   9.038 -1.1690  0.9529  0.2873
   33POPC  H15R 4448   6.660   1.738   9.082 -2.0520  2.7104  1.9463
   33POPC  H15S 4449   6.547   1.802   8.959 -2.3064 -1.1419 -1.7393
   33POPC  C216 4450   6.562   1.585   8.976  0.1006 -0.3280  0.3853
   33POPC  H16R 4451   6.454   1.563   8.957  0.3878 -1.2765 -0.2275
   33POPC  H16S 4452   6.583   1.506   9.051 -0.7460  0.0589  1.0492
   33POPC  C217 4453   6.639   1.577   8.845  0.4655  0.1430 -0.2766
   33POPC  H17R 4454   6.740   1.612   8.874 -0.5293  1.9919  1.2009
   33POPC  H17S 4455   6.595   1.656   8.780 -1.5784 -2.1183 -1.8373
   33POPC  C218 4456   6.632   1.452   8.764  0.5044 -0.0828  0.0035
   33POPC  H18R 4457   6.531   1.406   8.763 -1.2686  3.4180 -2.5830
   33POPC  H18S 4458   6.708   1.378   8.797  0.7742 -0.4493 -1.3871
   33POPC  H18T 4459   6.639   1.482   8.658 -2.2643  1.0623  0.0538
   33POPC   C33 4460   5.941   1.756   9.975  0.0722 -0.2564  0.1702
   33POPC   H3X 4461   5.899   1.855   9.947  1.8382 -0.3200 -3.1520
   33POPC   H3Y 4462   5.854   1.697  10.012  1.2053 -2.3272 -0.3259
   33POPC   C34 4463   6.018   1.708   9.852 -0.0320 -0.5123  0.1717
   33POPC   H4X 4464   6.051   1.604   9.874  1.0976 -0.5654 -1.6424
   33POPC   H4Y 4465   6.112   1.765   9.841 -0.0729 -0.5531 -0.4243
   33POPC   C35 4466   5.935   1.722   9.727 -0.2030 -0.0765 -0.3178
   33POPC   H5X 4467   5.890   1.823   9.718 -1.4566 -0.5650  0.1997
   33POPC   H5Y 4468   5.857   1.643   9.737  0.1420 -0.1055  3.5241
   33POPC   C36 4469   6.017   1.707   9.598  0.2195  0.3345 -0.2739
   33POPC   H6X 4470   6.067   1.608   9.608  1.1440  0.9757  2.0702
   33POPC   H6Y 4471   6.100   1.778   9.583  0.5651 -0.3786 -1.9689
   33POPC   C37 4472   5.925   1.699   9.468  0.4025  0.2189 -0.1463
   33POPC   H7X 4473   5.845   1.775   9.479  2.0703  1.9148  0.9053
   33POPC   H7Y 4474   5.879   1.599   9.463  1.3244 -0.1840 -3.4231
   33POPC   C38 4475   5.999   1.726   9.336  0.0400  1.5065 -0.7446
   33POPC   H8X 4476   6.087   1.659   9.346 -1.4974 -0.5919 -0.4647
   33POPC   H8Y 4477   6.036   1.830   9.342  2.3470  0.6974  0.9756
   33POPC   C39 4478   5.904   1.691   9.217 -0.0595  0.6368  0.0314
   33POPC   H9X 4479   5.842   1.784   9.214 -0.3470  0.4237 -0.6949
   33POPC   H9Y 4480   5.849   1.599   9.243  0.8391  0.1061  0.0851
   33POPC  C310 4481   5.968   1.676   9.076 -0.3419 -0.0111  0.2466
   33POPC  H10X 4482   5.884   1.662   9.005  1.2126 -1.9170 -1.3477
   33POPC  H10Y 4483   6.024   1.580   9.068  0.6259  0.6876 -3.0413
   33POPC  C311 4484   6.060   1.790   9.023  0.1631 -0.0964  1.1966
   33POPC  H11X 4485   6.147   1.815   9.088  0.8665 -0.3555  0.3702
   33POPC  H11Y 4486   5.999   1.883   9.026  0.9166  0.5615 -1.3699
   33POPC  C312 4487   6.121   1.753   8.887  0.2572  0.1699 -0.0901
   33POPC  H12X 4488   6.043   1.725   8.814  1.5602 -0.0738 -1.4408
   33POPC  H12Y 4489   6.186   1.663   8.896  0.7250  0.3885 -1.1437
   33POPC  C313 4490   6.206   1.864   8.818 -0.2530 -0.0692 -0.9221
   33POPC  H13X 4491   6.286   1.911   8.879  1.1792 -2.6823 -0.6193
   33POPC  H13Y 4492   6.143   1.946   8.779  1.4972  1.6304 -0.3319
   33POPC  C314 4493   6.287   1.818   8.696  0.7962  0.5212 -0.2226
   33POPC  H14X 4494   6.214   1.769   8.628  0.2196  0.2702  0.5571
   33POPC  H14Y 4495   6.364   1.741   8.717  0.7883  0.7626  0.7136
   33POPC  C315 4496   6.356   1.934   8.622  0.6052  0.1836 -0.1350
   33POPC  H15X 4497   6.411   1.993   8.698  2.5014 -0.4571 -0.9616
   33POPC  H15Y 4498   6.283   2.003   8.574 -1.5801 -1.1755  1.0656
   33POPC  C316 4499   6.452   1.886   8.516 -0.7798 -1.6339  0.1334
   33POPC  H16X 4500   6.394   1.820   8.447 -0.6023 -0.7800 -0.8600
   33POPC  H16Y 4501   6.532   1.824   8.560 -0.9122 -0.9718  1.3405
   33POPC  H16Z 4502   6.492   1.961   8.444 -2.4002 -0.4524  0.4050
   34POPC     N 4503   6.701   5.793  10.870 -0.2392  0.7711  0.4345
   34POPC   C12 4504   6.623   5.877  10.764  0.1635 -0.3424 -0.5409
   34POPC  H12A 4505   6.678   5.899  10.674  1.3577  0.0770  0.2642
   34POPC  H12B 4506   6.607   5.974  10.808 -0.1394 -1.1920  1.3351
   34POPC   C13 4507   6.616   5.785  10.996  0.8107  0.0948 -0.1362
   34POPC  H13A 4508   6.658   5.722  11.072  1.1987 -0.6619 -0.9590
   34POPC  H13B 4509   6.610   5.885  11.038  0.9371  0.8187 -1.7590
   34POPC  H13C 4510   6.515   5.753  10.974  0.7721  0.6832 -0.8550
   34POPC   C14 4511   6.749   5.660  10.827  0.2396 -0.1854 -0.1432
   34POPC  H14A 4512   6.666   5.605  10.785 -0.6188  0.2925  0.8745
   34POPC  H14B 4513   6.829   5.672  10.755  0.6356  0.7326  0.4231
   34POPC  H14C 4514   6.799   5.600  10.901 -0.3554 -0.7998 -0.2378
   34POPC   C15 4515   6.829   5.867  10.917  0.5540 -0.0708 -0.6696
   34POPC  H15A 4516   6.904   5.876  10.840  0.8583 -0.1439 -0.3845
   34POPC  H15B 4517   6.871   5.813  11.001 -1.6358  1.0935  1.2939
   34POPC  H15C 4518   6.797   5.962  10.957 -0.8057 -0.9754  0.5181
   34POPC   C11 4519   6.490   5.828  10.726  0.2111  0.3135  0.3523
   34POPC  H11A 4520   6.429   5.827  10.818  0.8337  0.8172  0.7811
   34POPC  H11B 4521   6.495   5.725  10.684 -1.0790  0.2591  0.2941
   34POPC     P 4522   6.298   5.928  10.586 -0.0996  0.3481  0.4748
   34POPC   O13 4523   6.230   6.023  10.671 -0.1365  0.1395 -0.2889
   34POPC   O14 4524   6.251   5.787  10.593  0.3664 -0.6336  0.1160
   34POPC   O12 4525   6.448   5.923  10.621 -0.3245 -0.6985 -0.1844
   34POPC   O11 4526   6.312   5.980  10.439 -0.0332  0.2830 -0.3122
   34POPC    C1 4527   6.408   6.081  10.396  0.7007 -0.0108 -0.0538
   34POPC    HA 4528   6.513   6.045  10.402  1.0253  1.1414  2.3616
   34POPC    HB 4529   6.404   6.176  10.453  2.3289  0.4692 -0.7032
   34POPC    C2 4530   6.376   6.114  10.248 -1.1159  0.8528 -0.0265
   34POPC    HS 4531   6.291   6.183  10.234 -1.6860  0.1800  0.0672
   34POPC   O21 4532   6.357   5.995  10.176 -0.3907  1.3612  0.3322
   34POPC   C21 4533   6.234   5.946  10.175 -0.2566  0.1303  0.3964
   34POPC   O22 4534   6.132   5.995  10.215  0.2041 -0.4174  0.0728
   34POPC   C22 4535   6.226   5.813  10.097 -0.5351 -0.3097  0.2729
   34POPC   H2R 4536   6.191   5.733  10.166  2.0347  0.6539  2.9215
   34POPC   H2S 4537   6.330   5.783  10.073 -1.0376 -1.2936 -0.8323
   34POPC    C3 4538   6.501   6.192  10.190  0.2667 -0.2432 -0.1784
   34POPC    HX 4539   6.597   6.137  10.181 -0.4064 -1.3011 -1.0921
   34POPC    HY 4540   6.522   6.271  10.265  3.6725 -0.7185 -0.4597
   34POPC   O31 4541   6.469   6.244  10.058  0.0242  0.3056 -0.2113
   34POPC   C31 4542   6.566   6.326  10.019  0.3482 -0.3510 -0.5699
   34POPC   O32 4543   6.660   6.365  10.084  0.1911 -0.1776  0.0476
   34POPC   C32 4544   6.528   6.372   9.877  0.2229 -0.3040 -0.3116
   34POPC   H2X 4545   6.441   6.441   9.883  0.0342 -0.6442  1.1895
   34POPC   H2Y 4546   6.500   6.282   9.818  0.9610 -0.1678 -0.8761
   34POPC   C23 4547   6.144   5.819   9.969 -0.1594  0.0512  0.0197
   34POPC   H3R 4548   6.047   5.862  10.004 -0.1531  0.6481 -0.6733
   34POPC   H3S 4549   6.131   5.715   9.934 -0.5536  0.1128 -0.0209
   34POPC   C24 4550   6.211   5.884   9.848  0.6920 -0.4491  0.0223
   34POPC   H4R 4551   6.300   5.825   9.820  0.4725  0.3166 -2.5301
   34POPC   H4S 4552   6.234   5.991   9.870  0.3252 -0.2380 -0.5720
   34POPC   C25 4553   6.125   5.883   9.724 -0.2243  0.2468 -0.5297
   34POPC   H5R 4554   6.044   5.958   9.740 -1.4197 -1.0074 -0.5085
   34POPC   H5S 4555   6.071   5.786   9.725 -1.0337  0.6770 -1.5019
   34POPC   C26 4556   6.203   5.888   9.598  0.6383 -0.3428 -0.4245
   34POPC   H6R 4557   6.252   5.790   9.581  0.6554 -0.0168 -2.5835
   34POPC   H6S 4558   6.285   5.963   9.598 -1.1799  1.8322 -2.1528
   34POPC   C27 4559   6.110   5.910   9.477 -0.1330  0.3500 -0.1422
   34POPC   H7R 4560   6.053   6.004   9.486  0.2011  0.3596  3.4270
   34POPC   H7S 4561   6.039   5.825   9.471 -1.1067  1.0408  1.2352
   34POPC   C28 4562   6.188   5.929   9.352  0.2218 -0.5139 -0.4714
   34POPC   H8R 4563   6.261   6.009   9.380 -2.5983  1.3388  2.2309
   34POPC   H8S 4564   6.121   5.973   9.275 -0.9333  0.5929  1.1073
   34POPC   C29 4565   6.260   5.811   9.309 -0.1445 -0.1949  0.4144
   34POPC   H91 4566   6.205   5.716   9.319 -0.1381 -0.4421 -1.5391
   34POPC  C210 4567   6.376   5.812   9.238  0.1769 -0.4428 -0.5113
   34POPC  H101 4568   6.427   5.721   9.204  1.2851 -0.5244  1.2169
   34POPC  C211 4569   6.451   5.941   9.198 -0.2136  0.0690 -0.4052
   34POPC  H11R 4570   6.559   5.919   9.190  0.0750  1.0465  0.5594
   34POPC  H11S 4571   6.450   6.021   9.275  0.1702  0.8374 -1.1795
   34POPC  C212 4572   6.399   6.005   9.064 -0.2532 -0.2561 -0.2016
   34POPC  H12R 4573   6.450   6.097   9.027  0.9509 -0.8304 -0.0133
   34POPC  H12S 4574   6.295   6.040   9.083 -0.7256 -0.3948 -2.2592
   34POPC  C213 4575   6.405   5.917   8.938 -0.2416 -0.3910 -1.2510
   34POPC  H13R 4576   6.341   5.827   8.948 -0.8057  0.1562  0.3468
   34POPC  H13S 4577   6.507   5.871   8.933 -0.6133 -1.7584  1.4993
   34POPC  C214 4578   6.360   5.976   8.798  0.0699 -0.1240  0.0932
   34POPC  H14R 4579   6.298   6.066   8.822  0.2705 -0.4457  1.9476
   34POPC  H14S 4580   6.302   5.905   8.735  1.1872 -1.0820  0.1109
   34POPC  C215 4581   6.475   6.035   8.713 -0.3753  0.1180  0.2154
   34POPC  H15R 4582   6.531   5.947   8.677 -2.8041 -0.7285 -1.8672
   34POPC  H15S 4583   6.541   6.095   8.779 -0.8697  0.2263  0.6226
   34POPC  C216 4584   6.431   6.129   8.596  0.6701 -0.2175 -0.7924
   34POPC  H16R 4585   6.516   6.190   8.558  0.3294 -0.0700 -1.3407
   34POPC  H16S 4586   6.366   6.207   8.640  2.8470  1.3101 -0.0831
   34POPC  C217 4587   6.356   6.063   8.480 -0.1706  0.4223  0.4773
   34POPC  H17R 4588   6.263   6.019   8.521  0.6258 -1.1156  0.7036
   34POPC  H17S 4589   6.429   5.985   8.450 -1.7243 -3.0759  4.7209
   34POPC  C218 4590   6.312   6.163   8.370 -0.4347  0.5863  0.1043
   34POPC  H18R 4591   6.408   6.195   8.324  1.2576  1.8578  4.1167
   34POPC  H18S 4592   6.273   6.256   8.416  0.6288  1.0971  0.0134
   34POPC  H18T 4593   6.229   6.132   8.303  0.6066  1.5950 -1.7231
   34POPC   C33 4594   6.647   6.429   9.801 -0.1494 -0.4420  0.1232
   34POPC   H3X 4595   6.726   6.360   9.763 -0.4289 -0.9100  0.3842
   34POPC   H3Y 4596   6.698   6.502   9.868 -1.8440 -0.2094  1.2073
   34POPC   C34 4597   6.596   6.509   9.673  0.0701 -0.2550 -0.7668
   34POPC   H4X 4598   6.679   6.571   9.633 -1.1203  1.3069 -0.9193
   34POPC   H4Y 4599   6.511   6.577   9.697  1.3139  0.9928  0.2743
   34POPC   C35 4600   6.552   6.415   9.557 -0.1211 -0.4406 -0.1322
   34POPC   H5X 4601   6.477   6.339   9.589  0.4395 -1.7368 -1.7513
   34POPC   H5Y 4602   6.644   6.354   9.545  1.0781  1.3317 -0.2333
   34POPC   C36 4603   6.511   6.484   9.428 -0.0949 -0.1468 -0.2824
   34POPC   H6X 4604   6.588   6.560   9.407 -1.6591  1.3564 -0.7990
   34POPC   H6Y 4605   6.419   6.545   9.436 -0.1862 -0.3755  0.5100
   34POPC   C37 4606   6.504   6.382   9.313 -0.0699 -0.0122 -0.6124
   34POPC   H7X 4607   6.422   6.310   9.334  0.6093 -0.1908  1.7514
   34POPC   H7Y 4608   6.595   6.319   9.317  0.2271  0.3890 -1.0062
   34POPC   C38 4609   6.492   6.434   9.173  0.4765  0.3010  0.6951
   34POPC   H8X 4610   6.404   6.502   9.165  0.0811 -0.2977 -0.1460
   34POPC   H8Y 4611   6.485   6.356   9.094 -0.0477  1.5226 -0.5236
   34POPC   C39 4612   6.612   6.517   9.126 -0.3649  0.3196  0.2296
   34POPC   H9X 4613   6.707   6.467   9.155 -0.4045  0.6624  0.9586
   34POPC   H9Y 4614   6.614   6.601   9.198 -0.6928 -0.0074  0.6200
   34POPC  C310 4615   6.618   6.582   8.984  0.0519 -0.6037 -0.5148
   34POPC  H10X 4616   6.718   6.630   8.973 -0.4665  0.6533  0.0022
   34POPC  H10Y 4617   6.539   6.660   8.980  1.2566  0.7097  0.0961
   34POPC  C311 4618   6.601   6.476   8.873 -0.4289 -0.1755  0.5586
   34POPC  H11X 4619   6.500   6.441   8.846  0.9238 -2.5397 -1.8467
   34POPC  H11Y 4620   6.656   6.382   8.894 -0.7150 -1.1432 -2.5510
   34POPC  C312 4621   6.666   6.523   8.744  0.3289 -0.7607 -0.3472
   34POPC  H12X 4622   6.771   6.553   8.768  0.0382 -1.0517  1.4676
   34POPC  H12Y 4623   6.615   6.618   8.717 -0.9110 -1.5125 -0.7095
   34POPC  C313 4624   6.668   6.415   8.628  0.1194  0.1198 -0.6949
   34POPC  H13X 4625   6.566   6.391   8.592 -0.0989 -0.7344  0.4376
   34POPC  H13Y 4626   6.718   6.324   8.666 -1.7500 -0.7720 -0.2718
   34POPC  C314 4627   6.755   6.470   8.517 -0.6440  0.2447  0.0789
   34POPC  H14X 4628   6.855   6.510   8.545 -0.4049 -0.1599 -0.1922
   34POPC  H14Y 4629   6.699   6.559   8.479  0.6156  1.4340  0.9052
   34POPC  C315 4630   6.785   6.375   8.401  0.0755 -1.1024 -0.0768
   34POPC  H15X 4631   6.845   6.431   8.326 -2.4204  0.9989 -0.6827
   34POPC  H15Y 4632   6.691   6.367   8.342  0.7052  1.3818 -1.5667
   34POPC  C316 4633   6.818   6.231   8.426 -0.1234 -0.9502  1.0277
   34POPC  H16X 4634   6.824   6.180   8.328 -0.6047  0.7067  0.0890
   34POPC  H16Y 4635   6.736   6.186   8.487 -0.6451  0.4348  1.4040
   34POPC  H16Z 4636   6.910   6.218   8.486 -0.2056 -2.6928  0.8223
   35POPC     N 4637   4.157   6.721  11.225 -0.2982 -0.7665 -0.5409
   35POPC   C12 4638   4.102   6.645  11.107 -0.2931 -0.4174  0.1359
   35POPC  H12A 4639   4.043   6.565  11.149 -0.4617 -0.5446 -0.3413
   35POPC  H12B 4640   4.186   6.598  11.059 -1.9946 -3.8916  0.3030
   35POPC   C13 4641   4.043   6.789  11.284  0.1292  0.4055  0.1030
   35POPC  H13A 4642   3.970   6.716  11.317 -0.9448  1.3399 -0.1567
   35POPC  H13B 4643   4.071   6.836  11.377 -0.2536  1.5182 -0.3340
   35POPC  H13C 4644   3.993   6.852  11.212 -0.4134 -1.2135 -1.0186
   35POPC   C14 4645   4.231   6.634  11.316 -0.3867 -0.5100 -0.1418
   35POPC  H14A 4646   4.177   6.545  11.345  1.5427 -1.1374  1.8658
   35POPC  H14B 4647   4.329   6.604  11.281  0.9632 -1.2884  3.7734
   35POPC  H14C 4648   4.264   6.689  11.403  1.3471 -1.2378 -0.3055
   35POPC   C15 4649   4.266   6.822  11.186 -1.0178  0.6249 -0.6886
   35POPC  H15A 4650   4.342   6.787  11.119  0.1929  0.3394  0.7749
   35POPC  H15B 4651   4.318   6.845  11.278  0.4306 -0.8732 -1.0906
   35POPC  H15C 4652   4.222   6.917  11.158 -0.4325  0.9783 -0.4500
   35POPC   C11 4653   4.006   6.724  11.001 -0.1768  0.2067 -0.4264
   35POPC  H11A 4654   3.901   6.732  11.038 -0.3002 -2.6760  0.1127
   35POPC  H11B 4655   3.986   6.668  10.907  0.0616 -0.3893 -0.1288
   35POPC     P 4656   4.153   6.872  10.850 -0.2735 -0.0931  0.1568
   35POPC   O13 4657   4.279   6.796  10.867  0.5799  0.2957 -0.4027
   35POPC   O14 4658   4.166   7.020  10.853 -0.1089 -0.0655 -0.4576
   35POPC   O12 4659   4.051   6.853  10.963 -0.2595  0.4153 -0.9281
   35POPC   O11 4660   4.077   6.821  10.722 -0.9645  0.1588  0.0640
   35POPC    C1 4661   3.960   6.877  10.675 -0.1454  0.3110 -0.4365
   35POPC    HA 4662   3.930   6.965  10.737  1.4792  0.1163  0.7096
   35POPC    HB 4663   3.880   6.802  10.695 -0.2520  1.3788  4.7290
   35POPC    C2 4664   3.965   6.922  10.518  0.1180 -0.5155 -0.0383
   35POPC    HS 4665   3.862   6.928  10.477  1.2114  1.7547 -2.7382
   35POPC   O21 4666   4.055   6.840  10.443  0.2519  0.1599 -0.2339
   35POPC   C21 4667   4.000   6.729  10.392  0.1322 -0.0494 -0.1118
   35POPC   O22 4668   3.885   6.703  10.420  0.0100  0.4424 -0.4325
   35POPC   C22 4669   4.114   6.640  10.328 -0.1756 -0.1906  0.0699
   35POPC   H2R 4670   4.199   6.633  10.398 -1.6824 -0.3708  1.9505
   35POPC   H2S 4671   4.144   6.704  10.242 -0.0881  3.6057  2.6937
   35POPC    C3 4672   4.011   7.071  10.513  0.2424  0.2639 -0.0165
   35POPC    HX 4673   4.087   7.079  10.594  1.0206  1.7709 -0.8478
   35POPC    HY 4674   3.926   7.136  10.544 -1.7816 -2.0914 -0.3531
   35POPC   O31 4675   4.073   7.112  10.390 -0.4244  0.4783  0.7373
   35POPC   C31 4676   3.978   7.172  10.309  0.4893  0.1235  0.2408
   35POPC   O32 4677   3.856   7.181  10.327 -0.4417  0.1874  0.1331
   35POPC   C32 4678   4.053   7.248  10.200  0.1954 -0.4448 -0.2585
   35POPC   H2X 4679   4.120   7.185  10.138 -0.6127 -1.7965  0.2084
   35POPC   H2Y 4680   4.118   7.317  10.258 -0.2870 -0.1711 -0.0383
   35POPC   C23 4681   4.065   6.507  10.276 -0.3656  0.8811  1.3959
   35POPC   H3R 4682   3.984   6.456  10.333 -0.7406 -0.3927 -0.1689
   35POPC   H3S 4683   4.146   6.431  10.267  0.3959  1.9222 -2.3619
   35POPC   C24 4684   4.045   6.508  10.119 -0.8808  0.1458  0.5868
   35POPC   H4R 4685   4.050   6.408  10.071  0.4732  1.5439 -2.4545
   35POPC   H4S 4686   4.143   6.541  10.079 -0.3609 -0.9131  0.9409
   35POPC   C25 4687   3.923   6.585  10.065 -0.0695  0.6530 -0.0412
   35POPC   H5R 4688   3.930   6.684  10.115  0.3759  0.5550  0.0960
   35POPC   H5S 4689   3.827   6.545  10.103  0.2481 -0.9620 -0.8130
   35POPC   C26 4690   3.910   6.597   9.914  0.0246 -0.0388 -0.1554
   35POPC   H6R 4691   4.012   6.622   9.877 -0.5399 -0.4990 -2.1394
   35POPC   H6S 4692   3.852   6.690   9.893  0.8439  1.2370  2.6416
   35POPC   C27 4693   3.867   6.473   9.848 -0.3844 -0.1470 -0.2159
   35POPC   H7R 4694   3.763   6.441   9.870  0.1278 -0.7418  1.4504
   35POPC   H7S 4695   3.924   6.384   9.883 -1.3839 -1.6655 -2.1844
   35POPC   C28 4696   3.882   6.488   9.694  0.0509 -0.0632  0.5394
   35POPC   H8R 4697   3.819   6.575   9.666  2.4977  1.1879 -1.3999
   35POPC   H8S 4698   3.848   6.397   9.639 -0.3770  0.2647  0.2563
   35POPC   C29 4699   4.022   6.505   9.650  0.1632  0.2558  0.0387
   35POPC   H91 4700   4.092   6.480   9.732 -0.1692  1.0768  0.5810
   35POPC  C210 4701   4.070   6.513   9.528 -0.5582  0.3104  0.2062
   35POPC  H101 4702   4.176   6.520   9.501 -0.3987 -1.8565  0.1092
   35POPC  C211 4703   3.988   6.519   9.404  0.4161  0.6926 -0.4867
   35POPC  H11R 4704   3.895   6.579   9.414 -1.4038 -1.9104 -0.5524
   35POPC  H11S 4705   3.953   6.415   9.381  1.4082 -0.0646  1.2717
   35POPC  C212 4706   4.069   6.569   9.288 -0.3375 -0.4320 -0.4336
   35POPC  H12R 4707   4.154   6.497   9.277 -1.3306 -1.8271  0.7228
   35POPC  H12S 4708   4.114   6.666   9.317  0.2297 -0.8212  0.0108
   35POPC  C213 4709   3.990   6.569   9.157 -0.2599  0.3662  0.0922
   35POPC  H13R 4710   3.900   6.633   9.167 -0.2431  0.5178 -0.6609
   35POPC  H13S 4711   3.959   6.463   9.147  0.7292  0.2528 -2.5472
   35POPC  C214 4712   4.073   6.604   9.024 -0.5566 -0.0349 -0.0772
   35POPC  H14R 4713   4.048   6.526   8.949 -1.2566 -0.4582  0.5818
   35POPC  H14S 4714   4.184   6.600   9.035 -0.7087  1.1923  3.0981
   35POPC  C215 4715   4.034   6.749   8.982 -0.6351  0.2897 -0.0901
   35POPC  H15R 4716   4.069   6.819   9.061  1.7920  0.2336 -1.0435
   35POPC  H15S 4717   3.924   6.766   8.982 -0.4020  2.1915  1.6115
   35POPC  C216 4718   4.108   6.796   8.859  0.5874 -0.5442  0.0105
   35POPC  H16R 4719   4.218   6.800   8.873  0.5336  0.4805  0.2093
   35POPC  H16S 4720   4.077   6.902   8.849  1.8208 -0.0733  1.0375
   35POPC  C217 4721   4.069   6.724   8.728  0.6355 -0.5210  0.4281
   35POPC  H17R 4722   3.964   6.737   8.695  0.6950 -1.0672  0.0063
   35POPC  H17S 4723   4.083   6.614   8.737  1.3928 -0.8795 -3.4290
   35POPC  C218 4724   4.158   6.763   8.610 -0.1351 -0.1046 -0.0621
   35POPC  H18R 4725   4.136   6.714   8.512 -3.7887  4.2063 -1.7754
   35POPC  H18S 4726   4.265   6.750   8.636 -0.1194  2.2907  1.3306
   35POPC  H18T 4727   4.141   6.869   8.582  0.8378 -0.5706 -2.7661
   35POPC   C33 4728   3.962   7.332  10.115  0.6427 -0.0429 -0.5258
   35POPC   H3X 4729   3.883   7.390  10.168  1.4923  0.3980  0.2958
   35POPC   H3Y 4730   3.894   7.264  10.060  0.2696 -1.2943  1.4059
   35POPC   C34 4731   4.033   7.423  10.019  0.5970 -0.5014 -0.1738
   35POPC   H4X 4732   4.105   7.366   9.957 -0.7386 -1.4886 -0.8755
   35POPC   H4Y 4733   4.064   7.502  10.090 -2.2667  0.3099  0.3073
   35POPC   C35 4734   3.920   7.494   9.940 -0.9877 -0.2109  0.1795
   35POPC   H5X 4735   3.834   7.523  10.004 -2.4345  1.8920 -2.5175
   35POPC   H5Y 4736   3.877   7.412   9.879 -2.0633 -0.5322  1.3367
   35POPC   C36 4737   3.962   7.615   9.848  0.2338 -0.0289 -0.2293
   35POPC   H6X 4738   4.044   7.582   9.780 -0.5296 -0.2046 -1.0828
   35POPC   H6Y 4739   4.014   7.691   9.911  1.7097 -2.1102  1.2030
   35POPC   C37 4740   3.843   7.669   9.777  0.4602 -0.5363 -0.9785
   35POPC   H7X 4741   3.764   7.708   9.845 -0.9851 -4.0197 -0.4003
   35POPC   H7Y 4742   3.792   7.586   9.723  0.3882 -0.2689 -1.3182
   35POPC   C38 4743   3.878   7.773   9.667  0.2182 -0.0624 -0.3207
   35POPC   H8X 4744   3.919   7.864   9.716  0.7598  0.6950 -2.1159
   35POPC   H8Y 4745   3.792   7.798   9.601  1.9103 -0.0519 -2.6391
   35POPC   C39 4746   3.980   7.723   9.556  0.2635  0.3990 -0.3002
   35POPC   H9X 4747   3.935   7.629   9.518 -0.4903  0.8656 -0.5687
   35POPC   H9Y 4748   4.077   7.702   9.607 -1.2333  1.1742  3.1348
   35POPC  C310 4749   3.999   7.826   9.440 -0.0919  0.5493  0.2127
   35POPC  H10X 4750   4.036   7.921   9.483 -0.6421  0.2517  1.3717
   35POPC  H10Y 4751   3.904   7.852   9.389 -1.9263  0.5498  3.3996
   35POPC  C311 4752   4.102   7.771   9.343  0.4004 -0.0118 -0.8805
   35POPC  H11X 4753   4.047   7.680   9.311 -0.1817 -0.1326  0.4076
   35POPC  H11Y 4754   4.205   7.749   9.380  0.2146  1.2507  0.4418
   35POPC  C312 4755   4.119   7.862   9.220  0.4792  0.0045  0.2200
   35POPC  H12X 4756   4.200   7.936   9.235 -0.0714  1.1314 -2.0279
   35POPC  H12Y 4757   4.021   7.913   9.207  1.4947  2.5788  1.7287
   35POPC  C313 4758   4.153   7.789   9.092  0.6792 -0.1911 -0.4247
   35POPC  H13X 4759   4.062   7.731   9.067  1.0863 -2.0414  1.9191
   35POPC  H13Y 4760   4.230   7.709   9.105  2.6342  1.4633 -1.3139
   35POPC  C314 4761   4.196   7.873   8.969  0.2130  0.5424 -0.0167
   35POPC  H14X 4762   4.241   7.965   9.011  0.4302  1.6063 -2.4103
   35POPC  H14Y 4763   4.111   7.905   8.905  0.8029  1.7287 -0.2427
   35POPC  C315 4764   4.284   7.796   8.873 -0.3664  0.2011 -0.5879
   35POPC  H15X 4765   4.370   7.753   8.929 -2.8696 -3.4057  0.8284
   35POPC  H15Y 4766   4.311   7.869   8.793 -1.8868  1.7115  0.2123
   35POPC  C316 4767   4.218   7.672   8.800  0.9011 -0.3607  0.4057
   35POPC  H16X 4768   4.113   7.686   8.766  0.8537  1.6234  1.2126
   35POPC  H16Y 4769   4.207   7.583   8.866  0.3988 -1.7879 -1.5110
   35POPC  H16Z 4770   4.292   7.651   8.720 -0.7082 -3.4901 -0.4201
   36POPC     N 4771   3.947   6.149  11.060  0.4338 -0.8671  0.2542
   36POPC   C12 4772   3.975   6.005  11.007 -0.0350 -0.4406  0.3858
   36POPC  H12A 4773   4.046   5.956  11.072  2.5202  1.1620 -1.0063
   36POPC  H12B 4774   4.034   6.015  10.916  0.2174  0.0590  0.6039
   36POPC   C13 4775   3.864   6.241  10.975  0.0744 -0.2700  0.0085
   36POPC  H13A 4776   3.915   6.275  10.887 -1.4179  1.5371 -0.2193
   36POPC  H13B 4777   3.776   6.194  10.933  0.1919 -0.1954 -0.3213
   36POPC  H13C 4778   3.827   6.328  11.028 -2.8192 -1.4194  0.1051
   36POPC   C14 4779   3.874   6.133  11.185  0.1757  0.2624 -0.4610
   36POPC  H14A 4780   3.861   6.231  11.228 -0.3127  0.1275 -0.3010
   36POPC  H14B 4781   3.780   6.084  11.163  0.6935  0.1089 -2.5959
   36POPC  H14C 4782   3.922   6.070  11.259  2.5989  1.2135 -1.1160
   36POPC   C15 4783   4.078   6.225  11.089 -0.5214  0.2789  0.0132
   36POPC  H15A 4784   4.138   6.150  11.138 -3.3009 -2.0735  0.1294
   36POPC  H15B 4785   4.049   6.310  11.149 -2.9446  0.7092 -1.6070
   36POPC  H15C 4786   4.129   6.267  11.004 -2.0862  2.3929  0.0442
   36POPC   C11 4787   3.860   5.908  10.988 -0.3254 -0.0969  0.8113
   36POPC  H11A 4788   3.786   5.910  11.071 -1.4263 -1.9494 -0.0664
   36POPC  H11B 4789   3.905   5.807  10.991 -1.0926 -0.4390  1.6535
   36POPC     P 4790   3.649   5.930  10.832 -0.2876 -0.3393 -0.1078
   36POPC   O13 4791   3.576   5.904  10.956 -0.4290 -0.3033  0.1718
   36POPC   O14 4792   3.617   5.836  10.721  0.1282  0.2666  0.2210
   36POPC   O12 4793   3.805   5.917  10.858  0.0433  0.4543  0.2039
   36POPC   O11 4794   3.631   6.078  10.779 -0.0249  0.2524  0.0912
   36POPC    C1 4795   3.721   6.152  10.689 -0.3245  0.2745 -0.1641
   36POPC    HA 4796   3.826   6.134  10.719 -0.8846  1.2636  2.7086
   36POPC    HB 4797   3.689   6.256  10.712 -1.9574 -0.2581  0.1144
   36POPC    C2 4798   3.697   6.139  10.533 -0.5442  0.4975  0.3156
   36POPC    HS 4799   3.589   6.143  10.510 -0.6496 -1.1702  0.3784
   36POPC   O21 4800   3.746   6.005  10.492  0.1703  0.1374  0.3430
   36POPC   C21 4801   3.659   5.916  10.452 -0.5861  0.4548 -0.6237
   36POPC   O22 4802   3.537   5.930  10.447  0.1677  0.2783 -0.1050
   36POPC   C22 4803   3.739   5.786  10.429  0.0718 -0.3611 -0.3041
   36POPC   H2R 4804   3.708   5.721  10.513  1.3376  0.8582  1.1686
   36POPC   H2S 4805   3.847   5.807  10.442 -0.4464  1.0223  2.4546
   36POPC    C3 4806   3.772   6.252  10.460  0.0884 -0.3753  0.3907
   36POPC    HX 4807   3.880   6.252  10.486  0.3269  1.0961 -0.5202
   36POPC    HY 4808   3.727   6.345  10.501  0.0754 -0.3604  0.3431
   36POPC   O31 4809   3.759   6.250  10.318 -0.0174 -0.6492 -0.1260
   36POPC   C31 4810   3.650   6.297  10.274  0.3153  0.9863 -0.2428
   36POPC   O32 4811   3.562   6.342  10.349  0.3246 -0.2564 -0.0327
   36POPC   C32 4812   3.644   6.277  10.124  0.2360  0.3057  0.3145
   36POPC   H2X 4813   3.742   6.308  10.082  0.0192  0.1429 -0.3181
   36POPC   H2Y 4814   3.559   6.344  10.096 -0.9932 -1.2616  0.1756
   36POPC   C23 4815   3.694   5.707  10.311  0.0769 -0.6244 -0.2614
   36POPC   H3R 4816   3.583   5.711  10.300 -0.4277  0.0148  3.5588
   36POPC   H3S 4817   3.728   5.604  10.335  0.3824 -0.0792  1.8043
   36POPC   C24 4818   3.745   5.748  10.171 -0.0599  0.0093  0.0218
   36POPC   H4R 4819   3.856   5.759  10.174 -0.2002  2.2273 -0.9554
   36POPC   H4S 4820   3.716   5.854  10.154  0.4761  0.5159  2.0872
   36POPC   C25 4821   3.697   5.649  10.061 -0.2661 -0.0844  0.5261
   36POPC   H5R 4822   3.587   5.636  10.052  0.0821 -1.7695 -3.8216
   36POPC   H5S 4823   3.728   5.543  10.078  0.7346  0.3554  1.6342
   36POPC   C26 4824   3.747   5.707   9.931  0.9815 -0.0559 -0.0833
   36POPC   H6R 4825   3.856   5.724   9.941  1.0770 -0.5591 -0.2362
   36POPC   H6S 4826   3.702   5.806   9.908  0.9845 -0.3673 -1.5277
   36POPC   C27 4827   3.714   5.615   9.809 -0.0442 -0.3489 -0.8637
   36POPC   H7R 4828   3.606   5.590   9.812 -0.7083  2.2638 -0.3317
   36POPC   H7S 4829   3.781   5.529   9.833 -0.9160 -0.3044  2.1333
   36POPC   C28 4830   3.736   5.669   9.662  0.7520  0.9301  0.3342
   36POPC   H8R 4831   3.695   5.772   9.657  1.8239  1.3232 -3.8719
   36POPC   H8S 4832   3.660   5.618   9.600 -1.2738  0.8531  2.7502
   36POPC   C29 4833   3.874   5.667   9.605 -0.3557  0.3917  0.2344
   36POPC   H91 4834   3.953   5.702   9.674  1.1792 -2.6803  0.2215
   36POPC  C210 4835   3.906   5.635   9.475 -0.4027 -0.3891  0.2088
   36POPC  H101 4836   4.014   5.639   9.459 -0.2978 -1.7772  0.4916
   36POPC  C211 4837   3.806   5.596   9.365 -0.2050  0.0882 -0.7117
   36POPC  H11R 4838   3.729   5.536   9.418  3.7211 -2.6539  2.5137
   36POPC  H11S 4839   3.854   5.524   9.295  1.4609 -0.7822  1.2159
   36POPC  C212 4840   3.756   5.704   9.274  0.2062 -0.9504  0.2413
   36POPC  H12R 4841   3.845   5.755   9.231 -0.8710  0.5124 -0.3185
   36POPC  H12S 4842   3.702   5.779   9.335 -0.9725 -1.0644 -0.6139
   36POPC  C213 4843   3.674   5.641   9.161 -0.2136  0.3085 -0.3196
   36POPC  H13R 4844   3.579   5.601   9.203  0.7080 -0.2865  1.2487
   36POPC  H13S 4845   3.720   5.561   9.099  2.2305  0.0397  1.7038
   36POPC  C214 4846   3.624   5.749   9.064 -0.5962  0.5979 -0.5078
   36POPC  H14R 4847   3.710   5.818   9.049  1.7173 -2.0433 -0.2755
   36POPC  H14S 4848   3.537   5.805   9.106 -0.2138  1.1906 -0.4945
   36POPC  C215 4849   3.579   5.685   8.930  0.1529  0.7227  0.0070
   36POPC  H15R 4850   3.509   5.602   8.952  2.4974 -1.0244  1.4088
   36POPC  H15S 4851   3.674   5.650   8.883  0.9512  2.1547  0.4843
   36POPC  C216 4852   3.498   5.788   8.843 -0.0196 -0.0453  0.0948
   36POPC  H16R 4853   3.536   5.892   8.836  0.1162 -0.1210 -0.3104
   36POPC  H16S 4854   3.404   5.805   8.901 -0.0182  2.5921 -0.5224
   36POPC  C217 4855   3.470   5.741   8.706  0.3413  0.1583  0.6536
   36POPC  H17R 4856   3.401   5.814   8.659  1.9073  1.0132 -0.3997
   36POPC  H17S 4857   3.422   5.642   8.722 -0.1737  0.1961 -0.5580
   36POPC  C218 4858   3.599   5.711   8.620  0.0731 -0.4301  0.5476
   36POPC  H18R 4859   3.570   5.680   8.517  0.9982 -0.9481  0.4353
   36POPC  H18S 4860   3.669   5.643   8.673  0.8808  0.2788  0.4243
   36POPC  H18T 4861   3.659   5.804   8.608  0.5427 -0.6617  1.0925
   36POPC   C33 4862   3.603   6.128  10.099 -0.0683 -0.0275 -0.1134
   36POPC   H3X 4863   3.492   6.124  10.093 -0.0691  1.5067 -2.5263
   36POPC   H3Y 4864   3.645   6.063  10.179 -1.1557 -3.1274 -1.8821
   36POPC   C34 4865   3.659   6.079   9.965 -0.3664  0.3654 -0.3690
   36POPC   H4X 4866   3.615   5.977   9.955 -0.0231  0.0530  1.0544
   36POPC   H4Y 4867   3.769   6.060   9.968 -0.4586 -0.5192 -1.8024
   36POPC   C35 4868   3.623   6.160   9.841 -0.3069  1.0055  0.7596
   36POPC   H5X 4869   3.646   6.265   9.869 -2.6036  1.4136  1.2832
   36POPC   H5Y 4870   3.515   6.146   9.821  0.2533 -0.3109 -1.7224
   36POPC   C36 4871   3.703   6.122   9.717 -0.5266  0.6294  0.3215
   36POPC   H6X 4872   3.699   6.012   9.702  2.0745  0.4289  0.6441
   36POPC   H6Y 4873   3.811   6.146   9.730 -0.2671 -0.5563  0.4566
   36POPC   C37 4874   3.652   6.174   9.584 -0.0166 -0.4964  0.6839
   36POPC   H7X 4875   3.664   6.284   9.586  0.5560 -0.5632  1.8232
   36POPC   H7Y 4876   3.545   6.143   9.576  0.0146 -0.3962 -0.1235
   36POPC   C38 4877   3.745   6.128   9.467  0.3486  0.0611 -0.6841
   36POPC   H8X 4878   3.751   6.018   9.458  0.5440  0.0751 -0.7372
   36POPC   H8Y 4879   3.851   6.159   9.479  0.2119  0.9489 -1.5690
   36POPC   C39 4880   3.688   6.193   9.340  0.2900 -0.4208 -0.1731
   36POPC   H9X 4881   3.714   6.301   9.342 -1.2675 -0.0336  0.5983
   36POPC   H9Y 4882   3.578   6.180   9.346  0.2915 -1.4611 -1.9320
   36POPC  C310 4883   3.733   6.132   9.213  0.0334 -0.2159 -0.8828
   36POPC  H10X 4884   3.697   6.027   9.214 -4.2003  1.0250  1.5633
   36POPC  H10Y 4885   3.843   6.142   9.225 -0.2563  1.5385  0.9084
   36POPC  C311 4886   3.693   6.205   9.085  0.0942 -0.0919  0.1427
   36POPC  H11X 4887   3.728   6.310   9.076 -0.9707  0.4161  1.6768
   36POPC  H11Y 4888   3.584   6.223   9.076  0.3238  1.1244 -0.3745
   36POPC  C312 4889   3.723   6.127   8.957  0.2363  0.3939  0.0708
   36POPC  H12X 4890   3.678   6.026   8.967 -0.3722  0.6687  0.1524
   36POPC  H12Y 4891   3.832   6.108   8.949  0.7930  3.2864 -0.4314
   36POPC  C313 4892   3.687   6.209   8.826  0.1678 -0.2137 -0.4284
   36POPC  H13X 4893   3.590   6.259   8.846  1.2817  2.6618 -1.5473
   36POPC  H13Y 4894   3.669   6.130   8.750 -0.9888 -1.2854  0.9082
   36POPC  C314 4895   3.791   6.313   8.790  0.5100  0.4666 -0.1248
   36POPC  H14X 4896   3.809   6.366   8.886 -1.7574  1.4373 -0.1756
   36POPC  H14Y 4897   3.760   6.385   8.711  3.0958 -0.8419 -2.4849
   36POPC  C315 4898   3.926   6.253   8.737  0.7746 -0.0582  0.2977
   36POPC  H15X 4899   3.892   6.181   8.660  1.4998  0.1684 -0.2428
   36POPC  H15Y 4900   3.974   6.181   8.807 -1.8145 -2.1593  0.0509
   36POPC  C316 4901   4.025   6.346   8.673 -0.2431 -0.7589 -0.0301
   36POPC  H16X 4902   4.092   6.279   8.616 -0.0765  0.8275 -1.8043
   36POPC  H16Y 4903   4.081   6.401   8.752  0.4539 -1.0779 -0.2937
   36POPC  H16Z 4904   3.981   6.422   8.605  1.0913  0.5092  0.4683
   37POPC     N 4905   1.333   3.797   6.162  0.5272  0.8170 -0.6791
   37POPC   C12 4906   1.281   3.668   6.233  0.4972  0.1565 -0.1125
   37POPC  H12A 4907   1.333   3.587   6.185  1.5558  1.2032 -0.8056
   37POPC  H12B 4908   1.178   3.651   6.206  1.0502  0.1916 -2.4832
   37POPC   C13 4909   1.344   3.771   6.017  0.0296 -0.6829 -0.1471
   37POPC  H13A 4910   1.371   3.863   5.968 -0.4709 -0.4479  0.0043
   37POPC  H13B 4911   1.421   3.701   5.988 -1.1263 -1.6006 -1.0938
   37POPC  H13C 4912   1.253   3.737   5.969  0.1224  1.0759 -1.6617
   37POPC   C14 4913   1.235   3.901   6.189 -0.1139 -0.1566 -0.5649
   37POPC  H14A 4914   1.138   3.857   6.170 -1.6000  2.1220  1.2599
   37POPC  H14B 4915   1.237   3.946   6.287 -0.6723 -0.7862 -0.2507
   37POPC  H14C 4916   1.239   3.983   6.119  1.4290 -0.9152 -1.4183
   37POPC   C15 4917   1.473   3.838   6.197  0.7945  0.0279  0.2833
   37POPC  H15A 4918   1.549   3.763   6.179 -0.4047 -0.7675 -1.8983
   37POPC  H15B 4919   1.481   3.856   6.303 -1.6005 -0.9345  0.6862
   37POPC  H15C 4920   1.500   3.933   6.154 -1.0262  0.7292  0.6307
   37POPC   C11 4921   1.295   3.636   6.387  0.6644 -0.0374  0.0161
   37POPC  H11A 4922   1.221   3.556   6.409  1.6204 -1.2149 -0.9238
   37POPC  H11B 4923   1.265   3.720   6.454  3.1818 -1.0318  2.5389
   37POPC     P 4924   1.496   3.470   6.376  0.4989  0.1237  0.2026
   37POPC   O13 4925   1.621   3.489   6.316 -0.4909 -0.0838  0.4888
   37POPC   O14 4926   1.399   3.389   6.301 -0.3339 -0.3793 -0.3840
   37POPC   O12 4927   1.426   3.605   6.424  0.1863 -0.0352  0.3741
   37POPC   O11 4928   1.523   3.397   6.516  0.2718 -0.1442  0.1679
   37POPC    C1 4929   1.412   3.384   6.612 -0.4088 -0.2796  0.6133
   37POPC    HA 4930   1.412   3.287   6.666  0.4925 -0.1089  0.9516
   37POPC    HB 4931   1.316   3.384   6.556  0.0198 -1.5561 -0.1658
   37POPC    C2 4932   1.414   3.497   6.711 -0.1063 -0.3393  0.4931
   37POPC    HS 4933   1.404   3.594   6.657  1.6107 -0.9325 -1.0095
   37POPC   O21 4934   1.537   3.501   6.783 -0.2288  0.0463 -0.1313
   37POPC   C21 4935   1.606   3.600   6.820 -0.5954  0.6107 -0.0823
   37POPC   O22 4936   1.578   3.718   6.806  0.3695 -0.0010 -0.1799
   37POPC   C22 4937   1.717   3.559   6.917 -0.1392  0.5408 -0.2773
   37POPC   H2R 4938   1.811   3.538   6.862  1.3878 -1.4936  2.7885
   37POPC   H2S 4939   1.699   3.476   6.989  1.2637  1.6258  1.3974
   37POPC    C3 4940   1.306   3.471   6.817 -0.0980 -0.8451 -0.3191
   37POPC    HX 4941   1.340   3.380   6.871  1.0929 -1.3593 -1.8621
   37POPC    HY 4942   1.214   3.460   6.756 -0.6879  1.0573  0.1493
   37POPC   O31 4943   1.305   3.586   6.900 -0.7767  0.3155  0.2128
   37POPC   C31 4944   1.231   3.693   6.854  0.1135 -0.1384 -0.1201
   37POPC   O32 4945   1.152   3.690   6.764  0.1786  0.4147 -0.6413
   37POPC   C32 4946   1.257   3.810   6.948  0.9021  0.6513 -0.1449
   37POPC   H2X 4947   1.219   3.901   6.897 -2.3432 -2.0001 -2.8687
   37POPC   H2Y 4948   1.367   3.808   6.962  0.7602  0.0972  0.9941
   37POPC   C23 4949   1.737   3.672   7.022 -0.1575 -0.1798  0.5062
   37POPC   H3R 4950   1.639   3.686   7.073 -0.6107  2.5218 -0.9074
   37POPC   H3S 4951   1.775   3.766   6.978  0.5031 -0.5330  0.3114
   37POPC   C24 4952   1.828   3.636   7.146  0.3751  0.2512  0.0309
   37POPC   H4R 4953   1.925   3.595   7.110  1.4586  2.8955 -0.3184
   37POPC   H4S 4954   1.773   3.565   7.211 -1.1779  2.0720  0.7945
   37POPC   C25 4955   1.847   3.751   7.242  0.2097  0.3210 -0.5420
   37POPC   H5R 4956   1.755   3.810   7.262  0.3465  0.3271  0.1031
   37POPC   H5S 4957   1.915   3.820   7.187  0.1819  0.1633 -0.7734
   37POPC   C26 4958   1.917   3.719   7.376 -0.7593  0.5902 -0.3729
   37POPC   H6R 4959   2.015   3.675   7.347 -0.3686  0.7296  0.7009
   37POPC   H6S 4960   1.853   3.652   7.437 -0.3347 -1.3013 -1.8947
   37POPC   C27 4961   1.950   3.846   7.457  0.0741 -0.2154 -0.1169
   37POPC   H7R 4962   1.868   3.893   7.514  2.3741  3.5025  0.4159
   37POPC   H7S 4963   1.992   3.918   7.383  0.4336 -2.4762 -2.2658
   37POPC   C28 4964   2.054   3.811   7.562 -0.0740  0.8010  0.0866
   37POPC   H8R 4965   2.141   3.749   7.530  1.0072  1.1935  2.1071
   37POPC   H8S 4966   2.007   3.726   7.617 -1.3665 -0.1015 -2.2589
   37POPC   C29 4967   2.114   3.925   7.630 -0.8241  0.3507 -0.3943
   37POPC   H91 4968   2.177   3.993   7.571 -1.6127  0.9210 -0.5839
   37POPC  C210 4969   2.094   3.955   7.759 -0.4193 -0.1204  0.0714
   37POPC  H101 4970   2.162   4.023   7.814 -0.1664 -0.5544  0.2962
   37POPC  C211 4971   2.016   3.881   7.868 -0.6195 -0.7558 -0.6794
   37POPC  H11R 4972   1.969   3.795   7.816 -1.2582  0.0123 -1.4073
   37POPC  H11S 4973   1.935   3.941   7.913 -0.0179  0.8961 -1.6795
   37POPC  C212 4974   2.100   3.824   7.982 -0.3860 -0.1578  0.0391
   37POPC  H12R 4975   2.165   3.898   8.034  2.3293 -1.3995 -1.3805
   37POPC  H12S 4976   2.166   3.745   7.941  0.9042 -0.0735  1.8182
   37POPC  C213 4977   1.997   3.759   8.074 -0.3672 -0.7447  0.4272
   37POPC  H13R 4978   1.928   3.692   8.020 -1.0808 -2.6025  3.3949
   37POPC  H13S 4979   1.931   3.836   8.121  0.7377  0.7934 -0.4464
   37POPC  C214 4980   2.075   3.678   8.181  0.1649 -0.2028  0.6346
   37POPC  H14R 4981   2.139   3.604   8.130 -0.6518  0.1283 -0.9218
   37POPC  H14S 4982   2.008   3.611   8.239 -2.1743  2.1136  0.8147
   37POPC  C215 4983   2.167   3.756   8.276 -0.4375  0.4015  0.5513
   37POPC  H15R 4984   2.107   3.831   8.331 -1.3213 -0.5733  0.9656
   37POPC  H15S 4985   2.249   3.816   8.231 -0.5178  1.2816  1.5535
   37POPC  C216 4986   2.216   3.662   8.387 -0.4095  0.6776 -0.2516
   37POPC  H16R 4987   2.264   3.571   8.345 -1.0141 -0.3640  1.2729
   37POPC  H16S 4988   2.134   3.615   8.445  0.6737  1.1411  1.7515
   37POPC  C217 4989   2.296   3.727   8.510 -0.5882  0.0121 -0.3515
   37POPC  H17R 4990   2.318   3.649   8.586 -0.4402 -0.0642 -0.4708
   37POPC  H17S 4991   2.227   3.798   8.560 -1.2118 -1.4283  0.8832
   37POPC  C218 4992   2.423   3.805   8.466 -0.7291 -0.2607  0.3777
   37POPC  H18R 4993   2.485   3.825   8.556 -0.4305 -4.4658  1.3127
   37POPC  H18S 4994   2.387   3.902   8.425 -0.8749 -0.2483  0.5358
   37POPC  H18T 4995   2.485   3.755   8.389 -1.2053  1.1937 -0.9834
   37POPC   C33 4996   1.173   3.792   7.079 -0.4866  0.0137  0.6050
   37POPC   H3X 4997   1.146   3.685   7.087 -1.4191  0.1346 -0.6637
   37POPC   H3Y 4998   1.072   3.836   7.073  0.5319  2.4844  0.3619
   37POPC   C34 4999   1.244   3.842   7.204 -0.5253 -0.0063 -0.7567
   37POPC   H4X 5000   1.170   3.856   7.286 -0.0251 -3.1843  0.3778
   37POPC   H4Y 5001   1.288   3.944   7.194 -0.1694 -0.0822 -0.0411
   37POPC   C35 5002   1.342   3.733   7.262  0.3767  0.6170  0.6787
   37POPC   H5X 5003   1.381   3.692   7.167 -0.3452 -0.9627  1.0344
   37POPC   H5Y 5004   1.282   3.648   7.300 -0.5970  1.8304  1.9669
   37POPC   C36 5005   1.454   3.788   7.354  0.6834 -0.0329  0.7904
   37POPC   H6X 5006   1.537   3.845   7.307  0.7427 -0.6430  0.1266
   37POPC   H6Y 5007   1.500   3.689   7.377  0.6519  0.0951  1.4308
   37POPC   C37 5008   1.405   3.846   7.484 -0.4067 -0.0464 -0.5668
   37POPC   H7X 5009   1.321   3.786   7.525 -0.8263 -0.8438 -2.4897
   37POPC   H7Y 5010   1.369   3.950   7.471 -0.8542 -0.0905  0.2712
   37POPC   C38 5011   1.521   3.854   7.588  0.5865 -0.3301  0.7693
   37POPC   H8X 5012   1.592   3.939   7.572 -1.7615  1.4473 -0.9618
   37POPC   H8Y 5013   1.590   3.768   7.575 -0.0597 -1.0140  1.7762
   37POPC   C39 5014   1.464   3.867   7.729  0.0188  0.3569  0.8579
   37POPC   H9X 5015   1.395   3.785   7.759  0.8857 -0.6033  0.2901
   37POPC   H9Y 5016   1.409   3.963   7.724  0.1242  0.3655 -0.2945
   37POPC  C310 5017   1.567   3.854   7.843  1.1257 -1.2102 -0.3656
   37POPC  H10X 5018   1.647   3.927   7.821  0.5817 -0.5138 -0.0778
   37POPC  H10Y 5019   1.611   3.752   7.839 -2.1092 -2.7296 -0.3056
   37POPC  C311 5020   1.524   3.887   7.983 -0.6781  0.7606  0.6087
   37POPC  H11X 5021   1.423   3.845   8.003  0.0564 -1.9064 -0.7495
   37POPC  H11Y 5022   1.504   3.996   7.985 -0.6930  0.7691 -0.0077
   37POPC  C312 5023   1.621   3.824   8.092  0.4378  0.2393 -0.1645
   37POPC  H12X 5024   1.719   3.876   8.081  0.4168  1.5511  4.0439
   37POPC  H12Y 5025   1.642   3.716   8.076 -0.1076 -0.0537  0.9580
   37POPC  C313 5026   1.581   3.864   8.234 -0.1026 -0.7740  0.6350
   37POPC  H13X 5027   1.490   3.815   8.275 -2.1011  0.6539 -1.7480
   37POPC  H13Y 5028   1.550   3.971   8.226  0.7572 -0.6286 -1.3000
   37POPC  C314 5029   1.695   3.840   8.327 -0.1614 -0.1566 -0.0148
   37POPC  H14X 5030   1.676   3.895   8.421 -0.4320  1.0198 -0.7314
   37POPC  H14Y 5031   1.784   3.887   8.279 -0.1630  0.0252  0.1591
   37POPC  C315 5032   1.711   3.699   8.365  0.0296  0.6803 -0.2962
   37POPC  H15X 5033   1.720   3.638   8.273  0.6713  0.8233 -0.3322
   37POPC  H15Y 5034   1.614   3.665   8.406  0.6201  1.4540  1.8799
   37POPC  C316 5035   1.830   3.672   8.464  0.1295  0.2614 -0.4814
   37POPC  H16X 5036   1.849   3.564   8.478 -0.1384 -0.1036 -2.5378
   37POPC  H16Y 5037   1.812   3.718   8.563 -1.0261 -1.0001 -0.0888
   37POPC  H16Z 5038   1.925   3.718   8.428  0.8245 -1.3307 -0.7616
   38POPC     N 5039   5.455   5.105   5.963 -0.0962  0.9446 -0.1028
   38POPC   C12 5040   5.460   5.066   6.104 -0.8948 -0.1238  0.1800
   38POPC  H12A 5041   5.543   5.117   6.151 -0.9725  0.0721  0.1076
   38POPC  H12B 5042   5.490   4.963   6.099  0.7121  0.2710  0.8338
   38POPC   C13 5043   5.358   5.019   5.895 -0.0239  0.1596  0.9447
   38POPC  H13A 5044   5.323   5.052   5.798  0.4531 -2.0013 -0.0049
   38POPC  H13B 5045   5.390   4.917   5.887 -1.0586 -0.0246 -1.7444
   38POPC  H13C 5046   5.274   5.008   5.963  1.0175 -0.0569  2.2271
   38POPC   C14 5047   5.400   5.247   5.965  0.3404 -1.0571 -0.0954
   38POPC  H14A 5048   5.304   5.259   6.012  1.5232  1.7913  1.8916
   38POPC  H14B 5049   5.460   5.307   6.032 -0.7852 -0.9322  0.8144
   38POPC  H14C 5050   5.388   5.280   5.863  1.6362 -1.3807 -0.3745
   38POPC   C15 5051   5.588   5.107   5.891 -0.2446  0.8411 -0.1888
   38POPC  H15A 5052   5.612   5.005   5.864  0.5559  0.9970 -0.0939
   38POPC  H15B 5053   5.667   5.147   5.952  0.5859  2.0343 -1.9548
   38POPC  H15C 5054   5.584   5.168   5.802  2.4321  2.2410  0.5612
   38POPC   C11 5055   5.339   5.079   6.198 -0.2733 -0.8044 -0.5114
   38POPC  H11A 5056   5.330   5.190   6.194 -1.1852 -0.8949 -0.9806
   38POPC  H11B 5057   5.365   5.047   6.301  0.9798  0.5057 -0.3733
   38POPC     P 5058   5.199   4.863   6.170 -0.3081 -0.0409 -0.0143
   38POPC   O13 5059   5.311   4.809   6.248  0.0724 -0.0829 -0.1553
   38POPC   O14 5060   5.156   4.792   6.042 -0.3958 -0.0733 -0.3341
   38POPC   O12 5061   5.216   5.023   6.144 -0.4379  0.1799  0.6096
   38POPC   O11 5062   5.068   4.887   6.262  0.1331 -0.0965 -0.0705
   38POPC    C1 5063   5.064   4.993   6.363  0.0840 -0.7005 -0.4768
   38POPC    HA 5064   4.960   5.023   6.387  0.2735 -0.9951  0.8437
   38POPC    HB 5065   5.114   5.089   6.336 -0.2675 -0.6262 -0.8671
   38POPC    C2 5066   5.131   4.950   6.502  0.3506  0.1650 -0.3589
   38POPC    HS 5067   5.236   4.921   6.479  0.2537  0.7362 -1.6363
   38POPC   O21 5068   5.049   4.851   6.564  0.5601  0.1392  0.1421
   38POPC   C21 5069   5.111   4.735   6.570  0.6778 -0.7751  0.1517
   38POPC   O22 5070   5.226   4.712   6.538 -0.3107 -0.4526 -0.9419
   38POPC   C22 5071   5.014   4.627   6.631  0.0471 -0.1389  0.6826
   38POPC   H2R 5072   4.951   4.596   6.545  0.7110  0.8569 -0.1986
   38POPC   H2S 5073   4.947   4.676   6.705 -0.2777  1.0414 -0.3521
   38POPC    C3 5074   5.135   5.068   6.607 -0.3650  0.2611 -0.3995
   38POPC    HX 5075   5.216   5.130   6.564 -0.5636  0.0464 -1.0900
   38POPC    HY 5076   5.164   5.030   6.708  1.3621  0.4013 -0.8080
   38POPC   O31 5077   5.009   5.135   6.611  0.2806 -0.3819 -0.2207
   38POPC   C31 5078   5.007   5.263   6.652  0.7874  0.0154 -0.9757
   38POPC   O32 5079   5.105   5.331   6.673 -0.4168 -0.4644  0.1552
   38POPC   C32 5080   4.864   5.311   6.660 -0.2801 -0.2812  0.4601
   38POPC   H2X 5081   4.808   5.280   6.569 -0.5431  1.6911 -0.1040
   38POPC   H2Y 5082   4.871   5.421   6.651 -0.9700 -0.3072 -0.6288
   38POPC   C23 5083   5.095   4.516   6.698  0.3103 -0.0555  0.5892
   38POPC   H3R 5084   5.186   4.493   6.639 -0.4815  0.2052 -0.7910
   38POPC   H3S 5085   5.034   4.423   6.694  0.3540 -0.0924  0.7801
   38POPC   C24 5086   5.139   4.554   6.841  0.0855 -0.5462  0.2375
   38POPC   H4R 5087   5.045   4.576   6.897  0.4637  0.2957  0.5471
   38POPC   H4S 5088   5.207   4.641   6.834  0.0950 -0.6631 -1.6320
   38POPC   C25 5089   5.218   4.437   6.901  0.3724 -0.2850  0.1555
   38POPC   H5R 5090   5.294   4.404   6.827  0.8300 -0.8786  0.8805
   38POPC   H5S 5091   5.143   4.356   6.912  0.4979 -0.1378  2.9149
   38POPC   C26 5092   5.272   4.458   7.039 -0.3916 -0.5230  0.6846
   38POPC   H6R 5093   5.317   4.559   7.049 -1.1821 -0.0923 -0.0149
   38POPC   H6S 5094   5.343   4.376   7.061  0.5655  0.6042  1.9554
   38POPC   C27 5095   5.155   4.456   7.136  0.0162 -0.7534  0.5126
   38POPC   H7R 5096   5.098   4.361   7.125 -3.0793  1.1616 -1.2708
   38POPC   H7S 5097   5.092   4.544   7.112 -1.5629 -1.4664  1.7901
   38POPC   C28 5098   5.203   4.467   7.284  0.6785 -0.2602 -0.2903
   38POPC   H8R 5099   5.111   4.500   7.337 -0.5500  1.5532 -3.2654
   38POPC   H8S 5100   5.269   4.556   7.281 -2.5198  2.2588 -1.8790
   38POPC   C29 5101   5.261   4.349   7.370 -0.2675 -0.3517  0.1409
   38POPC   H91 5102   5.230   4.248   7.339  0.6955 -0.4960 -0.4056
   38POPC  C210 5103   5.349   4.359   7.465 -0.0276 -0.1574 -0.4425
   38POPC  H101 5104   5.389   4.268   7.512  0.9050  1.0937  1.2875
   38POPC  C211 5105   5.412   4.478   7.526  0.4603  0.7479  0.5007
   38POPC  H11R 5106   5.386   4.573   7.474  1.1452  0.5359 -0.2584
   38POPC  H11S 5107   5.523   4.478   7.520  0.4639  2.4020 -0.2524
   38POPC  C212 5108   5.388   4.478   7.678  0.1198 -0.4018  0.0624
   38POPC  H12R 5109   5.283   4.449   7.697 -0.2772  0.5637 -0.5710
   38POPC  H12S 5110   5.404   4.581   7.717 -0.4404 -0.3249  0.0920
   38POPC  C213 5111   5.471   4.372   7.755 -0.5007 -0.3899 -0.5900
   38POPC  H13R 5112   5.576   4.408   7.747 -0.5231 -0.2644 -0.3344
   38POPC  H13S 5113   5.460   4.272   7.709 -0.6774 -0.2938 -0.7558
   38POPC  C214 5114   5.440   4.374   7.904  0.7401 -0.5184  0.1256
   38POPC  H14R 5115   5.330   4.359   7.907  0.2537  1.9922 -1.7272
   38POPC  H14S 5116   5.477   4.471   7.945  1.1535 -0.1901 -0.9841
   38POPC  C215 5117   5.517   4.265   7.983  0.7676 -0.1087  0.2869
   38POPC  H15R 5118   5.628   4.279   7.984  0.5086  2.4662  0.1560
   38POPC  H15S 5119   5.499   4.169   7.930 -1.8310  0.4601  0.0041
   38POPC  C216 5120   5.477   4.272   8.132  0.2894  0.4085 -0.1175
   38POPC  H16R 5121   5.522   4.363   8.175 -0.1294  0.5001  0.1303
   38POPC  H16S 5122   5.530   4.187   8.180  2.9962  3.1960  2.2632
   38POPC  C217 5123   5.330   4.276   8.165  0.4853 -0.2146  0.5756
   38POPC  H17R 5124   5.265   4.211   8.103 -2.2474  2.0871  0.8329
   38POPC  H17S 5125   5.295   4.377   8.137  0.8984 -0.5063 -1.0966
   38POPC  C218 5126   5.302   4.260   8.311 -0.3150  0.6554 -0.5602
   38POPC  H18R 5127   5.335   4.157   8.338  4.0699  2.1256  0.5167
   38POPC  H18S 5128   5.199   4.286   8.346 -1.3841  0.7728 -3.5344
   38POPC  H18T 5129   5.364   4.327   8.374  1.7556 -0.3565 -1.4260
   38POPC   C33 5130   4.793   5.263   6.790  0.5448 -0.7643  0.9758
   38POPC   H3X 5131   4.789   5.153   6.776  1.6361 -0.7975  0.8781
   38POPC   H3Y 5132   4.689   5.302   6.782  1.0692  0.8038  1.4052
   38POPC   C34 5133   4.859   5.299   6.928  0.7997  0.1017 -0.0704
   38POPC   H4X 5134   4.889   5.406   6.926  0.5607  0.1990  0.9187
   38POPC   H4Y 5135   4.954   5.246   6.953 -0.9001 -2.3922  1.5254
   38POPC   C35 5136   4.764   5.287   7.041  0.9750  0.4417  0.1167
   38POPC   H5X 5137   4.705   5.195   7.025 -0.4530  1.3602 -0.0513
   38POPC   H5Y 5138   4.693   5.371   7.031  0.3323 -0.1655 -0.4949
   38POPC   C36 5139   4.842   5.293   7.182  0.8090 -0.1401 -0.4749
   38POPC   H6X 5140   4.910   5.380   7.175  0.0838  0.3130 -2.7868
   38POPC   H6Y 5141   4.913   5.209   7.197  0.8814 -0.6868 -3.2574
   38POPC   C37 5142   4.741   5.298   7.297  0.2420 -0.2445  0.2621
   38POPC   H7X 5143   4.694   5.197   7.297 -0.5931  0.1024  2.4241
   38POPC   H7Y 5144   4.648   5.357   7.284 -1.9926 -2.8584  3.0516
   38POPC   C38 5145   4.796   5.317   7.432  0.7379  0.9279  0.5342
   38POPC   H8X 5146   4.709   5.350   7.493 -0.7151 -0.3238 -0.7662
   38POPC   H8Y 5147   4.884   5.385   7.433  2.6159 -1.3550 -0.6596
   38POPC   C39 5148   4.833   5.177   7.490 -0.0089  0.0266 -0.5682
   38POPC   H9X 5149   4.930   5.150   7.441 -0.3972 -0.4930 -1.0679
   38POPC   H9Y 5150   4.757   5.098   7.471 -0.4196  0.0331  0.9252
   38POPC  C310 5151   4.849   5.178   7.644 -0.3610  0.4437  0.3389
   38POPC  H10X 5152   4.907   5.268   7.673  0.7366  0.0416 -0.5700
   38POPC  H10Y 5153   4.918   5.106   7.693  1.1636  3.3613  2.8412
   38POPC  C311 5154   4.722   5.165   7.727  0.3407  0.4189 -0.5688
   38POPC  H11X 5155   4.680   5.063   7.715  0.8701 -0.0612  1.3353
   38POPC  H11Y 5156   4.643   5.236   7.693  0.5189  0.7559 -0.2800
   38POPC  C312 5157   4.730   5.176   7.882 -0.5528  0.5532 -0.2989
   38POPC  H12X 5158   4.769   5.279   7.901 -0.3051  0.3719  0.1959
   38POPC  H12Y 5159   4.801   5.103   7.926 -1.9106  0.0390  1.1258
   38POPC  C313 5160   4.599   5.148   7.968  0.3745 -0.6027  0.1594
   38POPC  H13X 5161   4.578   5.039   7.970  0.2320 -0.5696  0.9678
   38POPC  H13Y 5162   4.520   5.197   7.908 -0.0662 -1.4285  0.0625
   38POPC  C314 5163   4.602   5.192   8.116 -0.2213  0.4552 -0.3700
   38POPC  H14X 5164   4.498   5.177   8.154  0.1075 -0.5880  0.1687
   38POPC  H14Y 5165   4.631   5.299   8.126 -1.6274  1.2394 -3.4486
   38POPC  C315 5166   4.696   5.101   8.200 -0.1948  0.7301 -0.4395
   38POPC  H15X 5167   4.744   5.035   8.124 -0.1542  0.4031 -0.1347
   38POPC  H15Y 5168   4.635   5.031   8.260  1.4298 -0.9793 -0.6833
   38POPC  C316 5169   4.807   5.192   8.268  0.2272 -0.5768 -0.4812
   38POPC  H16X 5170   4.885   5.221   8.194  1.3848 -0.8883  0.5892
   38POPC  H16Y 5171   4.868   5.139   8.344  2.2439  0.2580 -1.4227
   38POPC  H16Z 5172   4.771   5.283   8.321  2.5337 -1.1502  2.3227
   39POPC     N 5173   1.604   2.656   5.826  1.2084 -0.1141  0.3428
   39POPC   C12 5174   1.689   2.553   5.904 -0.1894 -0.1307 -0.7843
   39POPC  H12A 5175   1.794   2.557   5.877  0.3946  1.1479  1.4437
   39POPC  H12B 5176   1.657   2.456   5.871  0.3403 -0.4328 -0.4217
   39POPC   C13 5177   1.461   2.668   5.881 -0.1963 -0.3785 -0.4716
   39POPC  H13A 5178   1.426   2.770   5.872 -0.2766 -0.2587  0.9533
   39POPC  H13B 5179   1.402   2.595   5.828  0.2903 -1.1056 -0.0319
   39POPC  H13C 5180   1.465   2.635   5.984  3.5869 -1.9807 -0.9754
   39POPC   C14 5181   1.669   2.787   5.849  0.7579 -0.3473 -0.4224
   39POPC  H14A 5182   1.658   2.816   5.953 -1.4024 -1.2562 -0.3583
   39POPC  H14B 5183   1.774   2.784   5.823  1.1884  2.3876  0.6653
   39POPC  H14C 5184   1.635   2.870   5.790  3.0871  1.4901  0.6140
   39POPC   C15 5185   1.603   2.614   5.686 -0.0318 -0.0563  0.2586
   39POPC  H15A 5186   1.538   2.674   5.624  3.1920 -1.1510 -4.7729
   39POPC  H15B 5187   1.574   2.511   5.670 -0.1210 -0.1239  0.8470
   39POPC  H15C 5188   1.708   2.613   5.660  0.7302 -1.5543  3.0655
   39POPC   C11 5189   1.666   2.559   6.059 -0.7727 -0.0526  0.6943
   39POPC  H11A 5190   1.659   2.662   6.100 -2.8763  0.5081 -0.8960
   39POPC  H11B 5191   1.762   2.533   6.110 -0.5223 -1.2714 -0.3627
   39POPC     P 5192   1.531   2.345   6.066  0.1194 -0.1024 -0.2787
   39POPC   O13 5193   1.651   2.277   6.116 -0.0870 -0.3757 -0.0333
   39POPC   O14 5194   1.497   2.319   5.923  0.5115 -0.3943  0.0589
   39POPC   O12 5195   1.540   2.500   6.098  0.3115  0.0853 -0.0782
   39POPC   O11 5196   1.414   2.305   6.153 -0.4741 -0.6496 -0.0871
   39POPC    C1 5197   1.388   2.349   6.287 -0.4587 -0.4863  0.0397
   39POPC    HA 5198   1.277   2.348   6.301 -1.1922 -1.9439 -4.2820
   39POPC    HB 5199   1.425   2.453   6.297 -1.1475  0.0436 -2.3293
   39POPC    C2 5200   1.458   2.261   6.393 -0.3804 -0.1279  0.3678
   39POPC    HS 5201   1.557   2.224   6.357  0.2746  1.7493  0.1049
   39POPC   O21 5202   1.376   2.143   6.416 -0.5231 -0.0618 -0.8220
   39POPC   C21 5203   1.444   2.042   6.458 -0.3384  0.4628 -0.1146
   39POPC   O22 5204   1.563   2.039   6.489 -0.1285  0.1441 -0.0083
   39POPC   C22 5205   1.345   1.929   6.458 -0.5809 -0.5010 -0.0066
   39POPC   H2R 5206   1.347   1.872   6.362 -0.4802  2.9112 -2.1958
   39POPC   H2S 5207   1.243   1.973   6.465 -0.5460 -0.3472 -0.4353
   39POPC    C3 5208   1.476   2.341   6.531  0.4367 -1.4659  0.2129
   39POPC    HX 5209   1.377   2.392   6.533  0.1854 -1.3773 -4.2415
   39POPC    HY 5210   1.542   2.430   6.523 -1.4493 -0.0596 -0.3897
   39POPC   O31 5211   1.490   2.265   6.652  0.1512  0.1460  0.7764
   39POPC   C31 5212   1.616   2.262   6.692  0.3203 -0.0313 -0.4275
   39POPC   O32 5213   1.706   2.330   6.647  0.2360 -0.1198 -0.4489
   39POPC   C32 5214   1.623   2.169   6.817 -0.5763 -0.5053  0.3904
   39POPC   H2X 5215   1.606   2.072   6.767  1.0830 -0.1200 -1.0080
   39POPC   H2Y 5216   1.730   2.167   6.847  0.7204  2.2131 -3.3132
   39POPC   C23 5217   1.373   1.833   6.574  0.4333 -0.0738 -0.3868
   39POPC   H3R 5218   1.483   1.825   6.587  0.4336  1.7657  1.3221
   39POPC   H3S 5219   1.337   1.729   6.566  1.1871 -0.4463  0.7234
   39POPC   C24 5220   1.315   1.887   6.709 -0.1223 -0.0754 -0.1885
   39POPC   H4R 5221   1.210   1.917   6.692 -0.3238 -0.0877  0.9304
   39POPC   H4S 5222   1.373   1.978   6.738  1.3530 -0.8546 -0.6336
   39POPC   C25 5223   1.317   1.795   6.835  0.2344  0.2068  0.7883
   39POPC   H5R 5224   1.420   1.766   6.864  1.3545  0.0868 -2.8006
   39POPC   H5S 5225   1.267   1.707   6.789  0.1720  1.1970 -1.1573
   39POPC   C26 5226   1.246   1.850   6.958  0.1270  0.0240  0.0878
   39POPC   H6R 5227   1.289   1.948   6.990 -2.0687  1.2195 -0.4065
   39POPC   H6S 5228   1.265   1.781   7.043 -1.7087 -1.7686 -0.8781
   39POPC   C27 5229   1.098   1.858   6.944 -0.0192  0.3995 -0.2016
   39POPC   H7R 5230   1.051   1.773   6.890 -0.6254 -1.9017  3.5947
   39POPC   H7S 5231   1.074   1.949   6.885 -0.6572  0.4724  0.1641
   39POPC   C28 5232   1.021   1.880   7.072 -0.6559 -0.0527  0.0426
   39POPC   H8R 5233   0.929   1.930   7.037 -0.0587  0.0749 -1.4245
   39POPC   H8S 5234   1.064   1.954   7.142  0.5717 -0.9874  0.3281
   39POPC   C29 5235   0.978   1.747   7.148 -0.7502 -0.1607 -0.2968
   39POPC   H91 5236   0.920   1.676   7.087 -1.1424  0.2878 -0.4520
   39POPC  C210 5237   0.997   1.716   7.287  0.4102 -0.4417  0.3140
   39POPC  H101 5238   0.961   1.626   7.339  1.2856 -2.0058 -1.6449
   39POPC  C211 5239   1.069   1.805   7.382 -0.2395 -0.7872 -0.3484
   39POPC  H11R 5240   1.005   1.818   7.472  0.8324  0.5306  0.2670
   39POPC  H11S 5241   1.083   1.909   7.346  3.4407 -1.6026 -1.6570
   39POPC  C212 5242   1.207   1.752   7.427  0.5395  0.1796  0.1951
   39POPC  H12R 5243   1.284   1.746   7.348  0.0963 -3.0603 -0.1033
   39POPC  H12S 5244   1.188   1.647   7.459 -1.3430  0.4218  0.0165
   39POPC  C213 5245   1.268   1.834   7.551  0.3189  0.0388 -0.8099
   39POPC  H13R 5246   1.283   1.938   7.517 -4.3123  0.5679 -1.9969
   39POPC  H13S 5247   1.356   1.781   7.592 -0.1108 -0.2365 -0.2229
   39POPC  C214 5248   1.182   1.839   7.683  0.4854  0.4443 -0.6168
   39POPC  H14R 5249   1.155   1.734   7.709  0.3882  0.3862 -0.9569
   39POPC  H14S 5250   1.085   1.887   7.658 -0.5925 -1.9743 -1.3408
   39POPC  C215 5251   1.250   1.907   7.803 -0.4507  0.2499  0.6812
   39POPC  H15R 5252   1.274   2.014   7.786  0.0981  0.0233 -0.0406
   39POPC  H15S 5253   1.346   1.856   7.829  0.3993  1.2162 -0.4665
   39POPC  C216 5254   1.168   1.892   7.931  0.2162 -0.1807 -0.0197
   39POPC  H16R 5255   1.131   1.788   7.944 -3.0526  0.9899  1.0237
   39POPC  H16S 5256   1.077   1.955   7.917  0.5560  0.4850  0.6461
   39POPC  C217 5257   1.233   1.941   8.065 -0.5243 -0.5596 -1.7773
   39POPC  H17R 5258   1.251   2.051   8.063 -1.0130 -0.4802 -2.0744
   39POPC  H17S 5259   1.331   1.891   8.081 -2.0026 -2.6769  1.8073
   39POPC  C218 5260   1.144   1.910   8.196  0.4004  0.2759  0.4887
   39POPC  H18R 5261   1.058   1.980   8.198 -0.7219 -0.9064 -1.8626
   39POPC  H18S 5262   1.214   1.921   8.281  1.0613  1.0448 -0.1465
   39POPC  H18T 5263   1.112   1.803   8.194  1.7433 -0.1372 -0.1810
   39POPC   C33 5264   1.512   2.187   6.926 -0.2239  0.4999 -0.2166
   39POPC   H3X 5265   1.494   2.084   6.965  0.5263  0.5062  0.1705
   39POPC   H3Y 5266   1.418   2.229   6.885 -0.8150 -0.3611  0.2178
   39POPC   C34 5267   1.570   2.275   7.045 -0.2191  0.5394  0.2188
   39POPC   H4X 5268   1.565   2.382   7.017 -2.9012  0.1671 -1.0863
   39POPC   H4Y 5269   1.674   2.239   7.058 -0.0659  0.2263 -1.6769
   39POPC   C35 5270   1.497   2.260   7.179  1.2279  0.3021 -0.6788
   39POPC   H5X 5271   1.471   2.152   7.178  1.8331  0.1037  1.0701
   39POPC   H5Y 5272   1.406   2.323   7.178  1.8342  1.1953 -0.9570
   39POPC   C36 5273   1.588   2.283   7.295 -1.0062  0.0623  0.1963
   39POPC   H6X 5274   1.525   2.303   7.384  0.2923 -1.0737  1.4247
   39POPC   H6Y 5275   1.656   2.366   7.266 -0.2592 -0.8363 -0.7026
   39POPC   C37 5276   1.676   2.167   7.347  0.3348 -0.0287  0.6803
   39POPC   H7X 5277   1.753   2.147   7.270 -0.2883  1.0762 -0.2556
   39POPC   H7Y 5278   1.612   2.078   7.360 -0.3143  0.2186 -0.6751
   39POPC   C38 5279   1.738   2.186   7.485 -0.0153 -0.1254 -0.1497
   39POPC   H8X 5280   1.765   2.292   7.504  0.2494 -0.5347  2.0038
   39POPC   H8Y 5281   1.828   2.121   7.489 -0.6800 -0.9918  1.3254
   39POPC   C39 5282   1.654   2.138   7.608 -0.0654 -0.0681  1.4218
   39POPC   H9X 5283   1.636   2.029   7.595 -0.5940  0.3106 -1.9036
   39POPC   H9Y 5284   1.561   2.198   7.598  0.0920  0.0864  0.8715
   39POPC  C310 5285   1.720   2.171   7.746 -1.4283  0.5910  0.2732
   39POPC  H10X 5286   1.714   2.281   7.765 -0.3004  0.7931 -0.4259
   39POPC  H10Y 5287   1.826   2.141   7.754 -1.2473  1.4604  1.4206
   39POPC  C311 5288   1.636   2.108   7.857  0.2714 -0.4097  0.7695
   39POPC  H11X 5289   1.635   1.997   7.860 -0.9795 -0.3963  1.4565
   39POPC  H11Y 5290   1.531   2.134   7.831  1.4417  3.9801 -0.5013
   39POPC  C312 5291   1.677   2.146   7.996  0.1731 -0.0729  0.3074
   39POPC  H12X 5292   1.669   2.256   8.006 -2.8915 -0.1468 -0.1718
   39POPC  H12Y 5293   1.784   2.133   8.019  0.3474 -1.4124 -1.0701
   39POPC  C313 5294   1.592   2.080   8.111 -0.0928  0.1064  1.1808
   39POPC  H13X 5295   1.598   1.972   8.086 -0.3901 -0.0395  1.7259
   39POPC  H13Y 5296   1.488   2.118   8.103 -0.6088 -1.0813  1.8925
   39POPC  C314 5297   1.647   2.110   8.241 -0.6073 -0.0390 -0.1149
   39POPC  H14X 5298   1.622   2.213   8.274  1.4040  0.6350 -0.5853
   39POPC  H14Y 5299   1.757   2.101   8.227 -0.7529 -0.3886 -1.0728
   39POPC  C315 5300   1.621   2.004   8.354 -0.4564 -1.4957  0.2889
   39POPC  H15X 5301   1.643   2.052   8.452 -0.7472  0.0567 -0.3782
   39POPC  H15Y 5302   1.689   1.919   8.333 -0.3892 -1.0059 -1.5955
   39POPC  C316 5303   1.473   1.963   8.355  0.5043  0.8863  0.1235
   39POPC  H16X 5304   1.405   2.051   8.363  0.0609  0.5837 -0.2616
   39POPC  H16Y 5305   1.447   1.892   8.436 -0.0200  0.9260 -0.0060
   39POPC  H16Z 5306   1.456   1.915   8.256 -0.6666 -0.5281  0.9708
   40POPC     N 5307   1.412   6.585   6.198  0.2353 -0.6696  0.5475
   40POPC   C12 5308   1.499   6.598   6.316 -0.0542 -0.2465 -0.4595
   40POPC  H12A 5309   1.506   6.702   6.347  0.1034 -0.7533  1.3136
   40POPC  H12B 5310   1.600   6.581   6.281  0.4121  1.1868  0.0722
   40POPC   C13 5311   1.434   6.457   6.122  0.0770 -0.0442  0.2608
   40POPC  H13A 5312   1.535   6.466   6.085  0.2987 -0.3583  0.7698
   40POPC  H13B 5313   1.429   6.369   6.185 -0.7040  0.1088  0.4157
   40POPC  H13C 5314   1.362   6.457   6.042  1.7117 -0.2564 -1.2721
   40POPC   C14 5315   1.271   6.586   6.252 -0.2823  0.2257  0.1393
   40POPC  H14A 5316   1.187   6.593   6.185  0.1655  0.6948 -0.3877
   40POPC  H14B 5317   1.261   6.499   6.315  0.8963  1.0584  1.5562
   40POPC  H14C 5318   1.257   6.669   6.320 -1.1495  1.1165 -1.0904
   40POPC   C15 5319   1.424   6.705   6.108 -0.2254 -0.1274 -0.0969
   40POPC  H15A 5320   1.396   6.675   6.008  0.5274  0.1454 -0.3979
   40POPC  H15B 5321   1.521   6.751   6.116 -0.2288 -0.2346  0.6123
   40POPC  H15C 5322   1.362   6.782   6.151  0.2957  0.2811 -0.0793
   40POPC   C11 5323   1.474   6.510   6.444  0.2715 -0.5599 -1.2394
   40POPC  H11A 5324   1.378   6.539   6.491  0.6649 -2.4796  0.9962
   40POPC  H11B 5325   1.554   6.536   6.517  0.0703  0.7113 -1.4557
   40POPC     P 5326   1.592   6.288   6.387  0.2387 -0.0340  0.1352
   40POPC   O13 5327   1.710   6.365   6.366 -0.2860 -0.0245 -0.0030
   40POPC   O14 5328   1.552   6.198   6.276 -0.2946  0.6264  0.0538
   40POPC   O12 5329   1.460   6.376   6.417  0.0209 -0.1137 -0.8581
   40POPC   O11 5330   1.616   6.192   6.511 -0.0097  0.1417 -0.0599
   40POPC    C1 5331   1.523   6.166   6.608 -0.2932 -0.6243 -0.2833
   40POPC    HA 5332   1.423   6.144   6.564 -1.8509  3.2553  0.8893
   40POPC    HB 5333   1.510   6.254   6.675  0.3004 -0.2692 -0.6211
   40POPC    C2 5334   1.569   6.049   6.705  0.3462  0.0164  0.5232
   40POPC    HS 5335   1.580   5.959   6.641 -0.5480  0.1213  0.2168
   40POPC   O21 5336   1.478   6.025   6.815  0.0456  0.8569  0.5963
   40POPC   C21 5337   1.361   5.987   6.776 -0.0296  0.3149  0.0533
   40POPC   O22 5338   1.325   5.950   6.666  0.2015  0.1558 -0.2919
   40POPC   C22 5339   1.267   5.991   6.891 -0.8842 -0.1120  0.4775
   40POPC   H2R 5340   1.183   5.922   6.873 -0.3942 -0.9553  1.3095
   40POPC   H2S 5341   1.233   6.097   6.893  1.9260  0.9054 -0.0706
   40POPC    C3 5342   1.714   6.068   6.765 -0.6053  0.3304  0.1962
   40POPC    HX 5343   1.723   6.173   6.799  0.6389 -0.4099  2.3812
   40POPC    HY 5344   1.781   6.048   6.679 -0.1251 -0.8320  0.8038
   40POPC   O31 5345   1.747   5.991   6.881  0.5203 -0.5137 -0.1965
   40POPC   C31 5346   1.761   5.861   6.868  0.6945  0.4226 -0.3666
   40POPC   O32 5347   1.756   5.798   6.763  0.6178 -0.6220 -0.4495
   40POPC   C32 5348   1.806   5.797   6.999 -0.4512  0.6647  0.5300
   40POPC   H2X 5349   1.910   5.828   7.026 -0.6853  0.4512  1.7315
   40POPC   H2Y 5350   1.818   5.687   6.988  3.5791  0.8182  1.6457
   40POPC   C23 5351   1.334   5.946   7.024 -0.3876  0.3852  0.0498
   40POPC   H3R 5352   1.395   6.032   7.058  0.9287  0.6110 -2.6510
   40POPC   H3S 5353   1.403   5.859   7.017 -0.9293 -0.3444  2.6368
   40POPC   C24 5354   1.225   5.904   7.128 -0.1132 -0.2898  0.2211
   40POPC   H4R 5355   1.173   5.822   7.074  0.1464 -1.1255  1.2103
   40POPC   H4S 5356   1.154   5.988   7.146 -0.4260 -0.7713  1.3496
   40POPC   C25 5357   1.269   5.847   7.262  0.3267 -0.0834 -0.3333
   40POPC   H5R 5358   1.361   5.786   7.255 -0.5494 -1.2828 -2.0400
   40POPC   H5S 5359   1.195   5.780   7.310 -1.9563  1.6175 -1.2884
   40POPC   C26 5360   1.299   5.957   7.362 -0.3373 -0.7982 -0.7124
   40POPC   H6R 5361   1.218   6.030   7.381 -0.1060 -0.9557  1.0730
   40POPC   H6S 5362   1.376   6.017   7.309  1.2556 -0.9211  1.3135
   40POPC   C27 5363   1.363   5.917   7.494 -0.6734 -0.6274  0.3144
   40POPC   H7R 5364   1.407   6.004   7.548  0.0717 -1.0184  0.3475
   40POPC   H7S 5365   1.444   5.846   7.469  0.0643  0.3938 -0.2324
   40POPC   C28 5366   1.274   5.843   7.599 -0.3696  0.5991 -0.2033
   40POPC   H8R 5367   1.332   5.801   7.683 -1.3745 -0.9375 -0.2331
   40POPC   H8S 5368   1.236   5.756   7.541  4.0585 -1.1645 -0.8428
   40POPC   C29 5369   1.161   5.931   7.642  0.3304  0.6475  0.5107
   40POPC   H91 5370   1.082   5.949   7.567  1.5220 -0.6765 -1.1512
   40POPC  C210 5371   1.147   5.987   7.766  0.5425  0.0217 -0.0978
   40POPC  H101 5372   1.057   6.044   7.794  1.8183  1.0788  2.0317
   40POPC  C211 5373   1.241   5.968   7.883 -0.3300  0.5513 -0.0563
   40POPC  H11R 5374   1.298   6.061   7.903  1.2677 -0.7540  1.9697
   40POPC  H11S 5375   1.323   5.896   7.861  0.1823  1.9509 -3.2403
   40POPC  C212 5376   1.158   5.918   7.998 -0.0100 -0.2270  0.6488
   40POPC  H12R 5377   1.129   5.812   7.983  0.6270 -0.2963 -0.1922
   40POPC  H12S 5378   1.061   5.969   8.018  0.3158 -0.1104  2.0256
   40POPC  C213 5379   1.238   5.914   8.132  0.6595  0.2016 -0.2620
   40POPC  H13R 5380   1.300   6.006   8.128  1.3629 -0.2942 -1.1333
   40POPC  H13S 5381   1.305   5.825   8.135  0.2019 -0.1181  1.2739
   40POPC  C214 5382   1.137   5.902   8.247 -0.0975 -0.4241 -0.2129
   40POPC  H14R 5383   1.070   5.817   8.227 -2.4315  0.4928  2.9592
   40POPC  H14S 5384   1.061   5.983   8.240  0.9929  0.5854 -0.9170
   40POPC  C215 5385   1.201   5.907   8.384 -0.2338 -0.5107 -0.4745
   40POPC  H15R 5386   1.238   5.805   8.408 -1.1889 -0.4145  1.6019
   40POPC  H15S 5387   1.117   5.928   8.453 -1.1500 -0.7675 -1.4650
   40POPC  C216 5388   1.309   6.015   8.400 -0.0251  0.6433  0.1348
   40POPC  H16R 5389   1.276   6.109   8.350 -0.4439  0.2311 -0.3742
   40POPC  H16S 5390   1.397   5.984   8.340  1.2576  1.2271  1.6344
   40POPC  C217 5391   1.357   6.043   8.544 -0.1374 -0.6282  0.0273
   40POPC  H17R 5392   1.272   6.051   8.615 -0.7300  3.7854 -0.8800
   40POPC  H17S 5393   1.394   6.148   8.542 -0.4159 -0.5037  1.0839
   40POPC  C218 5394   1.458   5.932   8.587 -0.0497 -0.4825 -0.2881
   40POPC  H18R 5395   1.543   5.931   8.515 -0.3067 -0.9293 -0.5863
   40POPC  H18S 5396   1.406   5.835   8.572 -3.2768  1.1072 -0.3174
   40POPC  H18T 5397   1.503   5.942   8.688 -0.4236  0.8812 -0.2380
   40POPC   C33 5398   1.710   5.819   7.117 -0.0107  0.3200 -0.2325
   40POPC   H3X 5399   1.622   5.753   7.099 -1.8422  2.0428  1.7854
   40POPC   H3Y 5400   1.658   5.916   7.128 -0.7962  0.0200 -1.1656
   40POPC   C34 5401   1.773   5.783   7.257  0.6395  0.3191  0.3657
   40POPC   H4X 5402   1.838   5.870   7.277 -0.3276  0.5052  3.0522
   40POPC   H4Y 5403   1.826   5.686   7.247  1.4705  0.9020 -1.3542
   40POPC   C35 5404   1.685   5.780   7.383  0.2208 -1.0634  0.1382
   40POPC   H5X 5405   1.619   5.692   7.400 -0.4737 -0.4279  0.8187
   40POPC   H5Y 5406   1.625   5.873   7.372  0.4827 -0.8698  0.3369
   40POPC   C36 5407   1.769   5.809   7.509  0.5590 -0.4963 -0.1061
   40POPC   H6X 5408   1.824   5.904   7.489 -0.4811  0.0606 -0.3479
   40POPC   H6Y 5409   1.850   5.735   7.527  1.7874  0.5302 -1.1861
   40POPC   C37 5410   1.692   5.829   7.644  0.0049 -0.3023 -0.1792
   40POPC   H7X 5411   1.650   5.730   7.672 -0.4269 -0.1586 -0.3127
   40POPC   H7Y 5412   1.607   5.897   7.627 -0.0053 -0.7792 -2.2916
   40POPC   C38 5413   1.774   5.875   7.769  0.1937 -0.0629 -0.1663
   40POPC   H8X 5414   1.812   5.978   7.753 -1.5168  0.3778 -1.7344
   40POPC   H8Y 5415   1.867   5.814   7.769 -0.3860 -1.0131  1.4060
   40POPC   C39 5416   1.707   5.839   7.903 -0.4642 -0.3760 -0.0645
   40POPC   H9X 5417   1.680   5.734   7.877  0.2186 -0.2110 -1.5467
   40POPC   H9Y 5418   1.613   5.896   7.914  0.3559  0.5785  2.9264
   40POPC  C310 5419   1.796   5.842   8.023  0.1115  0.3033  0.6008
   40POPC  H10X 5420   1.876   5.919   8.014 -0.9945  2.1060  4.3703
   40POPC  H10Y 5421   1.846   5.742   8.029 -2.5159 -1.0184  2.1819
   40POPC  C311 5422   1.727   5.853   8.156 -0.5080  0.6070  0.0757
   40POPC  H11X 5423   1.784   5.794   8.230 -0.7971 -0.9721 -0.9129
   40POPC  H11Y 5424   1.635   5.792   8.145 -1.3339  1.8460 -0.1309
   40POPC  C312 5425   1.704   6.001   8.206  0.0874 -0.3593  0.8082
   40POPC  H12X 5426   1.639   6.005   8.296 -0.3206 -0.1429  0.5027
   40POPC  H12Y 5427   1.671   6.068   8.125  0.9070 -1.2815 -0.3303
   40POPC  C313 5428   1.839   6.066   8.260  0.1309 -0.0321  0.4220
   40POPC  H13X 5429   1.909   6.052   8.175  0.8455 -0.2810  1.0330
   40POPC  H13Y 5430   1.875   6.003   8.344  0.2769 -1.7710 -0.8865
   40POPC  C314 5431   1.820   6.218   8.289  0.3953 -0.1443 -1.3783
   40POPC  H14X 5432   1.821   6.274   8.192  1.5999 -2.1494 -2.6044
   40POPC  H14Y 5433   1.907   6.245   8.353 -0.6860 -1.1159  0.5800
   40POPC  C315 5434   1.695   6.254   8.369 -0.3698 -0.6126  0.8337
   40POPC  H15X 5435   1.680   6.185   8.455  2.0551 -1.7164  0.4631
   40POPC  H15Y 5436   1.604   6.244   8.306 -1.4254  0.6814  2.0616
   40POPC  C316 5437   1.694   6.402   8.409  0.0562  0.3967 -0.2373
   40POPC  H16X 5438   1.603   6.431   8.468  1.6244  1.3848  1.8263
   40POPC  H16Y 5439   1.697   6.460   8.315 -0.1537  0.2505 -0.3343
   40POPC  H16Z 5440   1.784   6.416   8.472  0.4396 -1.5698 -0.2677
   41CHL1    C3 5441   6.748   0.177  10.183 -0.2274 -0.2860  0.1551
   41CHL1    H3 5442   6.764   0.286  10.175  1.0046 -0.1453  3.2984
   41CHL1    O3 5443   6.753   0.145  10.324  0.0769  0.2161  0.4227
   41CHL1   H3' 5444   6.681   0.082  10.323  0.9339 -0.8229 -1.3683
   41CHL1    C4 5445   6.601   0.164  10.118 -0.0331 -0.0310 -0.3436
   41CHL1   H4A 5446   6.573   0.057  10.134 -1.0721 -0.0222 -1.9320
   41CHL1   H4B 5447   6.535   0.216  10.191 -0.7565 -1.0986 -0.2131
   41CHL1    C5 5448   6.591   0.197   9.972 -0.7953  0.2119  0.9942
   41CHL1    C6 5449   6.498   0.270   9.919  0.0991 -0.9725  0.0512
   41CHL1    H6 5450   6.428   0.322   9.985  0.4186 -1.3589  0.7069
   41CHL1    C7 5451   6.489   0.299   9.770  0.2033  0.2477  0.3940
   41CHL1   H7A 5452   6.388   0.283   9.729  0.5236  0.8092 -0.6548
   41CHL1   H7B 5453   6.513   0.406   9.749 -2.2278  0.3505 -2.5992
   41CHL1    C8 5454   6.586   0.219   9.677  0.0859 -0.3044 -0.1275
   41CHL1    H8 5455   6.544   0.117   9.665  0.0239 -0.0439 -2.5552
   41CHL1   C14 5456   6.601   0.286   9.544 -0.5125  0.0519 -0.1413
   41CHL1   H14 5457   6.656   0.381   9.563  0.1016 -0.0939 -1.1432
   41CHL1   C15 5458   6.479   0.327   9.462  0.5111  0.7230  0.3444
   41CHL1  H15A 5459   6.415   0.237   9.449  1.1400 -0.0156  2.0346
   41CHL1  H15B 5460   6.431   0.410   9.518  0.6198  0.8796  0.2054
   41CHL1   C16 5461   6.546   0.367   9.332 -0.6770 -0.2153 -0.5862
   41CHL1  H16A 5462   6.478   0.356   9.245 -2.4988 -1.0888  0.8816
   41CHL1  H16B 5463   6.576   0.474   9.337  1.2830 -0.7334 -0.6776
   41CHL1   C17 5464   6.684   0.299   9.319 -0.3764  0.4384 -0.2639
   41CHL1   H17 5465   6.761   0.379   9.323  1.3835 -1.2321  1.4350
   41CHL1   C13 5466   6.686   0.208   9.444  0.0195 -0.0926 -0.3130
   41CHL1   C18 5467   6.624   0.065   9.402 -0.1869 -0.5021 -0.2129
   41CHL1  H18A 5468   6.600  -0.000   9.489  0.9992 -0.1920  0.3540
   41CHL1  H18B 5469   6.526   0.090   9.356  0.1838  2.1261  0.2580
   41CHL1  H18C 5470   6.687   0.022   9.322 -3.1499 -0.6886 -2.6470
   41CHL1   C12 5471   6.828   0.189   9.516  0.0224  0.7785  0.5481
   41CHL1  H12A 5472   6.896   0.122   9.459  1.2742 -0.0231  2.8507
   41CHL1  H12B 5473   6.876   0.290   9.509  1.7853 -0.0925 -1.0852
   41CHL1   C11 5474   6.823   0.126   9.651  0.1023  0.2523  0.0898
   41CHL1  H11A 5475   6.797   0.021   9.626 -0.2677  0.2716  0.3861
   41CHL1  H11B 5476   6.926   0.136   9.692  1.2711  0.6015 -2.6999
   41CHL1    C9 5477   6.720   0.194   9.744 -0.0799  0.0995 -0.1387
   41CHL1    H9 5478   6.770   0.289   9.771 -0.4534  0.4545 -0.6586
   41CHL1   C10 5479   6.702   0.132   9.890  0.0799  0.4399  0.7882
   41CHL1   C19 5480   6.664  -0.019   9.877  0.1517  0.6879 -0.3804
   41CHL1  H19A 5481   6.655  -0.053   9.982 -0.3718  1.5899 -0.1174
   41CHL1  H19B 5482   6.567  -0.028   9.823 -0.9888 -0.3233  1.7245
   41CHL1  H19C 5483   6.743  -0.084   9.833 -1.2589 -1.8311  0.6041
   41CHL1    C1 5484   6.843   0.141   9.956  0.6480  0.2859 -0.4405
   41CHL1   H1A 5485   6.925   0.084   9.907  1.7791  0.9264  0.6553
   41CHL1   H1B 5486   6.869   0.248   9.961  0.5363  0.2815  0.3206
   41CHL1    C2 5487   6.855   0.098  10.111  0.4816  0.4200 -0.3902
   41CHL1   H2A 5488   6.956   0.122  10.150  0.1621  1.6710 -0.2958
   41CHL1   H2B 5489   6.836  -0.011  10.118  0.6235  0.4428  0.3704
   41CHL1   C20 5490   6.715   0.247   9.171  0.1303 -0.9074 -0.1878
   41CHL1   H20 5491   6.639   0.171   9.143 -1.0169  0.8319 -1.9996
   41CHL1   C21 5492   6.855   0.195   9.176  0.3240  0.6683 -0.0867
   41CHL1  H21A 5493   6.885   0.158   9.075 -2.1007  0.1325 -0.6647
   41CHL1  H21B 5494   6.864   0.103   9.237 -1.1611  0.1392 -0.6377
   41CHL1  H21C 5495   6.919   0.281   9.207 -0.5254 -0.0177  4.2157
   41CHL1   C22 5496   6.695   0.360   9.059  0.0634 -0.7252 -0.2410
   41CHL1  H22A 5497   6.590   0.394   9.053 -0.4191 -2.2405 -0.8592
   41CHL1  H22B 5498   6.753   0.452   9.081 -2.2535  0.7029  0.2345
   41CHL1   C23 5499   6.725   0.311   8.915 -0.5602  0.1248 -0.2453
   41CHL1  H23A 5500   6.830   0.279   8.901 -1.7208 -4.0398 -0.7535
   41CHL1  H23B 5501   6.663   0.218   8.911  1.2249 -1.1567  0.6258
   41CHL1   C24 5502   6.678   0.406   8.803 -0.4465  0.0918  0.1155
   41CHL1  H24A 5503   6.585   0.460   8.833 -2.4713 -1.1876 -3.2514
   41CHL1  H24B 5504   6.766   0.470   8.781  1.5473 -1.1782  3.6417
   41CHL1   C25 5505   6.652   0.329   8.671  0.1288  0.2767 -0.5138
   41CHL1   H25 5506   6.584   0.248   8.706  0.3535 -0.9678 -2.7529
   41CHL1   C26 5507   6.571   0.409   8.562 -0.4377  0.1294 -0.4184
   41CHL1  H26A 5508   6.570   0.366   8.459 -2.9526  2.4617 -1.5014
   41CHL1  H26B 5509   6.468   0.410   8.603  0.0151 -0.7673  0.8076
   41CHL1  H26C 5510   6.587   0.519   8.559 -0.7676  0.1619 -2.1286
   41CHL1   C27 5511   6.773   0.261   8.613  0.0972  0.2352  0.2307
   41CHL1  H27A 5512   6.750   0.177   8.544 -0.5131  0.6774 -0.1160
   41CHL1  H27B 5513   6.832   0.327   8.546  0.7335 -0.0783  0.4725
   41CHL1  H27C 5514   6.844   0.216   8.685  1.6129  0.8391 -0.8255
   42CHL1    C3 5515   5.656   6.087  10.039 -0.3937  0.5562 -0.3756
   42CHL1    H3 5516   5.749   6.145  10.024  0.5193 -1.2672 -2.1541
   42CHL1    O3 5517   5.636   6.048  10.180  0.5436  0.3222 -0.3376
   42CHL1   H3' 5518   5.601   5.959  10.178  1.0663  0.1064 -0.1424
   42CHL1    C4 5519   5.537   6.166   9.981 -0.3093  0.1881 -0.1272
   42CHL1   H4A 5520   5.444   6.107   9.995 -0.8490  0.1556 -3.0923
   42CHL1   H4B 5521   5.534   6.259  10.042 -0.4847 -0.5328  0.9825
   42CHL1    C5 5522   5.546   6.196   9.834 -0.0506  0.3873 -0.2447
   42CHL1    C6 5523   5.529   6.316   9.778  1.1796 -0.2223  0.3692
   42CHL1    H6 5524   5.508   6.402   9.844 -0.8288 -2.9164  3.5465
   42CHL1    C7 5525   5.541   6.347   9.634 -0.7026  0.0474  0.3505
   42CHL1   H7A 5526   5.466   6.423   9.603  0.6494  0.9661 -0.8334
   42CHL1   H7B 5527   5.634   6.404   9.609 -1.0784  1.0406  1.1341
   42CHL1    C8 5528   5.535   6.229   9.544 -0.2783  0.8539  0.4519
   42CHL1    H8 5529   5.427   6.207   9.539 -0.8199  2.6567  2.6180
   42CHL1   C14 5530   5.591   6.264   9.409  0.0496 -0.3873  0.2150
   42CHL1   H14 5531   5.694   6.294   9.437  0.3408 -0.0098 -1.1542
   42CHL1   C15 5532   5.526   6.380   9.340  0.5389  0.4200 -0.7372
   42CHL1  H15A 5533   5.417   6.361   9.348  0.7925 -1.3931 -1.0967
   42CHL1  H15B 5534   5.547   6.476   9.392 -1.2676 -0.1919  1.2023
   42CHL1   C16 5535   5.575   6.371   9.192  0.2870 -0.0568  0.2567
   42CHL1  H16A 5536   5.481   6.384   9.134 -1.7697  1.3249  3.5861
   42CHL1  H16B 5537   5.655   6.444   9.168  1.3534 -1.5752 -0.9939
   42CHL1   C17 5538   5.637   6.232   9.177 -0.3462 -0.5444 -0.1499
   42CHL1   H17 5539   5.748   6.237   9.186 -0.1320 -1.5498 -1.8195
   42CHL1   C13 5540   5.593   6.150   9.304 -0.0233 -0.3662 -0.5393
   42CHL1   C18 5541   5.446   6.097   9.283  0.2353 -0.3578  0.4653
   42CHL1  H18A 5542   5.461   6.018   9.207  1.8049 -0.3261  0.7043
   42CHL1  H18B 5543   5.389   6.062   9.372 -1.0574 -1.0345 -0.5973
   42CHL1  H18C 5544   5.388   6.175   9.230  0.6604 -0.9194 -0.8656
   42CHL1   C12 5545   5.691   6.045   9.362 -0.6644  0.2618  0.5161
   42CHL1  H12A 5546   5.704   5.962   9.289  2.5552  0.0702  1.1656
   42CHL1  H12B 5547   5.794   6.085   9.377 -0.2284 -0.8013  0.4037
   42CHL1   C11 5548   5.650   5.993   9.499  0.4461  0.3614  0.1757
   42CHL1  H11A 5549   5.553   5.941   9.485 -0.1953  1.2323  1.1710
   42CHL1  H11B 5550   5.727   5.926   9.542  0.4583  0.6872  0.6632
   42CHL1    C9 5551   5.620   6.113   9.599  0.5077  0.5686 -0.6287
   42CHL1    H9 5552   5.720   6.162   9.609  0.2403  1.2428 -1.1732
   42CHL1   C10 5553   5.583   6.069   9.747  0.3206 -0.4995  0.0417
   42CHL1   C19 5554   5.465   5.975   9.733  0.4509  0.3815  0.1510
   42CHL1  H19A 5555   5.394   6.011   9.656  0.7044  0.2872 -0.1298
   42CHL1  H19B 5556   5.505   5.885   9.682  0.6461  0.9205 -0.6793
   42CHL1  H19C 5557   5.419   5.949   9.830  0.1564 -0.4538 -0.2028
   42CHL1    C1 5558   5.708   6.001   9.812  0.3643 -0.3652  0.3123
   42CHL1   H1A 5559   5.742   5.912   9.755 -0.4318 -1.0219  0.8277
   42CHL1   H1B 5560   5.790   6.075   9.798  0.6553 -0.9171 -1.0728
   42CHL1    C2 5561   5.679   5.960   9.957  0.8065  0.1828  0.2064
   42CHL1   H2A 5562   5.756   5.891   9.997 -1.5115 -2.2143  0.7991
   42CHL1   H2B 5563   5.585   5.903   9.970  1.8341 -1.3021  1.4810
   42CHL1   C20 5564   5.608   6.180   9.039  0.5439  0.8606  0.2547
   42CHL1   H20 5565   5.498   6.165   9.026  0.6046  0.7209 -0.1209
   42CHL1   C21 5566   5.680   6.039   9.036  0.4512  0.0247  0.2867
   42CHL1  H21A 5567   5.664   5.976   8.946 -0.9809  0.2002  0.3872
   42CHL1  H21B 5568   5.643   5.969   9.114  0.2278  0.7573  0.8570
   42CHL1  H21C 5569   5.789   6.047   9.057  0.6476 -0.7227 -0.3833
   42CHL1   C22 5570   5.644   6.264   8.915  0.6154 -0.4619 -0.5378
   42CHL1  H22A 5571   5.593   6.362   8.922  1.4171 -0.0841  0.0835
   42CHL1  H22B 5572   5.753   6.286   8.919  0.3478  0.7397  0.9692
   42CHL1   C23 5573   5.608   6.193   8.779 -0.1426 -0.2730  0.1102
   42CHL1  H23A 5574   5.677   6.106   8.769 -0.6322 -0.5203 -1.3790
   42CHL1  H23B 5575   5.502   6.160   8.786  0.4584 -2.1319  1.0465
   42CHL1   C24 5576   5.640   6.281   8.656  0.5075  0.7918 -0.5708
   42CHL1  H24A 5577   5.583   6.376   8.652 -0.5562  0.3532  2.1563
   42CHL1  H24B 5578   5.748   6.306   8.657  0.8414 -0.5545  1.0289
   42CHL1   C25 5579   5.605   6.221   8.519  0.0476  0.3312 -0.1310
   42CHL1   H25 5580   5.650   6.120   8.507 -0.1312  0.1227  0.9023
   42CHL1   C26 5581   5.447   6.213   8.492 -0.0350 -0.2709 -0.2528
   42CHL1  H26A 5582   5.399   6.312   8.478  1.6154  0.5295 -0.5162
   42CHL1  H26B 5583   5.434   6.156   8.397 -0.2572  0.4840 -0.6888
   42CHL1  H26C 5584   5.405   6.157   8.577  3.7239 -2.0303  0.6561
   42CHL1   C27 5585   5.667   6.310   8.406  0.7510 -0.2273 -1.0916
   42CHL1  H27A 5586   5.767   6.276   8.371  1.9068  1.6754  0.1602
   42CHL1  H27B 5587   5.594   6.314   8.322 -0.7841 -1.3031  0.1574
   42CHL1  H27C 5588   5.676   6.412   8.450 -3.5658  0.8005 -2.1586
   43CHL1    C3 5589   5.585   5.633   9.841  0.1088  0.3829  0.7428
   43CHL1    H3 5590   5.582   5.741   9.817  2.5477  0.2622 -0.4505
   43CHL1    O3 5591   5.545   5.583   9.965  0.1449  0.3131 -0.4902
   43CHL1   H3' 5592   5.590   5.499   9.979 -0.8664 -0.1471  0.0671
   43CHL1    C4 5593   5.496   5.576   9.724  0.3180 -0.0381 -0.3434
   43CHL1   H4A 5594   5.491   5.467   9.745  0.6774 -0.1977 -1.0712
   43CHL1   H4B 5595   5.389   5.597   9.746 -0.1925 -3.1786  0.6870
   43CHL1    C5 5596   5.544   5.594   9.585 -0.2163 -0.5170 -0.0060
   43CHL1    C6 5597   5.473   5.660   9.486 -0.1437  0.5538  0.9162
   43CHL1    H6 5598   5.371   5.697   9.504 -0.5384 -0.5479  1.0293
   43CHL1    C7 5599   5.516   5.667   9.335 -0.1749  0.3412  0.0576
   43CHL1   H7A 5600   5.440   5.627   9.265 -1.7739  0.0842  1.8670
   43CHL1   H7B 5601   5.534   5.772   9.304  1.1685  0.5436  1.4042
   43CHL1    C8 5602   5.649   5.589   9.313 -0.7426  0.1304 -0.7649
   43CHL1    H8 5603   5.613   5.484   9.319 -1.2623  0.3791  1.7206
   43CHL1   C14 5604   5.712   5.623   9.185  0.8630 -0.0482 -0.2207
   43CHL1   H14 5605   5.748   5.727   9.199  1.2125 -0.2973  0.7956
   43CHL1   C15 5606   5.625   5.615   9.061 -0.0864  0.1224 -0.5100
   43CHL1  H15A 5607   5.578   5.514   9.070 -0.3805  0.1219 -1.8859
   43CHL1  H15B 5608   5.556   5.702   9.062 -0.0868  0.1334  1.1187
   43CHL1   C16 5609   5.726   5.637   8.942 -0.1463 -0.0003 -0.7040
   43CHL1  H16A 5610   5.702   5.562   8.863  1.4770  0.0470 -1.2806
   43CHL1  H16B 5611   5.707   5.741   8.909 -1.3902 -0.6178 -2.0722
   43CHL1   C17 5612   5.862   5.612   9.013  0.3292 -0.1738 -0.7722
   43CHL1   H17 5613   5.899   5.716   9.022  0.0798 -0.2149  1.2627
   43CHL1   C13 5614   5.839   5.550   9.151 -0.8555  0.2360  0.5568
   43CHL1   C18 5615   5.817   5.402   9.127  0.6503 -0.0118  0.1321
   43CHL1  H18A 5616   5.747   5.381   9.043 -2.1834  2.3608  1.6845
   43CHL1  H18B 5617   5.912   5.351   9.102 -0.0544 -0.7496 -1.1406
   43CHL1  H18C 5618   5.765   5.367   9.219 -1.2144  1.8466 -0.1314
   43CHL1   C12 5619   5.945   5.587   9.265 -0.1844  0.9313 -0.2316
   43CHL1  H12A 5620   6.041   5.531   9.257 -0.2381  0.7689  0.2077
   43CHL1  H12B 5621   5.976   5.693   9.256  2.3271  0.2487 -0.3612
   43CHL1   C11 5622   5.887   5.548   9.397 -0.5907 -0.7256  0.5755
   43CHL1  H11A 5623   5.899   5.438   9.412  0.8054 -0.7767 -0.6782
   43CHL1  H11B 5624   5.953   5.600   9.469 -0.4588 -1.6397  1.1273
   43CHL1    C9 5625   5.747   5.601   9.430  0.0368  0.3428 -0.2643
   43CHL1    H9 5626   5.757   5.712   9.439  0.4237  0.4361 -1.6544
   43CHL1   C10 5627   5.695   5.545   9.567  0.3978 -0.0304 -0.0333
   43CHL1   C19 5628   5.693   5.392   9.566  0.2285  0.3429 -0.3387
   43CHL1  H19A 5629   5.798   5.355   9.577 -0.0479 -2.0573 -4.0202
   43CHL1  H19B 5630   5.623   5.353   9.643 -0.5094  1.5855 -0.3611
   43CHL1  H19C 5631   5.664   5.347   9.469  0.2380 -0.5821  0.0678
   43CHL1    C1 5632   5.789   5.601   9.683  0.7435 -0.1546 -0.3057
   43CHL1   H1A 5633   5.883   5.544   9.671  0.9749 -0.4989  2.4375
   43CHL1   H1B 5634   5.806   5.710   9.670 -2.7330  0.5420 -0.1828
   43CHL1    C2 5635   5.731   5.588   9.828  0.2631 -0.0301  0.0924
   43CHL1   H2A 5636   5.790   5.654   9.896  1.7988  0.2290 -1.4199
   43CHL1   H2B 5637   5.765   5.490   9.866  2.0689 -0.0520 -1.4241
   43CHL1   C20 5638   5.965   5.548   8.911 -0.0900  0.6463  0.4014
   43CHL1   H20 5639   5.930   5.448   8.878  0.9207  0.2973  0.3698
   43CHL1   C21 5640   6.103   5.531   8.982  0.4494  0.3009  0.2641
   43CHL1  H21A 5641   6.170   5.485   8.906 -2.4719  0.1295 -2.3901
   43CHL1  H21B 5642   6.095   5.452   9.060  0.9367 -0.5159 -0.4898
   43CHL1  H21C 5643   6.143   5.622   9.032  0.7327  1.0330 -1.2331
   43CHL1   C22 5644   5.987   5.624   8.777  0.5747 -0.6054 -0.0443
   43CHL1  H22A 5645   5.892   5.671   8.745 -0.0879 -1.8855 -0.0239
   43CHL1  H22B 5646   6.060   5.703   8.805  1.6219 -1.0228 -1.4550
   43CHL1   C23 5647   6.057   5.549   8.664 -1.4316  0.4234  0.9618
   43CHL1  H23A 5648   6.149   5.498   8.702 -2.7306 -2.3668  0.6425
   43CHL1  H23B 5649   5.991   5.471   8.620  0.0207 -0.0345 -0.5120
   43CHL1   C24 5650   6.104   5.635   8.549 -0.4634 -0.5701 -0.9875
   43CHL1  H24A 5651   6.017   5.681   8.498 -0.4141  0.7616  0.0711
   43CHL1  H24B 5652   6.151   5.727   8.589  2.4706 -2.1742 -0.4626
   43CHL1   C25 5653   6.211   5.583   8.456  0.6990 -0.8659  0.6872
   43CHL1   H25 5654   6.271   5.505   8.508 -0.3881 -1.8240  0.5539
   43CHL1   C26 5655   6.153   5.513   8.329  0.3496 -0.8914  0.2898
   43CHL1  H26A 5656   6.092   5.587   8.273  0.8420  0.0187  0.9218
   43CHL1  H26B 5657   6.223   5.460   8.262  0.7709 -0.8726  0.7115
   43CHL1  H26C 5658   6.085   5.433   8.367 -0.5428  1.1183  3.3588
   43CHL1   C27 5659   6.303   5.701   8.405  0.7678  0.5720  0.3826
   43CHL1  H27A 5660   6.241   5.783   8.364  0.3034  0.1397  0.2157
   43CHL1  H27B 5661   6.363   5.750   8.485 -1.7155  3.6491  0.5470
   43CHL1  H27C 5662   6.379   5.659   8.335 -0.7118  1.5926 -1.9592
   44CHL1    C3 5663   0.661   5.869   9.884  0.2765  0.4516 -0.4288
   44CHL1    H3 5664   0.652   5.979   9.871  0.7184  0.5044 -0.3147
   44CHL1    O3 5665   0.666   5.832  10.021  0.0239  0.4619 -0.4428
   44CHL1   H3' 5666   0.573   5.833  10.047  0.4250 -0.0851  1.1366
   44CHL1    C4 5667   0.533   5.800   9.829 -0.5641  0.2094  0.1646
   44CHL1   H4A 5668   0.537   5.690   9.840 -0.4314  0.3906  2.2107
   44CHL1   H4B 5669   0.445   5.835   9.887  0.2452  3.6754 -0.4436
   44CHL1    C5 5670   0.526   5.821   9.677 -0.1959 -0.3668 -0.3798
   44CHL1    C6 5671   0.425   5.887   9.627 -0.0908 -1.1179  0.0378
   44CHL1    H6 5672   0.356   5.937   9.697  1.8301 -0.4258  1.5208
   44CHL1    C7 5673   0.406   5.912   9.478 -0.0910 -1.0692 -0.0582
   44CHL1   H7A 5674   0.301   5.890   9.449  0.1208  0.3200 -2.0923
   44CHL1   H7B 5675   0.433   6.017   9.451 -3.3769  0.2046  1.0054
   44CHL1    C8 5676   0.488   5.819   9.387 -0.1988  0.5976 -0.6276
   44CHL1    H8 5677   0.445   5.717   9.402 -1.5050  1.2906  0.5074
   44CHL1   C14 5678   0.481   5.866   9.244  0.0262 -0.1680 -1.0121
   44CHL1   H14 5679   0.528   5.967   9.244 -1.5222  0.6357  1.1494
   44CHL1   C15 5680   0.345   5.868   9.170 -0.5967 -0.0292  0.4920
   44CHL1  H15A 5681   0.275   5.793   9.214 -1.9666  2.4214  2.7643
   44CHL1  H15B 5682   0.311   5.972   9.190 -0.9330 -0.0025 -0.1969
   44CHL1   C16 5683   0.385   5.844   9.022  0.0705 -0.2411  0.5224
   44CHL1  H16A 5684   0.337   5.748   8.992  0.7067 -0.1278 -0.9571
   44CHL1  H16B 5685   0.364   5.924   8.948  1.6089 -0.7122 -0.4800
   44CHL1   C17 5686   0.541   5.840   9.019  0.8084 -0.0638 -0.1850
   44CHL1   H17 5687   0.569   5.947   9.028 -0.7470  0.1956  3.6728
   44CHL1   C13 5688   0.576   5.786   9.160  0.0156 -0.6247 -0.1306
   44CHL1   C18 5689   0.541   5.629   9.173  0.8966  0.0340 -0.5655
   44CHL1  H18A 5690   0.438   5.606   9.138 -0.0697  0.5283  1.7925
   44CHL1  H18B 5691   0.610   5.569   9.109  0.2239  1.2062 -2.4864
   44CHL1  H18C 5692   0.541   5.590   9.277 -2.0373  0.0255 -0.4674
   44CHL1   C12 5693   0.726   5.787   9.208  0.9153 -0.2853  0.1386
   44CHL1  H12A 5694   0.768   5.711   9.139 -1.5570  1.5357 -3.7875
   44CHL1  H12B 5695   0.774   5.886   9.190 -0.2451  0.6020  1.6455
   44CHL1   C11 5696   0.739   5.748   9.355  0.3130  0.6294 -0.4313
   44CHL1  H11A 5697   0.745   5.638   9.368  1.5811  0.7321 -0.0638
   44CHL1  H11B 5698   0.837   5.788   9.388  0.5089 -0.3218  0.1824
   44CHL1    C9 5699   0.632   5.820   9.444  0.4821 -0.1570 -0.2527
   44CHL1    H9 5700   0.655   5.928   9.448  0.4211  0.0154 -2.8448
   44CHL1   C10 5701   0.643   5.776   9.597 -0.0808  0.1917  0.5436
   44CHL1   C19 5702   0.637   5.628   9.611 -0.0868  1.0995  0.2716
   44CHL1  H19A 5703   0.547   5.592   9.557  1.0591  0.7536 -1.4983
   44CHL1  H19B 5704   0.726   5.579   9.565 -1.0877 -0.8665  0.3193
   44CHL1  H19C 5705   0.645   5.579   9.711  2.1178 -1.0262 -0.8350
   44CHL1    C1 5706   0.778   5.826   9.664  0.5461 -0.0626 -0.2330
   44CHL1   H1A 5707   0.862   5.774   9.612 -0.1206 -0.2595 -1.1487
   44CHL1   H1B 5708   0.792   5.932   9.634  0.9301 -0.4671 -1.5606
   44CHL1    C2 5709   0.785   5.822   9.814  0.3016  1.4600 -0.4652
   44CHL1   H2A 5710   0.877   5.879   9.839 -0.1342  1.1447  2.0667
   44CHL1   H2B 5711   0.798   5.719   9.853 -1.6989  2.3837  3.1232
   44CHL1   C20 5712   0.604   5.764   8.903 -0.2624  0.0109 -0.0247
   44CHL1   H20 5713   0.696   5.715   8.943 -0.2270 -0.8628 -1.0994
   44CHL1   C21 5714   0.641   5.873   8.804 -0.5315 -0.1089 -0.0390
   44CHL1  H21A 5715   0.693   5.962   8.844  1.9403 -1.1861 -0.6444
   44CHL1  H21B 5716   0.554   5.904   8.742 -0.7209 -0.6025 -0.0208
   44CHL1  H21C 5717   0.711   5.826   8.732 -0.7361 -1.0901  0.3821
   44CHL1   C22 5718   0.520   5.656   8.824 -0.4878 -0.4264  0.1362
   44CHL1  H22A 5719   0.482   5.583   8.898  0.6909 -2.4269 -1.1575
   44CHL1  H22B 5720   0.436   5.691   8.760  0.8718  0.4679 -1.2397
   44CHL1   C23 5721   0.611   5.557   8.753  0.1457  0.5684  0.5529
   44CHL1  H23A 5722   0.683   5.604   8.683 -0.4021 -0.9399 -1.1161
   44CHL1  H23B 5723   0.673   5.504   8.828 -1.0504 -0.2164  1.0216
   44CHL1   C24 5724   0.523   5.450   8.673 -0.1762  0.8236 -0.2453
   44CHL1  H24A 5725   0.453   5.407   8.747 -0.3412 -0.4246 -1.1032
   44CHL1  H24B 5726   0.456   5.501   8.601  1.4768  1.7861 -1.1900
   44CHL1   C25 5727   0.605   5.335   8.605  0.1121 -0.1303 -0.6649
   44CHL1   H25 5728   0.533   5.256   8.573 -0.6705  0.5268 -0.5478
   44CHL1   C26 5729   0.668   5.390   8.476 -0.4193 -0.0345 -0.0398
   44CHL1  H26A 5730   0.763   5.334   8.459  0.8568  1.7744  0.7375
   44CHL1  H26B 5731   0.602   5.401   8.387 -2.9712 -0.0206  1.7501
   44CHL1  H26C 5732   0.694   5.497   8.491  1.1714 -0.2885 -0.7651
   44CHL1   C27 5733   0.715   5.265   8.691 -0.4538  0.2581 -0.7715
   44CHL1  H27A 5734   0.768   5.192   8.626  0.4710  0.7370 -0.5681
   44CHL1  H27B 5735   0.782   5.347   8.726  0.9892 -0.2525 -2.1935
   44CHL1  H27C 5736   0.658   5.222   8.775 -0.6387 -1.8986 -1.9305
   45CHL1    C3 5737   3.082   1.817  10.243  0.2979  0.0238  0.1743
   45CHL1    H3 5738   3.018   1.894  10.195 -0.4708 -0.9655 -0.4358
   45CHL1    O3 5739   3.070   1.835  10.380  0.3945  0.1348 -0.7553
   45CHL1   H3' 5740   2.975   1.830  10.393  0.3505  0.4646 -0.9458
   45CHL1    C4 5741   3.023   1.680  10.206  0.6303 -0.3904  0.5055
   45CHL1   H4A 5742   3.063   1.594  10.265  0.6836 -1.6303 -1.2729
   45CHL1   H4B 5743   2.914   1.685  10.226  0.7188 -0.8642  1.1579
   45CHL1    C5 5744   3.037   1.668  10.051  0.1880 -0.1053 -0.1415
   45CHL1    C6 5745   2.934   1.667   9.968 -0.2836  0.5408  0.4862
   45CHL1    H6 5746   2.831   1.675  10.007 -0.0082  1.0788  1.1225
   45CHL1    C7 5747   2.950   1.654   9.820  0.1309 -0.5433 -0.0221
   45CHL1   H7A 5748   2.926   1.553   9.783 -0.3851 -0.7229  0.7679
   45CHL1   H7B 5749   2.867   1.714   9.776 -0.4657 -1.6948 -0.5112
   45CHL1    C8 5750   3.085   1.705   9.765  0.9622  0.1281 -1.1778
   45CHL1    H8 5751   3.079   1.814   9.780 -0.1924 -0.1928  1.1334
   45CHL1   C14 5752   3.106   1.692   9.614  0.5537  0.0053 -0.4682
   45CHL1   H14 5753   3.004   1.710   9.574 -0.7865 -1.9564  1.8124
   45CHL1   C15 5754   3.181   1.817   9.558 -0.3358  0.3795 -0.5762
   45CHL1  H15A 5755   3.126   1.913   9.571 -0.0593  0.3234  1.1463
   45CHL1  H15B 5756   3.274   1.814   9.619 -1.5038  1.7032  1.3775
   45CHL1   C16 5757   3.214   1.777   9.413  1.0340 -0.4767 -0.7997
   45CHL1  H16A 5758   3.118   1.791   9.359 -0.2515  0.6326  1.6089
   45CHL1  H16B 5759   3.290   1.842   9.366  0.1772  0.8349 -0.4206
   45CHL1   C17 5760   3.243   1.627   9.428  0.0850 -0.0151 -0.0632
   45CHL1   H17 5761   3.353   1.622   9.445  0.1707 -1.2944 -0.8991
   45CHL1   C13 5762   3.171   1.569   9.554 -0.6757 -0.6053 -0.7424
   45CHL1   C18 5763   3.058   1.466   9.525  0.4241 -0.5254 -0.2058
   45CHL1  H18A 5764   3.100   1.375   9.476  1.3868  0.4748 -1.2823
   45CHL1  H18B 5765   3.008   1.437   9.620 -0.4843 -0.6162 -0.6977
   45CHL1  H18C 5766   2.979   1.507   9.458  0.7823 -0.2369 -0.4556
   45CHL1   C12 5767   3.278   1.509   9.650  0.5329  0.5907 -0.3222
   45CHL1  H12A 5768   3.277   1.403   9.619 -1.3029  1.4671 -3.9885
   45CHL1  H12B 5769   3.377   1.559   9.641  1.3265 -0.8404  0.3504
   45CHL1   C11 5770   3.238   1.510   9.800  0.7671  0.1834 -0.1951
   45CHL1  H11A 5771   3.150   1.445   9.817 -0.1746  1.8839  1.8050
   45CHL1  H11B 5772   3.324   1.466   9.854 -0.4775 -1.1592  0.7579
   45CHL1    C9 5773   3.198   1.647   9.850  0.1326 -0.0474  0.7445
   45CHL1    H9 5774   3.277   1.715   9.811 -0.1433 -0.8585 -1.3683
   45CHL1   C10 5775   3.184   1.663  10.002  0.0047  0.6874 -0.1544
   45CHL1   C19 5776   3.266   1.557  10.078 -0.1127  0.0016 -0.2185
   45CHL1  H19A 5777   3.271   1.573  10.188 -1.2951 -1.6768  0.1163
   45CHL1  H19B 5778   3.209   1.463  10.060 -0.7456 -0.0144  1.6926
   45CHL1  H19C 5779   3.370   1.547  10.042  0.0571 -1.2318  0.5452
   45CHL1    C1 5780   3.244   1.801  10.042 -0.7905 -0.0541 -0.3081
   45CHL1   H1A 5781   3.344   1.799   9.993 -1.7258  0.6685 -2.3569
   45CHL1   H1B 5782   3.186   1.877   9.986 -2.7100 -1.4220 -0.2872
   45CHL1    C2 5783   3.234   1.839  10.192  0.0182 -0.1270 -0.4879
   45CHL1   H2A 5784   3.277   1.940  10.212 -1.2321  0.0558  1.5540
   45CHL1   H2B 5785   3.297   1.775  10.257  0.5487 -1.0673 -1.8678
   45CHL1   C20 5786   3.236   1.546   9.289 -0.1759 -0.2637 -0.3305
   45CHL1   H20 5787   3.129   1.530   9.264 -0.5509  2.5287 -0.8778
   45CHL1   C21 5788   3.317   1.416   9.314  0.5775  0.3677  0.1070
   45CHL1  H21A 5789   3.277   1.354   9.397 -0.4793  1.6245  0.5837
   45CHL1  H21B 5790   3.424   1.445   9.319  0.9505 -1.1287  3.4118
   45CHL1  H21C 5791   3.302   1.349   9.227  0.2724  0.3156  0.1987
   45CHL1   C22 5792   3.304   1.625   9.174 -0.0997  0.2433 -0.3041
   45CHL1  H22A 5793   3.227   1.703   9.156  0.1384  0.4131 -0.5735
   45CHL1  H22B 5794   3.404   1.666   9.198  1.1454 -1.8934 -1.5271
   45CHL1   C23 5795   3.319   1.536   9.049 -0.1001 -0.3575 -0.5066
   45CHL1  H23A 5796   3.365   1.607   8.976 -2.1559  0.1318 -1.4031
   45CHL1  H23B 5797   3.395   1.456   9.041 -1.5067 -2.2626  3.1052
   45CHL1   C24 5798   3.187   1.494   8.971  0.1959 -0.0680  0.2709
   45CHL1  H24A 5799   3.120   1.419   9.018  1.8493 -1.0511  1.1419
   45CHL1  H24B 5800   3.124   1.584   8.986 -0.0786 -0.6073  2.7899
   45CHL1   C25 5801   3.195   1.470   8.819  0.3251 -0.0887  0.4246
   45CHL1   H25 5802   3.212   1.571   8.777 -0.6528 -0.4585 -0.9085
   45CHL1   C26 5803   3.310   1.374   8.779 -0.3485 -0.4512  0.3843
   45CHL1  H26A 5804   3.317   1.286   8.847  0.3404 -0.1062  0.7689
   45CHL1  H26B 5805   3.290   1.339   8.675 -2.0673  1.2195  0.1049
   45CHL1  H26C 5806   3.408   1.426   8.782  1.0145 -2.7959 -0.7881
   45CHL1   C27 5807   3.063   1.418   8.761  0.3747 -0.4380  0.4952
   45CHL1  H27A 5808   2.977   1.479   8.798  0.7142 -0.2715  1.0294
   45CHL1  H27B 5809   3.076   1.424   8.651  2.2709 -1.2420  0.6518
   45CHL1  H27C 5810   3.039   1.316   8.800 -1.6021 -0.1469  0.1785
   46CHL1    C3 5811   0.488   2.256  10.010  0.2515 -0.2398  0.3448
   46CHL1    H3 5812   0.485   2.367  10.000 -1.0504 -0.3636 -0.9327
   46CHL1    O3 5813   0.485   2.223  10.146 -0.0391 -0.1509 -0.0356
   46CHL1   H3' 5814   0.556   2.279  10.178  0.5968 -0.6329 -0.5752
   46CHL1    C4 5815   0.371   2.189   9.936  0.1891 -0.2403 -0.0350
   46CHL1   H4A 5816   0.389   2.082   9.961 -3.4260 -0.4239  2.5227
   46CHL1   H4B 5817   0.282   2.230   9.988  1.2248  0.4067  1.2580
   46CHL1    C5 5818   0.375   2.208   9.779  0.2997 -0.4986  0.1644
   46CHL1    C6 5819   0.284   2.277   9.708  0.4672 -0.0619  0.4263
   46CHL1    H6 5820   0.196   2.318   9.758  0.4516  0.8556 -0.3287
   46CHL1    C7 5821   0.285   2.297   9.556 -0.2415 -0.7591  0.2839
   46CHL1   H7A 5822   0.189   2.273   9.506  0.6563 -0.9596 -1.4343
   46CHL1   H7B 5823   0.292   2.405   9.535  2.6152 -0.8947  0.1870
   46CHL1    C8 5824   0.401   2.219   9.483 -0.0348  0.0186 -0.7452
   46CHL1    H8 5825   0.360   2.116   9.477  1.5372 -0.6985  0.1440
   46CHL1   C14 5826   0.423   2.266   9.340 -0.5854 -0.5685  0.5084
   46CHL1   H14 5827   0.463   2.369   9.347 -0.0199 -0.5513 -2.0602
   46CHL1   C15 5828   0.303   2.287   9.239 -0.0367  0.3972  0.1003
   46CHL1  H15A 5829   0.224   2.209   9.248 -1.8601  2.1677 -0.0252
   46CHL1  H15B 5830   0.254   2.386   9.251  2.7455  1.7152  1.7007
   46CHL1   C16 5831   0.372   2.284   9.103 -0.1290 -0.1951  0.8457
   46CHL1  H16A 5832   0.334   2.198   9.043  4.0570 -0.7631 -1.3499
   46CHL1  H16B 5833   0.341   2.374   9.046 -0.7906 -1.5205 -1.0173
   46CHL1   C17 5834   0.520   2.252   9.122  0.1289  0.0977 -0.5523
   46CHL1   H17 5835   0.567   2.351   9.143  0.6014 -0.1818 -0.2549
   46CHL1   C13 5836   0.532   2.187   9.262  0.2856  0.2328  0.3116
   46CHL1   C18 5837   0.496   2.036   9.242  0.0518 -0.1642  0.2271
   46CHL1  H18A 5838   0.574   1.978   9.189  1.6629  1.6071  0.5209
   46CHL1  H18B 5839   0.489   1.995   9.345 -2.4740 -0.9777 -0.2035
   46CHL1  H18C 5840   0.404   2.023   9.182 -0.9992  0.1685  1.6850
   46CHL1   C12 5841   0.669   2.207   9.333  1.0895 -0.0376 -0.9446
   46CHL1  H12A 5842   0.749   2.152   9.281 -0.6355 -1.9488 -1.7151
   46CHL1  H12B 5843   0.698   2.314   9.329 -1.3428  0.6715 -1.3561
   46CHL1   C11 5844   0.649   2.160   9.484  0.2457  0.5606  0.3517
   46CHL1  H11A 5845   0.640   2.050   9.481 -0.9178  0.6216  1.0087
   46CHL1  H11B 5846   0.745   2.185   9.533 -0.6298 -0.7050  2.8326
   46CHL1    C9 5847   0.524   2.223   9.559 -0.8408 -0.3381 -0.4677
   46CHL1    H9 5848   0.559   2.328   9.566  0.8032 -0.9580  1.6893
   46CHL1   C10 5849   0.510   2.164   9.711  0.2611  0.3151  0.3532
   46CHL1   C19 5850   0.519   2.008   9.714 -1.1694 -0.4227 -0.1698
   46CHL1  H19A 5851   0.500   1.960   9.812  1.6447  1.3106  1.3916
   46CHL1  H19B 5852   0.447   1.969   9.639 -1.1310 -1.7220  0.4417
   46CHL1  H19C 5853   0.626   1.985   9.691 -0.4177  2.7326 -0.3405
   46CHL1    C1 5854   0.629   2.230   9.792 -0.0437  0.5327  0.3276
   46CHL1   H1A 5855   0.713   2.179   9.741  0.0080  1.1007 -0.1688
   46CHL1   H1B 5856   0.645   2.337   9.766  0.4579  0.0503 -1.5287
   46CHL1    C2 5857   0.619   2.208   9.947  0.2168  0.3524 -0.1072
   46CHL1   H2A 5858   0.714   2.249   9.987  1.1826 -2.8638  1.2203
   46CHL1   H2B 5859   0.634   2.101   9.970 -1.6385 -0.0380 -0.5119
   46CHL1   C20 5860   0.589   2.190   8.996 -0.7248  0.3150 -0.5067
   46CHL1   H20 5861   0.553   2.085   8.990 -0.6654  0.0737  2.2658
   46CHL1   C21 5862   0.744   2.177   9.026  0.9347  0.6356  0.4295
   46CHL1  H21A 5863   0.766   2.093   9.095 -0.9595  0.8315  1.3205
   46CHL1  H21B 5864   0.780   2.277   9.057  1.0789  0.8426 -0.3833
   46CHL1  H21C 5865   0.792   2.156   8.927  0.6652 -1.6524  0.7353
   46CHL1   C22 5866   0.552   2.259   8.867 -0.8224 -0.2399 -0.2449
   46CHL1  H22A 5867   0.578   2.191   8.783  2.7247  1.5427 -0.8056
   46CHL1  H22B 5868   0.448   2.297   8.860 -1.0848 -0.3698  2.0515
   46CHL1   C23 5869   0.627   2.391   8.853  0.0655 -1.1566  0.0649
   46CHL1  H23A 5870   0.605   2.456   8.940 -0.9411  0.6660 -1.4592
   46CHL1  H23B 5871   0.736   2.370   8.846  0.5464  1.1373 -0.2899
   46CHL1   C24 5872   0.590   2.480   8.732  0.2628  0.2471  0.2739
   46CHL1  H24A 5873   0.626   2.430   8.640 -1.5968  0.4019 -0.5768
   46CHL1  H24B 5874   0.479   2.479   8.732  0.2461  1.1436  0.9862
   46CHL1   C25 5875   0.635   2.624   8.735  0.0393 -0.4934  0.5065
   46CHL1   H25 5876   0.608   2.673   8.831 -1.4085  0.1098 -0.1783
   46CHL1   C26 5877   0.787   2.636   8.724 -0.0052  0.5057 -0.6194
   46CHL1  H26A 5878   0.825   2.584   8.633 -0.2993  0.4006 -0.6839
   46CHL1  H26B 5879   0.813   2.744   8.722  1.6166  0.3051  2.6883
   46CHL1  H26C 5880   0.834   2.595   8.816 -0.3612 -0.1467 -0.7239
   46CHL1   C27 5881   0.562   2.699   8.623  0.0693  0.6268 -0.1656
   46CHL1  H27A 5882   0.452   2.680   8.626  0.3899 -1.2454  0.9734
   46CHL1  H27B 5883   0.584   2.807   8.626  1.0235  0.4659 -0.9306
   46CHL1  H27C 5884   0.598   2.658   8.526 -2.7894 -0.0562 -1.0414
   47CHL1    C3 5885   0.581   4.830   9.987 -0.2291 -0.0539  0.2183
   47CHL1    H3 5886   0.627   4.931   9.981  3.3141 -1.4646  1.3030
   47CHL1    O3 5887   0.547   4.793  10.115 -0.2874  0.2941  0.5812
   47CHL1   H3' 5888   0.528   4.701  10.098  1.7042  0.1642 -1.4155
   47CHL1    C4 5889   0.449   4.823   9.904  0.5950  0.8629  0.0333
   47CHL1   H4A 5890   0.402   4.726   9.932 -1.3420  1.3691 -1.2817
   47CHL1   H4B 5891   0.382   4.905   9.938 -0.9775  0.6773 -2.3742
   47CHL1    C5 5892   0.470   4.814   9.756  0.0888  0.0082  0.9419
   47CHL1    C6 5893   0.407   4.897   9.675  0.1988  0.3700  0.2340
   47CHL1    H6 5894   0.332   4.962   9.722 -1.9225 -2.1448  0.5955
   47CHL1    C7 5895   0.414   4.897   9.526 -0.3249  0.3619  1.2643
   47CHL1   H7A 5896   0.312   4.898   9.482  0.3875  1.4880 -0.4856
   47CHL1   H7B 5897   0.480   4.977   9.487 -0.4360 -0.2477 -0.2506
   47CHL1    C8 5898   0.473   4.762   9.485  0.5359  0.8171 -0.4387
   47CHL1    H8 5899   0.396   4.685   9.505 -0.2637  1.0823 -2.3097
   47CHL1   C14 5900   0.501   4.777   9.335  0.1682  0.1647  1.2141
   47CHL1   H14 5901   0.586   4.847   9.325  2.4741 -2.6388 -0.5412
   47CHL1   C15 5902   0.385   4.809   9.248  0.6372  0.1465  0.3889
   47CHL1  H15A 5903   0.294   4.748   9.268 -0.6701  2.0005  0.4393
   47CHL1  H15B 5904   0.358   4.917   9.238 -1.0873 -0.3418 -0.5846
   47CHL1   C16 5905   0.436   4.765   9.106  0.9951 -0.1882 -0.0134
   47CHL1  H16A 5906   0.351   4.709   9.059  0.8224  0.6381 -0.7120
   47CHL1  H16B 5907   0.451   4.856   9.044 -1.3765  0.9679  0.9896
   47CHL1   C17 5908   0.568   4.681   9.130  0.6732  0.1123  0.0675
   47CHL1   H17 5909   0.650   4.754   9.121  1.3764 -0.7721 -0.9876
   47CHL1   C13 5910   0.558   4.643   9.281  0.2663 -0.6097  0.6049
   47CHL1   C18 5911   0.468   4.524   9.305 -0.0999 -0.1699 -0.1606
   47CHL1  H18A 5912   0.516   4.425   9.287  3.3975  1.1370  1.0199
   47CHL1  H18B 5913   0.433   4.514   9.410 -0.7433  0.5786 -0.2957
   47CHL1  H18C 5914   0.378   4.535   9.241 -0.9553  2.0167  1.2878
   47CHL1   C12 5915   0.701   4.632   9.355  0.0213  0.2669 -0.8439
   47CHL1  H12A 5916   0.748   4.540   9.312  0.4946 -0.4444  1.0930
   47CHL1  H12B 5917   0.761   4.721   9.329 -1.8664  1.2589 -1.9989
   47CHL1   C11 5918   0.688   4.620   9.504 -0.5542  0.0264 -0.5946
   47CHL1  H11A 5919   0.657   4.515   9.519  0.9212 -0.3310  0.0995
   47CHL1  H11B 5920   0.790   4.618   9.548 -0.2917  2.1139 -0.9857
   47CHL1    C9 5921   0.607   4.736   9.560 -0.2640  0.0308  1.3746
   47CHL1    H9 5922   0.655   4.835   9.545  0.5451 -0.8213 -2.6273
   47CHL1   C10 5923   0.571   4.713   9.714 -1.3516 -0.8156 -0.4711
   47CHL1   C19 5924   0.507   4.571   9.736 -0.4494  0.1563  0.2583
   47CHL1  H19A 5925   0.561   4.484   9.694  0.0305 -1.0455  3.0868
   47CHL1  H19B 5926   0.511   4.541   9.844  0.1869 -2.4124 -0.4038
   47CHL1  H19C 5927   0.403   4.564   9.697 -0.2097 -0.6063 -0.2581
   47CHL1    C1 5928   0.706   4.730   9.788 -0.1464  0.2039  0.3999
   47CHL1   H1A 5929   0.753   4.634   9.759  0.7083  0.7105  0.0573
   47CHL1   H1B 5930   0.779   4.802   9.745 -0.1759 -0.8968 -1.5950
   47CHL1    C2 5931   0.692   4.731   9.947 -0.4904 -0.0461 -0.8856
   47CHL1   H2A 5932   0.786   4.760   9.997 -1.3597  0.8252  0.3128
   47CHL1   H2B 5933   0.669   4.626   9.974  0.6487  0.2120  1.2906
   47CHL1   C20 5934   0.589   4.566   9.027  0.1762  0.0890 -0.0087
   47CHL1   H20 5935   0.502   4.497   9.024  0.0706  0.2307 -0.2391
   47CHL1   C21 5936   0.718   4.487   9.058  0.1137  0.0255 -0.0928
   47CHL1  H21A 5937   0.711   4.414   9.142 -0.1863  1.8203  1.5120
   47CHL1  H21B 5938   0.794   4.562   9.090 -1.4896  0.9295  1.8544
   47CHL1  H21C 5939   0.756   4.420   8.978  0.2901  0.9919 -0.8412
   47CHL1   C22 5940   0.606   4.632   8.887 -0.2525  1.2573 -0.0848
   47CHL1  H22A 5941   0.510   4.682   8.861 -1.5840 -2.3244 -2.9991
   47CHL1  H22B 5942   0.695   4.698   8.887 -0.2646  1.2905 -0.8496
   47CHL1   C23 5943   0.618   4.528   8.775  0.9012 -0.3408  0.9263
   47CHL1  H23A 5944   0.724   4.495   8.767  0.9970 -0.1882  1.5471
   47CHL1  H23B 5945   0.546   4.445   8.786  1.7791 -1.1047  1.0593
   47CHL1   C24 5946   0.590   4.600   8.639  0.5850  0.1969  0.9730
   47CHL1  H24A 5947   0.495   4.658   8.641  1.0561  0.9777  1.4793
   47CHL1  H24B 5948   0.655   4.686   8.610 -1.3714  1.3299 -0.3305
   47CHL1   C25 5949   0.584   4.509   8.514  0.6681 -0.3878  0.0724
   47CHL1   H25 5950   0.525   4.415   8.527  3.4608 -2.8776 -3.3503
   47CHL1   C26 5951   0.526   4.580   8.393  0.2759  0.4604 -0.4937
   47CHL1  H26A 5952   0.540   4.512   8.307  2.6340 -0.2098  0.3342
   47CHL1  H26B 5953   0.593   4.666   8.372 -0.2284  0.9501 -0.1320
   47CHL1  H26C 5954   0.420   4.607   8.415 -0.4945 -2.5936 -0.0934
   47CHL1   C27 5955   0.725   4.456   8.487 -0.5786 -0.2175  0.0056
   47CHL1  H27A 5956   0.733   4.401   8.391  3.3074  0.2137 -0.0560
   47CHL1  H27B 5957   0.794   4.542   8.481  0.6935 -1.2659 -0.7387
   47CHL1  H27C 5958   0.763   4.387   8.565  2.3066 -0.7474 -1.7315
   48CHL1    C3 5959   1.062   0.489  10.067  0.2314 -0.3660  0.8163
   48CHL1    H3 5960   1.043   0.598  10.054 -1.2539 -0.9143 -2.8929
   48CHL1    O3 5961   1.064   0.465  10.205 -0.1097 -0.2970  0.0889
   48CHL1   H3' 5962   1.057   0.370  10.214  0.8066 -0.4418 -0.6027
   48CHL1    C4 5963   0.944   0.409  10.003  0.4921  0.1850  0.2949
   48CHL1   H4A 5964   0.953   0.304  10.037  0.2592 -1.2584 -3.5839
   48CHL1   H4B 5965   0.844   0.450  10.030  0.7967  1.2682 -0.1589
   48CHL1    C5 5966   0.947   0.404   9.852  0.0464 -0.3201  0.4160
   48CHL1    C6 5967   0.840   0.434   9.775 -0.1519  0.6203 -0.2480
   48CHL1    H6 5968   0.738   0.443   9.816  0.7992 -0.7247  2.6995
   48CHL1    C7 5969   0.848   0.431   9.628 -0.2633 -1.1825  0.1314
   48CHL1   H7A 5970   0.758   0.386   9.582  0.2959 -0.5155 -1.6781
   48CHL1   H7B 5971   0.851   0.536   9.593  0.9656 -1.2749 -0.0846
   48CHL1    C8 5972   0.971   0.363   9.564  0.4165 -0.4051  0.1641
   48CHL1    H8 5973   0.954   0.253   9.561  1.8484 -0.6521  0.3194
   48CHL1   C14 5974   0.989   0.400   9.416  1.2493 -0.7248 -0.1242
   48CHL1   H14 5975   1.006   0.510   9.417 -2.0778 -0.0829  1.8817
   48CHL1   C15 5976   0.869   0.389   9.320  0.2144  0.0756  0.8806
   48CHL1  H15A 5977   0.803   0.301   9.336 -0.2826 -0.3535 -2.7047
   48CHL1  H15B 5978   0.813   0.484   9.333 -0.6036 -0.2926  0.1321
   48CHL1   C16 5979   0.930   0.380   9.184  0.0064  0.2666  0.2475
   48CHL1  H16A 5980   0.915   0.285   9.129  0.4401 -0.9205  2.0793
   48CHL1  H16B 5981   0.872   0.451   9.122 -0.2515 -1.0692 -1.0966
   48CHL1   C17 5982   1.079   0.402   9.199  0.4118  0.4993  0.0611
   48CHL1   H17 5983   1.088   0.512   9.211 -1.9790  0.5214  2.6174
   48CHL1   C13 5984   1.113   0.343   9.342 -0.0169  0.0222 -0.1043
   48CHL1   C18 5985   1.109   0.188   9.340 -0.1818  0.2340  0.2757
   48CHL1  H18A 5986   1.193   0.148   9.280 -1.3351  0.6093 -1.6727
   48CHL1  H18B 5987   1.125   0.149   9.443 -0.7876  0.5061  0.4803
   48CHL1  H18C 5988   1.008   0.157   9.304 -0.9525  1.2092  1.5046
   48CHL1   C12 5989   1.230   0.394   9.416 -0.8210 -0.2872 -0.3976
   48CHL1  H12A 5990   1.327   0.353   9.381 -0.8126 -0.1275 -0.5673
   48CHL1  H12B 5991   1.230   0.505   9.411  1.5880 -0.0717  1.8642
   48CHL1   C11 5992   1.227   0.366   9.563  0.0636 -0.4430 -0.8247
   48CHL1  H11A 5993   1.242   0.257   9.573  1.3812 -0.1559  1.1672
   48CHL1  H11B 5994   1.315   0.410   9.616 -0.3973  1.7792 -1.7961
   48CHL1    C9 5995   1.097   0.408   9.634  0.3091 -0.7254 -0.6414
   48CHL1    H9 5996   1.104   0.518   9.624  0.1529 -0.6393  0.1832
   48CHL1   C10 5997   1.089   0.385   9.787  0.1171  0.3385  0.1004
   48CHL1   C19 5998   1.135   0.230   9.809 -0.3407  0.2570 -0.7592
   48CHL1  H19A 5999   1.246   0.226   9.804 -0.3335 -0.0976 -0.3135
   48CHL1  H19B 6000   1.094   0.208   9.910 -0.9248 -0.0673 -1.0648
   48CHL1  H19C 6001   1.088   0.158   9.739 -2.2168  0.5290  0.1667
   48CHL1    C1 6002   1.198   0.471   9.861  0.3509  0.6849  0.5556
   48CHL1   H1A 6003   1.302   0.446   9.833  0.1939 -0.7762  1.1629
   48CHL1   H1B 6004   1.190   0.575   9.824  0.6520  1.1249  1.7062
   48CHL1    C2 6005   1.197   0.447  10.013  0.0284 -0.1330 -0.5608
   48CHL1   H2A 6006   1.285   0.503  10.050  0.9435 -0.9580 -1.4355
   48CHL1   H2B 6007   1.205   0.340  10.043 -0.7826 -0.1694 -0.4463
   48CHL1   C20 6008   1.166   0.350   9.090 -0.5205 -0.6812 -0.5346
   48CHL1   H20 6009   1.175   0.239   9.090 -1.0249 -0.7254 -0.5019
   48CHL1   C21 6010   1.311   0.392   9.112 -0.6351 -0.1381  0.3991
   48CHL1  H21A 6011   1.330   0.497   9.143 -0.9591  0.5019 -1.4423
   48CHL1  H21B 6012   1.370   0.383   9.019  0.8922  0.5013  1.2787
   48CHL1  H21C 6013   1.359   0.326   9.187  0.0948  0.7982  0.7686
   48CHL1   C22 6014   1.117   0.390   8.948  0.0165  0.5862 -0.3798
   48CHL1  H22A 6015   1.167   0.324   8.873 -3.0660 -1.2945 -0.9787
   48CHL1  H22B 6016   1.009   0.364   8.940  0.5917 -2.3004  0.0691
   48CHL1   C23 6017   1.118   0.541   8.913  0.8775  0.0876 -0.2812
   48CHL1  H23A 6018   1.050   0.591   8.984  0.9142 -2.4927  1.7155
   48CHL1  H23B 6019   1.213   0.597   8.921 -0.2548  2.3128 -1.3979
   48CHL1   C24 6020   1.068   0.573   8.773  0.3923 -0.5447 -0.0327
   48CHL1  H24A 6021   0.958   0.555   8.774  0.3643 -0.3940  1.5844
   48CHL1  H24B 6022   1.088   0.681   8.756  2.3530 -0.4018  2.6143
   48CHL1   C25 6023   1.124   0.508   8.650 -0.7956  0.0576  0.5642
   48CHL1   H25 6024   1.110   0.398   8.648 -2.5935  0.2574 -2.0985
   48CHL1   C26 6025   1.056   0.561   8.523 -0.3185 -0.2162  0.0491
   48CHL1  H26A 6026   1.076   0.479   8.451 -3.1467 -1.6434  0.7196
   48CHL1  H26B 6027   0.946   0.558   8.538 -0.2467  0.6380  0.8626
   48CHL1  H26C 6028   1.093   0.658   8.486 -1.4791 -0.2240 -1.2308
   48CHL1   C27 6029   1.278   0.528   8.645 -0.3726  0.4260 -0.4843
   48CHL1  H27A 6030   1.322   0.487   8.552 -1.4640 -1.2858 -0.2988
   48CHL1  H27B 6031   1.307   0.634   8.661 -3.0327  1.1236  0.2726
   48CHL1  H27C 6032   1.329   0.464   8.720 -0.0146  1.1788 -0.0715
   49CHL1    C3 6033   0.077   1.331  10.079  0.2075  0.5711 -0.0513
   49CHL1    H3 6034   0.139   1.421  10.056 -2.0036  2.4942  1.0858
   49CHL1    O3 6035   0.054   1.330  10.215 -0.0918 -0.1269 -0.6297
   49CHL1   H3' 6036  -0.016   1.269  10.239 -1.3883  1.7220  0.5082
   49CHL1    C4 6037  -0.062   1.342  10.006  0.0889 -0.1910 -0.4546
   49CHL1   H4A 6038  -0.115   1.250  10.039 -2.2836  1.5285  0.7588
   49CHL1   H4B 6039  -0.106   1.434  10.050  3.1144  0.1019  2.3879
   49CHL1    C5 6040  -0.046   1.337   9.855  0.1698 -0.0520 -0.0398
   49CHL1    C6 6041  -0.088   1.438   9.787  0.4354 -0.7870  0.5706
   49CHL1    H6 6042  -0.124   1.527   9.840 -0.5321 -0.3733 -0.7323
   49CHL1    C7 6043  -0.075   1.448   9.636  0.6340 -0.1507 -0.6095
   49CHL1   H7A 6044  -0.174   1.485   9.600 -0.4016 -0.4859  1.6827
   49CHL1   H7B 6045   0.004   1.522   9.612  0.1599 -0.5396 -3.8657
   49CHL1    C8 6046  -0.032   1.314   9.570  0.5435 -0.0533  0.0497
   49CHL1    H8 6047  -0.115   1.240   9.562  1.5133 -1.0955 -0.8235
   49CHL1   C14 6048   0.016   1.348   9.431  0.6981  0.8202 -0.0855
   49CHL1   H14 6049   0.107   1.405   9.458  1.0655 -0.4108  1.3951
   49CHL1   C15 6050  -0.075   1.429   9.344  0.1340 -0.9565  0.2071
   49CHL1  H15A 6051  -0.178   1.389   9.362 -0.8405  2.0664  2.1083
   49CHL1  H15B 6052  -0.071   1.532   9.385 -0.0316 -0.3415 -1.2765
   49CHL1   C16 6053  -0.021   1.403   9.209 -0.1202  0.0308  0.3902
   49CHL1  H16A 6054  -0.096   1.359   9.139  0.6281 -2.1689  0.8954
   49CHL1  H16B 6055   0.004   1.500   9.161 -2.1475  1.6471  2.3197
   49CHL1   C17 6056   0.100   1.307   9.224 -0.2027 -0.5350  0.6581
   49CHL1   H17 6057   0.189   1.368   9.251 -0.7701  1.0883 -0.9619
   49CHL1   C13 6058   0.063   1.230   9.350 -0.1340 -0.3146 -0.0037
   49CHL1   C18 6059  -0.051   1.119   9.324  0.3112 -0.5962  0.3812
   49CHL1  H18A 6060  -0.143   1.172   9.290  0.9469  0.4330  0.2247
   49CHL1  H18B 6061  -0.013   1.043   9.251  0.1584  0.9600 -1.3866
   49CHL1  H18C 6062  -0.067   1.057   9.415 -0.2292 -0.0739  0.6499
   49CHL1   C12 6063   0.182   1.162   9.421  0.3429  0.4002 -0.1007
   49CHL1  H12A 6064   0.196   1.058   9.385 -0.2041 -0.6071  2.3951
   49CHL1  H12B 6065   0.273   1.226   9.416  2.1377 -1.9481  0.6874
   49CHL1   C11 6066   0.147   1.133   9.573 -0.9693 -0.1327 -0.1376
   49CHL1  H11A 6067   0.078   1.046   9.573 -0.9484 -0.1683 -1.4749
   49CHL1  H11B 6068   0.242   1.104   9.622 -0.3593  1.5007 -0.2721
   49CHL1    C9 6069   0.079   1.254   9.649 -0.0509  0.1721 -0.3288
   49CHL1    H9 6070   0.152   1.338   9.649  1.9063 -1.4037  1.4287
   49CHL1   C10 6071   0.037   1.220   9.801 -0.4077  0.3800  0.0205
   49CHL1   C19 6072  -0.060   1.100   9.799 -0.1400  0.6767 -0.2628
   49CHL1  H19A 6073  -0.151   1.121   9.740 -0.3400  1.4054  0.2917
   49CHL1  H19B 6074  -0.020   1.004   9.761  0.3307  0.6190  0.3517
   49CHL1  H19C 6075  -0.079   1.073   9.905 -1.0725  1.4162 -0.2329
   49CHL1    C1 6076   0.162   1.189   9.884  0.1502  0.2510 -0.6950
   49CHL1   H1A 6077   0.196   1.086   9.863  1.9850  0.4992  0.7216
   49CHL1   H1B 6078   0.241   1.262   9.856 -0.4590  2.3622  2.4877
   49CHL1    C2 6079   0.144   1.203  10.035 -0.1468  0.6271 -0.1443
   49CHL1   H2A 6080   0.247   1.193  10.075  0.2141 -1.9216 -1.4786
   49CHL1   H2B 6081   0.092   1.111  10.068  0.4330  0.3088 -0.1004
   49CHL1   C20 6082   0.140   1.236   9.096 -0.4101 -0.1035 -0.2485
   49CHL1   H20 6083   0.081   1.145   9.071  0.2709 -1.1173  1.6293
   49CHL1   C21 6084   0.281   1.182   9.110 -0.3384  0.7633 -1.0594
   49CHL1  H21A 6085   0.343   1.266   9.149 -1.0217  1.1944 -0.8654
   49CHL1  H21B 6086   0.320   1.153   9.010 -0.3694  0.0663 -0.8726
   49CHL1  H21C 6087   0.286   1.095   9.179 -1.2766 -0.3828 -2.3779
   49CHL1   C22 6088   0.137   1.329   8.974  0.9780 -0.1719  0.1338
   49CHL1  H22A 6089   0.033   1.364   8.962  1.7081  1.5370 -1.8836
   49CHL1  H22B 6090   0.207   1.415   8.983  2.1785 -0.8322 -1.9760
   49CHL1   C23 6091   0.167   1.255   8.846 -0.4685 -0.2175 -0.7209
   49CHL1  H23A 6092   0.269   1.211   8.835 -0.3889 -0.6941  1.4877
   49CHL1  H23B 6093   0.095   1.170   8.833  0.1113 -0.5719 -1.7961
   49CHL1   C24 6094   0.154   1.343   8.720  0.2747 -0.2348 -0.4808
   49CHL1  H24A 6095   0.076   1.423   8.724 -0.8949 -0.9968 -3.8868
   49CHL1  H24B 6096   0.247   1.403   8.709  1.9704 -2.3822  1.3798
   49CHL1   C25 6097   0.129   1.262   8.588 -0.2921 -0.3727 -1.0543
   49CHL1   H25 6098   0.033   1.208   8.603 -2.1354  3.1339  1.0728
   49CHL1   C26 6099   0.102   1.358   8.471 -0.4676  0.2135 -1.1041
   49CHL1  H26A 6100  -0.007   1.355   8.449 -0.2425 -0.2013 -2.2199
   49CHL1  H26B 6101   0.143   1.461   8.480 -1.4504  0.8210 -3.0658
   49CHL1  H26C 6102   0.157   1.322   8.381  1.0648 -2.3615  0.7241
   49CHL1   C27 6103   0.240   1.165   8.566 -0.2203  0.2261  0.2009
   49CHL1  H27A 6104   0.239   1.075   8.632  1.5799 -0.6472 -0.8898
   49CHL1  H27B 6105   0.222   1.122   8.465  1.1648  1.1586 -0.4688
   49CHL1  H27C 6106   0.340   1.215   8.563 -0.0858 -0.0911 -1.3115
   50CHL1    C3 6107   2.513   4.366  10.162  0.2745  0.9435  0.0080
   50CHL1    H3 6108   2.417   4.317  10.133  0.6193  0.1948  0.0941
   50CHL1    O3 6109   2.504   4.408  10.297  0.2718  0.6850  0.0436
   50CHL1   H3' 6110   2.416   4.446  10.308 -0.5777 -1.6442  2.2788
   50CHL1    C4 6111   2.636   4.282  10.142 -0.0188  0.5909  0.7483
   50CHL1   H4A 6112   2.728   4.325  10.187 -0.7381  2.3156  0.6387
   50CHL1   H4B 6113   2.619   4.190  10.204 -2.0555  0.7408  0.4750
   50CHL1    C5 6114   2.654   4.235   9.994  0.5496 -0.4045  0.0490
   50CHL1    C6 6115   2.635   4.108   9.964  0.3137 -0.3342  0.1703
   50CHL1    H6 6116   2.621   4.027  10.038 -0.4061  0.2047  0.6345
   50CHL1    C7 6117   2.655   4.054   9.821 -0.0774  0.2175 -1.2606
   50CHL1   H7A 6118   2.708   3.957   9.826 -1.7673 -0.8617 -3.0923
   50CHL1   H7B 6119   2.555   4.030   9.780 -0.8243 -2.3057  1.6399
   50CHL1    C8 6120   2.722   4.152   9.728 -0.0104  0.3095 -0.3648
   50CHL1    H8 6121   2.825   4.158   9.768 -0.6992 -0.3978  1.6829
   50CHL1   C14 6122   2.702   4.108   9.582 -0.1760 -0.1440  0.4412
   50CHL1   H14 6123   2.592   4.113   9.568 -0.4001 -1.0607  1.6480
   50CHL1   C15 6124   2.733   3.966   9.534  0.3112 -0.0855 -0.4644
   50CHL1  H15A 6125   2.831   3.929   9.571  0.0169  0.1886  0.6164
   50CHL1  H15B 6126   2.658   3.887   9.554 -0.2891  0.5375 -0.2056
   50CHL1   C16 6127   2.764   3.976   9.379 -0.4798 -0.0278 -0.0947
   50CHL1  H16A 6128   2.870   3.951   9.356 -0.0757  0.4391  1.1437
   50CHL1  H16B 6129   2.703   3.901   9.325 -0.0333  0.3600 -1.1713
   50CHL1   C17 6130   2.742   4.125   9.352 -0.4837  0.0640 -0.3488
   50CHL1   H17 6131   2.632   4.129   9.334 -0.5586  1.0808  0.2329
   50CHL1   C13 6132   2.761   4.201   9.486 -0.3042 -0.1319 -0.0882
   50CHL1   C18 6133   2.913   4.208   9.519  0.0176 -0.2019 -0.1943
   50CHL1  H18A 6134   2.930   4.232   9.626 -2.9045 -2.4482  0.9270
   50CHL1  H18B 6135   2.967   4.116   9.488 -0.7329 -1.6396  2.4436
   50CHL1  H18C 6136   2.959   4.293   9.465  1.7149 -1.7489 -1.2697
   50CHL1   C12 6137   2.695   4.341   9.515  0.0862 -0.6282  0.6658
   50CHL1  H12A 6138   2.738   4.402   9.432  1.3885 -2.6562 -0.2178
   50CHL1  H12B 6139   2.586   4.329   9.502 -0.6214  3.6768  0.8954
   50CHL1   C11 6140   2.730   4.396   9.652 -0.5551 -0.8373  0.3386
   50CHL1  H11A 6141   2.837   4.417   9.670 -0.8630  0.3929  0.8971
   50CHL1  H11B 6142   2.673   4.490   9.671 -2.8081 -2.2365  0.8544
   50CHL1    C9 6143   2.670   4.299   9.750  0.0588  0.3412  0.5740
   50CHL1    H9 6144   2.563   4.300   9.721  0.4623  0.1517 -1.0482
   50CHL1   C10 6145   2.668   4.354   9.897 -0.0702 -0.5099 -0.2743
   50CHL1   C19 6146   2.800   4.428   9.936  0.0815  0.2958 -0.0499
   50CHL1  H19A 6147   2.792   4.465  10.041 -1.5053  0.1673 -0.1006
   50CHL1  H19B 6148   2.889   4.361   9.939 -0.3275 -0.4334 -2.3496
   50CHL1  H19C 6149   2.826   4.519   9.879 -4.3271  0.6767 -1.8223
   50CHL1    C1 6150   2.550   4.447   9.922 -0.3636 -0.1543  1.0164
   50CHL1   H1A 6151   2.556   4.533   9.852 -0.4229 -1.5140 -0.7140
   50CHL1   H1B 6152   2.460   4.391   9.891  0.1167 -0.2405 -0.2700
   50CHL1    C2 6153   2.526   4.493  10.068 -0.2270  0.8926  0.0243
   50CHL1   H2A 6154   2.436   4.557  10.081 -1.6464 -0.8401 -0.8028
   50CHL1   H2B 6155   2.611   4.555  10.103 -0.0848  0.0667  1.1903
   50CHL1   C20 6156   2.815   4.173   9.223 -0.1812  0.2334  0.0043
   50CHL1   H20 6157   2.922   4.194   9.245 -0.1839  0.0595  0.1932
   50CHL1   C21 6158   2.756   4.310   9.165 -0.1765 -0.0432 -0.1939
   50CHL1  H21A 6159   2.817   4.349   9.081  0.1582  0.7380  0.4056
   50CHL1  H21B 6160   2.744   4.380   9.250  0.0014 -2.3174  1.8184
   50CHL1  H21C 6161   2.658   4.289   9.117  0.9603 -0.8240 -2.3343
   50CHL1   C22 6162   2.822   4.060   9.114 -0.7037 -0.1388 -0.8530
   50CHL1  H22A 6163   2.869   4.124   9.036  1.2969  0.0706  0.4503
   50CHL1  H22B 6164   2.900   3.985   9.140  0.8665  1.6993  0.0316
   50CHL1   C23 6165   2.694   4.008   9.053  0.7121  0.8044  0.4605
   50CHL1  H23A 6166   2.633   3.953   9.128 -1.4778  0.9117 -1.1574
   50CHL1  H23B 6167   2.623   4.087   9.021  0.7097  0.5123 -0.2751
   50CHL1   C24 6168   2.719   3.923   8.927 -0.0404 -0.3671 -0.4215
   50CHL1  H24A 6169   2.748   3.982   8.838 -1.9446  0.1484 -0.7327
   50CHL1  H24B 6170   2.792   3.846   8.960  0.0279 -0.3828 -0.6100
   50CHL1   C25 6171   2.594   3.841   8.882  0.3432 -0.3560  0.1965
   50CHL1   H25 6172   2.548   3.796   8.973 -0.8168  1.4082  0.5409
   50CHL1   C26 6173   2.485   3.945   8.837  0.0779  0.4750  0.4248
   50CHL1  H26A 6174   2.462   4.008   8.926 -2.0302  0.9894 -0.4213
   50CHL1  H26B 6175   2.517   4.008   8.752  2.1463  0.0405  0.8290
   50CHL1  H26C 6176   2.392   3.892   8.808 -0.6053  1.4751  0.7472
   50CHL1   C27 6177   2.601   3.733   8.773 -0.5923 -0.0931 -0.6750
   50CHL1  H27A 6178   2.619   3.797   8.684 -4.9864  2.5962  0.0570
   50CHL1  H27B 6179   2.681   3.659   8.794 -1.5194 -0.9090  0.0498
   50CHL1  H27C 6180   2.504   3.679   8.763 -1.1135  0.7108 -0.0543
   51CHL1    C3 6181   4.785   5.284  10.232  0.6151 -0.2038 -0.4533
   51CHL1    H3 6182   4.779   5.394  10.249  1.6253 -0.2158  0.0915
   51CHL1    O3 6183   4.766   5.216  10.354 -0.2897  0.3289  0.3475
   51CHL1   H3' 6184   4.799   5.127  10.337  3.1469  1.3767  0.7378
   51CHL1    C4 6185   4.684   5.232  10.126  0.2076  0.0338  0.0150
   51CHL1   H4A 6186   4.698   5.122  10.116  0.7304 -0.0551  1.4753
   51CHL1   H4B 6187   4.583   5.245  10.171  0.0862  0.5451 -0.3891
   51CHL1    C5 6188   4.702   5.299   9.992 -0.0151  0.0986  0.0537
   51CHL1    C6 6189   4.605   5.367   9.931 -0.2937  0.2766  0.4100
   51CHL1    H6 6190   4.503   5.370   9.972 -0.6704  2.0445 -0.5517
   51CHL1    C7 6191   4.610   5.406   9.789 -0.1896 -0.5241  0.6536
   51CHL1   H7A 6192   4.518   5.370   9.737  0.3220  0.8064 -1.2960
   51CHL1   H7B 6193   4.608   5.517   9.786 -0.7085 -0.5433 -0.1434
   51CHL1    C8 6194   4.735   5.347   9.716  0.3557 -0.2431  0.2831
   51CHL1    H8 6195   4.704   5.242   9.702 -0.6024  0.3610 -3.1884
   51CHL1   C14 6196   4.761   5.420   9.581  0.0517 -0.0595  0.5516
   51CHL1   H14 6197   4.797   5.521   9.609  0.4491 -0.4287  1.4253
   51CHL1   C15 6198   4.643   5.440   9.484  0.0471  0.4147 -0.6601
   51CHL1  H15A 6199   4.585   5.346   9.484  1.7269 -0.6674 -0.2931
   51CHL1  H15B 6200   4.582   5.528   9.513  1.4061  1.0734  0.3119
   51CHL1   C16 6201   4.712   5.467   9.349 -0.2225 -0.4439 -0.2912
   51CHL1  H16A 6202   4.679   5.404   9.264  0.2894  1.4939 -1.9959
   51CHL1  H16B 6203   4.696   5.572   9.316  3.4027 -0.7318 -3.8683
   51CHL1   C17 6204   4.865   5.436   9.365 -0.2136  0.2673 -0.0499
   51CHL1   H17 6205   4.918   5.530   9.393 -0.4641  0.2058  0.6589
   51CHL1   C13 6206   4.879   5.361   9.500  0.1911 -0.0242 -0.6609
   51CHL1   C18 6207   4.848   5.209   9.479 -0.0045 -0.3306 -0.3820
   51CHL1  H18A 6208   4.936   5.165   9.426 -0.0966  0.7891 -1.5146
   51CHL1  H18B 6209   4.834   5.151   9.572 -1.8213  0.7838  0.0743
   51CHL1  H18C 6210   4.759   5.190   9.415 -0.0218  0.3221 -0.5602
   51CHL1   C12 6211   5.007   5.385   9.591 -0.4363  0.0077 -1.0632
   51CHL1  H12A 6212   5.104   5.353   9.546 -0.0034  0.5970 -0.5701
   51CHL1  H12B 6213   5.016   5.496   9.601 -0.8287  0.0099 -0.7424
   51CHL1   C11 6214   4.999   5.317   9.731  0.3573  0.9317  0.4680
   51CHL1  H11A 6215   5.019   5.211   9.704  0.5444  1.2363 -0.6269
   51CHL1  H11B 6216   5.086   5.353   9.789  2.7114 -1.4810 -1.3186
   51CHL1    C9 6217   4.863   5.359   9.802  0.5218 -0.0881 -0.7832
   51CHL1    H9 6218   4.867   5.460   9.847 -1.3053 -0.8518  1.3060
   51CHL1   C10 6219   4.841   5.265   9.936  0.6360 -0.0005  0.0202
   51CHL1   C19 6220   4.839   5.107   9.897 -0.6562  0.0970 -0.6135
   51CHL1  H19A 6221   4.932   5.081   9.841  0.4309 -2.2706  2.0322
   51CHL1  H19B 6222   4.847   5.044   9.988  0.4001 -0.7705 -1.2718
   51CHL1  H19C 6223   4.752   5.071   9.837  0.9432 -2.1754 -1.7398
   51CHL1    C1 6224   4.946   5.297  10.038 -0.0938  0.3380 -0.1237
   51CHL1   H1A 6225   5.044   5.258  10.000  0.2168 -0.1531  1.1426
   51CHL1   H1B 6226   4.947   5.407  10.050  1.0229  0.5664 -1.8069
   51CHL1    C2 6227   4.934   5.260  10.189  0.3748 -0.0198  0.0301
   51CHL1   H2A 6228   5.015   5.303  10.252 -1.1533 -0.8573  2.6942
   51CHL1   H2B 6229   4.941   5.149  10.192 -1.9660 -0.1954  0.6780
   51CHL1   C20 6230   4.937   5.381   9.241  0.0160  0.6875  0.1137
   51CHL1   H20 6231   4.899   5.277   9.227 -1.4604  0.9361  1.8813
   51CHL1   C21 6232   5.088   5.367   9.263 -0.5593  0.4633 -0.0451
   51CHL1  H21A 6233   5.119   5.452   9.327 -1.6304  2.6774 -2.3076
   51CHL1  H21B 6234   5.149   5.346   9.173  0.8868 -1.4264  1.2997
   51CHL1  H21C 6235   5.111   5.277   9.324  0.0503  1.7968  1.7587
   51CHL1   C22 6236   4.907   5.460   9.115 -0.6774  0.2657 -0.1540
   51CHL1  H22A 6237   4.799   5.487   9.111 -0.6519  0.3492 -0.3327
   51CHL1  H22B 6238   4.958   5.558   9.123 -1.3620  0.6500 -0.4190
   51CHL1   C23 6239   4.939   5.389   8.987  0.1443 -0.0670  0.5769
   51CHL1  H23A 6240   5.049   5.379   8.975  0.5415  0.1475  3.3792
   51CHL1  H23B 6241   4.885   5.292   8.984 -2.7589  1.3784  1.8174
   51CHL1   C24 6242   4.880   5.473   8.868 -0.1589  0.4658  0.2446
   51CHL1  H24A 6243   4.778   5.505   8.898  0.6856  2.2808  1.3728
   51CHL1  H24B 6244   4.941   5.566   8.867  1.1819 -0.3761 -0.3790
   51CHL1   C25 6245   4.886   5.409   8.725 -0.0717  0.3566  0.5867
   51CHL1   H25 6246   4.872   5.492   8.652  0.1379 -0.3181 -0.2325
   51CHL1   C26 6247   5.031   5.361   8.689  0.2538 -0.1143 -0.2583
   51CHL1  H26A 6248   5.104   5.440   8.716  1.2158 -0.7235 -1.0244
   51CHL1  H26B 6249   5.056   5.269   8.745  1.9760  0.4940  0.0334
   51CHL1  H26C 6250   5.049   5.335   8.582 -0.9457 -0.1135 -0.4715
   51CHL1   C27 6251   4.788   5.299   8.693 -0.5003  0.5980  0.1327
   51CHL1  H27A 6252   4.779   5.280   8.584  3.0644 -3.4168  0.2374
   51CHL1  H27B 6253   4.827   5.202   8.730 -0.3969  0.5580 -0.0800
   51CHL1  H27C 6254   4.695   5.316   8.751 -0.3449  0.4139  0.4371
   52CHL1    C3 6255   0.647   4.194  10.035  0.2000  0.0201  1.4992
   52CHL1    H3 6256   0.542   4.227  10.022  0.4256  0.3468  0.3600
   52CHL1    O3 6257   0.691   4.205  10.169  0.0452  0.1284 -0.4378
   52CHL1   H3' 6258   0.658   4.289  10.202  1.2622  0.2152  0.6407
   52CHL1    C4 6259   0.656   4.050   9.988 -0.5678  0.1958  0.0282
   52CHL1   H4A 6260   0.759   4.022  10.018  0.0487  1.6901 -0.6030
   52CHL1   H4B 6261   0.589   3.981  10.044 -1.0154 -3.1345 -4.1267
   52CHL1    C5 6262   0.633   4.028   9.838  0.0149  0.0786 -0.1382
   52CHL1    C6 6263   0.544   3.939   9.791 -0.1973  0.4943 -0.3906
   52CHL1    H6 6264   0.491   3.882   9.869 -0.1511  0.1224 -0.6328
   52CHL1    C7 6265   0.535   3.906   9.645  0.4863 -0.0719  0.0763
   52CHL1   H7A 6266   0.537   3.797   9.626  0.6273  0.3587 -2.6934
   52CHL1   H7B 6267   0.436   3.951   9.619  1.0311  1.0491 -0.1175
   52CHL1    C8 6268   0.637   3.974   9.549  0.0699  0.7898 -0.3421
   52CHL1    H8 6269   0.729   3.912   9.544  0.8395  1.9744 -1.7185
   52CHL1   C14 6270   0.572   3.973   9.411  0.3361  0.4837  0.4515
   52CHL1   H14 6271   0.485   4.042   9.413  0.2929  0.6681 -2.9103
   52CHL1   C15 6272   0.520   3.846   9.339 -0.4491  0.4425  0.0511
   52CHL1  H15A 6273   0.598   3.769   9.354 -1.7076 -0.7358  0.7463
   52CHL1  H15B 6274   0.428   3.818   9.393 -0.8640  1.2864 -0.1982
   52CHL1   C16 6275   0.506   3.886   9.190  0.2175 -0.3718 -0.0931
   52CHL1  H16A 6276   0.563   3.812   9.132  1.3526 -1.0345  1.7899
   52CHL1  H16B 6277   0.401   3.903   9.155  0.5795  1.5567 -0.3611
   52CHL1   C17 6278   0.576   4.025   9.183 -0.1117 -0.5394  0.5623
   52CHL1   H17 6279   0.485   4.084   9.210  1.0559  0.2377  3.0789
   52CHL1   C13 6280   0.661   4.044   9.308 -0.0497  0.1423 -1.0515
   52CHL1   C18 6281   0.796   3.962   9.296  0.0142 -0.3030  0.0574
   52CHL1  H18A 6282   0.794   3.859   9.254  0.7791 -0.6558  0.8464
   52CHL1  H18B 6283   0.872   4.015   9.234  2.5099 -1.3569  2.0479
   52CHL1  H18C 6284   0.853   3.951   9.390 -0.6636 -1.5691  0.3358
   52CHL1   C12 6285   0.687   4.192   9.359 -0.2665  0.5988 -0.5187
   52CHL1  H12A 6286   0.758   4.253   9.299  0.9104  2.5994  2.6333
   52CHL1  H12B 6287   0.586   4.238   9.363 -1.0818 -1.1956  0.9239
   52CHL1   C11 6288   0.749   4.193   9.498 -1.1752  0.1460  0.2966
   52CHL1  H11A 6289   0.855   4.163   9.489 -1.3092 -0.2420  0.0025
   52CHL1  H11B 6290   0.749   4.300   9.529  2.7083  0.6962 -1.0593
   52CHL1    C9 6291   0.666   4.120   9.600 -0.0241  0.1206 -0.2561
   52CHL1    H9 6292   0.566   4.168   9.597 -1.2524 -2.2774 -2.4304
   52CHL1   C10 6293   0.714   4.122   9.748  0.2381 -0.1391 -0.2830
   52CHL1   C19 6294   0.866   4.083   9.742  0.3806 -0.7549  0.3904
   52CHL1  H19A 6295   0.892   4.050   9.845 -0.0632 -0.5701  0.5593
   52CHL1  H19B 6296   0.873   3.994   9.676 -0.7230  0.1564 -1.0252
   52CHL1  H19C 6297   0.917   4.170   9.695 -2.7022  1.0131  0.0950
   52CHL1    C1 6298   0.700   4.264   9.803  0.7952 -0.0633 -0.3290
   52CHL1   H1A 6299   0.757   4.339   9.744  1.3681  0.8626  1.3421
   52CHL1   H1B 6300   0.593   4.292   9.794  1.0894  0.9176 -0.9713
   52CHL1    C2 6301   0.740   4.285   9.948  0.1319  0.0389 -0.3149
   52CHL1   H2A 6302   0.750   4.393   9.969  1.8922  0.3391 -2.4623
   52CHL1   H2B 6303   0.844   4.248   9.957  1.1751  3.0268  1.4432
   52CHL1   C20 6304   0.626   4.064   9.039  0.5180  0.3077 -0.1255
   52CHL1   H20 6305   0.690   4.154   9.047  0.4887  0.2910  0.3185
   52CHL1   C21 6306   0.506   4.100   8.948 -1.1398  0.6317 -0.5672
   52CHL1  H21A 6307   0.545   4.141   8.852  0.4159  0.2821 -0.1020
   52CHL1  H21B 6308   0.453   4.191   8.983  1.5943  1.7609  0.8986
   52CHL1  H21C 6309   0.426   4.023   8.947 -1.3208  0.7669  1.0547
   52CHL1   C22 6310   0.701   3.948   8.971  0.0494  0.3435  0.3397
   52CHL1  H22A 6311   0.754   3.888   9.048  0.9212  0.2869 -0.2932
   52CHL1  H22B 6312   0.630   3.884   8.913  0.0757  0.2567  0.4035
   52CHL1   C23 6313   0.811   4.000   8.875 -0.0799  0.1014  0.1838
   52CHL1  H23A 6314   0.835   3.931   8.791  0.9683  0.0251  0.5322
   52CHL1  H23B 6315   0.781   4.094   8.825  1.3813  0.5519  0.1026
   52CHL1   C24 6316   0.942   4.036   8.944  0.0123 -0.5921 -0.2458
   52CHL1  H24A 6317   0.929   4.121   9.014 -0.2746 -0.1228 -0.8599
   52CHL1  H24B 6318   0.973   3.952   9.010  2.1805  1.3015  1.2976
   52CHL1   C25 6319   1.065   4.071   8.850 -0.4529  0.3357  0.3411
   52CHL1   H25 6320   1.092   3.976   8.798 -2.0301  0.2887 -0.4348
   52CHL1   C26 6321   1.035   4.169   8.733 -0.1936 -0.0588  0.2986
   52CHL1  H26A 6322   0.943   4.138   8.678 -0.9849  4.9761 -1.7753
   52CHL1  H26B 6323   1.021   4.273   8.769  2.2728  0.3150  0.3474
   52CHL1  H26C 6324   1.117   4.167   8.658 -1.5069 -0.6006 -1.1955
   52CHL1   C27 6325   1.190   4.126   8.918 -0.5515  0.7789 -0.2263
   52CHL1  H27A 6326   1.245   4.042   8.965  1.5532  2.3502  0.2701
   52CHL1  H27B 6327   1.254   4.177   8.843 -1.5821  2.1987 -0.1708
   52CHL1  H27C 6328   1.167   4.199   8.998  0.1758  0.8679 -0.0848
   53CHL1    C3 6329   1.564   5.265  10.051  0.2747  0.2561 -0.9487
   53CHL1    H3 6330   1.647   5.198  10.082 -1.4887 -1.4392  0.3608
   53CHL1    O3 6331   1.489   5.291  10.169  0.1151 -0.5364 -0.0697
   53CHL1   H3' 6332   1.404   5.327  10.143 -0.7711 -0.7480  2.3160
   53CHL1    C4 6333   1.619   5.395   9.993  0.6965 -0.5726  0.1813
   53CHL1   H4A 6334   1.527   5.454   9.970  0.5961 -1.1484 -0.9376
   53CHL1   H4B 6335   1.678   5.441  10.076 -2.1909  3.3498  0.3629
   53CHL1    C5 6336   1.685   5.385   9.857 -0.5880 -0.7733  0.3035
   53CHL1    C6 6337   1.807   5.435   9.840  0.1675  0.5985  0.4332
   53CHL1    H6 6338   1.875   5.466   9.920  4.4326 -0.5923 -2.3669
   53CHL1    C7 6339   1.876   5.424   9.702  0.0372  0.0005 -0.0904
   53CHL1   H7A 6340   1.926   5.517   9.668  0.1125  0.2388  0.6503
   53CHL1   H7B 6341   1.952   5.344   9.711  1.8645  1.5209 -1.3427
   53CHL1    C8 6342   1.781   5.377   9.580 -0.6588  0.1223  0.0932
   53CHL1    H8 6343   1.736   5.473   9.547  0.0848  0.7653  0.9186
   53CHL1   C14 6344   1.853   5.308   9.463  0.0568 -0.1751  0.4350
   53CHL1   H14 6345   1.880   5.205   9.493 -1.2416 -1.2953 -1.9449
   53CHL1   C15 6346   1.982   5.372   9.410 -0.2636  0.1460  0.0867
   53CHL1  H15A 6347   1.976   5.482   9.393  0.1686  0.2350  0.5088
   53CHL1  H15B 6348   2.076   5.359   9.468  2.8408 -2.9983 -4.8494
   53CHL1   C16 6349   2.007   5.310   9.272 -0.1494 -0.0632  0.5516
   53CHL1  H16A 6350   2.012   5.392   9.197  5.0310  0.2430  0.8708
   53CHL1  H16B 6351   2.097   5.244   9.274 -0.0980  0.0188  1.2413
   53CHL1   C17 6352   1.875   5.228   9.241 -0.2237 -0.0310  1.0010
   53CHL1   H17 6353   1.900   5.125   9.274  0.5888 -1.0902 -2.5196
   53CHL1   C13 6354   1.765   5.278   9.336  0.2763  0.2680 -0.1627
   53CHL1   C18 6355   1.693   5.404   9.278 -0.1433 -0.6155 -0.3528
   53CHL1  H18A 6356   1.658   5.372   9.178  0.3353 -0.4216 -0.5839
   53CHL1  H18B 6357   1.622   5.456   9.346  0.6485  2.5597 -1.7851
   53CHL1  H18C 6358   1.778   5.475   9.267  0.0237 -0.6777  0.4248
   53CHL1   C12 6359   1.656   5.180   9.385 -0.1515 -0.3894  0.0800
   53CHL1  H12A 6360   1.580   5.156   9.307 -2.1001 -0.3074  1.8554
   53CHL1  H12B 6361   1.706   5.086   9.416 -1.4739 -1.2049 -0.1399
   53CHL1   C11 6362   1.576   5.238   9.505  0.1251 -0.2251 -0.3818
   53CHL1  H11A 6363   1.509   5.321   9.474  0.5161  0.5016  0.6442
   53CHL1  H11B 6364   1.509   5.153   9.533 -0.3273 -0.4509 -2.0349
   53CHL1    C9 6365   1.668   5.280   9.620  0.9395  0.0720 -0.3510
   53CHL1    H9 6366   1.728   5.191   9.648 -0.6974 -1.1654 -0.6520
   53CHL1   C10 6367   1.594   5.320   9.750 -0.6120  0.9145  0.2694
   53CHL1   C19 6368   1.478   5.407   9.708  0.0263 -1.3546  0.0157
   53CHL1  H19A 6369   1.423   5.444   9.797  2.8941 -2.0577  2.2159
   53CHL1  H19B 6370   1.514   5.495   9.650 -2.2108 -1.5542 -1.8552
   53CHL1  H19C 6371   1.401   5.362   9.641 -0.5107 -0.7374  0.2089
   53CHL1    C1 6372   1.545   5.185   9.810 -0.1292  0.6449 -0.4923
   53CHL1   H1A 6373   1.486   5.127   9.735 -0.9575  1.5032 -0.5220
   53CHL1   H1B 6374   1.640   5.130   9.828 -1.3224 -1.6129 -0.7023
   53CHL1    C2 6375   1.469   5.187   9.948  0.4406 -0.7447  0.3125
   53CHL1   H2A 6376   1.431   5.091   9.989  0.8066 -1.0323 -0.0144
   53CHL1   H2B 6377   1.379   5.248   9.926  1.8032  0.6359 -1.7842
   53CHL1   C20 6378   1.857   5.214   9.087 -0.8604 -0.7750  0.4253
   53CHL1   H20 6379   1.788   5.292   9.049  1.7569  0.8887 -1.2323
   53CHL1   C21 6380   1.784   5.080   9.069 -0.0196 -0.4304  0.3181
   53CHL1  H21A 6381   1.764   5.081   8.959 -0.3900 -0.3795  0.3849
   53CHL1  H21B 6382   1.685   5.089   9.118  0.3172  1.3574  0.7645
   53CHL1  H21C 6383   1.841   4.988   9.091 -0.2440 -1.6522 -3.4035
   53CHL1   C22 6384   1.987   5.221   9.001  0.1642 -0.8194  0.8512
   53CHL1  H22A 6385   2.063   5.300   9.019  0.8283 -1.2205 -0.1073
   53CHL1  H22B 6386   2.040   5.126   9.025  0.2827 -1.1896 -0.8016
   53CHL1   C23 6387   1.974   5.238   8.848 -0.5768  0.6101 -0.3935
   53CHL1  H23A 6388   1.949   5.139   8.804  0.9666 -0.5446  1.1683
   53CHL1  H23B 6389   1.905   5.316   8.811  1.0506  1.3722 -1.9979
   53CHL1   C24 6390   2.119   5.265   8.794 -0.3504  0.2530 -0.2054
   53CHL1  H24A 6391   2.124   5.376   8.802 -0.4102  0.2682 -0.3816
   53CHL1  H24B 6392   2.192   5.215   8.861 -0.5631 -0.5102 -0.5289
   53CHL1   C25 6393   2.155   5.229   8.650  0.2653  0.8919  0.0444
   53CHL1   H25 6394   2.059   5.251   8.598 -0.1205  1.1686  0.8628
   53CHL1   C26 6395   2.259   5.322   8.599 -0.8951 -0.8302 -0.2157
   53CHL1  H26A 6396   2.347   5.310   8.666 -0.5751 -1.7609 -0.7854
   53CHL1  H26B 6397   2.287   5.290   8.496  2.7292  0.6403  0.1349
   53CHL1  H26C 6398   2.209   5.421   8.596 -1.5023 -1.1355 -0.3553
   53CHL1   C27 6399   2.189   5.073   8.632  0.2137 -0.3932 -0.1379
   53CHL1  H27A 6400   2.216   5.062   8.525  2.2045 -0.6635  0.3495
   53CHL1  H27B 6401   2.279   5.051   8.693  1.2336  0.4361 -1.2872
   53CHL1  H27C 6402   2.093   5.019   8.649 -2.1191  2.4460 -2.8624
   54CHL1    C3 6403   2.622   4.951  10.147 -1.0160 -0.5749 -0.2299
   54CHL1    H3 6404   2.699   4.872  10.164 -0.9642 -0.4207  0.2473
   54CHL1    O3 6405   2.564   4.985  10.268  0.9309 -0.2892  0.0766
   54CHL1   H3' 6406   2.535   4.904  10.312  0.1620  0.9562  2.0072
   54CHL1    C4 6407   2.699   5.069  10.073  0.0923  0.4565 -0.1319
   54CHL1   H4A 6408   2.630   5.155  10.058  0.3746  0.4632 -1.4504
   54CHL1   H4B 6409   2.779   5.106  10.141 -0.5955  1.3367  0.2213
   54CHL1    C5 6410   2.764   5.023   9.944  0.2801 -0.3887 -0.5275
   54CHL1    C6 6411   2.897   5.040   9.919  0.7646 -0.0618 -0.6979
   54CHL1    H6 6412   2.966   5.087   9.991 -0.3839 -0.2901  0.6088
   54CHL1    C7 6413   2.956   5.010   9.786 -0.2887  0.1281 -0.0343
   54CHL1   H7A 6414   3.034   5.080   9.748  0.1894  0.3797  1.3574
   54CHL1   H7B 6415   3.021   4.923   9.808 -0.0480  1.1912  4.5256
   54CHL1    C8 6416   2.851   4.977   9.673  0.5049  0.5587  0.4235
   54CHL1    H8 6417   2.806   5.075   9.646 -1.2102  0.0557  1.3475
   54CHL1   C14 6418   2.911   4.913   9.552  0.2302 -0.1815 -0.6062
   54CHL1   H14 6419   2.958   4.816   9.578 -0.3999 -0.0845  1.0307
   54CHL1   C15 6420   3.017   5.000   9.489 -0.0508  0.3960 -0.0309
   54CHL1  H15A 6421   3.002   5.109   9.472  2.0623  0.6824 -0.2831
   54CHL1  H15B 6422   3.111   4.989   9.547 -1.3591 -0.0009  2.1639
   54CHL1   C16 6423   3.027   4.942   9.349 -0.3578  0.0760  0.4655
   54CHL1  H16A 6424   2.999   5.028   9.285  0.9634  0.2852  0.1389
   54CHL1  H16B 6425   3.128   4.908   9.318 -0.8089 -1.5725  0.7351
   54CHL1   C17 6426   2.913   4.842   9.324 -0.5690  0.0744 -0.3993
   54CHL1   H17 6427   2.960   4.744   9.346  0.0284  0.3102 -0.5978
   54CHL1   C13 6428   2.813   4.873   9.440 -0.4084 -0.6277  0.0992
   54CHL1   C18 6429   2.721   4.995   9.402 -0.0546 -0.2178  0.2916
   54CHL1  H18A 6430   2.639   4.966   9.334  0.6672  0.4303 -0.8970
   54CHL1  H18B 6431   2.662   5.036   9.487 -0.3138 -0.9429  0.4619
   54CHL1  H18C 6432   2.770   5.082   9.354  0.3120 -1.2402 -1.2454
   54CHL1   C12 6433   2.739   4.755   9.501 -0.1241 -0.6410  0.1780
   54CHL1  H12A 6434   2.670   4.704   9.431 -0.6348 -1.2982  1.1394
   54CHL1  H12B 6435   2.811   4.674   9.526 -1.4449 -2.7298 -2.3368
   54CHL1   C11 6436   2.660   4.810   9.626  0.2496 -0.0962 -0.2592
   54CHL1  H11A 6437   2.572   4.869   9.594 -0.7315 -1.5028 -0.2761
   54CHL1  H11B 6438   2.618   4.716   9.669 -1.5963  0.0072 -1.7046
   54CHL1    C9 6439   2.749   4.888   9.729  0.4946  0.3368 -0.0853
   54CHL1    H9 6440   2.809   4.802   9.768 -0.0600  0.4965  1.1607
   54CHL1   C10 6441   2.670   4.953   9.845  0.5979 -0.3978  0.0134
   54CHL1   C19 6442   2.569   5.066   9.800 -0.0427  0.2956 -0.1748
   54CHL1  H19A 6443   2.517   5.100   9.892 -0.0939 -0.2634  0.0032
   54CHL1  H19B 6444   2.621   5.157   9.763  0.8892  0.1498  0.7136
   54CHL1  H19C 6445   2.479   5.033   9.744 -2.0509  0.1892  2.8787
   54CHL1    C1 6446   2.585   4.845   9.923 -0.3044 -0.4188  0.4397
   54CHL1   H1A 6447   2.514   4.812   9.845 -0.1084 -3.1096  1.2994
   54CHL1   H1B 6448   2.648   4.756   9.945 -1.3153 -1.5713 -1.1676
   54CHL1    C2 6449   2.518   4.890  10.049 -0.0659 -0.5932  0.6093
   54CHL1   H2A 6450   2.464   4.809  10.102  1.1112 -1.6742  0.1931
   54CHL1   H2B 6451   2.444   4.967  10.019  1.2963  0.0710 -1.2259
   54CHL1   C20 6452   2.853   4.848   9.181 -0.5097  0.3121  0.2218
   54CHL1   H20 6453   2.808   4.948   9.165  1.3242  1.1747  0.2426
   54CHL1   C21 6454   2.750   4.729   9.156 -0.5570 -0.3894 -0.1792
   54CHL1  H21A 6455   2.714   4.738   9.051 -0.7017  1.2239 -0.0181
   54CHL1  H21B 6456   2.662   4.745   9.222 -0.6950 -0.4816 -0.3381
   54CHL1  H21C 6457   2.795   4.628   9.168 -0.1388 -0.1112  0.6278
   54CHL1   C22 6458   2.971   4.842   9.077  0.3872 -0.2087 -0.5390
   54CHL1  H22A 6459   3.035   4.932   9.095 -0.8516  0.6474 -0.3049
   54CHL1  H22B 6460   3.029   4.748   9.080 -0.2887 -0.6031  1.0347
   54CHL1   C23 6461   2.920   4.857   8.930  0.3709 -0.1171 -0.5323
   54CHL1  H23A 6462   2.862   4.771   8.889  0.1371 -0.2962  0.1710
   54CHL1  H23B 6463   2.862   4.951   8.924 -0.1628 -0.5142 -3.3982
   54CHL1   C24 6464   3.040   4.874   8.831  0.6796  0.2175  0.8193
   54CHL1  H24A 6465   3.083   4.972   8.859  1.7382 -0.4889  1.7992
   54CHL1  H24B 6466   3.106   4.786   8.852 -0.5407 -0.8827  0.1771
   54CHL1   C25 6467   3.001   4.874   8.683 -0.3775 -0.1704 -0.0727
   54CHL1   H25 6468   2.907   4.932   8.672  0.2674  0.6291 -1.8456
   54CHL1   C26 6469   3.106   4.938   8.579  0.0257  0.0271 -0.5931
   54CHL1  H26A 6470   3.110   5.048   8.589 -1.6621  0.0012  0.6878
   54CHL1  H26B 6471   3.204   4.893   8.605 -0.5484 -0.8652  0.0817
   54CHL1  H26C 6472   3.087   4.920   8.471  0.5925  0.5552 -0.7841
   54CHL1   C27 6473   2.962   4.734   8.628 -0.0312 -0.4106 -0.2736
   54CHL1  H27A 6474   3.045   4.659   8.627 -0.9242 -1.5122  1.8953
   54CHL1  H27B 6475   2.875   4.686   8.678 -0.2598 -0.5950 -0.8375
   54CHL1  H27C 6476   2.929   4.749   8.523 -2.7418  0.2467  0.5921
   55CHL1    C3 6477   3.855   3.575  10.261  0.3209  0.0621  0.2943
   55CHL1    H3 6478   3.888   3.680  10.272 -0.3245  0.2255  0.7547
   55CHL1    O3 6479   3.838   3.524  10.389  0.0760  0.0850  0.2814
   55CHL1   H3' 6480   3.783   3.592  10.429 -1.0606  0.0457 -1.1229
   55CHL1    C4 6481   3.730   3.573  10.172 -0.0629 -0.3839  0.5637
   55CHL1   H4A 6482   3.681   3.474  10.183 -1.0793 -0.0466 -0.6484
   55CHL1   H4B 6483   3.672   3.650  10.226  1.5228 -0.1602  2.0226
   55CHL1    C5 6484   3.748   3.613  10.029  0.4637 -0.1000  0.2180
   55CHL1    C6 6485   3.666   3.706   9.974  0.4365  0.0178 -0.1786
   55CHL1    H6 6486   3.594   3.758  10.039  0.8810  0.4078  0.0055
   55CHL1    C7 6487   3.670   3.739   9.829 -0.8561 -0.3875  0.0375
   55CHL1   H7A 6488   3.574   3.749   9.775  0.2212  1.2104 -1.6931
   55CHL1   H7B 6489   3.716   3.840   9.818 -1.4728 -0.2060 -1.0474
   55CHL1    C8 6490   3.755   3.638   9.750  0.2366  0.2603  0.1463
   55CHL1    H8 6491   3.690   3.549   9.731  0.8565 -0.6545  2.0407
   55CHL1   C14 6492   3.795   3.702   9.617 -0.1893  0.5816 -0.2891
   55CHL1   H14 6493   3.864   3.780   9.654  0.4137 -0.5077  0.9741
   55CHL1   C15 6494   3.691   3.778   9.527 -0.1322 -0.1081 -0.6238
   55CHL1  H15A 6495   3.602   3.719   9.494 -0.8669  0.7163 -0.1512
   55CHL1  H15B 6496   3.650   3.870   9.574 -1.1733 -1.5759  1.5308
   55CHL1   C16 6497   3.767   3.811   9.401 -0.4683  0.4870  0.1051
   55CHL1  H16A 6498   3.705   3.801   9.309  0.8686 -0.8198 -0.6965
   55CHL1  H16B 6499   3.797   3.918   9.405 -2.8958  1.2254  0.2025
   55CHL1   C17 6500   3.896   3.723   9.402  0.9282  0.8865 -0.0119
   55CHL1   H17 6501   3.966   3.799   9.442  2.1656  0.2601 -0.9345
   55CHL1   C13 6502   3.875   3.623   9.517  0.8254  0.8256 -0.3027
   55CHL1   C18 6503   3.782   3.513   9.469 -0.2072  0.7145  0.7142
   55CHL1  H18A 6504   3.832   3.441   9.400  0.0372 -1.0628  2.6332
   55CHL1  H18B 6505   3.765   3.448   9.557 -1.3489  0.6279  0.4453
   55CHL1  H18C 6506   3.679   3.531   9.432  0.9709  1.9662 -2.3067
   55CHL1   C12 6507   4.000   3.579   9.597 -0.2305  0.2443 -0.1984
   55CHL1  H12A 6508   4.059   3.509   9.534  3.0703  0.1867  2.6937
   55CHL1  H12B 6509   4.055   3.672   9.619 -2.2074  1.6379 -0.8502
   55CHL1   C11 6510   3.973   3.507   9.733  0.0917  0.2622  0.5073
   55CHL1  H11A 6511   3.930   3.411   9.697 -0.3565  0.5302  0.3221
   55CHL1  H11B 6512   4.068   3.489   9.789 -0.7841 -0.2637  1.8932
   55CHL1    C9 6513   3.877   3.591   9.826  0.2688  0.4408  0.2387
   55CHL1    H9 6514   3.928   3.686   9.851 -2.1253  1.9494 -0.3124
   55CHL1   C10 6515   3.854   3.525   9.957  0.3891  0.2529 -0.2905
   55CHL1   C19 6516   3.785   3.387   9.921 -0.2477  0.2232 -0.0970
   55CHL1  H19A 6517   3.697   3.398   9.853  0.3848 -0.7025 -1.0876
   55CHL1  H19B 6518   3.863   3.317   9.884 -1.1680 -1.1777  0.5425
   55CHL1  H19C 6519   3.741   3.339  10.011 -0.0125 -1.7445 -0.9940
   55CHL1    C1 6520   3.981   3.524  10.045 -0.2964  0.0126  0.5800
   55CHL1   H1A 6521   4.053   3.448  10.010 -2.4477 -1.3008 -1.2320
   55CHL1   H1B 6522   4.021   3.628  10.041 -3.1447  1.3168  2.5466
   55CHL1    C2 6523   3.959   3.485  10.192  0.2018 -0.4151  0.0576
   55CHL1   H2A 6524   4.054   3.487  10.249 -0.3898 -1.5729  1.1349
   55CHL1   H2B 6525   3.916   3.383  10.197 -0.5604 -0.0517  1.5516
   55CHL1   C20 6526   3.935   3.664   9.264 -0.3102 -0.1477 -0.5032
   55CHL1   H20 6527   3.845   3.607   9.230 -0.8779  1.4541 -1.8254
   55CHL1   C21 6528   4.056   3.575   9.274 -0.2173  0.1328  0.1716
   55CHL1  H21A 6529   4.132   3.625   9.338 -1.4733  3.9884 -1.0990
   55CHL1  H21B 6530   4.105   3.550   9.178 -2.7269 -1.1586 -0.8635
   55CHL1  H21C 6531   4.051   3.475   9.323  1.0936  1.2465  2.7746
   55CHL1   C22 6532   3.963   3.773   9.160 -0.2181 -0.0516  0.0564
   55CHL1  H22A 6533   3.891   3.857   9.166  0.8072  0.8104  0.7024
   55CHL1  H22B 6534   4.064   3.809   9.192 -0.5937 -0.4049  1.6944
   55CHL1   C23 6535   3.976   3.728   9.008 -0.1704 -0.0709 -0.0293
   55CHL1  H23A 6536   4.073   3.676   8.997  0.2794  0.4763  1.1190
   55CHL1  H23B 6537   3.895   3.654   8.990  1.4212 -1.2698 -2.9593
   55CHL1   C24 6538   3.947   3.838   8.900  0.2342 -0.3111  0.1967
   55CHL1  H24A 6539   3.847   3.880   8.924  1.1374  1.3359  1.2722
   55CHL1  H24B 6540   4.025   3.916   8.910  0.5905 -0.2153 -2.6266
   55CHL1   C25 6541   3.953   3.788   8.752  0.1749 -0.1128 -0.2032
   55CHL1   H25 6542   3.894   3.695   8.743 -2.3000  1.5249 -3.2454
   55CHL1   C26 6543   3.844   3.865   8.659  0.4604  0.5823 -0.2373
   55CHL1  H26A 6544   3.876   3.958   8.607  1.3274 -0.4518 -1.6444
   55CHL1  H26B 6545   3.831   3.793   8.575 -0.8543  0.2553  0.2301
   55CHL1  H26C 6546   3.745   3.881   8.706  2.2729  1.2962  3.6825
   55CHL1   C27 6547   4.089   3.781   8.683  0.0984  0.7908  0.1386
   55CHL1  H27A 6548   4.140   3.878   8.700  0.4896  0.2696  2.1977
   55CHL1  H27B 6549   4.146   3.697   8.728  2.6614  1.4199 -1.6581
   55CHL1  H27C 6550   4.075   3.758   8.575 -1.2624  0.4018  0.3802
   56CHL1    C3 6551   0.630   0.759  10.174  0.2088 -0.8520  0.0215
   56CHL1    H3 6552   0.739   0.779  10.164 -0.0481  1.0432  0.7473
   56CHL1    O3 6553   0.612   0.740  10.316  0.7995 -0.1623  0.2335
   56CHL1   H3' 6554   0.646   0.653  10.338 -0.0042 -0.1700  1.5714
   56CHL1    C4 6555   0.547   0.883  10.124  0.0911  0.2548  0.1399
   56CHL1   H4A 6556   0.441   0.867  10.155  0.4193  2.0940  2.5309
   56CHL1   H4B 6557   0.576   0.970  10.187  0.7625 -0.4534  0.8429
   56CHL1    C5 6558   0.553   0.910   9.979 -0.0699 -0.4230 -0.1997
   56CHL1    C6 6559   0.602   1.029   9.936 -0.0754 -0.2811  0.0673
   56CHL1    H6 6560   0.614   1.107  10.013 -0.4211 -1.9604  1.9000
   56CHL1    C7 6561   0.618   1.066   9.790  0.2875  0.7889  0.5539
   56CHL1   H7A 6562   0.578   1.166   9.764 -0.8666 -0.4289 -3.0990
   56CHL1   H7B 6563   0.727   1.068   9.767  0.3809 -2.3154  0.3078
   56CHL1    C8 6564   0.565   0.958   9.694 -0.1166  0.3365  0.0525
   56CHL1    H8 6565   0.460   0.992   9.686  0.3917  2.3908  1.1060
   56CHL1   C14 6566   0.639   0.968   9.567 -0.2053 -1.1884 -0.0294
   56CHL1   H14 6567   0.746   0.943   9.582  0.3349  1.0472  0.1332
   56CHL1   C15 6568   0.645   1.106   9.506 -0.3280  0.2726 -0.6431
   56CHL1  H15A 6569   0.554   1.167   9.523 -0.1731 -0.1927  2.3777
   56CHL1  H15B 6570   0.734   1.158   9.545 -1.6217  0.8715  1.6579
   56CHL1   C16 6571   0.678   1.073   9.352 -1.0918  0.1970 -0.3193
   56CHL1  H16A 6572   0.598   1.113   9.285 -0.2340 -2.6684 -3.3295
   56CHL1  H16B 6573   0.778   1.107   9.319 -1.1981  1.2385  0.4052
   56CHL1   C17 6574   0.670   0.918   9.338  0.4823 -0.2537  0.2305
   56CHL1   H17 6575   0.771   0.873   9.354  0.3132 -1.0670 -0.8828
   56CHL1   C13 6576   0.591   0.877   9.463 -0.0571  0.9708  0.1476
   56CHL1   C18 6577   0.440   0.914   9.442  0.0770  0.0488  0.6470
   56CHL1  H18A 6578   0.373   0.918   9.531 -0.6049  0.0356  0.1444
   56CHL1  H18B 6579   0.434   1.012   9.391  0.3440  0.5546  1.5691
   56CHL1  H18C 6580   0.389   0.841   9.374  0.0965  0.7053 -0.0851
   56CHL1   C12 6581   0.605   0.729   9.508 -0.5180 -0.2551  0.2136
   56CHL1  H12A 6582   0.562   0.666   9.427 -0.4961  0.5210 -0.4162
   56CHL1  H12B 6583   0.712   0.701   9.520 -0.0923  1.1893 -0.0311
   56CHL1   C11 6584   0.534   0.705   9.642  0.3667 -0.5125 -0.0510
   56CHL1  H11A 6585   0.425   0.709   9.625  0.1297  0.2161  1.4319
   56CHL1  H11B 6586   0.559   0.607   9.688 -0.5442 -0.8700 -0.3066
   56CHL1    C9 6587   0.582   0.809   9.748 -0.5540 -0.0578 -0.6721
   56CHL1    H9 6588   0.689   0.776   9.753 -0.4075  0.4436  3.3878
   56CHL1   C10 6589   0.526   0.790   9.891  0.3266  0.1024  0.4272
   56CHL1   C19 6590   0.370   0.788   9.872 -0.5816  0.2927  0.2914
   56CHL1  H19A 6591   0.330   0.694   9.829 -0.6350 -0.8306  2.6066
   56CHL1  H19B 6592   0.315   0.789   9.969  0.2211  4.1773  0.8688
   56CHL1  H19C 6593   0.344   0.874   9.807  0.0344 -0.3350 -0.8010
   56CHL1    C1 6594   0.597   0.659   9.952 -0.1306 -0.2630  0.6219
   56CHL1   H1A 6595   0.549   0.574   9.899  0.2001  0.9222 -1.7226
   56CHL1   H1B 6596   0.705   0.663   9.925 -0.6198  0.9824 -1.4056
   56CHL1    C2 6597   0.590   0.632  10.099  0.4090  0.8270 -0.0388
   56CHL1   H2A 6598   0.647   0.543  10.132 -2.1956 -0.9152 -0.0149
   56CHL1   H2B 6599   0.484   0.616  10.127  0.1264  2.5017 -0.0041
   56CHL1   C20 6600   0.633   0.862   9.196 -0.2722  0.0554 -0.4575
   56CHL1   H20 6601   0.524   0.880   9.192 -0.5664 -1.7340 -1.2368
   56CHL1   C21 6602   0.646   0.705   9.195  0.9408  0.2130  0.4413
   56CHL1  H21A 6603   0.548   0.664   9.227 -0.6832  2.2097 -1.6732
   56CHL1  H21B 6604   0.727   0.664   9.259  1.9310  0.4492 -0.6305
   56CHL1  H21C 6605   0.664   0.673   9.090  0.2975  4.0418 -1.0034
   56CHL1   C22 6606   0.694   0.940   9.085  0.1279 -0.1782 -0.0457
   56CHL1  H22A 6607   0.655   0.914   8.985  2.4121 -0.8366 -0.8190
   56CHL1  H22B 6608   0.672   1.048   9.091 -0.4599 -0.2978 -0.0311
   56CHL1   C23 6609   0.844   0.925   9.071 -0.2252 -0.3141 -0.1418
   56CHL1  H23A 6610   0.885   0.981   9.158  3.8543 -1.0821 -1.3755
   56CHL1  H23B 6611   0.878   0.819   9.073 -0.5498 -0.4142  0.7887
   56CHL1   C24 6612   0.901   1.004   8.953 -0.9822 -1.0184  0.4354
   56CHL1  H24A 6613   0.867   0.951   8.861 -0.5592  0.3153 -0.5216
   56CHL1  H24B 6614   0.863   1.107   8.935  0.5383 -0.7942 -1.9399
   56CHL1   C25 6615   1.056   1.013   8.938  0.2791  0.1989  0.0466
   56CHL1   H25 6616   1.093   0.911   8.915  0.5716  0.2995  0.0721
   56CHL1   C26 6617   1.091   1.104   8.824  0.4353  0.2112 -0.0560
   56CHL1  H26A 6618   1.199   1.129   8.824  0.8575 -1.4753 -0.9127
   56CHL1  H26B 6619   1.066   1.052   8.729  2.0673 -0.8895  0.0765
   56CHL1  H26C 6620   1.042   1.202   8.841  2.6895  1.0215  2.4516
   56CHL1   C27 6621   1.133   1.058   9.064 -0.2697 -0.3449 -0.3944
   56CHL1  H27A 6622   1.126   1.166   9.085  0.6618 -0.4384  0.4640
   56CHL1  H27B 6623   1.099   0.998   9.151 -1.2091  1.9133  0.8665
   56CHL1  H27C 6624   1.241   1.034   9.053 -0.4751 -1.7942  0.5022
   57CHL1    C3 6625   1.940   4.853   9.998  0.4644  0.3773  0.1839
   57CHL1    H3 6626   1.885   4.759   9.979 -0.5631  1.5438 -3.3514
   57CHL1    O3 6627   1.909   4.894  10.129 -0.2555 -0.2582  0.1115
   57CHL1   H3' 6628   1.820   4.927  10.123 -1.1061 -2.5381 -0.7744
   57CHL1    C4 6629   2.089   4.809   9.987 -0.0882  0.6215 -0.4083
   57CHL1   H4A 6630   2.148   4.891  10.033 -1.1269  0.6082  0.9820
   57CHL1   H4B 6631   2.109   4.727  10.058 -1.2893 -1.1400 -1.9906
   57CHL1    C5 6632   2.126   4.766   9.842  0.4524 -0.4073 -0.3990
   57CHL1    C6 6633   2.172   4.647   9.814  0.4607 -0.0899  0.7640
   57CHL1    H6 6634   2.189   4.580   9.900  0.7686  0.4578  1.1393
   57CHL1    C7 6635   2.231   4.611   9.677  0.2782  0.3117  0.0535
   57CHL1   H7A 6636   2.331   4.564   9.690 -0.2716 -1.2661 -1.1290
   57CHL1   H7B 6637   2.168   4.534   9.627 -0.7559  0.8007  0.5578
   57CHL1    C8 6638   2.237   4.730   9.579 -0.7181 -0.4230  0.4908
   57CHL1    H8 6639   2.331   4.787   9.596 -0.7864 -0.0150 -0.4626
   57CHL1   C14 6640   2.235   4.689   9.431  0.6874  0.3458  0.8540
   57CHL1   H14 6641   2.135   4.641   9.421  1.5063 -1.3377  0.4197
   57CHL1   C15 6642   2.329   4.574   9.389 -0.5109 -0.4962  0.0579
   57CHL1  H15A 6643   2.423   4.596   9.445  0.2683 -1.0591 -0.9940
   57CHL1  H15B 6644   2.302   4.478   9.438  1.1571  0.0880  2.3490
   57CHL1   C16 6645   2.321   4.582   9.238  0.2201 -0.5988  0.7652
   57CHL1  H16A 6646   2.426   4.605   9.209 -0.2236 -1.5893 -1.9291
   57CHL1  H16B 6647   2.282   4.489   9.191 -0.8134  0.2239 -0.0860
   57CHL1   C17 6648   2.235   4.705   9.196  0.3487 -0.6824 -0.3496
   57CHL1   H17 6649   2.126   4.684   9.194  0.3849 -0.8590 -0.5768
   57CHL1   C13 6650   2.238   4.797   9.322 -0.3439  0.2652  0.2609
   57CHL1   C18 6651   2.372   4.864   9.328  0.0109 -0.3112  0.1029
   57CHL1  H18A 6652   2.391   4.903   9.430  0.1318 -1.8594  0.6983
   57CHL1  H18B 6653   2.452   4.789   9.317 -1.4124 -1.7522 -0.8864
   57CHL1  H18C 6654   2.389   4.951   9.260 -0.5788 -0.0872  0.2317
   57CHL1   C12 6655   2.119   4.888   9.340  0.4032  0.1309  0.7753
   57CHL1  H12A 6656   2.117   4.977   9.274 -2.1882  0.3973  1.1411
   57CHL1  H12B 6657   2.021   4.845   9.310  2.3537 -3.8623 -0.6814
   57CHL1   C11 6658   2.118   4.943   9.482 -0.3937  0.1514 -0.1608
   57CHL1  H11A 6659   2.207   5.008   9.498  0.0547 -0.5203  0.0985
   57CHL1  H11B 6660   2.025   5.003   9.495 -0.4192 -0.0469  0.6423
   57CHL1    C9 6661   2.118   4.830   9.597  0.5440  0.1540  0.1269
   57CHL1    H9 6662   2.020   4.782   9.574 -1.8906  2.7321  4.0264
   57CHL1   C10 6663   2.097   4.872   9.743 -0.4193 -0.2498  0.5972
   57CHL1   C19 6664   2.188   4.995   9.782 -0.3594  0.0940 -0.2778
   57CHL1  H19A 6665   2.195   5.080   9.711 -1.7367  0.8808  0.4846
   57CHL1  H19B 6666   2.156   5.046   9.875  2.5054  0.4069  0.6573
   57CHL1  H19C 6667   2.294   4.966   9.797 -0.2027  0.9976  0.5067
   57CHL1    C1 6668   1.947   4.926   9.750 -0.2860  0.4112 -0.0263
   57CHL1   H1A 6669   1.942   5.018   9.689  0.2572  1.3269  1.2629
   57CHL1   H1B 6670   1.886   4.842   9.710  0.8684 -0.7425  0.5755
   57CHL1    C2 6671   1.901   4.958   9.891  0.5841  0.4235 -0.4039
   57CHL1   H2A 6672   1.791   4.942   9.883  0.6667 -1.3935  1.3924
   57CHL1   H2B 6673   1.926   5.064   9.913 -0.2906  0.3186  1.2329
   57CHL1   C20 6674   2.270   4.756   9.053 -0.9953 -0.1385 -0.3480
   57CHL1   H20 6675   2.376   4.788   9.046 -0.0082 -2.8357  0.9697
   57CHL1   C21 6676   2.193   4.883   9.022  0.4272 -0.2559 -0.8035
   57CHL1  H21A 6677   2.084   4.865   9.025  0.5013 -0.5298  1.0042
   57CHL1  H21B 6678   2.221   4.930   8.925 -1.1285  0.3113 -0.9949
   57CHL1  H21C 6679   2.213   4.961   9.097 -2.0150  0.4002 -0.7612
   57CHL1   C22 6680   2.243   4.646   8.941 -0.7192  0.2194  0.3121
   57CHL1  H22A 6681   2.328   4.574   8.939 -0.1309  0.9112 -1.2042
   57CHL1  H22B 6682   2.139   4.612   8.961 -1.0021  1.0880  0.3223
   57CHL1   C23 6683   2.230   4.693   8.800  0.0862  0.0676 -0.0643
   57CHL1  H23A 6684   2.155   4.775   8.791 -2.4798 -1.6401  3.4121
   57CHL1  H23B 6685   2.331   4.735   8.779  0.3363 -1.0751 -1.2491
   57CHL1   C24 6686   2.208   4.590   8.689  0.4420 -0.4143  0.0294
   57CHL1  H24A 6687   2.282   4.507   8.693 -1.0122 -1.8171 -1.0164
   57CHL1  H24B 6688   2.116   4.535   8.715  0.2638 -1.3597 -2.3366
   57CHL1   C25 6689   2.201   4.653   8.547  0.3222  0.8070  0.2432
   57CHL1   H25 6690   2.277   4.734   8.542  1.1426  0.0265 -0.3330
   57CHL1   C26 6691   2.228   4.545   8.436 -0.2589  0.2996 -1.2107
   57CHL1  H26A 6692   2.240   4.596   8.338 -1.1498  1.9051 -0.5184
   57CHL1  H26B 6693   2.312   4.480   8.470  0.4924  1.9385  0.2120
   57CHL1  H26C 6694   2.133   4.488   8.433 -0.2751  0.1895  0.5657
   57CHL1   C27 6695   2.062   4.718   8.530 -0.4331 -0.0863 -0.5107
   57CHL1  H27A 6696   1.975   4.650   8.515 -0.6883  0.6680 -2.7677
   57CHL1  H27B 6697   2.040   4.790   8.612 -0.4075  2.7025 -2.7971
   57CHL1  H27C 6698   2.073   4.782   8.440  0.3094  1.8189  0.8578
   58CHL1    C3 6699   4.388   1.051  10.176 -0.3401  0.1803  0.5984
   58CHL1    H3 6700   4.423   0.945  10.176  0.8989  0.5012 -2.3438
   58CHL1    O3 6701   4.348   1.091  10.306  0.0678 -0.4071  0.5757
   58CHL1   H3' 6702   4.254   1.100  10.289 -0.3423 -0.7814  2.3762
   58CHL1    C4 6703   4.517   1.129  10.129 -1.5310 -0.3509 -0.1162
   58CHL1   H4A 6704   4.486   1.235  10.134 -2.6057 -0.6987  1.3861
   58CHL1   H4B 6705   4.598   1.116  10.204 -1.1580  0.0782 -0.4481
   58CHL1    C5 6706   4.565   1.107   9.990 -0.3765  0.0141  0.5911
   58CHL1    C6 6707   4.697   1.070   9.968 -0.7715  0.1403  0.0585
   58CHL1    H6 6708   4.767   1.066  10.052  0.9176  0.5610 -1.2593
   58CHL1    C7 6709   4.745   1.046   9.828  0.1972  0.2966  0.6246
   58CHL1   H7A 6710   4.845   1.092   9.814 -0.3005  1.0018 -0.9213
   58CHL1   H7B 6711   4.759   0.937   9.815  0.3786  0.3957 -0.0602
   58CHL1    C8 6712   4.645   1.089   9.720 -0.7588  0.8593  0.1720
   58CHL1    H8 6713   4.643   1.199   9.708  0.2714  0.8508 -0.1462
   58CHL1   C14 6714   4.684   1.033   9.584 -0.0509 -0.2737  0.3975
   58CHL1   H14 6715   4.677   0.923   9.598  0.5031 -0.4222 -0.4067
   58CHL1   C15 6716   4.835   1.062   9.540  0.5370  0.2162  0.7137
   58CHL1  H15A 6717   4.845   1.172   9.553 -2.0656  0.3280  2.3452
   58CHL1  H15B 6718   4.905   1.000   9.601  1.8238  0.6610 -0.2676
   58CHL1   C16 6719   4.826   1.028   9.393 -0.1181 -0.7506  0.2359
   58CHL1  H16A 6720   4.885   1.095   9.327 -2.8606 -0.0814 -1.6904
   58CHL1  H16B 6721   4.881   0.932   9.389  0.8013 -0.3364  2.0437
   58CHL1   C17 6722   4.674   1.000   9.351 -0.0013  0.3336 -0.0021
   58CHL1   H17 6723   4.656   0.893   9.373  2.9995 -0.4171 -0.7149
   58CHL1   C13 6724   4.599   1.075   9.461  0.7245 -0.0382  0.2832
   58CHL1   C18 6725   4.604   1.231   9.443  0.1597 -0.1440 -0.4773
   58CHL1  H18A 6726   4.575   1.252   9.338  0.1419  0.3296 -0.3792
   58CHL1  H18B 6727   4.533   1.284   9.510 -1.8424 -2.2705 -0.7758
   58CHL1  H18C 6728   4.705   1.273   9.457  0.0362 -0.5490  2.1644
   58CHL1   C12 6729   4.459   1.020   9.500  0.6020 -0.4727 -1.0925
   58CHL1  H12A 6730   4.388   1.033   9.416  1.0881 -2.3774 -1.8587
   58CHL1  H12B 6731   4.462   0.910   9.520 -1.2406 -0.3039  0.4367
   58CHL1   C11 6732   4.411   1.085   9.630 -0.0335 -0.2540  0.5847
   58CHL1  H11A 6733   4.417   1.195   9.621 -0.2516 -0.3472 -1.2020
   58CHL1  H11B 6734   4.303   1.062   9.648 -0.3644 -0.0362 -0.9320
   58CHL1    C9 6735   4.506   1.048   9.750  0.7249  0.2269 -0.0083
   58CHL1    H9 6736   4.498   0.940   9.773 -0.5821  0.7645  2.5598
   58CHL1   C10 6737   4.454   1.112   9.886  0.2867 -0.3867 -0.3429
   58CHL1   C19 6738   4.425   1.259   9.868  0.2153 -0.3577  0.2749
   58CHL1  H19A 6739   4.407   1.312   9.964  0.8991  0.4542 -0.0283
   58CHL1  H19B 6740   4.512   1.304   9.816 -0.0830  0.4226  0.4349
   58CHL1  H19C 6741   4.333   1.270   9.806  1.3050 -2.2999 -1.7985
   58CHL1    C1 6742   4.325   1.043   9.934 -0.1390  0.0115  0.0780
   58CHL1   H1A 6743   4.234   1.060   9.873 -1.2120  1.4413  1.9598
   58CHL1   H1B 6744   4.351   0.935   9.933  2.9325  0.6275 -3.0440
   58CHL1    C2 6745   4.276   1.067  10.081  0.2176 -0.0705 -0.7649
   58CHL1   H2A 6746   4.202   0.987  10.106  0.2544  0.1729  0.1395
   58CHL1   H2B 6747   4.222   1.163  10.095  1.5659  0.7904 -1.2759
   58CHL1   C20 6748   4.649   1.029   9.206 -0.2041  0.5511 -0.2838
   58CHL1   H20 6749   4.685   1.133   9.189  1.3362  0.1180  0.2257
   58CHL1   C21 6750   4.501   1.040   9.177  0.5725 -0.2215  0.3004
   58CHL1  H21A 6751   4.450   1.128   9.223  1.5832  2.2027 -2.8037
   58CHL1  H21B 6752   4.453   0.943   9.198  0.0832 -0.3772 -1.4017
   58CHL1  H21C 6753   4.485   1.062   9.069  3.0396 -0.8612 -0.2594
   58CHL1   C22 6754   4.720   0.928   9.107  0.9571 -0.1466 -0.1443
   58CHL1  H22A 6755   4.825   0.910   9.141  0.9066  1.3935  0.9087
   58CHL1  H22B 6756   4.673   0.827   9.114 -0.2627  0.5344  3.7671
   58CHL1   C23 6757   4.710   0.980   8.961 -0.5299  0.5241  0.4179
   58CHL1  H23A 6758   4.604   0.972   8.928 -0.6951  1.3685  0.7188
   58CHL1  H23B 6759   4.754   1.080   8.942 -0.1944  0.6563  1.7359
   58CHL1   C24 6760   4.764   0.872   8.860 -0.5002  0.5835  0.0414
   58CHL1  H24A 6761   4.873   0.877   8.883 -0.4160 -0.7477  0.0241
   58CHL1  H24B 6762   4.727   0.771   8.887  0.4101  0.6193  1.5618
   58CHL1   C25 6763   4.733   0.901   8.710  0.0352  0.0819  0.3794
   58CHL1   H25 6764   4.796   0.830   8.652  1.1314  0.4347  1.1112
   58CHL1   C26 6765   4.581   0.868   8.689 -0.7846  0.8852 -0.5051
   58CHL1  H26A 6766   4.525   0.951   8.736  2.3038  1.6418  2.1778
   58CHL1  H26B 6767   4.544   0.857   8.585 -4.9064  2.7406  0.5691
   58CHL1  H26C 6768   4.554   0.776   8.746  0.1958  0.4219 -0.7596
   58CHL1   C27 6769   4.772   1.040   8.658  0.7175 -0.1667  0.1849
   58CHL1  H27A 6770   4.700   1.112   8.704 -1.2845 -2.7646  1.4033
   58CHL1  H27B 6771   4.872   1.068   8.696  0.1894  3.2891 -0.6552
   58CHL1  H27C 6772   4.746   1.035   8.550 -1.5888  2.3928  0.4889
   59CHL1    C3 6773   4.527   6.311  10.239  0.4258  0.2799  0.5065
   59CHL1    H3 6774   4.631   6.278  10.261 -0.9590 -3.8081  1.9602
   59CHL1    O3 6775   4.461   6.305  10.370 -0.5451 -0.0286  0.0245
   59CHL1   H3' 6776   4.473   6.220  10.412 -0.7418 -0.0829 -0.0310
   59CHL1    C4 6777   4.527   6.451  10.187 -0.2541 -0.6272 -0.2064
   59CHL1   H4A 6778   4.426   6.496  10.187 -0.7771 -1.7526  0.5893
   59CHL1   H4B 6779   4.575   6.523  10.256 -0.3556 -2.2677  1.6556
   59CHL1    C5 6780   4.575   6.463  10.047  0.6951  0.5336  0.5729
   59CHL1    C6 6781   4.669   6.552  10.016 -0.3946  0.0421  0.1540
   59CHL1    H6 6782   4.717   6.623  10.086 -2.4871 -0.8138  2.5815
   59CHL1    C7 6783   4.703   6.584   9.871 -0.0777 -0.1257 -0.6835
   59CHL1   H7A 6784   4.730   6.690   9.848  1.5758 -0.2473  0.5335
   59CHL1   H7B 6785   4.802   6.536   9.853 -0.4504 -0.8470 -0.8234
   59CHL1    C8 6786   4.612   6.520   9.768 -0.5986  0.1379 -0.4427
   59CHL1    H8 6787   4.521   6.584   9.763 -2.6579 -2.4601  1.1814
   59CHL1   C14 6788   4.678   6.506   9.634  0.3921  0.2313  0.8649
   59CHL1   H14 6789   4.767   6.441   9.645  1.1488  1.4351  2.2525
   59CHL1   C15 6790   4.734   6.642   9.576 -0.1505 -0.2557 -0.2584
   59CHL1  H15A 6791   4.664   6.727   9.589 -0.7442 -0.7645 -0.0655
   59CHL1  H15B 6792   4.836   6.663   9.617  1.1951 -2.1904 -2.4131
   59CHL1   C16 6793   4.747   6.612   9.422 -0.5793  0.1937 -0.3399
   59CHL1  H16A 6794   4.712   6.698   9.361 -1.4543 -0.0995 -0.2613
   59CHL1  H16B 6795   4.855   6.594   9.401  0.7207  2.1848  3.6053
   59CHL1   C17 6796   4.671   6.475   9.393 -0.0839 -0.2492 -0.5293
   59CHL1   H17 6797   4.756   6.403   9.392 -1.2047 -1.6365 -2.5910
   59CHL1   C13 6798   4.587   6.449   9.521 -0.2094  0.4994 -0.6884
   59CHL1   C18 6799   4.459   6.532   9.499  0.3783 -0.2095  0.3224
   59CHL1  H18A 6800   4.402   6.548   9.594  0.2705  4.3791 -0.2981
   59CHL1  H18B 6801   4.479   6.628   9.447  0.1455  0.0211  0.6456
   59CHL1  H18C 6802   4.393   6.476   9.429  0.1593 -1.8212  1.7391
   59CHL1   C12 6803   4.553   6.304   9.562 -0.2827 -0.4004 -0.4422
   59CHL1  H12A 6804   4.479   6.259   9.492 -1.1309  0.9601 -0.4532
   59CHL1  H12B 6805   4.646   6.244   9.555  1.4666  2.2155 -1.2121
   59CHL1   C11 6806   4.500   6.293   9.701  0.3140 -0.3826 -0.6646
   59CHL1  H11A 6807   4.392   6.321   9.702  0.2429 -0.6609 -0.5616
   59CHL1  H11B 6808   4.501   6.189   9.740  0.9673  0.1457  0.8442
   59CHL1    C9 6809   4.574   6.382   9.808  0.0759 -0.3154 -0.8974
   59CHL1    H9 6810   4.672   6.331   9.818  0.8695  1.4180  0.6538
   59CHL1   C10 6811   4.503   6.376   9.949 -0.5440  1.2745  0.6641
   59CHL1   C19 6812   4.349   6.407   9.925 -0.3996 -0.0358 -0.7365
   59CHL1  H19A 6813   4.342   6.488   9.849 -0.3580  1.2777  0.6181
   59CHL1  H19B 6814   4.302   6.313   9.890 -2.0902  0.6325 -0.3569
   59CHL1  H19C 6815   4.308   6.434  10.025  0.2981 -2.0919  0.1518
   59CHL1    C1 6816   4.519   6.228  10.007 -0.3416 -0.1315  0.4063
   59CHL1   H1A 6817   4.467   6.160   9.937 -1.2656 -1.7103  2.5028
   59CHL1   H1B 6818   4.630   6.215  10.005 -0.2551  0.6075 -0.2387
   59CHL1    C2 6819   4.468   6.209  10.145  0.1521 -0.6648  0.1129
   59CHL1   H2A 6820   4.484   6.106  10.183 -0.7523 -0.6961  0.4562
   59CHL1   H2B 6821   4.360   6.238  10.140 -0.1526 -0.8882  3.1010
   59CHL1   C20 6822   4.595   6.470   9.253 -0.0535 -0.4107 -0.5633
   59CHL1   H20 6823   4.543   6.567   9.242  0.7105 -0.2268 -3.0459
   59CHL1   C21 6824   4.498   6.352   9.233 -0.4742  0.2309  0.6129
   59CHL1  H21A 6825   4.458   6.376   9.132 -0.0940  2.9162  1.0252
   59CHL1  H21B 6826   4.406   6.343   9.294 -1.5225 -0.2206 -0.9743
   59CHL1  H21C 6827   4.557   6.257   9.235 -1.3444 -0.3931 -1.2143
   59CHL1   C22 6828   4.691   6.467   9.130  1.2073  0.7679 -0.0657
   59CHL1  H22A 6829   4.768   6.547   9.127  0.7497  1.2076 -2.1241
   59CHL1  H22B 6830   4.732   6.364   9.120 -1.1653 -0.1679 -0.9139
   59CHL1   C23 6831   4.614   6.483   8.996  0.2788  0.6263 -0.3252
   59CHL1  H23A 6832   4.568   6.384   8.978 -1.7899  1.7584 -1.6087
   59CHL1  H23B 6833   4.530   6.556   9.005 -1.5805 -1.6215  2.4593
   59CHL1   C24 6834   4.709   6.502   8.876  0.4040  0.0129 -0.0989
   59CHL1  H24A 6835   4.755   6.604   8.877  3.7892 -1.3462 -1.3361
   59CHL1  H24B 6836   4.795   6.433   8.890  0.7652  0.7954  1.9446
   59CHL1   C25 6837   4.639   6.487   8.735  0.3920  0.2411 -0.1123
   59CHL1   H25 6838   4.584   6.391   8.732  0.5013  0.1942 -1.1285
   59CHL1   C26 6839   4.534   6.600   8.713 -0.0438  0.1238 -0.4204
   59CHL1  H26A 6840   4.581   6.700   8.730  1.2561 -0.3867 -0.8726
   59CHL1  H26B 6841   4.499   6.597   8.608 -0.9112 -0.9335 -0.1121
   59CHL1  H26C 6842   4.446   6.582   8.778 -1.5459 -0.3635 -2.5146
   59CHL1   C27 6843   4.744   6.477   8.626  0.7661  0.5729  0.8295
   59CHL1  H27A 6844   4.825   6.411   8.665 -1.0304 -1.4585  1.2527
   59CHL1  H27B 6845   4.716   6.424   8.532  2.6399 -1.4396  1.3275
   59CHL1  H27C 6846   4.779   6.578   8.597 -0.7227  0.8458 -0.1280
   60CHL1    C3 6847   1.883   0.962  10.464 -0.0805  0.4578 -0.3498
   60CHL1    H3 6848   1.800   0.889  10.464 -0.3896  0.8054 -0.2899
   60CHL1    O3 6849   1.912   0.997  10.601 -0.2067 -0.4576  0.1474
   60CHL1   H3' 6850   1.948   0.920  10.646  0.1310  0.1917  1.0104
   60CHL1    C4 6851   2.014   0.910  10.396  0.5274 -0.0566 -0.4284
   60CHL1   H4A 6852   2.099   0.976  10.421 -1.6830  2.0313  2.1020
   60CHL1   H4B 6853   2.039   0.814  10.448  0.9350  0.4351  0.2989
   60CHL1    C5 6854   1.997   0.875  10.252 -0.0496 -0.4001 -0.1781
   60CHL1    C6 6855   2.013   0.753  10.199  1.0338  0.4819  0.2954
   60CHL1    H6 6856   2.044   0.673  10.268  1.1523  0.9532  0.7987
   60CHL1    C7 6857   1.989   0.717  10.051  0.1929 -0.3928 -0.2255
   60CHL1   H7A 6858   2.055   0.631  10.028  1.2090  0.3023  0.0002
   60CHL1   H7B 6859   1.890   0.667  10.044  0.3732 -0.7242 -0.4534
   60CHL1    C8 6860   1.989   0.845   9.966  0.1755  0.1907  0.6122
   60CHL1    H8 6861   2.091   0.889   9.973  0.4305 -0.5971  2.4603
   60CHL1   C14 6862   1.946   0.816   9.823 -0.0051  0.0307  0.3475
   60CHL1   H14 6863   1.839   0.787   9.815  0.3142 -0.7422 -2.2046
   60CHL1   C15 6864   2.006   0.687   9.767  0.1916  0.2044  0.3350
   60CHL1  H15A 6865   2.111   0.670   9.796 -0.3768 -2.0658  1.2478
   60CHL1  H15B 6866   1.941   0.601   9.793  0.2901 -0.0090 -0.1150
   60CHL1   C16 6867   2.005   0.715   9.618  0.5152  0.0722  0.2819
   60CHL1  H16A 6868   2.102   0.716   9.564  0.8926  2.6804  0.8728
   60CHL1  H16B 6869   1.942   0.649   9.555 -0.0722 -0.3526  1.3010
   60CHL1   C17 6870   1.944   0.860   9.594 -0.3385 -0.1150  0.4818
   60CHL1   H17 6871   1.836   0.846   9.571  0.0023  0.7122 -1.8660
   60CHL1   C13 6872   1.966   0.929   9.725  0.2007  0.0769  0.0530
   60CHL1   C18 6873   2.111   0.972   9.734 -0.5118  0.7507  0.9349
   60CHL1  H18A 6874   2.148   1.010   9.831 -0.3878 -2.4991  2.3015
   60CHL1  H18B 6875   2.182   0.894   9.700 -1.0952 -0.4362  2.2685
   60CHL1  H18C 6876   2.114   1.055   9.660  0.9892 -0.1766 -0.0885
   60CHL1   C12 6877   1.869   1.045   9.773 -0.1516 -0.5752  0.2478
   60CHL1  H12A 6878   1.894   1.139   9.721 -2.2268 -1.0464 -1.7337
   60CHL1  H12B 6879   1.763   1.022   9.748  0.5129 -1.4046 -1.9898
   60CHL1   C11 6880   1.883   1.068   9.926  0.1360  0.7455 -0.1248
   60CHL1  H11A 6881   1.986   1.110   9.933  0.8690 -1.0385  0.3721
   60CHL1  H11B 6882   1.810   1.145   9.960 -0.9701 -0.8115  1.1979
   60CHL1    C9 6883   1.893   0.945  10.020 -0.0591 -0.3261 -0.3508
   60CHL1    H9 6884   1.796   0.895  10.039  0.5617 -1.0273  1.1589
   60CHL1   C10 6885   1.937   0.991  10.166  0.0711 -0.0438 -0.3305
   60CHL1   C19 6886   2.041   1.104  10.161 -0.1000  0.5217  0.1537
   60CHL1  H19A 6887   1.997   1.203  10.137  2.2605  1.5384 -0.2606
   60CHL1  H19B 6888   2.082   1.112  10.264 -2.1102 -0.1991  1.0560
   60CHL1  H19C 6889   2.110   1.068  10.081 -1.5323  0.5520 -1.1487
   60CHL1    C1 6890   1.806   1.046  10.242 -0.4580  0.0604 -0.9635
   60CHL1   H1A 6891   1.782   1.142  10.193 -0.5073  0.7358  0.3534
   60CHL1   H1B 6892   1.722   0.974  10.234  0.1247 -0.5071 -2.1654
   60CHL1    C2 6893   1.836   1.082  10.386  0.4158  0.3281  0.3270
   60CHL1   H2A 6894   1.744   1.114  10.440  0.3549 -1.5843  1.4434
   60CHL1   H2B 6895   1.912   1.162  10.376  0.4674  0.0313 -2.9783
   60CHL1   C20 6896   1.993   0.923   9.462  0.3519 -0.1895 -0.3411
   60CHL1   H20 6897   2.104   0.918   9.462  0.2870 -3.0867 -1.6851
   60CHL1   C21 6898   1.946   1.068   9.448 -0.5741 -0.0446  0.2193
   60CHL1  H21A 6899   1.981   1.132   9.532 -0.6741 -0.5372  0.6342
   60CHL1  H21B 6900   1.837   1.066   9.426 -0.1789  0.3189 -1.9731
   60CHL1  H21C 6901   1.999   1.116   9.363  3.5724 -0.7124  2.1739
   60CHL1   C22 6902   1.959   0.840   9.332  0.1764 -0.2459  0.5806
   60CHL1  H22A 6903   1.999   0.739   9.355 -1.2469 -1.3239 -1.3881
   60CHL1  H22B 6904   1.851   0.833   9.306  0.3932 -0.3088 -0.3483
   60CHL1   C23 6905   2.036   0.892   9.207  0.5194 -0.0033  0.1527
   60CHL1  H23A 6906   1.975   0.971   9.157  2.0598 -0.5546 -2.8517
   60CHL1  H23B 6907   2.132   0.943   9.230  1.1802 -0.5123 -1.3403
   60CHL1   C24 6908   2.041   0.779   9.095  0.0855  0.2953  0.4607
   60CHL1  H24A 6909   2.100   0.696   9.138 -0.3344 -0.4805 -0.4238
   60CHL1  H24B 6910   1.942   0.731   9.078 -0.8543  2.3780 -0.3270
   60CHL1   C25 6911   2.096   0.825   8.957 -1.1406  0.1272 -0.3496
   60CHL1   H25 6912   2.045   0.919   8.926 -0.4228 -0.0494 -2.2300
   60CHL1   C26 6913   2.245   0.861   8.957  0.2326  0.3739 -0.5916
   60CHL1  H26A 6914   2.279   0.912   8.865 -0.1747  0.6977 -0.5644
   60CHL1  H26B 6915   2.261   0.930   9.043 -0.7833  1.8120 -1.5182
   60CHL1  H26C 6916   2.312   0.773   8.972  1.4523  1.4222  0.4384
   60CHL1   C27 6917   2.072   0.724   8.848  0.6052  0.4675 -0.4030
   60CHL1  H27A 6918   2.083   0.773   8.748 -1.2508  2.7504  0.4183
   60CHL1  H27B 6919   2.117   0.625   8.872  2.1589  0.5265 -2.7202
   60CHL1  H27C 6920   1.966   0.692   8.844 -0.2412  2.8667  1.1701
   61CHL1    C3 6921   2.419   2.746  10.279  0.4177 -0.2468 -0.4369
   61CHL1    H3 6922   2.368   2.650  10.256  1.6498 -0.9723 -0.1812
   61CHL1    O3 6923   2.399   2.762  10.417  0.8415  0.0016 -0.0373
   61CHL1   H3' 6924   2.304   2.760  10.432  0.8576  2.6597  1.0039
   61CHL1    C4 6925   2.566   2.743  10.250  0.2262  0.3027 -0.1451
   61CHL1   H4A 6926   2.609   2.835  10.294  0.7654 -0.3579  0.7359
   61CHL1   H4B 6927   2.617   2.666  10.311 -0.9701 -0.6901 -0.3567
   61CHL1    C5 6928   2.598   2.723  10.101 -0.7610 -0.6596  0.9502
   61CHL1    C6 6929   2.684   2.633  10.048 -0.0605  0.1163 -0.4120
   61CHL1    H6 6930   2.741   2.560  10.106  0.4324 -0.3975 -1.5065
   61CHL1    C7 6931   2.711   2.623   9.899 -0.7615  0.5123  0.3040
   61CHL1   H7A 6932   2.816   2.601   9.872 -1.6567 -3.5427 -0.4705
   61CHL1   H7B 6933   2.655   2.530   9.878 -1.5373  0.8155  0.9562
   61CHL1    C8 6934   2.664   2.734   9.807 -0.1202  0.1217  0.1161
   61CHL1    H8 6935   2.731   2.821   9.830 -0.0738 -0.3547  1.9034
   61CHL1   C14 6936   2.664   2.691   9.660  0.3423 -0.0139  0.2418
   61CHL1   H14 6937   2.593   2.605   9.664  0.8470 -0.3941  3.3506
   61CHL1   C15 6938   2.792   2.650   9.594 -0.4363  0.6681 -0.4684
   61CHL1  H15A 6939   2.864   2.731   9.616  1.7073 -1.1442 -0.5116
   61CHL1  H15B 6940   2.845   2.559   9.630 -1.6151  0.5058  0.9338
   61CHL1   C16 6941   2.751   2.632   9.449 -0.0209  0.2779  0.4772
   61CHL1  H16A 6942   2.826   2.670   9.376  0.5047 -2.3306 -0.4174
   61CHL1  H16B 6943   2.743   2.523   9.432 -0.0914  0.3941 -0.2668
   61CHL1   C17 6944   2.620   2.711   9.425  0.0956 -0.8708  0.1488
   61CHL1   H17 6945   2.538   2.638   9.413  0.2217 -0.9927  0.0143
   61CHL1   C13 6946   2.600   2.789   9.559  1.0779  0.4235 -0.3570
   61CHL1   C18 6947   2.694   2.916   9.552  0.5204  0.1153 -0.3491
   61CHL1  H18A 6948   2.643   2.994   9.492  2.6455  0.9860 -1.0846
   61CHL1  H18B 6949   2.696   2.953   9.657  0.2639 -0.7306 -0.0318
   61CHL1  H18C 6950   2.797   2.900   9.515  1.2506 -1.2578  1.9843
   61CHL1   C12 6951   2.456   2.829   9.599 -0.1775 -0.2779  0.2257
   61CHL1  H12A 6952   2.404   2.906   9.537  1.5084  0.9940  0.3337
   61CHL1  H12B 6953   2.392   2.741   9.577 -1.4475  0.7501 -0.4325
   61CHL1   C11 6954   2.458   2.878   9.749 -0.6705 -0.4823  0.1953
   61CHL1  H11A 6955   2.501   2.980   9.762  2.5652 -1.8216  0.8166
   61CHL1  H11B 6956   2.355   2.897   9.785 -1.2127 -0.4150 -1.2951
   61CHL1    C9 6957   2.526   2.780   9.848  0.1576 -0.5669 -0.5415
   61CHL1    H9 6958   2.464   2.687   9.845  0.6139 -0.8826 -0.1975
   61CHL1   C10 6959   2.520   2.822  10.006  0.8195  0.0973  0.1434
   61CHL1   C19 6960   2.574   2.965  10.019 -0.2874 -0.3423  0.1639
   61CHL1  H19A 6961   2.601   2.988  10.124 -0.2634  0.8483 -0.0859
   61CHL1  H19B 6962   2.659   2.979   9.948 -0.0263  0.6699  0.6507
   61CHL1  H19C 6963   2.504   3.040   9.976  2.0731  1.5030 -0.7346
   61CHL1    C1 6964   2.370   2.816  10.045 -0.1205 -0.4703 -0.9026
   61CHL1   H1A 6965   2.328   2.898   9.983  1.0257 -0.9415 -2.3733
   61CHL1   H1B 6966   2.327   2.715  10.031 -0.9404  0.0311 -2.1642
   61CHL1    C2 6967   2.347   2.854  10.193 -0.3639 -0.0694 -0.3180
   61CHL1   H2A 6968   2.237   2.860  10.209 -0.2065  1.2691  0.4113
   61CHL1   H2B 6969   2.382   2.955  10.223 -1.0093 -0.0168  0.2810
   61CHL1   C20 6970   2.608   2.777   9.286  0.1093 -0.6916  0.1847
   61CHL1   H20 6971   2.690   2.850   9.270 -1.3347  0.5189 -2.1506
   61CHL1   C21 6972   2.475   2.848   9.275 -0.3107  0.5467  0.3252
   61CHL1  H21A 6973   2.462   2.923   9.355  3.0167  0.4731  1.0495
   61CHL1  H21B 6974   2.387   2.781   9.292 -0.2919  0.0648 -1.3125
   61CHL1  H21C 6975   2.456   2.891   9.174 -0.0485  0.8909  0.4217
   61CHL1   C22 6976   2.622   2.669   9.168 -0.0947  0.0903  0.3425
   61CHL1  H22A 6977   2.724   2.623   9.170 -0.3113 -0.4217 -0.0143
   61CHL1  H22B 6978   2.548   2.588   9.186  0.1515 -0.1173  0.4310
   61CHL1   C23 6979   2.599   2.714   9.023 -0.4019  0.3112  0.1819
   61CHL1  H23A 6980   2.608   2.635   8.945  0.0675  2.0502 -1.6289
   61CHL1  H23B 6981   2.491   2.732   9.008  0.0484  1.9748 -1.5028
   61CHL1   C24 6982   2.685   2.826   8.971 -0.4386  0.1718 -0.5428
   61CHL1  H24A 6983   2.653   2.914   9.030  1.7241  0.9986 -0.5065
   61CHL1  H24B 6984   2.788   2.799   9.001 -0.5741 -0.6594 -0.7903
   61CHL1   C25 6985   2.669   2.858   8.821  0.2121  0.1656  0.6441
   61CHL1   H25 6986   2.749   2.933   8.803  2.1321 -1.6570  1.2709
   61CHL1   C26 6987   2.694   2.746   8.721 -0.1272  0.1101 -0.7934
   61CHL1  H26A 6988   2.787   2.689   8.738 -0.1890  0.4649  0.9609
   61CHL1  H26B 6989   2.607   2.677   8.727  0.0196  0.0483  1.3932
   61CHL1  H26C 6990   2.715   2.784   8.619  0.0216  0.2793 -0.6994
   61CHL1   C27 6991   2.544   2.940   8.790  0.6196 -0.8083 -0.1659
   61CHL1  H27A 6992   2.452   2.877   8.786 -0.1417  0.2245  0.6481
   61CHL1  H27B 6993   2.529   3.009   8.876 -2.5654 -1.1821 -0.2885
   61CHL1  H27C 6994   2.555   2.995   8.695  0.0437 -0.8534 -0.2577
   62CHL1    C3 6995   1.560   4.437  10.071  0.1240  0.6110 -0.1127
   62CHL1    H3 6996   1.564   4.330  10.043 -0.2499  0.2116  1.2977
   62CHL1    O3 6997   1.556   4.442  10.211  0.1231 -0.0326 -0.8374
   62CHL1   H3' 6998   1.526   4.532  10.223 -0.1463  0.1047 -2.3012
   62CHL1    C4 6999   1.687   4.509  10.019 -0.2214  0.2109 -0.0126
   62CHL1   H4A 7000   1.698   4.609  10.065 -1.2064  1.7150 -2.8172
   62CHL1   H4B 7001   1.772   4.454  10.064 -1.4241 -1.8752 -0.1129
   62CHL1    C5 7002   1.680   4.533   9.867 -0.2786  0.5292  0.5558
   62CHL1    C6 7003   1.784   4.488   9.789  0.0327  0.2460  0.6929
   62CHL1    H6 7004   1.872   4.444   9.838 -1.1779 -1.8340  1.1376
   62CHL1    C7 7005   1.788   4.508   9.638  0.6311  0.5742 -0.3344
   62CHL1   H7A 7006   1.889   4.530   9.599 -0.2211  0.1520 -3.0226
   62CHL1   H7B 7007   1.755   4.408   9.601 -0.8072  0.7861  0.2787
   62CHL1    C8 7008   1.686   4.604   9.578  0.1081 -0.3806  0.1481
   62CHL1    H8 7009   1.722   4.709   9.583 -1.1957  0.0902 -0.0025
   62CHL1   C14 7010   1.671   4.588   9.431 -0.1500 -0.1904 -0.1730
   62CHL1   H14 7011   1.612   4.495   9.417 -1.3743  0.2691  1.5336
   62CHL1   C15 7012   1.799   4.582   9.354 -0.0024 -0.1022 -0.1254
   62CHL1  H15A 7013   1.857   4.672   9.382  0.4065 -0.3110 -0.2804
   62CHL1  H15B 7014   1.858   4.489   9.369 -0.3216 -0.1737  0.7309
   62CHL1   C16 7015   1.751   4.593   9.211 -0.2859 -0.2724 -0.5328
   62CHL1  H16A 7016   1.819   4.657   9.151 -3.2007  2.3664 -1.3320
   62CHL1  H16B 7017   1.741   4.498   9.156  0.7542 -0.3393 -0.6083
   62CHL1   C17 7018   1.605   4.654   9.219  0.3408  0.2893  0.1845
   62CHL1   H17 7019   1.531   4.575   9.196 -2.4433  2.7010  0.3581
   62CHL1   C13 7020   1.581   4.698   9.365 -0.0442  0.4810  0.2199
   62CHL1   C18 7021   1.633   4.843   9.381 -0.0995 -0.7731 -0.2699
   62CHL1  H18A 7022   1.624   4.874   9.487 -0.8983 -2.8609  0.3368
   62CHL1  H18B 7023   1.742   4.853   9.358  0.0805 -0.8043  0.5300
   62CHL1  H18C 7024   1.576   4.912   9.316 -1.2248 -1.9109 -0.5225
   62CHL1   C12 7025   1.440   4.681   9.420 -0.0601  0.1572 -0.7773
   62CHL1  H12A 7026   1.365   4.757   9.389 -1.1562  0.2988  1.9597
   62CHL1  H12B 7027   1.401   4.578   9.404  0.2309 -0.0899  0.1110
   62CHL1   C11 7028   1.445   4.688   9.572  0.2356  0.0552  0.9689
   62CHL1  H11A 7029   1.464   4.790   9.612 -0.4880 -0.8646  3.9170
   62CHL1  H11B 7030   1.349   4.665   9.623 -0.3713  2.2940  0.9198
   62CHL1    C9 7031   1.556   4.593   9.645 -0.1350 -0.5897  0.0733
   62CHL1    H9 7032   1.524   4.489   9.620  2.4215 -1.6729  0.9580
   62CHL1   C10 7033   1.554   4.592   9.799 -0.1960  0.8438  0.2022
   62CHL1   C19 7034   1.544   4.742   9.836  0.5657 -0.0662 -0.2540
   62CHL1  H19A 7035   1.443   4.785   9.822  1.7355  3.4106  0.9033
   62CHL1  H19B 7036   1.563   4.773   9.941 -1.0007  2.0667 -0.5408
   62CHL1  H19C 7037   1.615   4.804   9.777  1.4156 -1.2219 -0.5018
   62CHL1    C1 7038   1.433   4.511   9.849 -0.5554  0.6538  0.1883
   62CHL1   H1A 7039   1.352   4.585   9.829 -0.1511  1.8032  2.4709
   62CHL1   H1B 7040   1.422   4.420   9.787  1.2369  1.7382 -1.8706
   62CHL1    C2 7041   1.428   4.496  10.002  0.4186 -0.1999  0.5661
   62CHL1   H2A 7042   1.336   4.436  10.022  0.4285 -0.4253 -0.0383
   62CHL1   H2B 7043   1.407   4.596  10.044 -1.8181 -0.3424 -0.1019
   62CHL1   C20 7044   1.580   4.751   9.106  0.5589  0.0424  0.2583
   62CHL1   H20 7045   1.636   4.847   9.116  1.1576 -0.2991  0.2580
   62CHL1   C21 7046   1.429   4.788   9.116  0.1190 -0.1811  0.0181
   62CHL1  H21A 7047   1.373   4.692   9.124  1.1126 -0.8102 -0.4549
   62CHL1  H21B 7048   1.403   4.857   9.033  1.8896  0.4396 -0.0611
   62CHL1  H21C 7049   1.423   4.842   9.213  4.1534  0.1886  0.2298
   62CHL1   C22 7050   1.614   4.696   8.965  0.3935  0.5080 -0.9857
   62CHL1  H22A 7051   1.715   4.653   8.982 -0.6834 -0.9210  2.8585
   62CHL1  H22B 7052   1.558   4.604   8.940 -0.3201  0.9727 -1.1215
   62CHL1   C23 7053   1.619   4.799   8.857 -0.1177 -0.5752  1.0371
   62CHL1  H23A 7054   1.517   4.841   8.846  0.5786  0.9214 -0.1420
   62CHL1  H23B 7055   1.686   4.882   8.888  1.2580 -1.0469 -0.5176
   62CHL1   C24 7056   1.659   4.735   8.722 -0.0631  0.1321  0.2099
   62CHL1  H24A 7057   1.764   4.700   8.712 -0.2522 -0.0170 -1.6100
   62CHL1  H24B 7058   1.598   4.642   8.722  0.0773  0.0328 -0.7230
   62CHL1   C25 7059   1.622   4.824   8.602  0.1546 -0.3075  0.2014
   62CHL1   H25 7060   1.519   4.862   8.618  0.5709  1.8091 -1.6618
   62CHL1   C26 7061   1.720   4.947   8.585 -0.0379 -0.9953  0.4353
   62CHL1  H26A 7062   1.825   4.912   8.571  1.1812  2.4247 -0.0001
   62CHL1  H26B 7063   1.686   4.997   8.491 -1.9809 -2.6961  0.1594
   62CHL1  H26C 7064   1.713   5.014   8.672 -1.5264 -0.8777  0.2536
   62CHL1   C27 7065   1.607   4.739   8.469 -0.3223  0.4005  0.1561
   62CHL1  H27A 7066   1.705   4.692   8.444  0.2737  1.2732  0.7626
   62CHL1  H27B 7067   1.528   4.663   8.482 -3.9586  3.6182 -1.2363
   62CHL1  H27C 7068   1.587   4.802   8.379 -0.3170  1.0721  0.6140
   63CHL1    C3 7069   4.646   3.275  10.244 -0.1448  0.5900  0.4705
   63CHL1    H3 7070   4.741   3.229  10.211  0.0625  0.6349  0.9900
   63CHL1    O3 7071   4.658   3.299  10.385 -0.1246  0.1401  0.0275
   63CHL1   H3' 7072   4.739   3.348  10.400  2.0877 -2.9983 -0.7275
   63CHL1    C4 7073   4.607   3.415  10.174  0.6792  0.3219  0.8107
   63CHL1   H4A 7074   4.504   3.436  10.212 -0.3502 -2.0253 -0.4726
   63CHL1   H4B 7075   4.680   3.494  10.202  1.7661 -0.9246  1.6022
   63CHL1    C5 7076   4.608   3.394  10.022  0.6410  0.8257  0.0818
   63CHL1    C6 7077   4.687   3.458   9.942  0.7943 -0.2765  0.9605
   63CHL1    H6 7078   4.761   3.530   9.982  0.7065  0.1080  0.4503
   63CHL1    C7 7079   4.693   3.435   9.792 -0.5023 -0.1531  0.3724
   63CHL1   H7A 7080   4.718   3.534   9.748 -0.8357 -0.4353 -0.4743
   63CHL1   H7B 7081   4.779   3.373   9.759 -0.4362 -0.2813  0.7757
   63CHL1    C8 7082   4.555   3.374   9.743 -0.6795  0.4921  0.1921
   63CHL1    H8 7083   4.475   3.449   9.763  0.6020  1.5337  1.6493
   63CHL1   C14 7084   4.566   3.337   9.591 -0.3972  0.1250 -0.3055
   63CHL1   H14 7085   4.653   3.270   9.577  1.3163  2.1723 -0.0011
   63CHL1   C15 7086   4.605   3.451   9.499 -0.3002  1.2885  0.0700
   63CHL1  H15A 7087   4.551   3.541   9.534  0.8722  2.3761 -0.8250
   63CHL1  H15B 7088   4.711   3.482   9.504 -0.7253  3.1723 -1.4293
   63CHL1   C16 7089   4.572   3.396   9.365 -0.0039 -0.5366  1.0604
   63CHL1  H16A 7090   4.522   3.469   9.299  1.7150 -0.8152 -0.6178
   63CHL1  H16B 7091   4.670   3.388   9.314 -0.3289  2.1790 -0.1515
   63CHL1   C17 7092   4.494   3.262   9.392  0.1123 -0.7603  0.7946
   63CHL1   H17 7093   4.576   3.188   9.384  0.7779  0.0768 -0.6179
   63CHL1   C13 7094   4.441   3.276   9.537  0.0061  0.4463  0.3435
   63CHL1   C18 7095   4.323   3.379   9.535 -0.6656 -0.2611  0.3539
   63CHL1  H18A 7096   4.343   3.474   9.481 -1.0554 -0.2774  0.1776
   63CHL1  H18B 7097   4.232   3.332   9.492 -0.1625 -1.5183  0.6094
   63CHL1  H18C 7098   4.293   3.399   9.640  1.8387  2.4539  0.6769
   63CHL1   C12 7099   4.423   3.137   9.607 -0.0511 -0.6462  0.4588
   63CHL1  H12A 7100   4.332   3.079   9.581 -1.3673  1.8628 -0.9445
   63CHL1  H12B 7101   4.512   3.075   9.581  0.2076  0.3802 -1.3366
   63CHL1   C11 7102   4.412   3.157   9.759  0.0170  0.2807 -0.6669
   63CHL1  H11A 7103   4.312   3.194   9.791  0.5838  2.1038 -0.8799
   63CHL1  H11B 7104   4.401   3.054   9.800 -0.4407  1.5143  2.6261
   63CHL1    C9 7105   4.523   3.245   9.826  0.1471 -0.0323  0.4201
   63CHL1    H9 7106   4.622   3.195   9.822  1.0575  1.7894 -1.5363
   63CHL1   C10 7107   4.499   3.284   9.981 -0.1121 -0.6440  0.2822
   63CHL1   C19 7108   4.356   3.336  10.003 -0.1723  0.0945 -0.2870
   63CHL1  H19A 7109   4.346   3.364  10.110  1.4481  1.3203 -0.4070
   63CHL1  H19B 7110   4.338   3.430   9.946  1.2386 -0.1738 -1.2401
   63CHL1  H19C 7111   4.284   3.256   9.974  0.8567 -0.0850 -2.6008
   63CHL1    C1 7112   4.518   3.160  10.072 -0.6892 -0.2207 -0.4462
   63CHL1   H1A 7113   4.434   3.090  10.055 -1.3947 -0.5266  3.4375
   63CHL1   H1B 7114   4.614   3.114  10.041  0.4159  1.4320  0.3808
   63CHL1    C2 7115   4.531   3.183  10.215 -0.0420 -0.1722 -0.2165
   63CHL1   H2A 7116   4.543   3.091  10.276 -2.0336  0.5171  1.3480
   63CHL1   H2B 7117   4.436   3.224  10.256  1.2644 -0.0101  2.9088
   63CHL1   C20 7118   4.386   3.210   9.296 -0.2307 -0.8538  0.1582
   63CHL1   H20 7119   4.307   3.163   9.360 -0.8515 -0.1423 -0.0658
   63CHL1   C21 7120   4.444   3.088   9.225 -0.0186  0.4741 -0.5547
   63CHL1  H21A 7121   4.475   3.014   9.302  0.3666 -0.3949 -1.5114
   63CHL1  H21B 7122   4.521   3.125   9.153  0.9175 -0.5227 -0.1024
   63CHL1  H21C 7123   4.371   3.043   9.154 -0.4460  2.9974 -1.8286
   63CHL1   C22 7124   4.329   3.308   9.190  0.0625 -0.1470  0.0043
   63CHL1  H22A 7125   4.295   3.405   9.231 -0.4732 -0.0799 -0.5780
   63CHL1  H22B 7126   4.411   3.322   9.116  1.0081 -0.0974  1.0374
   63CHL1   C23 7127   4.208   3.239   9.121 -0.1887  0.3959  0.2530
   63CHL1  H23A 7128   4.227   3.131   9.100  0.8070  0.2007  1.9090
   63CHL1  H23B 7129   4.119   3.240   9.188 -0.9894  0.4773 -0.7942
   63CHL1   C24 7130   4.163   3.315   8.994  0.0019  0.0445 -0.2756
   63CHL1  H24A 7131   4.146   3.417   9.034  0.8057  0.8431 -1.8967
   63CHL1  H24B 7132   4.240   3.328   8.915 -1.2538  1.3493 -1.3380
   63CHL1   C25 7133   4.026   3.261   8.941 -0.1348 -0.3306  0.3412
   63CHL1   H25 7134   3.951   3.244   9.022 -0.9798  0.8584 -0.1509
   63CHL1   C26 7135   3.962   3.365   8.848 -0.8837  0.1643  0.1540
   63CHL1  H26A 7136   3.866   3.329   8.805  0.9101 -1.0192 -3.2727
   63CHL1  H26B 7137   3.938   3.450   8.916  1.8917 -1.1407  3.0238
   63CHL1  H26C 7138   4.035   3.407   8.776 -0.5452  0.6084  0.7442
   63CHL1   C27 7139   4.044   3.140   8.865 -0.6749 -0.4193 -0.0032
   63CHL1  H27A 7140   4.123   3.148   8.787  0.1453 -0.1153  0.8508
   63CHL1  H27B 7141   4.071   3.064   8.940 -1.4004  0.9845  1.7543
   63CHL1  H27C 7142   3.950   3.104   8.817  0.2853 -0.6122 -1.8397
   64CHL1    C3 7143   4.098   4.494   9.984 -0.0884  0.5175 -0.1687
   64CHL1    H3 7144   4.109   4.390   9.946 -2.8724 -0.0762  0.3801
   64CHL1    O3 7145   4.110   4.491  10.129  0.2413  0.3232 -0.1442
   64CHL1   H3' 7146   4.080   4.579  10.152 -1.3123 -0.0053 -0.7814
   64CHL1    C4 7147   4.212   4.572   9.923 -0.7186  0.1147 -0.3512
   64CHL1   H4A 7148   4.205   4.672   9.970 -2.1695 -0.2195  0.1978
   64CHL1   H4B 7149   4.302   4.518   9.959 -1.4789 -0.2811  1.0310
   64CHL1    C5 7150   4.186   4.578   9.776  0.2834 -0.2402  0.2299
   64CHL1    C6 7151   4.284   4.530   9.692 -0.0487 -0.2965  0.0437
   64CHL1    H6 7152   4.380   4.505   9.739  0.6677  0.0822 -1.1669
   64CHL1    C7 7153   4.281   4.542   9.549 -0.8771  0.5706  0.5331
   64CHL1   H7A 7154   4.383   4.573   9.518 -1.1799  2.6435  1.4547
   64CHL1   H7B 7155   4.248   4.445   9.504 -1.1484  1.0639 -0.3519
   64CHL1    C8 7156   4.174   4.639   9.497 -0.4404  0.3507 -0.4963
   64CHL1    H8 7157   4.214   4.743   9.505  2.1007 -0.4163 -2.1969
   64CHL1   C14 7158   4.154   4.613   9.345 -0.3784  0.1050 -0.0780
   64CHL1   H14 7159   4.128   4.506   9.332 -1.6814 -0.0219  2.8838
   64CHL1   C15 7160   4.279   4.639   9.250 -0.2187  0.0712 -0.2536
   64CHL1  H15A 7161   4.342   4.721   9.289  1.3922 -0.2816 -1.9728
   64CHL1  H15B 7162   4.342   4.548   9.257 -1.0288 -0.6136 -1.4982
   64CHL1   C16 7163   4.223   4.666   9.110  0.1079 -0.2134 -0.0222
   64CHL1  H16A 7164   4.265   4.767   9.091 -0.1575  0.3968  2.3183
   64CHL1  H16B 7165   4.271   4.602   9.033 -0.7846 -1.3337  0.3255
   64CHL1   C17 7166   4.070   4.664   9.124  0.9509  0.2255  0.1761
   64CHL1   H17 7167   4.045   4.557   9.110  1.0582  0.2005  0.1754
   64CHL1   C13 7168   4.043   4.697   9.273 -0.7024  0.2761  0.0456
   64CHL1   C18 7169   4.063   4.850   9.285 -0.1981 -0.8759 -0.1717
   64CHL1  H18A 7170   3.974   4.902   9.244  2.2070  3.0429 -0.9662
   64CHL1  H18B 7171   4.063   4.890   9.389 -0.6245 -3.3370  0.8643
   64CHL1  H18C 7172   4.154   4.889   9.236 -0.5516  1.2097  0.7301
   64CHL1   C12 7173   3.912   4.666   9.343  0.0528 -0.0113  0.4914
   64CHL1  H12A 7174   3.822   4.716   9.300 -0.2901 -0.1433  1.0552
   64CHL1  H12B 7175   3.896   4.557   9.336 -0.9434  0.1949 -1.3291
   64CHL1   C11 7176   3.922   4.697   9.496 -0.2322 -0.0630 -0.7577
   64CHL1  H11A 7177   3.930   4.807   9.507 -0.2006 -0.0944 -0.4534
   64CHL1  H11B 7178   3.825   4.664   9.539 -0.9076  0.8999 -1.4893
   64CHL1    C9 7179   4.038   4.618   9.569  0.3257  0.0391 -0.0857
   64CHL1    H9 7180   4.018   4.510   9.550 -1.9759  0.0448  1.7643
   64CHL1   C10 7181   4.050   4.629   9.725  1.4978  1.3193  1.1232
   64CHL1   C19 7182   4.028   4.780   9.760 -0.1040  0.3374 -0.0109
   64CHL1  H19A 7183   3.924   4.817   9.754  0.5970  2.4247 -0.1378
   64CHL1  H19B 7184   4.056   4.805   9.864  1.0679 -3.8807  0.8800
   64CHL1  H19C 7185   4.090   4.840   9.690  1.2545  0.3729  1.1932
   64CHL1    C1 7186   3.942   4.539   9.787  0.3382  0.8294 -0.2918
   64CHL1   H1A 7187   3.839   4.569   9.757 -0.3787 -0.3116  0.9522
   64CHL1   H1B 7188   3.963   4.438   9.745 -0.3768  0.1329  0.9656
   64CHL1    C2 7189   3.949   4.533   9.939 -0.5267 -0.3667 -1.2169
   64CHL1   H2A 7190   3.878   4.461   9.984  0.4929 -1.7788 -1.7768
   64CHL1   H2B 7191   3.932   4.634   9.983  2.5853  1.4416 -3.6674
   64CHL1   C20 7192   3.996   4.744   9.016 -0.8453  0.2658 -0.4564
   64CHL1   H20 7193   3.979   4.848   9.049  0.4891 -0.3701  2.5525
   64CHL1   C21 7194   3.857   4.673   8.998 -0.6644  0.8933 -0.0813
   64CHL1  H21A 7195   3.803   4.727   8.917 -0.2724  0.5691 -0.5698
   64CHL1  H21B 7196   3.787   4.678   9.084 -0.2188  1.1184  0.2692
   64CHL1  H21C 7197   3.872   4.566   8.970 -0.0151  0.8662  0.3347
   64CHL1   C22 7198   4.069   4.749   8.876 -0.6007  0.4052  0.4420
   64CHL1  H22A 7199   4.180   4.751   8.877 -0.4254 -2.9463  0.1520
   64CHL1  H22B 7200   4.045   4.654   8.823 -1.3594  1.2321 -0.7459
   64CHL1   C23 7201   4.033   4.857   8.777  0.1077  0.1424 -0.5587
   64CHL1  H23A 7202   3.926   4.888   8.774 -0.1429 -0.7204 -0.6193
   64CHL1  H23B 7203   4.092   4.939   8.823 -1.6567  0.5004  1.1849
   64CHL1   C24 7204   4.095   4.835   8.636  0.3128  0.6286 -0.2601
   64CHL1  H24A 7205   4.203   4.821   8.654  0.4694  1.3676 -0.6147
   64CHL1  H24B 7206   4.044   4.744   8.598 -0.5357  1.1452 -0.4014
   64CHL1   C25 7207   4.076   4.960   8.546  1.1246 -0.0010 -0.0387
   64CHL1   H25 7208   4.071   5.041   8.622 -1.3757 -1.0001  0.9583
   64CHL1   C26 7209   4.195   4.987   8.450  0.1334 -0.0955 -0.4464
   64CHL1  H26A 7210   4.242   4.895   8.409 -2.3079 -0.7447 -2.0222
   64CHL1  H26B 7211   4.149   5.036   8.362 -0.2859 -3.1075 -2.0416
   64CHL1  H26C 7212   4.271   5.038   8.513 -0.1012  0.6575 -0.7614
   64CHL1   C27 7213   3.946   4.975   8.472 -0.9008 -0.2428  0.1034
   64CHL1  H27A 7214   3.864   4.985   8.546  1.2205 -0.5290  2.6371
   64CHL1  H27B 7215   3.950   5.064   8.406 -2.5298 -0.6656 -0.6037
   64CHL1  H27C 7216   3.919   4.886   8.412 -1.9116  0.0098  0.1754
   65CHL1    C3 7217   5.290   0.471  10.223  0.0963 -0.5864 -0.0540
   65CHL1    H3 7218   5.182   0.488  10.205 -0.1324 -2.1936 -0.3347
   65CHL1    O3 7219   5.303   0.466  10.367  0.4010  0.2226 -0.2290
   65CHL1   H3' 7220   5.397   0.449  10.373  0.6276  0.9459 -1.4097
   65CHL1    C4 7221   5.329   0.337  10.166 -0.4060  0.1191  0.2812
   65CHL1   H4A 7222   5.433   0.310  10.196 -1.6104 -3.0109  2.0851
   65CHL1   H4B 7223   5.256   0.260  10.200  0.1232  0.1054  1.4226
   65CHL1    C5 7224   5.325   0.343  10.017  0.2735  0.0734  0.4338
   65CHL1    C6 7225   5.240   0.257   9.944  0.2897 -0.5256 -0.2711
   65CHL1    H6 7226   5.185   0.178   9.997  0.0263  0.0273  0.2921
   65CHL1    C7 7227   5.235   0.249   9.792 -0.6237 -0.1747  0.4568
   65CHL1   H7A 7228   5.236   0.141   9.766 -1.2020 -0.1110  0.1799
   65CHL1   H7B 7229   5.146   0.307   9.761  0.3466  1.7146  1.0302
   65CHL1    C8 7230   5.355   0.325   9.725 -0.5734  0.2646 -0.1777
   65CHL1    H8 7231   5.443   0.257   9.732 -0.3727  0.5567  0.1241
   65CHL1   C14 7232   5.327   0.356   9.574 -0.3158  0.4995 -0.2501
   65CHL1   H14 7233   5.242   0.428   9.574 -0.7517 -0.0072 -0.7764
   65CHL1   C15 7234   5.276   0.248   9.481  0.7696  1.1720  0.2846
   65CHL1  H15A 7235   5.327   0.153   9.507 -0.6743 -0.5754 -2.7292
   65CHL1  H15B 7236   5.170   0.222   9.501  1.6342 -2.3054  0.9929
   65CHL1   C16 7237   5.297   0.310   9.346 -0.2592  0.7246 -0.2991
   65CHL1  H16A 7238   5.359   0.232   9.298 -0.7495  1.8271 -2.9112
   65CHL1  H16B 7239   5.208   0.331   9.282  0.4211  1.3282 -1.0649
   65CHL1   C17 7240   5.389   0.438   9.362 -0.2123  0.8142 -0.8527
   65CHL1   H17 7241   5.322   0.527   9.367  0.1298  0.9944  2.9065
   65CHL1   C13 7242   5.452   0.417   9.499  0.4486 -0.4163 -0.2676
   65CHL1   C18 7243   5.570   0.319   9.489  0.1680  0.3410 -0.1416
   65CHL1  H18A 7244   5.636   0.310   9.579  0.9523 -1.5294 -0.8413
   65CHL1  H18B 7245   5.550   0.217   9.448  2.7991  0.1817 -1.2194
   65CHL1  H18C 7246   5.641   0.360   9.414 -0.0841 -0.1774 -0.6732
   65CHL1   C12 7247   5.486   0.551   9.569 -0.0209  0.3165 -0.4306
   65CHL1  H12A 7248   5.559   0.607   9.506 -1.7627 -0.0241 -2.9329
   65CHL1  H12B 7249   5.402   0.623   9.560 -0.0022  0.5860  1.2284
   65CHL1   C11 7250   5.510   0.536   9.714 -0.0663 -0.3586 -0.3936
   65CHL1  H11A 7251   5.604   0.477   9.724 -1.7127 -3.0062  0.6924
   65CHL1  H11B 7252   5.529   0.635   9.761  3.0702 -0.8289 -0.4545
   65CHL1    C9 7253   5.397   0.463   9.790  0.2017  0.3391  0.1796
   65CHL1    H9 7254   5.307   0.525   9.775  0.0588 -0.3957 -2.5457
   65CHL1   C10 7255   5.409   0.458   9.944 -0.0752  0.4604  0.2994
   65CHL1   C19 7256   5.556   0.413   9.976 -0.7429 -0.2275 -0.3751
   65CHL1  H19A 7257   5.570   0.399  10.086  1.0306  0.7625 -0.4462
   65CHL1  H19B 7258   5.579   0.315   9.928  0.9296  1.0105 -2.2390
   65CHL1  H19C 7259   5.628   0.491   9.944 -0.6112 -0.5147 -0.7777
   65CHL1    C1 7260   5.377   0.594  10.015  0.0994 -0.6323 -0.6472
   65CHL1   H1A 7261   5.446   0.675   9.982 -0.1060  0.4948  1.5253
   65CHL1   H1B 7262   5.273   0.612   9.981 -0.7801 -1.5467  1.4289
   65CHL1    C2 7263   5.375   0.591  10.170  0.5361 -0.3099  1.0169
   65CHL1   H2A 7264   5.329   0.683  10.212  1.6310 -0.0501  1.6777
   65CHL1   H2B 7265   5.480   0.580  10.206  0.8893  1.3896  0.6176
   65CHL1   C20 7266   5.468   0.452   9.233 -1.2374 -0.5489 -0.5739
   65CHL1   H20 7267   5.537   0.365   9.225 -0.0989  0.1658  0.9736
   65CHL1   C21 7268   5.567   0.577   9.251 -0.1462  0.8771  0.8252
   65CHL1  H21A 7269   5.614   0.592   9.151 -2.9652 -1.1178 -0.9568
   65CHL1  H21B 7270   5.644   0.546   9.326 -1.8521 -1.5925  1.7010
   65CHL1  H21C 7271   5.510   0.667   9.282 -0.9751  0.9680 -0.8407
   65CHL1   C22 7272   5.405   0.460   9.095 -0.1745  0.3633  0.4899
   65CHL1  H22A 7273   5.320   0.392   9.075  1.1069 -0.6238 -2.0894
   65CHL1  H22B 7274   5.362   0.560   9.073  1.0895  0.7941 -0.1504
   65CHL1   C23 7275   5.496   0.420   8.973 -0.2808 -0.9127  0.2895
   65CHL1  H23A 7276   5.585   0.486   8.974  1.1113 -2.6981 -0.8273
   65CHL1  H23B 7277   5.533   0.317   8.989  1.1008 -0.4639  0.1543
   65CHL1   C24 7278   5.415   0.410   8.845  0.2146  0.1048  0.2730
   65CHL1  H24A 7279   5.339   0.329   8.855 -0.4069  0.7443  0.8441
   65CHL1  H24B 7280   5.357   0.502   8.827 -0.1756  0.1500  1.6670
   65CHL1   C25 7281   5.507   0.384   8.723 -0.6637 -0.3379  0.3734
   65CHL1   H25 7282   5.573   0.298   8.744  0.0713  0.4182  1.2531
   65CHL1   C26 7283   5.423   0.344   8.601 -0.3695  0.0582  0.8594
   65CHL1  H26A 7284   5.356   0.260   8.627 -1.8434  0.5439 -1.1671
   65CHL1  H26B 7285   5.355   0.427   8.573  0.9945  1.0498  0.3332
   65CHL1  H26C 7286   5.485   0.315   8.514  0.0467 -1.0175  1.5005
   65CHL1   C27 7287   5.590   0.507   8.687 -0.0964 -0.5478 -0.5801
   65CHL1  H27A 7288   5.661   0.532   8.769 -0.9871 -0.5259  0.1928
   65CHL1  H27B 7289   5.658   0.485   8.602  0.0206  0.0358 -0.6404
   65CHL1  H27C 7290   5.524   0.594   8.672 -0.3681 -0.7718 -0.7016
   66CHL1    C3 7291   3.116   5.832  10.278  0.2777 -0.0890  0.7771
   66CHL1    H3 7292   3.133   5.723  10.292  0.1889 -0.0379  1.2769
   66CHL1    O3 7293   3.099   5.884  10.412 -0.4271 -0.1028 -0.8566
   66CHL1   H3' 7294   3.037   5.822  10.449 -0.8600 -0.0071 -1.4020
   66CHL1    C4 7295   3.236   5.896  10.198  0.4035  0.3952 -0.2073
   66CHL1   H4A 7296   3.224   6.005  10.211  0.7059  0.4962 -0.7001
   66CHL1   H4B 7297   3.331   5.870  10.250  0.2139 -1.7852 -0.8069
   66CHL1    C5 7298   3.260   5.870  10.049 -0.2893  0.3550  0.3849
   66CHL1    C6 7299   3.373   5.823   9.992 -0.4688  0.1162 -0.0551
   66CHL1    H6 7300   3.458   5.822  10.062 -0.4669  0.6031 -0.0492
   66CHL1    C7 7301   3.392   5.801   9.844 -0.1967  0.2451 -0.3611
   66CHL1   H7A 7302   3.493   5.843   9.825  0.5760 -0.1497  2.4823
   66CHL1   H7B 7303   3.386   5.692   9.823 -0.1868  0.1654  0.0465
   66CHL1    C8 7304   3.287   5.870   9.765 -0.2902 -0.1551  0.3754
   66CHL1    H8 7305   3.312   5.978   9.768  3.0083 -0.7990 -0.2835
   66CHL1   C14 7306   3.278   5.822   9.623 -0.0345 -0.0512  0.9195
   66CHL1   H14 7307   3.226   5.724   9.632 -1.3295  0.7143  2.1192
   66CHL1   C15 7308   3.413   5.803   9.547  1.1110  0.1991 -0.4451
   66CHL1  H15A 7309   3.469   5.897   9.564 -2.6892  2.3649  1.5244
   66CHL1  H15B 7310   3.471   5.715   9.584  0.8631 -0.1496 -0.8784
   66CHL1   C16 7311   3.367   5.785   9.403 -0.4598 -0.5308  0.6179
   66CHL1  H16A 7312   3.435   5.834   9.330 -0.6368 -0.2752  0.6221
   66CHL1  H16B 7313   3.370   5.677   9.375  1.1111 -1.0799  2.6818
   66CHL1   C17 7314   3.212   5.823   9.394 -0.2339  0.3015 -0.1204
   66CHL1   H17 7315   3.153   5.730   9.405 -0.7972  0.6448 -0.1475
   66CHL1   C13 7316   3.177   5.893   9.527 -0.1072  0.1293 -0.2440
   66CHL1   C18 7317   3.214   6.038   9.508  0.4213 -0.2694 -0.2141
   66CHL1  H18A 7318   3.147   6.083   9.431  0.6429 -0.9977 -0.8377
   66CHL1  H18B 7319   3.196   6.096   9.602 -0.5268  0.8606 -1.0611
   66CHL1  H18C 7320   3.318   6.061   9.478 -0.1572  0.7152 -1.5649
   66CHL1   C12 7321   3.037   5.869   9.583  0.2298  0.0086 -0.1765
   66CHL1  H12A 7322   2.963   5.927   9.524  0.0518  0.7077  0.7149
   66CHL1  H12B 7323   3.013   5.760   9.590 -0.7540  0.3260  2.8980
   66CHL1   C11 7324   3.027   5.906   9.731  0.1379 -0.3607  0.0977
   66CHL1  H11A 7325   3.017   6.017   9.731 -4.1197 -0.5839 -1.2393
   66CHL1  H11B 7326   2.926   5.878   9.769  0.1768  1.7234  1.9758
   66CHL1    C9 7327   3.141   5.858   9.826 -0.4096  0.2349  0.4771
   66CHL1    H9 7328   3.126   5.748   9.828  3.1889 -0.3791 -0.0452
   66CHL1   C10 7329   3.127   5.896   9.972  0.5588  0.0679 -0.2865
   66CHL1   C19 7330   3.095   6.044   9.970  0.5349 -0.0778 -0.1894
   66CHL1  H19A 7331   3.177   6.088   9.910  0.0753 -1.4070 -1.8715
   66CHL1  H19B 7332   2.999   6.065   9.919 -0.3296  0.6989  1.6587
   66CHL1  H19C 7333   3.093   6.100  10.066  0.5694 -0.7875  0.2290
   66CHL1    C1 7334   3.012   5.820  10.051  0.1778  0.3738  0.7749
   66CHL1   H1A 7335   2.920   5.818   9.989  0.3630 -3.9917  0.3654
   66CHL1   H1B 7336   3.040   5.713  10.042 -3.4377 -0.5905 -0.8701
   66CHL1    C2 7337   2.990   5.852  10.197 -0.0152 -0.0918 -0.1526
   66CHL1   H2A 7338   2.914   5.776  10.224 -0.3762 -0.4095 -1.8931
   66CHL1   H2B 7339   2.929   5.942  10.221 -1.3681 -0.9265 -0.3358
   66CHL1   C20 7340   3.157   5.877   9.258 -0.0240  0.2380 -0.2122
   66CHL1   H20 7341   3.060   5.928   9.279  0.4763  0.5296  1.5838
   66CHL1   C21 7342   3.119   5.747   9.175  0.2998 -0.3970  0.3348
   66CHL1  H21A 7343   3.048   5.691   9.239  0.1608 -3.6380 -2.3763
   66CHL1  H21B 7344   3.203   5.677   9.159  0.8608 -0.0074  1.4758
   66CHL1  H21C 7345   3.063   5.764   9.080  0.0724  0.6613  0.6388
   66CHL1   C22 7346   3.247   5.979   9.186 -0.3006  0.3226 -0.1111
   66CHL1  H22A 7347   3.267   6.075   9.239 -0.2687  0.3836 -0.2316
   66CHL1  H22B 7348   3.347   5.931   9.174  0.0582  1.0482 -0.0880
   66CHL1   C23 7349   3.189   6.021   9.052  0.3541  0.1987 -1.0200
   66CHL1  H23A 7350   3.179   5.936   8.981  0.1659  1.6209 -2.7687
   66CHL1  H23B 7351   3.085   6.052   9.079  0.8196  0.4983  0.5207
   66CHL1   C24 7352   3.255   6.137   8.973 -0.5272 -0.2829  0.4137
   66CHL1  H24A 7353   3.282   6.219   9.043 -1.1094 -2.0819  2.9170
   66CHL1  H24B 7354   3.350   6.097   8.932 -0.7450 -0.4251  0.0523
   66CHL1   C25 7355   3.178   6.178   8.856  0.3180 -0.3477 -0.4179
   66CHL1   H25 7356   3.070   6.179   8.883  0.3785  1.0341 -0.1417
   66CHL1   C26 7357   3.211   6.329   8.827 -0.6970 -0.7506  0.4416
   66CHL1  H26A 7358   3.156   6.373   8.741 -1.8216  1.9090  2.3615
   66CHL1  H26B 7359   3.172   6.393   8.909  2.5832  1.2450  0.6346
   66CHL1  H26C 7360   3.318   6.336   8.797 -1.4373 -0.3639 -2.4594
   66CHL1   C27 7361   3.182   6.087   8.733 -0.1983  0.1136 -0.3246
   66CHL1  H27A 7362   3.127   6.128   8.646  1.0311 -1.3894 -1.8653
   66CHL1  H27B 7363   3.289   6.072   8.706  0.1393 -3.6736  2.2983
   66CHL1  H27C 7364   3.141   5.986   8.754 -1.7227  0.9420  0.9402
   67CHL1    C3 7365   2.120   2.342  10.177 -0.0613 -0.7354  0.2329
   67CHL1    H3 7366   2.168   2.242  10.177 -1.0591 -1.2332  0.0890
   67CHL1    O3 7367   2.095   2.361  10.318 -0.4135 -0.2393 -0.4709
   67CHL1   H3' 7368   2.060   2.450  10.333  0.8698  0.7367 -2.7347
   67CHL1    C4 7369   2.219   2.440  10.122  0.6019 -0.6584  0.0047
   67CHL1   H4A 7370   2.169   2.539  10.113 -0.6696 -1.3627 -1.0507
   67CHL1   H4B 7371   2.307   2.446  10.189 -0.1748 -2.0835  1.2220
   67CHL1    C5 7372   2.264   2.409   9.978 -0.4590 -0.0879 -1.1837
   67CHL1    C6 7373   2.391   2.383   9.947  0.1522  0.2326 -0.5458
   67CHL1    H6 7374   2.467   2.385  10.027 -0.9395  0.4011  0.5061
   67CHL1    C7 7375   2.443   2.337   9.816  0.7698  0.1791 -0.2078
   67CHL1   H7A 7376   2.537   2.385   9.782 -0.0999  0.9942 -1.5790
   67CHL1   H7B 7377   2.457   2.226   9.815 -0.9575 -0.0956  1.1276
   67CHL1    C8 7378   2.337   2.373   9.705  0.3524  0.2932 -0.4423
   67CHL1    H8 7379   2.339   2.484   9.698  0.7785  0.3150 -0.0197
   67CHL1   C14 7380   2.380   2.307   9.577  0.0836 -0.0089  0.6358
   67CHL1   H14 7381   2.383   2.197   9.592 -3.2871 -0.2873  0.0368
   67CHL1   C15 7382   2.525   2.336   9.530 -0.4860 -0.2254 -0.4893
   67CHL1  H15A 7383   2.539   2.446   9.531  0.2794 -0.3176 -0.3397
   67CHL1  H15B 7384   2.597   2.293   9.603  0.0887  0.8217 -0.4125
   67CHL1   C16 7385   2.521   2.282   9.390 -0.5790 -0.2333  0.5252
   67CHL1  H16A 7386   2.549   2.369   9.327  1.6799 -2.1089 -1.2587
   67CHL1  H16B 7387   2.589   2.195   9.386  2.2970  1.7521  2.4963
   67CHL1   C17 7388   2.370   2.250   9.352 -0.2769 -0.0098  0.3850
   67CHL1   H17 7389   2.351   2.140   9.358 -0.2701 -0.0264  0.1223
   67CHL1   C13 7390   2.283   2.324   9.461  0.3048  0.4632 -0.1335
   67CHL1   C18 7391   2.261   2.476   9.434 -0.2346 -0.1975  0.7455
   67CHL1  H18A 7392   2.216   2.522   9.525  0.1204  1.7872 -0.0340
   67CHL1  H18B 7393   2.349   2.536   9.401 -1.1275  0.0010 -1.4061
   67CHL1  H18C 7394   2.188   2.495   9.353  0.5896 -0.4973 -0.0809
   67CHL1   C12 7395   2.156   2.257   9.499  0.6766  0.3757 -0.1133
   67CHL1  H12A 7396   2.075   2.284   9.428 -0.2066 -0.1796  0.6588
   67CHL1  H12B 7397   2.174   2.148   9.506 -0.9971  0.1286  0.9223
   67CHL1   C11 7398   2.093   2.316   9.628  0.4838  0.5090  0.0471
   67CHL1  H11A 7399   2.062   2.422   9.617  0.9377  1.0613  3.2177
   67CHL1  H11B 7400   2.009   2.247   9.647  0.8659 -0.3882 -1.3455
   67CHL1    C9 7401   2.198   2.324   9.747 -0.5068  0.5094  0.4565
   67CHL1    H9 7402   2.203   2.217   9.778  1.4370  0.0993 -1.0393
   67CHL1   C10 7403   2.151   2.393   9.873 -0.9443  0.0924  0.0793
   67CHL1   C19 7404   2.097   2.536   9.835  0.1068  0.5571  0.4018
   67CHL1  H19A 7405   1.999   2.516   9.787 -0.2444 -0.3334  1.4525
   67CHL1  H19B 7406   2.072   2.586   9.931  1.5586  0.5287  0.8097
   67CHL1  H19C 7407   2.171   2.598   9.779  1.0826 -0.3084  0.7074
   67CHL1    C1 7408   2.036   2.311   9.947 -0.3280  0.8682  1.0703
   67CHL1   H1A 7409   1.947   2.310   9.881  0.6050  0.3880 -0.2268
   67CHL1   H1B 7410   2.069   2.205   9.942 -0.9737  0.7186 -1.7685
   67CHL1    C2 7411   1.993   2.341  10.086  0.3635 -0.6742 -0.3776
   67CHL1   H2A 7412   1.924   2.260  10.119  2.3960 -1.8244  1.3013
   67CHL1   H2B 7413   1.945   2.441  10.098  0.9344 -0.3171 -1.0173
   67CHL1   C20 7414   2.340   2.275   9.201 -0.2804 -0.2016 -0.5193
   67CHL1   H20 7415   2.348   2.385   9.190 -1.2611 -0.0449  0.1597
   67CHL1   C21 7416   2.196   2.236   9.165  0.0186  0.3260 -0.1921
   67CHL1  H21A 7417   2.171   2.142   9.219  1.4181  0.2558  0.3654
   67CHL1  H21B 7418   2.191   2.212   9.057  2.9555  0.9632 -0.5401
   67CHL1  H21C 7419   2.119   2.311   9.193 -0.5527 -0.9702  2.0255
   67CHL1   C22 7420   2.451   2.206   9.127 -0.3650 -0.6008  0.2220
   67CHL1  H22A 7421   2.551   2.236   9.167  0.2770 -2.2672 -0.0555
   67CHL1  H22B 7422   2.447   2.095   9.136 -0.2533 -0.5654  0.7225
   67CHL1   C23 7423   2.461   2.234   8.973 -0.1286  0.9647 -0.9410
   67CHL1  H23A 7424   2.361   2.207   8.932 -0.1605  0.8484 -0.7878
   67CHL1  H23B 7425   2.480   2.342   8.953  0.1245  0.6898 -2.2999
   67CHL1   C24 7426   2.566   2.148   8.903  0.9538 -0.2764  0.0881
   67CHL1  H24A 7427   2.667   2.193   8.921 -0.2857  2.1883  1.4553
   67CHL1  H24B 7428   2.556   2.044   8.940 -0.6234 -0.1347  0.1328
   67CHL1   C25 7429   2.552   2.146   8.753  0.4067 -0.2510  0.7504
   67CHL1   H25 7430   2.447   2.111   8.744  1.0633 -2.7773  2.0584
   67CHL1   C26 7431   2.556   2.284   8.690  0.3401 -0.9816 -0.1956
   67CHL1  H26A 7432   2.488   2.350   8.748 -1.5139 -2.2223 -0.8683
   67CHL1  H26B 7433   2.657   2.328   8.704 -0.3380  0.5798  0.0487
   67CHL1  H26C 7434   2.524   2.292   8.584 -1.4096  0.6456  0.3934
   67CHL1   C27 7435   2.655   2.065   8.684  0.2227  0.4582  0.1553
   67CHL1  H27A 7436   2.661   1.971   8.742 -1.0036  0.2276 -0.0667
   67CHL1  H27B 7437   2.620   2.038   8.582 -0.6007  0.9219  0.3059
   67CHL1  H27C 7438   2.757   2.109   8.672  1.2821 -2.2615 -2.0934
   68CHL1    C3 7439   6.246   1.288  10.136 -0.2264  0.3807  0.0073
   68CHL1    H3 7440   6.247   1.396  10.113  0.2261  0.2879 -0.4223
   68CHL1    O3 7441   6.251   1.266  10.272 -0.1210  0.1121 -0.0938
   68CHL1   H3' 7442   6.232   1.172  10.278 -3.1673  0.4316 -2.1710
   68CHL1    C4 7443   6.124   1.218  10.065 -0.3409  0.0308 -0.5786
   68CHL1   H4A 7444   6.119   1.110  10.089  0.2039 -0.1724 -1.3206
   68CHL1   H4B 7445   6.034   1.267  10.108  0.5280  0.6841  0.5657
   68CHL1    C5 7446   6.129   1.235   9.912  0.1733 -0.6406  0.3049
   68CHL1    C6 7447   6.029   1.279   9.835 -0.7085 -0.0517 -0.6653
   68CHL1    H6 7448   5.938   1.316   9.886  0.5229  2.9395 -0.4540
   68CHL1    C7 7449   6.035   1.305   9.691 -0.4652  0.0068 -0.7651
   68CHL1   H7A 7450   5.937   1.280   9.644 -0.8924  1.9827 -1.0264
   68CHL1   H7B 7451   6.051   1.413   9.669 -0.3120  0.8717  2.9691
   68CHL1    C8 7452   6.151   1.231   9.625 -1.7998 -0.0874  0.2092
   68CHL1    H8 7453   6.114   1.128   9.609 -1.0088 -0.1526 -1.3801
   68CHL1   C14 7454   6.166   1.293   9.482  0.4216 -0.2353 -0.0677
   68CHL1   H14 7455   6.200   1.398   9.498 -0.5356 -0.1070  1.2967
   68CHL1   C15 7456   6.041   1.309   9.395  0.1125  0.2865 -0.7423
   68CHL1  H15A 7457   5.967   1.229   9.416 -0.2917  0.3043 -2.0648
   68CHL1  H15B 7458   5.989   1.406   9.404 -0.1811  0.1931 -1.3797
   68CHL1   C16 7459   6.095   1.305   9.253  0.6228 -0.0304  0.6718
   68CHL1  H16A 7460   6.049   1.217   9.204  0.3723 -0.0062  0.8621
   68CHL1  H16B 7461   6.061   1.391   9.192  0.9726 -1.5364 -1.8147
   68CHL1   C17 7462   6.246   1.290   9.260  0.1400  0.1620  0.0311
   68CHL1   H17 7463   6.291   1.392   9.261  2.3716 -0.7217 -1.5454
   68CHL1   C13 7464   6.274   1.231   9.398 -0.1000 -0.6504  0.4425
   68CHL1   C18 7465   6.250   1.080   9.383  0.7063 -0.3859 -0.1961
   68CHL1  H18A 7466   6.155   1.067   9.327 -1.0577  2.5382  1.8674
   68CHL1  H18B 7467   6.326   1.031   9.318 -0.2521  0.5045 -2.1014
   68CHL1  H18C 7468   6.237   1.027   9.479 -0.3647 -2.7732 -1.5654
   68CHL1   C12 7469   6.402   1.258   9.479  0.1485  0.4133 -0.0229
   68CHL1  H12A 7470   6.494   1.222   9.429  0.1398 -2.3198  1.6974
   68CHL1  H12B 7471   6.397   1.369   9.483 -2.5911  0.3168  2.4856
   68CHL1   C11 7472   6.399   1.190   9.619  0.4529 -0.1759 -0.0926
   68CHL1  H11A 7473   6.389   1.080   9.612  2.4976 -0.3876 -0.1112
   68CHL1  H11B 7474   6.493   1.219   9.670  0.8801 -1.0918 -0.3380
   68CHL1    C9 7475   6.281   1.244   9.704 -0.1368 -0.2945  0.1931
   68CHL1    H9 7476   6.297   1.354   9.708 -0.5951 -0.0815 -2.1620
   68CHL1   C10 7477   6.269   1.193   9.855 -0.0999  0.5496  0.2730
   68CHL1   C19 7478   6.289   1.034   9.858  0.7478  0.7021 -0.2097
   68CHL1  H19A 7479   6.287   0.996   9.963  1.8861  0.0591 -0.4026
   68CHL1  H19B 7480   6.208   0.989   9.797  1.9932  0.3726 -1.6987
   68CHL1  H19C 7481   6.389   1.004   9.820  0.6213  0.5428 -0.4180
   68CHL1    C1 7482   6.380   1.260   9.934  0.0139 -0.8320 -0.1092
   68CHL1   H1A 7483   6.475   1.216   9.898  1.7382 -0.7629  3.8384
   68CHL1   H1B 7484   6.385   1.370   9.926  1.1216 -0.5593  3.0804
   68CHL1    C2 7485   6.379   1.240  10.086  0.1342 -0.2589 -0.9175
   68CHL1   H2A 7486   6.460   1.299  10.134 -1.3830  0.9609  0.2382
   68CHL1   H2B 7487   6.382   1.132  10.110 -1.5205  0.1819  1.7110
   68CHL1   C20 7488   6.313   1.236   9.136 -0.2377  0.3917 -0.0293
   68CHL1   H20 7489   6.273   1.135   9.115 -0.7335  0.7124 -0.6416
   68CHL1   C21 7490   6.469   1.225   9.151 -0.3673 -0.2187  0.3797
   68CHL1  H21A 7491   6.515   1.201   9.053  1.8446  0.2785  1.2392
   68CHL1  H21B 7492   6.493   1.141   9.220 -0.9145 -0.9801 -0.3285
   68CHL1  H21C 7493   6.510   1.320   9.190  0.8338 -0.6347  0.1674
   68CHL1   C22 7494   6.282   1.314   9.011  0.5614 -0.3905 -0.5257
   68CHL1  H22A 7495   6.185   1.367   9.024  1.7593  1.7569 -0.0168
   68CHL1  H22B 7496   6.363   1.387   8.991  2.6647 -2.1754  1.0273
   68CHL1   C23 7497   6.267   1.242   8.882 -0.1243  0.3854  0.3130
   68CHL1  H23A 7498   6.360   1.186   8.859 -0.3261 -0.9768  2.5242
   68CHL1  H23B 7499   6.188   1.165   8.887  1.4622 -1.7189 -3.0274
   68CHL1   C24 7500   6.233   1.343   8.770 -0.0251 -0.7379 -0.1154
   68CHL1  H24A 7501   6.125   1.360   8.785 -0.1618 -1.5399 -0.1453
   68CHL1  H24B 7502   6.289   1.439   8.780  1.2264 -1.3996 -0.5460
   68CHL1   C25 7503   6.252   1.269   8.636  0.4679 -0.5449  0.3294
   68CHL1   H25 7504   6.357   1.234   8.628  0.4367 -0.9683  1.6561
   68CHL1   C26 7505   6.143   1.162   8.621  0.1171 -0.1092 -0.2127
   68CHL1  H26A 7506   6.045   1.212   8.636 -0.2208 -0.6772 -0.4693
   68CHL1  H26B 7507   6.134   1.117   8.519 -0.7181 -1.4160  0.4020
   68CHL1  H26C 7508   6.156   1.070   8.682  1.8102 -1.1838 -2.0593
   68CHL1   C27 7509   6.240   1.366   8.518  0.2096 -0.2138  0.1184
   68CHL1  H27A 7510   6.252   1.307   8.425  0.1363  0.2914 -0.2182
   68CHL1  H27B 7511   6.142   1.418   8.518  0.9047  1.1500 -0.5040
   68CHL1  H27C 7512   6.321   1.442   8.523  1.5236 -1.4479 -1.4714
   69CHL1    C3 7513   0.213   0.077   6.900 -0.2212  0.1989 -0.0557
   69CHL1    H3 7514   0.175  -0.027   6.908  0.0286  0.1324  0.2678
   69CHL1    O3 7515   0.261   0.092   6.770 -0.2229 -0.0968 -0.0328
   69CHL1   H3' 7516   0.273   0.186   6.753  0.0795  0.0259  0.8346
   69CHL1    C4 7517   0.104   0.188   6.929 -0.3517  0.3227  0.6103
   69CHL1   H4A 7518   0.148   0.284   6.893 -3.5442  1.3679 -0.9452
   69CHL1   H4B 7519   0.015   0.178   6.862 -1.1084 -0.6641  1.7201
   69CHL1    C5 7520   0.057   0.169   7.074  0.8970 -0.9369 -0.2520
   69CHL1    C6 7521  -0.075   0.145   7.106 -0.0987 -0.4328 -0.6108
   69CHL1    H6 7522  -0.149   0.156   7.025 -0.8271 -1.5955 -0.1253
   69CHL1    C7 7523  -0.123   0.149   7.247 -0.0319  0.2751  0.3286
   69CHL1   H7A 7524  -0.211   0.210   7.277  0.0205 -0.3701  1.8678
   69CHL1   H7B 7525  -0.162   0.048   7.273  0.9359  0.3095  1.9960
   69CHL1    C8 7526  -0.014   0.194   7.351  0.6101  0.1013 -0.1078
   69CHL1    H8 7527  -0.015   0.305   7.339  0.0919  0.0142 -0.9750
   69CHL1   C14 7528  -0.062   0.162   7.488 -0.1172 -0.3250 -0.2139
   69CHL1   H14 7529  -0.068   0.052   7.506 -2.6385 -0.5782 -2.1942
   69CHL1   C15 7530  -0.203   0.219   7.530  0.3839  1.2591  0.6412
   69CHL1  H15A 7531  -0.214   0.312   7.471  2.4133  0.5283 -0.9898
   69CHL1  H15B 7532  -0.287   0.149   7.508  2.4181 -1.4837  0.9634
   69CHL1   C16 7533  -0.189   0.234   7.681  0.6747  0.6061 -0.5038
   69CHL1  H16A 7534  -0.201   0.339   7.714 -0.9921 -0.0219  1.1387
   69CHL1  H16B 7535  -0.259   0.170   7.740  0.7226 -0.0633 -1.1539
   69CHL1   C17 7536  -0.039   0.195   7.719  0.2935  0.2428  0.0492
   69CHL1   H17 7537  -0.046   0.085   7.731  0.7270  0.2114  0.0066
   69CHL1   C13 7538   0.035   0.217   7.592  0.3507 -0.1540 -0.0145
   69CHL1   C18 7539   0.048   0.373   7.591  0.3468  0.0799  0.0517
   69CHL1  H18A 7540   0.098   0.396   7.494  1.5843  0.2046  0.6911
   69CHL1  H18B 7541  -0.042   0.438   7.584  1.7089  2.3093  1.7842
   69CHL1  H18C 7542   0.117   0.409   7.671 -1.1085  0.7996  1.0120
   69CHL1   C12 7543   0.176   0.148   7.575 -0.1304 -0.5068 -0.1212
   69CHL1  H12A 7544   0.247   0.169   7.657 -0.8650  0.1858  0.3485
   69CHL1  H12B 7545   0.158   0.040   7.593  0.7891 -0.5053  0.9083
   69CHL1   C11 7546   0.227   0.170   7.434 -0.7792 -0.1273  0.2998
   69CHL1  H11A 7547   0.274   0.270   7.432 -2.1149  0.5323 -1.9423
   69CHL1  H11B 7548   0.310   0.097   7.420  0.7599  1.1444  2.2199
   69CHL1    C9 7549   0.121   0.144   7.319 -0.2426  0.4260 -0.0773
   69CHL1    H9 7550   0.116   0.034   7.307 -2.1810  0.5235 -0.5632
   69CHL1   C10 7551   0.171   0.186   7.176  0.5374  0.1295  0.2935
   69CHL1   C19 7552   0.211   0.338   7.184 -0.0536 -0.1445  0.2120
   69CHL1  H19A 7553   0.273   0.360   7.094  0.5057  0.5144  0.7407
   69CHL1  H19B 7554   0.126   0.409   7.187  0.1221  0.0691  0.1581
   69CHL1  H19C 7555   0.273   0.356   7.274  1.0402 -0.6273 -0.4209
   69CHL1    C1 7556   0.291   0.099   7.142  0.2577  0.7799  0.2725
   69CHL1   H1A 7557   0.377   0.130   7.206  0.0346 -1.0947  1.5299
   69CHL1   H1B 7558   0.262  -0.004   7.169 -0.8024  0.7382 -0.9542
   69CHL1    C2 7559   0.339   0.091   6.997 -0.4567  0.0172  0.0829
   69CHL1   H2A 7560   0.418   0.016   6.978  0.6162  0.4318  2.5274
   69CHL1   H2B 7561   0.395   0.184   6.975  0.1072 -0.4832 -0.6550
   69CHL1   C20 7562   0.015   0.239   7.857 -0.7098  0.3039  0.4708
   69CHL1   H20 7563   0.120   0.258   7.826 -0.8397 -1.8652 -1.5669
   69CHL1   C21 7564   0.010   0.115   7.951  0.5963 -1.0280  0.8175
   69CHL1  H21A 7565   0.059   0.139   8.049 -0.7564  1.2892  1.0109
   69CHL1  H21B 7566   0.064   0.028   7.907  0.5821 -1.7507  2.1855
   69CHL1  H21C 7567  -0.094   0.090   7.981  0.8257 -1.5973  1.1632
   69CHL1   C22 7568  -0.042   0.364   7.919  0.1211  0.2178  1.2462
   69CHL1  H22A 7569  -0.065   0.435   7.837 -3.2916 -1.9424  0.0657
   69CHL1  H22B 7570  -0.137   0.335   7.969  1.0801 -1.4790  2.1637
   69CHL1   C23 7571   0.032   0.440   8.027  0.9798 -0.2825 -0.4716
   69CHL1  H23A 7572   0.044   0.371   8.113  0.7046 -0.0265 -0.2224
   69CHL1  H23B 7573   0.130   0.472   7.986  1.6080 -0.5879  0.7429
   69CHL1   C24 7574  -0.037   0.569   8.081  0.3696  0.2910  0.5761
   69CHL1  H24A 7575  -0.041   0.634   7.991 -4.8821 -0.4915 -0.0739
   69CHL1  H24B 7576  -0.143   0.538   8.096  0.7701 -0.5136  1.9311
   69CHL1   C25 7577   0.023   0.652   8.196 -0.4893 -0.1122  0.1519
   69CHL1   H25 7578  -0.042   0.740   8.215  0.6579  0.4862  1.4586
   69CHL1   C26 7579   0.011   0.568   8.328  0.1392 -0.2366  0.4721
   69CHL1  H26A 7580  -0.096   0.555   8.354 -0.8291  0.6346 -2.7229
   69CHL1  H26B 7581   0.074   0.478   8.309  3.8173  2.3780 -0.7475
   69CHL1  H26C 7582   0.061   0.626   8.409 -2.8154  1.0800  1.4900
   69CHL1   C27 7583   0.170   0.695   8.157 -0.2894  0.6987  0.3508
   69CHL1  H27A 7584   0.214   0.739   8.250  1.0873 -2.2160  1.2070
   69CHL1  H27B 7585   0.227   0.602   8.134 -1.2869  0.3353 -0.7516
   69CHL1  H27C 7586   0.162   0.775   8.081 -1.3188  0.2004 -0.0854
   70CHL1    C3 7587   4.320   2.314   7.048  0.2215 -0.4026  0.4605
   70CHL1    H3 7588   4.227   2.362   7.086  2.1268  2.4924  1.8241
   70CHL1    O3 7589   4.305   2.298   6.911  0.7653 -0.1272 -0.4544
   70CHL1   H3' 7590   4.324   2.206   6.892  1.3879 -0.1631  0.3236
   70CHL1    C4 7591   4.447   2.404   7.082  0.0988  0.0884  0.4674
   70CHL1   H4A 7592   4.523   2.349   7.023 -0.5113 -1.6231  1.2185
   70CHL1   H4B 7593   4.421   2.504   7.040  2.9661  0.8407  0.2885
   70CHL1    C5 7594   4.467   2.425   7.230 -0.4921  0.0326  0.5642
   70CHL1    C6 7595   4.448   2.544   7.287 -0.0344  0.0907  0.3229
   70CHL1    H6 7596   4.415   2.627   7.222 -0.3419 -1.3619 -1.4502
   70CHL1    C7 7597   4.476   2.568   7.428 -0.0851 -0.1434 -0.2337
   70CHL1   H7A 7598   4.539   2.657   7.447 -0.6377  0.2857 -0.3723
   70CHL1   H7B 7599   4.380   2.579   7.484  0.8831  0.7528  1.3388
   70CHL1    C8 7600   4.540   2.446   7.497  0.2315 -0.2387  0.2923
   70CHL1    H8 7601   4.645   2.456   7.463 -0.8478  0.4065 -3.2784
   70CHL1   C14 7602   4.529   2.452   7.643 -0.0947 -0.2100  0.2375
   70CHL1   H14 7603   4.426   2.444   7.684  0.9431  0.9381  3.3654
   70CHL1   C15 7604   4.579   2.578   7.704 -0.5709  1.1993  0.1809
   70CHL1  H15A 7605   4.674   2.605   7.653 -0.1700  1.6202  1.1299
   70CHL1  H15B 7606   4.513   2.665   7.687  1.4513  2.5415 -1.2142
   70CHL1   C16 7607   4.606   2.551   7.845 -0.5072 -0.5044 -0.4547
   70CHL1  H16A 7608   4.715   2.556   7.864 -0.4768 -1.9689 -0.1292
   70CHL1  H16B 7609   4.549   2.624   7.907 -2.2523  1.2239 -3.8001
   70CHL1   C17 7610   4.583   2.397   7.864 -0.3021 -0.6958 -0.0165
   70CHL1   H17 7611   4.473   2.387   7.874 -0.6900  0.8833 -2.0261
   70CHL1   C13 7612   4.600   2.345   7.718  0.2776  0.2455 -0.7380
   70CHL1   C18 7613   4.756   2.347   7.692 -0.4473 -0.1249 -0.3337
   70CHL1  H18A 7614   4.803   2.447   7.705  0.3233 -0.4901 -0.2424
   70CHL1  H18B 7615   4.813   2.266   7.743  2.2899  0.9476 -1.4918
   70CHL1  H18C 7616   4.768   2.316   7.586 -1.9827 -2.0115 -0.0224
   70CHL1   C12 7617   4.533   2.209   7.689 -0.0570 -0.0856  0.5236
   70CHL1  H12A 7618   4.586   2.124   7.737 -0.9172 -0.8550  0.1367
   70CHL1  H12B 7619   4.432   2.206   7.736  0.9553  0.9866  2.9785
   70CHL1   C11 7620   4.536   2.187   7.534 -0.6092 -0.3929  0.5303
   70CHL1  H11A 7621   4.643   2.169   7.509 -0.4981  1.7253 -0.7888
   70CHL1  H11B 7622   4.477   2.099   7.502 -1.2680  0.3711 -0.4041
   70CHL1    C9 7623   4.486   2.311   7.449 -0.3064  0.1418  0.2261
   70CHL1    H9 7624   4.377   2.312   7.472 -0.2459 -2.9535  1.2268
   70CHL1   C10 7625   4.492   2.289   7.294 -0.2867 -0.4175 -0.1223
   70CHL1   C19 7626   4.633   2.240   7.255  0.3916  0.4175 -0.3516
   70CHL1  H19A 7627   4.706   2.282   7.329 -0.9409  0.1618  1.1595
   70CHL1  H19B 7628   4.632   2.130   7.269  1.4525  0.4138 -0.2022
   70CHL1  H19C 7629   4.672   2.265   7.154  2.2079  1.8360  0.6443
   70CHL1    C1 7630   4.378   2.190   7.262 -0.3065  0.1504 -0.1028
   70CHL1   H1A 7631   4.398   2.084   7.288  0.5672  0.2798 -0.2198
   70CHL1   H1B 7632   4.286   2.209   7.322 -1.1918 -1.8907 -0.7384
   70CHL1    C2 7633   4.340   2.180   7.113 -0.3590  0.4552  0.9569
   70CHL1   H2A 7634   4.252   2.113   7.106  0.3497 -0.4556  0.4676
   70CHL1   H2B 7635   4.423   2.129   7.060  1.1548 -0.0755  3.6106
   70CHL1   C20 7636   4.655   2.336   7.986 -0.3851  0.1804  0.5300
   70CHL1   H20 7637   4.765   2.343   7.968 -0.5227 -1.5580 -1.2972
   70CHL1   C21 7638   4.620   2.182   7.998  0.0765 -0.7187 -0.1843
   70CHL1  H21A 7639   4.671   2.120   7.921 -0.0646 -2.3182  0.9669
   70CHL1  H21B 7640   4.512   2.167   7.979  0.0859  0.7435 -1.6727
   70CHL1  H21C 7641   4.656   2.146   8.097  0.3141 -1.0306 -0.3806
   70CHL1   C22 7642   4.621   2.418   8.115 -0.3192  0.0648  0.3573
   70CHL1  H22A 7643   4.626   2.525   8.087  0.1779 -0.0421  0.0216
   70CHL1  H22B 7644   4.517   2.384   8.138 -1.3675  2.9805  0.3130
   70CHL1   C23 7645   4.716   2.388   8.232 -0.1953  0.2084 -0.5345
   70CHL1  H23A 7646   4.722   2.278   8.246 -0.3158  0.2811  0.0945
   70CHL1  H23B 7647   4.815   2.425   8.197  0.1528 -0.2041  0.0114
   70CHL1   C24 7648   4.688   2.475   8.353 -0.1149  0.4734 -0.8295
   70CHL1  H24A 7649   4.698   2.581   8.320  0.4637  0.6128 -0.2318
   70CHL1  H24B 7650   4.581   2.462   8.379 -0.1919  0.2440 -1.2568
   70CHL1   C25 7651   4.770   2.437   8.481  0.1533  0.6953  0.4364
   70CHL1   H25 7652   4.879   2.442   8.456  0.2619  0.0647  0.7659
   70CHL1   C26 7653   4.751   2.543   8.585 -0.1058 -0.3224  0.6189
   70CHL1  H26A 7654   4.773   2.647   8.552 -3.3731  0.5855  0.9604
   70CHL1  H26B 7655   4.644   2.547   8.615 -0.5067 -1.1369 -0.6148
   70CHL1  H26C 7656   4.811   2.515   8.675  2.4586  1.2870 -0.4915
   70CHL1   C27 7657   4.732   2.296   8.528 -0.4664 -0.2487  0.0150
   70CHL1  H27A 7658   4.621   2.290   8.524 -0.4857 -1.1120  1.3345
   70CHL1  H27B 7659   4.769   2.222   8.454  1.4736  2.6289 -2.1096
   70CHL1  H27C 7660   4.776   2.267   8.626  0.6335  1.1522 -0.0303
   71CHL1    C3 7661   4.742   4.887   6.923  0.0204  0.1009 -0.4195
   71CHL1    H3 7662   4.771   4.994   6.923  1.4417 -0.2616  0.1600
   71CHL1    O3 7663   4.678   4.858   6.799 -0.4510 -0.5293 -0.8029
   71CHL1   H3' 7664   4.667   4.763   6.794  1.4446 -1.0665  2.5822
   71CHL1    C4 7665   4.866   4.795   6.942  0.2209  0.3842 -0.3285
   71CHL1   H4A 7666   4.831   4.691   6.922  0.7034 -0.3068  2.1094
   71CHL1   H4B 7667   4.941   4.815   6.863  2.5025 -0.4831  1.4835
   71CHL1    C5 7668   4.920   4.810   7.084 -0.8310 -0.3768 -0.1517
   71CHL1    C6 7669   5.046   4.849   7.098  0.5236  0.4020  0.3635
   71CHL1    H6 7670   5.116   4.870   7.016  0.4567 -0.2154  0.1420
   71CHL1    C7 7671   5.123   4.868   7.230 -0.4855 -0.5902 -0.0402
   71CHL1   H7A 7672   5.233   4.854   7.227 -0.3847  0.1411  0.0745
   71CHL1   H7B 7673   5.135   4.978   7.245  0.5912 -0.8802  1.4235
   71CHL1    C8 7674   5.046   4.797   7.348 -0.0929 -0.1157  0.3367
   71CHL1    H8 7675   5.069   4.689   7.341 -3.5820 -0.9861  0.5802
   71CHL1   C14 7676   5.099   4.857   7.485  0.5257  0.3402 -0.5045
   71CHL1   H14 7677   5.067   4.963   7.484  1.2841  0.5964 -2.6312
   71CHL1   C15 7678   5.253   4.864   7.512  0.1199  0.1066 -0.2991
   71CHL1  H15A 7679   5.306   4.772   7.477  2.6038  0.6669  1.6822
   71CHL1  H15B 7680   5.294   4.947   7.450 -0.1608 -1.3786 -2.5954
   71CHL1   C16 7681   5.260   4.876   7.662 -0.1416  0.1692 -0.4754
   71CHL1  H16A 7682   5.317   4.789   7.702 -0.1510  0.1017 -0.6099
   71CHL1  H16B 7683   5.298   4.971   7.705 -3.5243  1.5512 -0.2126
   71CHL1   C17 7684   5.114   4.862   7.711  0.2339  0.4682 -0.4005
   71CHL1   H17 7685   5.069   4.964   7.712 -0.3788  0.2054 -0.2183
   71CHL1   C13 7686   5.033   4.792   7.604  0.0182  0.4021  0.0271
   71CHL1   C18 7687   5.069   4.639   7.613  0.6546 -0.3402 -0.3852
   71CHL1  H18A 7688   5.052   4.579   7.521  1.9576  0.1712 -0.9766
   71CHL1  H18B 7689   5.178   4.634   7.632  1.1903  0.5289 -2.8923
   71CHL1  H18C 7690   5.012   4.587   7.694  0.7097  0.6696  0.3296
   71CHL1   C12 7691   4.880   4.812   7.599  0.3370 -0.0717 -0.5385
   71CHL1  H12A 7692   4.828   4.754   7.677  2.0553 -0.0567  0.6690
   71CHL1  H12B 7693   4.857   4.915   7.634 -1.6789 -0.4691 -0.5748
   71CHL1   C11 7694   4.820   4.778   7.463  0.2518  0.3868 -0.2681
   71CHL1  H11A 7695   4.816   4.667   7.458 -0.0333  0.3371  0.8071
   71CHL1  H11B 7696   4.713   4.806   7.470  0.4146  0.6921  1.8470
   71CHL1    C9 7697   4.895   4.820   7.333 -0.1034 -0.1616  0.0680
   71CHL1    H9 7698   4.887   4.931   7.341 -1.1469 -0.2541  0.5009
   71CHL1   C10 7699   4.828   4.781   7.203  0.0121 -0.6581  0.3648
   71CHL1   C19 7700   4.790   4.632   7.208 -0.5424  0.1553  0.4645
   71CHL1  H19A 7701   4.749   4.596   7.111  1.3863  1.1108 -0.7773
   71CHL1  H19B 7702   4.876   4.568   7.238 -1.3589  0.1701  3.0760
   71CHL1  H19C 7703   4.703   4.624   7.276 -2.8425 -0.2880 -2.3412
   71CHL1    C1 7704   4.693   4.863   7.178 -0.3610 -0.0884 -0.8779
   71CHL1   H1A 7705   4.619   4.840   7.258 -0.6007 -0.5634 -1.2275
   71CHL1   H1B 7706   4.725   4.969   7.183 -4.1244  1.3631 -3.1973
   71CHL1    C2 7707   4.634   4.861   7.037  0.1682  0.2529  0.8551
   71CHL1   H2A 7708   4.549   4.931   7.018  1.6734  1.3094 -2.7054
   71CHL1   H2B 7709   4.597   4.758   7.021 -0.2702  0.2974  1.5243
   71CHL1   C20 7710   5.109   4.803   7.849  0.6642  0.7296 -0.5046
   71CHL1   H20 7711   5.155   4.703   7.839 -0.0324  0.4136 -0.5984
   71CHL1   C21 7712   4.964   4.783   7.899 -0.2927 -0.2224  0.0340
   71CHL1  H21A 7713   4.966   4.752   8.006 -3.3127 -1.7641 -0.2636
   71CHL1  H21B 7714   4.922   4.696   7.845  2.9213 -1.2233 -1.1337
   71CHL1  H21C 7715   4.904   4.876   7.894 -1.0432 -0.7505 -1.0933
   71CHL1   C22 7716   5.193   4.868   7.957 -0.0880  0.4609  0.1214
   71CHL1  H22A 7717   5.296   4.893   7.924 -0.2050  0.5220 -0.1985
   71CHL1  H22B 7718   5.140   4.959   7.993 -2.0466  0.4288 -2.4168
   71CHL1   C23 7719   5.215   4.781   8.084  0.2297 -0.7292  0.0992
   71CHL1  H23A 7720   5.114   4.775   8.131 -0.9622 -1.7835 -2.3599
   71CHL1  H23B 7721   5.247   4.679   8.054  2.3742 -0.3051  0.7673
   71CHL1   C24 7722   5.320   4.835   8.187 -0.1260  0.9756  0.3349
   71CHL1  H24A 7723   5.420   4.841   8.138 -0.3593  0.5737 -0.2025
   71CHL1  H24B 7724   5.283   4.939   8.200 -3.0089  0.2809 -1.3309
   71CHL1   C25 7725   5.334   4.754   8.319 -0.1002 -0.1219 -0.0802
   71CHL1   H25 7726   5.243   4.694   8.340  0.7982 -0.8826  1.9423
   71CHL1   C26 7727   5.438   4.643   8.303 -0.2278  0.8674  0.1652
   71CHL1  H26A 7728   5.534   4.691   8.271  1.6422 -1.5302  1.8025
   71CHL1  H26B 7729   5.456   4.595   8.401 -1.1349  0.1007 -0.0357
   71CHL1  H26C 7730   5.427   4.578   8.213 -0.2547  1.3709 -0.2023
   71CHL1   C27 7731   5.369   4.839   8.441  0.1078 -0.1716  0.6747
   71CHL1  H27A 7732   5.474   4.873   8.434  0.5374 -1.1901  1.8027
   71CHL1  H27B 7733   5.310   4.931   8.459  2.5636  1.9204 -1.2970
   71CHL1  H27C 7734   5.381   4.772   8.529 -1.4086 -3.0093 -1.1285
   72CHL1    C3 7735   3.969   2.741   6.935 -0.5036  0.5371 -0.4557
   72CHL1    H3 7736   3.923   2.841   6.920 -0.1465  0.4178 -2.7855
   72CHL1    O3 7737   3.985   2.676   6.807 -0.8736 -0.8223  0.1086
   72CHL1   H3' 7738   4.015   2.587   6.827  0.3011 -0.8880 -1.6726
   72CHL1    C4 7739   4.104   2.754   7.004  0.2320  0.2387 -0.4284
   72CHL1   H4A 7740   4.157   2.658   6.984 -0.7251 -0.1388 -1.2727
   72CHL1   H4B 7741   4.157   2.831   6.943  0.3793  0.8616  0.4777
   72CHL1    C5 7742   4.105   2.785   7.153  0.4974  0.9776 -1.0082
   72CHL1    C6 7743   4.166   2.885   7.200  0.0656  0.1400 -0.5613
   72CHL1    H6 7744   4.201   2.955   7.124  0.5211  1.3522  0.7168
   72CHL1    C7 7745   4.179   2.911   7.347  0.7347  0.3027 -0.9484
   72CHL1   H7A 7746   4.285   2.932   7.373  1.3031 -0.9383 -2.1253
   72CHL1   H7B 7747   4.122   3.001   7.377 -0.9174 -0.4138 -1.8125
   72CHL1    C8 7748   4.138   2.795   7.432  0.2823  0.3925 -0.0922
   72CHL1    H8 7749   4.213   2.714   7.427  0.1430 -0.0905  3.3519
   72CHL1   C14 7750   4.116   2.834   7.582  0.3664 -0.0034 -0.0768
   72CHL1   H14 7751   4.037   2.912   7.582 -0.0317 -0.3363 -2.4367
   72CHL1   C15 7752   4.236   2.887   7.658  0.1146  0.0003  0.0735
   72CHL1  H15A 7753   4.329   2.832   7.636  0.3558  0.2634  0.4091
   72CHL1  H15B 7754   4.249   2.990   7.619  0.4931 -0.5873 -1.4264
   72CHL1   C16 7755   4.193   2.871   7.805  0.0086  0.0861 -0.3632
   72CHL1  H16A 7756   4.274   2.810   7.849 -0.0523  0.9222  0.9642
   72CHL1  H16B 7757   4.183   2.967   7.860  2.5959 -0.1441  0.6677
   72CHL1   C17 7758   4.058   2.788   7.805 -0.2517 -0.0710 -0.9042
   72CHL1   H17 7759   3.975   2.862   7.802  0.9305  1.2695 -1.6782
   72CHL1   C13 7760   4.055   2.719   7.664 -0.1051 -0.0510  0.2817
   72CHL1   C18 7761   4.150   2.599   7.676  0.5955  0.3847  0.0298
   72CHL1  H18A 7762   4.107   2.528   7.750 -1.1353  1.5724  0.2252
   72CHL1  H18B 7763   4.161   2.553   7.575  0.8929  1.7198 -0.5693
   72CHL1  H18C 7764   4.253   2.628   7.703 -0.1565  2.3045  0.9815
   72CHL1   C12 7765   3.918   2.674   7.611  0.4057  0.2799  0.6744
   72CHL1  H12A 7766   3.884   2.590   7.675  0.6124  0.2260  0.7135
   72CHL1  H12B 7767   3.833   2.746   7.610 -1.2150 -1.5452  0.7599
   72CHL1   C11 7768   3.929   2.618   7.469 -0.1150  0.1291  0.5647
   72CHL1  H11A 7769   3.986   2.523   7.470 -0.1370 -0.0118 -2.3815
   72CHL1  H11B 7770   3.825   2.603   7.431 -0.8383 -1.2330  2.8559
   72CHL1    C9 7771   4.005   2.728   7.382  0.1865 -0.4455  0.2070
   72CHL1    H9 7772   3.934   2.814   7.381 -0.6461 -1.1177  0.7062
   72CHL1   C10 7773   4.014   2.689   7.230 -0.6184  0.2028 -0.7933
   72CHL1   C19 7774   4.060   2.548   7.221  0.2936  1.0610 -0.3800
   72CHL1  H19A 7775   4.154   2.531   7.277 -0.0242 -0.5734 -0.2877
   72CHL1  H19B 7776   3.987   2.473   7.260  0.9021  0.1856 -0.8996
   72CHL1  H19C 7777   4.084   2.511   7.119  1.6607  1.7511 -0.3308
   72CHL1    C1 7778   3.872   2.688   7.167  0.3488 -0.1173  0.3738
   72CHL1   H1A 7779   3.812   2.620   7.230  1.8081  0.1473  2.1155
   72CHL1   H1B 7780   3.828   2.787   7.190 -0.4795 -0.6078  0.9429
   72CHL1    C2 7781   3.867   2.653   7.021  0.0024 -0.0807 -0.0975
   72CHL1   H2A 7782   3.764   2.677   6.985  0.5272  2.3455 -0.1310
   72CHL1   H2B 7783   3.882   2.544   7.005  0.4268  0.0996 -0.9999
   72CHL1   C20 7784   4.027   2.700   7.926  0.5500 -0.2138 -0.5712
   72CHL1   H20 7785   3.963   2.618   7.889  0.5868  0.4290 -2.1344
   72CHL1   C21 7786   3.959   2.788   8.032  0.3320 -0.4125  0.8969
   72CHL1  H21A 7787   4.037   2.838   8.093  0.9171  1.6338 -1.3951
   72CHL1  H21B 7788   3.890   2.722   8.090 -0.3626  0.3677  0.9716
   72CHL1  H21C 7789   3.901   2.870   7.985  1.0012  0.5410  1.7212
   72CHL1   C22 7790   4.147   2.630   8.001  0.8777 -0.3899  0.1025
   72CHL1  H22A 7791   4.213   2.577   7.930 -2.6561 -0.8079 -3.2126
   72CHL1  H22B 7792   4.212   2.705   8.051 -0.2462  0.0263  1.0014
   72CHL1   C23 7793   4.100   2.534   8.112 -0.2597 -0.0273 -0.3355
   72CHL1  H23A 7794   4.025   2.582   8.178 -0.3820 -1.9387  0.9887
   72CHL1  H23B 7795   4.055   2.444   8.064  1.7104 -0.4208 -1.5676
   72CHL1   C24 7796   4.218   2.480   8.201  0.0335  0.1383 -0.5239
   72CHL1  H24A 7797   4.290   2.421   8.140 -0.1324 -1.4993  0.7939
   72CHL1  H24B 7798   4.264   2.570   8.248 -0.1185  1.3562 -2.5877
   72CHL1   C25 7799   4.167   2.381   8.305  0.5174 -0.0970  0.1176
   72CHL1   H25 7800   4.086   2.320   8.261  0.4407 -1.2390  1.7592
   72CHL1   C26 7801   4.285   2.294   8.338 -0.2481 -0.7045 -0.5154
   72CHL1  H26A 7802   4.251   2.218   8.412  1.5460 -0.1559  0.9715
   72CHL1  H26B 7803   4.324   2.246   8.246  1.2390 -2.4288  0.9368
   72CHL1  H26C 7804   4.367   2.354   8.384 -0.2110 -1.0066 -0.1811
   72CHL1   C27 7805   4.105   2.455   8.426 -0.3786 -0.4817 -0.1470
   72CHL1  H27A 7806   4.080   2.381   8.505 -0.2893 -0.5040 -0.1384
   72CHL1  H27B 7807   4.182   2.526   8.464 -1.5994 -0.5912  2.8369
   72CHL1  H27C 7808   4.004   2.496   8.406 -0.7056 -1.6670 -1.0365
   73CHL1    C3 7809   2.808   0.185   7.214  0.0315  0.0116 -0.2589
   73CHL1    H3 7810   2.914   0.194   7.183  0.4133  1.8751  1.3739
   73CHL1    O3 7811   2.736   0.191   7.093  0.2707  0.1676  0.2779
   73CHL1   H3' 7812   2.647   0.205   7.125 -0.3085 -0.3298 -1.0513
   73CHL1    C4 7813   2.777   0.051   7.279  0.0299 -0.1057 -0.3921
   73CHL1   H4A 7814   2.667   0.040   7.280 -0.1842  1.7742 -0.6196
   73CHL1   H4B 7815   2.816  -0.026   7.209 -0.8966 -1.3267  0.3894
   73CHL1    C5 7816   2.838   0.050   7.421  0.4735 -0.1312  0.4511
   73CHL1    C6 7817   2.924  -0.052   7.447  0.0368 -0.0866 -0.2058
   73CHL1    H6 7818   2.954  -0.123   7.369 -2.3106 -1.3453 -0.0245
   73CHL1    C7 7819   3.001  -0.057   7.587  0.0262 -0.0401  0.0744
   73CHL1   H7A 7820   3.008  -0.162   7.621 -3.4207 -0.3554  0.2124
   73CHL1   H7B 7821   3.104  -0.018   7.573  0.4886 -1.4452 -0.5791
   73CHL1    C8 7822   2.924   0.027   7.699 -0.0999 -0.1784  0.2592
   73CHL1    H8 7823   2.836  -0.035   7.727  0.2223 -0.5985  0.3566
   73CHL1   C14 7824   3.007   0.036   7.824  0.2973 -0.5115 -0.1834
   73CHL1   H14 7825   3.083   0.110   7.791 -0.8583  0.4115 -0.8674
   73CHL1   C15 7826   3.070  -0.088   7.886 -0.3474 -0.2879  0.6863
   73CHL1  H15A 7827   3.002  -0.176   7.884 -0.8815  0.1380 -0.1739
   73CHL1  H15B 7828   3.161  -0.117   7.829 -1.0948 -0.6592 -0.3396
   73CHL1   C16 7829   3.093  -0.049   8.029  0.0089 -0.1533 -0.4485
   73CHL1  H16A 7830   3.024  -0.111   8.090 -0.4154  2.8051  2.3740
   73CHL1  H16B 7831   3.200  -0.061   8.058  1.0292  3.2704 -2.3377
   73CHL1   C17 7832   3.038   0.097   8.040  0.1799 -0.0682 -0.2221
   73CHL1   H17 7833   3.119   0.168   8.015  1.4406 -1.1914  0.5616
   73CHL1   C13 7834   2.938   0.120   7.934 -0.0051  0.5077 -0.0996
   73CHL1   C18 7835   2.805   0.060   7.971 -0.1974 -0.1741 -0.2361
   73CHL1  H18A 7836   2.810  -0.051   7.980  0.7540 -0.0332  1.4948
   73CHL1  H18B 7837   2.766   0.114   8.059 -0.6891  2.1908 -1.8241
   73CHL1  H18C 7838   2.730   0.075   7.891  0.5688 -1.2065 -1.1853
   73CHL1   C12 7839   2.912   0.264   7.890 -0.1407  0.2208 -0.1329
   73CHL1  H12A 7840   2.853   0.317   7.968 -2.3686 -1.0556 -0.8513
   73CHL1  H12B 7841   3.009   0.317   7.879 -0.1667  0.4164  0.5284
   73CHL1   C11 7842   2.830   0.271   7.756 -0.7301  0.3902  0.3147
   73CHL1  H11A 7843   2.727   0.248   7.789 -1.1432 -0.4666 -1.4532
   73CHL1  H11B 7844   2.838   0.377   7.723  0.8018  0.7681  1.7312
   73CHL1    C9 7845   2.882   0.166   7.647 -0.3571  0.3795  0.3815
   73CHL1    H9 7846   2.972   0.217   7.606  0.0574 -0.2847  0.4636
   73CHL1   C10 7847   2.795   0.166   7.515 -0.1827 -0.0577 -0.3821
   73CHL1   C19 7848   2.643   0.148   7.553  0.0289  0.0888  0.3596
   73CHL1  H19A 7849   2.628   0.053   7.609  0.2422  0.1186  0.4692
   73CHL1  H19B 7850   2.612   0.227   7.624  0.3206  1.2231 -0.7482
   73CHL1  H19C 7851   2.582   0.136   7.460  3.3568 -0.4678 -1.9345
   73CHL1    C1 7852   2.826   0.299   7.430  1.4298  0.9155 -0.5466
   73CHL1   H1A 7853   2.813   0.392   7.490  0.1983 -0.2217  1.0397
   73CHL1   H1B 7854   2.934   0.300   7.406  1.2477  0.8066 -1.3874
   73CHL1    C2 7855   2.750   0.301   7.296  0.3279  0.0657 -0.0398
   73CHL1   H2A 7856   2.768   0.391   7.234 -1.1020  1.0958  0.9824
   73CHL1   H2B 7857   2.641   0.303   7.316  0.2583  2.9965 -0.2995
   73CHL1   C20 7858   2.997   0.132   8.186  0.8216 -0.3113 -0.3871
   73CHL1   H20 7859   2.917   0.059   8.210 -0.0236  0.2788 -1.3356
   73CHL1   C21 7860   2.948   0.288   8.202  0.2377 -0.4142 -0.2241
   73CHL1  H21A 7861   2.847   0.299   8.159 -0.1766 -1.8536  0.3086
   73CHL1  H21B 7862   3.015   0.371   8.171 -0.7130  0.3943 -0.1411
   73CHL1  H21C 7863   2.938   0.301   8.312  1.2680 -1.2980  0.0002
   73CHL1   C22 7864   3.116   0.101   8.285  0.3349 -0.4527 -0.3864
   73CHL1  H22A 7865   3.147  -0.004   8.266 -1.6255 -0.9940 -0.8858
   73CHL1  H22B 7866   3.200   0.169   8.261  1.4387 -1.7280 -0.2609
   73CHL1   C23 7867   3.083   0.107   8.436  0.6128  0.0779  1.4540
   73CHL1  H23A 7868   3.055   0.214   8.451 -0.9136  0.0597 -0.8024
   73CHL1  H23B 7869   2.996   0.039   8.450 -0.0184  1.0996  2.7315
   73CHL1   C24 7870   3.199   0.078   8.534 -0.6606 -0.2767  0.1452
   73CHL1  H24A 7871   3.239  -0.024   8.518  0.1889  0.2395 -1.2158
   73CHL1  H24B 7872   3.295   0.131   8.514 -0.0616 -1.4744 -0.2522
   73CHL1   C25 7873   3.165   0.099   8.681  0.4421  0.3568 -0.5208
   73CHL1   H25 7874   3.072   0.043   8.707  1.4103 -1.2637 -0.4783
   73CHL1   C26 7875   3.281   0.053   8.772 -0.7537  0.7285  0.2595
   73CHL1  H26A 7876   3.301  -0.056   8.763 -0.4066  0.8351 -0.2383
   73CHL1  H26B 7877   3.371   0.108   8.737 -0.1631 -1.4017 -1.7876
   73CHL1  H26C 7878   3.265   0.084   8.878 -0.5869  2.0764 -0.0879
   73CHL1   C27 7879   3.146   0.253   8.718  0.2901 -0.3003  0.2280
   73CHL1  H27A 7880   3.240   0.312   8.730 -1.0508  2.1558 -0.6732
   73CHL1  H27B 7881   3.074   0.299   8.648  1.1672  0.3455 -0.2665
   73CHL1  H27C 7882   3.100   0.241   8.818 -2.4363  0.5189 -0.8549
   74CHL1    C3 7883   4.374   6.745   6.802  0.3717  0.1260  0.2255
   74CHL1    H3 7884   4.418   6.846   6.813 -0.9639  0.7628 -0.0559
   74CHL1    O3 7885   4.319   6.736   6.668  0.1523 -0.0014  0.7986
   74CHL1   H3' 7886   4.301   6.642   6.663  1.0770 -0.1351 -2.7550
   74CHL1    C4 7887   4.483   6.643   6.821  0.2145  0.3957 -0.5298
   74CHL1   H4A 7888   4.433   6.546   6.801 -2.7607  1.5112  0.7942
   74CHL1   H4B 7889   4.560   6.658   6.742  0.6871 -0.0483 -0.1561
   74CHL1    C5 7890   4.536   6.636   6.961  0.4720 -0.2408 -0.0446
   74CHL1    C6 7891   4.664   6.646   6.993  0.5283 -0.2839  0.3847
   74CHL1    H6 7892   4.747   6.663   6.923  0.4901 -1.0684  0.1362
   74CHL1    C7 7893   4.720   6.623   7.128  0.4995  0.2630  0.4125
   74CHL1   H7A 7894   4.802   6.553   7.105 -1.0016 -0.2639 -4.3666
   74CHL1   H7B 7895   4.765   6.714   7.173 -0.8923  0.2813  1.8690
   74CHL1    C8 7896   4.609   6.571   7.227 -0.3574 -0.2503 -0.6014
   74CHL1    H8 7897   4.591   6.465   7.201 -0.7806 -0.4108  0.3055
   74CHL1   C14 7898   4.657   6.601   7.376  0.4875  1.1544  0.7002
   74CHL1   H14 7899   4.677   6.710   7.373  0.0041  1.2705  1.4330
   74CHL1   C15 7900   4.794   6.545   7.414  0.0983  0.1645  0.8394
   74CHL1  H15A 7901   4.815   6.436   7.405  2.3982  0.5628  0.6633
   74CHL1  H15B 7902   4.878   6.600   7.367  0.5904  0.7599  2.3440
   74CHL1   C16 7903   4.794   6.576   7.563 -0.0327  0.4746  0.1510
   74CHL1  H16A 7904   4.822   6.486   7.621  0.2116  0.3125 -0.2231
   74CHL1  H16B 7905   4.862   6.660   7.591  0.0454  0.2030  0.7954
   74CHL1   C17 7906   4.643   6.608   7.600 -0.0394  0.1401  0.1550
   74CHL1   H17 7907   4.632   6.718   7.598 -1.3712  0.0199 -0.6695
   74CHL1   C13 7908   4.554   6.561   7.486 -0.0720  0.2462  0.0949
   74CHL1   C18 7909   4.541   6.404   7.475 -0.5459 -0.1276  0.1128
   74CHL1  H18A 7910   4.636   6.350   7.455 -0.7685 -0.2581 -0.5973
   74CHL1  H18B 7911   4.490   6.355   7.560  1.6932 -0.5910  1.2695
   74CHL1  H18C 7912   4.488   6.380   7.381 -1.5258 -0.0583  0.6319
   74CHL1   C12 7913   4.418   6.633   7.471  0.0334 -0.7321 -0.8809
   74CHL1  H12A 7914   4.346   6.594   7.545  0.9429  1.8926  1.5652
   74CHL1  H12B 7915   4.430   6.741   7.495 -0.1733 -1.4485  3.0240
   74CHL1   C11 7916   4.364   6.612   7.328  0.3026  0.7757  0.5185
   74CHL1  H11A 7917   4.317   6.511   7.321  0.5010  0.6778  0.6013
   74CHL1  H11B 7918   4.279   6.683   7.313  0.1179  0.0589 -2.3255
   74CHL1    C9 7919   4.466   6.636   7.214 -0.4476  0.0349 -0.2877
   74CHL1    H9 7920   4.497   6.740   7.240 -1.7186  0.3284  0.1077
   74CHL1   C10 7921   4.416   6.621   7.069 -0.2560 -0.9410 -0.4060
   74CHL1   C19 7922   4.367   6.473   7.055 -0.2727  0.5991 -0.0668
   74CHL1  H19A 7923   4.450   6.404   7.082 -1.1057 -0.6979 -0.7046
   74CHL1  H19B 7924   4.279   6.451   7.119 -1.1702 -0.3464 -1.5472
   74CHL1  H19C 7925   4.340   6.460   6.948  1.5201 -0.5772 -0.4211
   74CHL1    C1 7926   4.299   6.733   7.045 -0.4922 -0.1929  0.3910
   74CHL1   H1A 7927   4.210   6.703   7.104 -1.0277  1.5158  0.4888
   74CHL1   H1B 7928   4.330   6.835   7.076  0.8209 -1.0527  2.0961
   74CHL1    C2 7929   4.257   6.727   6.898 -0.0600  0.0069 -0.0303
   74CHL1   H2A 7930   4.182   6.806   6.878 -0.6415 -0.6577 -0.5860
   74CHL1   H2B 7931   4.211   6.626   6.888 -2.8242  0.7114  3.7073
   74CHL1   C20 7932   4.589   6.576   7.741 -0.3004 -0.4372  0.3285
   74CHL1   H20 7933   4.479   6.563   7.734 -0.5197  1.4198 -0.3141
   74CHL1   C21 7934   4.610   6.703   7.833  0.5896  0.1182 -0.5377
   74CHL1  H21A 7935   4.552   6.687   7.927 -0.4270 -0.0429 -1.1810
   74CHL1  H21B 7936   4.559   6.792   7.790 -3.6634 -1.8851 -0.1418
   74CHL1  H21C 7937   4.713   6.727   7.868  0.0872 -0.3266  1.4054
   74CHL1   C22 7938   4.655   6.456   7.810  0.6331 -0.1169 -0.3142
   74CHL1  H22A 7939   4.651   6.367   7.743 -0.0500 -1.9546  2.0058
   74CHL1  H22B 7940   4.762   6.469   7.835  0.5745 -1.3452  0.7010
   74CHL1   C23 7941   4.581   6.395   7.940 -0.3350 -0.0752 -0.5486
   74CHL1  H23A 7942   4.596   6.461   8.029 -0.6301 -1.2959  0.4403
   74CHL1  H23B 7943   4.476   6.383   7.906 -0.2407 -0.3864 -0.7373
   74CHL1   C24 7944   4.623   6.254   7.976  0.7304 -0.0901 -0.1286
   74CHL1  H24A 7945   4.634   6.202   7.878 -1.1513 -0.1000 -0.3712
   74CHL1  H24B 7946   4.720   6.257   8.029  1.0700  0.4373 -0.7736
   74CHL1   C25 7947   4.527   6.172   8.069  0.0936 -0.5322  0.1737
   74CHL1   H25 7948   4.428   6.180   8.019  1.8187  1.9700 -3.2895
   74CHL1   C26 7949   4.572   6.025   8.063  0.5867  0.2811  0.2514
   74CHL1  H26A 7950   4.679   6.015   8.093  0.6222  2.5090  1.0622
   74CHL1  H26B 7951   4.521   5.971   8.147 -0.6570  1.1484  0.0788
   74CHL1  H26C 7952   4.556   5.974   7.966  2.9118  0.2362 -0.1493
   74CHL1   C27 7953   4.529   6.215   8.218 -0.7222 -0.6834  0.5963
   74CHL1  H27A 7954   4.458   6.157   8.280 -1.4535  0.9237  1.3186
   74CHL1  H27B 7955   4.633   6.202   8.256  0.5146  4.3700 -0.2664
   74CHL1  H27C 7956   4.499   6.322   8.227  0.5735 -0.0260 -1.9843
   75CHL1    C3 7957   5.554   5.196   6.740 -0.6254  0.0394  0.2028
   75CHL1    H3 7958   5.529   5.090   6.760 -0.1779  0.2594  2.0813
   75CHL1    O3 7959   5.585   5.217   6.603  0.5450  0.6510  0.0180
   75CHL1   H3' 7960   5.671   5.258   6.591  0.5853  0.5666  0.0227
   75CHL1    C4 7961   5.442   5.293   6.772  0.4199 -0.0027 -0.2316
   75CHL1   H4A 7962   5.475   5.397   6.750  0.9249 -0.4667 -1.8482
   75CHL1   H4B 7963   5.351   5.263   6.714 -1.1489 -1.5470  2.7833
   75CHL1    C5 7964   5.409   5.281   6.921  0.3577 -0.1038  0.2091
   75CHL1    C6 7965   5.293   5.255   6.969  0.2880  0.5306  0.1025
   75CHL1    H6 7966   5.206   5.231   6.905  1.0961 -1.1515 -0.4164
   75CHL1    C7 7967   5.265   5.243   7.121 -0.5359 -0.1017  0.1671
   75CHL1   H7A 7968   5.163   5.278   7.149 -0.8345 -1.3907  0.7918
   75CHL1   H7B 7969   5.273   5.138   7.155 -0.3440 -0.1140  0.0827
   75CHL1    C8 7970   5.364   5.318   7.211  0.1376  0.0059  0.5521
   75CHL1    H8 7971   5.350   5.428   7.198 -0.2948 -0.2164 -1.0170
   75CHL1   C14 7972   5.352   5.268   7.358  0.2936 -0.1205 -0.6161
   75CHL1   H14 7973   5.371   5.158   7.353  2.3719  0.1455  0.4916
   75CHL1   C15 7974   5.210   5.293   7.410 -1.2576  0.0091 -0.4358
   75CHL1  H15A 7975   5.188   5.394   7.369  0.6093  0.8731  0.5554
   75CHL1  H15B 7976   5.146   5.217   7.361  0.2760 -0.8399 -1.1645
   75CHL1   C16 7977   5.236   5.286   7.562 -0.3567  0.8975  0.5725
   75CHL1  H16A 7978   5.186   5.361   7.628  0.4930  1.2494  0.8419
   75CHL1  H16B 7979   5.193   5.190   7.597  1.3750  0.5396  1.8980
   75CHL1   C17 7980   5.391   5.279   7.580 -0.0408 -0.0093 -0.0209
   75CHL1   H17 7981   5.420   5.172   7.576  3.7361  0.9028 -0.7360
   75CHL1   C13 7982   5.443   5.339   7.449  0.5634  0.2818  1.2550
   75CHL1   C18 7983   5.427   5.493   7.450  0.0395  0.5648 -0.5537
   75CHL1  H18A 7984   5.320   5.513   7.473 -0.0329  1.1825 -1.3745
   75CHL1  H18B 7985   5.487   5.546   7.526  0.0985  1.2084 -1.0393
   75CHL1  H18C 7986   5.446   5.542   7.352 -2.1486  2.4067 -0.1498
   75CHL1   C12 7987   5.588   5.298   7.409 -0.0005 -0.0755 -0.1876
   75CHL1  H12A 7988   5.659   5.367   7.461 -0.8237  0.4594  0.2468
   75CHL1  H12B 7989   5.611   5.194   7.440  2.8778  1.0284  1.8666
   75CHL1   C11 7990   5.618   5.328   7.260 -0.2258  0.5304  0.3120
   75CHL1  H11A 7991   5.621   5.438   7.245  0.7477  0.3364 -1.1476
   75CHL1  H11B 7992   5.717   5.286   7.232 -0.7874 -0.5430 -0.1093
   75CHL1    C9 7993   5.506   5.276   7.167 -0.2154 -0.2878  0.1611
   75CHL1    H9 7994   5.504   5.165   7.162 -2.9224 -0.3145  0.2294
   75CHL1   C10 7995   5.528   5.313   7.013  0.3150 -0.3613  0.2575
   75CHL1   C19 7996   5.583   5.464   7.001  0.2021 -0.3107 -0.2571
   75CHL1  H19A 7997   5.613   5.493   6.898 -0.7805  1.0802 -0.1779
   75CHL1  H19B 7998   5.514   5.539   7.045  0.1937 -1.8792  2.7005
   75CHL1  H19C 7999   5.680   5.475   7.055  0.5716 -1.3639 -0.6773
   75CHL1    C1 8000   5.640   5.222   6.968  0.4576  0.5639 -0.2248
   75CHL1   H1A 8001   5.732   5.254   7.021  0.8350 -0.9108  0.0513
   75CHL1   H1B 8002   5.631   5.115   6.996  1.5319  0.4375 -0.3174
   75CHL1    C2 8003   5.676   5.231   6.820  0.2940 -0.1257  0.7563
   75CHL1   H2A 8004   5.759   5.160   6.801  0.9503  0.5021  1.2605
   75CHL1   H2B 8005   5.715   5.333   6.800  3.3018 -1.2918  0.0654
   75CHL1   C20 8006   5.434   5.332   7.719 -0.0820 -0.3798  0.0415
   75CHL1   H20 8007   5.396   5.436   7.722  0.6402 -0.0373 -1.4727
   75CHL1   C21 8008   5.589   5.348   7.731 -0.1835 -0.0186  0.9217
   75CHL1  H21A 8009   5.632   5.250   7.701 -0.7002  0.3351 -1.1300
   75CHL1  H21B 8010   5.617   5.370   7.837 -0.2680  2.7225  0.4434
   75CHL1  H21C 8011   5.619   5.423   7.655 -1.5957 -0.7291 -0.3835
   75CHL1   C22 8012   5.371   5.245   7.833 -0.6915  0.1633  0.4109
   75CHL1  H22A 8013   5.272   5.207   7.800  0.2854 -0.4587 -2.0597
   75CHL1  H22B 8014   5.438   5.161   7.864 -0.4923  0.7214  1.5258
   75CHL1   C23 8015   5.355   5.327   7.962  0.0793  0.3469  0.3115
   75CHL1  H23A 8016   5.455   5.363   7.993  0.4612  0.5141 -1.0562
   75CHL1  H23B 8017   5.288   5.406   7.922 -0.1755 -0.2371 -0.4515
   75CHL1   C24 8018   5.288   5.248   8.074 -0.4091 -0.0365  0.2122
   75CHL1  H24A 8019   5.191   5.206   8.040 -0.6991 -0.1723  1.1587
   75CHL1  H24B 8020   5.343   5.153   8.092  0.3924  0.1235 -1.2406
   75CHL1   C25 8021   5.249   5.336   8.192  0.2391 -0.4014  0.2941
   75CHL1   H25 8022   5.184   5.419   8.156  0.6862 -0.5692 -0.9195
   75CHL1   C26 8023   5.178   5.248   8.298 -0.0932 -0.2036  0.2545
   75CHL1  H26A 8024   5.086   5.201   8.257 -0.7662  1.1655  0.1228
   75CHL1  H26B 8025   5.239   5.168   8.346 -2.4120 -1.5438  1.1588
   75CHL1  H26C 8026   5.150   5.322   8.377  1.3741  2.6334 -1.7203
   75CHL1   C27 8027   5.379   5.387   8.264  0.9401 -0.0047 -0.2266
   75CHL1  H27A 8028   5.448   5.301   8.278  1.6029  0.5979  0.2624
   75CHL1  H27B 8029   5.431   5.463   8.202  0.1104  0.0524 -0.8796
   75CHL1  H27C 8030   5.360   5.427   8.366  3.0550  0.0592  0.1963
   76CHL1    C3 8031   2.649   1.359   7.420 -0.2352  0.6687 -0.6813
   76CHL1    H3 8032   2.552   1.410   7.439 -0.4740  0.2003 -0.6285
   76CHL1    O3 8033   2.655   1.314   7.288  0.5715 -0.2938 -0.2156
   76CHL1   H3' 8034   2.748   1.310   7.266  0.9758 -0.4740  1.4027
   76CHL1    C4 8035   2.756   1.468   7.439  0.2733  0.4314  0.1918
   76CHL1   H4A 8036   2.852   1.434   7.396 -0.4897 -0.0657 -1.2238
   76CHL1   H4B 8037   2.728   1.554   7.373  0.1928 -0.3246 -0.7786
   76CHL1    C5 8038   2.789   1.517   7.576 -0.6472  0.0252  0.2105
   76CHL1    C6 8039   2.795   1.646   7.609 -0.1287  0.4525  0.1824
   76CHL1    H6 8040   2.782   1.724   7.532 -0.3680 -0.4140 -0.6731
   76CHL1    C7 8041   2.825   1.698   7.755  1.0027  0.2807  0.4527
   76CHL1   H7A 8042   2.904   1.775   7.765  1.3192 -0.3168  3.8525
   76CHL1   H7B 8043   2.731   1.730   7.805  0.7492  0.7777 -0.3265
   76CHL1    C8 8044   2.869   1.580   7.842  0.4629 -0.1940 -0.9398
   76CHL1    H8 8045   2.978   1.568   7.828  0.3816 -0.7449 -1.1277
   76CHL1   C14 8046   2.860   1.621   7.987  0.2708 -0.3051  0.1319
   76CHL1   H14 8047   2.751   1.623   8.006  0.0091 -3.0593 -0.6135
   76CHL1   C15 8048   2.920   1.754   8.023 -0.2543 -0.7402 -0.1440
   76CHL1  H15A 8049   3.013   1.776   7.967  0.9578 -2.2043  1.2115
   76CHL1  H15B 8050   2.852   1.834   7.986  0.7589  0.4322  0.4632
   76CHL1   C16 8051   2.933   1.751   8.180 -0.1142  0.3952  0.1529
   76CHL1  H16A 8052   3.039   1.771   8.209  0.8862 -1.2783 -2.0714
   76CHL1  H16B 8053   2.866   1.826   8.227 -0.7075  0.5110 -0.8416
   76CHL1   C17 8054   2.889   1.601   8.222 -0.1823  0.0628 -0.1135
   76CHL1   H17 8055   2.780   1.606   8.243  0.1949 -0.3448  2.1245
   76CHL1   C13 8056   2.903   1.522   8.092  0.3987 -1.0048  0.0536
   76CHL1   C18 8057   3.050   1.477   8.077  0.4508  0.4562 -0.0795
   76CHL1  H18A 8058   3.084   1.405   8.155  1.1439  1.2395  0.3566
   76CHL1  H18B 8059   3.066   1.425   7.980 -1.9021  1.6306 -1.1747
   76CHL1  H18C 8060   3.116   1.565   8.086 -2.8721  3.1490 -0.1815
   76CHL1   C12 8061   2.809   1.397   8.081 -0.4252 -0.1333 -0.5048
   76CHL1  H12A 8062   2.840   1.313   8.148  0.0110  1.1079  0.9078
   76CHL1  H12B 8063   2.711   1.429   8.121  0.6052  1.3080  1.0114
   76CHL1   C11 8064   2.809   1.342   7.938  0.4368  0.0218 -0.1359
   76CHL1  H11A 8065   2.895   1.273   7.925 -0.9066 -1.6365 -0.5432
   76CHL1  H11B 8066   2.713   1.288   7.942 -1.2160  2.7161 -0.9102
   76CHL1    C9 8067   2.790   1.444   7.826 -0.8766 -0.7076 -0.5608
   76CHL1    H9 8068   2.685   1.480   7.834  0.0062  1.9795 -0.1676
   76CHL1   C10 8069   2.799   1.394   7.679  0.6540  0.3391 -0.6613
   76CHL1   C19 8070   2.928   1.323   7.655  0.3377 -0.3288  0.0068
   76CHL1  H19A 8071   2.933   1.236   7.723 -0.8685 -0.7079 -0.3669
   76CHL1  H19B 8072   2.942   1.277   7.555 -0.6950  0.0994 -0.3477
   76CHL1  H19C 8073   3.009   1.389   7.693 -0.7096  2.4050 -2.1603
   76CHL1    C1 8074   2.676   1.297   7.659 -0.1494  0.4236 -0.3173
   76CHL1   H1A 8075   2.675   1.214   7.732 -3.4060  0.7098  0.0928
   76CHL1   H1B 8076   2.580   1.342   7.692  0.5146  1.1270  0.7140
   76CHL1    C2 8077   2.672   1.240   7.517 -0.1029  0.6942 -0.2078
   76CHL1   H2A 8078   2.580   1.180   7.502 -0.4596  1.5198 -1.4906
   76CHL1   H2B 8079   2.758   1.176   7.488 -1.7575 -0.5461 -2.6447
   76CHL1   C20 8080   2.957   1.557   8.354  0.7388  1.8035  0.3994
   76CHL1   H20 8081   3.059   1.521   8.330 -1.3075 -2.2825 -3.6836
   76CHL1   C21 8082   2.892   1.429   8.408  0.0858  0.3348  0.6239
   76CHL1  H21A 8083   2.781   1.420   8.414 -0.0459  1.1896 -0.3417
   76CHL1  H21B 8084   2.934   1.393   8.505 -0.9596 -1.4181  0.4821
   76CHL1  H21C 8085   2.911   1.339   8.345  0.3974 -1.5968  3.2922
   76CHL1   C22 8086   2.942   1.657   8.472  0.4276 -0.0738  0.5068
   76CHL1  H22A 8087   2.869   1.738   8.454 -0.6725 -1.2773 -0.7395
   76CHL1  H22B 8088   2.919   1.605   8.568 -1.2211  2.7591  1.7401
   76CHL1   C23 8089   3.077   1.728   8.494  0.3494  0.0478  0.7717
   76CHL1  H23A 8090   3.155   1.649   8.500 -1.0445 -1.6051 -1.2194
   76CHL1  H23B 8091   3.100   1.795   8.409 -1.3296 -1.2665 -0.7927
   76CHL1   C24 8092   3.082   1.813   8.626  0.0867  0.5422  0.2188
   76CHL1  H24A 8093   2.981   1.860   8.619  0.4726  1.1401 -3.7018
   76CHL1  H24B 8094   3.098   1.761   8.723 -1.3385  0.5142  0.4602
   76CHL1   C25 8095   3.186   1.929   8.603  0.3759 -0.4344  0.1640
   76CHL1   H25 8096   3.171   1.967   8.500 -0.0983 -0.6481  0.1515
   76CHL1   C26 8097   3.160   2.045   8.703  0.1230 -0.4134 -0.6186
   76CHL1  H26A 8098   3.200   2.143   8.667  0.2960 -0.0538  0.5041
   76CHL1  H26B 8099   3.051   2.058   8.716  0.1036 -0.5753 -0.6255
   76CHL1  H26C 8100   3.201   2.023   8.804  0.5680 -0.5549 -0.8241
   76CHL1   C27 8101   3.337   1.884   8.601 -0.3530 -0.1658  0.1755
   76CHL1  H27A 8102   3.404   1.956   8.548  0.5949 -1.9765 -1.2278
   76CHL1  H27B 8103   3.360   1.869   8.708 -3.4222 -1.9354  0.6948
   76CHL1  H27C 8104   3.343   1.789   8.543 -0.2386  0.4206 -0.7991
   77CHL1    C3 8105   3.933   6.522   6.987  0.5853  0.5322 -0.2469
   77CHL1    H3 8106   4.043   6.528   6.979  0.4006  1.9244 -3.6129
   77CHL1    O3 8107   3.875   6.484   6.869  0.8379  0.3374  0.5102
   77CHL1   H3' 8108   3.779   6.492   6.873  0.9196  2.8090 -0.4220
   77CHL1    C4 8109   3.907   6.404   7.077 -0.4239 -0.0564 -0.0116
   77CHL1   H4A 8110   3.800   6.373   7.076 -1.0255  1.8614  0.0146
   77CHL1   H4B 8111   3.965   6.320   7.034  1.1589  0.4941  0.9535
   77CHL1    C5 8112   3.931   6.432   7.223  0.3923  0.1564 -0.0662
   77CHL1    C6 8113   4.010   6.353   7.295 -0.2549 -0.3583 -0.8339
   77CHL1    H6 8114   4.058   6.265   7.250  1.0857  0.7245 -1.6132
   77CHL1    C7 8115   4.035   6.375   7.444 -0.8026  0.7488 -0.3043
   77CHL1   H7A 8116   4.011   6.275   7.486 -1.0018  0.9007 -0.0511
   77CHL1   H7B 8117   4.138   6.398   7.476 -0.4581 -1.6588  0.4770
   77CHL1    C8 8118   3.947   6.483   7.517 -0.2017 -0.1306  0.6978
   77CHL1    H8 8119   3.851   6.429   7.531 -0.3309 -0.5649 -1.5171
   77CHL1   C14 8120   4.014   6.538   7.641 -0.1374  0.4875 -0.1493
   77CHL1   H14 8121   4.109   6.580   7.602  0.4003  0.0974  0.7049
   77CHL1   C15 8122   4.053   6.425   7.739  0.1165 -0.2326  0.2066
   77CHL1  H15A 8123   3.965   6.356   7.737 -0.5577  0.5911  0.6887
   77CHL1  H15B 8124   4.143   6.366   7.714  0.8726  1.6556 -1.7929
   77CHL1   C16 8125   4.066   6.504   7.873 -0.0710  0.2180 -0.7676
   77CHL1  H16A 8126   3.993   6.467   7.949  0.4678 -0.8481 -0.7570
   77CHL1  H16B 8127   4.165   6.513   7.923 -0.5506 -0.1113  0.2757
   77CHL1   C17 8128   4.032   6.652   7.839 -0.2428 -0.2594  0.3363
   77CHL1   H17 8129   4.130   6.691   7.803 -0.1183 -1.3117 -0.5227
   77CHL1   C13 8130   3.939   6.643   7.718  0.4292 -0.0578 -0.0331
   77CHL1   C18 8131   3.803   6.591   7.767 -0.4965  0.2341  0.5839
   77CHL1  H18A 8132   3.809   6.498   7.827  0.3992 -1.0185 -1.3579
   77CHL1  H18B 8133   3.742   6.670   7.816 -1.3830  0.2251 -0.4845
   77CHL1  H18C 8134   3.728   6.567   7.690 -1.2191  2.0935  0.6484
   77CHL1   C12 8135   3.902   6.755   7.621  0.4979  0.2531 -0.9148
   77CHL1  H12A 8136   3.843   6.830   7.677  0.1041 -1.6239  1.3465
   77CHL1  H12B 8137   3.992   6.814   7.596 -0.6638  2.1288 -0.8600
   77CHL1   C11 8138   3.847   6.722   7.486  1.0401  0.4298  0.6811
   77CHL1  H11A 8139   3.742   6.695   7.507  1.5729 -2.1764  0.3671
   77CHL1  H11B 8140   3.853   6.807   7.415  1.6732 -0.3587 -0.2356
   77CHL1    C9 8141   3.917   6.597   7.418 -0.1175  0.3800  0.8371
   77CHL1    H9 8142   4.018   6.639   7.397 -0.6523  0.3000 -2.6327
   77CHL1   C10 8143   3.863   6.564   7.275  1.0851  0.0463  0.5292
   77CHL1   C19 8144   3.712   6.533   7.286  0.6123 -0.4411 -0.3695
   77CHL1  H19A 8145   3.654   6.608   7.345 -0.1801 -0.1912 -1.4411
   77CHL1  H19B 8146   3.660   6.515   7.190  1.7148 -0.9064 -0.8965
   77CHL1  H19C 8147   3.703   6.443   7.351  1.8305 -1.3435 -1.4136
   77CHL1    C1 8148   3.884   6.681   7.182  0.3905 -0.0623 -0.3561
   77CHL1   H1A 8149   3.814   6.761   7.215 -1.5157 -0.8596 -2.2884
   77CHL1   H1B 8150   3.987   6.723   7.179  1.1031 -1.5977  0.9743
   77CHL1    C2 8151   3.864   6.657   7.036  0.4506 -0.3203  0.4916
   77CHL1   H2A 8152   3.897   6.741   6.972  1.0773 -1.6857 -1.0662
   77CHL1   H2B 8153   3.755   6.648   7.017  0.6155 -2.2487  0.1959
   77CHL1   C20 8154   3.988   6.714   7.966  0.4313  0.5218 -0.0196
   77CHL1   H20 8155   3.890   6.675   8.002  0.7593 -0.5933 -0.3010
   77CHL1   C21 8156   3.954   6.868   7.936  0.0382  0.0154  0.3098
   77CHL1  H21A 8157   4.028   6.913   7.866  0.3603  1.1604  1.3556
   77CHL1  H21B 8158   3.956   6.926   8.031 -1.9637  0.1809  0.2968
   77CHL1  H21C 8159   3.853   6.875   7.889 -0.0092 -0.0283  0.4053
   77CHL1   C22 8160   4.088   6.687   8.086 -0.7613 -0.8192 -0.0687
   77CHL1  H22A 8161   4.056   6.745   8.175  2.9178  1.7486 -0.2027
   77CHL1  H22B 8162   4.079   6.578   8.109 -2.1279 -1.3177 -2.6026
   77CHL1   C23 8163   4.237   6.721   8.061 -0.7682  0.3128 -0.2887
   77CHL1  H23A 8164   4.284   6.664   7.978 -0.4894 -0.6514  0.5187
   77CHL1  H23B 8165   4.250   6.829   8.036  0.2988  0.1444 -0.5452
   77CHL1   C24 8166   4.308   6.670   8.185  0.3103  0.1916 -0.5013
   77CHL1  H24A 8167   4.250   6.695   8.276  1.3056 -2.3337  0.9468
   77CHL1  H24B 8168   4.311   6.559   8.190 -1.2812  0.1156 -0.7969
   77CHL1   C25 8169   4.455   6.724   8.220 -0.5068 -0.1816  1.1325
   77CHL1   H25 8170   4.528   6.691   8.143 -1.3953 -0.7667  0.5164
   77CHL1   C26 8171   4.460   6.875   8.229 -0.3248 -1.0608 -0.0713
   77CHL1  H26A 8172   4.405   6.918   8.315  0.3730  1.9282 -1.0035
   77CHL1  H26B 8173   4.566   6.904   8.242 -0.2192 -1.5037  0.0737
   77CHL1  H26C 8174   4.420   6.924   8.137 -1.3294  1.2383  1.5040
   77CHL1   C27 8175   4.511   6.674   8.353 -0.1051  1.0894 -0.5734
   77CHL1  H27A 8176   4.606   6.723   8.383  0.9666 -0.5959 -1.0820
   77CHL1  H27B 8177   4.446   6.695   8.441  0.8564 -1.5433  0.8844
   77CHL1  H27C 8178   4.527   6.564   8.359  0.5116  1.1157 -1.5262
   78CHL1    C3 8179   4.683   0.304   6.822  0.2322  0.3659  0.1036
   78CHL1    H3 8180   4.777   0.361   6.805  0.2147  1.0038  1.8402
   78CHL1    O3 8181   4.618   0.282   6.698  0.7351  0.4191 -0.4410
   78CHL1   H3' 8182   4.664   0.208   6.657 -0.4533 -0.9031  0.5126
   78CHL1    C4 8183   4.705   0.167   6.900  0.1351 -0.5111  0.5206
   78CHL1   H4A 8184   4.603   0.122   6.898  0.0505 -0.4331 -3.4832
   78CHL1   H4B 8185   4.770   0.104   6.835  1.6706  1.0383  0.5028
   78CHL1    C5 8186   4.757   0.191   7.042 -0.0500  0.1431  0.2321
   78CHL1    C6 8187   4.865   0.125   7.094  0.1738 -0.1662 -0.1911
   78CHL1    H6 8188   4.923   0.058   7.028 -0.6208 -0.2594 -0.8008
   78CHL1    C7 8189   4.910   0.131   7.234 -0.0886  0.2877 -0.1050
   78CHL1   H7A 8190   4.923   0.025   7.262  0.9368  0.3435 -0.3280
   78CHL1   H7B 8191   5.006   0.187   7.242  0.5124 -0.7642  0.1490
   78CHL1    C8 8192   4.810   0.206   7.322  0.2181 -0.1722 -0.3602
   78CHL1    H8 8193   4.731   0.132   7.347 -1.4439  1.6380 -0.0338
   78CHL1   C14 8194   4.877   0.248   7.451 -0.4713 -0.1486  0.0876
   78CHL1   H14 8195   4.970   0.306   7.432 -0.8167  0.8757  1.4118
   78CHL1   C15 8196   4.938   0.127   7.517  0.1697 -0.2883  0.3849
   78CHL1  H15A 8197   4.860   0.048   7.521 -2.6837  2.2071 -1.4071
   78CHL1  H15B 8198   5.025   0.088   7.460 -0.5487  0.1681 -1.0796
   78CHL1   C16 8199   4.954   0.175   7.660  0.2917 -0.2814  0.2076
   78CHL1  H16A 8200   4.911   0.111   7.740 -1.0131  1.2831  0.8183
   78CHL1  H16B 8201   5.063   0.181   7.682  0.7374  1.3000 -2.0860
   78CHL1   C17 8202   4.889   0.318   7.671  0.8241  0.9214  0.8325
   78CHL1   H17 8203   4.969   0.385   7.632 -0.3375  0.2569 -3.1442
   78CHL1   C13 8204   4.788   0.316   7.549 -0.3174 -0.1883 -0.1198
   78CHL1   C18 8205   4.667   0.228   7.593  0.4895  0.9117  0.2307
   78CHL1  H18A 8206   4.692   0.145   7.662 -3.8894  0.3291  1.4253
   78CHL1  H18B 8207   4.584   0.286   7.639 -0.0208  0.9992 -0.7549
   78CHL1  H18C 8208   4.614   0.181   7.507  2.2481 -0.1021 -0.3579
   78CHL1   C12 8209   4.747   0.449   7.483  0.0830 -0.9961  0.1089
   78CHL1  H12A 8210   4.671   0.510   7.537 -1.1537 -1.5844 -0.9233
   78CHL1  H12B 8211   4.836   0.515   7.476 -2.0474  1.9224 -1.5651
   78CHL1   C11 8212   4.674   0.420   7.355 -0.6732  0.3915  0.9912
   78CHL1  H11A 8213   4.572   0.380   7.374 -0.7836 -1.5409 -2.7053
   78CHL1  H11B 8214   4.662   0.518   7.303 -2.7261 -0.1476  0.3597
   78CHL1    C9 8215   4.753   0.329   7.258  0.4656 -0.3882  0.8619
   78CHL1    H9 8216   4.842   0.388   7.228 -0.6505 -0.1917 -2.4138
   78CHL1   C10 8217   4.681   0.299   7.119  0.8043  0.5933 -0.1965
   78CHL1   C19 8218   4.534   0.246   7.155  0.4725  0.2294 -0.4726
   78CHL1  H19A 8219   4.488   0.195   7.067  2.0028 -0.6066 -0.8259
   78CHL1  H19B 8220   4.548   0.185   7.246  4.9845 -1.1729 -1.8566
   78CHL1  H19C 8221   4.471   0.335   7.180  0.3684 -0.3125  1.2629
   78CHL1    C1 8222   4.663   0.438   7.040 -0.2140  0.4697 -0.1216
   78CHL1   H1A 8223   4.599   0.513   7.092  1.2512  1.3421  0.5009
   78CHL1   H1B 8224   4.767   0.473   7.020 -0.7594  2.1635 -0.2074
   78CHL1    C2 8225   4.602   0.416   6.895 -0.0659 -0.0529 -0.1050
   78CHL1   H2A 8226   4.601   0.510   6.836  1.2066  2.4826  3.5025
   78CHL1   H2B 8227   4.496   0.382   6.899 -0.4246  0.7084 -2.0406
   78CHL1   C20 8228   4.850   0.365   7.813  0.2075  0.6808 -0.3256
   78CHL1   H20 8229   4.782   0.283   7.847  0.4432 -0.0134 -1.4856
   78CHL1   C21 8230   4.774   0.497   7.806  0.0097 -0.2180  0.0007
   78CHL1  H21A 8231   4.755   0.534   7.909 -2.3807  0.3396 -0.5794
   78CHL1  H21B 8232   4.683   0.482   7.745 -0.1525 -1.1133  0.4454
   78CHL1  H21C 8233   4.843   0.567   7.755  0.4112 -0.1157  0.6707
   78CHL1   C22 8234   4.973   0.378   7.910 -0.2818 -0.2411 -0.0963
   78CHL1  H22A 8235   5.026   0.285   7.881 -0.9479  0.2098 -3.2028
   78CHL1  H22B 8236   5.048   0.455   7.880  1.0558 -2.0061 -1.5633
   78CHL1   C23 8237   4.940   0.403   8.053 -0.2673  0.2973 -0.0053
   78CHL1  H23A 8238   4.914   0.509   8.072  0.6597  1.0436 -2.5042
   78CHL1  H23B 8239   4.860   0.337   8.094  2.1920 -3.6919 -1.0694
   78CHL1   C24 8240   5.067   0.386   8.129 -0.6257  0.0159 -0.3890
   78CHL1  H24A 8241   5.093   0.280   8.106  0.3805 -0.3920  2.2563
   78CHL1  H24B 8242   5.148   0.440   8.075 -0.0467 -1.2585 -0.8221
   78CHL1   C25 8243   5.067   0.425   8.273  0.1110 -0.0994  0.1824
   78CHL1   H25 8244   5.047   0.534   8.272 -0.4148 -0.1873  0.7608
   78CHL1   C26 8245   4.962   0.346   8.350  0.3032 -0.6416  0.0160
   78CHL1  H26A 8246   4.988   0.239   8.359  2.8329  0.0111  1.1397
   78CHL1  H26B 8247   4.959   0.374   8.457  4.0268  0.6073 -0.0582
   78CHL1  H26C 8248   4.863   0.362   8.302  0.9506  1.5649 -0.7204
   78CHL1   C27 8249   5.207   0.390   8.338 -0.1261  0.2528  0.6849
   78CHL1  H27A 8250   5.234   0.282   8.330  0.7860  0.3917  1.5531
   78CHL1  H27B 8251   5.292   0.446   8.293  0.8903 -0.1572  2.0226
   78CHL1  H27C 8252   5.197   0.416   8.446 -1.7313 -0.6170  0.7711
   79CHL1    C3 8253   3.379   1.147   7.229  0.3110  0.0356 -0.3245
   79CHL1    H3 8254   3.424   1.247   7.246 -3.0642  1.1706  3.5179
   79CHL1    O3 8255   3.357   1.123   7.092 -0.2981 -0.2476  0.0274
   79CHL1   H3' 8256   3.289   1.057   7.100  1.4723 -2.1422  0.2822
   79CHL1    C4 8257   3.462   1.033   7.292  0.5249  0.1520  0.4830
   79CHL1   H4A 8258   3.393   0.947   7.278  2.2943 -1.1151 -0.9358
   79CHL1   H4B 8259   3.551   1.013   7.229 -0.8230 -1.2711 -1.0951
   79CHL1    C5 8260   3.490   1.044   7.442 -0.2862  0.1142 -0.0434
   79CHL1    C6 8261   3.619   1.048   7.483  0.7057  0.0468 -0.1620
   79CHL1    H6 8262   3.699   1.051   7.407  1.0587 -0.6186  0.1770
   79CHL1    C7 8263   3.657   1.062   7.631 -0.4990 -0.5614  0.8329
   79CHL1   H7A 8264   3.708   0.968   7.661 -0.5677 -1.5858 -1.9583
   79CHL1   H7B 8265   3.722   1.151   7.637 -2.0748  0.8781 -1.6057
   79CHL1    C8 8266   3.534   1.059   7.726 -0.0600 -0.1022 -0.4543
   79CHL1    H8 8267   3.506   0.953   7.745 -0.2486  0.0420  0.0871
   79CHL1   C14 8268   3.563   1.139   7.853 -0.9426  0.6852 -0.5996
   79CHL1   H14 8269   3.557   1.244   7.817  4.3147  1.4294 -0.0518
   79CHL1   C15 8270   3.697   1.120   7.921 -0.1307  0.4897 -0.0322
   79CHL1  H15A 8271   3.728   1.016   7.945  0.8100  0.8925  0.5866
   79CHL1  H15B 8272   3.788   1.159   7.871  0.5817 -0.2787  0.6410
   79CHL1   C16 8273   3.677   1.185   8.064  0.3928  0.6196  0.2948
   79CHL1  H16A 8274   3.699   1.119   8.151 -1.7835 -0.3865  0.1510
   79CHL1  H16B 8275   3.717   1.288   8.075 -2.8363  1.8660  1.2713
   79CHL1   C17 8276   3.520   1.205   8.066 -0.9002  0.2441  0.3199
   79CHL1   H17 8277   3.498   1.307   8.029 -0.0225  0.2763 -0.1326
   79CHL1   C13 8278   3.456   1.117   7.957  0.2991 -1.2672 -0.0770
   79CHL1   C18 8279   3.454   0.968   8.005  0.2160 -0.5113  1.0726
   79CHL1  H18A 8280   3.386   0.963   8.093  0.9409 -0.6806  1.6260
   79CHL1  H18B 8281   3.404   0.902   7.930  1.4676 -0.9777  0.6154
   79CHL1  H18C 8282   3.553   0.922   8.025  1.7199  1.2009 -1.7852
   79CHL1   C12 8283   3.317   1.156   7.899  0.9891 -0.5671 -0.5782
   79CHL1  H12A 8284   3.232   1.115   7.959  0.8486 -1.6805 -1.4956
   79CHL1  H12B 8285   3.293   1.264   7.899 -0.5137 -0.8678 -1.0538
   79CHL1   C11 8286   3.290   1.098   7.764  0.5105 -0.1268  0.3837
   79CHL1  H11A 8287   3.282   0.988   7.780  0.1283 -0.3105 -0.8779
   79CHL1  H11B 8288   3.196   1.139   7.722  0.7561  0.0691  0.0153
   79CHL1    C9 8289   3.405   1.118   7.663  0.6389 -0.9218  0.2185
   79CHL1    H9 8290   3.418   1.228   7.655  0.1211 -0.8983 -0.3608
   79CHL1   C10 8291   3.368   1.063   7.523 -0.0149 -0.1696 -0.2396
   79CHL1   C19 8292   3.301   0.927   7.533 -0.4472 -0.5559  0.5960
   79CHL1  H19A 8293   3.208   0.925   7.593 -0.6359 -0.4372  0.3093
   79CHL1  H19B 8294   3.286   0.871   7.438  0.6248 -0.8918  0.6051
   79CHL1  H19C 8295   3.368   0.868   7.599 -1.5079  0.2576  2.4582
   79CHL1    C1 8296   3.258   1.159   7.458 -0.3652  0.1132  0.0887
   79CHL1   H1A 8297   3.156   1.140   7.500  0.8057 -0.2313  3.0264
   79CHL1   H1B 8298   3.285   1.263   7.483  0.6429  0.3194 -1.7136
   79CHL1    C2 8299   3.246   1.155   7.306 -0.1888  0.7313  0.0532
   79CHL1   H2A 8300   3.177   1.233   7.268 -0.3634  0.4484 -0.2105
   79CHL1   H2B 8301   3.180   1.068   7.286  0.1945  0.1163  1.2910
   79CHL1   C20 8302   3.461   1.207   8.201  0.1047 -0.3210 -0.4822
   79CHL1   H20 8303   3.461   1.101   8.236 -1.0071  0.1638  1.0655
   79CHL1   C21 8304   3.317   1.258   8.204  0.1668  0.0910 -0.0334
   79CHL1  H21A 8305   3.241   1.191   8.157 -2.1291  2.9105 -0.6751
   79CHL1  H21B 8306   3.310   1.360   8.161  0.9277 -0.3880 -1.3485
   79CHL1  H21C 8307   3.274   1.271   8.305 -0.1952  1.3832 -0.3385
   79CHL1   C22 8308   3.535   1.288   8.305  0.1388 -0.2518 -0.1824
   79CHL1  H22A 8309   3.480   1.286   8.402  2.5668 -1.6257  1.2726
   79CHL1  H22B 8310   3.637   1.249   8.320 -0.4255 -1.8035 -0.2113
   79CHL1   C23 8311   3.552   1.440   8.280  0.3177  0.0739  0.8093
   79CHL1  H23A 8312   3.584   1.455   8.175  2.3176 -0.0424  1.3695
   79CHL1  H23B 8313   3.449   1.482   8.278  0.5399  0.6923  1.7883
   79CHL1   C24 8314   3.656   1.508   8.362 -0.2388 -0.2710 -0.3873
   79CHL1  H24A 8315   3.752   1.452   8.355  0.4213  0.3089  2.6761
   79CHL1  H24B 8316   3.676   1.614   8.334 -2.0780  0.7839  1.9629
   79CHL1   C25 8317   3.626   1.519   8.509  0.0632  0.6434  0.4622
   79CHL1   H25 8318   3.638   1.423   8.563 -1.5297  1.2963  2.0802
   79CHL1   C26 8319   3.740   1.608   8.569 -0.7957 -0.4011  0.0309
   79CHL1  H26A 8320   3.837   1.565   8.537  0.9695  3.5285 -0.4833
   79CHL1  H26B 8321   3.729   1.710   8.524 -0.6226 -0.7193 -0.7565
   79CHL1  H26C 8322   3.722   1.611   8.678 -0.3549 -0.4224  0.1085
   79CHL1   C27 8323   3.492   1.586   8.532  0.1987 -0.3039  0.3052
   79CHL1  H27A 8324   3.481   1.665   8.455 -2.6476 -2.0756 -1.2974
   79CHL1  H27B 8325   3.417   1.510   8.504  1.7648 -1.7773 -0.0795
   79CHL1  H27C 8326   3.497   1.623   8.637 -0.5961  4.1783 -1.0475
   80CHL1    C3 8327   4.949   6.507   6.854 -1.3658  0.4633 -0.4434
   80CHL1    H3 8328   4.866   6.478   6.922  0.5526  0.4916  2.0760
   80CHL1    O3 8329   4.899   6.581   6.739  0.0869  0.0135 -0.3449
   80CHL1   H3' 8330   4.969   6.594   6.674 -1.5032  1.2041 -1.8988
   80CHL1    C4 8331   5.048   6.596   6.931  0.0238  0.1827 -0.0036
   80CHL1   H4A 8332   5.128   6.615   6.857  1.3921 -1.9044  0.8493
   80CHL1   H4B 8333   4.997   6.689   6.966 -1.4603 -1.8049  3.7708
   80CHL1    C5 8334   5.110   6.514   7.046 -0.1116 -0.0091  0.4771
   80CHL1    C6 8335   5.099   6.558   7.172  0.1122 -0.3168 -0.1730
   80CHL1    H6 8336   5.035   6.646   7.188  2.1263  1.5469 -1.8051
   80CHL1    C7 8337   5.166   6.487   7.288  0.1805  0.3746  0.5615
   80CHL1   H7A 8338   5.217   6.561   7.353  0.6034  1.2344 -0.7176
   80CHL1   H7B 8339   5.081   6.448   7.348 -0.1389 -2.0696 -1.3277
   80CHL1    C8 8340   5.248   6.374   7.251  0.6513 -0.0384  0.4437
   80CHL1    H8 8341   5.350   6.412   7.226  0.6742  0.2401  0.9447
   80CHL1   C14 8342   5.260   6.281   7.372 -0.8189  0.4528  0.4571
   80CHL1   H14 8343   5.154   6.252   7.385 -1.2291  0.6862 -2.0436
   80CHL1   C15 8344   5.312   6.341   7.501 -0.3243  0.5123  0.2263
   80CHL1  H15A 8345   5.401   6.402   7.478 -0.7539  0.5988 -1.3379
   80CHL1  H15B 8346   5.249   6.412   7.559  1.8560  1.7425  1.2139
   80CHL1   C16 8347   5.329   6.219   7.589 -0.6645  0.9973 -0.7389
   80CHL1  H16A 8348   5.429   6.227   7.635 -0.5042  0.1862 -0.9265
   80CHL1  H16B 8349   5.258   6.202   7.673  0.2484  0.0090 -0.1420
   80CHL1   C17 8350   5.324   6.092   7.498  0.1685 -0.0032  0.1825
   80CHL1   H17 8351   5.218   6.056   7.493 -0.0668  0.6171  0.6955
   80CHL1   C13 8352   5.346   6.155   7.360 -0.1570  0.5692 -0.0379
   80CHL1   C18 8353   5.502   6.193   7.345  0.1527  0.1980 -0.3617
   80CHL1  H18A 8354   5.545   6.245   7.433 -1.7996 -0.1863  0.8990
   80CHL1  H18B 8355   5.549   6.092   7.340 -1.3456 -0.5570  0.0644
   80CHL1  H18C 8356   5.524   6.245   7.250  0.7935 -0.5226 -0.6130
   80CHL1   C12 8357   5.296   6.075   7.237  0.1087 -0.0840 -0.1846
   80CHL1  H12A 8358   5.362   5.989   7.208  0.1580  0.0001 -0.3274
   80CHL1  H12B 8359   5.192   6.046   7.260  0.4564 -1.2110  0.0522
   80CHL1   C11 8360   5.286   6.163   7.111  0.2911  0.3192 -0.1882
   80CHL1  H11A 8361   5.389   6.198   7.090  0.7235  0.6706  2.2350
   80CHL1  H11B 8362   5.247   6.104   7.025 -2.3448  1.4204  0.1551
   80CHL1    C9 8363   5.196   6.293   7.130  0.0399 -0.2504 -0.6727
   80CHL1    H9 8364   5.098   6.251   7.161  0.3396 -0.2488  0.3190
   80CHL1   C10 8365   5.176   6.376   7.002 -0.8532  0.6059  0.1074
   80CHL1   C19 8366   5.309   6.415   6.936  0.4328 -0.1594 -0.1606
   80CHL1  H19A 8367   5.352   6.317   6.902 -0.4067  0.0735 -2.0225
   80CHL1  H19B 8368   5.299   6.481   6.848 -0.9929  0.3025  0.3235
   80CHL1  H19C 8369   5.387   6.456   7.004  1.7426 -1.2076 -0.9667
   80CHL1    C1 8370   5.080   6.296   6.911 -0.2632  0.1035  0.7221
   80CHL1   H1A 8371   5.143   6.217   6.864  1.1378  1.0210  0.9928
   80CHL1   H1B 8372   4.987   6.256   6.956 -1.4064 -0.7094 -2.1253
   80CHL1    C2 8373   5.022   6.383   6.797 -0.5293  0.7996  0.5052
   80CHL1   H2A 8374   4.942   6.337   6.735 -0.0426  1.7038 -0.8363
   80CHL1   H2B 8375   5.104   6.412   6.729 -0.1743  0.1938  0.6688
   80CHL1   C20 8376   5.405   5.975   7.547 -0.3847  0.5159  0.2283
   80CHL1   H20 8377   5.514   5.995   7.547 -0.6380  2.2817  2.3652
   80CHL1   C21 8378   5.378   5.848   7.459 -0.2463  0.0360  0.4192
   80CHL1  H21A 8379   5.394   5.754   7.515 -1.0185  1.1506  2.6005
   80CHL1  H21B 8380   5.456   5.851   7.379 -0.3252  1.5635  0.3689
   80CHL1  H21C 8381   5.278   5.852   7.411  0.1456  0.2999 -0.4075
   80CHL1   C22 8382   5.378   5.943   7.695  0.3415 -0.7665  0.0090
   80CHL1  H22A 8383   5.410   6.024   7.764 -1.1857  0.2427 -0.4224
   80CHL1  H22B 8384   5.268   5.933   7.708  0.0975  0.9461 -0.5199
   80CHL1   C23 8385   5.437   5.822   7.762 -0.2216  0.2737 -0.0383
   80CHL1  H23A 8386   5.374   5.737   7.728 -0.2112  0.8172 -1.4753
   80CHL1  H23B 8387   5.542   5.807   7.730  0.2260 -2.2035  2.2494
   80CHL1   C24 8388   5.430   5.823   7.914 -0.3004 -1.1977  0.2540
   80CHL1  H24A 8389   5.335   5.866   7.953 -0.8693 -0.7777 -1.5143
   80CHL1  H24B 8390   5.460   5.722   7.948  1.1064 -1.9957 -3.0685
   80CHL1   C25 8391   5.545   5.902   7.986 -0.1562 -0.3445  0.2188
   80CHL1   H25 8392   5.533   6.004   7.943 -2.9245 -0.9775 -0.6925
   80CHL1   C26 8393   5.497   5.909   8.139 -0.2808 -0.0967 -0.2251
   80CHL1  H26A 8394   5.557   5.982   8.197  1.9150 -1.1541 -1.0441
   80CHL1  H26B 8395   5.389   5.932   8.145 -0.0154  1.1261  0.0261
   80CHL1  H26C 8396   5.510   5.807   8.180 -0.2957 -0.5667 -1.3334
   80CHL1   C27 8397   5.690   5.845   7.962  0.4379  0.1614  0.6349
   80CHL1  H27A 8398   5.730   5.857   7.859  2.4507 -0.8391  1.2556
   80CHL1  H27B 8399   5.773   5.887   8.022  2.3102 -2.3171 -0.0526
   80CHL1  H27C 8400   5.691   5.735   7.977 -1.2548  0.0969  0.4702
   81CHL1    C3 8401   2.008   3.284   6.763 -0.6146 -0.2495  0.7302
   81CHL1    H3 8402   2.030   3.393   6.764 -0.2952 -0.3088  0.3776
   81CHL1    O3 8403   1.956   3.251   6.633  0.1100  0.1680 -0.2686
   81CHL1   H3' 8404   2.021   3.193   6.592  1.4757  0.5822  1.2141
   81CHL1    C4 8405   2.118   3.193   6.786 -0.7490 -0.0637 -0.7203
   81CHL1   H4A 8406   2.093   3.085   6.792 -0.5664 -0.0223  1.7401
   81CHL1   H4B 8407   2.196   3.215   6.710  2.7161 -1.8276  2.0370
   81CHL1    C5 8408   2.177   3.231   6.920  0.1002 -0.2397  0.8546
   81CHL1    C6 8409   2.306   3.269   6.937 -0.3042 -0.5150  0.0836
   81CHL1    H6 8410   2.372   3.270   6.849  0.6117  1.1334  0.7403
   81CHL1    C7 8411   2.359   3.303   7.070 -0.9550  0.0936  0.0352
   81CHL1   H7A 8412   2.465   3.273   7.086 -0.6782  1.2354  0.4443
   81CHL1   H7B 8413   2.374   3.413   7.075  1.4905 -0.1720 -0.2419
   81CHL1    C8 8414   2.276   3.238   7.188 -0.5512 -0.0420  0.0108
   81CHL1    H8 8415   2.298   3.129   7.187  1.7375  0.3773 -0.9864
   81CHL1   C14 8416   2.318   3.302   7.318  0.7163 -0.4297 -0.3565
   81CHL1   H14 8417   2.299   3.411   7.308 -1.6930 -0.7217  0.4755
   81CHL1   C15 8418   2.468   3.299   7.365 -0.0857  0.0073  0.8439
   81CHL1  H15A 8419   2.487   3.192   7.340  0.4129  0.5478 -1.2991
   81CHL1  H15B 8420   2.532   3.365   7.302 -1.6471 -1.2630 -2.2861
   81CHL1   C16 8421   2.463   3.328   7.514  0.0971 -0.2395 -0.5125
   81CHL1  H16A 8422   2.520   3.254   7.574  2.1835  1.8443  0.2201
   81CHL1  H16B 8423   2.528   3.412   7.547 -0.1564 -0.3891  0.3777
   81CHL1   C17 8424   2.311   3.345   7.547  0.4978 -0.2974  0.7144
   81CHL1   H17 8425   2.295   3.452   7.520  3.3557  0.1647  0.4787
   81CHL1   C13 8426   2.237   3.270   7.444  1.0739  0.4801  0.4246
   81CHL1   C18 8427   2.251   3.121   7.468 -0.1761 -0.9588 -0.6673
   81CHL1  H18A 8428   2.171   3.084   7.536  0.5574  0.0480  0.8031
   81CHL1  H18B 8429   2.243   3.069   7.370 -1.8930  0.4298 -1.2999
   81CHL1  H18C 8430   2.349   3.088   7.510  0.9040  3.0729  0.3403
   81CHL1   C12 8431   2.087   3.305   7.418 -0.7445 -0.2280 -0.4681
   81CHL1  H12A 8432   2.041   3.256   7.507  4.2428 -3.0377  0.9112
   81CHL1  H12B 8433   2.076   3.416   7.414  2.0780  0.1421 -0.0256
   81CHL1   C11 8434   2.038   3.240   7.293 -0.5288 -0.1610  0.0997
   81CHL1  H11A 8435   2.043   3.130   7.308 -0.3982  0.0078  1.3779
   81CHL1  H11B 8436   1.929   3.251   7.274 -0.4401 -1.1003 -1.0439
   81CHL1    C9 8437   2.127   3.265   7.167 -0.4537  0.6098  0.4402
   81CHL1    H9 8438   2.133   3.375   7.158  1.5463  0.6874  1.9197
   81CHL1   C10 8439   2.069   3.207   7.034 -0.2113 -0.3388  0.0263
   81CHL1   C19 8440   2.058   3.053   7.045 -0.5213  0.1964  0.3337
   81CHL1  H19A 8441   2.159   3.006   7.039 -0.2147  0.7453  0.9581
   81CHL1  H19B 8442   2.009   3.023   7.140  0.8128  1.0316  1.3168
   81CHL1  H19C 8443   2.000   3.015   6.958  1.5628  1.6632 -1.8160
   81CHL1    C1 8444   1.937   3.282   7.000  0.4579  0.9241 -0.3438
   81CHL1   H1A 8445   1.855   3.267   7.073  0.9237  0.9728  0.1957
   81CHL1   H1B 8446   1.956   3.391   7.003 -2.4461  1.5545 -1.5670
   81CHL1    C2 8447   1.890   3.260   6.857 -0.5429  0.3571  0.0054
   81CHL1   H2A 8448   1.807   3.331   6.839  0.4974  1.5527 -0.2046
   81CHL1   H2B 8449   1.858   3.154   6.847 -2.3489  0.8422  0.2840
   81CHL1   C20 8450   2.269   3.321   7.694 -0.1581 -0.1207 -0.6210
   81CHL1   H20 8451   2.264   3.210   7.697  1.9137 -0.3551 -2.6555
   81CHL1   C21 8452   2.139   3.387   7.727 -0.1869 -0.3939 -0.3988
   81CHL1  H21A 8453   2.049   3.341   7.680 -3.5329  3.0200  2.1162
   81CHL1  H21B 8454   2.123   3.492   7.696  0.4267 -0.4937 -1.0863
   81CHL1  H21C 8455   2.133   3.371   7.837  0.7541  1.3227 -0.0739
   81CHL1   C22 8456   2.379   3.353   7.798 -0.7003  0.3534 -0.3588
   81CHL1  H22A 8457   2.359   3.302   7.895  1.5355 -0.3904 -0.2391
   81CHL1  H22B 8458   2.469   3.296   7.766 -0.5959  0.4133 -0.1790
   81CHL1   C23 8459   2.407   3.505   7.803 -0.2683  0.3575  0.1314
   81CHL1  H23A 8460   2.380   3.544   7.703 -0.9544 -1.2298 -0.3399
   81CHL1  H23B 8461   2.324   3.551   7.861  1.7486  1.2663  2.4588
   81CHL1   C24 8462   2.549   3.541   7.839  0.6865 -0.0509 -0.0387
   81CHL1  H24A 8463   2.616   3.484   7.771 -1.4752 -3.1000  0.1713
   81CHL1  H24B 8464   2.575   3.649   7.834  2.4279 -0.4716 -0.6691
   81CHL1   C25 8465   2.568   3.495   7.989 -0.3544 -0.1645 -0.4564
   81CHL1   H25 8466   2.502   3.407   8.004 -1.8176  1.1916  1.5018
   81CHL1   C26 8467   2.715   3.467   8.032  0.1863  0.2955 -0.7535
   81CHL1  H26A 8468   2.734   3.478   8.140  2.3941  2.3174 -1.2696
   81CHL1  H26B 8469   2.759   3.372   7.994 -0.9069 -0.0656 -1.1524
   81CHL1  H26C 8470   2.779   3.546   7.987  0.8394 -0.9945 -2.2056
   81CHL1   C27 8471   2.503   3.590   8.091  0.4416 -0.2872 -0.4886
   81CHL1  H27A 8472   2.560   3.686   8.091 -0.1682  0.0973  0.7958
   81CHL1  H27B 8473   2.398   3.616   8.067  1.2683  4.4681 -0.0115
   81CHL1  H27C 8474   2.501   3.562   8.198  1.2868  4.8122  1.1195
   82CHL1    C3 8475   1.789   5.077   6.959 -0.4037 -0.3668 -0.3845
   82CHL1    H3 8476   1.822   4.974   6.987  0.3153 -0.0545 -0.0669
   82CHL1    O3 8477   1.722   5.078   6.832 -0.0326 -0.0642 -0.3683
   82CHL1   H3' 8478   1.770   5.015   6.777 -1.2502  1.4027 -3.2967
   82CHL1    C4 8479   1.688   5.114   7.072  0.2169 -0.3468 -0.4936
   82CHL1   H4A 8480   1.635   5.207   7.040  1.9695  1.2725  1.0991
   82CHL1   H4B 8481   1.617   5.029   7.082 -0.3818  0.3835  2.3869
   82CHL1    C5 8482   1.754   5.143   7.208 -0.1032 -0.5679  0.2000
   82CHL1    C6 8483   1.707   5.082   7.316  0.2347  0.3389 -0.5250
   82CHL1    H6 8484   1.629   5.004   7.314  0.5702 -0.0722  0.9595
   82CHL1    C7 8485   1.757   5.103   7.457 -0.0069 -0.5457 -0.8454
   82CHL1   H7A 8486   1.676   5.112   7.533  1.4612 -1.5219  0.9101
   82CHL1   H7B 8487   1.812   5.012   7.491  1.1674  0.3648 -0.2623
   82CHL1    C8 8488   1.842   5.230   7.463 -0.4480  0.1953  0.1775
   82CHL1    H8 8489   1.771   5.316   7.463 -0.3709  0.3152 -2.2673
   82CHL1   C14 8490   1.936   5.221   7.585  0.7803  0.2940  0.0423
   82CHL1   H14 8491   2.008   5.142   7.555 -0.7785 -0.9967 -0.4415
   82CHL1   C15 8492   1.867   5.187   7.716 -0.7072  0.4967  0.1604
   82CHL1  H15A 8493   1.774   5.247   7.724 -0.2388  1.3280 -0.5428
   82CHL1  H15B 8494   1.845   5.078   7.713  0.7867  0.1450  1.1260
   82CHL1   C16 8495   1.966   5.228   7.819 -0.1325  0.2166 -0.2678
   82CHL1  H16A 8496   1.908   5.286   7.894 -1.8948 -0.7769 -0.8222
   82CHL1  H16B 8497   2.014   5.146   7.877  1.5017  0.5377 -1.0863
   82CHL1   C17 8498   2.088   5.304   7.741  0.3243 -0.0241 -0.5358
   82CHL1   H17 8499   2.160   5.220   7.728 -0.8687 -0.9619 -1.2199
   82CHL1   C13 8500   2.027   5.339   7.607 -0.2800 -0.0912  0.0448
   82CHL1   C18 8501   1.940   5.465   7.626  0.3695  0.2314  0.1636
   82CHL1  H18A 8502   1.880   5.468   7.720  0.3993  0.1723  0.1845
   82CHL1  H18B 8503   2.009   5.549   7.650  0.8830  0.0106 -0.5241
   82CHL1  H18C 8504   1.870   5.495   7.545  0.0703 -0.1192  0.2851
   82CHL1   C12 8505   2.128   5.356   7.488  0.1913 -0.2544  0.4866
   82CHL1  H12A 8506   2.174   5.456   7.495  0.5227 -0.3956  0.3201
   82CHL1  H12B 8507   2.208   5.279   7.492  0.0410 -0.3681  2.6402
   82CHL1   C11 8508   2.043   5.364   7.357  0.6897 -0.2208  0.2303
   82CHL1  H11A 8509   1.976   5.452   7.360  0.8347 -0.0616 -0.8561
   82CHL1  H11B 8510   2.112   5.370   7.270  1.4919  2.7359  0.9779
   82CHL1    C9 8511   1.941   5.243   7.345  0.0417 -0.4928 -0.1803
   82CHL1    H9 8512   2.005   5.152   7.344  1.0234  0.1824 -0.8413
   82CHL1   C10 8513   1.868   5.242   7.204 -0.4789  0.2712  0.8514
   82CHL1   C19 8514   1.818   5.392   7.170 -0.1983 -0.1660  0.6224
   82CHL1  H19A 8515   1.756   5.406   7.079 -2.6105  0.1779  2.2197
   82CHL1  H19B 8516   1.762   5.414   7.263  2.0482 -2.1851  2.5749
   82CHL1  H19C 8517   1.902   5.464   7.163  0.0928 -0.6555 -1.8445
   82CHL1    C1 8518   1.972   5.179   7.097  0.0677  0.0756 -0.6741
   82CHL1   H1A 8519   2.069   5.233   7.099 -1.0002  2.1954  2.6879
   82CHL1   H1B 8520   2.004   5.075   7.119  1.2743  0.1376 -1.9510
   82CHL1    C2 8521   1.914   5.174   6.958  0.0878 -0.0740 -0.1357
   82CHL1   H2A 8522   1.987   5.129   6.887  0.3615  1.7387 -1.0590
   82CHL1   H2B 8523   1.896   5.280   6.931 -0.6152  0.0563  0.8078
   82CHL1   C20 8524   2.157   5.408   7.832 -0.0293  0.0044 -0.0055
   82CHL1   H20 8525   2.099   5.502   7.846 -1.7607 -0.8889 -0.9301
   82CHL1   C21 8526   2.280   5.466   7.761 -0.4287  0.3358 -0.4526
   82CHL1  H21A 8527   2.256   5.505   7.660 -1.0687  2.1077  0.3497
   82CHL1  H21B 8528   2.348   5.384   7.729  0.5414  1.3822 -1.1588
   82CHL1  H21C 8529   2.331   5.541   7.824 -0.3079  0.2094 -0.4009
   82CHL1   C22 8530   2.203   5.337   7.963 -0.2233  0.1708 -0.0945
   82CHL1  H22A 8531   2.116   5.291   8.015  0.3421 -2.6370 -1.4175
   82CHL1  H22B 8532   2.262   5.248   7.930 -0.8278  0.0890 -0.9754
   82CHL1   C23 8533   2.279   5.433   8.053 -0.1954 -0.0288  0.6379
   82CHL1  H23A 8534   2.310   5.384   8.148  1.1926  1.5515  1.0771
   82CHL1  H23B 8535   2.378   5.455   8.006 -0.7477 -2.3402 -1.7876
   82CHL1   C24 8536   2.202   5.560   8.089 -1.1553 -0.3532  0.3450
   82CHL1  H24A 8537   2.228   5.638   8.015  0.4033 -1.5890 -0.4624
   82CHL1  H24B 8538   2.092   5.551   8.096 -1.0987  0.0622  3.6138
   82CHL1   C25 8539   2.229   5.614   8.232 -0.0918 -0.0494 -0.1812
   82CHL1   H25 8540   2.197   5.538   8.306  0.4168  1.3321  1.5467
   82CHL1   C26 8541   2.378   5.652   8.265  0.2505  0.9940  0.1242
   82CHL1  H26A 8542   2.425   5.719   8.190 -2.5236  0.4912 -2.2511
   82CHL1  H26B 8543   2.385   5.709   8.360  0.2061  0.9633  0.1459
   82CHL1  H26C 8544   2.443   5.564   8.277  0.1880  1.2355  2.9240
   82CHL1   C27 8545   2.157   5.748   8.264 -0.1577 -0.0631  0.1971
   82CHL1  H27A 8546   2.176   5.827   8.189 -0.7596  0.7084  0.8376
   82CHL1  H27B 8547   2.048   5.728   8.258 -0.1756  0.2078 -0.3780
   82CHL1  H27C 8548   2.173   5.794   8.364  0.2563 -1.5198  0.8435
   83CHL1    C3 8549   4.065   0.262   6.968  0.4851 -0.3676  0.1337
   83CHL1    H3 8550   4.167   0.229   6.937  0.6057  0.6899 -0.6371
   83CHL1    O3 8551   3.981   0.256   6.850  0.3619  0.0447 -0.2570
   83CHL1   H3' 8552   3.896   0.281   6.886 -0.5482 -1.4195 -1.2867
   83CHL1    C4 8553   4.001   0.188   7.086  0.1063 -0.1563  0.4021
   83CHL1   H4A 8554   3.899   0.231   7.091 -0.1678 -0.2070 -2.8392
   83CHL1   H4B 8555   4.001   0.083   7.048 -1.1232  1.5243 -5.0751
   83CHL1    C5 8556   4.069   0.209   7.216 -0.1796  0.1305 -0.0715
   83CHL1    C6 8557   4.137   0.116   7.273  0.1887  0.0134 -0.0481
   83CHL1    H6 8558   4.138   0.014   7.234 -2.3071  0.4046 -1.3244
   83CHL1    C7 8559   4.198   0.124   7.405 -0.3154  0.3982  0.2210
   83CHL1   H7A 8560   4.170   0.042   7.475  0.6296  0.6854  0.9525
   83CHL1   H7B 8561   4.309   0.127   7.403 -0.2258 -0.9018  1.4907
   83CHL1    C8 8562   4.158   0.254   7.474 -0.1126 -0.4327 -0.5495
   83CHL1    H8 8563   4.058   0.246   7.522 -0.7652  1.5219 -1.4647
   83CHL1   C14 8564   4.253   0.283   7.592 -0.2605 -0.3810 -0.5786
   83CHL1   H14 8565   4.345   0.312   7.538 -0.3805  2.1246  0.4524
   83CHL1   C15 8566   4.291   0.173   7.681  0.3323  0.5357 -0.3532
   83CHL1  H15A 8567   4.208   0.104   7.709  2.0325 -0.9351  1.4583
   83CHL1  H15B 8568   4.371   0.110   7.636  1.7282  3.3109 -2.0185
   83CHL1   C16 8569   4.331   0.234   7.812 -0.3360 -0.2150 -0.0583
   83CHL1  H16A 8570   4.266   0.208   7.899 -0.0702  0.4615  0.3484
   83CHL1  H16B 8571   4.435   0.211   7.841 -0.6656 -0.4038  1.0406
   83CHL1   C17 8572   4.316   0.394   7.795 -0.5736  0.2134  0.9009
   83CHL1   H17 8573   4.416   0.422   7.757 -0.8246  0.3912  0.3703
   83CHL1   C13 8574   4.211   0.402   7.683  0.2168 -0.7974  0.2147
   83CHL1   C18 8575   4.068   0.386   7.740 -0.0475  0.5446  0.5007
   83CHL1  H18A 8576   4.076   0.296   7.805  3.3298  0.7990  0.5977
   83CHL1  H18B 8577   4.041   0.472   7.806 -0.7946  1.2512 -0.6743
   83CHL1  H18C 8578   3.994   0.366   7.660  1.2141 -1.4151 -0.2412
   83CHL1   C12 8579   4.229   0.531   7.590 -0.0926  0.7149 -0.9379
   83CHL1  H12A 8580   4.198   0.627   7.637  1.3024  0.4403  0.6241
   83CHL1  H12B 8581   4.339   0.536   7.575 -0.2963  1.2702 -2.3742
   83CHL1   C11 8582   4.147   0.521   7.461 -0.1189  0.0466  0.2829
   83CHL1  H11A 8583   4.042   0.548   7.483 -0.9841 -1.5115 -1.6182
   83CHL1  H11B 8584   4.192   0.586   7.383  1.9684  1.4590  2.5219
   83CHL1    C9 8585   4.150   0.380   7.393  0.2317  0.3416  0.6351
   83CHL1    H9 8586   4.256   0.386   7.359 -0.6172 -1.1369 -2.6661
   83CHL1   C10 8587   4.071   0.356   7.265 -0.0691 -0.1564  1.2663
   83CHL1   C19 8588   3.920   0.416   7.299 -0.7544  0.0161 -0.1736
   83CHL1  H19A 8589   3.845   0.397   7.219 -1.9182  2.1298  0.3560
   83CHL1  H19B 8590   3.882   0.360   7.387 -0.6002 -0.5851 -0.4817
   83CHL1  H19C 8591   3.931   0.525   7.314 -0.1900  0.4544 -3.0820
   83CHL1    C1 8592   4.131   0.450   7.143 -0.2810 -0.1965 -1.0791
   83CHL1   H1A 8593   4.119   0.559   7.162 -0.1311 -0.5224  1.1688
   83CHL1   H1B 8594   4.238   0.421   7.148  0.3504  2.0292 -0.6015
   83CHL1    C2 8595   4.075   0.420   7.000 -0.0759  0.5516 -0.1980
   83CHL1   H2A 8596   4.143   0.471   6.928  1.3193 -0.9265  0.0265
   83CHL1   H2B 8597   3.970   0.454   6.991 -0.6793 -0.8248  1.2632
   83CHL1   C20 8598   4.300   0.461   7.930 -1.1523 -0.7010 -0.3711
   83CHL1   H20 8599   4.206   0.424   7.975 -1.3317 -1.4521 -1.3552
   83CHL1   C21 8600   4.277   0.617   7.905 -0.2805 -0.3078  0.3917
   83CHL1  H21A 8601   4.366   0.643   7.844 -0.9904 -3.4507 -2.2292
   83CHL1  H21B 8602   4.286   0.682   7.995  0.5630  1.6474 -1.0467
   83CHL1  H21C 8603   4.177   0.634   7.860  0.3364 -2.4239 -2.0137
   83CHL1   C22 8604   4.410   0.440   8.036  0.0658 -0.0708  0.4462
   83CHL1  H22A 8605   4.439   0.333   8.032 -0.8649 -0.3045 -2.4339
   83CHL1  H22B 8606   4.507   0.492   8.020 -0.0387  0.1925  0.6611
   83CHL1   C23 8607   4.363   0.467   8.186 -1.3968  0.3525 -0.5473
   83CHL1  H23A 8608   4.461   0.460   8.238 -0.7304  0.8295 -1.6989
   83CHL1  H23B 8609   4.336   0.574   8.190 -1.1032  0.4417 -0.9052
   83CHL1   C24 8610   4.260   0.367   8.246 -0.7357 -0.8082 -0.6343
   83CHL1  H24A 8611   4.181   0.343   8.172 -1.4509  1.2165 -0.5992
   83CHL1  H24B 8612   4.319   0.277   8.274 -0.4502 -0.1322  1.0539
   83CHL1   C25 8613   4.211   0.417   8.381  0.3385  0.2086  0.5161
   83CHL1   H25 8614   4.295   0.465   8.436  0.2161  3.8322 -2.0937
   83CHL1   C26 8615   4.116   0.534   8.357  0.2214 -0.1619 -0.1055
   83CHL1  H26A 8616   4.009   0.503   8.354 -0.4763  2.0695 -1.2056
   83CHL1  H26B 8617   4.129   0.619   8.427  1.4205 -0.0713 -0.4202
   83CHL1  H26C 8618   4.131   0.587   8.260 -4.3143  1.9790  0.1106
   83CHL1   C27 8619   4.141   0.311   8.462 -0.3563  0.4513  0.2104
   83CHL1  H27A 8620   4.090   0.341   8.556  0.2103  1.7396  0.1327
   83CHL1  H27B 8621   4.060   0.275   8.394  0.5007  1.5495 -1.4832
   83CHL1  H27C 8622   4.202   0.219   8.469 -0.8340 -0.1487 -2.3459
   84CHL1    C3 8623   4.561   1.241   6.760 -0.0678  0.0418 -0.1502
   84CHL1    H3 8624   4.596   1.346   6.751 -0.4821  0.1657 -0.3765
   84CHL1    O3 8625   4.534   1.191   6.630  0.5880  0.1165  0.0427
   84CHL1   H3' 8626   4.440   1.171   6.631  1.0292 -2.2747 -0.5944
   84CHL1    C4 8627   4.684   1.159   6.822  0.6480 -0.3275  0.5674
   84CHL1   H4A 8628   4.663   1.050   6.828  2.4852 -0.8572 -1.3617
   84CHL1   H4B 8629   4.770   1.159   6.752  1.6371 -0.3561  1.7527
   84CHL1    C5 8630   4.721   1.221   6.957  0.0489 -0.7954  0.0152
   84CHL1    C6 8631   4.848   1.270   6.977 -0.2305  0.0518 -0.4100
   84CHL1    H6 8632   4.921   1.279   6.895  0.3879  3.9129  0.3422
   84CHL1    C7 8633   4.888   1.320   7.113 -0.3954  0.2007  0.3770
   84CHL1   H7A 8634   4.991   1.284   7.135 -0.8243 -1.0498  0.4002
   84CHL1   H7B 8635   4.881   1.431   7.112 -2.0226  0.1183 -1.1440
   84CHL1    C8 8636   4.797   1.278   7.229  0.2267  0.7097  0.1698
   84CHL1    H8 8637   4.824   1.176   7.263 -0.5871  0.6239  0.6033
   84CHL1   C14 8638   4.831   1.355   7.358 -0.0092  0.1717 -0.3736
   84CHL1   H14 8639   4.810   1.462   7.334  0.4912  0.3121 -0.1968
   84CHL1   C15 8640   4.973   1.342   7.407 -0.2183  0.2356 -0.7151
   84CHL1  H15A 8641   5.011   1.240   7.386 -0.0340  0.4275 -1.3423
   84CHL1  H15B 8642   5.027   1.417   7.345  2.2604 -1.6588 -0.9974
   84CHL1   C16 8643   4.977   1.373   7.556 -0.0355 -0.0219 -0.0972
   84CHL1  H16A 8644   5.019   1.285   7.608 -0.4920 -0.0521  0.2258
   84CHL1  H16B 8645   5.042   1.458   7.585  0.4050  0.2722 -1.8554
   84CHL1   C17 8646   4.821   1.390   7.586 -0.4436  0.2541 -0.6494
   84CHL1   H17 8647   4.819   1.500   7.577  0.5724  0.3210 -0.1748
   84CHL1   C13 8648   4.744   1.318   7.477  0.0878 -0.3340  0.2232
   84CHL1   C18 8649   4.760   1.164   7.517  0.2508  0.0124 -0.3483
   84CHL1  H18A 8650   4.860   1.127   7.548  0.0154 -1.1167 -0.8831
   84CHL1  H18B 8651   4.684   1.146   7.596  0.0781  0.0569 -0.5044
   84CHL1  H18C 8652   4.733   1.087   7.441 -0.6499 -2.0378  1.9333
   84CHL1   C12 8653   4.602   1.362   7.438  0.3024  0.1954 -0.2353
   84CHL1  H12A 8654   4.540   1.322   7.521  1.6776  0.4313  0.9348
   84CHL1  H12B 8655   4.589   1.469   7.412 -1.5320  0.3141  0.9674
   84CHL1   C11 8656   4.557   1.277   7.315  0.3518  0.9057  0.4565
   84CHL1  H11A 8657   4.568   1.169   7.337 -0.0026  1.1040  1.6330
   84CHL1  H11B 8658   4.457   1.309   7.280 -0.1099 -0.4232  0.5481
   84CHL1    C9 8659   4.651   1.296   7.193  0.3557  0.5137  0.1906
   84CHL1    H9 8660   4.642   1.404   7.168 -0.3574  0.4344  0.0694
   84CHL1   C10 8661   4.606   1.220   7.063  0.1501 -0.0226  0.1240
   84CHL1   C19 8662   4.586   1.069   7.093  0.2513  0.1925  0.2564
   84CHL1  H19A 8663   4.663   1.031   7.163 -0.0678  1.8434  1.5780
   84CHL1  H19B 8664   4.484   1.062   7.138  0.1949  2.4663  0.6079
   84CHL1  H19C 8665   4.595   1.004   7.003  2.6299  2.0125 -0.9268
   84CHL1    C1 8666   4.479   1.282   6.990  0.3101 -0.8797  0.0583
   84CHL1   H1A 8667   4.394   1.281   7.062 -0.1900  2.6154 -0.3388
   84CHL1   H1B 8668   4.497   1.390   6.977  0.6467 -0.9876 -0.3860
   84CHL1    C2 8669   4.444   1.230   6.849  0.4486  0.4423  0.2741
   84CHL1   H2A 8670   4.360   1.287   6.804 -0.1037 -0.9074 -0.4330
   84CHL1   H2B 8671   4.409   1.127   6.870 -1.5504  1.5067  2.7262
   84CHL1   C20 8672   4.786   1.352   7.728 -0.2101  1.0014  0.1916
   84CHL1   H20 8673   4.780   1.242   7.742  1.5619  0.6378 -1.3641
   84CHL1   C21 8674   4.655   1.411   7.751 -0.0214 -0.2557  0.7824
   84CHL1  H21A 8675   4.629   1.430   7.857 -1.1355 -1.3047  0.7101
   84CHL1  H21B 8676   4.572   1.343   7.723  0.8989 -0.5184 -1.4884
   84CHL1  H21C 8677   4.639   1.508   7.699 -0.8132 -0.6855  0.2152
   84CHL1   C22 8678   4.888   1.406   7.832 -0.2276 -0.5954 -0.0546
   84CHL1  H22A 8679   4.991   1.380   7.800  0.1753 -1.6846  1.9995
   84CHL1  H22B 8680   4.883   1.517   7.838  0.8526 -0.5852  1.0364
   84CHL1   C23 8681   4.863   1.330   7.965 -0.6798  0.0574 -0.6208
   84CHL1  H23A 8682   4.765   1.361   8.007  1.7404  0.9200  5.3736
   84CHL1  H23B 8683   4.876   1.221   7.950  0.4898 -0.4277  2.9256
   84CHL1   C24 8684   4.974   1.369   8.063 -0.5276 -0.5275 -0.2454
   84CHL1  H24A 8685   5.072   1.382   8.012 -0.4973 -0.5839 -0.2007
   84CHL1  H24B 8686   4.954   1.467   8.110  1.4401 -0.4105  0.4194
   84CHL1   C25 8687   4.989   1.263   8.177  0.2466  0.5654 -0.1145
   84CHL1   H25 8688   5.021   1.168   8.130 -2.9458 -0.0702 -1.1851
   84CHL1   C26 8689   5.101   1.303   8.282  0.2480  1.2972  0.2748
   84CHL1  H26A 8690   5.132   1.228   8.358 -0.0869 -0.7177 -1.4829
   84CHL1  H26B 8691   5.187   1.345   8.226  0.2935 -0.8960 -1.4111
   84CHL1  H26C 8692   5.071   1.395   8.337 -0.1837  1.7558 -0.7029
   84CHL1   C27 8693   4.862   1.226   8.254 -0.2992  0.3180 -0.0493
   84CHL1  H27A 8694   4.797   1.314   8.274 -3.4173 -1.0474 -3.0766
   84CHL1  H27B 8695   4.801   1.151   8.198 -0.6330 -0.8171  1.7676
   84CHL1  H27C 8696   4.892   1.175   8.348 -0.2437 -1.2122 -0.8624
   85CHL1    C3 8697   0.937   1.087   6.772  0.5348  0.2636  0.3536
   85CHL1    H3 8698   0.925   1.191   6.808 -0.1565  1.4437 -2.9041
   85CHL1    O3 8699   0.958   1.117   6.636 -0.0552 -0.2438 -0.5219
   85CHL1   H3' 8700   1.047   1.093   6.610  0.9875  2.9468 -0.2740
   85CHL1    C4 8701   1.069   1.034   6.832  0.1331 -0.3092 -0.8582
   85CHL1   H4A 8702   1.099   0.951   6.763 -0.9554 -0.4744 -1.1453
   85CHL1   H4B 8703   1.151   1.108   6.818 -0.2789  0.1580 -0.7851
   85CHL1    C5 8704   1.055   0.985   6.973  0.1298  0.6477 -0.4350
   85CHL1    C6 8705   1.146   1.019   7.065 -0.0536  0.6187  0.1540
   85CHL1    H6 8706   1.233   1.080   7.036  0.2025 -0.6075 -1.8280
   85CHL1    C7 8707   1.147   0.967   7.204 -0.1543  0.6222 -0.8488
   85CHL1   H7A 8708   1.240   0.906   7.211 -0.4445  0.3059  0.6430
   85CHL1   H7B 8709   1.139   1.046   7.282  0.6799  0.8374 -0.9681
   85CHL1    C8 8710   1.043   0.859   7.231  0.2481  0.1853 -0.9131
   85CHL1    H8 8711   1.067   0.754   7.202 -1.0258 -0.6737  0.8994
   85CHL1   C14 8712   1.019   0.856   7.381  0.4716  0.5269  0.4039
   85CHL1   H14 8713   0.988   0.961   7.397  0.5934  0.2425  2.8856
   85CHL1   C15 8714   1.134   0.820   7.472 -0.5648  0.3882 -0.4440
   85CHL1  H15A 8715   1.194   0.736   7.432 -1.2031 -0.3181  0.0590
   85CHL1  H15B 8716   1.204   0.906   7.478  0.1177 -0.1904 -0.0099
   85CHL1   C16 8717   1.065   0.785   7.614 -0.5177  0.3014  0.3728
   85CHL1  H16A 8718   1.100   0.682   7.638  1.6041  1.5180  2.8651
   85CHL1  H16B 8719   1.092   0.856   7.695  0.8796  1.3691 -0.9907
   85CHL1   C17 8720   0.910   0.788   7.577 -0.2066  0.2625 -0.1667
   85CHL1   H17 8721   0.890   0.897   7.586  0.5207  0.4877 -1.1376
   85CHL1   C13 8722   0.907   0.768   7.426 -0.8848 -0.1697  0.6044
   85CHL1   C18 8723   0.926   0.617   7.394 -0.4650 -0.2387  1.1204
   85CHL1  H18A 8724   1.014   0.569   7.441  1.2534  2.5553  1.0061
   85CHL1  H18B 8725   0.842   0.562   7.440 -2.1823  0.2441 -1.2302
   85CHL1  H18C 8726   0.932   0.602   7.284  1.9385 -0.3375  1.2176
   85CHL1   C12 8727   0.773   0.820   7.357  0.1567 -0.3557  0.0242
   85CHL1  H12A 8728   0.692   0.751   7.389 -0.4283 -0.0204 -0.7154
   85CHL1  H12B 8729   0.747   0.918   7.403 -0.3591 -0.6500  0.3699
   85CHL1   C11 8730   0.783   0.825   7.208  0.4577 -0.2829  0.2810
   85CHL1  H11A 8731   0.774   0.723   7.163  0.1117  0.6044 -1.7931
   85CHL1  H11B 8732   0.691   0.879   7.177 -0.3129 -0.3489  2.3427
   85CHL1    C9 8733   0.907   0.897   7.162 -0.5851  0.0491  0.2345
   85CHL1    H9 8734   0.893   0.999   7.202  0.6784  0.3015  0.0761
   85CHL1   C10 8735   0.930   0.907   7.010  0.1746  0.4712  0.2500
   85CHL1   C19 8736   0.962   0.764   6.955  0.5250 -0.5447  0.0744
   85CHL1  H19A 8737   1.055   0.725   7.001  0.0956 -0.0071  1.4350
   85CHL1  H19B 8738   0.875   0.695   6.960 -1.2821  1.6367  0.0750
   85CHL1  H19C 8739   0.988   0.769   6.847 -0.3886  2.5802 -0.0960
   85CHL1    C1 8740   0.801   0.969   6.943  1.0175 -0.4326  0.2158
   85CHL1   H1A 8741   0.703   0.923   6.965 -0.2672  1.1200 -1.9511
   85CHL1   H1B 8742   0.773   1.070   6.981  0.7758 -0.5581  0.3709
   85CHL1    C2 8743   0.819   1.000   6.793  0.3686 -0.4780  0.3237
   85CHL1   H2A 8744   0.722   1.046   6.766 -0.0522 -1.0401  0.8530
   85CHL1   H2B 8745   0.833   0.906   6.735  0.4726  0.2824 -0.9227
   85CHL1   C20 8746   0.811   0.719   7.670  0.0629  0.0074 -0.0160
   85CHL1   H20 8747   0.724   0.676   7.615 -0.2393  1.6720 -0.8969
   85CHL1   C21 8748   0.738   0.832   7.751  0.8592 -0.6843 -0.0909
   85CHL1  H21A 8749   0.657   0.786   7.812  0.7033 -0.1203  0.1296
   85CHL1  H21B 8750   0.700   0.907   7.678  0.6776 -0.7259 -0.0387
   85CHL1  H21C 8751   0.814   0.883   7.814 -0.3395  2.0171 -0.6968
   85CHL1   C22 8752   0.882   0.611   7.763  0.3709  0.0701 -0.3237
   85CHL1  H22A 8753   0.945   0.556   7.689 -1.9128 -1.1710 -1.4685
   85CHL1  H22B 8754   0.936   0.663   7.844 -0.8005  0.5040  0.1987
   85CHL1   C23 8755   0.787   0.495   7.810 -0.3622  0.4971  0.9496
   85CHL1  H23A 8756   0.698   0.484   7.743  1.1958 -0.2797 -1.1190
   85CHL1  H23B 8757   0.849   0.403   7.809  0.3419  0.8796  3.4478
   85CHL1   C24 8758   0.738   0.522   7.947  0.0964  0.0756 -0.0336
   85CHL1  H24A 8759   0.830   0.530   8.008  1.9808 -0.0480 -2.6673
   85CHL1  H24B 8760   0.691   0.623   7.951 -0.5977 -0.1656 -1.4353
   85CHL1   C25 8761   0.636   0.430   8.015  0.0987 -0.4272 -0.2368
   85CHL1   H25 8762   0.684   0.330   8.001  2.3818  0.7656 -1.4808
   85CHL1   C26 8763   0.622   0.468   8.162 -0.4336  0.2296  0.6039
   85CHL1  H26A 8764   0.722   0.463   8.211 -1.3420 -0.0422  2.5033
   85CHL1  H26B 8765   0.566   0.564   8.173 -2.5009 -1.0383  1.8036
   85CHL1  H26C 8766   0.569   0.389   8.219  1.0604 -0.8341  0.5760
   85CHL1   C27 8767   0.507   0.418   7.946  0.3357 -0.1600 -0.0255
   85CHL1  H27A 8768   0.507   0.367   7.847 -1.4650 -0.9875  0.3598
   85CHL1  H27B 8769   0.421   0.377   8.003  1.5665 -1.3185  1.0888
   85CHL1  H27C 8770   0.459   0.515   7.923 -0.0730 -0.7348 -1.7694
   86CHL1    C3 8771   1.446   3.119   7.076 -0.3146 -0.1530  0.0409
   86CHL1    H3 8772   1.444   3.013   7.110 -1.7993 -0.4505 -0.8971
   86CHL1    O3 8773   1.423   3.130   6.935 -0.1526 -0.0636 -0.0068
   86CHL1   H3' 8774   1.499   3.085   6.897 -1.1756 -2.0046  0.1604
   86CHL1    C4 8775   1.341   3.205   7.146 -0.6898 -0.3678 -0.9324
   86CHL1   H4A 8776   1.351   3.310   7.110 -0.8724  0.4386  1.2349
   86CHL1   H4B 8777   1.237   3.168   7.137 -0.6019 -1.2501  1.1243
   86CHL1    C5 8778   1.372   3.222   7.297 -0.1722 -0.2129  0.1421
   86CHL1    C6 8779   1.287   3.190   7.391 -0.1588  0.1567  0.3588
   86CHL1    H6 8780   1.187   3.166   7.352  0.2497  0.1574 -0.7409
   86CHL1    C7 8781   1.303   3.213   7.539 -0.1551  0.6976 -0.4312
   86CHL1   H7A 8782   1.220   3.267   7.589 -0.0323  1.7608 -1.3367
   86CHL1   H7B 8783   1.331   3.117   7.587  0.1219  1.1108  0.2410
   86CHL1    C8 8784   1.427   3.306   7.570 -0.4703 -0.0186 -0.1364
   86CHL1    H8 8785   1.395   3.412   7.563 -0.1225  0.0498 -0.7034
   86CHL1   C14 8786   1.473   3.279   7.715 -0.4850 -1.1112 -0.0961
   86CHL1   H14 8787   1.513   3.176   7.716 -0.4570 -1.2246  3.8241
   86CHL1   C15 8788   1.375   3.301   7.826  0.0538 -0.0597  0.4242
   86CHL1  H15A 8789   1.326   3.401   7.830 -0.8514 -0.5279  2.3491
   86CHL1  H15B 8790   1.307   3.214   7.832 -0.0885  0.1389  2.5263
   86CHL1   C16 8791   1.456   3.292   7.951 -0.3911 -0.0685 -0.5108
   86CHL1  H16A 8792   1.443   3.392   7.996 -1.7129 -0.6754  0.5244
   86CHL1  H16B 8793   1.422   3.209   8.016  0.8963  0.3523  0.7411
   86CHL1   C17 8794   1.612   3.284   7.905  0.5319 -0.6397  0.5428
   86CHL1   H17 8795   1.636   3.176   7.892  0.5741 -0.4125 -1.7968
   86CHL1   C13 8796   1.610   3.340   7.755 -0.6034 -0.5388 -0.3367
   86CHL1   C18 8797   1.611   3.492   7.751 -0.0632 -0.2978 -0.1602
   86CHL1  H18A 8798   1.585   3.534   7.651  0.2223 -1.0947 -0.5762
   86CHL1  H18B 8799   1.537   3.530   7.824 -1.7087 -2.6505 -0.4889
   86CHL1  H18C 8800   1.708   3.539   7.776 -0.6095  0.2580  0.9741
   86CHL1   C12 8801   1.720   3.283   7.668  0.0930 -0.2982 -0.2153
   86CHL1  H12A 8802   1.816   3.337   7.679  0.0572  0.2798 -2.2285
   86CHL1  H12B 8803   1.729   3.177   7.699  2.2240 -0.3552 -0.8726
   86CHL1   C11 8804   1.678   3.304   7.520 -0.8452 -0.4397  0.1958
   86CHL1  H11A 8805   1.716   3.403   7.485 -0.3515 -0.7049 -0.0409
   86CHL1  H11B 8806   1.757   3.248   7.465  0.9441  0.3107  1.8843
   86CHL1    C9 8807   1.541   3.265   7.478  0.3173  0.1926 -0.3273
   86CHL1    H9 8808   1.546   3.155   7.491 -0.0201  0.2565  0.4272
   86CHL1   C10 8809   1.511   3.284   7.326  0.9429  0.0874 -0.3032
   86CHL1   C19 8810   1.510   3.432   7.286  0.5544  0.1003 -0.1978
   86CHL1  H19A 8811   1.596   3.484   7.333  0.3694  0.9891 -0.8164
   86CHL1  H19B 8812   1.507   3.446   7.176 -0.5259  0.2901 -0.1511
   86CHL1  H19C 8813   1.418   3.473   7.332  0.1874  1.6131 -2.1289
   86CHL1    C1 8814   1.622   3.204   7.249  0.0922 -0.5054 -0.7561
   86CHL1   H1A 8815   1.718   3.258   7.262  0.5877 -1.1179 -1.7671
   86CHL1   H1B 8816   1.623   3.103   7.294  3.7038 -1.3658 -2.4307
   86CHL1    C2 8817   1.583   3.184   7.095 -0.4874 -0.1112 -0.5604
   86CHL1   H2A 8818   1.660   3.125   7.041 -0.9687  0.0699 -1.4579
   86CHL1   H2B 8819   1.570   3.281   7.044 -0.5676  1.1692  1.7362
   86CHL1   C20 8820   1.711   3.348   8.006 -0.2923  0.3540 -0.1887
   86CHL1   H20 8821   1.686   3.455   8.019  1.8266  0.6593  1.8942
   86CHL1   C21 8822   1.857   3.348   7.950  0.2126 -0.5398  0.6084
   86CHL1  H21A 8823   1.875   3.245   7.912  0.6148 -0.1379 -0.3255
   86CHL1  H21B 8824   1.936   3.374   8.024 -0.9730  1.2767  1.2812
   86CHL1  H21C 8825   1.867   3.423   7.869  2.4573  0.9601  2.1408
   86CHL1   C22 8826   1.713   3.286   8.154 -0.3225  0.6433  0.2329
   86CHL1  H22A 8827   1.791   3.349   8.202  1.2027  1.0498 -2.6190
   86CHL1  H22B 8828   1.611   3.311   8.191 -1.3766 -1.4513 -1.0670
   86CHL1   C23 8829   1.751   3.139   8.163 -0.4135  0.0328 -0.2056
   86CHL1  H23A 8830   1.667   3.073   8.132  0.1500  0.1781 -2.1290
   86CHL1  H23B 8831   1.828   3.119   8.086  0.5955 -0.0565  0.8048
   86CHL1   C24 8832   1.794   3.085   8.298 -0.1453 -0.0643 -0.4114
   86CHL1  H24A 8833   1.853   3.157   8.358  0.3400 -0.1344 -0.7877
   86CHL1  H24B 8834   1.702   3.075   8.359 -1.3573 -1.7259 -2.3470
   86CHL1   C25 8835   1.872   2.957   8.290 -0.6357  0.2225  0.2588
   86CHL1   H25 8836   1.969   2.980   8.242  1.6449  1.0742  4.7612
   86CHL1   C26 8837   1.902   2.917   8.428 -0.1824 -0.0248 -0.0206
   86CHL1  H26A 8838   1.971   2.830   8.436  1.7286  1.4312  0.1608
   86CHL1  H26B 8839   1.955   2.997   8.483 -1.1590  2.5588 -2.5689
   86CHL1  H26C 8840   1.809   2.884   8.479 -0.4487 -1.4773 -1.3441
   86CHL1   C27 8841   1.805   2.838   8.215 -0.4598 -0.2447  0.3379
   86CHL1  H27A 8842   1.694   2.833   8.222 -0.4710 -2.8586 -0.3621
   86CHL1  H27B 8843   1.829   2.844   8.106  1.5027 -1.4165  0.6602
   86CHL1  H27C 8844   1.857   2.741   8.233  0.8408  0.8031  2.5792
   87CHL1    C3 8845   0.622   4.784   6.859  0.0064 -0.2622  0.0718
   87CHL1    H3 8846   0.689   4.870   6.879  1.4884 -1.0073 -1.4185
   87CHL1    O3 8847   0.622   4.748   6.716 -0.0780  0.0971 -0.0536
   87CHL1   H3' 8848   0.588   4.828   6.677 -0.7558 -0.0054  0.2984
   87CHL1    C4 8849   0.661   4.654   6.943  0.3050 -0.3209  0.0066
   87CHL1   H4A 8850   0.587   4.575   6.919 -0.6142  0.6234 -0.4093
   87CHL1   H4B 8851   0.758   4.615   6.905 -0.1271 -4.1912  2.3882
   87CHL1    C5 8852   0.668   4.671   7.088 -0.3689 -0.3840  0.3583
   87CHL1    C6 8853   0.767   4.631   7.167 -0.2580 -0.3184 -0.0095
   87CHL1    H6 8854   0.855   4.579   7.126 -0.9131 -0.5056 -1.2029
   87CHL1    C7 8855   0.766   4.640   7.320  0.2510 -0.6055 -0.0817
   87CHL1   H7A 8856   0.807   4.543   7.355 -0.4597 -0.5474  0.9748
   87CHL1   H7B 8857   0.841   4.715   7.352  0.0282 -0.4492  0.0863
   87CHL1    C8 8858   0.627   4.678   7.378 -0.3139  0.3771  0.2428
   87CHL1    H8 8859   0.571   4.582   7.391  0.8501 -0.2174  1.1605
   87CHL1   C14 8860   0.649   4.731   7.516  0.3783  0.2060 -0.2627
   87CHL1   H14 8861   0.689   4.834   7.514  2.0268 -0.3870  0.6895
   87CHL1   C15 8862   0.724   4.643   7.606 -0.2090 -0.1201  1.1510
   87CHL1  H15A 8863   0.699   4.536   7.596 -2.0862  0.3720  0.1459
   87CHL1  H15B 8864   0.835   4.652   7.601 -0.3668  1.6134 -0.7975
   87CHL1   C16 8865   0.685   4.688   7.749  0.2059  1.0072  1.1505
   87CHL1  H16A 8866   0.657   4.596   7.804 -1.3760  0.0911 -1.0598
   87CHL1  H16B 8867   0.777   4.734   7.789  1.0284 -0.3499  0.9031
   87CHL1   C17 8868   0.572   4.784   7.733  1.2358 -0.2217 -0.0411
   87CHL1   H17 8869   0.628   4.877   7.708  1.0366 -1.0940 -4.4839
   87CHL1   C13 8870   0.511   4.741   7.594  0.9918  0.0410 -0.4712
   87CHL1   C18 8871   0.438   4.600   7.612 -0.2190  0.5540  0.1733
   87CHL1  H18A 8872   0.342   4.628   7.662 -0.5238  0.1897 -0.2042
   87CHL1  H18B 8873   0.424   4.550   7.514 -0.0309 -0.3178  0.5847
   87CHL1  H18C 8874   0.491   4.523   7.673  0.9541  1.2528  0.0687
   87CHL1   C12 8875   0.424   4.838   7.513 -0.1025 -0.3654  0.2221
   87CHL1  H12A 8876   0.323   4.866   7.550 -0.3067  2.3351 -2.0446
   87CHL1  H12B 8877   0.478   4.935   7.516 -1.1198  0.1878  1.7583
   87CHL1   C11 8878   0.403   4.798   7.365 -0.4346 -0.0861 -0.5487
   87CHL1  H11A 8879   0.337   4.709   7.362  0.8214 -1.0184 -1.1461
   87CHL1  H11B 8880   0.348   4.885   7.323 -2.6707 -0.1942  1.9345
   87CHL1    C9 8881   0.540   4.772   7.295  0.1109  0.0378 -0.5535
   87CHL1    H9 8882   0.598   4.866   7.289  0.7490 -0.2220  0.9704
   87CHL1   C10 8883   0.530   4.723   7.149  0.2265 -0.0242 -0.5482
   87CHL1   C19 8884   0.425   4.602   7.150  0.2283 -0.2726  0.2745
   87CHL1  H19A 8885   0.451   4.523   7.224 -2.6907 -1.5318  0.0943
   87CHL1  H19B 8886   0.323   4.634   7.181 -0.0162 -1.5904  0.8927
   87CHL1  H19C 8887   0.423   4.551   7.051  1.5408 -0.9414  0.5668
   87CHL1    C1 8888   0.483   4.841   7.067 -0.0547  0.4207 -0.0751
   87CHL1   H1A 8889   0.378   4.867   7.090 -0.0469  0.3604  0.0326
   87CHL1   H1B 8890   0.546   4.933   7.076 -0.1779  0.3794  1.7389
   87CHL1    C2 8891   0.477   4.820   6.914 -0.8652  0.2503  0.2014
   87CHL1   H2A 8892   0.453   4.909   6.851  1.1478  0.4353 -0.3720
   87CHL1   H2B 8893   0.407   4.738   6.887 -1.0434  0.2125  0.7642
   87CHL1   C20 8894   0.477   4.797   7.858 -0.3668 -0.6159  0.3791
   87CHL1   H20 8895   0.430   4.696   7.864 -1.9430 -0.0016 -0.8170
   87CHL1   C21 8896   0.358   4.894   7.833 -0.0875 -0.6484  0.4202
   87CHL1  H21A 8897   0.398   4.991   7.795 -1.7871  1.2394  3.0556
   87CHL1  H21B 8898   0.307   4.928   7.925 -1.3455  1.9036 -1.1036
   87CHL1  H21C 8899   0.287   4.857   7.757 -1.6174 -0.8660  1.9111
   87CHL1   C22 8900   0.552   4.826   7.990 -0.2401 -0.3432 -0.0489
   87CHL1  H22A 8901   0.474   4.846   8.066  1.6528  0.9720  1.6470
   87CHL1  H22B 8902   0.602   4.732   8.020 -1.1340 -2.5303 -4.5660
   87CHL1   C23 8903   0.652   4.942   7.985  0.5435  0.5112 -0.5093
   87CHL1  H23A 8904   0.735   4.930   7.912  1.6079 -1.4400  0.9254
   87CHL1  H23B 8905   0.590   5.032   7.969 -0.1300  0.3961  1.2336
   87CHL1   C24 8906   0.737   4.955   8.115 -0.2586  0.2646  0.0035
   87CHL1  H24A 8907   0.800   4.864   8.117  0.6728  0.7794 -2.1842
   87CHL1  H24B 8908   0.807   5.041   8.110 -1.9765  1.7118 -0.4300
   87CHL1   C25 8909   0.657   4.968   8.251 -0.4412  0.0618  0.1634
   87CHL1   H25 8910   0.591   4.879   8.257 -1.0680  0.5053 -0.0201
   87CHL1   C26 8911   0.754   4.952   8.374 -0.0850  0.2556  0.3688
   87CHL1  H26A 8912   0.697   4.943   8.469  0.3734 -0.7140  0.5701
   87CHL1  H26B 8913   0.811   4.859   8.353 -0.6997  0.0276 -0.3337
   87CHL1  H26C 8914   0.823   5.038   8.390  2.8302 -1.7528 -0.6053
   87CHL1   C27 8915   0.560   5.092   8.254 -0.0087  0.4905  0.3136
   87CHL1  H27A 8916   0.508   5.106   8.351  1.4410  1.3594  1.0046
   87CHL1  H27B 8917   0.627   5.177   8.230  0.3256 -0.0257 -0.6598
   87CHL1  H27C 8918   0.478   5.082   8.180  0.3960  1.3880 -0.2722
   88CHL1    C3 8919   2.597   2.835   6.868 -0.3852 -0.1602  0.4792
   88CHL1    H3 8920   2.582   2.726   6.854 -1.5771  0.2381 -2.0294
   88CHL1    O3 8921   2.609   2.903   6.748 -0.2849 -0.5111  0.2293
   88CHL1   H3' 8922   2.528   2.876   6.705 -3.0838 -2.5732  5.7754
   88CHL1    C4 8923   2.471   2.889   6.932  0.3029 -0.1381 -0.1801
   88CHL1   H4A 8924   2.486   2.998   6.946 -0.1502 -0.2359  1.1836
   88CHL1   H4B 8925   2.382   2.883   6.865 -0.4735 -0.8210  0.8856
   88CHL1    C5 8926   2.458   2.808   7.062  0.7324 -1.1907 -0.0477
   88CHL1    C6 8927   2.345   2.736   7.081  0.2099  0.1948  0.2123
   88CHL1    H6 8928   2.277   2.731   6.995  1.1756  0.9005 -0.5997
   88CHL1    C7 8929   2.316   2.649   7.200  0.4935  0.3523 -0.0210
   88CHL1   H7A 8930   2.210   2.620   7.214  0.6761  0.2602  1.3711
   88CHL1   H7B 8931   2.360   2.548   7.182  0.8146  0.6309 -0.8431
   88CHL1    C8 8932   2.397   2.696   7.331  0.4910 -0.0450  0.5621
   88CHL1    H8 8933   2.372   2.802   7.351  1.8081  0.5880 -0.9259
   88CHL1   C14 8934   2.378   2.610   7.445 -0.8114  0.3699  0.6012
   88CHL1   H14 8935   2.416   2.509   7.417  0.7712  0.7348  1.3291
   88CHL1   C15 8936   2.231   2.578   7.488  0.7715 -0.2290  0.3214
   88CHL1  H15A 8937   2.176   2.673   7.473  0.5415 -0.4013  0.0664
   88CHL1  H15B 8938   2.175   2.505   7.427 -0.2606  0.9831 -0.2250
   88CHL1   C16 8939   2.244   2.522   7.632 -0.2980  0.0461  0.0214
   88CHL1  H16A 8940   2.186   2.599   7.686  1.5181  2.8844 -1.8078
   88CHL1  H16B 8941   2.195   2.422   7.639 -0.4246  0.0388 -0.8221
   88CHL1   C17 8942   2.402   2.537   7.664 -0.4677 -0.1717 -0.3138
   88CHL1   H17 8943   2.450   2.445   7.623 -0.8564  1.3810 -4.6753
   88CHL1   C13 8944   2.446   2.651   7.573  0.1667  0.3811  0.1189
   88CHL1   C18 8945   2.387   2.787   7.624 -0.4368 -0.9045 -0.1577
   88CHL1  H18A 8946   2.278   2.793   7.642 -0.5488  2.8199 -1.3780
   88CHL1  H18B 8947   2.430   2.821   7.720 -2.3605 -0.1797  0.4850
   88CHL1  H18C 8948   2.413   2.866   7.550  1.3090 -1.2966 -0.0193
   88CHL1   C12 8949   2.593   2.651   7.543 -0.1425 -0.1985  0.4534
   88CHL1  H12A 8950   2.641   2.689   7.636 -0.1551  1.8516 -0.3259
   88CHL1  H12B 8951   2.627   2.546   7.540 -0.2830 -0.4157  3.2797
   88CHL1   C11 8952   2.628   2.735   7.420  0.3847  0.1238 -0.1916
   88CHL1  H11A 8953   2.625   2.840   7.456 -0.2649  0.3097 -0.7646
   88CHL1  H11B 8954   2.735   2.721   7.391 -0.0535 -1.2706 -1.2871
   88CHL1    C9 8955   2.544   2.704   7.291  0.1920  0.0546  0.2339
   88CHL1    H9 8956   2.578   2.607   7.249  0.8499  0.5878 -0.4993
   88CHL1   C10 8957   2.566   2.806   7.172  0.1156  0.3843  0.1023
   88CHL1   C19 8958   2.560   2.954   7.222  0.1368 -0.0225 -0.1316
   88CHL1  H19A 8959   2.578   3.032   7.145 -1.2585  0.6687  0.2021
   88CHL1  H19B 8960   2.472   2.965   7.290  0.5022 -1.1592  0.5523
   88CHL1  H19C 8961   2.637   2.976   7.299  0.0176 -1.9615  0.5887
   88CHL1    C1 8962   2.703   2.777   7.095 -0.1195 -0.1611 -0.2243
   88CHL1   H1A 8963   2.781   2.817   7.163 -0.0738 -0.1161 -0.3026
   88CHL1   H1B 8964   2.718   2.670   7.069 -0.9122 -0.2220 -0.4651
   88CHL1    C2 8965   2.721   2.846   6.956 -0.2283  0.4904 -0.4018
   88CHL1   H2A 8966   2.806   2.803   6.898 -0.2487  1.4788 -1.1962
   88CHL1   H2B 8967   2.763   2.948   6.964  0.2661  0.3187 -0.7339
   88CHL1   C20 8968   2.424   2.560   7.810 -0.0235  0.4859 -0.1508
   88CHL1   H20 8969   2.390   2.661   7.843  0.1378 -0.6030  3.9050
   88CHL1   C21 8970   2.565   2.533   7.864  1.0070  0.8631 -0.4242
   88CHL1  H21A 8971   2.645   2.584   7.808 -1.0334  1.3492 -3.0879
   88CHL1  H21B 8972   2.576   2.423   7.878  1.3501  1.1984  3.0157
   88CHL1  H21C 8973   2.580   2.592   7.957 -0.0666  2.0493 -0.9719
   88CHL1   C22 8974   2.321   2.467   7.887 -0.1105  0.8755  0.3174
   88CHL1  H22A 8975   2.217   2.504   7.872  0.4221  3.2693  1.9660
   88CHL1  H22B 8976   2.331   2.364   7.848 -0.3498  1.4456 -1.3386
   88CHL1   C23 8977   2.343   2.461   8.042  0.5946  0.5719  0.2160
   88CHL1  H23A 8978   2.276   2.380   8.075  1.1554 -0.5557 -1.2843
   88CHL1  H23B 8979   2.444   2.421   8.066  0.2781 -0.5461 -0.2518
   88CHL1   C24 8980   2.309   2.594   8.115 -0.0483  0.0893  0.1134
   88CHL1  H24A 8981   2.392   2.662   8.088  1.3591 -1.2965  0.8214
   88CHL1  H24B 8982   2.210   2.628   8.078 -0.3745 -1.5001 -0.5993
   88CHL1   C25 8983   2.290   2.587   8.265 -0.3204  0.2754  0.0634
   88CHL1   H25 8984   2.213   2.516   8.302  0.1299  0.8153  2.1868
   88CHL1   C26 8985   2.423   2.546   8.347  0.5248 -0.0551  0.5151
   88CHL1  H26A 8986   2.517   2.597   8.318 -0.1660  2.4773  2.3372
   88CHL1  H26B 8987   2.408   2.543   8.457 -0.8513 -0.0571  0.3507
   88CHL1  H26C 8988   2.437   2.440   8.319 -1.1024 -0.1822  0.0370
   88CHL1   C27 8989   2.250   2.730   8.310 -0.1637  0.0711  0.6049
   88CHL1  H27A 8990   2.165   2.755   8.243 -0.4097 -0.7437  0.6033
   88CHL1  H27B 8991   2.221   2.724   8.417 -0.2906  0.0773  0.5721
   88CHL1  H27C 8992   2.336   2.799   8.296  1.5896 -1.4628  3.0971
   89CHL1    C3 8993   1.037   5.162   6.825  0.4027  0.6450  0.3985
   89CHL1    H3 8994   1.110   5.246   6.826  0.1340  0.8791  0.8141
   89CHL1    O3 8995   0.988   5.124   6.689  0.2700  0.2503 -0.5186
   89CHL1   H3' 8996   0.944   5.041   6.708 -3.6322  2.0460 -0.7662
   89CHL1    C4 8997   1.131   5.042   6.868 -0.2729 -0.2356  0.0425
   89CHL1   H4A 8998   1.090   4.947   6.830  0.8558 -0.7826  0.1439
   89CHL1   H4B 8999   1.227   5.051   6.812  0.2741 -0.1037  0.9831
   89CHL1    C5 9000   1.154   5.026   7.019  0.1196  0.7253 -0.2461
   89CHL1    C6 9001   1.275   5.002   7.078 -0.5871 -0.1072 -0.2975
   89CHL1    H6 9002   1.359   4.967   7.017 -0.1849 -0.2572  0.3383
   89CHL1    C7 9003   1.303   4.989   7.225 -0.0481  0.1109 -0.5696
   89CHL1   H7A 9004   1.356   4.895   7.252 -1.2320 -0.5480 -0.4346
   89CHL1   H7B 9005   1.372   5.068   7.260 -1.4937  1.6599 -1.0593
   89CHL1    C8 9006   1.175   4.986   7.306  0.4926 -0.0991  0.8468
   89CHL1    H8 9007   1.137   4.882   7.292  2.1417 -0.7768  1.0815
   89CHL1   C14 9008   1.213   5.014   7.452 -0.0462 -0.1584 -0.1416
   89CHL1   H14 9009   1.251   5.118   7.457 -0.8121  0.1311 -0.1294
   89CHL1   C15 9010   1.312   4.915   7.518 -0.3084 -0.5251 -0.4923
   89CHL1  H15A 9011   1.286   4.810   7.490  1.4178 -1.2604  0.5101
   89CHL1  H15B 9012   1.410   4.952   7.482 -0.4890  0.2232 -0.2262
   89CHL1   C16 9013   1.288   4.937   7.662  0.1140  0.3561  1.0873
   89CHL1  H16A 9014   1.254   4.839   7.701 -1.8817  0.0524 -1.2150
   89CHL1  H16B 9015   1.365   4.998   7.715 -1.4861  1.0335  2.7367
   89CHL1   C17 9016   1.160   5.039   7.674 -0.7340 -0.1050  0.1484
   89CHL1   H17 9017   1.197   5.144   7.672 -3.1231  0.8038 -0.8766
   89CHL1   C13 9018   1.089   5.014   7.548 -0.2243 -0.4437 -0.4965
   89CHL1   C18 9019   1.021   4.872   7.562  0.4120  0.0628 -0.9602
   89CHL1  H18A 9020   0.999   4.831   7.461 -1.2477  1.9760 -1.4243
   89CHL1  H18B 9021   1.090   4.795   7.604 -1.6739 -2.0769 -1.2835
   89CHL1  H18C 9022   0.924   4.865   7.616  0.2270  1.1431 -1.1431
   89CHL1   C12 9023   0.990   5.126   7.503  0.8477  0.0799  0.4329
   89CHL1  H12A 9024   0.898   5.125   7.566  0.9447 -1.6844  0.5898
   89CHL1  H12B 9025   1.053   5.217   7.506  1.5197 -0.3274 -0.6496
   89CHL1   C11 9026   0.951   5.098   7.354 -0.0392  0.0280  0.3188
   89CHL1  H11A 9027   0.900   4.999   7.351 -1.1627  0.5358  1.3557
   89CHL1  H11B 9028   0.878   5.180   7.336 -0.3768 -0.6125 -1.4206
   89CHL1    C9 9029   1.071   5.089   7.260  0.0058 -0.3000 -0.1060
   89CHL1    H9 9030   1.114   5.191   7.266 -2.4112  0.7084  1.6466
   89CHL1   C10 9031   1.033   5.063   7.108 -0.4366  0.0878  0.6178
   89CHL1   C19 9032   0.930   4.946   7.098 -0.1425  0.8563 -0.2109
   89CHL1  H19A 9033   0.907   4.918   6.993  0.3833  0.0974 -0.1291
   89CHL1  H19B 9034   0.981   4.853   7.132  2.0057  0.7943 -3.1770
   89CHL1  H19C 9035   0.831   4.965   7.145 -0.2173 -0.2493  0.1100
   89CHL1    C1 9036   0.968   5.199   7.060  0.3258 -0.2466 -0.5181
   89CHL1   H1A 9037   0.885   5.237   7.123  0.2213  0.7297 -1.2219
   89CHL1   H1B 9038   1.045   5.279   7.063 -0.1033  0.1738  2.3385
   89CHL1    C2 9039   0.920   5.194   6.916 -0.1176  0.0772  0.0195
   89CHL1   H2A 9040   0.871   5.284   6.873 -0.3734  0.3135  0.7811
   89CHL1   H2B 9041   0.855   5.104   6.907  1.6572 -1.4569  1.7223
   89CHL1   C20 9042   1.089   5.018   7.809 -0.1836 -0.1605 -0.1515
   89CHL1   H20 9043   1.074   4.911   7.834  4.3083 -0.7797  0.7138
   89CHL1   C21 9044   0.953   5.085   7.818  0.3041 -0.0262  0.5368
   89CHL1  H21A 9045   0.906   5.105   7.917 -0.1441  1.5478  0.0437
   89CHL1  H21B 9046   0.885   5.013   7.768  0.1592 -0.3375  1.1589
   89CHL1  H21C 9047   0.952   5.178   7.758  0.2246  0.5655  1.4258
   89CHL1   C22 9048   1.182   5.066   7.920  0.2616 -0.8959  0.0676
   89CHL1  H22A 9049   1.287   5.059   7.884 -0.1362 -0.0594 -1.3164
   89CHL1  H22B 9050   1.166   5.173   7.944  0.4683 -0.9245  0.3361
   89CHL1   C23 9051   1.168   4.984   8.043  0.6702 -0.1250  0.2302
   89CHL1  H23A 9052   1.071   5.011   8.089  0.7510  0.6736 -0.0421
   89CHL1  H23B 9053   1.176   4.874   8.027  0.3357 -0.3937  1.7733
   89CHL1   C24 9054   1.275   5.015   8.152 -0.2433 -0.0312 -0.1027
   89CHL1  H24A 9055   1.374   4.997   8.104  1.1883  1.4303  2.1426
   89CHL1  H24B 9056   1.283   5.121   8.184  1.9165  0.5069 -2.1058
   89CHL1   C25 9057   1.255   4.928   8.283 -0.5051  0.3655  0.6076
   89CHL1   H25 9058   1.353   4.938   8.334  0.0747  0.0975 -0.4236
   89CHL1   C26 9059   1.136   4.965   8.370 -0.7072  0.3103 -1.0315
   89CHL1  H26A 9060   1.043   4.940   8.315 -1.3541 -1.2539  0.6661
   89CHL1  H26B 9061   1.129   4.910   8.466 -1.5883  2.5325  0.2478
   89CHL1  H26C 9062   1.146   5.071   8.400 -1.5681  0.3824 -0.9617
   89CHL1   C27 9063   1.247   4.773   8.257  0.2902 -0.4087  1.0889
   89CHL1  H27A 9064   1.161   4.761   8.187  1.3496  1.4869 -0.6456
   89CHL1  H27B 9065   1.333   4.716   8.216 -1.1929 -2.2014  0.2625
   89CHL1  H27C 9066   1.211   4.721   8.349  0.8194 -1.9057  0.4927
   90CHL1    C3 9067   1.304   4.452   6.808 -0.2131 -0.6343  0.4000
   90CHL1    H3 9068   1.385   4.378   6.821  1.5253  1.2343  0.8506
   90CHL1    O3 9069   1.279   4.495   6.674 -0.5930 -0.7235 -0.1801
   90CHL1   H3' 9070   1.260   4.414   6.626 -2.4153 -1.1003  1.1041
   90CHL1    C4 9071   1.173   4.405   6.867 -0.4126 -0.3324  0.3281
   90CHL1   H4A 9072   1.095   4.483   6.857  0.5534  0.3230 -3.4909
   90CHL1   H4B 9073   1.124   4.322   6.811 -1.1832  0.1661  0.2493
   90CHL1    C5 9074   1.199   4.382   7.016 -0.1470 -0.4375 -0.4130
   90CHL1    C6 9075   1.178   4.261   7.068 -0.6904  0.4368  0.2824
   90CHL1    H6 9076   1.138   4.187   6.996 -3.4810 -0.0472  2.1500
   90CHL1    C7 9077   1.191   4.222   7.212  0.0198  0.1091  0.5659
   90CHL1   H7A 9078   1.105   4.167   7.254  2.0344 -1.7813  2.4893
   90CHL1   H7B 9079   1.277   4.154   7.230  1.6483  1.3744 -1.8400
   90CHL1    C8 9080   1.195   4.350   7.298 -0.7576 -0.1394 -1.0326
   90CHL1    H8 9081   1.096   4.399   7.300 -0.0441  1.4190 -1.6213
   90CHL1   C14 9082   1.242   4.321   7.440 -0.7836  0.1620  0.5889
   90CHL1   H14 9083   1.341   4.271   7.436 -0.9738 -0.1447 -1.6172
   90CHL1   C15 9084   1.157   4.214   7.510  0.1239 -0.0850  0.9386
   90CHL1  H15A 9085   1.048   4.235   7.500  0.7658  3.9333  0.6641
   90CHL1  H15B 9086   1.175   4.116   7.461 -1.3928 -0.6143  1.3769
   90CHL1   C16 9087   1.210   4.206   7.649 -0.5608  0.2226 -0.1838
   90CHL1  H16A 9088   1.127   4.188   7.721 -0.7821  1.0705 -0.2096
   90CHL1  H16B 9089   1.289   4.128   7.655 -0.0859  0.6006 -1.2628
   90CHL1   C17 9090   1.283   4.343   7.671 -0.0627  0.1406  0.6086
   90CHL1   H17 9091   1.392   4.319   7.662 -0.0416 -0.2710  1.7816
   90CHL1   C13 9092   1.255   4.429   7.543 -0.4156 -0.1328  0.3039
   90CHL1   C18 9093   1.118   4.500   7.574 -0.0924 -0.1154  0.0456
   90CHL1  H18A 9094   1.076   4.540   7.479  1.5634  0.1062 -0.6220
   90CHL1  H18B 9095   1.049   4.435   7.632  1.7269 -1.5564  0.6902
   90CHL1  H18C 9096   1.133   4.593   7.632  0.5943 -0.0693 -0.2067
   90CHL1   C12 9097   1.363   4.532   7.488  0.8300  0.2627  0.0377
   90CHL1  H12A 9098   1.360   4.612   7.564 -3.5812 -1.4060  1.9702
   90CHL1  H12B 9099   1.463   4.484   7.490  0.1058 -1.3279  0.4364
   90CHL1   C11 9100   1.317   4.571   7.349  0.2045  0.0475 -0.5357
   90CHL1  H11A 9101   1.220   4.624   7.361  0.1594  0.3108 -1.8999
   90CHL1  H11B 9102   1.383   4.650   7.308  0.3071  0.6485  0.7234
   90CHL1    C9 9103   1.298   4.454   7.247  0.7895  0.0554 -0.3044
   90CHL1    H9 9104   1.399   4.408   7.254  0.5550 -0.2264  1.6699
   90CHL1   C10 9105   1.260   4.498   7.101  0.0393  0.5755 -0.5896
   90CHL1   C19 9106   1.161   4.615   7.103 -0.5624  0.2325  0.4369
   90CHL1  H19A 9107   1.208   4.705   7.148 -0.0729 -0.3046  1.0325
   90CHL1  H19B 9108   1.149   4.653   6.999  1.9270 -1.0377 -0.4124
   90CHL1  H19C 9109   1.063   4.600   7.153 -1.6933  2.5765 -0.8818
   90CHL1    C1 9110   1.384   4.540   7.025 -0.1151 -0.2293 -0.5407
   90CHL1   H1A 9111   1.423   4.629   7.079 -0.1094 -1.5600  1.7739
   90CHL1   H1B 9112   1.457   4.457   7.035  0.8700  0.7051  0.3847
   90CHL1    C2 9113   1.362   4.574   6.879 -0.3425  0.3347 -0.2836
   90CHL1   H2A 9114   1.460   4.599   6.832 -0.1344 -0.6043 -0.3754
   90CHL1   H2B 9115   1.299   4.664   6.866  1.3668  1.7166  0.6466
   90CHL1   C20 9116   1.274   4.399   7.821  0.4516 -0.7495  0.2027
   90CHL1   H20 9117   1.167   4.418   7.842  0.6938  1.9482 -0.5943
   90CHL1   C21 9118   1.355   4.530   7.822  0.5629 -0.5059  0.2680
   90CHL1  H21A 9119   1.295   4.604   7.764 -0.4041 -1.8182 -0.4519
   90CHL1  H21B 9120   1.461   4.521   7.788  0.0136 -2.6544 -1.1068
   90CHL1  H21C 9121   1.356   4.565   7.927  0.9328  0.3128 -0.0008
   90CHL1   C22 9122   1.320   4.294   7.925  1.1820 -0.5956  0.0116
   90CHL1  H22A 9123   1.265   4.198   7.927 -1.1999  0.6806 -0.9905
   90CHL1  H22B 9124   1.426   4.268   7.901 -0.0926 -4.1315 -2.7212
   90CHL1   C23 9125   1.323   4.340   8.072  0.6925  0.4132  0.1106
   90CHL1  H23A 9126   1.378   4.436   8.074  0.3789  0.5845  1.3304
   90CHL1  H23B 9127   1.221   4.376   8.099  0.7611  0.1038  0.8138
   90CHL1   C24 9128   1.385   4.228   8.162  0.2135  0.1093  0.2035
   90CHL1  H24A 9129   1.327   4.135   8.146  0.3161 -0.4971  2.8733
   90CHL1  H24B 9130   1.495   4.214   8.158  0.2782  0.1056  1.5322
   90CHL1   C25 9131   1.363   4.269   8.311  0.2396  0.6330  0.4856
   90CHL1   H25 9132   1.258   4.304   8.321 -0.2078 -0.2403 -0.8550
   90CHL1   C26 9133   1.392   4.149   8.394 -0.3519 -0.7697 -0.3301
   90CHL1  H26A 9134   1.366   4.178   8.497  0.3273 -0.3388 -0.2689
   90CHL1  H26B 9135   1.322   4.069   8.364 -0.8626 -0.2193 -0.6380
   90CHL1  H26C 9136   1.497   4.114   8.383 -0.2420 -0.3793 -0.5545
   90CHL1   C27 9137   1.446   4.390   8.349  0.1008 -0.6312 -0.1673
   90CHL1  H27A 9138   1.416   4.473   8.281  0.8602 -1.5609 -1.6969
   90CHL1  H27B 9139   1.426   4.421   8.453 -0.8049  2.3046 -1.1179
   90CHL1  H27C 9140   1.556   4.380   8.334  0.1040 -3.1712  1.0082
   91CHL1    C3 9141   4.065   0.972   7.255  0.1707 -0.5049  0.8786
   91CHL1    H3 9142   4.146   0.896   7.263  0.0581 -0.8375 -0.7553
   91CHL1    O3 9143   4.001   0.956   7.128 -0.5846 -0.0636 -0.2657
   91CHL1   H3' 9144   3.948   1.036   7.118 -0.9484 -0.1267  0.9522
   91CHL1    C4 9145   3.957   0.953   7.364 -0.0682 -0.1597 -0.1418
   91CHL1   H4A 9146   3.872   1.020   7.339  0.2404  0.2689 -0.0459
   91CHL1   H4B 9147   3.914   0.850   7.356 -0.9874  0.1423  0.6777
   91CHL1    C5 9148   4.014   0.976   7.504 -0.4945  0.8285 -0.4387
   91CHL1    C6 9149   4.002   0.882   7.598 -0.0107 -0.8389  0.8242
   91CHL1    H6 9150   3.960   0.787   7.562  1.2195 -0.4544 -1.9305
   91CHL1    C7 9151   4.053   0.893   7.737  0.4682  0.2655 -0.3315
   91CHL1   H7A 9152   3.971   0.867   7.807 -0.4256 -0.5602 -1.6414
   91CHL1   H7B 9153   4.130   0.814   7.750 -0.4866 -0.5854  0.3595
   91CHL1    C8 9154   4.096   1.032   7.775  0.1285  0.1542 -0.5366
   91CHL1    H8 9155   3.999   1.082   7.794  0.0963  0.1812 -0.7692
   91CHL1   C14 9156   4.168   1.025   7.907 -0.3222  0.4427 -0.6984
   91CHL1   H14 9157   4.257   0.961   7.890 -1.0266 -0.6490 -0.3381
   91CHL1   C15 9158   4.095   0.971   8.034  0.2166 -0.8543 -0.5010
   91CHL1  H15A 9159   3.997   1.023   8.046  0.0182 -1.5950  1.3147
   91CHL1  H15B 9160   4.082   0.861   8.025 -0.6402 -0.9917  1.7445
   91CHL1   C16 9161   4.196   1.009   8.150 -0.3573 -0.4267 -0.5997
   91CHL1  H16A 9162   4.152   1.039   8.247  0.1254 -0.2526 -0.4314
   91CHL1  H16B 9163   4.253   0.918   8.180 -1.4843 -0.4764  1.5134
   91CHL1   C17 9164   4.293   1.116   8.095  0.2195 -0.3435 -0.1071
   91CHL1   H17 9165   4.382   1.060   8.059 -1.2013 -1.8400 -1.4293
   91CHL1   C13 9166   4.238   1.162   7.955  0.3232 -0.4451 -0.1510
   91CHL1   C18 9167   4.133   1.267   7.988 -0.3226  0.8410  0.3064
   91CHL1  H18A 9168   4.074   1.292   7.898 -1.0009 -0.9967  0.1826
   91CHL1  H18B 9169   4.068   1.240   8.074  0.6471  1.7549  1.3601
   91CHL1  H18C 9170   4.194   1.357   8.011  0.0981  0.8454 -0.7543
   91CHL1   C12 9171   4.329   1.202   7.842 -0.0625  0.5888  0.4675
   91CHL1  H12A 9172   4.387   1.295   7.858  0.3290  0.2596  1.0203
   91CHL1  H12B 9173   4.396   1.116   7.822  0.8565  1.0115  1.6170
   91CHL1   C11 9174   4.249   1.232   7.717  0.3790  0.2456 -0.3374
   91CHL1  H11A 9175   4.174   1.311   7.735 -0.7662 -1.0783  0.8937
   91CHL1  H11B 9176   4.319   1.271   7.640  1.3333 -2.2139 -0.8216
   91CHL1    C9 9177   4.181   1.101   7.668  0.3165  0.3059  0.6483
   91CHL1    H9 9178   4.267   1.032   7.654 -0.7514 -1.0856  0.6672
   91CHL1   C10 9179   4.108   1.099   7.528  0.2847  0.6917 -0.0080
   91CHL1   C19 9180   4.019   1.223   7.522 -0.1167 -0.3332  0.1898
   91CHL1  H19A 9181   3.953   1.225   7.433 -0.5190  1.4253  0.4849
   91CHL1  H19B 9182   3.960   1.239   7.615 -0.8480 -1.4606 -0.0651
   91CHL1  H19C 9183   4.077   1.317   7.515  1.0099 -0.9694  0.8161
   91CHL1    C1 9184   4.204   1.104   7.414  0.0881  0.4538 -0.2441
   91CHL1   H1A 9185   4.281   1.183   7.418  1.0311 -0.4836  1.2381
   91CHL1   H1B 9186   4.269   1.015   7.431 -0.4938  0.1985  0.7202
   91CHL1    C2 9187   4.145   1.104   7.278  0.0783 -0.0834  0.0711
   91CHL1   H2A 9188   4.229   1.109   7.206  0.4718  2.3091  0.5994
   91CHL1   H2B 9189   4.075   1.189   7.261 -1.0881 -0.8518  0.8910
   91CHL1   C20 9190   4.338   1.215   8.203 -0.3424 -0.1797  0.2961
   91CHL1   H20 9191   4.248   1.268   8.240 -1.3828 -0.5356 -1.5999
   91CHL1   C21 9192   4.441   1.306   8.138  0.1861 -0.2716  0.2375
   91CHL1  H21A 9193   4.523   1.255   8.083  0.4680 -0.1574  0.5476
   91CHL1  H21B 9194   4.491   1.370   8.213 -0.1152  1.6081 -1.0981
   91CHL1  H21C 9195   4.389   1.371   8.064 -2.1776 -1.5299  0.6835
   91CHL1   C22 9196   4.398   1.144   8.317  0.3043  0.2791 -0.3872
   91CHL1  H22A 9197   4.322   1.079   8.365  0.3005  1.1458  0.8073
   91CHL1  H22B 9198   4.489   1.085   8.293 -0.7139 -0.6604 -2.1781
   91CHL1   C23 9199   4.454   1.222   8.439 -0.1775 -0.4685 -0.9601
   91CHL1  H23A 9200   4.507   1.152   8.506 -0.2693 -0.3702 -0.7837
   91CHL1  H23B 9201   4.518   1.309   8.410  0.1393 -0.5690 -0.5757
   91CHL1   C24 9202   4.336   1.275   8.520  0.0418  0.3095  0.3279
   91CHL1  H24A 9203   4.253   1.319   8.460  0.1898  1.3143  0.8410
   91CHL1  H24B 9204   4.306   1.177   8.564  1.2495  0.1653  0.8656
   91CHL1   C25 9205   4.350   1.372   8.637  0.0363 -0.6021 -0.2252
   91CHL1   H25 9206   4.381   1.474   8.604 -0.0381  0.3412  2.3879
   91CHL1   C26 9207   4.210   1.404   8.699 -0.2448 -0.5398 -0.0701
   91CHL1  H26A 9208   4.162   1.306   8.716  1.4383 -1.5530 -0.9219
   91CHL1  H26B 9209   4.212   1.455   8.798 -1.0829  1.0519 -0.8347
   91CHL1  H26C 9210   4.142   1.454   8.627  0.3771 -0.1417 -0.3896
   91CHL1   C27 9211   4.445   1.320   8.741  0.8178 -0.3333 -0.2748
   91CHL1  H27A 9212   4.412   1.216   8.760  0.4207  0.0566  1.3134
   91CHL1  H27B 9213   4.552   1.323   8.711  1.2495 -1.0973  1.1030
   91CHL1  H27C 9214   4.440   1.386   8.830  0.7068 -0.5919 -0.0889
   92CHL1    C3 9215   5.396   2.249   6.773 -0.0214 -0.0162  0.7788
   92CHL1    H3 9216   5.356   2.342   6.821 -2.5140 -0.7174  0.2062
   92CHL1    O3 9217   5.370   2.249   6.631  0.1393 -0.2116  0.4539
   92CHL1   H3' 9218   5.396   2.336   6.600  0.8272 -0.9011 -0.9896
   92CHL1    C4 9219   5.548   2.233   6.793 -0.3807 -0.0295  0.2899
   92CHL1   H4A 9220   5.596   2.150   6.736  0.0751 -0.7157  1.6397
   92CHL1   H4B 9221   5.597   2.320   6.744  1.1094 -0.6140  0.6854
   92CHL1    C5 9222   5.583   2.230   6.942  0.1143  0.0775  0.6032
   92CHL1    C6 9223   5.661   2.318   6.994 -0.5484 -0.0782 -1.0077
   92CHL1    H6 9224   5.699   2.396   6.926  0.0774 -0.8667 -1.5725
   92CHL1    C7 9225   5.710   2.321   7.143 -0.7139 -0.6497  0.8064
   92CHL1   H7A 9226   5.821   2.330   7.138 -0.8880  1.3321 -2.7055
   92CHL1   H7B 9227   5.674   2.409   7.200  0.6741  2.5526 -2.8012
   92CHL1    C8 9228   5.679   2.189   7.206 -0.0947 -0.3475 -0.3511
   92CHL1    H8 9229   5.750   2.107   7.181 -1.4079 -2.0408  1.2102
   92CHL1   C14 9230   5.680   2.200   7.357 -0.6491 -0.1484 -0.1514
   92CHL1   H14 9231   5.599   2.271   7.385 -2.1057 -2.0364  0.6355
   92CHL1   C15 9232   5.814   2.259   7.419  0.2990  0.4894  0.0808
   92CHL1  H15A 9233   5.896   2.223   7.354 -0.6674 -1.8628  0.0485
   92CHL1  H15B 9234   5.791   2.367   7.431 -0.5974  0.4231 -0.9127
   92CHL1   C16 9235   5.823   2.199   7.563 -0.2369  0.2586  0.1277
   92CHL1  H16A 9236   5.910   2.130   7.561 -0.9221 -0.6189 -0.4006
   92CHL1  H16B 9237   5.829   2.274   7.644  1.7628 -1.2317  1.4706
   92CHL1   C17 9238   5.700   2.108   7.581 -0.8816  0.8857  0.5009
   92CHL1   H17 9239   5.611   2.171   7.602 -0.2426  3.1019 -2.6542
   92CHL1   C13 9240   5.659   2.070   7.432  0.5489 -0.2751 -0.4273
   92CHL1   C18 9241   5.757   1.957   7.392  0.7810  0.4564 -0.0085
   92CHL1  H18A 9242   5.731   1.869   7.454 -0.8366  0.8455 -0.0975
   92CHL1  H18B 9243   5.732   1.928   7.287  0.1088  0.2196  0.2095
   92CHL1  H18C 9244   5.864   1.980   7.407  0.5317  0.0951  2.8533
   92CHL1   C12 9245   5.513   2.041   7.406 -0.7233  0.2424 -0.3635
   92CHL1  H12A 9246   5.479   1.950   7.459  0.1447 -0.7250 -1.4126
   92CHL1  H12B 9247   5.452   2.126   7.442  2.1364  1.3122  2.3148
   92CHL1   C11 9248   5.481   2.017   7.256 -0.5070 -0.6197 -0.2850
   92CHL1  H11A 9249   5.536   1.924   7.231  0.4400 -0.1490  0.0327
   92CHL1  H11B 9250   5.372   2.009   7.236 -0.6911  0.4518  0.2543
   92CHL1    C9 9251   5.538   2.134   7.167 -1.1358  0.3032  0.2029
   92CHL1    H9 9252   5.476   2.221   7.198 -0.7303  0.7207 -0.1348
   92CHL1   C10 9253   5.513   2.113   7.017 -0.0451 -0.1702 -0.0323
   92CHL1   C19 9254   5.589   1.981   6.977  0.0613  0.0714 -0.4062
   92CHL1  H19A 9255   5.610   1.964   6.869  0.8916 -2.6157  0.1193
   92CHL1  H19B 9256   5.685   1.968   7.030 -1.2320 -0.7961  1.8522
   92CHL1  H19C 9257   5.523   1.897   7.007  2.1225 -1.3490  0.3787
   92CHL1    C1 9258   5.365   2.110   6.984 -0.5824 -0.2328 -0.4024
   92CHL1   H1A 9259   5.328   2.013   7.025  0.8609 -1.1465 -1.1804
   92CHL1   H1B 9260   5.310   2.186   7.043 -1.8972 -1.1937 -0.3281
   92CHL1    C2 9261   5.331   2.119   6.835  0.1844  0.1264  1.1731
   92CHL1   H2A 9262   5.222   2.116   6.814  0.4208  0.9301 -0.2967
   92CHL1   H2B 9263   5.375   2.030   6.785 -1.2153 -0.4228  0.8742
   92CHL1   C20 9264   5.723   2.004   7.686  0.0687 -0.4646 -0.2957
   92CHL1   H20 9265   5.788   1.925   7.645  1.0250 -0.8623  1.8196
   92CHL1   C21 9266   5.596   1.936   7.724  0.1684  0.3768  0.1287
   92CHL1  H21A 9267   5.512   1.995   7.767 -0.8335 -3.5978  4.4425
   92CHL1  H21B 9268   5.617   1.852   7.793 -0.8570 -0.1277 -0.1508
   92CHL1  H21C 9269   5.551   1.877   7.640  0.2901 -1.3745  1.2449
   92CHL1   C22 9270   5.783   2.050   7.819  0.3265 -0.4444 -0.5182
   92CHL1  H22A 9271   5.828   1.956   7.858 -0.6598 -2.2097 -3.3484
   92CHL1  H22B 9272   5.871   2.112   7.790  0.0477  0.5628  0.6924
   92CHL1   C23 9273   5.702   2.137   7.912 -0.3379 -0.0307 -0.1693
   92CHL1  H23A 9274   5.658   2.220   7.854  0.8617  0.0072 -1.0711
   92CHL1  H23B 9275   5.615   2.092   7.965 -0.0584  0.4700  0.7360
   92CHL1   C24 9276   5.796   2.178   8.026 -0.6145  0.2461 -0.3976
   92CHL1  H24A 9277   5.842   2.100   8.090 -2.7881 -0.4884  0.3824
   92CHL1  H24B 9278   5.881   2.239   7.989 -0.2833 -0.7959 -1.4222
   92CHL1   C25 9279   5.725   2.268   8.126  0.7567 -0.1686 -0.1975
   92CHL1   H25 9280   5.652   2.326   8.065 -0.9495  0.2966  2.1601
   92CHL1   C26 9281   5.648   2.186   8.233 -0.2344  0.3037  0.3605
   92CHL1  H26A 9282   5.551   2.146   8.198 -0.2543 -2.0165  2.7140
   92CHL1  H26B 9283   5.707   2.101   8.273  2.5590  2.0780  0.3217
   92CHL1  H26C 9284   5.636   2.253   8.322  1.1899 -0.3417  1.0756
   92CHL1   C27 9285   5.839   2.349   8.194  0.0755  0.5275 -0.1163
   92CHL1  H27A 9286   5.927   2.284   8.206  0.4956  0.6113 -2.3380
   92CHL1  H27B 9287   5.871   2.436   8.132 -2.5506  2.7154  1.3458
   92CHL1  H27C 9288   5.814   2.385   8.297 -0.9589 -1.5044  0.3979
   93CHL1    C3 9289   5.318   1.042   6.775  0.5049 -0.1094  0.0336
   93CHL1    H3 9290   5.382   1.129   6.749  0.4164  0.1588  0.7059
   93CHL1    O3 9291   5.263   0.996   6.652 -0.4828  0.2079  0.1996
   93CHL1   H3' 9292   5.286   0.903   6.652 -0.2069  0.2319  1.9324
   93CHL1    C4 9293   5.400   0.928   6.840  0.6433 -1.2201  0.4327
   93CHL1   H4A 9294   5.337   0.837   6.830  0.1888 -0.7077 -1.8720
   93CHL1   H4B 9295   5.483   0.905   6.770 -0.4572  2.6438 -2.4528
   93CHL1    C5 9296   5.435   0.959   6.986  0.6265  0.8348  0.0738
   93CHL1    C6 9297   5.563   0.960   7.029  0.0625  0.2598  0.6437
   93CHL1    H6 9298   5.639   0.938   6.952 -0.0519  2.8850 -0.3252
   93CHL1    C7 9299   5.608   0.988   7.168 -0.1362 -0.0615 -0.2187
   93CHL1   H7A 9300   5.680   0.910   7.200 -1.3941 -2.3741 -2.6355
   93CHL1   H7B 9301   5.654   1.088   7.180 -1.0582  0.7283 -2.7458
   93CHL1    C8 9302   5.487   0.992   7.267 -0.1292 -0.0946 -0.0345
   93CHL1    H8 9303   5.453   0.887   7.281 -0.7783 -0.3790 -3.1047
   93CHL1   C14 9304   5.531   1.058   7.402  0.3245 -0.0704 -0.6846
   93CHL1   H14 9305   5.555   1.161   7.371 -2.3392  0.2023 -2.1437
   93CHL1   C15 9306   5.662   1.011   7.460  0.6660 -0.3286 -0.0443
   93CHL1  H15A 9307   5.666   0.900   7.466 -0.8497 -0.4851 -1.2841
   93CHL1  H15B 9308   5.749   1.057   7.407  0.4572  2.0546  1.5227
   93CHL1   C16 9309   5.652   1.066   7.608 -0.7174 -0.4112 -0.1478
   93CHL1  H16A 9310   5.672   0.983   7.679  1.6250  0.7452  0.6437
   93CHL1  H16B 9311   5.744   1.128   7.615  0.2108 -1.5730 -1.4398
   93CHL1   C17 9312   5.515   1.142   7.625  0.1083 -0.1766  0.3247
   93CHL1   H17 9313   5.528   1.249   7.599 -1.3290 -0.5125 -1.9932
   93CHL1   C13 9314   5.427   1.078   7.513 -0.5182 -0.0711 -0.0620
   93CHL1   C18 9315   5.385   0.938   7.568  0.0097 -0.0300 -0.0442
   93CHL1  H18A 9316   5.304   0.948   7.644  1.8410  1.4484  1.8442
   93CHL1  H18B 9317   5.339   0.889   7.480 -1.4249 -1.2334  1.3115
   93CHL1  H18C 9318   5.479   0.890   7.602  0.5818 -0.2700 -1.8780
   93CHL1   C12 9319   5.319   1.166   7.459 -0.1066 -0.5473 -0.0118
   93CHL1  H12A 9320   5.233   1.169   7.529 -1.4162  0.6592 -1.5851
   93CHL1  H12B 9321   5.355   1.270   7.445 -1.6042  0.2862  1.8620
   93CHL1   C11 9322   5.268   1.103   7.326 -0.2312 -0.2730  0.6398
   93CHL1  H11A 9323   5.209   1.010   7.338 -0.7363 -0.5724 -2.9766
   93CHL1  H11B 9324   5.191   1.170   7.281  0.4481  0.2985  0.3078
   93CHL1    C9 9325   5.373   1.067   7.215 -1.2364 -0.2972 -0.3346
   93CHL1    H9 9326   5.417   1.166   7.191 -4.4255  0.8046 -2.2042
   93CHL1   C10 9327   5.320   1.010   7.081  0.5361 -0.8758  0.1525
   93CHL1   C19 9328   5.222   0.892   7.102  0.2224  0.5207 -0.1393
   93CHL1  H19A 9329   5.125   0.921   7.146  1.3815  2.8089  1.1185
   93CHL1  H19B 9330   5.191   0.841   7.008  0.2364  1.4712 -0.6734
   93CHL1  H19C 9331   5.273   0.814   7.162 -0.0440 -0.0997 -0.7082
   93CHL1    C1 9332   5.255   1.132   7.000 -0.2141  0.3435  0.0210
   93CHL1   H1A 9333   5.173   1.178   7.060  1.4591  0.1840  2.5530
   93CHL1   H1B 9334   5.329   1.213   6.984  0.2565 -0.3288 -1.3340
   93CHL1    C2 9335   5.207   1.088   6.862  0.2680  0.0523 -0.0449
   93CHL1   H2A 9336   5.165   1.177   6.810 -0.1498 -0.2894 -0.2970
   93CHL1   H2B 9337   5.125   1.014   6.875  1.4640 -0.9588  2.2575
   93CHL1   C20 9338   5.465   1.138   7.766  0.2634  0.0676 -0.0845
   93CHL1   H20 9339   5.429   1.036   7.792 -1.3262  1.0479  1.9241
   93CHL1   C21 9340   5.349   1.230   7.776 -0.5314 -0.3495 -0.5571
   93CHL1  H21A 9341   5.377   1.332   7.743  2.8981 -1.8948 -3.1398
   93CHL1  H21B 9342   5.297   1.235   7.873 -0.0100 -0.0850 -0.2871
   93CHL1  H21C 9343   5.263   1.194   7.715  0.1141  0.1982 -1.8357
   93CHL1   C22 9344   5.583   1.170   7.872  0.5070 -0.4477 -0.9571
   93CHL1  H22A 9345   5.660   1.090   7.868 -0.9660 -1.9001 -1.4842
   93CHL1  H22B 9346   5.639   1.263   7.849  0.5327 -0.5797 -1.4408
   93CHL1   C23 9347   5.537   1.174   8.014 -0.5844 -0.4768 -0.3745
   93CHL1  H23A 9348   5.455   1.250   8.021  0.1537  0.3281 -0.2326
   93CHL1  H23B 9349   5.486   1.079   8.040 -0.2003 -0.4085  0.6740
   93CHL1   C24 9350   5.658   1.203   8.110  0.9903  0.1806 -0.1046
   93CHL1  H24A 9351   5.743   1.136   8.084  2.0562  0.2268  2.8700
   93CHL1  H24B 9352   5.687   1.308   8.092  1.1315  0.2600  0.5670
   93CHL1   C25 9353   5.632   1.206   8.265  0.2989  0.0374 -0.8106
   93CHL1   H25 9354   5.634   1.106   8.312 -1.8958 -0.0766 -0.8633
   93CHL1   C26 9355   5.744   1.282   8.334 -0.3693 -0.4359 -0.0921
   93CHL1  H26A 9356   5.719   1.290   8.442  0.4456  1.9727 -0.0184
   93CHL1  H26B 9357   5.839   1.226   8.319 -0.1110  0.4375 -2.0588
   93CHL1  H26C 9358   5.744   1.382   8.285  0.5034 -0.4280 -0.0952
   93CHL1   C27 9359   5.494   1.268   8.292  0.2983 -0.0469 -0.7090
   93CHL1  H27A 9360   5.494   1.374   8.258  2.8470  0.7435  1.3647
   93CHL1  H27B 9361   5.418   1.211   8.235  0.3984  0.9880 -1.9273
   93CHL1  H27C 9362   5.457   1.269   8.396 -0.9503 -0.0785 -1.1461
   94CHL1    C3 9363   6.648   2.981   6.762  0.4235  0.1122  0.0305
   94CHL1    H3 9364   6.551   2.944   6.800  1.2053 -1.7993  0.2956
   94CHL1    O3 9365   6.640   3.005   6.625 -0.7129  0.2351  0.8875
   94CHL1   H3' 9366   6.566   3.065   6.608 -0.3888  0.0815 -1.4940
   94CHL1    C4 9367   6.699   3.110   6.828  0.5210 -0.1522  0.0033
   94CHL1   H4A 9368   6.798   3.126   6.779 -0.3069  0.0145 -1.7069
   94CHL1   H4B 9369   6.642   3.199   6.794  0.1101 -0.2214  0.4986
   94CHL1    C5 9370   6.709   3.099   6.976  0.1237  0.5780  0.5081
   94CHL1    C6 9371   6.630   3.173   7.060 -0.7626  0.8870  0.5491
   94CHL1    H6 9372   6.551   3.239   7.022 -0.4094  0.6884 -0.5552
   94CHL1    C7 9373   6.650   3.176   7.208 -0.3646  0.4195 -0.3232
   94CHL1   H7A 9374   6.666   3.276   7.253  0.5311  0.1552 -0.0349
   94CHL1   H7B 9375   6.558   3.138   7.256 -0.3897 -0.9412 -1.3670
   94CHL1    C8 9376   6.768   3.087   7.258 -0.3376  0.0376 -0.2251
   94CHL1    H8 9377   6.851   3.161   7.256 -1.1232  0.9748 -3.1754
   94CHL1   C14 9378   6.744   3.039   7.400  0.0245 -0.2296 -0.4669
   94CHL1   H14 9379   6.658   2.968   7.391  0.3156 -0.6113 -0.2446
   94CHL1   C15 9380   6.706   3.145   7.507  0.2030  0.4619  0.6768
   94CHL1  H15A 9381   6.777   3.230   7.496  0.1363  0.5628  1.0133
   94CHL1  H15B 9382   6.598   3.170   7.502 -0.1469 -1.0736 -0.0660
   94CHL1   C16 9383   6.726   3.073   7.632 -0.7405 -0.5045  0.1370
   94CHL1  H16A 9384   6.784   3.125   7.712 -1.9237  3.3962 -1.3040
   94CHL1  H16B 9385   6.626   3.059   7.677 -0.5731 -0.5096  0.5116
   94CHL1   C17 9386   6.809   2.941   7.601 -0.3363 -0.3928  0.3937
   94CHL1   H17 9387   6.732   2.864   7.578 -1.7117  1.3517 -1.1780
   94CHL1   C13 9388   6.869   2.968   7.459  0.6103 -0.0568 -0.5757
   94CHL1   C18 9389   6.985   3.071   7.473 -1.3067  1.0629  0.6972
   94CHL1  H18A 9390   6.955   3.163   7.528  0.0499 -0.3819  4.1012
   94CHL1  H18B 9391   7.073   3.031   7.526 -1.3784 -1.6261 -1.0073
   94CHL1  H18C 9392   7.021   3.089   7.369 -0.5812 -2.3318  0.2585
   94CHL1   C12 9393   6.915   2.856   7.374  0.4316 -0.0911 -0.4722
   94CHL1  H12A 9394   7.007   2.809   7.414  0.8515  1.1475  0.0540
   94CHL1  H12B 9395   6.834   2.780   7.379 -1.9966  2.3795  0.1773
   94CHL1   C11 9396   6.932   2.897   7.223 -0.0864  0.1692 -0.6438
   94CHL1  H11A 9397   7.029   2.950   7.211 -0.4874  0.4676 -3.4238
   94CHL1  H11B 9398   6.941   2.803   7.163  0.7753  0.0838 -0.3980
   94CHL1    C9 9399   6.804   2.971   7.168 -0.3229 -0.4888  0.2484
   94CHL1    H9 9400   6.716   2.904   7.178  0.1681 -1.1052  0.4790
   94CHL1   C10 9401   6.811   2.999   7.020 -0.2541 -0.2994 -0.1510
   94CHL1   C19 9402   6.952   3.046   6.982  0.3931  0.4175  0.0295
   94CHL1  H19A 9403   7.034   2.972   6.994  1.0385  0.9116 -1.0880
   94CHL1  H19B 9404   6.965   3.081   6.877  3.6439  0.0744  0.2257
   94CHL1  H19C 9405   6.974   3.132   7.049  1.1293  0.8598 -0.7540
   94CHL1    C1 9406   6.778   2.864   6.942 -0.0299 -0.0183 -0.7748
   94CHL1   H1A 9407   6.859   2.789   6.954 -0.9540 -0.9498 -0.1602
   94CHL1   H1B 9408   6.694   2.817   6.997  0.7227  2.4372  2.8470
   94CHL1    C2 9409   6.749   2.872   6.788 -0.4106  0.0932 -0.3507
   94CHL1   H2A 9410   6.699   2.783   6.744 -3.0360  1.6178 -0.7175
   94CHL1   H2B 9411   6.845   2.898   6.740  0.1209 -2.3375 -0.7140
   94CHL1   C20 9412   6.904   2.903   7.710  0.2468  0.0770  0.0249
   94CHL1   H20 9413   6.980   2.984   7.717  0.2385  0.1785 -0.9481
   94CHL1   C21 9414   6.969   2.765   7.682 -0.2584 -0.6298  0.5489
   94CHL1  H21A 9415   7.064   2.783   7.627 -0.3902 -1.0564  0.1743
   94CHL1  H21B 9416   6.899   2.705   7.620  0.0148 -0.4668  0.0762
   94CHL1  H21C 9417   6.996   2.700   7.769 -1.9052 -4.6690 -1.7019
   94CHL1   C22 9418   6.824   2.877   7.839 -0.2420  0.8269 -0.7333
   94CHL1  H22A 9419   6.754   2.963   7.855 -1.3859  0.0263 -1.2942
   94CHL1  H22B 9420   6.764   2.786   7.819 -1.0302  1.0552  0.4840
   94CHL1   C23 9421   6.904   2.872   7.979  0.0955 -0.5791  0.7858
   94CHL1  H23A 9422   6.836   2.839   8.061 -2.0106  2.9797  0.6896
   94CHL1  H23B 9423   6.991   2.803   7.966  0.7603  0.2633  0.6780
   94CHL1   C24 9424   6.949   3.007   8.030  0.0036 -0.0968  0.5016
   94CHL1  H24A 9425   7.022   3.051   7.958 -0.0367 -0.5307  0.1895
   94CHL1  H24B 9426   6.863   3.076   8.017 -0.8944 -1.1552  0.6556
   94CHL1   C25 9427   6.981   3.020   8.177 -0.2294 -0.7332  0.7126
   94CHL1   H25 9428   6.892   2.996   8.239 -0.2190 -2.3436  0.1427
   94CHL1   C26 9429   7.088   2.928   8.216 -0.2661  0.4087 -1.3598
   94CHL1  H26A 9430   7.106   2.929   8.325 -0.2741  0.4619 -1.3587
   94CHL1  H26B 9431   7.075   2.819   8.197  1.7439 -0.3658  1.0986
   94CHL1  H26C 9432   7.183   2.953   8.163  0.5319  0.8345  0.2235
   94CHL1   C27 9433   7.017   3.163   8.210 -1.1626 -0.1318  0.1929
   94CHL1  H27A 9434   7.057   3.177   8.313 -1.8026 -0.0399  0.4328
   94CHL1  H27B 9435   7.102   3.193   8.145 -1.9007 -1.1777 -1.3010
   94CHL1  H27C 9436   6.935   3.234   8.186 -2.6549 -1.5695  0.8699
   95CHL1    C3 9437   6.585   0.487   6.668 -0.4778 -0.0251 -0.6632
   95CHL1    H3 9438   6.497   0.427   6.701 -0.6952 -0.1965 -1.5204
   95CHL1    O3 9439   6.604   0.464   6.526 -0.0706  0.0043 -0.1458
   95CHL1   H3' 9440   6.696   0.440   6.513 -0.0292 -0.4885  0.9895
   95CHL1    C4 9441   6.560   0.637   6.689 -0.1421 -0.3695 -0.7678
   95CHL1   H4A 9442   6.652   0.684   6.648 -1.1606  0.4773 -2.1708
   95CHL1   H4B 9443   6.476   0.663   6.621  1.2175 -1.3177 -2.9499
   95CHL1    C5 9444   6.548   0.673   6.840  0.5486  0.7716 -0.0009
   95CHL1    C6 9445   6.438   0.736   6.875  0.1955  0.1533  0.2164
   95CHL1    H6 9446   6.362   0.768   6.803 -0.7484  0.4229  1.3091
   95CHL1    C7 9447   6.415   0.779   7.012  0.5182 -0.4899  0.5352
   95CHL1   H7A 9448   6.371   0.879   7.029 -0.5080 -1.0045  1.0151
   95CHL1   H7B 9449   6.343   0.707   7.057  0.0474  1.1169  2.4585
   95CHL1    C8 9450   6.546   0.772   7.104  0.3689 -0.2911 -0.1638
   95CHL1    H8 9451   6.603   0.863   7.073 -0.1577  0.3871  0.7886
   95CHL1   C14 9452   6.506   0.785   7.254  0.5838  0.1826  0.3086
   95CHL1   H14 9453   6.440   0.696   7.268  1.0840 -0.1730  0.4020
   95CHL1   C15 9454   6.427   0.912   7.292 -0.8707  0.8439 -0.1228
   95CHL1  H15A 9455   6.474   1.001   7.245 -2.5240  1.0833 -1.4458
   95CHL1  H15B 9456   6.317   0.908   7.276 -0.8650  0.4214 -0.0560
   95CHL1   C16 9457   6.453   0.937   7.444 -0.1642  0.4817  0.6649
   95CHL1  H16A 9458   6.511   1.029   7.466  0.6058  0.6154 -1.6254
   95CHL1  H16B 9459   6.360   0.943   7.504 -0.6929 -0.1047 -0.0677
   95CHL1   C17 9460   6.545   0.811   7.482 -0.2893 -0.0687  0.4925
   95CHL1   H17 9461   6.477   0.725   7.500 -0.4782  0.2404  1.3100
   95CHL1   C13 9462   6.625   0.771   7.354  0.2045 -0.2378  0.5352
   95CHL1   C18 9463   6.740   0.873   7.330 -0.3191 -0.5183 -0.2810
   95CHL1  H18A 9464   6.791   0.853   7.233 -0.4748  1.2138 -0.7660
   95CHL1  H18B 9465   6.703   0.978   7.328 -0.7002 -0.6605 -2.2026
   95CHL1  H18C 9466   6.811   0.873   7.415 -1.2637 -2.8765  0.5739
   95CHL1   C12 9467   6.681   0.629   7.335  0.1818 -0.0758 -0.1854
   95CHL1  H12A 9468   6.766   0.613   7.405  1.7257  0.1230 -1.9271
   95CHL1  H12B 9469   6.601   0.566   7.379  0.3818 -0.9584 -1.0527
   95CHL1   C11 9470   6.713   0.594   7.186  0.5881  0.1005  0.2152
   95CHL1  H11A 9471   6.802   0.656   7.163  1.0999 -0.4716  0.6410
   95CHL1  H11B 9472   6.742   0.487   7.183 -1.4672 -0.4950 -2.3221
   95CHL1    C9 9473   6.608   0.637   7.080 -0.0575  1.1891 -0.1968
   95CHL1    H9 9474   6.524   0.565   7.088 -1.7197  3.0306 -0.2813
   95CHL1   C10 9475   6.661   0.617   6.936 -0.5474 -0.0240  0.8089
   95CHL1   C19 9476   6.795   0.702   6.918 -0.3250  0.5423 -0.3315
   95CHL1  H19A 9477   6.771   0.802   6.962 -0.9620 -0.8610  2.8344
   95CHL1  H19B 9478   6.879   0.663   6.979 -1.6003  1.4678  2.2011
   95CHL1  H19C 9479   6.812   0.720   6.810 -1.2678  2.3009 -0.2254
   95CHL1    C1 9480   6.680   0.467   6.905  0.7100 -0.8259 -0.1889
   95CHL1   H1A 9481   6.772   0.431   6.956  0.6606  0.5716  0.9307
   95CHL1   H1B 9482   6.592   0.404   6.928  1.5228 -2.8736 -2.2458
   95CHL1    C2 9483   6.706   0.449   6.752 -0.3567 -0.4874 -0.5602
   95CHL1   H2A 9484   6.722   0.341   6.735  0.9827  0.1330 -3.9038
   95CHL1   H2B 9485   6.794   0.504   6.712 -1.5099  0.8058 -1.4023
   95CHL1   C20 9486   6.619   0.830   7.615  0.7016  0.2369  0.1574
   95CHL1   H20 9487   6.698   0.908   7.601  0.9694 -0.0459  0.0811
   95CHL1   C21 9488   6.692   0.702   7.659 -0.4592 -0.1862 -0.2291
   95CHL1  H21A 9489   6.728   0.703   7.764  0.7580 -0.5315 -0.6327
   95CHL1  H21B 9490   6.782   0.703   7.594 -1.0646 -1.1879 -1.1222
   95CHL1  H21C 9491   6.615   0.622   7.650  0.0357 -1.0706  2.3767
   95CHL1   C22 9492   6.528   0.869   7.743  0.1963  0.2269  0.3069
   95CHL1  H22A 9493   6.422   0.852   7.716  0.1311 -0.3640  0.9067
   95CHL1  H22B 9494   6.547   0.801   7.829 -0.3786  0.6116  0.7425
   95CHL1   C23 9495   6.533   1.019   7.775 -0.1308 -0.4778  0.2446
   95CHL1  H23A 9496   6.551   1.086   7.687 -0.9222 -0.3135  0.1954
   95CHL1  H23B 9497   6.445   1.055   7.832 -0.5401  0.6328 -1.0290
   95CHL1   C24 9498   6.652   1.058   7.864 -0.6177  0.0462  0.0225
   95CHL1  H24A 9499   6.748   1.048   7.810  1.0770  3.5934  1.9757
   95CHL1  H24B 9500   6.644   1.169   7.870  1.1863  0.1745  0.5003
   95CHL1   C25 9501   6.665   1.006   8.004 -0.3911  1.0984  0.8824
   95CHL1   H25 9502   6.690   0.898   7.997 -2.8247  0.4602  1.1103
   95CHL1   C26 9503   6.780   1.083   8.076 -0.0381 -0.0867  0.2542
   95CHL1  H26A 9504   6.879   1.054   8.034 -0.4077 -0.0674 -0.6634
   95CHL1  H26B 9505   6.757   1.191   8.065 -3.5508 -0.8181 -0.8201
   95CHL1  H26C 9506   6.785   1.057   8.184 -0.6029 -0.1637  0.2665
   95CHL1   C27 9507   6.533   1.027   8.081  0.6273 -0.6267  0.1353
   95CHL1  H27A 9508   6.439   0.978   8.047  0.7686 -1.4462  0.8768
   95CHL1  H27B 9509   6.558   0.981   8.179  1.2151 -1.3175 -0.3279
   95CHL1  H27C 9510   6.518   1.134   8.107  2.7084 -0.4360  0.7101
   96CHL1    C3 9511   6.079   6.144   6.578  0.6124  0.0259 -0.0693
   96CHL1    H3 9512   6.010   6.231   6.583  2.0615  1.1948  0.2422
   96CHL1    O3 9513   6.096   6.113   6.443 -0.2686  0.2803 -0.2975
   96CHL1   H3' 9514   6.136   6.026   6.432 -0.1356  0.3479 -0.3520
   96CHL1    C4 9515   6.219   6.192   6.627  0.5034  0.2040 -0.1362
   96CHL1   H4A 9516   6.295   6.116   6.600  1.7041  2.0045 -2.2356
   96CHL1   H4B 9517   6.241   6.279   6.561  1.4107 -1.3279 -1.9645
   96CHL1    C5 9518   6.213   6.215   6.776  0.0139 -0.2472  0.2207
   96CHL1    C6 9519   6.239   6.335   6.822  0.1084 -0.4576  0.4810
   96CHL1    H6 9520   6.258   6.417   6.751 -1.4784 -0.8418 -0.4352
   96CHL1    C7 9521   6.254   6.371   6.962  0.0070  1.0195  0.0927
   96CHL1   H7A 9522   6.347   6.429   6.981  1.6916 -1.2278 -0.9079
   96CHL1   H7B 9523   6.158   6.421   6.989 -0.5824 -0.6936  1.3473
   96CHL1    C8 9524   6.269   6.238   7.060  0.4224  0.2666 -0.0373
   96CHL1    H8 9525   6.374   6.201   7.054  0.7492  0.4527  2.9739
   96CHL1   C14 9526   6.245   6.285   7.203 -0.2366 -0.7608  0.6750
   96CHL1   H14 9527   6.143   6.329   7.206  0.5925  1.4346 -0.6075
   96CHL1   C15 9528   6.331   6.402   7.250 -0.1806  0.2566 -0.2788
   96CHL1  H15A 9529   6.431   6.388   7.205 -0.2696  2.2131 -1.1631
   96CHL1  H15B 9530   6.284   6.486   7.196 -2.0286 -1.1445 -0.9886
   96CHL1   C16 9531   6.320   6.389   7.403  0.4193 -0.2622 -0.4113
   96CHL1  H16A 9532   6.420   6.396   7.452 -0.4250 -0.1792  1.3942
   96CHL1  H16B 9533   6.269   6.479   7.445  1.7369 -0.0541  0.8187
   96CHL1   C17 9534   6.237   6.257   7.430 -0.4388 -0.1757 -0.6778
   96CHL1   H17 9535   6.131   6.289   7.441 -0.4554 -1.0154  2.8766
   96CHL1   C13 9536   6.257   6.173   7.308  0.9565  0.7581  0.5844
   96CHL1   C18 9537   6.388   6.099   7.313  0.3583  0.1853  0.9941
   96CHL1  H18A 9538   6.409   6.039   7.222  4.2518  1.7768  0.6253
   96CHL1  H18B 9539   6.476   6.167   7.326 -0.4468  1.5412 -0.3315
   96CHL1  H18C 9540   6.374   6.028   7.397 -2.3509 -1.3124 -0.6030
   96CHL1   C12 9541   6.139   6.076   7.263 -0.7733 -0.8825 -0.8781
   96CHL1  H12A 9542   6.130   6.000   7.344 -0.8238  1.2317  1.2402
   96CHL1  H12B 9543   6.045   6.134   7.273 -0.3561 -0.4199  0.7288
   96CHL1   C11 9544   6.143   6.023   7.119  0.4108  0.1183  0.4865
   96CHL1  H11A 9545   6.232   5.957   7.123 -0.6017 -1.4668 -1.7926
   96CHL1  H11B 9546   6.058   5.959   7.089  2.4768 -1.9227 -1.3378
   96CHL1    C9 9547   6.167   6.134   7.017  0.1274  0.0648 -0.1014
   96CHL1    H9 9548   6.072   6.191   7.015 -1.6750 -2.7366 -0.4550
   96CHL1   C10 9549   6.175   6.095   6.871  0.6535  0.1976  0.1543
   96CHL1   C19 9550   6.282   5.982   6.860 -0.1745 -0.0086  0.3243
   96CHL1  H19A 9551   6.379   6.010   6.907  0.9661  0.0069 -1.8971
   96CHL1  H19B 9552   6.251   5.885   6.906 -0.1574 -0.0654  0.2164
   96CHL1  H19C 9553   6.296   5.943   6.757 -1.7466  0.0920  0.0442
   96CHL1    C1 9554   6.039   6.036   6.816  0.4346  0.2702 -0.1202
   96CHL1   H1A 9555   5.995   5.942   6.853  1.4921 -0.6604 -1.1528
   96CHL1   H1B 9556   5.964   6.118   6.825  1.6653  1.4262  0.0308
   96CHL1    C2 9557   6.036   6.022   6.658  0.4080  0.2159  0.7051
   96CHL1   H2A 9558   5.934   5.988   6.631  1.0850 -1.9578  0.7511
   96CHL1   H2B 9559   6.109   5.941   6.637 -0.7478 -0.7050  0.0991
   96CHL1   C20 9560   6.265   6.192   7.571 -0.1407  0.0055  0.2411
   96CHL1   H20 9561   6.368   6.151   7.574  0.2125  0.9121  1.4509
   96CHL1   C21 9562   6.158   6.083   7.599  0.8381 -0.1737 -0.3018
   96CHL1  H21A 9563   6.158   5.996   7.530 -3.2548 -0.6097 -0.0129
   96CHL1  H21B 9564   6.054   6.121   7.590 -0.2585 -2.6677  0.9066
   96CHL1  H21C 9565   6.174   6.042   7.701 -0.1642  0.9913  0.3609
   96CHL1   C22 9566   6.275   6.287   7.693 -0.0396  0.2916 -0.6570
   96CHL1  H22A 9567   6.336   6.373   7.659  1.5424 -0.7972 -0.6970
   96CHL1  H22B 9568   6.170   6.319   7.710  0.3776  0.6267  1.4704
   96CHL1   C23 9569   6.347   6.226   7.816  0.7696 -0.3680 -0.1628
   96CHL1  H23A 9570   6.286   6.156   7.877  1.4896 -2.8794 -2.1572
   96CHL1  H23B 9571   6.424   6.153   7.784  1.2605  0.2141 -0.3159
   96CHL1   C24 9572   6.393   6.339   7.900 -0.2116  0.4150 -0.2696
   96CHL1  H24A 9573   6.452   6.403   7.832 -1.9594  1.6022 -0.7500
   96CHL1  H24B 9574   6.304   6.395   7.936 -1.1735 -1.2928  0.1340
   96CHL1   C25 9575   6.470   6.289   8.026 -0.0262 -0.1826  0.2597
   96CHL1   H25 9576   6.396   6.231   8.085  0.8330 -1.3202  0.2501
   96CHL1   C26 9577   6.584   6.186   7.995 -0.1219 -0.0737  0.6193
   96CHL1  H26A 9578   6.642   6.223   7.908 -0.4720  2.3592  1.3278
   96CHL1  H26B 9579   6.652   6.187   8.082  2.4019 -1.0601 -1.2202
   96CHL1  H26C 9580   6.546   6.082   7.986 -2.5044  0.6298  1.6408
   96CHL1   C27 9581   6.531   6.406   8.102  0.2423  0.0396 -0.4382
   96CHL1  H27A 9582   6.460   6.491   8.092 -0.4031 -0.0871  2.3494
   96CHL1  H27B 9583   6.542   6.397   8.212  0.1586  1.7190 -0.2729
   96CHL1  H27C 9584   6.635   6.425   8.068  0.4955 -1.2734 -0.4781
   97OSM      N 9585   4.386   0.891  11.114  0.4495  0.1184 -0.5420
   97OSM    C15 9586   4.332   1.013  11.174 -0.5636  0.5484  0.4590
   97OSM   H15A 9587   4.227   1.018  11.200 -1.0455  1.7643 -1.4865
   97OSM   H15B 9588   4.342   1.097  11.108  2.5783 -1.2232 -1.5859
   97OSM   H15C 9589   4.396   1.040  11.256  0.5690  2.4473 -0.9869
   97OSM    C14 9590   4.390   0.785  11.221 -0.3533  0.3879  0.5705
   97OSM   H14A 9591   4.289   0.749  11.232  0.3214 -2.2502 -1.0735
   97OSM   H14B 9592   4.442   0.815  11.311  0.8228  1.7840 -0.5212
   97OSM   H14C 9593   4.446   0.700  11.186 -1.0064  0.2510 -0.1737
   97OSM    C13 9594   4.301   0.838  11.006 -0.0279 -0.0539 -0.5551
   97OSM   H13A 9595   4.321   0.874  10.907 -2.1993 -2.1960 -1.8873
   97OSM   H13B 9596   4.200   0.874  11.019 -0.3018 -0.6364 -1.0259
   97OSM   H13C 9597   4.293   0.731  10.995 -1.3394 -0.6653  4.0117
   97OSM    C12 9598   4.525   0.918  11.058 -0.0328 -0.1833  0.2428
   97OSM   H12A 9599   4.518   0.996  10.984 -0.2887 -0.9692 -0.5795
   97OSM   H12B 9600   4.553   0.825  11.012  0.2245 -0.7065  1.4059
   97OSM    C11 9601   4.637   0.949  11.159  0.4807 -0.5958 -0.6199
   97OSM   H11A 9602   4.603   1.028  11.229 -0.0589 -0.0478 -1.4931
   97OSM   H11B 9603   4.721   0.996  11.104  0.8151 -2.5192 -1.8348
   97OSM      P 9604   4.727   0.697  11.174  0.5059  0.2834  0.2190
   97OSM    O13 9605   4.871   0.689  11.186  0.2718  0.0870 -1.0258
   97OSM    O14 9606   4.654   0.588  11.250  0.2557 -0.0986  0.1057
   97OSM    O11 9607   4.693   0.696  11.018 -0.1534 -0.2474 -0.6362
   97OSM    O12 9608   4.677   0.834  11.229 -0.6797 -0.4206 -0.2005
   97OSM    C1S 9609   4.689   0.582  10.932 -0.0098 -0.2082  0.3067
   97OSM    H1S 9610   4.599   0.522  10.958  0.6379 -0.6711  1.6189
   97OSM    H1T 9611   4.773   0.510  10.940 -0.7919 -1.1145  0.6914
   97OSM     NF 9612   4.627   0.505  10.704  0.1986  0.1855 -0.2978
   97OSM    HNF 9613   4.687   0.455  10.642  2.4513  0.2778  1.6587
   97OSM    C2S 9614   4.676   0.622  10.781 -0.5084 -0.1356 -0.9149
   97OSM    H2S 9615   4.603   0.706  10.779  2.4989  2.6728 -0.5369
   97OSM    C3S 9616   4.821   0.684  10.739  0.3013 -0.2382 -0.1270
   97OSM    H3S 9617   4.904   0.611  10.741  0.3234 -0.2019  2.0115
   97OSM     O3 9618   4.849   0.803  10.814  0.3484  0.8144 -0.0779
   97OSM    HO3 9619   4.788   0.807  10.888  0.2718  1.6800 -0.1814
   97OSM    C4S 9620   4.794   0.731  10.594 -0.5705  0.2947 -0.3564
   97OSM    H4S 9621   4.699   0.782  10.573 -1.1348 -1.0000 -1.1064
   97OSM    C5S 9622   4.855   0.680  10.492 -0.8328 -0.1364 -0.3880
   97OSM    H5S 9623   4.939   0.610  10.499  1.5365  2.2767 -2.5969
   97OSM    C6S 9624   4.815   0.713  10.352  0.5653 -0.0444  0.0856
   97OSM    H6S 9625   4.807   0.823  10.343  0.3166 -0.0241  0.5396
   97OSM    H6T 9626   4.721   0.660  10.325  0.7449 -0.6599  0.6366
   97OSM    C7S 9627   4.931   0.657  10.255  0.5887 -0.5338  0.3936
   97OSM    H7S 9628   4.949   0.550  10.279  1.1359 -0.2607  1.2154
   97OSM    H7T 9629   5.019   0.724  10.258 -0.7828  1.3702  0.0487
   97OSM    C8S 9630   4.864   0.645  10.112  0.2857 -0.4189  0.0972
   97OSM    H8S 9631   4.840   0.753  10.103  2.1192  0.2938  2.4369
   97OSM    H8T 9632   4.767   0.593  10.099 -1.7914  1.5692  5.0737
   97OSM    C9S 9633   4.964   0.606  10.004  0.2358 -0.3276  0.2797
   97OSM    H9S 9634   4.975   0.495  10.004 -1.6704 -0.5567  0.8946
   97OSM    H9T 9635   5.064   0.640  10.037  0.4934 -0.7284 -0.0790
   97OSM   C10S 9636   4.928   0.657   9.869 -0.9275 -0.0977  0.4829
   97OSM   H10S 9637   4.927   0.768   9.869 -1.4699 -0.0995  0.7092
   97OSM   H10T 9638   4.821   0.636   9.845 -1.7587  0.2329  3.5762
   97OSM   C11S 9639   5.026   0.609   9.758 -0.0535  0.1822 -1.0251
   97OSM   H11S 9640   5.022   0.498   9.755 -1.1211  0.1384  0.5904
   97OSM   H11T 9641   5.130   0.641   9.780  0.8213 -2.2665 -1.2289
   97OSM   C12S 9642   4.970   0.647   9.620  0.0015 -0.2692  0.7437
   97OSM   H12S 9643   4.966   0.758   9.616  2.5104 -0.1698 -0.9641
   97OSM   H12T 9644   4.862   0.621   9.610 -1.3449  4.2709  1.1718
   97OSM   C13S 9645   5.053   0.601   9.496  0.6260  0.2368 -0.1963
   97OSM   H13S 9646   5.045   0.490   9.496  0.4041  0.2523  0.0735
   97OSM   H13T 9647   5.157   0.639   9.507  0.5792  0.2415  0.2333
   97OSM   C14S 9648   4.983   0.645   9.366 -0.3029 -0.1326 -0.3940
   97OSM   H14S 9649   5.000   0.754   9.351 -2.6178  0.4580  0.7830
   97OSM   H14T 9650   4.875   0.617   9.371 -0.6297  1.1937  2.8667
   97OSM   C15S 9651   5.046   0.573   9.244 -0.3639  0.4430 -0.1745
   97OSM   H15S 9652   5.035   0.466   9.270 -0.0252  0.8570  1.8590
   97OSM   H15T 9653   5.154   0.598   9.248 -0.2579 -0.0818  0.2452
   97OSM   C16S 9654   4.977   0.611   9.113 -0.4805 -0.1853  0.5923
   97OSM   H16S 9655   4.962   0.720   9.129 -0.2461 -0.3948  2.4761
   97OSM   H16T 9656   4.878   0.566   9.092 -0.5366 -0.0074  0.4698
   97OSM   C17S 9657   5.059   0.577   8.986  0.1336 -0.0367  0.2639
   97OSM   H17S 9658   5.112   0.482   9.010  0.8692 -0.1204 -1.5483
   97OSM   H17T 9659   5.138   0.653   8.968  0.8599 -0.8880 -0.2228
   97OSM   C18S 9660   4.973   0.564   8.862 -0.1024 -0.0939 -0.8783
   97OSM   H18S 9661   5.016   0.480   8.804 -1.0330 -0.6617 -0.7629
   97OSM   H18T 9662   4.974   0.657   8.800 -0.1364  0.7638  0.3720
   97OSM   H18U 9663   4.869   0.531   8.884  0.0215  0.2756  0.3180
   97OSM    C1F 9664   4.501   0.462  10.731  0.7865  0.4960  0.6334
   97OSM     OF 9665   4.416   0.545  10.766  0.2390  0.4747  0.0874
   97OSM    C2F 9666   4.474   0.312  10.718 -0.7040  0.1759  0.0632
   97OSM    H2F 9667   4.372   0.282  10.752 -0.4418  1.1287  1.8117
   97OSM    H2G 9668   4.550   0.253  10.772 -0.7449 -1.3646 -1.4658
   97OSM    C3F 9669   4.474   0.262  10.567  0.0098 -0.0137 -0.4657
   97OSM    H3F 9670   4.571   0.282  10.517  0.1861 -0.7891 -0.4562
   97OSM    H3G 9671   4.394   0.316  10.511  0.3864 -0.7569 -1.7785
   97OSM    C4F 9672   4.437   0.109  10.566  0.1608 -0.2763 -0.1699
   97OSM    H4F 9673   4.330   0.109  10.595  0.4638  0.6221  1.0167
   97OSM    H4G 9674   4.498   0.052  10.638  1.4481  1.7225  0.3987
   97OSM    C5F 9675   4.444   0.046  10.424  0.5000  0.3555  0.2500
   97OSM    H5F 9676   4.403  -0.057  10.424  0.3763  0.3264  3.1178
   97OSM    H5G 9677   4.553   0.051  10.404  0.3598  2.3287 -0.2374
   97OSM    C6F 9678   4.371   0.130  10.315 -0.0202  0.3079 -0.0168
   97OSM    H6F 9679   4.399   0.237  10.325  0.8219  0.2731 -1.6892
   97OSM    H6G 9680   4.260   0.121  10.322 -0.1727  1.6425 -0.4995
   97OSM    C7F 9681   4.415   0.087  10.174  0.5782  0.3677 -0.0533
   97OSM    H7F 9682   4.411  -0.023  10.158  0.2729  0.2807  0.6069
   97OSM    H7G 9683   4.524   0.108  10.170  0.8682 -1.0657 -3.2391
   97OSM    C8F 9684   4.337   0.162  10.066  0.5450 -0.9467  0.1765
   97OSM    H8F 9685   4.402   0.163   9.975  0.9871 -2.5958  0.4448
   97OSM    H8G 9686   4.338   0.266  10.105  2.6520  0.6870 -3.5976
   97OSM    C9F 9687   4.196   0.106  10.027  0.2352 -0.1254  1.0398
   97OSM    H9F 9688   4.130   0.124  10.113  0.9977 -2.4953  2.2239
   97OSM   C10F 9689   4.154   0.032   9.922  0.1075  0.3721  0.7538
   97OSM   H10F 9690   4.051  -0.007   9.921  0.5410 -0.7887 -0.1486
   97OSM   C11F 9691   4.244  -0.007   9.812  0.0764  0.5191  0.5035
   97OSM   H11F 9692   4.194  -0.085   9.751 -1.5059 -0.1572  2.5807
   97OSM   H11G 9693   4.347  -0.035   9.843 -0.8112 -2.7511  0.8457
   97OSM   C12F 9694   4.268   0.105   9.712 -0.4509 -0.4245 -0.1710
   97OSM   H12F 9695   4.301   0.202   9.754  1.8135 -0.8010 -0.9491
   97OSM   H12G 9696   4.174   0.127   9.657 -0.6136  0.7048  0.5306
   97OSM   C13F 9697   4.386   0.064   9.613  0.1137  0.5557  0.1197
   97OSM   H13F 9698   4.375  -0.045   9.595  2.7390  0.0102  1.3248
   97OSM   H13G 9699   4.485   0.088   9.657  0.7179  2.3556 -2.0609
   97OSM   C14F 9700   4.389   0.139   9.477  0.0714  0.2191 -0.3361
   97OSM   H14F 9701   4.488   0.117   9.431 -1.0827 -0.5669 -2.5719
   97OSM   H14G 9702   4.371   0.247   9.494 -2.2062  0.1439 -1.8797
   97OSM   C15F 9703   4.293   0.074   9.377  0.1586  0.3811 -0.2328
   97OSM   H15F 9704   4.193   0.056   9.420  0.8466 -1.6605  0.6236
   97OSM   H15G 9705   4.319  -0.033   9.365 -0.4085  0.0652  1.2035
   97OSM   C16F 9706   4.289   0.143   9.243  0.2218 -0.3332  0.0438
   97OSM   H16F 9707   4.239   0.242   9.237 -0.1865 -0.6177 -2.5471
   97OSM   H16G 9708   4.214   0.077   9.193 -1.9448  1.2061  1.0755
   97OSM   C17F 9709   4.421   0.138   9.156 -0.5304  0.4713  0.1229
   97OSM   H17F 9710   4.506   0.177   9.216 -0.6785  0.9044  0.0561
   97OSM   H17G 9711   4.407   0.218   9.079  1.7907  1.3418  0.5156
   97OSM   C18F 9712   4.457   0.011   9.079 -0.4227 -0.2676  0.0538
   97OSM   H18F 9713   4.524   0.030   8.992  0.7233 -1.7349  0.5793
   97OSM   H18G 9714   4.377  -0.055   9.038 -0.0210 -1.0068  0.4354
   97OSM   H18H 9715   4.520  -0.058   9.139  1.2673 -0.2825 -1.6241
   98OSM      N 9716   3.558   0.618  10.918 -0.3359  0.1906 -0.4412
   98OSM    C15 9717   3.612   0.758  10.930 -0.1679  0.3684 -0.2273
   98OSM   H15A 9718   3.557   0.822  10.863  0.4619  1.7351  0.5186
   98OSM   H15B 9719   3.720   0.759  10.921  0.0307 -0.4802  1.5928
   98OSM   H15C 9720   3.583   0.790  11.029  1.0661 -0.0537  0.2939
   98OSM    C14 9721   3.608   0.573  10.788  0.2288  0.1064 -0.3926
   98OSM   H14A 9722   3.581   0.627  10.699  0.0737 -2.1952 -1.8016
   98OSM   H14B 9723   3.588   0.468  10.773  0.6931  0.0170 -0.4106
   98OSM   H14C 9724   3.715   0.587  10.793  0.2545 -0.0335 -0.5532
   98OSM    C13 9725   3.627   0.534  11.019 -0.1321 -0.4568  0.6400
   98OSM   H13A 9726   3.620   0.431  10.987 -1.2174 -0.6025  1.2787
   98OSM   H13B 9727   3.586   0.543  11.119 -1.2244 -0.3457  0.2015
   98OSM   H13C 9728   3.734   0.544  11.031  0.3041 -3.2910 -0.0606
   98OSM    C12 9729   3.403   0.613  10.932 -0.3431 -0.4948  0.5964
   98OSM   H12A 9730   3.388   0.618  11.038  0.4873  0.2225  0.6934
   98OSM   H12B 9731   3.370   0.513  10.908  0.5930 -0.1009 -3.0453
   98OSM    C11 9732   3.316   0.710  10.852  0.1296 -0.5341  0.4027
   98OSM   H11A 9733   3.210   0.684  10.869 -0.7533  1.3511 -1.7064
   98OSM   H11B 9734   3.339   0.693  10.745 -0.2964 -4.1416  0.7704
   98OSM      P 9735   3.282   0.904  11.016  0.3767  0.2417 -0.0117
   98OSM    O13 9736   3.262   0.799  11.117  0.0847 -0.4626  0.4239
   98OSM    O14 9737   3.360   1.024  11.057  0.1763 -0.4506  0.1131
   98OSM    O11 9738   3.139   0.951  10.966  0.0496  0.2597  0.1540
   98OSM    O12 9739   3.342   0.846  10.884  0.6922  0.3555 -0.6694
   98OSM    C1S 9740   3.134   1.064  10.871 -0.6938 -0.0104 -0.4591
   98OSM    H1S 9741   3.237   1.106  10.864 -0.5393 -0.3771 -0.4326
   98OSM    H1T 9742   3.060   1.141  10.902 -0.4725  0.0851 -0.1735
   98OSM     NF 9743   3.112   1.143  10.638 -0.5282  0.0319  0.3295
   98OSM    HNF 9744   3.035   1.199  10.608 -0.1875 -0.2416 -1.1308
   98OSM    C2S 9745   3.098   1.021  10.723  0.3348 -0.1029  0.3872
   98OSM    H2S 9746   3.175   0.948  10.692  0.0689  0.6627 -2.3219
   98OSM    C3S 9747   2.961   0.954  10.716  0.4152  0.5459 -0.4208
   98OSM    H3S 9748   2.893   1.030  10.760  0.8417  1.3419 -1.1112
   98OSM     O3 9749   2.948   0.827  10.778 -0.1469 -0.3051 -1.1168
   98OSM    HO3 9750   3.031   0.824  10.824  0.0730 -0.4206 -1.5162
   98OSM    C4S 9751   2.915   0.938  10.576 -0.2966 -0.6719 -0.5583
   98OSM    H4S 9752   2.879   1.026  10.522  0.6100 -1.0308 -1.8073
   98OSM    C5S 9753   2.910   0.835  10.494 -0.0323  0.0999  0.4979
   98OSM    H5S 9754   2.930   0.732  10.528 -2.1697  0.3412  2.8309
   98OSM    C6S 9755   2.868   0.846  10.354 -0.4615  0.3102  0.3662
   98OSM    H6S 9756   2.870   0.951  10.320  1.3763  0.0792 -0.3765
   98OSM    H6T 9757   2.764   0.809  10.341 -1.0039  0.8870  2.5930
   98OSM    C7S 9758   2.960   0.765  10.262  0.0755  0.1613  0.0871
   98OSM    H7S 9759   2.958   0.664  10.308 -2.5801 -0.0182 -0.2626
   98OSM    H7T 9760   3.065   0.801  10.271  1.0754 -2.6147  0.4475
   98OSM    C8S 9761   2.907   0.757  10.119  0.0428  0.2399 -0.5956
   98OSM    H8S 9762   2.912   0.863  10.085  2.3104  0.5317  0.5141
   98OSM    H8T 9763   2.804   0.716  10.116  0.5988 -1.1707 -1.2059
   98OSM    C9S 9764   3.000   0.677  10.033  0.2502  0.1663 -0.0360
   98OSM    H9S 9765   2.979   0.568  10.033  0.2731  0.1550 -0.6369
   98OSM    H9T 9766   3.104   0.693  10.068 -0.4974  1.7620  1.6711
   98OSM   C10S 9767   2.984   0.731   9.887  0.2640  0.7590 -1.4356
   98OSM   H10S 9768   3.025   0.834   9.877 -0.0055  0.7716 -2.4766
   98OSM   H10T 9769   2.879   0.752   9.859 -0.2471 -1.5118 -1.3346
   98OSM   C11S 9770   3.033   0.618   9.785  0.6279  1.2025 -0.1380
   98OSM   H11S 9771   2.979   0.524   9.813 -1.6694  3.0765  2.3463
   98OSM   H11T 9772   3.140   0.593   9.803  0.4384  0.7211  0.3884
   98OSM   C12S 9773   3.037   0.654   9.639 -0.9677  0.0548  0.2516
   98OSM   H12S 9774   3.099   0.746   9.631 -1.6228  0.3348 -2.8107
   98OSM   H12T 9775   2.938   0.684   9.598 -0.3281  1.3545 -0.4385
   98OSM   C13S 9776   3.088   0.542   9.556  0.4201 -0.2756 -0.1582
   98OSM   H13S 9777   3.009   0.464   9.561 -0.1638  0.2420 -0.8239
   98OSM   H13T 9778   3.185   0.506   9.595  0.4410  0.4554  0.4864
   98OSM   C14S 9779   3.100   0.586   9.406  0.2188 -0.4646 -0.6376
   98OSM   H14S 9780   3.194   0.645   9.399 -0.6889  1.0976 -0.0797
   98OSM   H14T 9781   3.012   0.651   9.384  0.4017  0.6527  1.7123
   98OSM   C15S 9782   3.110   0.463   9.312  0.1829  0.5076 -0.0209
   98OSM   H15S 9783   3.100   0.508   9.211  1.3382  2.3357  0.6302
   98OSM   H15T 9784   3.031   0.387   9.331  1.4198 -1.7154 -2.8845
   98OSM   C16S 9785   3.242   0.383   9.312 -0.5063  0.1385 -0.3536
   98OSM   H16S 9786   3.233   0.333   9.411  0.6208  1.5728  0.5039
   98OSM   H16T 9787   3.323   0.458   9.307  1.2469 -1.7058 -0.7755
   98OSM   C17S 9788   3.248   0.294   9.176  0.5173 -0.8894  0.1533
   98OSM   H17S 9789   3.246   0.374   9.099 -1.9423  0.0535  1.0984
   98OSM   H17T 9790   3.163   0.224   9.172 -0.8304  0.6270  1.0371
   98OSM   C18S 9791   3.378   0.215   9.170 -0.5226 -0.1859 -0.3508
   98OSM   H18S 9792   3.457   0.285   9.206 -2.6544  1.2073  1.9314
   98OSM   H18T 9793   3.399   0.186   9.065 -1.5892 -3.0809  0.1574
   98OSM   H18U 9794   3.382   0.134   9.246  2.0698  0.4854  0.3350
   98OSM    C1F 9795   3.230   1.183  10.600  0.0514 -0.1024 -0.3604
   98OSM     OF 9796   3.330   1.123  10.635  0.0799  0.4468 -0.6342
   98OSM    C2F 9797   3.242   1.300  10.513  0.8405 -0.1837  1.0404
   98OSM    H2F 9798   3.346   1.336  10.527  1.0638  0.5314 -1.7267
   98OSM    H2G 9799   3.169   1.383  10.517 -1.7364 -2.2442  0.0787
   98OSM    C3F 9800   3.246   1.251  10.363 -0.1561  0.6045 -0.7287
   98OSM    H3F 9801   3.321   1.169  10.356 -0.2075  0.4246  0.4962
   98OSM    H3G 9802   3.291   1.333  10.304 -1.2631  2.6508  1.1133
   98OSM    C4F 9803   3.116   1.193  10.301 -0.6733  0.0019 -0.3354
   98OSM    H4F 9804   3.051   1.277  10.267 -0.3425  0.6428  0.5908
   98OSM    H4G 9805   3.050   1.133  10.366 -0.1388 -2.2024 -1.7163
   98OSM    C5F 9806   3.153   1.094  10.189 -0.1999  0.1913 -0.4880
   98OSM    H5F 9807   3.060   1.040  10.160 -1.3086 -0.2833  3.3635
   98OSM    H5G 9808   3.213   1.018  10.243 -0.1324  1.1229  0.7941
   98OSM    C6F 9809   3.237   1.162  10.075  0.1041 -0.0391  0.4594
   98OSM    H6F 9810   3.321   1.218  10.122 -0.4321  1.2395 -0.0574
   98OSM    H6G 9811   3.167   1.231  10.023  1.6902  1.0724 -0.2766
   98OSM    C7F 9812   3.301   1.065   9.972  0.1275 -0.4340  0.1608
   98OSM    H7F 9813   3.223   0.989   9.947 -0.8351  1.3744 -2.9117
   98OSM    H7G 9814   3.386   1.012  10.019 -0.6345 -0.4734  1.5552
   98OSM    C8F 9815   3.350   1.129   9.843  0.0243  0.1915  1.0482
   98OSM    H8F 9816   3.271   1.183   9.786  1.0566 -0.7389 -1.3927
   98OSM    H8G 9817   3.399   1.050   9.783  0.9551  2.1329 -0.8891
   98OSM    C9F 9818   3.455   1.234   9.871  0.1834  0.5399 -0.2082
   98OSM    H9F 9819   3.434   1.294   9.961 -1.1776 -0.7074  0.3291
   98OSM   C10F 9820   3.573   1.262   9.805  0.9573  0.5937  0.2515
   98OSM   H10F 9821   3.642   1.343   9.832  2.3119  0.9194 -3.5688
   98OSM   C11F 9822   3.624   1.199   9.673 -0.5651 -0.3826  0.9350
   98OSM   H11F 9823   3.584   1.098   9.652  0.5936 -1.1393  2.2090
   98OSM   H11G 9824   3.732   1.175   9.680  0.0256  1.7325 -0.1250
   98OSM   C12F 9825   3.586   1.273   9.542 -0.0866  1.0810  0.6786
   98OSM   H12F 9826   3.591   1.384   9.537 -1.0236  1.0671 -1.4809
   98OSM   H12G 9827   3.478   1.255   9.526  0.4226 -0.8396 -1.0691
   98OSM   C13F 9828   3.668   1.212   9.422  0.3293 -0.0310 -0.2289
   98OSM   H13F 9829   3.662   1.101   9.427  0.2194 -0.1279 -1.9725
   98OSM   H13G 9830   3.777   1.236   9.427  0.4103 -0.5193  0.5605
   98OSM   C14F 9831   3.612   1.262   9.295  0.0015 -0.3477  0.4871
   98OSM   H14F 9832   3.611   1.373   9.285 -1.3530 -0.4471 -0.9011
   98OSM   H14G 9833   3.509   1.224   9.278 -0.9164  1.1968  2.2103
   98OSM   C15F 9834   3.697   1.210   9.182 -0.5649 -0.5848 -0.6516
   98OSM   H15F 9835   3.680   1.101   9.182  2.2417 -1.1142  1.5702
   98OSM   H15G 9836   3.805   1.218   9.208 -0.9208  0.8865  0.5587
   98OSM   C16F 9837   3.660   1.279   9.051 -0.1840 -1.1758  0.3685
   98OSM   H16F 9838   3.656   1.389   9.059 -0.3784 -1.3090  2.8607
   98OSM   H16G 9839   3.560   1.251   9.010  0.4710 -0.4790 -1.8677
   98OSM   C17F 9840   3.756   1.240   8.936  0.5601  0.5124 -0.6381
   98OSM   H17F 9841   3.707   1.276   8.843 -0.5214 -1.1146 -0.7484
   98OSM   H17G 9842   3.755   1.129   8.933 -0.9584  0.4885 -0.2724
   98OSM   C18F 9843   3.900   1.291   8.936 -0.1264 -0.6860 -0.0440
   98OSM   H18F 9844   3.896   1.402   8.942 -0.4950 -0.7357  0.9373
   98OSM   H18G 9845   3.949   1.256   8.844 -1.1868 -1.2219 -0.4206
   98OSM   H18H 9846   3.953   1.257   9.028 -1.3899  0.1265  1.0387
   99OSM      N 9847   4.706   1.649  11.175  0.2719 -0.1568 -0.0527
   99OSM    C15 9848   4.824   1.730  11.193 -0.4001 -0.5210 -0.1487
   99OSM   H15A 9849   4.914   1.696  11.145 -0.6230 -0.4860 -0.5928
   99OSM   H15B 9850   4.849   1.728  11.298 -0.4142  1.6002 -0.0613
   99OSM   H15C 9851   4.805   1.832  11.164 -0.3835 -0.5359 -0.2119
   99OSM    C14 9852   4.731   1.511  11.229 -0.3216  0.3327 -0.2792
   99OSM   H14A 9853   4.769   1.513  11.331  1.0708  3.3736 -0.7357
   99OSM   H14B 9854   4.807   1.458  11.174 -0.7866  2.5714 -3.3332
   99OSM   H14C 9855   4.638   1.457  11.227 -0.7809  1.0743  0.1500
   99OSM    C13 9856   4.602   1.710  11.258 -0.5345 -0.9422 -0.0915
   99OSM   H13A 9857   4.558   1.798  11.215 -2.8241 -1.8113  0.3412
   99OSM   H13B 9858   4.633   1.729  11.360 -0.1655  0.1864 -0.3967
   99OSM   H13C 9859   4.515   1.646  11.264 -0.8404 -0.4294  2.0814
   99OSM    C12 9860   4.661   1.637  11.025  0.2187 -0.1608 -0.7838
   99OSM   H12A 9861   4.590   1.715  11.001 -2.2855 -0.5812  3.9691
   99OSM   H12B 9862   4.595   1.551  11.023 -1.1281  0.7642  0.8114
   99OSM    C11 9863   4.782   1.639  10.923 -0.0035  0.1132 -0.5226
   99OSM   H11A 9864   4.733   1.600  10.832 -1.1877 -1.5969  0.7907
   99OSM   H11B 9865   4.853   1.560  10.955 -1.9894 -1.0038  1.4379
   99OSM      P 9866   4.974   1.772  10.824  0.0895  0.2677  0.1832
   99OSM    O13 9867   5.013   1.913  10.802  0.1833  0.1999  0.2949
   99OSM    O14 9868   5.077   1.680  10.885 -0.2590  0.0041 -0.1755
   99OSM    O11 9869   4.925   1.702  10.685  0.1934  0.6709  0.0485
   99OSM    O12 9870   4.843   1.766  10.899  0.3516  0.4328 -0.2803
   99OSM    C1S 9871   4.825   1.761  10.606 -0.8959  0.2869  0.1184
   99OSM    H1S 9872   4.834   1.871  10.609  1.7166  0.2233 -1.8310
   99OSM    H1T 9873   4.718   1.738  10.624 -0.2917 -2.2939  0.8885
   99OSM     NF 9874   4.736   1.780  10.358 -0.2496  0.1507  0.0039
   99OSM    HNF 9875   4.672   1.724  10.306 -0.5803  0.0330  0.5237
   99OSM    C2S 9876   4.843   1.717  10.448  0.3588  0.0123 -0.1312
   99OSM    H2S 9877   4.941   1.760  10.416  0.0587 -0.8645 -2.3899
   99OSM    C3S 9878   4.852   1.566  10.439 -0.7327  0.4858  0.0290
   99OSM    H3S 9879   4.751   1.535  10.475 -0.9287  0.8667 -0.1946
   99OSM     O3 9880   4.952   1.496  10.517  0.4525 -0.1807  0.3393
   99OSM    HO3 9881   4.978   1.566  10.578  1.6544 -0.4223  0.1274
   99OSM    C4S 9882   4.866   1.518  10.296 -0.5327  0.9627  1.0534
   99OSM    H4S 9883   4.944   1.571  10.239  0.8595 -1.4202  0.6313
   99OSM    C5S 9884   4.796   1.422  10.233 -0.3159 -0.2941  0.5214
   99OSM    H5S 9885   4.710   1.371  10.279  0.3487 -1.4147  0.5485
   99OSM    C6S 9886   4.819   1.377  10.093  0.1208 -0.0279 -0.7144
   99OSM    H6S 9887   4.721   1.370  10.041 -0.5181 -2.3921  0.6789
   99OSM    H6T 9888   4.835   1.267  10.102 -1.1684 -0.3634 -2.0888
   99OSM    C7S 9889   4.932   1.440  10.003  0.5960  0.1970  0.3634
   99OSM    H7S 9890   5.030   1.417  10.051 -0.2385 -5.3270  0.0208
   99OSM    H7T 9891   4.906   1.548   9.996 -2.1545 -0.2801  1.8364
   99OSM    C8S 9892   4.949   1.380   9.865  0.4821  0.3249 -0.3964
   99OSM    H8S 9893   4.855   1.388   9.808  0.4804 -0.2642 -0.4897
   99OSM    H8T 9894   4.975   1.273   9.884  1.2756  0.7089  0.8435
   99OSM    C9S 9895   5.056   1.452   9.797  0.7138  0.8267  0.2170
   99OSM    H9S 9896   5.158   1.454   9.839  0.7409 -0.0901  0.2043
   99OSM    H9T 9897   5.026   1.557   9.773 -2.2660 -0.0988 -0.6009
   99OSM   C10S 9898   5.074   1.378   9.653  0.1232  0.1312 -0.2783
   99OSM   H10S 9899   4.981   1.398   9.595  0.1233 -0.6905 -0.5773
   99OSM   H10T 9900   5.081   1.269   9.673  2.3832  0.2715 -0.1287
   99OSM   C11S 9901   5.197   1.428   9.580 -0.1672  0.6393  0.0564
   99OSM   H11S 9902   5.288   1.371   9.608 -0.1216 -0.2535 -1.8193
   99OSM   H11T 9903   5.221   1.531   9.615  1.1545  0.6142 -0.7250
   99OSM   C12S 9904   5.201   1.426   9.425  0.4797  0.0903 -0.3872
   99OSM   H12S 9905   5.240   1.324   9.404 -0.1021 -0.8805  2.7260
   99OSM   H12T 9906   5.099   1.435   9.382  0.4032  1.8309  0.0831
   99OSM   C13S 9907   5.287   1.541   9.359  0.5574 -0.2897  0.2226
   99OSM   H13S 9908   5.391   1.537   9.397  0.7212 -2.2161 -0.2748
   99OSM   H13T 9909   5.241   1.640   9.376  1.7055  0.5075 -1.1096
   99OSM   C14S 9910   5.282   1.520   9.208 -0.8905  0.0455 -1.4142
   99OSM   H14S 9911   5.179   1.498   9.173 -0.6683  4.1967 -5.6428
   99OSM   H14T 9912   5.344   1.433   9.178 -2.9396 -2.0602  0.0809
   99OSM   C15S 9913   5.342   1.639   9.138 -0.4845 -0.2476 -0.6216
   99OSM   H15S 9914   5.440   1.659   9.187 -0.4449 -2.7896  0.5021
   99OSM   H15T 9915   5.271   1.724   9.150 -0.8453 -0.4671 -1.1502
   99OSM   C16S 9916   5.343   1.619   8.987 -0.0622 -0.3502  0.6814
   99OSM   H16S 9917   5.239   1.612   8.950  0.8938  1.3036 -2.7712
   99OSM   H16T 9918   5.411   1.536   8.958  1.5361  0.5742  1.6197
   99OSM   C17S 9919   5.400   1.744   8.919 -0.3374  0.0345 -0.2717
   99OSM   H17S 9920   5.496   1.764   8.971 -1.6948 -0.6515  2.7115
   99OSM   H17T 9921   5.324   1.825   8.919  0.1969  0.5817 -2.2735
   99OSM   C18S 9922   5.427   1.729   8.771  0.4231  0.6750  0.0185
   99OSM   H18S 9923   5.493   1.642   8.755 -1.6269 -0.9394 -0.0748
   99OSM   H18T 9924   5.460   1.824   8.724  1.8001  0.2288  0.0544
   99OSM   H18U 9925   5.327   1.703   8.732 -0.5231  2.8211  0.8303
   99OSM    C1F 9926   4.730   1.913  10.346 -0.4691  0.2644  1.1033
   99OSM     OF 9927   4.822   1.980  10.392 -0.1962 -0.0151  0.3278
   99OSM    C2F 9928   4.612   1.979  10.287  0.3093  0.0053  0.3973
   99OSM    H2F 9929   4.578   2.055  10.361  0.4015  0.4132  0.0288
   99OSM    H2G 9930   4.528   1.909  10.267  1.2789 -0.9231 -0.5633
   99OSM    C3F 9931   4.644   2.055  10.164 -0.1733 -0.1190  0.1741
   99OSM    H3F 9932   4.744   2.103  10.169  0.3672 -0.6541 -3.0421
   99OSM    H3G 9933   4.650   1.987  10.076 -1.9645  1.4733 -1.2703
   99OSM    C4F 9934   4.558   2.163  10.125 -0.0983 -0.1837 -0.1201
   99OSM    H4F 9935   4.612   2.240  10.066  0.8865 -0.7622  0.0147
   99OSM    H4G 9936   4.519   2.215  10.214  3.0261  0.8460  0.7617
   99OSM    C5F 9937   4.442   2.110  10.038 -0.5908 -0.6197  0.4460
   99OSM    H5F 9938   4.391   2.028  10.092 -2.1939 -0.5935 -0.9510
   99OSM    H5G 9939   4.491   2.065   9.950 -0.0845  0.8546 -0.0631
   99OSM    C6F 9940   4.355   2.212   9.978 -0.2770 -0.3839  0.1210
   99OSM    H6F 9941   4.411   2.282   9.912  0.7680 -3.9287 -3.1636
   99OSM    H6G 9942   4.323   2.285  10.056  0.3493 -0.6597  0.6411
   99OSM    C7F 9943   4.242   2.146   9.901  0.6404 -0.2026 -0.6868
   99OSM    H7F 9944   4.279   2.078   9.821  0.4850 -0.3793 -0.6109
   99OSM    H7G 9945   4.188   2.222   9.841 -2.2527 -2.0822 -0.7144
   99OSM    C8F 9946   4.151   2.066   9.988  0.5278  0.6140  0.6841
   99OSM    H8F 9947   4.122   2.110  10.086  0.2612  1.0211  0.4245
   99OSM    H8G 9948   4.202   1.971  10.014  1.8546  0.9387 -0.5493
   99OSM    C9F 9949   4.021   2.027   9.916 -0.4127 -0.8725 -0.4339
   99OSM    H9F 9950   3.941   2.099   9.941  0.8285  1.2074 -2.1311
   99OSM   C10F 9951   4.007   1.940   9.815 -0.0058 -0.4296 -0.3941
   99OSM   H10F 9952   3.905   1.928   9.774 -0.7553  0.1144  1.1933
   99OSM   C11F 9953   4.108   1.856   9.752 -0.8542 -1.2632 -0.0975
   99OSM   H11F 9954   4.072   1.751   9.748 -2.7604 -0.6320 -0.6633
   99OSM   H11G 9955   4.199   1.867   9.815  0.1182  1.0084 -1.7565
   99OSM   C12F 9956   4.140   1.921   9.615 -0.0591  0.1411  0.5170
   99OSM   H12F 9957   4.138   2.032   9.622 -0.2846  0.1399  0.4990
   99OSM   H12G 9958   4.060   1.877   9.551 -0.9922  1.6028  0.6132
   99OSM   C13F 9959   4.275   1.874   9.565 -0.2629 -0.1297  0.4014
   99OSM   H13F 9960   4.250   1.769   9.536 -0.4482  0.2885 -1.0685
   99OSM   H13G 9961   4.351   1.873   9.645 -0.4930 -0.2598  0.6188
   99OSM   C14F 9962   4.324   1.962   9.447 -0.1208 -0.2944  0.7720
   99OSM   H14F 9963   4.248   1.964   9.367  0.2240  0.0286  0.4490
   99OSM   H14G 9964   4.413   1.908   9.408 -0.7040  1.0040 -2.6588
   99OSM   C15F 9965   4.372   2.105   9.493  0.2667  0.5178  0.1278
   99OSM   H15F 9966   4.287   2.153   9.548  0.4010  1.3368 -0.3548
   99OSM   H15G 9967   4.394   2.172   9.407 -1.8118  1.1393  0.0265
   99OSM   C16F 9968   4.496   2.113   9.595 -0.9628 -0.1582  0.0446
   99OSM   H16F 9969   4.565   2.031   9.565 -1.4405 -0.7143  0.4673
   99OSM   H16G 9970   4.461   2.106   9.700  0.4798  0.3447  0.5949
   99OSM   C17F 9971   4.581   2.250   9.593  0.4263 -0.9627  0.7220
   99OSM   H17F 9972   4.518   2.318   9.653  0.4649  0.3250 -0.6436
   99OSM   H17G 9973   4.571   2.292   9.491 -3.0593  0.7888  1.6259
   99OSM   C18F 9974   4.719   2.245   9.656 -0.3743 -0.9883  0.0124
   99OSM   H18F 9975   4.707   2.202   9.758  0.5896 -1.2534  0.0232
   99OSM   H18G 9976   4.766   2.344   9.680 -0.1005 -0.3611 -2.7942
   99OSM   H18H 9977   4.795   2.193   9.594 -1.1692  0.3405 -2.1815
  100OSM      N 9978   0.653   4.914  10.493 -0.0076  0.9635  0.0147
  100OSM    C15 9979   0.720   4.869  10.368  0.4225 -0.2094 -0.9349
  100OSM   H15A 9980   0.817   4.830  10.396  0.8558  0.0070 -2.0575
  100OSM   H15B 9981   0.737   4.944  10.292 -2.6744  1.4037 -0.2029
  100OSM   H15C 9982   0.663   4.791  10.319 -1.3400 -0.2533  1.0303
  100OSM    C14 9983   0.528   4.986  10.453  0.0841  1.0277 -0.4242
  100OSM   H14A 9984   0.550   5.067  10.385  3.2388 -0.7769 -1.7952
  100OSM   H14B 9985   0.474   5.018  10.541  2.6478 -1.4556  2.2983
  100OSM   H14C 9986   0.461   4.918  10.404 -0.5810  2.1602 -1.1337
  100OSM    C13 9987   0.625   4.803  10.588  0.2576 -0.2472 -0.1815
  100OSM   H13A 9988   0.549   4.737  10.549 -0.7621 -0.0338  1.3378
  100OSM   H13B 9989   0.580   4.841  10.679  0.6263 -4.5863  2.1032
  100OSM   H13C 9990   0.704   4.734  10.614 -0.4219 -0.6773  0.8029
  100OSM    C12 9991   0.746   5.013  10.564 -0.0910 -0.3755  0.5485
  100OSM   H12A 9992   0.842   4.963  10.567 -0.8115 -2.0246 -1.3885
  100OSM   H12B 9993   0.710   5.033  10.664 -0.8580 -1.5560  0.5212
  100OSM    C11 9994   0.776   5.150  10.497  0.7475 -0.1095  0.4356
  100OSM   H11A 9995   0.689   5.218  10.510  1.0350  0.0576  1.5919
  100OSM   H11B 9996   0.780   5.141  10.386 -2.0641  0.6624  0.2028
  100OSM      P 9997   1.041   5.145  10.526  0.1361 -0.4005  0.2431
  100OSM    O13 9998   1.130   5.232  10.599  0.5948 -0.0543 -0.0975
  100OSM    O14 9999   1.035   5.004  10.572 -0.6376  0.0162 -0.0699
  100OSM    O1110000   1.080   5.147  10.363  0.4931  0.3487 -0.0299
  100OSM    O1210001   0.895   5.209  10.543 -0.1677  0.7551  0.3945
  100OSM    C1S10002   1.082   5.269  10.289  0.9103  0.8415  0.0410
  100OSM    H1S10003   1.179   5.322  10.300  0.0783  2.3567  0.3409
  100OSM    H1T10004   1.008   5.340  10.331  0.6640  0.8617 -0.4239
  100OSM     NF10005   1.031   5.369  10.064 -0.7637  0.2435  0.2689
  100OSM    HNF10006   0.946   5.421  10.064 -0.9382  0.0293  1.8203
  100OSM    C2S10007   1.034   5.241  10.135 -0.3438 -0.0737  0.3761
  100OSM    H2S10008   1.116   5.188  10.082  0.8997  0.5587  1.6229
  100OSM    C3S10009   0.897   5.159  10.125 -0.4770  0.0683 -0.6196
  100OSM    H3S10010   0.821   5.218  10.180  0.4158  1.1664 -0.5270
  100OSM     O310011   0.901   5.032  10.188  0.1260 -0.2836  0.6910
  100OSM    HO310012   0.978   5.036  10.245  0.8883 -3.9539  0.1605
  100OSM    C4S10013   0.859   5.146   9.975 -0.5570 -0.5509  0.1604
  100OSM    H4S10014   0.907   5.058   9.929  1.9791  0.3734  0.8739
  100OSM    C5S10015   0.755   5.207   9.915 -0.4483 -0.3637 -0.3947
  100OSM    H5S10016   0.689   5.282   9.960  1.6810  1.0935  0.4496
  100OSM    C6S10017   0.721   5.172   9.779 -0.1583  0.2556 -0.6902
  100OSM    H6S10018   0.610   5.168   9.768 -0.4278  1.1995  1.1942
  100OSM    H6T10019   0.757   5.072   9.746  1.5547  0.2744  0.9646
  100OSM    C7S10020   0.770   5.275   9.670  0.7437  0.0107 -0.8138
  100OSM    H7S10021   0.879   5.294   9.673  0.3822  2.3409 -0.4028
  100OSM    H7T10022   0.725   5.375   9.691  1.2025  0.0686 -0.0717
  100OSM    C8S10023   0.730   5.219   9.532  1.0793 -0.0473 -0.7010
  100OSM    H8S10024   0.622   5.193   9.535  1.1645 -0.2945  1.3054
  100OSM    H8T10025   0.775   5.121   9.507  0.3597 -0.4631 -0.3821
  100OSM    C9S10026   0.742   5.320   9.419  0.4367  0.1217 -0.1179
  100OSM    H9S10027   0.843   5.364   9.427  0.5149 -0.3210  1.7115
  100OSM    H9T10028   0.665   5.397   9.443 -2.7553 -3.3578  1.9151
  100OSM   C10S10029   0.716   5.262   9.273  0.1110 -0.0838  0.0795
  100OSM   H10S10030   0.772   5.169   9.254  1.5875  0.6454  0.7390
  100OSM   H10T10031   0.729   5.334   9.190  1.2019  0.6055  0.8265
  100OSM   C11S10032   0.567   5.225   9.256  0.7898 -0.6396 -0.2935
  100OSM   H11S10033   0.503   5.311   9.284 -1.3255 -1.5747 -1.9265
  100OSM   H11T10034   0.550   5.136   9.321  1.0876 -0.0417  0.6302
  100OSM   C12S10035   0.536   5.193   9.116 -0.7529  0.2091  0.1892
  100OSM   H12S10036   0.534   5.084   9.092 -1.7877 -0.3972  2.7562
  100OSM   H12T10037   0.619   5.237   9.057  0.3493 -1.5088  0.3715
  100OSM   C13S10038   0.408   5.254   9.068  0.1721 -0.5381 -0.1817
  100OSM   H13S10039   0.429   5.363   9.065 -2.3826 -0.0075 -1.1751
  100OSM   H13T10040   0.324   5.248   9.140  1.1553 -0.3674  1.0179
  100OSM   C14S10041   0.363   5.202   8.928 -0.2411 -0.5228 -0.0685
  100OSM   H14S10042   0.344   5.093   8.935  2.0890 -0.9079  1.4567
  100OSM   H14T10043   0.446   5.221   8.858 -2.0404  1.3206 -1.8284
  100OSM   C15S10044   0.237   5.261   8.876 -0.0690 -0.1384  0.5249
  100OSM   H15S10045   0.255   5.370   8.883 -0.5562 -0.0381  0.3062
  100OSM   H15T10046   0.152   5.238   8.943 -0.4783 -1.5217 -0.4198
  100OSM   C16S10047   0.191   5.227   8.735  0.0352 -1.1238 -1.1080
  100OSM   H16S10048   0.270   5.268   8.667  3.0018 -3.0034  0.9375
  100OSM   H16T10049   0.105   5.294   8.714  0.3159 -0.2248  0.4915
  100OSM   C17S10050   0.184   5.073   8.716  0.7037  0.2724  0.1918
  100OSM   H17S10051   0.095   5.037   8.771  0.8143 -1.7742 -0.9072
  100OSM   H17T10052   0.253   5.019   8.784  0.8702  0.5085  0.2113
  100OSM   C18S10053   0.215   5.031   8.578  0.2877  0.5837 -0.4437
  100OSM   H18S10054   0.242   4.923   8.570 -2.4141 -0.0445 -3.4262
  100OSM   H18T10055   0.300   5.088   8.535 -1.4294  1.4367 -2.9720
  100OSM   H18U10056   0.144   5.040   8.492 -1.2871 -1.7038  0.5009
  100OSM    C1F10057   1.140   5.442  10.042 -0.9412 -0.1500  0.8655
  100OSM     OF10058   1.254   5.411  10.071 -0.1749  0.5777 -0.1727
  100OSM    C2F10059   1.114   5.582   9.993 -0.5933  0.3812  0.5730
  100OSM    H2F10060   1.164   5.660  10.054  2.1739 -0.5140 -0.4142
  100OSM    H2G10061   1.006   5.608   9.984 -1.0796 -2.0208 -1.7570
  100OSM    C3F10062   1.177   5.598   9.855 -0.0777 -0.4732 -0.7182
  100OSM    H3F10063   1.288   5.588   9.863  0.1507  1.0880 -1.4888
  100OSM    H3G10064   1.153   5.702   9.826  1.1955  0.3707  1.0886
  100OSM    C4F10065   1.128   5.497   9.751 -0.5560 -0.3047  0.2755
  100OSM    H4F10066   1.030   5.466   9.793 -0.9438 -0.3565 -0.6485
  100OSM    H4G10067   1.195   5.408   9.751  1.5827  1.2327 -0.2426
  100OSM    C5F10068   1.120   5.555   9.615 -0.5877  0.6019  0.5063
  100OSM    H5F10069   1.212   5.617   9.608 -1.0910  1.1854 -1.5863
  100OSM    H5G10070   1.037   5.628   9.623 -0.7102  0.8322 -2.0086
  100OSM    C6F10071   1.115   5.455   9.504 -0.1432 -0.0299  0.0421
  100OSM    H6F10072   1.045   5.383   9.552 -1.3354  1.8403  1.2481
  100OSM    H6G10073   1.211   5.399   9.493  0.2803  0.5908  0.4445
  100OSM    C7F10074   1.061   5.513   9.380 -0.3176  0.0277  0.5288
  100OSM    H7F10075   1.116   5.608   9.360  0.8599 -0.8249 -0.4742
  100OSM    H7G10076   0.959   5.549   9.403  0.8964  3.9167  0.5335
  100OSM    C8F10077   1.080   5.418   9.256  0.5262  0.2439 -0.8752
  100OSM    H8F10078   1.007   5.338   9.282  1.7289 -0.5928  0.0771
  100OSM    H8G10079   1.176   5.364   9.265  0.1785 -0.2337  0.2077
  100OSM    C9F10080   1.053   5.496   9.125  0.1726  0.0783  0.5317
  100OSM    H9F10081   1.068   5.605   9.126 -1.6201  0.3880 -0.8475
  100OSM   C10F10082   1.004   5.433   9.020  0.1064  0.1373  0.1691
  100OSM   H10F10083   0.997   5.490   8.926 -2.8756 -0.1352  0.1240
  100OSM   C11F10084   0.971   5.283   9.008 -0.3618  0.4285  0.1122
  100OSM   H11F10085   0.866   5.250   8.992  0.2829 -0.1629 -4.0767
  100OSM   H11G10086   0.998   5.223   9.098 -0.9545  1.2390  0.8460
  100OSM   C12F10087   1.046   5.230   8.885  0.5949  0.2964  0.5151
  100OSM   H12F10088   0.997   5.282   8.799 -0.6955 -0.6297  0.6569
  100OSM   H12G10089   1.021   5.123   8.871 -0.9687  0.7922 -0.7633
  100OSM   C13F10090   1.195   5.239   8.882 -0.3649  0.7371  0.1401
  100OSM   H13F10091   1.247   5.228   8.980  0.6724 -0.6046 -0.5331
  100OSM   H13G10092   1.217   5.341   8.843  1.4233  0.5692  0.6346
  100OSM   C14F10093   1.261   5.147   8.783  0.2557 -0.5133  0.1166
  100OSM   H14F10094   1.224   5.159   8.678 -0.6381 -1.0683  0.3575
  100OSM   H14G10095   1.243   5.040   8.807  0.8126 -0.3005  1.5977
  100OSM   C15F10096   1.407   5.170   8.775  0.0322  0.0387  0.5898
  100OSM   H15F10097   1.474   5.101   8.718 -1.0314 -2.1003  1.8181
  100OSM   H15G10098   1.453   5.176   8.876  0.1117  0.8921  0.5102
  100OSM   C16F10099   1.448   5.298   8.703 -0.2819 -0.1927  0.1450
  100OSM   H16F10100   1.379   5.377   8.738 -0.6973 -0.1030 -0.8523
  100OSM   H16G10101   1.416   5.293   8.597 -0.8124 -0.7845  0.3273
  100OSM   C17F10102   1.594   5.330   8.721 -0.0167 -0.1771  0.1861
  100OSM   H17F10103   1.644   5.270   8.641 -1.6054 -0.5325 -0.5920
  100OSM   H17G10104   1.632   5.308   8.823  0.9067 -4.9359 -0.9253
  100OSM   C18F10105   1.628   5.481   8.705 -0.0589  0.2149  0.5640
  100OSM   H18F10106   1.701   5.520   8.779 -0.9702  1.6776  0.7279
  100OSM   H18G10107   1.533   5.538   8.712  0.3949  1.0729 -0.0382
  100OSM   H18H10108   1.661   5.507   8.602 -3.5612  2.0149 -0.2640
  101OSM      N10109   3.332   1.784  10.659 -0.0086  0.1167  0.3977
  101OSM    C1510110   3.328   1.868  10.536  0.5263 -0.7009 -0.0105
  101OSM   H15A10111   3.426   1.877  10.491  0.7615  1.4053  0.7934
  101OSM   H15B10112   3.307   1.971  10.560  1.2393 -0.7266  0.7747
  101OSM   H15C10113   3.251   1.837  10.466  0.0226  1.3754 -0.4497
  101OSM    C1410114   3.195   1.746  10.691 -0.3985  0.2949 -0.6839
  101OSM   H14A10115   3.136   1.828  10.729  0.7619 -0.2131  2.5215
  101OSM   H14B10116   3.194   1.673  10.772  0.8936  0.5666 -0.3977
  101OSM   H14C10117   3.141   1.701  10.610 -1.7960  0.4570  0.1215
  101OSM    C1310118   3.418   1.670  10.616  0.4438  0.6880  0.2141
  101OSM   H13A10119   3.502   1.700  10.555 -0.9330 -0.3259 -2.3089
  101OSM   H13B10120   3.367   1.593  10.560  1.0296  0.9914 -0.7716
  101OSM   H13C10121   3.457   1.618  10.702 -1.6468 -0.5521  0.4680
  101OSM    C1210122   3.397   1.859  10.774  0.5424 -0.3372  0.0041
  101OSM   H12A10123   3.332   1.945  10.785  0.1838 -0.5698 -0.2799
  101OSM   H12B10124   3.492   1.905  10.750  0.5498 -0.4371 -0.1596
  101OSM    C1110125   3.421   1.782  10.913 -0.0891 -0.3082  0.7809
  101OSM   H11A10126   3.322   1.753  10.953 -0.2771 -2.4185 -1.0122
  101OSM   H11B10127   3.464   1.857  10.983  0.4126 -0.8066  1.0179
  101OSM      P10128   3.655   1.657  10.915  0.0309 -0.2380  0.1173
  101OSM    O1310129   3.685   1.670  11.062 -0.0944 -0.1523 -0.0639
  101OSM    O1410130   3.712   1.537  10.853 -0.0433  0.0746 -0.3706
  101OSM    O1110131   3.696   1.783  10.822 -0.4669 -0.1781  0.1272
  101OSM    O1210132   3.498   1.659  10.893 -0.2805 -0.3308  0.4462
  101OSM    C1S10133   3.755   1.767  10.691 -1.1668 -0.1505 -0.8663
  101OSM    H1S10134   3.709   1.681  10.638  0.4961 -2.5015  1.2354
  101OSM    H1T10135   3.864   1.748  10.697 -0.6102  2.1904 -2.1995
  101OSM     NF10136   3.777   1.894  10.472  0.1675  0.2155 -0.6534
  101OSM    HNF10137   3.869   1.925  10.448  1.0433  0.1243  2.1638
  101OSM    C2S10138   3.739   1.901  10.616 -0.8186 -0.1084  0.3583
  101OSM    H2S10139   3.631   1.921  10.633 -1.0013 -2.2976  2.3480
  101OSM    C3S10140   3.836   2.005  10.691 -0.1789  0.4059 -0.2328
  101OSM    H3S10141   3.940   1.977  10.663 -0.1930 -0.2585  0.3580
  101OSM     O310142   3.822   2.006  10.838 -0.8221 -0.3323  0.9633
  101OSM    HO310143   3.759   1.935  10.854 -1.2764 -1.0106 -2.9233
  101OSM    C4S10144   3.813   2.139  10.637  0.1951 -0.0471  0.1637
  101OSM    H4S10145   3.713   2.183  10.647  0.6819  1.5864 -1.5288
  101OSM    C5S10146   3.902   2.223  10.580  0.2062  0.7163 -1.3600
  101OSM    H5S10147   4.004   2.181  10.573 -0.8213 -2.0431 -0.8737
  101OSM    C6S10148   3.875   2.358  10.524 -0.8767  0.1198  0.1725
  101OSM    H6S10149   3.955   2.425  10.562  0.6053 -1.6772  0.2987
  101OSM    H6T10150   3.783   2.400  10.572  0.3130  1.9286  0.9908
  101OSM    C7S10151   3.876   2.371  10.375  0.0016 -0.4085 -0.3559
  101OSM    H7S10152   3.847   2.474  10.343 -1.3426 -0.4558  0.6008
  101OSM    H7T10153   3.796   2.306  10.334 -0.9129  0.2679  0.3002
  101OSM    C8S10154   4.011   2.346  10.306 -0.1133  1.0474  0.3610
  101OSM    H8S10155   4.018   2.236  10.305 -0.1331  1.0442  0.5774
  101OSM    H8T10156   4.110   2.378  10.346  0.3532  1.6924 -1.2406
  101OSM    C9S10157   4.005   2.399  10.165 -0.4792  0.0841  0.2497
  101OSM    H9S10158   3.899   2.393  10.135 -0.5517 -0.5630  0.6170
  101OSM    H9T10159   4.065   2.338  10.095  0.0959  0.2893  0.5537
  101OSM   C10S10160   4.070   2.543  10.150 -0.2071  0.6596 -0.2935
  101OSM   H10S10161   4.175   2.529  10.183 -0.1805 -1.0278 -0.9611
  101OSM   H10T10162   4.010   2.613  10.211  2.6308  1.1043  2.2058
  101OSM   C11S10163   4.075   2.597  10.004  0.3512 -0.2498  0.4272
  101OSM   H11S10164   4.116   2.698  10.021  0.8648 -0.5533  1.0189
  101OSM   H11T10165   3.971   2.604   9.966 -0.1633 -0.4788  1.7359
  101OSM   C12S10166   4.156   2.515   9.905 -0.1518  0.0724 -0.3798
  101OSM   H12S10167   4.103   2.419   9.885 -0.5808  0.1912  0.1714
  101OSM   H12T10168   4.255   2.485   9.946 -1.0177  0.4638  2.1894
  101OSM   C13S10169   4.182   2.602   9.778 -0.2030  0.5250 -0.4157
  101OSM   H13S10170   4.234   2.694   9.812  0.6223 -0.4717  1.1719
  101OSM   H13T10171   4.086   2.628   9.729  1.0176  2.0893 -2.0970
  101OSM   C14S10172   4.269   2.524   9.679  0.3140 -0.0699 -0.1478
  101OSM   H14S10173   4.215   2.429   9.658 -0.1602 -0.2800  1.7761
  101OSM   H14T10174   4.364   2.500   9.732 -0.2264 -1.0323  0.4265
  101OSM   C15S10175   4.297   2.602   9.556 -0.8088  0.1566  0.2797
  101OSM   H15S10176   4.325   2.706   9.584  0.4309 -0.0085 -0.2689
  101OSM   H15T10177   4.207   2.601   9.492  0.3752  0.1037 -1.4451
  101OSM   C16S10178   4.420   2.551   9.466 -0.4488 -0.3352  0.2407
  101OSM   H16S10179   4.409   2.443   9.443  1.9318 -0.3541 -1.1072
  101OSM   H16T10180   4.505   2.559   9.537 -0.4330  1.9156  0.0440
  101OSM   C17S10181   4.458   2.651   9.354  0.6661  0.2181 -0.1665
  101OSM   H17S10182   4.539   2.605   9.293 -0.7811  0.8483 -2.6828
  101OSM   H17T10183   4.491   2.745   9.404  2.9865  0.4352 -1.9111
  101OSM   C18S10184   4.339   2.692   9.263 -0.1111  0.1183  0.3150
  101OSM   H18S10185   4.291   2.603   9.217  0.2854 -0.6505  1.3530
  101OSM   H18T10186   4.371   2.754   9.177  0.0252  0.9590  0.9574
  101OSM   H18U10187   4.258   2.748   9.315 -1.3420 -0.0972 -1.2843
  101OSM    C1F10188   3.696   1.848  10.380 -0.1361  0.1916 -0.2159
  101OSM     OF10189   3.582   1.811  10.402 -0.2234  0.3162 -0.2602
  101OSM    C2F10190   3.765   1.842  10.248  0.2842  0.4375  0.0780
  101OSM    H2F10191   3.864   1.793  10.245  0.0904  0.0800 -1.0114
  101OSM    H2G10192   3.768   1.947  10.211  1.6902  0.8424  1.2518
  101OSM    C3F10193   3.669   1.770  10.144 -0.1636 -0.7795 -0.2777
  101OSM    H3F10194   3.568   1.816  10.148  0.6088  0.9964  3.2845
  101OSM    H3G10195   3.640   1.666  10.172 -1.7150 -1.0171 -2.5407
  101OSM    C4F10196   3.711   1.770   9.992  1.0298 -0.2096 -0.0197
  101OSM    H4F10197   3.821   1.753   9.986  1.3698  2.1312 -2.5446
  101OSM    H4G10198   3.687   1.868   9.945  1.0901  0.3729  1.1198
  101OSM    C5F10199   3.652   1.665   9.902  0.4024 -0.4259 -0.1948
  101OSM    H5F10200   3.542   1.656   9.918  0.4183 -0.7766 -0.2674
  101OSM    H5G10201   3.691   1.574   9.953 -0.4440 -0.7952 -0.1813
  101OSM    C6F10202   3.698   1.663   9.755 -0.7659  0.0760 -0.1018
  101OSM    H6F10203   3.808   1.679   9.760 -0.4901 -1.8746  1.0031
  101OSM    H6G10204   3.673   1.558   9.726 -0.6228 -0.4288  1.4976
  101OSM    C7F10205   3.629   1.768   9.665 -0.8561  0.0661 -0.3253
  101OSM    H7F10206   3.679   1.862   9.696 -0.9235 -0.1971  0.6266
  101OSM    H7G10207   3.523   1.774   9.696 -0.6846  1.2397  0.0715
  101OSM    C8F10208   3.638   1.755   9.514 -0.6350  0.0312 -0.6402
  101OSM    H8F10209   3.587   1.843   9.469 -0.4796  0.6066  0.2703
  101OSM    H8G10210   3.573   1.668   9.490 -0.4428 -0.8281  1.6801
  101OSM    C9F10211   3.782   1.737   9.469  0.1046  0.9496 -1.0241
  101OSM    H9F10212   3.851   1.693   9.544 -2.7324  1.2416  2.0094
  101OSM   C10F10213   3.821   1.770   9.348 -0.3379  0.0604  0.4846
  101OSM   H10F10214   3.920   1.735   9.314  0.7134  2.1806  1.1952
  101OSM   C11F10215   3.739   1.818   9.231 -0.1346 -0.2382 -0.2479
  101OSM   H11F10216   3.779   1.915   9.196 -0.9163 -0.7399 -2.7002
  101OSM   H11G10217   3.633   1.831   9.262  0.4399  1.0282  1.3482
  101OSM   C12F10218   3.749   1.708   9.120  0.4783 -0.2833 -0.1326
  101OSM   H12F10219   3.673   1.635   9.154 -0.1720  0.2034 -0.5100
  101OSM   H12G10220   3.846   1.653   9.117  0.1262 -0.8918 -0.7341
  101OSM   C13F10221   3.717   1.757   8.980  0.1827  0.2627  0.2158
  101OSM   H13F10222   3.611   1.792   8.974  0.4108  1.3205  1.6694
  101OSM   H13G10223   3.731   1.671   8.912  1.7270  0.2802  0.4881
  101OSM   C14F10224   3.805   1.869   8.930  0.2818 -0.2012 -0.8138
  101OSM   H14F10225   3.898   1.869   8.993  0.8661  2.1808 -1.5850
  101OSM   H14G10226   3.755   1.960   8.969 -1.5828 -1.2981 -0.5192
  101OSM   C15F10227   3.833   1.872   8.780 -0.4595 -0.5276  0.4315
  101OSM   H15F10228   3.740   1.856   8.721 -0.2454  1.6857 -0.5939
  101OSM   H15G10229   3.901   1.785   8.762  0.8167  0.7979 -1.6035
  101OSM   C16F10230   3.902   2.000   8.734  0.4805  0.6104  0.2761
  101OSM   H16F10231   3.832   2.086   8.735  0.6177  0.7494 -0.7394
  101OSM   H16G10232   3.934   1.979   8.630 -2.9774 -2.4715 -0.3636
  101OSM   C17F10233   4.028   2.036   8.816  0.7739 -0.0576  0.0170
  101OSM   H17F10234   4.092   1.946   8.822  0.3593 -0.3359  0.3589
  101OSM   H17G10235   4.006   2.066   8.921  2.0614  1.4400 -0.1066
  101OSM   C18F10236   4.107   2.143   8.741 -0.7276 -0.0127 -0.7776
  101OSM   H18F10237   4.208   2.150   8.787 -2.3515  0.1452  3.1756
  101OSM   H18G10238   4.071   2.249   8.738 -1.5295 -0.2208  0.6493
  101OSM   H18H10239   4.124   2.124   8.633 -0.5400  1.5929 -1.0644
  102OSM      N10240   1.621   1.084  10.808  0.2955 -0.6646  0.3689
  102OSM    C1510241   1.693   1.176  10.718 -0.2997 -0.2900 -0.1477
  102OSM   H15A10242   1.636   1.208  10.632 -1.0583  0.1383  0.5085
  102OSM   H15B10243   1.785   1.126  10.689  0.5418  0.7253  0.7133
  102OSM   H15C10244   1.713   1.263  10.778 -2.4194  0.6009 -0.6652
  102OSM    C1410245   1.635   0.951  10.746 -0.4820  0.3102 -0.2164
  102OSM   H14A10246   1.616   0.962  10.640 -1.1808  2.7340  0.0958
  102OSM   H14B10247   1.577   0.878  10.802 -2.1335  0.4586 -1.6508
  102OSM   H14C10248   1.739   0.922  10.750 -0.6143 -0.0744  0.5985
  102OSM    C1310249   1.690   1.089  10.939 -0.3487 -0.1621 -0.3388
  102OSM   H13A10250   1.790   1.047  10.936  0.4635  1.6889 -0.4002
  102OSM   H13B10251   1.635   1.031  11.012  2.8643 -1.2352  1.4685
  102OSM   H13C10252   1.698   1.187  10.983 -0.0430 -0.3405  0.0174
  102OSM    C1210253   1.475   1.117  10.825 -0.1239  0.6124  0.5700
  102OSM   H12A10254   1.441   1.132  10.724  2.1663  1.6456 -0.1185
  102OSM   H12B10255   1.461   1.217  10.862  0.8726  0.7311  0.6445
  102OSM    C1110256   1.386   1.017  10.897 -0.4152  0.6558 -0.2903
  102OSM   H11A10257   1.296   1.071  10.934 -1.2449 -0.5084 -0.5411
  102OSM   H11B10258   1.444   0.978  10.984 -0.6776 -0.9925 -0.8074
  102OSM      P10259   1.230   0.880  10.749 -0.2993 -0.1723 -0.0605
  102OSM    O1310260   1.198   0.736  10.746  0.5311  0.1221  0.5955
  102OSM    O1410261   1.129   0.967  10.808  0.1599 -0.4613  0.0154
  102OSM    O1110262   1.276   0.935  10.615 -0.1558 -0.0815 -0.1338
  102OSM    O1210263   1.353   0.898  10.830 -0.1687 -0.0155 -0.4583
  102OSM    C1S10264   1.202   0.921  10.501 -0.0688 -0.1523  0.0692
  102OSM    H1S10265   1.098   0.952  10.522  0.2110  0.8292  0.0667
  102OSM    H1T10266   1.196   0.817  10.461 -1.2407 -0.2282  0.4056
  102OSM     NF10267   1.146   1.011  10.285 -0.3081 -0.0570  0.1686
  102OSM    HNF10268   1.135   0.937  10.220 -1.1555 -1.1839  1.5366
  102OSM    C2S10269   1.252   1.017  10.386  0.7506  0.5372  0.0015
  102OSM    H2S10270   1.254   1.123  10.420 -0.7425  0.8865 -0.9304
  102OSM    C3S10271   1.402   0.983  10.346 -0.1493 -0.0681  0.0753
  102OSM    H3S10272   1.412   0.873  10.331  0.6360 -0.2907  1.9252
  102OSM     O310273   1.487   1.009  10.457  0.2647  0.8747 -0.3598
  102OSM    HO310274   1.429   0.997  10.533 -1.5593  0.8713 -1.6910
  102OSM    C4S10275   1.446   1.072  10.233  0.5352 -0.1389 -0.3500
  102OSM    H4S10276   1.445   1.181  10.248 -0.3775  0.2995 -3.0029
  102OSM    C5S10277   1.458   1.031  10.105 -0.0192  0.1963  0.1280
  102OSM    H5S10278   1.427   0.927  10.086 -2.4764  0.5496  1.8463
  102OSM    C6S10279   1.511   1.114   9.993 -0.1361 -0.1721 -0.0995
  102OSM    H6S10280   1.589   1.053   9.942 -0.0451 -0.1833  0.0526
  102OSM    H6T10281   1.573   1.188  10.048 -0.4684 -0.0452  0.1100
  102OSM    C7S10282   1.404   1.172   9.901 -0.6398  0.0452  0.2073
  102OSM    H7S10283   1.314   1.203   9.958 -1.5913 -0.2925 -1.0590
  102OSM    H7T10284   1.363   1.093   9.834 -0.8873  0.1008  0.2925
  102OSM    C8S10285   1.457   1.293   9.827  0.5351  0.3724 -0.3098
  102OSM    H8S10286   1.475   1.377   9.896 -0.0307  0.2593 -0.0190
  102OSM    H8T10287   1.372   1.329   9.765  1.5085  2.8962 -0.2706
  102OSM    C9S10288   1.575   1.265   9.732  0.3284  0.2667 -0.0110
  102OSM    H9S10289   1.553   1.167   9.684  0.5022 -0.1379  0.7291
  102OSM    H9T10290   1.670   1.257   9.789  1.6758  0.9095 -2.0102
  102OSM   C10S10291   1.597   1.377   9.631 -0.3629  0.0672 -0.4644
  102OSM   H10S10292   1.655   1.455   9.685 -0.7373 -0.3703  0.5912
  102OSM   H10T10293   1.501   1.432   9.627 -1.3819 -1.0621  3.6682
  102OSM   C11S10294   1.657   1.330   9.498  0.3656  0.2599 -0.1384
  102OSM   H11S10295   1.585   1.257   9.454 -0.3563  0.2830  0.9645
  102OSM   H11T10296   1.752   1.279   9.525 -0.1201 -0.8301 -0.4360
  102OSM   C12S10297   1.708   1.428   9.393  0.1589 -0.5507  0.3291
  102OSM   H12S10298   1.748   1.514   9.450 -0.7543  0.5051 -0.6029
  102OSM   H12T10299   1.619   1.460   9.335 -0.2474 -0.1395  1.1612
  102OSM   C13S10300   1.805   1.360   9.294 -0.6881 -0.2568 -0.8316
  102OSM   H13S10301   1.751   1.286   9.233 -0.7685 -0.4414 -0.5384
  102OSM   H13T10302   1.892   1.312   9.344  1.0583  1.3709 -2.1603
  102OSM   C14S10303   1.868   1.462   9.196  0.4024 -0.4254 -0.7638
  102OSM   H14S10304   1.933   1.533   9.252  0.4130 -1.3862  0.4730
  102OSM   H14T10305   1.793   1.529   9.148  0.0022  0.4019  0.9220
  102OSM   C15S10306   1.960   1.405   9.084 -0.1650 -0.0572  0.5399
  102OSM   H15S10307   2.038   1.343   9.133  0.7198  0.1659 -0.5536
  102OSM   H15T10308   2.009   1.488   9.030  2.5178 -1.5619  0.5036
  102OSM   C16S10309   1.892   1.316   8.984  0.5815  1.0708  0.4046
  102OSM   H16S10310   1.815   1.376   8.932 -0.4705  1.6295  2.4934
  102OSM   H16T10311   1.849   1.230   9.040  0.5241  0.4549 -0.5525
  102OSM   C17S10312   1.986   1.257   8.878 -0.2099 -0.1820 -0.6021
  102OSM   H17S10313   2.075   1.223   8.936 -0.0364 -1.3808 -1.5335
  102OSM   H17T10314   2.022   1.339   8.812  0.1547 -0.3053 -0.5625
  102OSM   C18S10315   1.931   1.143   8.788 -0.1832 -0.3825 -0.6549
  102OSM   H18S10316   1.844   1.106   8.847  0.6278 -0.3426  0.6177
  102OSM   H18T10317   2.003   1.058   8.785 -1.2229 -1.3242  0.1281
  102OSM   H18U10318   1.896   1.181   8.690  0.0253  1.5075 -0.0227
  102OSM    C1F10319   1.030   1.085  10.305 -0.9637  0.3789 -0.0171
  102OSM     OF10320   1.020   1.170  10.393  0.3537 -0.0823  0.4509
  102OSM    C2F10321   0.915   1.055  10.218  0.7955  0.0860  0.1496
  102OSM    H2F10322   0.878   1.141  10.158 -1.1175  0.5985  1.9370
  102OSM    H2G10323   0.832   1.006  10.275  1.4592 -1.0419  0.1796
  102OSM    C3F10324   0.945   0.945  10.105 -0.1566  0.6372  0.5159
  102OSM    H3F10325   0.853   0.913  10.051  0.4076  0.8680 -0.5975
  102OSM    H3G10326   0.990   0.852  10.146 -0.1811 -0.9501 -2.8002
  102OSM    C4F10327   1.033   0.998   9.993  0.9630 -0.2346 -0.2360
  102OSM    H4F10328   1.136   1.031  10.016  0.9923  0.1539 -0.9032
  102OSM    H4G10329   0.984   1.080   9.936 -0.7551  0.2293  1.8127
  102OSM    C5F10330   1.041   0.881   9.884 -0.1002 -0.4006 -0.3303
  102OSM    H5F10331   0.941   0.844   9.854 -0.6597 -0.1696  1.1653
  102OSM    H5G10332   1.080   0.787   9.928 -1.0457  1.2797  4.6980
  102OSM    C6F10333   1.122   0.933   9.771 -0.2609 -0.0077  0.0655
  102OSM    H6F10334   1.228   0.949   9.799 -0.8016  1.7844  1.2405
  102OSM    H6G10335   1.086   1.030   9.733  0.1805  0.2255  0.2349
  102OSM    C7F10336   1.118   0.834   9.646 -0.7475  1.1941 -0.1835
  102OSM    H7F10337   1.020   0.850   9.596 -0.6858  1.8108 -0.1152
  102OSM    H7G10338   1.137   0.732   9.685  1.1420  2.0458  1.2694
  102OSM    C8F10339   1.231   0.857   9.550 -0.4497  0.6453  0.6179
  102OSM    H8F10340   1.242   0.759   9.500 -2.0127 -0.0137  1.4982
  102OSM    H8G10341   1.329   0.856   9.603  1.4993 -0.8402 -2.7312
  102OSM    C9F10342   1.224   0.974   9.448 -0.0026 -0.7235 -0.3715
  102OSM    H9F10343   1.123   1.016   9.438  0.3081  0.8451  2.1578
  102OSM   C10F10344   1.334   1.024   9.382 -0.3188  0.0309  0.6442
  102OSM   H10F10345   1.321   1.107   9.311 -1.8731 -0.3966  0.3958
  102OSM   C11F10346   1.478   0.971   9.399 -0.2515 -0.3166 -0.0057
  102OSM   H11F10347   1.483   0.899   9.484  0.1087  0.1709  0.3863
  102OSM   H11G10348   1.553   1.052   9.404 -2.6675  2.2289 -1.8636
  102OSM   C12F10349   1.515   0.891   9.275 -0.2552  0.3381 -0.2879
  102OSM   H12F10350   1.441   0.824   9.228 -0.4244  1.2450 -1.3476
  102OSM   H12G10351   1.598   0.820   9.292  0.6911  1.6665  0.9331
  102OSM   C13F10352   1.562   0.987   9.160 -0.1684 -0.2749 -0.1115
  102OSM   H13F10353   1.623   1.068   9.206  0.0384 -0.7380  0.4360
  102OSM   H13G10354   1.473   1.047   9.130 -0.2557  0.3026  1.2129
  102OSM   C14F10355   1.637   0.929   9.043  0.8021 -0.2810 -0.0753
  102OSM   H14F10356   1.717   0.880   9.101 -2.0839 -2.0869  2.7402
  102OSM   H14G10357   1.681   1.004   8.974  2.0952 -1.1848 -0.2740
  102OSM   C15F10358   1.558   0.820   8.964 -0.1615 -0.1492 -0.8868
  102OSM   H15F10359   1.469   0.871   8.922 -0.7911  0.1890  0.7843
  102OSM   H15G10360   1.533   0.733   9.029  1.4188 -0.6343 -0.8912
  102OSM   C16F10361   1.647   0.753   8.862 -0.3061 -0.6177  0.2004
  102OSM   H16F10362   1.721   0.700   8.926  0.3298 -0.1655 -0.1530
  102OSM   H16G10363   1.704   0.820   8.794 -2.2018  0.1136 -0.7539
  102OSM   C17F10364   1.569   0.650   8.788  0.7292 -0.5391 -0.2824
  102OSM   H17F10365   1.509   0.705   8.712 -1.1710  0.6509  1.9812
  102OSM   H17G10366   1.501   0.591   8.853  0.5136 -1.4349 -1.2891
  102OSM   C18F10367   1.653   0.550   8.707 -0.1954  0.1859 -0.0084
  102OSM   H18F10368   1.590   0.473   8.658 -3.4690  0.9210  2.6756
  102OSM   H18G10369   1.728   0.498   8.771 -0.9719 -1.6941 -0.5631
  102OSM   H18H10370   1.711   0.615   8.638 -0.9339  1.1116  0.2262
  103OSM      N10371   5.893   1.393  10.993  0.4630 -0.1098  0.0575
  103OSM    C1510372   5.957   1.265  10.960 -0.1485  0.0979  0.4694
  103OSM   H15A10373   5.897   1.192  10.909  0.3796 -1.3460  1.8419
  103OSM   H15B10374   5.996   1.219  11.049  2.4349  1.2817  0.0558
  103OSM   H15C10375   6.041   1.289  10.896  0.2465 -1.0149  0.5537
  103OSM    C1410376   5.791   1.363  11.101 -0.0727  0.3595  0.0193
  103OSM   H14A10377   5.754   1.459  11.133 -0.6396 -0.1501  0.9367
  103OSM   H14B10378   5.845   1.301  11.171 -0.1109 -0.0865 -0.3409
  103OSM   H14C10379   5.707   1.306  11.066  0.7611 -0.3587 -0.8361
  103OSM    C1310380   5.996   1.490  11.051  0.8836  0.1461  0.5498
  103OSM   H13A10381   6.083   1.488  10.988  1.2001 -1.3570  1.0076
  103OSM   H13B10382   6.028   1.460  11.150 -0.3007 -0.0403  0.8990
  103OSM   H13C10383   5.944   1.585  11.056  1.2039  0.3309  0.3673
  103OSM    C1210384   5.801   1.442  10.876  0.1330 -0.4754  0.4014
  103OSM   H12A10385   5.861   1.450  10.787 -1.5278 -1.9731 -0.9267
  103OSM   H12B10386   5.764   1.535  10.916 -1.4752 -1.6359  1.7541
  103OSM    C1110387   5.677   1.351  10.834 -0.1374  0.2378 -0.3517
  103OSM   H11A10388   5.707   1.244  10.828 -2.1209 -0.3993  0.5068
  103OSM   H11B10389   5.651   1.388  10.732  0.2252 -0.4457 -0.7012
  103OSM      P10390   5.459   1.254  10.935  0.2814  0.0604  0.1463
  103OSM    O1310391   5.508   1.136  11.008  0.0769  0.0697  0.1563
  103OSM    O1410392   5.325   1.317  10.972 -0.2985 -0.4391  0.8525
  103OSM    O1110393   5.448   1.209  10.785 -0.2057  0.4956 -0.1672
  103OSM    O1210394   5.574   1.366  10.931 -0.2789  0.3171 -1.1776
  103OSM    C1S10395   5.343   1.123  10.749  0.2200  0.0169  0.1409
  103OSM    H1S10396   5.247   1.178  10.735  0.6830  0.5932 -0.8051
  103OSM    H1T10397   5.327   1.041  10.822  0.8398 -0.3350 -0.1158
  103OSM     NF10398   5.239   1.008  10.563 -0.2188  0.3161  0.0159
  103OSM    HNF10399   5.238   0.908  10.560  2.1571  0.2347  0.0244
  103OSM    C2S10400   5.368   1.063  10.612 -0.4255 -0.4188  0.3341
  103OSM    H2S10401   5.395   1.147  10.544  0.8270  1.9758  3.5551
  103OSM    C3S10402   5.498   0.970  10.614  0.0249  0.7313  0.5385
  103OSM    H3S10403   5.465   0.872  10.653  1.2990 -0.1467 -0.4968
  103OSM     O310404   5.614   1.014  10.692 -0.4915  0.4473  0.1972
  103OSM    HO310405   5.583   1.074  10.759 -0.7642  2.8084 -1.8862
  103OSM    C4S10406   5.547   0.936  10.470  0.4193  0.0364 -0.9587
  103OSM    H4S10407   5.507   0.840  10.435 -0.7402 -0.0148  0.4364
  103OSM    C5S10408   5.623   1.003  10.387  0.3413 -0.5557  0.6971
  103OSM    H5S10409   5.660   1.104  10.411 -0.9513  0.5704 -1.7000
  103OSM    C6S10410   5.663   0.953  10.255  0.5837 -0.6869  0.0730
  103OSM    H6S10411   5.620   1.016  10.175 -0.7639 -1.4799  0.1489
  103OSM    H6T10412   5.636   0.849  10.226 -1.0266 -0.1358 -0.5023
  103OSM    C7S10413   5.813   0.954  10.239 -0.0909  0.0886  0.0132
  103OSM    H7S10414   5.859   0.885  10.312 -1.7702 -0.7100  0.3729
  103OSM    H7T10415   5.854   1.056  10.253  2.1012 -0.4327 -2.0266
  103OSM    C8S10416   5.855   0.895  10.104  0.0514 -0.3348  0.5638
  103OSM    H8S10417   5.806   0.795  10.099 -1.6270  0.4320  0.8293
  103OSM    H8T10418   5.965   0.894  10.096  0.1524  1.0871  1.4053
  103OSM    C9S10419   5.817   0.975   9.982 -0.8899 -0.3430 -0.7905
  103OSM    H9S10420   5.870   1.073   9.985 -0.7430 -0.4430 -0.0111
  103OSM    H9T10421   5.709   0.997   9.994 -0.3826  1.6725  0.6511
  103OSM   C10S10422   5.852   0.911   9.846  0.5089 -0.2377  0.2196
  103OSM   H10S10423   5.820   0.805   9.850 -0.8748  0.0284 -2.1445
  103OSM   H10T10424   5.962   0.901   9.833  0.1609 -2.4668 -1.3892
  103OSM   C11S10425   5.787   0.972   9.723  0.5312 -0.3232  0.1781
  103OSM   H11S10426   5.858   1.043   9.677 -1.5256  1.7247 -0.0041
  103OSM   H11T10427   5.697   1.034   9.743  0.1972 -0.8417  0.3146
  103OSM   C12S10428   5.776   0.874   9.607 -0.0033 -0.3624  0.5473
  103OSM   H12S10429   5.685   0.812   9.621 -1.5301  0.5021 -3.7622
  103OSM   H12T10430   5.870   0.814   9.611  1.0033  0.9494 -1.5051
  103OSM   C13S10431   5.764   0.926   9.455 -0.0991 -0.0067  0.6263
  103OSM   H13S10432   5.836   1.011   9.451 -0.1408 -0.0002 -0.1149
  103OSM   H13T10433   5.661   0.964   9.441  0.0954  1.2649  2.2747
  103OSM   C14S10434   5.810   0.832   9.338  0.0249 -0.0291 -0.7351
  103OSM   H14S10435   5.746   0.741   9.340  2.7288 -2.2323 -3.6197
  103OSM   H14T10436   5.914   0.801   9.364 -0.8287 -1.7371  0.8904
  103OSM   C15S10437   5.794   0.891   9.202 -0.3529 -0.0085 -0.4203
  103OSM   H15S10438   5.830   0.996   9.205 -1.3458  0.3202  0.7722
  103OSM   H15T10439   5.687   0.912   9.179  0.0663  2.1441 -0.6428
  103OSM   C16S10440   5.873   0.821   9.095 -0.5926  0.0990 -0.6240
  103OSM   H16S10441   5.854   0.714   9.116  0.4554 -0.2676 -1.4408
  103OSM   H16T10442   5.983   0.829   9.109 -0.6583 -1.1320  0.8489
  103OSM   C17S10443   5.846   0.858   8.950  0.8053 -0.2477  0.3630
  103OSM   H17S10444   5.742   0.829   8.926  0.2708  1.6145  0.2499
  103OSM   H17T10445   5.898   0.787   8.883  0.2916 -0.8236  0.5645
  103OSM   C18S10446   5.870   0.997   8.916 -0.2884 -0.0141 -0.1762
  103OSM   H18S10447   5.874   1.016   8.806 -0.0505  1.1196  0.0140
  103OSM   H18T10448   5.965   1.029   8.964 -1.4351 -1.1544  3.1061
  103OSM   H18U10449   5.790   1.052   8.968 -0.5404 -0.4384 -0.1123
  103OSM    C1F10450   5.145   1.083  10.517  0.4347 -0.4495 -0.2114
  103OSM     OF10451   5.140   1.204  10.527 -0.5469  0.3475  0.7299
  103OSM    C2F10452   5.032   1.016  10.457  0.3451 -0.4266  0.7641
  103OSM    H2F10453   4.938   1.036  10.513  0.3677 -0.0237  0.6596
  103OSM    H2G10454   5.043   0.905  10.450 -0.8508 -0.4617 -1.2709
  103OSM    C3F10455   5.001   1.077  10.318  0.2546 -0.0376  0.1866
  103OSM    H3F10456   4.988   1.188  10.320  0.6121  0.0193 -0.4280
  103OSM    H3G10457   4.903   1.038  10.284  0.2199  0.1453  0.0744
  103OSM    C4F10458   5.109   1.049  10.212 -0.6432 -0.2336  0.1777
  103OSM    H4F10459   5.135   0.941  10.223  0.6845 -0.1391 -1.5634
  103OSM    H4G10460   5.207   1.099  10.225 -0.1302 -1.3497  0.7927
  103OSM    C5F10461   5.076   1.084  10.064 -0.3620 -0.1960 -0.4814
  103OSM    H5F10462   5.093   1.192  10.046  2.6275 -0.7543 -1.4842
  103OSM    H5G10463   4.973   1.048  10.041 -0.5054 -0.3845  0.4059
  103OSM    C6F10464   5.167   1.021   9.959  0.9347  0.6615  0.2703
  103OSM    H6F10465   5.138   1.062   9.860  0.1752  0.2569  0.3154
  103OSM    H6G10466   5.137   0.915   9.946  0.1021  1.1407 -2.5490
  103OSM    C7F10467   5.312   1.032   9.969  0.2200  0.1898  0.0856
  103OSM    H7F10468   5.347   0.984  10.062  1.2626  0.5514 -0.1004
  103OSM    H7G10469   5.342   1.139   9.982  2.1101 -0.2226 -0.5152
  103OSM    C8F10470   5.393   0.980   9.849  1.1002  0.0389 -0.1427
  103OSM    H8F10471   5.340   0.885   9.825 -1.3736  1.1704  0.5142
  103OSM    H8G10472   5.497   0.964   9.884  1.3935 -1.3836 -1.5073
  103OSM    C9F10473   5.390   1.071   9.733 -0.1270 -0.7076 -0.1207
  103OSM    H9F10474   5.372   1.176   9.760 -1.7355 -0.8623 -0.5136
  103OSM   C10F10475   5.387   1.041   9.602  0.3384 -0.3916 -0.0555
  103OSM   H10F10476   5.401   1.130   9.538  2.1294  0.0484  0.8957
  103OSM   C11F10477   5.368   0.907   9.535  0.6802 -0.6005 -0.4633
  103OSM   H11F10478   5.339   0.825   9.604  0.3912 -0.1789 -0.0770
  103OSM   H11G10479   5.467   0.864   9.508 -0.3367 -1.8428 -2.4906
  103OSM   C12F10480   5.287   0.922   9.406 -0.0502 -0.2756  0.0425
  103OSM   H12F10481   5.195   0.981   9.426  0.6202  1.3356 -1.3418
  103OSM   H12G10482   5.263   0.818   9.373 -0.4599 -0.0339 -0.4524
  103OSM   C13F10483   5.370   0.978   9.290 -0.5475 -0.1574 -0.0675
  103OSM   H13F10484   5.466   0.922   9.293 -0.8575 -0.6291  1.0988
  103OSM   H13G10485   5.398   1.085   9.302  1.6397 -0.3401 -2.3831
  103OSM   C14F10486   5.315   0.953   9.154  1.5279  0.0974  0.4826
  103OSM   H14F10487   5.228   1.014   9.122  0.9465 -1.3233 -0.7650
  103OSM   H14G10488   5.268   0.852   9.151 -0.6074  1.0299  0.7397
  103OSM   C15F10489   5.417   0.962   9.035  0.3273 -0.2772 -0.1482
  103OSM   H15F10490   5.521   0.943   9.070  0.7063 -1.7620 -1.9129
  103OSM   H15G10491   5.437   1.067   9.002  3.6753 -0.7865 -0.1124
  103OSM   C16F10492   5.375   0.884   8.911 -0.7681  0.2756 -0.0619
  103OSM   H16F10493   5.268   0.900   8.885 -0.1968  0.4328 -2.6099
  103OSM   H16G10494   5.395   0.776   8.929  3.5536  1.0287  0.7712
  103OSM   C17F10495   5.456   0.909   8.784 -0.2610 -0.1710  0.2482
  103OSM   H17F10496   5.434   0.834   8.705  0.1096 -0.3753  0.3353
  103OSM   H17G10497   5.564   0.885   8.799 -0.4161 -0.0544  1.7002
  103OSM   C18F10498   5.450   1.047   8.730  0.5609 -1.0938  0.3529
  103OSM   H18F10499   5.343   1.069   8.711  1.1827  2.8161  0.5419
  103OSM   H18G10500   5.510   1.066   8.638  2.6917 -1.1735  1.6504
  103OSM   H18H10501   5.478   1.125   8.804 -2.2713  0.7172 -0.3534
  104OSM      N10502   2.356   2.466  10.672  0.0894  0.3495 -0.1714
  104OSM    C1510503   2.286   2.569  10.754  0.1234 -0.7309 -0.3791
  104OSM   H15A10504   2.183   2.541  10.773 -0.5131  1.5648 -0.1676
  104OSM   H15B10505   2.289   2.668  10.712 -3.0134  1.1008  3.1211
  104OSM   H15C10506   2.349   2.576  10.841 -0.3432  1.3045 -0.1471
  104OSM    C1410507   2.303   2.472  10.535  0.2034  0.5381 -0.1314
  104OSM   H14A10508   2.322   2.573  10.501 -0.1274  0.7333  0.2477
  104OSM   H14B10509   2.198   2.456  10.518  0.7134 -2.4742 -1.0580
  104OSM   H14C10510   2.356   2.407  10.467 -0.0054  2.5580 -2.3736
  104OSM    C1310511   2.510   2.494  10.685  0.1419 -0.2174  0.0111
  104OSM   H13A10512   2.577   2.419  10.646  0.0924  0.8968 -2.4068
  104OSM   H13B10513   2.531   2.483  10.790  1.4294  1.1110 -0.0683
  104OSM   H13C10514   2.536   2.594  10.652  2.0749  0.1087  2.2539
  104OSM    C1210515   2.342   2.326  10.730  0.2486  0.2341 -0.2249
  104OSM   H12A10516   2.360   2.332  10.836  1.2207  1.2250 -0.4372
  104OSM   H12B10517   2.418   2.254  10.704 -0.9075 -0.2177 -2.6160
  104OSM    C1110518   2.195   2.270  10.726 -0.5965 -0.0812 -0.1767
  104OSM   H11A10519   2.192   2.162  10.755 -0.0761  0.0328  0.3129
  104OSM   H11B10520   2.162   2.259  10.621  0.7928 -2.3583 -0.4600
  104OSM      P10521   1.964   2.291  10.833  0.2545  0.0736  0.7015
  104OSM    O1310522   1.985   2.149  10.868  0.6292 -0.0087 -0.5223
  104OSM    O1410523   1.897   2.382  10.925 -0.4583 -0.2421 -0.9688
  104OSM    O1110524   1.895   2.299  10.689  0.4258 -0.3476 -0.1266
  104OSM    O1210525   2.104   2.350  10.807 -0.0383 -0.2201 -0.6210
  104OSM    C1S10526   1.877   2.436  10.630 -0.4908 -0.0783 -0.2733
  104OSM    H1S10527   1.973   2.476  10.591  0.3020 -2.2516 -0.6796
  104OSM    H1T10528   1.821   2.506  10.696 -1.0596 -0.3632 -0.4477
  104OSM     NF10529   1.769   2.557  10.436 -0.4495  0.0046 -0.2894
  104OSM    HNF10530   1.675   2.589  10.443 -0.3490  0.1535  0.5105
  104OSM    C2S10531   1.789   2.429  10.504 -0.5307 -0.3033 -0.0101
  104OSM    H2S10532   1.843   2.361  10.434 -1.0865 -0.5134 -0.2464
  104OSM    C3S10533   1.647   2.356  10.538  0.6428 -0.3996  0.2310
  104OSM    H3S10534   1.591   2.430  10.600 -1.5259 -1.7092 -0.0667
  104OSM     O310535   1.649   2.231  10.602 -0.2276  0.0281 -0.0838
  104OSM    HO310536   1.737   2.241  10.638 -0.8536  0.6408  1.3130
  104OSM    C4S10537   1.584   2.347  10.398  0.3107  0.4535 -0.1936
  104OSM    H4S10538   1.494   2.409  10.395 -0.5263 -0.5009  2.4741
  104OSM    C5S10539   1.616   2.267  10.290 -0.3618 -0.4684 -0.4666
  104OSM    H5S10540   1.699   2.195  10.300  0.3908  0.2708 -1.2024
  104OSM    C6S10541   1.524   2.258  10.164 -0.0384 -0.0924 -0.3060
  104OSM    H6S10542   1.437   2.325  10.177  1.1050  1.7150 -1.4720
  104OSM    H6T10543   1.493   2.153  10.144 -0.2600  0.3079 -2.2702
  104OSM    C7S10544   1.614   2.295  10.047  0.2639 -0.4814 -0.5632
  104OSM    H7S10545   1.707   2.236  10.042 -0.3061 -1.3975 -0.5621
  104OSM    H7T10546   1.648   2.401  10.049 -0.3283 -0.2237 -2.5197
  104OSM    C8S10547   1.531   2.283   9.911 -0.9909  0.2192 -0.3985
  104OSM    H8S10548   1.464   2.371   9.910 -0.4611  0.6312 -0.4538
  104OSM    H8T10549   1.471   2.190   9.919  0.6796 -0.7742  1.4242
  104OSM    C9S10550   1.623   2.267   9.786 -0.0100 -0.1842  0.8016
  104OSM    H9S10551   1.671   2.167   9.787 -0.6396 -0.5505 -1.1475
  104OSM    H9T10552   1.699   2.345   9.806 -0.3442  0.0039  1.3557
  104OSM   C10S10553   1.560   2.291   9.646 -1.0846 -0.1326 -0.3618
  104OSM   H10S10554   1.516   2.393   9.638  1.3480  1.0673  0.7952
  104OSM   H10T10555   1.482   2.214   9.627 -0.6980 -0.5275 -0.3653
  104OSM   C11S10556   1.676   2.293   9.543  0.3496 -0.2006  0.2626
  104OSM   H11S10557   1.721   2.192   9.541  0.3194 -0.2103 -1.5158
  104OSM   H11T10558   1.759   2.358   9.578 -0.3662  1.0191 -0.2230
  104OSM   C12S10559   1.631   2.340   9.406 -0.3881 -0.2607  0.4792
  104OSM   H12S10560   1.595   2.444   9.401  1.6511  0.4495 -1.9966
  104OSM   H12T10561   1.549   2.273   9.373  0.1055  0.0854 -1.6376
  104OSM   C13S10562   1.746   2.322   9.302  0.9183 -0.1077 -0.4467
  104OSM   H13S10563   1.801   2.231   9.336 -0.2768 -0.2918  1.1040
  104OSM   H13T10564   1.815   2.408   9.315  2.3186 -0.3859 -4.6298
  104OSM   C14S10565   1.691   2.311   9.160  0.2687  0.5155  0.8964
  104OSM   H14S10566   1.648   2.406   9.121 -0.8196  0.1919  1.2840
  104OSM   H14T10567   1.615   2.231   9.142 -0.3783  1.3551 -0.2395
  104OSM   C15S10568   1.815   2.280   9.068 -0.0506 -0.3659  1.1032
  104OSM   H15S10569   1.861   2.184   9.102 -0.3519 -1.9558 -2.5686
  104OSM   H15T10570   1.888   2.363   9.075 -0.3094  0.0302 -0.5066
  104OSM   C16S10571   1.773   2.265   8.916  0.0179 -0.0948 -0.2893
  104OSM   H16S10572   1.745   2.364   8.874  3.1349  1.8695  1.8484
  104OSM   H16T10573   1.699   2.184   8.897 -0.6189  0.9394 -2.5034
  104OSM   C17S10574   1.898   2.233   8.824 -0.5704 -0.0030 -0.4778
  104OSM   H17S10575   1.977   2.310   8.840 -0.1609 -0.3918 -0.6210
  104OSM   H17T10576   1.866   2.249   8.719  1.5228  0.1768 -1.1390
  104OSM   C18S10577   1.955   2.095   8.837  0.4241 -0.3050  0.0995
  104OSM   H18S10578   1.985   2.091   8.944 -0.8871  0.7904  0.5277
  104OSM   H18T10579   2.050   2.085   8.780  0.3707  0.5573 -0.1426
  104OSM   H18U10580   1.886   2.009   8.825  0.3732 -0.7314  2.7961
  104OSM    C1F10581   1.868   2.626  10.375  0.1642 -0.9671  0.2208
  104OSM     OF10582   1.988   2.587  10.376 -0.1975 -0.1917 -0.4252
  104OSM    C2F10583   1.832   2.748  10.308 -0.0744 -0.9422 -0.5676
  104OSM    H2F10584   1.826   2.838  10.374  1.5095  0.2612 -1.9571
  104OSM    H2G10585   1.749   2.724  10.239 -0.9305 -0.9129  0.4320
  104OSM    C3F10586   1.953   2.792  10.210  0.4133  0.3011  0.1259
  104OSM    H3F10587   1.967   2.709  10.137 -0.7505 -1.4534  1.8056
  104OSM    H3G10588   2.047   2.800  10.267 -0.2161  1.7003  1.0052
  104OSM    C4F10589   1.932   2.929  10.142 -0.4027  0.2100 -0.1568
  104OSM    H4F10590   1.952   3.005  10.220  0.4488  1.1322 -1.2456
  104OSM    H4G10591   1.830   2.946  10.102 -0.9080  1.3431  1.5367
  104OSM    C5F10592   2.022   2.944  10.021 -0.1123  0.9639 -0.6952
  104OSM    H5F10593   2.036   2.839   9.986 -0.7356 -0.6514  3.3235
  104OSM    H5G10594   2.120   2.980  10.059  0.2183 -1.1121  0.5960
  104OSM    C6F10595   1.963   3.027   9.905 -0.0586 -0.1348  0.2521
  104OSM    H6F10596   1.949   3.130   9.945  0.4024  0.4949 -1.1466
  104OSM    H6G10597   1.871   2.988   9.856  0.1365  0.6959 -0.8286
  104OSM    C7F10598   2.068   3.034   9.793  0.2678  0.4515 -0.3126
  104OSM    H7F10599   2.098   2.933   9.760 -1.0425 -0.5975  1.5405
  104OSM    H7G10600   2.169   3.074   9.819 -0.2821  1.4131  0.4359
  104OSM    C8F10601   2.037   3.117   9.660  0.0773  0.0132  0.4140
  104OSM    H8F10602   1.966   3.056   9.600  0.3472 -1.2678  1.3694
  104OSM    H8G10603   2.129   3.119   9.598  0.3207 -1.3707  0.7087
  104OSM    C9F10604   1.998   3.266   9.681  0.9841  1.2811  0.0054
  104OSM    H9F10605   2.040   3.315   9.770  1.0522  1.1565  0.0422
  104OSM   C10F10606   1.905   3.337   9.610  0.0688  0.0773  0.1619
  104OSM   H10F10607   1.891   3.441   9.643  2.6702  0.2763  0.8718
  104OSM   C11F10608   1.819   3.287   9.500 -1.0249  0.2128 -0.1925
  104OSM   H11F10609   1.729   3.348   9.478  0.2681  1.0388 -3.8625
  104OSM   H11G10610   1.790   3.185   9.533 -1.3458  0.5826  0.7080
  104OSM   C12F10611   1.883   3.270   9.363  0.3794  0.1975  0.2820
  104OSM   H12F10612   1.978   3.211   9.367  0.3030 -0.1122 -1.7446
  104OSM   H12G10613   1.920   3.369   9.328  1.6430  0.7626  2.9437
  104OSM   C13F10614   1.792   3.194   9.265  0.2600 -0.1788  0.2491
  104OSM   H13F10615   1.697   3.251   9.256 -0.1385 -0.5719  1.6984
  104OSM   H13G10616   1.762   3.097   9.309 -2.0586  0.7790  0.9187
  104OSM   C14F10617   1.848   3.178   9.123  0.4616 -0.4335  0.0333
  104OSM   H14F10618   1.928   3.102   9.130 -0.9622 -1.9026  1.0060
  104OSM   H14G10619   1.891   3.273   9.084 -1.4525 -0.4618 -2.3865
  104OSM   C15F10620   1.733   3.139   9.033  0.5865 -0.3208 -0.3918
  104OSM   H15F10621   1.648   3.210   9.027  1.0231  0.5057  2.0045
  104OSM   H15G10622   1.684   3.049   9.074 -0.8485  0.0252 -1.2809
  104OSM   C16F10623   1.787   3.108   8.889 -0.4641  0.1314 -0.3924
  104OSM   H16F10624   1.727   3.027   8.843 -1.3400  0.3990  0.2565
  104OSM   H16G10625   1.891   3.069   8.888 -0.3478  0.3976 -2.3273
  104OSM   C17F10626   1.774   3.227   8.795  0.1572 -0.3965  0.4816
  104OSM   H17F10627   1.817   3.322   8.832  1.3547 -0.5558 -0.4287
  104OSM   H17G10628   1.666   3.241   8.773 -0.0649 -1.5337  0.7736
  104OSM   C18F10629   1.840   3.205   8.661 -0.6213  0.0491  0.7480
  104OSM   H18F10630   1.949   3.184   8.657  0.0747  3.4313 -1.2952
  104OSM   H18G10631   1.839   3.298   8.602 -2.8122 -1.0340 -1.0515
  104OSM   H18H10632   1.790   3.134   8.592  1.8550  0.1410 -1.2866
  105OSM      N10633   3.774   4.569  10.660 -0.1401 -0.1781  0.5800
  105OSM    C1510634   3.650   4.653  10.646 -0.4210 -0.2717 -0.2482
  105OSM   H15A10635   3.632   4.677  10.543  3.8198 -0.3259 -1.1761
  105OSM   H15B10636   3.654   4.751  10.693  1.5356 -1.0125  1.3174
  105OSM   H15C10637   3.573   4.587  10.682 -1.3679 -0.2683 -2.1506
  105OSM    C1410638   3.767   4.463  10.551  0.3465 -0.8295  0.2049
  105OSM   H14A10639   3.669   4.423  10.532 -0.6796  0.9846  1.4487
  105OSM   H14B10640   3.847   4.395  10.576  1.4537  1.2635  2.7719
  105OSM   H14C10641   3.792   4.511  10.457 -1.3717  1.6584  0.9159
  105OSM    C1310642   3.908   4.642  10.643  0.2527  0.2775  0.0686
  105OSM   H13A10643   3.918   4.699  10.552 -0.3694 -0.2862 -0.3613
  105OSM   H13B10644   3.988   4.572  10.627  0.8463  1.2266 -1.2513
  105OSM   H13C10645   3.925   4.703  10.731 -0.1005  1.2381 -0.5132
  105OSM    C1210646   3.762   4.501  10.790 -0.0994  0.3454  0.0961
  105OSM   H12A10647   3.657   4.500  10.815 -0.0462  0.1740  0.3117
  105OSM   H12B10648   3.796   4.564  10.870  1.7127  0.4723 -0.7171
  105OSM    C1110649   3.815   4.357  10.810  0.2747 -0.8755 -0.6128
  105OSM   H11A10650   3.763   4.279  10.751 -0.7164 -1.3484  0.8582
  105OSM   H11B10651   3.780   4.329  10.911 -1.0365 -2.3271 -1.4172
  105OSM      P10652   4.018   4.208  10.756  0.3473  0.7777 -0.0692
  105OSM    O1310653   4.161   4.194  10.794  0.8144  0.3548  0.9064
  105OSM    O1410654   3.933   4.107  10.825 -0.7848  0.1641  0.4813
  105OSM    O1110655   3.998   4.216  10.597  0.1689 -0.1502  0.1794
  105OSM    O1210656   3.962   4.354  10.797  0.0279 -0.6114  0.8331
  105OSM    C1S10657   4.096   4.282  10.514  0.5445  0.1774 -0.5824
  105OSM    H1S10658   4.198   4.287  10.557  0.4450  0.0868 -0.3292
  105OSM    H1T10659   4.065   4.387  10.496  0.4079  0.2887  0.2295
  105OSM     NF10660   4.207   4.285  10.306 -0.7864 -0.2351  0.4277
  105OSM    HNF10661   4.162   4.339  10.236 -0.0159 -0.7631 -0.4864
  105OSM    C2S10662   4.112   4.215  10.380 -0.1452  0.2041  0.5098
  105OSM    H2S10663   4.144   4.109  10.393 -0.4663  0.0910  0.4075
  105OSM    C3S10664   3.974   4.203  10.304  0.2800  0.6291  0.2195
  105OSM    H3S10665   3.924   4.300  10.280 -1.0530  0.3484  1.6820
  105OSM     O310666   3.874   4.132  10.380 -0.1501 -0.3754  0.4442
  105OSM    HO310667   3.894   4.128  10.474 -2.0097 -1.4554  0.8450
  105OSM    C4S10668   3.999   4.136  10.163 -0.4246 -1.1829 -0.8437
  105OSM    H4S10669   4.007   4.215  10.087 -0.1203 -0.9553 -0.5750
  105OSM    C5S10670   3.976   4.010  10.123  0.3782  1.0102  0.2543
  105OSM    H5S10671   3.953   3.930  10.195 -0.8671  0.7310 -0.4288
  105OSM    C6S10672   3.991   3.967   9.978  0.0179 -0.1940  0.1919
  105OSM    H6S10673   3.914   3.891   9.952 -0.4487  0.1913  0.4223
  105OSM    H6T10674   4.085   3.913   9.953  0.5557  2.3257 -4.1625
  105OSM    C7S10675   3.978   4.072   9.870 -0.5967  0.4389  0.5532
  105OSM    H7S10676   4.069   4.135   9.880  1.2606 -1.9054 -0.7583
  105OSM    H7T10677   3.885   4.132   9.884 -1.0342 -0.3126  0.9568
  105OSM    C8S10678   3.991   4.021   9.725  0.5488  0.7444  0.2772
  105OSM    H8S10679   3.892   3.983   9.693  0.4315 -0.0301  1.4920
  105OSM    H8T10680   4.065   3.939   9.718 -2.3050 -1.8957 -1.1357
  105OSM    C9S10681   4.040   4.132   9.630 -0.6788  0.4931  0.4170
  105OSM    H9S10682   4.135   4.167   9.675  0.0573 -0.3809 -0.4256
  105OSM    H9T10683   3.979   4.225   9.636 -0.3291  0.7085  0.6279
  105OSM   C10S10684   4.053   4.084   9.484  0.3902  0.0304  0.4298
  105OSM   H10S10685   3.957   4.060   9.433  1.4591 -2.1600 -0.7037
  105OSM   H10T10686   4.109   3.988   9.487 -1.6520 -1.2304  3.1643
  105OSM   C11S10687   4.125   4.194   9.409 -0.5222  0.1587 -0.0868
  105OSM   H11S10688   4.226   4.207   9.454  0.0640  1.8215 -1.7220
  105OSM   H11T10689   4.087   4.299   9.415  4.6346  2.6165 -3.2683
  105OSM   C12S10690   4.140   4.158   9.262 -0.5624 -0.3620  1.2327
  105OSM   H12S10691   4.052   4.188   9.201  1.2846  1.5028 -0.6880
  105OSM   H12T10692   4.148   4.049   9.242 -2.8232 -0.1273 -1.6966
  105OSM   C13S10693   4.270   4.225   9.199  0.0088  0.9084  0.4069
  105OSM   H13S10694   4.359   4.183   9.249 -0.3318 -0.0202  0.2591
  105OSM   H13T10695   4.261   4.335   9.212 -0.3986  0.8985  0.2265
  105OSM   C14S10696   4.282   4.208   9.047 -0.1993 -0.7190 -0.1174
  105OSM   H14S10697   4.190   4.245   8.997 -0.4714 -2.0937 -0.6826
  105OSM   H14T10698   4.308   4.101   9.027 -0.1553 -0.5436 -1.0529
  105OSM   C15S10699   4.396   4.308   8.999 -0.1668  0.7463  0.0552
  105OSM   H15S10700   4.490   4.261   9.035 -0.3760  0.1988 -0.0958
  105OSM   H15T10701   4.383   4.409   9.044 -1.8595  0.3782  0.4822
  105OSM   C16S10702   4.406   4.321   8.840 -0.0047  0.2344  0.5002
  105OSM   H16S10703   4.361   4.233   8.790 -1.3580  1.1492  0.0683
  105OSM   H16T10704   4.504   4.340   8.790 -0.9826 -1.7118 -2.4102
  105OSM   C17S10705   4.307   4.435   8.780  0.1679  0.6105 -0.8000
  105OSM   H17S10706   4.328   4.537   8.819 -0.3391  0.0367  1.0592
  105OSM   H17T10707   4.210   4.400   8.821 -0.2716  0.7219 -1.7169
  105OSM   C18S10708   4.305   4.418   8.628  0.1821 -0.2873  0.2915
  105OSM   H18S10709   4.221   4.480   8.589 -0.4182 -0.4369  1.3091
  105OSM   H18T10710   4.282   4.310   8.610 -0.0380 -0.1596 -0.2101
  105OSM   H18U10711   4.400   4.432   8.573  0.9348  0.7639  1.7811
  105OSM    C1F10712   4.338   4.280  10.328  0.4378 -0.4486  0.5817
  105OSM     OF10713   4.381   4.229  10.430  0.0231  0.2681  0.3190
  105OSM    C2F10714   4.416   4.359  10.227 -0.1758 -0.7966 -0.1408
  105OSM    H2F10715   4.408   4.466  10.257  0.4227 -0.4248 -1.2672
  105OSM    H2G10716   4.373   4.346  10.126 -2.0364  2.1543  0.1489
  105OSM    C3F10717   4.568   4.334  10.253  0.1781  0.0393 -0.9109
  105OSM    H3F10718   4.596   4.227  10.267  2.7175  0.8123  0.4631
  105OSM    H3G10719   4.578   4.381  10.353  1.3859  0.3928 -1.1891
  105OSM    C4F10720   4.657   4.407  10.154 -0.2360  0.1198  0.1029
  105OSM    H4F10721   4.760   4.385  10.188 -0.5321 -2.2143 -0.3759
  105OSM    H4G10722   4.654   4.518  10.158  1.4228  0.1618  0.6560
  105OSM    C5F10723   4.651   4.353  10.007  0.8170  0.0160 -0.3678
  105OSM    H5F10724   4.745   4.392   9.961 -0.5718  2.2838 -1.4540
  105OSM    H5G10725   4.578   4.418   9.953  0.7699  0.4914  0.2601
  105OSM    C6F10726   4.641   4.202   9.984  0.3110  1.1107  0.3479
  105OSM    H6F10727   4.579   4.162  10.068 -0.1159  0.1122 -0.4313
  105OSM    H6G10728   4.744   4.162   9.984  0.8378  2.3944 -0.3847
  105OSM    C7F10729   4.558   4.173   9.858 -0.0510  0.0327 -0.0642
  105OSM    H7F10730   4.453   4.199   9.883  0.9699  1.1876  3.6216
  105OSM    H7G10731   4.559   4.063   9.839 -0.7153 -0.0683  0.4259
  105OSM    C8F10732   4.604   4.248   9.730  0.0752  0.2982  0.4520
  105OSM    H8F10733   4.714   4.234   9.718  0.0866 -0.4673  1.3087
  105OSM    H8G10734   4.582   4.356   9.743 -1.4049 -0.0182  0.6936
  105OSM    C9F10735   4.523   4.201   9.610  0.1590  0.5427 -0.2447
  105OSM    H9F10736   4.422   4.165   9.636  0.2108  1.5074  1.4034
  105OSM   C10F10737   4.561   4.196   9.479 -0.5229  0.7171  0.0135
  105OSM   H10F10738   4.497   4.149   9.404  0.8723 -0.2356 -0.6190
  105OSM   C11F10739   4.695   4.239   9.417  0.1588 -0.4930  0.1277
  105OSM   H11F10740   4.710   4.176   9.327  0.8589 -1.7331  1.0828
  105OSM   H11G10741   4.778   4.217   9.489 -1.4305  0.1929  2.2908
  105OSM   C12F10742   4.688   4.388   9.392  0.4153  0.2320 -0.0729
  105OSM   H12F10743   4.797   4.410   9.398  0.5344 -0.2223 -0.5028
  105OSM   H12G10744   4.634   4.453   9.465  2.3353  0.0984  1.5469
  105OSM   C13F10745   4.651   4.427   9.248  0.1406 -0.1823 -0.5221
  105OSM   H13F10746   4.543   4.402   9.247  0.1827 -0.3705 -0.4591
  105OSM   H13G10747   4.708   4.361   9.179  1.3167 -0.5703  0.7698
  105OSM   C14F10748   4.689   4.566   9.216  0.2962 -0.8951  0.1752
  105OSM   H14F10749   4.789   4.596   9.253  0.4411 -2.9579  1.6293
  105OSM   H14G10750   4.619   4.631   9.271  0.4587 -1.4268  1.0297
  105OSM   C15F10751   4.679   4.582   9.064 -0.6519  0.3754  0.2971
  105OSM   H15F10752   4.593   4.520   9.030 -0.1032 -0.9786  1.2709
  105OSM   H15G10753   4.774   4.548   9.017 -0.8098 -0.6380  0.6798
  105OSM   C16F10754   4.657   4.725   9.025  0.3914 -0.8149  0.6877
  105OSM   H16F10755   4.724   4.786   9.090  0.2371 -0.5149  0.5687
  105OSM   H16G10756   4.552   4.750   9.053  0.1248  0.8762 -1.5414
  105OSM   C17F10757   4.675   4.739   8.873 -0.1056 -0.5081 -0.7149
  105OSM   H17F10758   4.603   4.667   8.830 -0.3854 -1.5206  1.3410
  105OSM   H17G10759   4.780   4.710   8.850  0.2442 -0.6279  0.9004
  105OSM   C18F10760   4.645   4.880   8.819  0.4260 -0.4459  0.0857
  105OSM   H18F10761   4.734   4.944   8.839  2.2158 -1.7859 -2.8239
  105OSM   H18G10762   4.562   4.938   8.864  1.5581  2.0319 -0.8169
  105OSM   H18H10763   4.625   4.873   8.710 -1.2792  1.9359  0.1799
  106OSM      N10764   3.681   3.758  11.001 -0.3758 -0.1678  0.5434
  106OSM    C1510765   3.588   3.798  11.114  0.1955  0.6003 -0.2021
  106OSM   H15A10766   3.492   3.749  11.102 -1.2303  2.2990  3.1292
  106OSM   H15B10767   3.569   3.904  11.122  1.3624  0.8471 -0.5645
  106OSM   H15C10768   3.628   3.773  11.211  1.3731 -1.1987 -1.0996
  106OSM    C1410769   3.823   3.791  11.045  0.3793 -0.0897  0.0141
  106OSM   H14A10770   3.834   3.896  11.069  0.3881  0.4510 -2.1442
  106OSM   H14B10771   3.898   3.768  10.971  0.3795  1.2688 -0.4390
  106OSM   H14C10772   3.834   3.728  11.131 -2.9904  1.0518  1.4554
  106OSM    C1310773   3.673   3.611  10.986 -0.2733  0.1906  0.5447
  106OSM   H13A10774   3.576   3.585  10.945  0.6861 -1.8158 -0.6052
  106OSM   H13B10775   3.685   3.563  11.082 -0.6447  1.3620  1.1970
  106OSM   H13C10776   3.748   3.578  10.916 -0.3253 -0.0299  0.5911
  106OSM    C1210777   3.650   3.826  10.872  0.7867 -1.1143 -0.5495
  106OSM   H12A10778   3.559   3.792  10.825  0.1421  1.2974 -1.1562
  106OSM   H12B10779   3.733   3.797  10.808 -0.4037 -3.3234 -1.2026
  106OSM    C1110780   3.650   3.982  10.885  0.5617 -0.3582 -0.5031
  106OSM   H11A10781   3.662   4.035  10.789  0.3568  0.1094 -0.2735
  106OSM   H11B10782   3.744   4.014  10.935  0.5982 -1.2822  0.0517
  106OSM      P10783   3.390   4.010  10.875 -0.7848  0.3403  0.5263
  106OSM    O1310784   3.343   3.869  10.856 -0.7649 -0.4526 -0.3639
  106OSM    O1410785   3.288   4.097  10.932 -0.4776  0.1204  0.3776
  106OSM    O1110786   3.429   4.069  10.733  0.6586 -0.1398 -0.6698
  106OSM    O1210787   3.525   4.025  10.958 -0.9160  0.2277 -0.5629
  106OSM    C1S10788   3.435   3.990  10.615  0.0958  0.1079 -0.7177
  106OSM    H1S10789   3.344   3.928  10.609 -0.1262  0.5631 -2.6687
  106OSM    H1T10790   3.528   3.929  10.613 -0.7724 -1.2401 -1.2014
  106OSM     NF10791   3.432   3.984  10.371 -0.5594  0.2585 -0.0819
  106OSM    HNF10792   3.517   3.959  10.327 -0.2835  0.0173  0.5756
  106OSM    C2S10793   3.442   4.071  10.489  0.6364  0.5161 -0.5572
  106OSM    H2S10794   3.355   4.140  10.484 -1.5653 -1.9277  1.1110
  106OSM    C3S10795   3.563   4.163  10.486  0.5099  0.0211 -0.1036
  106OSM    H3S10796   3.654   4.101  10.495  1.8151  1.0016 -4.4309
  106OSM     O310797   3.555   4.246  10.602 -0.5185  0.2081 -0.2903
  106OSM    HO310798   3.503   4.185  10.656 -1.7644 -0.2208 -1.8939
  106OSM    C4S10799   3.574   4.237  10.363 -0.4056 -0.2421  0.0722
  106OSM    H4S10800   3.658   4.202  10.301  0.5708 -0.7479  1.6502
  106OSM    C5S10801   3.521   4.353  10.327  0.1208  0.2866 -0.0442
  106OSM    H5S10802   3.450   4.406  10.393 -0.5010 -0.9802  0.3321
  106OSM    C6S10803   3.557   4.421  10.194 -0.6115 -0.0527 -1.0101
  106OSM    H6S10804   3.645   4.488  10.207 -0.8929 -0.2198  3.0936
  106OSM    H6T10805   3.469   4.486  10.176 -2.0452 -0.9014  2.2278
  106OSM    C7S10806   3.581   4.330  10.071  0.0324  0.6965 -0.1086
  106OSM    H7S10807   3.499   4.255  10.071  0.4092  0.2812  0.4185
  106OSM    H7T10808   3.672   4.266  10.077 -0.6137 -0.4414 -1.7350
  106OSM    C8S10809   3.574   4.410   9.941 -0.3009  0.4983  0.0347
  106OSM    H8S10810   3.650   4.491   9.941  3.0421 -2.3672  1.8168
  106OSM    H8T10811   3.470   4.448   9.936 -0.3722  0.3393  0.3039
  106OSM    C9S10812   3.620   4.319   9.827  0.3772  0.6774  0.3557
  106OSM    H9S10813   3.556   4.228   9.825  2.5989 -0.9842  0.4845
  106OSM    H9T10814   3.723   4.279   9.841 -0.0361 -0.4010  0.4313
  106OSM   C10S10815   3.610   4.380   9.683 -0.2775 -0.5707 -0.1303
  106OSM   H10S10816   3.669   4.474   9.681 -0.4583 -0.4654 -0.9429
  106OSM   H10T10817   3.500   4.389   9.674 -0.1939 -1.1495 -2.3897
  106OSM   C11S10818   3.674   4.287   9.575  0.1223 -0.2700  0.3323
  106OSM   H11S10819   3.631   4.185   9.577 -0.3677 -0.1564 -2.1005
  106OSM   H11T10820   3.784   4.286   9.594  0.0878 -2.8841  0.6757
  106OSM   C12S10821   3.635   4.344   9.429  0.1185 -0.0099 -0.4016
  106OSM   H12S10822   3.682   4.443   9.414  0.7735 -0.3903 -0.8876
  106OSM   H12T10823   3.524   4.345   9.430  0.1011  1.8804 -0.3487
  106OSM   C13S10824   3.694   4.243   9.323  0.1959 -0.1448 -0.4353
  106OSM   H13S10825   3.665   4.137   9.338 -1.9509  0.0467 -2.6963
  106OSM   H13T10826   3.802   4.258   9.341 -0.2091 -0.9793  3.7733
  106OSM   C14S10827   3.643   4.265   9.185  0.0697 -0.5508 -0.2480
  106OSM   H14S10828   3.654   4.371   9.152  1.0292 -0.7986 -0.7457
  106OSM   H14T10829   3.536   4.235   9.178  0.4075 -2.0697  0.6978
  106OSM   C15S10830   3.701   4.161   9.084 -0.4322 -0.2854  0.2237
  106OSM   H15S10831   3.678   4.058   9.117  1.5715 -1.0545 -0.6102
  106OSM   H15T10832   3.812   4.168   9.090 -0.3944  2.2699 -1.8058
  106OSM   C16S10833   3.653   4.186   8.937  0.2692  0.1231  0.1222
  106OSM   H16S10834   3.542   4.184   8.928  0.2838  0.4999 -0.1591
  106OSM   H16T10835   3.673   4.092   8.882  1.1750  0.2348  0.2484
  106OSM   C17S10836   3.711   4.310   8.858 -0.5831 -0.5339 -0.6408
  106OSM   H17S10837   3.700   4.398   8.925 -1.1693 -1.4641  0.5248
  106OSM   H17T10838   3.655   4.326   8.764 -1.3039  3.6946  0.2678
  106OSM   C18S10839   3.859   4.285   8.815  0.1159 -0.0062 -0.2898
  106OSM   H18S10840   3.900   4.365   8.750 -0.1316 -1.1921 -1.9740
  106OSM   H18T10841   3.861   4.188   8.761  1.0455 -0.1433 -0.0283
  106OSM   H18U10842   3.920   4.270   8.907  0.0472  1.6474  0.0715
  106OSM    C1F10843   3.322   3.915  10.329 -0.1431 -0.8666 -0.6170
  106OSM     OF10844   3.209   3.920  10.383 -0.1696  1.1997  0.3976
  106OSM    C2F10845   3.354   3.811  10.219 -0.4584  0.1473  0.3371
  106OSM    H2F10846   3.460   3.778  10.229 -0.4926  0.2620  1.1211
  106OSM    H2G10847   3.340   3.866  10.124 -0.0534 -0.0642  0.1516
  106OSM    C3F10848   3.262   3.685  10.211  0.8613 -0.0866 -0.1632
  106OSM    H3F10849   3.160   3.713  10.177  0.9883  2.8997  1.5260
  106OSM    H3G10850   3.265   3.653  10.317  1.2993 -0.9265 -0.4196
  106OSM    C4F10851   3.316   3.585  10.105 -0.6187  0.0826 -0.0041
  106OSM    H4F10852   3.246   3.498  10.110  1.9759 -2.1300  0.1732
  106OSM    H4G10853   3.408   3.549  10.156 -0.2078  1.3939  0.2045
  106OSM    C5F10854   3.342   3.627   9.961  0.7112 -0.1984  0.3559
  106OSM    H5F10855   3.394   3.725   9.964 -1.6342  1.0910  1.2321
  106OSM    H5G10856   3.243   3.631   9.911  0.6266  1.4775  0.5926
  106OSM    C6F10857   3.407   3.524   9.871  0.7910 -0.2962  0.1546
  106OSM    H6F10858   3.506   3.494   9.912 -0.0957 -0.9352  1.9835
  106OSM    H6G10859   3.408   3.573   9.772 -0.9422  1.9232  1.1479
  106OSM    C7F10860   3.324   3.397   9.847 -0.7536 -0.2701 -0.4726
  106OSM    H7F10861   3.223   3.431   9.817  0.4896  1.5977 -2.8465
  106OSM    H7G10862   3.319   3.345   9.945 -0.4924 -0.1621 -0.4013
  106OSM    C8F10863   3.387   3.319   9.730 -0.5154  0.5014  0.0832
  106OSM    H8F10864   3.399   3.381   9.639 -0.2515  1.5155  0.7982
  106OSM    H8G10865   3.315   3.236   9.711  0.7203 -1.1338  2.0897
  106OSM    C9F10866   3.512   3.235   9.763  0.6838  0.0563 -0.1200
  106OSM    H9F10867   3.553   3.257   9.862 -2.6370  1.1412  1.1494
  106OSM   C10F10868   3.552   3.132   9.683 -0.9276 -0.3566  0.6428
  106OSM   H10F10869   3.640   3.072   9.711 -0.3073  0.0289 -0.4266
  106OSM   C11F10870   3.504   3.099   9.546 -0.4621 -0.1421 -0.5160
  106OSM   H11F10871   3.406   3.151   9.534  0.2736  1.8350  1.3610
  106OSM   H11G10872   3.486   2.991   9.530 -0.8762 -0.0141 -0.9588
  106OSM   C12F10873   3.595   3.144   9.428 -0.9974 -0.4181  0.3401
  106OSM   H12F10874   3.693   3.092   9.421 -0.3834  0.7925 -0.3892
  106OSM   H12G10875   3.600   3.255   9.434 -2.6402 -0.2788 -0.1308
  106OSM   C13F10876   3.524   3.101   9.294 -0.1748 -0.3352  0.2418
  106OSM   H13F10877   3.433   3.162   9.276  0.4390 -0.4592 -4.2825
  106OSM   H13G10878   3.494   2.995   9.308 -1.6660 -0.1865 -1.5010
  106OSM   C14F10879   3.614   3.112   9.178 -0.0757  0.1264  0.4854
  106OSM   H14F10880   3.702   3.047   9.197 -1.1182 -1.8866 -1.0535
  106OSM   H14G10881   3.647   3.214   9.153 -1.5969  0.0643 -2.1714
  106OSM   C15F10882   3.552   3.062   9.045 -0.2980  0.4622  0.3372
  106OSM   H15F10883   3.454   3.113   9.038 -0.4719  0.1281  0.3371
  106OSM   H15G10884   3.531   2.953   9.047 -0.8686  0.5477 -0.5036
  106OSM   C16F10885   3.636   3.090   8.919 -0.4294  0.8442  0.1220
  106OSM   H16F10886   3.735   3.043   8.935 -0.0629  1.7092  0.4968
  106OSM   H16G10887   3.658   3.199   8.925  0.8649  0.5278  3.8602
  106OSM   C17F10888   3.567   3.040   8.787  0.3927  0.2905  0.0336
  106OSM   H17F10889   3.475   3.098   8.766  0.3490  0.6398  1.0971
  106OSM   H17G10890   3.536   2.937   8.816  1.1711 -0.0700 -0.3620
  106OSM   C18F10891   3.648   3.025   8.658  0.8925  0.1798 -0.0936
  106OSM   H18F10892   3.731   2.951   8.664  0.0764 -0.6721  0.9519
  106OSM   H18G10893   3.683   3.127   8.632  0.3193  1.0579  2.2769
  106OSM   H18H10894   3.584   2.984   8.577  0.9020  1.1043 -0.5765
  107OSM      N10895   5.002   0.339  11.325  0.2882 -0.5697  0.2284
  107OSM    C1510896   5.078   0.467  11.338  0.0316  0.3451 -0.5213
  107OSM   H15A10897   5.160   0.451  11.407 -0.0620 -0.4564 -0.5933
  107OSM   H15B10898   5.008   0.543  11.369 -0.0298 -0.3341  1.1041
  107OSM   H15C10899   5.119   0.491  11.241  0.8620 -0.2820 -0.3430
  107OSM    C1410900   5.103   0.229  11.326 -0.0158 -0.9647  0.2284
  107OSM   H14A10901   5.062   0.131  11.310 -4.8043  0.3373  2.5476
  107OSM   H14B10902   5.166   0.227  11.414 -0.0399  1.4072  0.3676
  107OSM   H14C10903   5.171   0.253  11.246 -2.5598  0.2686 -1.6842
  107OSM    C1310904   4.927   0.320  11.452  0.3457  0.1492  0.4084
  107OSM   H13A10905   4.869   0.404  11.489 -2.3213 -1.0550 -0.8068
  107OSM   H13B10906   5.001   0.298  11.528  0.8989 -1.3304 -0.5288
  107OSM   H13C10907   4.857   0.238  11.452  0.0664  0.3838  0.7481
  107OSM    C1210908   4.913   0.339  11.204 -0.0111  0.4333 -0.3125
  107OSM   H12A10909   4.847   0.422  11.223 -1.7098 -0.6722 -1.1039
  107OSM   H12B10910   4.857   0.247  11.208  2.6161 -1.2437  0.4376
  107OSM    C1110911   4.990   0.363  11.070  0.2405 -0.1165  0.8803
  107OSM   H11A10912   5.061   0.448  11.077  1.7749 -0.9103 -2.8406
  107OSM   H11B10913   4.925   0.402  10.989  3.4695  2.7561 -0.5801
  107OSM      P10914   4.992   0.139  10.951  0.5082  0.2244 -0.1857
  107OSM    O1310915   5.080   0.025  10.971  0.5257  0.5309 -0.0839
  107OSM    O1410916   4.850   0.124  10.991 -0.0580 -0.4577  0.1508
  107OSM    O1110917   5.007   0.173  10.801  0.4609 -0.1598  0.3143
  107OSM    O1210918   5.065   0.256  11.022  0.3474 -0.5829  0.8375
  107OSM    C1S10919   5.121   0.230  10.729  0.9585 -0.7273 -0.1205
  107OSM    H1S10920   5.216   0.180  10.758  0.8823  0.0357  1.5582
  107OSM    H1T10921   5.121   0.340  10.746  0.1921  0.0356 -4.1052
  107OSM     NF10922   5.215   0.211  10.496 -0.1038 -0.1404  0.0445
  107OSM    HNF10923   5.240   0.300  10.458  0.4955  0.1216  1.0258
  107OSM    C2S10924   5.096   0.218  10.575  0.4337  0.3719 -0.1067
  107OSM    H2S10925   5.040   0.127  10.547 -2.1918  1.9175 -0.1909
  107OSM    C3S10926   5.001   0.341  10.537 -0.0981 -0.8526  0.0399
  107OSM    H3S10927   5.067   0.430  10.535 -0.7268 -0.3947 -0.2691
  107OSM     O310928   4.896   0.369  10.628  0.0872  0.2620  0.1127
  107OSM    HO310929   4.906   0.304  10.697  0.3505  0.2401  0.0550
  107OSM    C4S10930   4.940   0.322  10.391 -0.1458  0.0063 -0.3963
  107OSM    H4S10931   5.019   0.343  10.317 -0.3115 -0.1954 -0.6337
  107OSM    C5S10932   4.820   0.261  10.364  0.0574  0.2419 -0.2553
  107OSM    H5S10933   4.767   0.198  10.437 -0.7406 -0.4293 -1.3834
  107OSM    C6S10934   4.758   0.229  10.231 -0.4115 -0.5144 -0.2497
  107OSM    H6S10935   4.657   0.274  10.223 -0.2251 -0.1454 -0.5928
  107OSM    H6T10936   4.736   0.121  10.235 -1.1797 -0.3214  2.5748
  107OSM    C7S10937   4.843   0.254  10.107 -0.1069 -0.4325 -0.6352
  107OSM    H7S10938   4.929   0.185  10.120 -0.9097 -1.4071 -0.3984
  107OSM    H7T10939   4.869   0.362  10.115 -0.4803 -0.3016 -1.2059
  107OSM    C8S10940   4.764   0.212   9.981  0.4052  0.0454 -0.0862
  107OSM    H8S10941   4.689   0.293   9.978  0.0859 -0.2503 -0.1363
  107OSM    H8T10942   4.705   0.123  10.014 -1.9591  1.4962 -0.1879
  107OSM    C9S10943   4.861   0.192   9.855  0.1776  0.5909 -0.1506
  107OSM    H9S10944   4.929   0.109   9.886 -0.5991 -0.8701 -2.1780
  107OSM    H9T10945   4.923   0.284   9.857  0.6847  0.2944  2.9453
  107OSM   C10S10946   4.788   0.159   9.729 -0.1827 -0.0193 -0.1170
  107OSM   H10S10947   4.700   0.226   9.716  0.8441  0.8472 -3.4437
  107OSM   H10T10948   4.768   0.050   9.725  1.8105 -0.6441  3.0708
  107OSM   C11S10949   4.872   0.191   9.608 -0.4558  0.0979  0.0022
  107OSM   H11S10950   4.953   0.114   9.610  2.2698  2.7577  0.2378
  107OSM   H11T10951   4.925   0.289   9.613  0.7046 -0.3650 -1.9872
  107OSM   C12S10952   4.801   0.190   9.472 -0.6206  0.7453  0.0049
  107OSM   H12S10953   4.736   0.279   9.469 -0.2802  1.0794  1.6121
  107OSM   H12T10954   4.733   0.102   9.465  0.5119 -0.1993  0.4734
  107OSM   C13S10955   4.899   0.197   9.356  0.3818 -0.3477  0.5432
  107OSM   H13S10956   4.969   0.113   9.373 -0.8532 -1.4274  0.4167
  107OSM   H13T10957   4.963   0.288   9.353  0.1755 -0.2220 -0.4798
  107OSM   C14S10958   4.838   0.167   9.219  0.3236 -0.0421  0.1728
  107OSM   H14S10959   4.749   0.232   9.202  1.1042  1.2557  0.9101
  107OSM   H14T10960   4.805   0.061   9.227  2.7611 -0.7510  2.2453
  107OSM   C15S10961   4.926   0.186   9.091 -0.1262  0.4978 -0.0488
  107OSM   H15S10962   5.025   0.137   9.106 -0.5995 -0.0887  1.3820
  107OSM   H15T10963   4.951   0.292   9.071 -1.5580  0.6311 -1.2220
  107OSM   C16S10964   4.878   0.121   8.963 -0.3179  0.4977  0.0232
  107OSM   H16S10965   4.771   0.146   8.947 -0.3126  0.9713  0.6855
  107OSM   H16T10966   4.886   0.010   8.969 -2.7078  0.3114  0.9154
  107OSM   C17S10967   4.969   0.152   8.844  0.0892 -0.1652 -0.6649
  107OSM   H17S10968   5.076   0.139   8.872  0.1215  1.5856  0.1087
  107OSM   H17T10969   4.947   0.259   8.828  2.2596  0.4523  0.0803
  107OSM   C18S10970   4.935   0.086   8.717  0.0480  0.2792  0.5270
  107OSM   H18S10971   4.935  -0.025   8.725  2.0880  0.2443  0.3302
  107OSM   H18T10972   5.006   0.110   8.635 -0.3412  0.5851  0.2745
  107OSM   H18U10973   4.832   0.115   8.685 -0.5573 -1.4431  0.7807
  107OSM    C1F10974   5.296   0.105  10.496  0.3128 -0.0970  0.2203
  107OSM     OF10975   5.255  -0.006  10.534 -0.1869  0.1188 -0.4605
  107OSM    C2F10976   5.422   0.122  10.430 -0.1068  0.1470  0.1433
  107OSM    H2F10977   5.452   0.228  10.441 -1.2933  0.5119 -0.0629
  107OSM    H2G10978   5.399   0.114  10.322 -1.1168  3.3103  0.0284
  107OSM    C3F10979   5.539   0.032  10.478 -0.2137  0.6484  0.5191
  107OSM    H3F10980   5.502  -0.072  10.493 -1.2626  1.0390  0.7068
  107OSM    H3G10981   5.573   0.064  10.578  2.3600 -1.8292  0.5653
  107OSM    C4F10982   5.668   0.039  10.391 -0.2284  0.3597  0.6975
  107OSM    H4F10983   5.759   0.025  10.453 -1.0326 -0.1917  1.7993
  107OSM    H4G10984   5.685   0.137  10.342 -2.1846 -0.8254 -2.6742
  107OSM    C5F10985   5.669  -0.063  10.281 -0.2200 -0.2295  0.1358
  107OSM    H5F10986   5.566  -0.079  10.242 -0.9829  1.1535  1.4836
  107OSM    H5G10987   5.678  -0.161  10.332 -1.0961 -0.0377  0.6706
  107OSM    C6F10988   5.789  -0.047  10.185  0.3101  0.1904 -0.2105
  107OSM    H6F10989   5.875  -0.034  10.254 -0.8623  1.2141  1.1329
  107OSM    H6G10990   5.778   0.049  10.128  0.6714  0.2666 -0.1552
  107OSM    C7F10991   5.822  -0.168  10.094 -0.4171  0.8608 -0.0817
  107OSM    H7F10992   5.853  -0.245  10.168 -0.4652 -0.7585 -1.6805
  107OSM    H7G10993   5.910  -0.152  10.028  0.4214 -0.5987  0.6368
  107OSM    C8F10994   5.705  -0.217  10.003 -0.1414  0.2864  0.1083
  107OSM    H8F10995   5.624  -0.248  10.073  0.4852  0.4151  0.9070
  107OSM    H8G10996   5.740  -0.302   9.941 -0.3485  1.2209 -1.3140
  107OSM    C9F10997   5.637  -0.117   9.909 -0.3869  1.4528 -0.0366
  107OSM    H9F10998   5.544  -0.083   9.957 -0.3165 -0.7775  1.8729
  107OSM   C10F10999   5.675  -0.070   9.787  0.3431  0.4011 -0.0736
  107OSM   H10F11000   5.613   0.003   9.733  0.6202  2.3432  2.1041
  107OSM   C11F11001   5.801  -0.120   9.716 -0.4902 -0.0631 -0.5081
  107OSM   H11F11002   5.867  -0.191   9.769  0.2354  1.4639  0.7315
  107OSM   H11G11003   5.868  -0.031   9.715 -0.3265 -0.1768  0.1830
  107OSM   C12F11004   5.782  -0.167   9.569  0.0940  0.3276 -0.1369
  107OSM   H12F11005   5.688  -0.226   9.568  0.4864 -0.3094 -2.2336
  107OSM   H12G11006   5.855  -0.244   9.538 -1.0425 -1.1669  0.7489
  107OSM   C13F11007   5.771  -0.045   9.471  0.2592  0.2165 -1.2051
  107OSM   H13F11008   5.870   0.005   9.469  0.9114 -0.9481  0.2608
  107OSM   H13G11009   5.696   0.029   9.506  1.6856  0.4598  1.5740
  107OSM   C14F11010   5.741  -0.084   9.323  0.0751 -0.5247 -0.3907
  107OSM   H14F11011   5.634  -0.113   9.316 -0.1605  0.1083  0.4713
  107OSM   H14G11012   5.800  -0.178   9.308 -2.9086 -2.8474  1.3904
  107OSM   C15F11013   5.772   0.023   9.219  0.1832 -0.0613  0.3332
  107OSM   H15F11014   5.871   0.069   9.240  1.5037 -1.1995 -2.7291
  107OSM   H15G11015   5.696   0.103   9.211 -0.9379 -1.2121 -1.2076
  107OSM   C16F11016   5.789  -0.024   9.070  0.6195  0.1983  0.1148
  107OSM   H16F11017   5.862  -0.107   9.056  1.2341  0.3168  2.2877
  107OSM   H16G11018   5.821   0.069   9.018 -0.8495  0.4520 -0.3871
  107OSM   C17F11019   5.655  -0.065   9.004  0.2227 -0.1755 -0.3167
  107OSM   H17F11020   5.607   0.032   8.980  0.2012 -0.1902 -0.3320
  107OSM   H17G11021   5.594  -0.121   9.078 -2.9508  1.4740 -1.4917
  107OSM   C18F11022   5.674  -0.154   8.881 -0.6447  0.1924 -0.0527
  107OSM   H18F11023   5.682  -0.261   8.910 -0.8337 -0.5465 -2.4536
  107OSM   H18G11024   5.757  -0.128   8.811 -0.5254  0.9641  0.3603
  107OSM   H18H11025   5.578  -0.152   8.826 -0.4727 -2.4578 -0.5788
  108OSM      N11026   1.371   4.909  10.752  0.2467 -0.1866 -0.3407
  108OSM    C1511027   1.519   4.950  10.758  0.6270  0.0840 -0.4342
  108OSM   H15A11028   1.551   4.995  10.851 -0.4169 -0.4158  0.1826
  108OSM   H15B11029   1.531   5.022  10.679 -2.6207  0.9103 -0.2999
  108OSM   H15C11030   1.571   4.856  10.741  1.6145  0.3989  0.6940
  108OSM    C1411031   1.296   5.041  10.795  0.9677  0.3856  0.3304
  108OSM   H14A11032   1.330   5.080  10.890  0.5732  0.5043  0.4235
  108OSM   H14B11033   1.193   5.019  10.817  1.1848 -2.3837 -1.0284
  108OSM   H14C11034   1.293   5.109  10.711 -2.4566 -1.7776 -1.4991
  108OSM    C1311035   1.329   4.885  10.616 -0.2260  0.3589 -0.2404
  108OSM   H13A11036   1.222   4.884  10.604 -0.4625  0.8647  1.5693
  108OSM   H13B11037   1.373   4.797  10.572  1.6613  2.5369 -3.1535
  108OSM   H13C11038   1.356   4.967  10.550  1.6393 -1.2112 -1.5444
  108OSM    C1211039   1.335   4.812  10.862  0.3317  0.2717  0.1451
  108OSM   H12A11040   1.229   4.799  10.878  0.7210 -3.7853  0.5405
  108OSM   H12B11041   1.368   4.854  10.955  1.1955 -0.0052 -0.0279
  108OSM    C1111042   1.393   4.670  10.857  0.4431  0.0799  0.0340
  108OSM   H11A11043   1.369   4.618  10.952 -2.0589 -0.3145 -0.7471
  108OSM   H11B11044   1.503   4.684  10.848  0.2275  2.8299  0.6477
  108OSM      P11045   1.442   4.534  10.637 -0.0500 -0.1181  0.6210
  108OSM    O1311046   1.471   4.637  10.529  0.4874 -0.4961 -0.1156
  108OSM    O1411047   1.556   4.465  10.703  0.2258  0.1444 -0.0676
  108OSM    O1111048   1.343   4.428  10.574  0.0720  0.3930 -0.1406
  108OSM    O1211049   1.338   4.598  10.745 -1.1069  0.4302  0.5293
  108OSM    C1S11050   1.228   4.455  10.500  0.3833 -0.1060  0.1409
  108OSM    H1S11051   1.222   4.565  10.482  0.9814 -0.2578 -1.1572
  108OSM    H1T11052   1.133   4.416  10.541  0.3581  0.1631  0.3420
  108OSM     NF11053   1.127   4.446  10.280 -0.1874 -0.1354 -0.6423
  108OSM    HNF11054   1.048   4.392  10.307 -0.8011  1.5229  1.0236
  108OSM    C2S11055   1.242   4.398  10.355 -0.8825 -0.6473 -0.7483
  108OSM    H2S11056   1.338   4.443  10.320 -0.3621 -1.3685 -0.2788
  108OSM    C3S11057   1.266   4.244  10.361 -0.0062 -0.5231 -0.4929
  108OSM    H3S11058   1.183   4.191  10.412 -0.9032 -1.9272 -3.2417
  108OSM     O311059   1.384   4.220  10.434 -1.0154  0.8152 -0.2606
  108OSM    HO311060   1.407   4.305  10.474  2.0623  0.0755 -0.2129
  108OSM    C4S11061   1.281   4.194  10.222 -0.4286 -0.4778  0.3401
  108OSM    H4S11062   1.381   4.216  10.183  0.4161 -0.4151  2.4697
  108OSM    C5S11063   1.206   4.107  10.157 -0.0368  0.1581  0.1103
  108OSM    H5S11064   1.113   4.068  10.201 -1.1226  1.3339 -1.0592
  108OSM    C6S11065   1.214   4.042  10.027  0.0009 -0.2608  0.2775
  108OSM    H6S11066   1.124   3.977  10.026  0.9474 -1.6321  1.2819
  108OSM    H6T11067   1.312   3.989  10.030  0.0710 -0.0895  1.3746
  108OSM    C7S11068   1.214   4.124   9.899  0.3111  0.0203 -0.3660
  108OSM    H7S11069   1.297   4.194   9.920 -0.0172  0.2637  0.1335
  108OSM    H7T11070   1.116   4.176   9.898  0.2125 -0.1558 -0.0746
  108OSM    C8S11071   1.232   4.046   9.769  0.3282 -0.8924  0.0672
  108OSM    H8S11072   1.149   3.975   9.749 -0.3251 -0.8497  2.3916
  108OSM    H8T11073   1.324   3.986   9.782 -0.5788 -2.1985  0.7226
  108OSM    C9S11074   1.251   4.133   9.647  0.2070 -0.2216  0.1669
  108OSM    H9S11075   1.341   4.195   9.671  0.5068  0.2542 -2.0197
  108OSM    H9T11076   1.161   4.198   9.636  0.6450  0.1387 -1.3911
  108OSM   C10S11077   1.278   4.052   9.525  0.3546  0.0775  0.6941
  108OSM   H10S11078   1.379   4.012   9.545  0.8486  1.1817  0.5009
  108OSM   H10T11079   1.279   4.117   9.434 -0.9966 -0.9000 -0.0606
  108OSM   C11S11080   1.183   3.938   9.499  0.6585  0.8734  0.2143
  108OSM   H11S11081   1.077   3.971   9.493  0.5210  0.4362  0.2576
  108OSM   H11T11082   1.190   3.863   9.580  0.3366  0.9074  0.2744
  108OSM   C12S11083   1.212   3.874   9.364 -0.3177  0.4156  0.4317
  108OSM   H12S11084   1.318   3.842   9.369 -0.1645  1.0471  1.6548
  108OSM   H12T11085   1.192   3.952   9.288 -0.6613  1.2344  1.3345
  108OSM   C13S11086   1.124   3.753   9.324 -0.5011  0.2344  0.1614
  108OSM   H13S11087   1.021   3.778   9.356  0.8754  2.8238  3.1454
  108OSM   H13T11088   1.162   3.662   9.376 -0.3989 -0.2099 -0.6785
  108OSM   C14S11089   1.135   3.726   9.174 -0.4266 -0.7552  0.5673
  108OSM   H14S11090   1.244   3.707   9.163  0.2205  1.8119  1.7613
  108OSM   H14T11091   1.116   3.820   9.119 -0.0083 -0.4721  0.8946
  108OSM   C15S11092   1.051   3.612   9.118  0.0160  0.2355 -0.0741
  108OSM   H15S11093   0.947   3.632   9.152  0.7209  2.4960  1.0172
  108OSM   H15T11094   1.083   3.517   9.165 -0.5555 -0.9632 -2.0021
  108OSM   C16S11095   1.040   3.586   8.970 -0.3639 -0.1238 -0.8266
  108OSM   H16S11096   1.138   3.540   8.943 -0.8554 -1.4748 -0.3507
  108OSM   H16T11097   1.036   3.669   8.896  0.6566  0.0451 -0.7089
  108OSM   C17S11098   0.931   3.483   8.938 -0.6027  0.3275 -0.1318
  108OSM   H17S11099   0.871   3.475   9.032  0.3039 -1.1427  0.3572
  108OSM   H17T11100   0.980   3.384   8.922 -0.3551  0.2800  0.8419
  108OSM   C18S11101   0.847   3.513   8.809 -0.2316 -0.0574 -0.1665
  108OSM   H18S11102   0.802   3.614   8.808 -1.8417 -0.7420 -0.7018
  108OSM   H18T11103   0.763   3.444   8.786 -1.7351  0.7631  2.3908
  108OSM   H18U11104   0.917   3.523   8.723 -2.1111 -0.9790 -1.8762
  108OSM    C1F11105   1.119   4.565  10.223 -0.1507  0.7192 -0.1190
  108OSM     OF11106   1.217   4.641  10.235 -0.2635  0.0277 -0.2674
  108OSM    C2F11107   0.992   4.601  10.145 -0.6093 -0.7852  0.8238
  108OSM    H2F11108   0.959   4.697  10.191  2.3296  1.1297 -0.7694
  108OSM    H2G11109   0.921   4.515  10.138  0.7372 -1.8116 -1.5538
  108OSM    C3F11110   1.043   4.638  10.007 -0.0859  1.1768  0.4276
  108OSM    H3F11111   0.968   4.623   9.926 -0.7576 -0.2654  1.2694
  108OSM    H3G11112   1.127   4.570   9.980 -0.5553  0.4180  0.8322
  108OSM    C4F11113   1.082   4.789   9.994  0.5578  0.1184  0.1435
  108OSM    H4F11114   1.177   4.802  10.050 -0.6922  1.0037  2.1678
  108OSM    H4G11115   1.007   4.857  10.040 -0.9530 -1.5156  0.2222
  108OSM    C5F11116   1.107   4.821   9.850  0.2304  0.1615  0.6760
  108OSM    H5F11117   1.019   4.810   9.783  1.2966 -0.5674 -0.6648
  108OSM    H5G11118   1.186   4.755   9.807 -1.5800 -0.4115 -2.0187
  108OSM    C6F11119   1.149   4.966   9.836  0.8561  0.4931  0.3714
  108OSM    H6F11120   1.252   4.984   9.872  0.7976  2.0371 -0.1698
  108OSM    H6G11121   1.086   5.027   9.905  0.3084  1.5470 -1.0185
  108OSM    C7F11122   1.127   5.025   9.698  0.9099  0.6532  0.2528
  108OSM    H7F11123   1.162   5.131   9.707  1.3285  0.5167  0.2834
  108OSM    H7G11124   1.020   5.017   9.672  0.6875 -0.0419  1.3320
  108OSM    C8F11125   1.190   4.942   9.587  0.0829  0.4581 -0.2052
  108OSM    H8F11126   1.140   4.843   9.582 -1.2315  1.0937 -0.1185
  108OSM    H8G11127   1.296   4.925   9.615  0.7030 -1.2113 -3.1841
  108OSM    C9F11128   1.203   5.013   9.456 -0.2695 -0.1043 -0.0494
  108OSM    H9F11129   1.267   5.103   9.447 -1.4910  0.6489 -1.8430
  108OSM   C10F11130   1.128   4.984   9.340 -0.1377  0.4732 -0.0560
  108OSM   H10F11131   1.162   5.054   9.262  0.4904 -0.1300 -0.3334
  108OSM   C11F11132   1.012   4.883   9.317  0.4436 -0.2147  0.5356
  108OSM   H11F11133   0.915   4.926   9.282  0.0646 -1.9145 -0.6050
  108OSM   H11G11134   0.989   4.851   9.420  0.3097 -1.0440  0.2523
  108OSM   C12F11135   1.034   4.774   9.210  0.4203 -0.8760 -0.4636
  108OSM   H12F11136   0.950   4.702   9.209  0.3941 -0.8682 -1.8070
  108OSM   H12G11137   1.125   4.719   9.241  0.5572 -0.8848 -0.8693
  108OSM   C13F11138   1.046   4.840   9.074 -0.5551  0.3637 -0.7184
  108OSM   H13F11139   1.137   4.903   9.064  1.5283 -2.5355 -1.2018
  108OSM   H13G11140   0.959   4.908   9.057 -1.2751 -1.2411 -4.3491
  108OSM   C14F11141   1.057   4.734   8.968 -0.4362  0.0990  0.1307
  108OSM   H14F11142   0.986   4.649   8.982  1.0813 -0.9736  1.7917
  108OSM   H14G11143   1.155   4.685   8.984  0.0333  0.8093 -0.5387
  108OSM   C15F11144   1.041   4.779   8.829  0.0952  0.4465 -0.8039
  108OSM   H15F11145   1.126   4.845   8.799 -0.6197  0.7694 -2.2144
  108OSM   H15G11146   0.952   4.847   8.828 -0.6087 -0.0921  3.7557
  108OSM   C16F11147   1.021   4.666   8.725  0.1435  0.0227 -0.2323
  108OSM   H16F11148   1.006   4.709   8.624  1.2132 -0.8339 -0.7727
  108OSM   H16G11149   0.926   4.613   8.746  2.3073 -3.9245  0.5807
  108OSM   C17F11150   1.133   4.559   8.704  0.5014  0.1625 -0.2296
  108OSM   H17F11151   1.143   4.490   8.790  1.6469 -2.0996 -2.0505
  108OSM   H17G11152   1.223   4.621   8.682 -1.0144  2.0411 -1.5424
  108OSM   C18F11153   1.118   4.470   8.580 -0.0937 -0.2362 -0.0561
  108OSM   H18F11154   1.190   4.386   8.580 -0.3362 -0.4705  1.3555
  108OSM   H18G11155   1.137   4.529   8.487 -1.0783 -3.2276 -2.3094
  108OSM   H18H11156   1.017   4.430   8.556  0.5090 -1.8526  0.0262
  109OSM      N11157   1.703   2.776  11.065  0.4626  0.1372 -0.3475
  109OSM    C1511158   1.786   2.869  10.985 -0.0554 -0.0342 -0.1944
  109OSM   H15A11159   1.867   2.809  10.947 -0.7961  0.1276 -2.1420
  109OSM   H15B11160   1.829   2.942  11.053 -2.1495  2.8539 -1.7350
  109OSM   H15C11161   1.739   2.926  10.906  1.5586  2.0121  0.2242
  109OSM    C1411162   1.785   2.732  11.179 -0.3713  0.9422  0.1976
  109OSM   H14A11163   1.737   2.654  11.237  2.2082 -0.3534  0.7292
  109OSM   H14B11164   1.807   2.808  11.252  1.1758  0.0819  0.6702
  109OSM   H14C11165   1.880   2.698  11.141  1.0290  1.8728  2.6707
  109OSM    C1311166   1.592   2.846  11.121  0.6550  0.1753  0.5028
  109OSM   H13A11167   1.576   2.824  11.226 -0.9412 -0.0831  0.2279
  109OSM   H13B11168   1.508   2.823  11.058 -0.6469  0.6152  1.9985
  109OSM   H13C11169   1.594   2.954  11.121  0.8824  0.1887  1.4824
  109OSM    C1211170   1.670   2.654  10.988  0.0623  0.1319 -0.1830
  109OSM   H12A11171   1.614   2.584  11.049  2.0013 -1.1321  0.2497
  109OSM   H12B11172   1.760   2.605  10.954 -0.8107 -0.3163 -1.9256
  109OSM    C1111173   1.586   2.679  10.856 -0.5390  0.3233 -0.1165
  109OSM   H11A11174   1.565   2.583  10.804 -0.3150  0.6821 -0.9002
  109OSM   H11B11175   1.653   2.742  10.794 -0.3306  1.2717  1.0406
  109OSM      P11176   1.332   2.675  10.921  0.4514 -0.4609  0.0812
  109OSM    O1311177   1.352   2.529  10.930 -0.1689 -0.1993 -0.1704
  109OSM    O1411178   1.292   2.738  11.048  0.4814  0.1851 -0.0278
  109OSM    O1111179   1.216   2.698  10.818  0.2129 -0.1579  0.4616
  109OSM    O1211180   1.465   2.756  10.873 -0.7105  0.3119  0.5465
  109OSM    C1S11181   1.244   2.713  10.673 -0.5822  1.0585  0.6331
  109OSM    H1S11182   1.333   2.778  10.657  1.2646 -0.9573  2.1198
  109OSM    H1T11183   1.154   2.756  10.625 -1.1895  0.6354  1.3599
  109OSM     NF11184   1.294   2.621  10.461  0.0172  0.9181  0.1412
  109OSM    HNF11185   1.211   2.620  10.405  0.1769  0.5355 -0.0928
  109OSM    C2S11186   1.271   2.577  10.594 -0.0786 -0.1465  0.0759
  109OSM    H2S11187   1.367   2.542  10.638  0.6932  2.9713  1.0792
  109OSM    C3S11188   1.157   2.476  10.614 -0.0043 -0.5356 -0.0325
  109OSM    H3S11189   1.063   2.519  10.574  0.2425  0.6478  0.6108
  109OSM     O311190   1.151   2.427  10.748  0.5791 -0.2601  0.3089
  109OSM    HO311191   1.218   2.466  10.804  0.0517  0.3489  0.5330
  109OSM    C4S11192   1.178   2.356  10.526 -0.6135 -0.2764 -0.1450
  109OSM    H4S11193   1.147   2.383  10.423  1.2848 -0.9577 -0.9408
  109OSM    C5S11194   1.238   2.233  10.550  0.3301 -0.0439 -0.0855
  109OSM    H5S11195   1.276   2.205  10.650 -1.2612 -0.9861  0.2956
  109OSM    C6S11196   1.240   2.130  10.434 -1.1333  0.1996 -0.4614
  109OSM    H6S11197   1.207   2.032  10.474  2.0766 -1.4822 -1.5864
  109OSM    H6T11198   1.346   2.123  10.400  0.2698 -0.3881  3.5311
  109OSM    C7S11199   1.135   2.152  10.321  0.0984  0.2361  0.1499
  109OSM    H7S11200   1.141   2.256  10.281  0.5846 -0.9180 -3.0704
  109OSM    H7T11201   1.033   2.162  10.364 -0.3719 -0.5692 -0.7597
  109OSM    C8S11202   1.137   2.055  10.210  0.3117  0.3622 -0.1609
  109OSM    H8S11203   1.145   1.957  10.262 -0.1507  0.3661 -0.0760
  109OSM    H8T11204   1.232   2.080  10.159  0.7701  0.0367  0.5213
  109OSM    C9S11205   1.013   2.040  10.123 -0.1727  0.1956  0.8690
  109OSM    H9S11206   0.985   2.138  10.080  1.6562 -0.5733 -2.3845
  109OSM    H9T11207   0.926   2.014  10.187  0.2336  0.7254  1.6494
  109OSM   C10S11208   1.039   1.952  10.013 -0.1178  0.0321 -0.0135
  109OSM   H10S11209   1.042   1.844  10.041 -0.9528 -0.3550 -1.3334
  109OSM   H10T11210   1.128   1.988   9.957 -1.0725 -0.0207 -1.6203
  109OSM   C11S11211   0.938   1.954   9.894  0.2874 -0.6309  0.2182
  109OSM   H11S11212   0.907   2.059   9.878  0.3023 -0.6910 -0.2482
  109OSM   H11T11213   0.840   1.910   9.925 -0.2077  0.2551 -0.0611
  109OSM   C12S11214   0.995   1.884   9.772 -0.4237  0.0696  0.1673
  109OSM   H12S11215   1.021   1.780   9.801 -1.1751  0.1453  1.1760
  109OSM   H12T11216   1.079   1.948   9.736  0.1753 -0.2428  0.9693
  109OSM   C13S11217   0.887   1.863   9.662 -0.0704 -0.3676  0.4715
  109OSM   H13S11218   0.839   1.960   9.636  1.7927  0.1375 -1.4895
  109OSM   H13T11219   0.814   1.793   9.707  0.6747 -1.1493  0.4775
  109OSM   C14S11220   0.942   1.815   9.529  0.0831  0.3462 -0.2925
  109OSM   H14S11221   0.851   1.783   9.474 -1.3838 -0.0579  2.2253
  109OSM   H14T11222   1.017   1.733   9.535  0.8851  1.1043  0.3923
  109OSM   C15S11223   1.023   1.922   9.460 -0.0223  0.0082  0.2185
  109OSM   H15S11224   1.109   1.956   9.521 -0.0592 -0.2072  0.3926
  109OSM   H15T11225   0.954   2.008   9.448  0.9837  0.7479 -0.5646
  109OSM   C16S11226   1.073   1.886   9.315  0.2036 -0.3369 -0.2565
  109OSM   H16S11227   1.138   1.797   9.325  0.0205 -1.0030 -3.6794
  109OSM   H16T11228   1.128   1.973   9.271 -0.5057  0.0969 -0.3037
  109OSM   C17S11229   0.961   1.847   9.218  1.0018 -0.3523 -0.1414
  109OSM   H17S11230   0.885   1.928   9.210  2.3839  1.0954  0.7364
  109OSM   H17T11231   0.916   1.755   9.260 -0.6942  0.5788  0.1878
  109OSM   C18S11232   1.012   1.818   9.074 -0.0356  0.0777 -0.1512
  109OSM   H18S11233   1.038   1.912   9.021 -2.2616 -0.2784 -2.0173
  109OSM   H18T11234   0.936   1.768   9.010 -0.5077  1.6404 -0.8742
  109OSM   H18U11235   1.102   1.752   9.081 -1.2664 -1.6535  0.0185
  109OSM    C1F11236   1.413   2.667  10.422  1.1564 -0.7500 -0.0833
  109OSM     OF11237   1.509   2.657  10.496 -0.1685  0.2071  0.2626
  109OSM    C2F11238   1.416   2.738  10.294 -0.1938 -0.0134  0.1725
  109OSM    H2F11239   1.491   2.819  10.302 -2.1962  2.1729 -1.6784
  109OSM    H2G11240   1.321   2.788  10.267  1.0165  2.0219 -0.5526
  109OSM    C3F11241   1.462   2.646  10.177  0.0147 -0.4863  0.0678
  109OSM    H3F11242   1.392   2.561  10.162 -1.8787  0.7637  1.3273
  109OSM    H3G11243   1.558   2.603  10.212  1.1796  1.2375 -0.8465
  109OSM    C4F11244   1.473   2.730  10.053  0.6775 -1.1317  0.0898
  109OSM    H4F11245   1.545   2.813  10.074  2.1782 -1.9221 -1.6779
  109OSM    H4G11246   1.388   2.797  10.031  1.5736  1.0002  2.5344
  109OSM    C5F11247   1.509   2.652   9.920 -0.3958 -0.3308 -0.8004
  109OSM    H5F11248   1.418   2.587   9.913 -0.2428 -0.5125 -1.1727
  109OSM    H5G11249   1.594   2.583   9.933  0.6893  1.0495 -0.3752
  109OSM    C6F11250   1.521   2.741   9.798 -0.6459  0.0577 -0.3060
  109OSM    H6F11251   1.465   2.833   9.824 -0.0219  0.3401  0.0478
  109OSM    H6G11252   1.483   2.698   9.703 -0.5423  1.2823 -0.9167
  109OSM    C7F11253   1.670   2.773   9.770 -0.5145 -0.0088  0.1172
  109OSM    H7F11254   1.721   2.676   9.748  3.2683  2.2314 -2.0571
  109OSM    H7G11255   1.722   2.813   9.860  0.9588  1.4585 -1.3317
  109OSM    C8F11256   1.681   2.869   9.657  0.2221 -0.5188 -0.2110
  109OSM    H8F11257   1.788   2.896   9.658  0.4007 -1.2157  0.5769
  109OSM    H8G11258   1.631   2.965   9.684  2.9367  0.9962 -0.2412
  109OSM    C9F11259   1.648   2.807   9.524  0.1628  0.6445  0.5914
  109OSM    H9F11260   1.550   2.833   9.481 -0.7685 -0.1976  2.1351
  109OSM   C10F11261   1.729   2.720   9.457  1.1292 -0.1729 -0.2295
  109OSM   H10F11262   1.691   2.692   9.358  0.2952  0.0709  0.0140
  109OSM   C11F11263   1.870   2.681   9.502 -0.3773 -0.0797  0.5139
  109OSM   H11F11264   1.867   2.570   9.496  2.1545 -0.1206 -1.7143
  109OSM   H11G11265   1.900   2.720   9.601 -0.8711  3.4278 -0.5931
  109OSM   C12F11266   1.966   2.742   9.401 -1.2673  0.5592  0.0020
  109OSM   H12F11267   2.072   2.732   9.433 -1.5863  0.2271  0.9705
  109OSM   H12G11268   1.939   2.850   9.397  1.1850  1.2148 -1.5986
  109OSM   C13F11269   1.963   2.669   9.260 -0.3179  0.1160  0.1589
  109OSM   H13F11270   1.869   2.684   9.203  0.3411  1.7209 -0.5860
  109OSM   H13G11271   1.960   2.565   9.298  1.5471  1.0640  3.2533
  109OSM   C14F11272   2.083   2.709   9.172  0.0840  0.4209  0.6431
  109OSM   H14F11273   2.175   2.676   9.223  0.1372 -0.0748  0.2325
  109OSM   H14G11274   2.100   2.818   9.153 -1.9876  0.3074 -2.7661
  109OSM   C15F11275   2.067   2.646   9.031 -0.0167  0.5896 -0.3540
  109OSM   H15F11276   1.987   2.695   8.971 -1.0199 -1.2558 -0.5921
  109OSM   H15G11277   2.038   2.539   9.035 -0.5446  0.3274 -5.2212
  109OSM   C16F11278   2.191   2.667   8.943  0.4693 -0.2184  0.1316
  109OSM   H16F11279   2.281   2.627   8.995  2.5678  1.7199 -1.8165
  109OSM   H16G11280   2.206   2.777   8.946 -1.6307  0.0902  1.0603
  109OSM   C17F11281   2.184   2.614   8.800 -0.0082 -0.3338 -0.0538
  109OSM   H17F11282   2.105   2.668   8.744  0.1325  0.7742  0.7829
  109OSM   H17G11283   2.152   2.508   8.795  2.7371 -1.1808 -2.1746
  109OSM   C18F11284   2.313   2.620   8.710 -0.0931 -0.2268  0.8549
  109OSM   H18F11285   2.378   2.537   8.746 -0.5140  0.0924  2.4196
  109OSM   H18G11286   2.363   2.718   8.723 -1.7491  0.9649 -1.2003
  109OSM   H18H11287   2.282   2.616   8.603 -1.2558 -2.1800  1.2211
  110OSM      N11288   2.751   0.760  11.065  0.3280 -0.1982 -0.0020
  110OSM    C1511289   2.668   0.700  11.176  0.0110 -0.0064  0.4677
  110OSM   H15A11290   2.637   0.599  11.154 -2.0522  0.3030  1.7294
  110OSM   H15B11291   2.581   0.761  11.195  0.7141  0.9982  0.5557
  110OSM   H15C11292   2.724   0.693  11.269  1.5744  1.0510 -0.3442
  110OSM    C1411293   2.806   0.889  11.107 -0.3031  0.1931 -0.2522
  110OSM   H14A11294   2.855   0.886  11.204  1.4390  1.1135 -1.0608
  110OSM   H14B11295   2.738   0.972  11.124  0.3879  0.7431 -0.1355
  110OSM   H14C11296   2.884   0.928  11.044 -0.3444  0.2520 -0.2676
  110OSM    C1311297   2.860   0.662  11.034  0.3768 -0.0259 -0.6111
  110OSM   H13A11298   2.921   0.650  11.123 -1.0252 -0.4081  0.3391
  110OSM   H13B11299   2.914   0.706  10.952 -0.7339 -0.9680 -1.8784
  110OSM   H13C11300   2.823   0.565  11.007  0.3783  0.3358 -1.9721
  110OSM    C1211301   2.669   0.776  10.938 -0.4553 -0.2960  0.0127
  110OSM   H12A11302   2.619   0.684  10.914  0.5380 -0.9065  0.2198
  110OSM   H12B11303   2.738   0.792  10.856  0.7974  1.6223  1.3426
  110OSM    C1111304   2.584   0.897  10.930 -0.1837  0.2286 -0.2971
  110OSM   H11A11305   2.528   0.888  10.835 -3.9643 -1.8100  1.9009
  110OSM   H11B11306   2.640   0.993  10.922 -0.0230  0.1705  0.1217
  110OSM      P11307   2.353   0.854  11.038 -0.0111  0.2636 -0.0348
  110OSM    O1311308   2.310   0.796  11.167 -0.4216 -0.1412  0.7701
  110OSM    O1411309   2.273   0.953  10.972  0.1445 -0.4117 -0.3304
  110OSM    O1111310   2.370   0.743  10.936  0.1990 -0.1790  0.4163
  110OSM    O1211311   2.497   0.915  11.044  0.2424 -0.3120  0.0198
  110OSM    C1S11312   2.261   0.652  10.895 -0.2843  0.2156 -0.7965
  110OSM    H1S11313   2.169   0.658  10.957 -0.2995 -0.7688 -0.7172
  110OSM    H1T11314   2.305   0.551  10.906  1.3244  0.8853 -0.8536
  110OSM     NF11315   2.105   0.621  10.718 -0.0182 -0.0955 -0.5545
  110OSM    HNF11316   2.099   0.534  10.669 -0.4505 -1.4923  1.8051
  110OSM    C2S11317   2.233   0.682  10.750 -0.9758 -0.0195 -0.2242
  110OSM    H2S11318   2.230   0.792  10.736  4.1691  0.4401  0.2472
  110OSM    C3S11319   2.351   0.632  10.666 -0.3663 -0.0782 -0.7893
  110OSM    H3S11320   2.359   0.522  10.667  1.3629  0.0215  0.5350
  110OSM     O311321   2.478   0.675  10.711  0.1248  0.0323 -0.3201
  110OSM    HO311322   2.459   0.715  10.796  0.9550  0.8514 -0.4969
  110OSM    C4S11323   2.328   0.686  10.522  0.0782 -0.4401 -0.1029
  110OSM    H4S11324   2.259   0.624  10.463 -0.8951 -1.9088  2.4416
  110OSM    C5S11325   2.383   0.798  10.458  0.0843  0.2687  0.1568
  110OSM    H5S11326   2.430   0.872  10.525 -0.3499  0.3827  0.3336
  110OSM    C6S11327   2.345   0.828  10.316 -0.2427 -0.5016 -0.0553
  110OSM    H6S11328   2.284   0.920  10.306  1.1114  0.6602  1.7468
  110OSM    H6T11329   2.298   0.742  10.265 -0.9953  0.7345 -1.5043
  110OSM    C7S11330   2.469   0.849  10.226  0.2250  0.2002 -0.2302
  110OSM    H7S11331   2.530   0.756  10.226  0.2533  0.2032  1.1361
  110OSM    H7T11332   2.530   0.934  10.265  5.2026 -2.3091 -1.6659
  110OSM    C8S11333   2.435   0.867  10.076 -0.0307 -0.0105 -0.0137
  110OSM    H8S11334   2.380   0.962  10.064 -0.9088 -0.6078 -0.9436
  110OSM    H8T11335   2.378   0.778  10.041 -2.0827  0.4145  2.0502
  110OSM    C9S11336   2.562   0.866   9.994  0.7178 -0.5045 -0.2492
  110OSM    H9S11337   2.616   0.773  10.021  2.2650  1.4046  4.3112
  110OSM    H9T11338   2.621   0.954  10.027  0.0707  1.0043 -2.8038
  110OSM   C10S11339   2.553   0.870   9.843 -0.4693 -0.1479  0.1584
  110OSM   H10S11340   2.504   0.778   9.805 -0.7837 -0.5294  1.4374
  110OSM   H10T11341   2.649   0.868   9.788 -1.9751 -2.1513 -2.6412
  110OSM   C11S11342   2.472   0.994   9.790 -0.0522  0.6343 -0.3921
  110OSM   H11S11343   2.527   1.079   9.835  1.8546 -0.0259 -1.3695
  110OSM   H11T11344   2.375   0.997   9.844  0.3236 -0.9781  0.4289
  110OSM   C12S11345   2.444   0.996   9.640 -0.2743 -0.4812  0.3976
  110OSM   H12S11346   2.361   1.065   9.616 -1.0766 -1.4139  0.4433
  110OSM   H12T11347   2.400   0.899   9.610 -1.7843 -0.1307  1.3702
  110OSM   C13S11348   2.578   1.027   9.567 -0.5176 -0.8586 -0.0323
  110OSM   H13S11349   2.657   0.962   9.611 -0.2115  0.5649  1.6153
  110OSM   H13T11350   2.604   1.131   9.594 -1.7914 -0.5063 -0.0985
  110OSM   C14S11351   2.584   1.013   9.417  0.4049  0.8537 -0.3283
  110OSM   H14S11352   2.507   1.080   9.373 -2.1395 -1.9332 -0.4627
  110OSM   H14T11353   2.558   0.910   9.386  1.1717  0.8137 -0.8798
  110OSM   C15S11354   2.717   1.053   9.353  0.3935 -0.4925 -0.3977
  110OSM   H15S11355   2.800   0.985   9.381 -0.5996 -1.2876  0.7345
  110OSM   H15T11356   2.733   1.160   9.378  1.8170 -0.6234 -0.6964
  110OSM   C16S11357   2.709   1.047   9.196 -0.0878  0.3074 -1.1861
  110OSM   H16S11358   2.619   1.097   9.157 -0.2538  0.1279 -1.0378
  110OSM   H16T11359   2.690   0.940   9.170 -1.6836  0.5624 -1.1593
  110OSM   C17S11360   2.830   1.086   9.111  0.2746  0.4115 -0.0389
  110OSM   H17S11361   2.827   1.043   9.009  1.0252  0.8745 -0.2656
  110OSM   H17T11362   2.918   1.034   9.153  0.1958 -1.0976 -1.6390
  110OSM   C18S11363   2.862   1.238   9.102 -0.6844  1.0109  0.4428
  110OSM   H18S11364   2.760   1.280   9.085 -2.1261 -2.4141 -0.1404
  110OSM   H18T11365   2.932   1.266   9.020  0.4513 -0.1124  0.9934
  110OSM   H18U11366   2.898   1.281   9.198 -0.9143  1.8440  0.1684
  110OSM    C1F11367   1.985   0.669  10.752 -0.1924 -0.4646  0.4765
  110OSM     OF11368   1.970   0.789  10.767  0.0053  0.3004  0.0015
  110OSM    C2F11369   1.869   0.573  10.763  0.8856 -0.2212 -0.4911
  110OSM    H2F11370   1.835   0.594  10.867  2.5936 -1.6781  0.4221
  110OSM    H2G11371   1.908   0.469  10.765 -1.3671 -1.1305 -0.1466
  110OSM    C3F11372   1.749   0.600  10.664  0.2320  0.3711  0.2259
  110OSM    H3F11373   1.710   0.704  10.667 -0.0089  0.3318 -1.0645
  110OSM    H3G11374   1.665   0.537  10.701 -2.1032 -0.3578 -5.3769
  110OSM    C4F11375   1.772   0.560  10.515  0.2082  0.0715 -0.1887
  110OSM    H4F11376   1.816   0.458  10.521  0.9887  0.4377  0.8199
  110OSM    H4G11377   1.842   0.629  10.463 -2.1819  0.2619 -3.4083
  110OSM    C5F11378   1.637   0.562  10.447 -0.1129 -0.0505 -0.2212
  110OSM    H5F11379   1.582   0.656  10.468 -0.6374  0.1521 -2.2573
  110OSM    H5G11380   1.580   0.481  10.498  1.9091 -1.1690  0.3786
  110OSM    C6F11381   1.645   0.548  10.293  0.3135 -0.3947  0.4623
  110OSM    H6F11382   1.551   0.501  10.256  0.5726 -0.3582 -0.2585
  110OSM    H6G11383   1.724   0.475  10.267  0.2648  0.5294 -2.7496
  110OSM    C7F11384   1.655   0.672  10.213 -0.4573 -0.6186 -0.1927
  110OSM    H7F11385   1.747   0.727  10.241 -0.7582 -0.7419  1.0811
  110OSM    H7G11386   1.570   0.726  10.261  0.1577 -0.6732  0.9720
  110OSM    C8F11387   1.631   0.656  10.055 -0.5633 -0.5109  0.6159
  110OSM    H8F11388   1.670   0.557  10.024 -1.4387  0.2213 -3.5526
  110OSM    H8G11389   1.679   0.744  10.006 -2.4896  0.2446 -0.0117
  110OSM    C9F11390   1.490   0.671  10.016 -0.1397 -0.1331 -0.6299
  110OSM    H9F11391   1.423   0.688  10.102  2.8843  0.5258  1.7806
  110OSM   C10F11392   1.454   0.693   9.882 -0.7215  0.1239  0.6294
  110OSM   H10F11393   1.354   0.722   9.847  0.2612  2.2774 -0.5909
  110OSM   C11F11394   1.554   0.695   9.771 -0.4864  0.1195  0.3070
  110OSM   H11F11395   1.656   0.661   9.796  0.2402  0.2938 -2.1457
  110OSM   H11G11396   1.577   0.794   9.728  3.2866 -0.0347  1.6604
  110OSM   C12F11397   1.521   0.601   9.659  0.1286 -0.6040  0.8611
  110OSM   H12F11398   1.426   0.634   9.612 -1.2621 -1.4664  2.9020
  110OSM   H12G11399   1.506   0.499   9.701 -2.8685 -1.1412 -1.1710
  110OSM   C13F11400   1.635   0.605   9.556 -0.0960  0.0881 -0.5024
  110OSM   H13F11401   1.729   0.572   9.604  0.8243  1.8750 -0.9819
  110OSM   H13G11402   1.632   0.709   9.517 -1.2962  1.0634  1.9617
  110OSM   C14F11403   1.617   0.507   9.443 -0.0074 -0.3481 -0.2108
  110OSM   H14F11404   1.514   0.508   9.402 -0.6356 -2.4580  1.1205
  110OSM   H14G11405   1.651   0.415   9.495 -0.5730  0.7170  2.2070
  110OSM   C15F11406   1.716   0.534   9.330  0.2277 -0.2754  0.1499
  110OSM   H15F11407   1.818   0.537   9.375  0.5436  0.4345 -0.5799
  110OSM   H15G11408   1.703   0.633   9.281  0.5503 -0.2820  0.0436
  110OSM   C16F11409   1.710   0.414   9.231  0.8269  0.0764  1.1107
  110OSM   H16F11410   1.618   0.435   9.173  1.1922  2.0271  1.1849
  110OSM   H16G11411   1.703   0.316   9.284  0.0784 -0.4141  0.1425
  110OSM   C17F11412   1.827   0.422   9.136 -0.0821 -0.2092 -0.0522
  110OSM   H17F11413   1.920   0.389   9.186  0.3548 -1.1279 -1.4279
  110OSM   H17G11414   1.846   0.529   9.111  2.7460 -0.6690 -0.1229
  110OSM   C18F11415   1.808   0.329   9.013  0.6350 -0.5010  0.2016
  110OSM   H18F11416   1.908   0.330   8.965  0.6438  1.0817  0.2122
  110OSM   H18G11417   1.720   0.356   8.950  0.8294  0.2470  0.2401
  110OSM   H18H11418   1.800   0.224   9.050  3.2995 -0.5636  0.7409
  111OSM      N11419   5.380   4.526  10.869 -0.1769 -0.7749 -0.6446
  111OSM    C1511420   5.421   4.614  10.986 -0.0251  0.3118  0.6685
  111OSM   H15A11421   5.529   4.615  10.978 -0.0087 -0.6976  0.5513
  111OSM   H15B11422   5.393   4.571  11.081 -3.6861  1.8143  0.4484
  111OSM   H15C11423   5.371   4.707  10.965  1.3277  0.9207  0.0458
  111OSM    C1411424   5.407   4.386  10.909  0.1457 -0.3387  1.2289
  111OSM   H14A11425   5.355   4.320  10.841 -1.2977  1.7653  0.1832
  111OSM   H14B11426   5.382   4.355  11.009 -0.2785 -0.1757  1.1747
  111OSM   H14C11427   5.514   4.368  10.898 -0.0568 -0.1640 -2.0992
  111OSM    C1311428   5.239   4.535  10.853  0.1920 -0.1461 -0.1039
  111OSM   H13A11429   5.203   4.474  10.772 -2.5939 -0.5619  1.3461
  111OSM   H13B11430   5.204   4.636  10.835  1.3151 -0.0151 -1.8402
  111OSM   H13C11431   5.185   4.496  10.938 -0.8243  0.2544 -0.5505
  111OSM    C1211432   5.466   4.567  10.740 -0.0969 -0.1690  0.2938
  111OSM   H12A11433   5.435   4.663  10.701 -2.6991 -1.7240 -1.8016
  111OSM   H12B11434   5.434   4.503  10.659  3.7228  2.8971 -4.2192
  111OSM    C1111435   5.625   4.559  10.748  0.1810 -0.1499  0.1097
  111OSM   H11A11436   5.657   4.638  10.820 -1.2044 -1.2556  2.0418
  111OSM   H11B11437   5.665   4.582  10.647 -2.2499 -1.2562 -1.1795
  111OSM      P11438   5.816   4.400  10.827 -0.3589  0.3801 -0.6241
  111OSM    O1311439   5.876   4.514  10.900  0.1648  0.2328  0.0539
  111OSM    O1411440   5.824   4.272  10.904 -0.1865 -0.0422  0.0743
  111OSM    O1111441   5.886   4.385  10.687 -0.0946 -0.6494  0.4053
  111OSM    O1211442   5.668   4.434  10.783 -0.1015  0.0914 -0.0097
  111OSM    C1S11443   5.853   4.275  10.604 -0.0450  0.6382  0.1222
  111OSM    H1S11444   5.797   4.197  10.659 -2.1857  2.2353  0.3364
  111OSM    H1T11445   5.949   4.227  10.573 -0.9190 -0.9378 -0.2081
  111OSM     NF11446   5.752   4.181  10.402 -0.7216  0.6304  0.0496
  111OSM    HNF11447   5.803   4.168  10.317 -0.2336 -0.0487  0.4368
  111OSM    C2S11448   5.774   4.309  10.474 -0.3142 -0.4868 -1.0056
  111OSM    H2S11449   5.681   4.361  10.502 -0.1119 -0.1608 -0.9323
  111OSM    C3S11450   5.850   4.415  10.386  0.3656  0.7774 -0.1973
  111OSM    H3S11451   5.951   4.372  10.368 -1.1144 -3.6375  0.8794
  111OSM     O311452   5.878   4.534  10.463  0.1234  0.1357 -0.0026
  111OSM    HO311453   5.884   4.506  10.554 -0.6301  0.8700  0.2890
  111OSM    C4S11454   5.777   4.454  10.259  0.1216 -0.1820 -0.2586
  111OSM    H4S11455   5.820   4.415  10.166  1.0781  1.4726 -0.5493
  111OSM    C5S11456   5.671   4.534  10.252  0.2767  0.0154 -0.6525
  111OSM    H5S11457   5.637   4.571  10.350 -2.3919 -0.0157 -1.4705
  111OSM    C6S11458   5.601   4.593  10.133 -0.0449  0.0168  0.7207
  111OSM    H6S11459   5.663   4.676  10.094  0.1069  0.3922  1.7083
  111OSM    H6T11460   5.515   4.644  10.183 -1.0066 -0.9239  0.0732
  111OSM    C7S11461   5.539   4.501  10.023  0.6216  0.0785 -0.2083
  111OSM    H7S11462   5.472   4.425  10.069  1.4320 -1.6570 -1.7669
  111OSM    H7T11463   5.618   4.432   9.987  1.8325  1.6435 -0.6970
  111OSM    C8S11464   5.456   4.568   9.915 -0.0269 -0.1134  0.0602
  111OSM    H8S11465   5.385   4.633   9.971 -2.1672 -1.7186 -0.6645
  111OSM    H8T11466   5.401   4.488   9.860  0.1962  0.7448 -1.4539
  111OSM    C9S11467   5.546   4.642   9.821  0.0978 -0.3438  0.7981
  111OSM    H9S11468   5.645   4.591   9.821 -0.5017 -1.6769  3.2784
  111OSM    H9T11469   5.572   4.741   9.863  3.1295 -0.8675  0.3556
  111OSM   C10S11470   5.478   4.628   9.679 -0.3271 -0.0578  0.1277
  111OSM   H10S11471   5.383   4.679   9.705  0.0506  1.2446 -0.9461
  111OSM   H10T11472   5.449   4.521   9.670 -1.5157  0.1574  1.0926
  111OSM   C11S11473   5.540   4.696   9.557 -0.0733 -0.4105  0.4355
  111OSM   H11S11474   5.647   4.665   9.552  0.0011  0.0259 -1.5830
  111OSM   H11T11475   5.529   4.806   9.565 -0.9307 -0.3305 -1.4190
  111OSM   C12S11476   5.485   4.655   9.424  0.3052  0.0136  0.1291
  111OSM   H12S11477   5.377   4.678   9.417  0.4146  0.5282  0.0818
  111OSM   H12T11478   5.493   4.544   9.424 -2.1003 -0.2144  1.3106
  111OSM   C13S11479   5.550   4.717   9.293  0.2456  0.2406  0.2141
  111OSM   H13S11480   5.656   4.685   9.280  0.9790  1.6416  2.1757
  111OSM   H13T11481   5.550   4.828   9.297 -0.8167  0.2897 -0.6214
  111OSM   C14S11482   5.460   4.677   9.173 -0.2731 -0.0217  0.1999
  111OSM   H14S11483   5.497   4.737   9.087 -0.2796  0.3786  0.4756
  111OSM   H14T11484   5.354   4.708   9.186 -0.4850 -0.9067  0.6515
  111OSM   C15S11485   5.468   4.537   9.136  0.1742  0.2876  1.2435
  111OSM   H15S11486   5.436   4.467   9.216 -0.5983 -1.8917 -0.8238
  111OSM   H15T11487   5.572   4.510   9.109 -0.2059 -0.3044  0.3093
  111OSM   C16S11488   5.399   4.505   9.002  0.5372 -0.1638 -0.1369
  111OSM   H16S11489   5.416   4.578   8.921  1.3901 -1.3288 -1.0472
  111OSM   H16T11490   5.288   4.507   9.005  0.5598  0.6556  2.3839
  111OSM   C17S11491   5.450   4.366   8.946  0.2386 -1.3577 -0.1013
  111OSM   H17S11492   5.421   4.292   9.024 -3.1248 -0.6800 -0.5284
  111OSM   H17T11493   5.560   4.374   8.934  0.1925  2.5757  0.9505
  111OSM   C18S11494   5.387   4.343   8.814  0.1299 -0.5401 -0.2378
  111OSM   H18S11495   5.422   4.421   8.743 -0.4485  0.4958  0.5843
  111OSM   H18T11496   5.277   4.348   8.828 -0.0610 -1.5551 -1.1713
  111OSM   H18U11497   5.396   4.237   8.780  0.6896 -1.2114  1.8586
  111OSM    C1F11498   5.649   4.112  10.437 -0.4239  0.5341 -0.7941
  111OSM     OF11499   5.563   4.151  10.520 -0.1849 -0.5708 -0.5303
  111OSM    C2F11500   5.617   3.982  10.361 -0.1673  0.9633 -0.0604
  111OSM    H2F11501   5.566   3.898  10.413  0.8326  0.1723 -0.3098
  111OSM    H2G11502   5.715   3.933  10.342 -0.4007 -0.2166  1.5380
  111OSM    C3F11503   5.538   4.015  10.229  0.0226  0.3421  0.2451
  111OSM    H3F11504   5.448   4.078  10.244 -1.1617 -1.5972  1.7393
  111OSM    H3G11505   5.508   3.922  10.178  1.2963  1.1231 -2.0545
  111OSM    C4F11506   5.623   4.082  10.122 -0.3398 -0.4162  0.1203
  111OSM    H4F11507   5.695   4.008  10.081  1.3678  1.6465 -0.7989
  111OSM    H4G11508   5.687   4.168  10.151 -0.3106 -0.1306 -0.7574
  111OSM    C5F11509   5.545   4.124   9.998 -0.0599 -0.6125 -0.4237
  111OSM    H5F11510   5.484   4.214  10.023  1.4725 -0.0268  1.4575
  111OSM    H5G11511   5.479   4.037   9.977  0.1246 -0.4036 -2.0531
  111OSM    C6F11512   5.615   4.157   9.864  0.7411  0.8227  0.1585
  111OSM    H6F11513   5.659   4.067   9.816  1.9916 -0.1221  2.9106
  111OSM    H6G11514   5.700   4.225   9.888  1.9489 -0.4931 -0.3048
  111OSM    C7F11515   5.529   4.229   9.765  0.0201  0.3535 -0.2471
  111OSM    H7F11516   5.586   4.295   9.695 -0.8415 -0.0445 -1.3628
  111OSM    H7G11517   5.456   4.291   9.820  1.8896  1.8228  0.6848
  111OSM    C8F11518   5.447   4.121   9.677 -0.3102  0.1896  0.6915
  111OSM    H8F11519   5.525   4.049   9.645  1.3379  1.2514  2.1176
  111OSM    H8G11520   5.411   4.169   9.584 -2.0995 -2.9919 -0.4112
  111OSM    C9F11521   5.328   4.052   9.743  0.8749  0.3529  0.0726
  111OSM    H9F11522   5.244   4.123   9.747  0.4073  0.0995 -2.8642
  111OSM   C10F11523   5.319   3.914   9.769  0.5003 -0.1340  0.3551
  111OSM   H10F11524   5.240   3.876   9.834 -1.8854  0.9958 -1.7357
  111OSM   C11F11525   5.424   3.817   9.734  0.0300  0.5122 -0.2955
  111OSM   H11F11526   5.414   3.724   9.794 -1.9727  0.5192 -0.5621
  111OSM   H11G11527   5.527   3.849   9.762 -1.1817  1.6199  3.5725
  111OSM   C12F11528   5.398   3.785   9.583  0.3244  0.3227 -0.5504
  111OSM   H12F11529   5.426   3.874   9.522  2.6094 -0.8674 -1.3609
  111OSM   H12G11530   5.290   3.761   9.569  0.6389 -1.9600  0.5598
  111OSM   C13F11531   5.478   3.669   9.531  0.1016 -0.5561 -0.6785
  111OSM   H13F11532   5.438   3.575   9.574  1.6079 -0.0136  2.1641
  111OSM   H13G11533   5.581   3.693   9.565 -0.5989  2.2857 -0.3852
  111OSM   C14F11534   5.481   3.665   9.371 -0.6105 -0.3572  0.3780
  111OSM   H14F11535   5.510   3.761   9.325  0.5603 -0.5937  0.6111
  111OSM   H14G11536   5.376   3.641   9.341 -1.0675  0.0908  1.5465
  111OSM   C15F11537   5.568   3.552   9.312  0.0897  0.3254 -0.4127
  111OSM   H15F11538   5.672   3.576   9.342 -0.5029  1.0843  1.1950
  111OSM   H15G11539   5.558   3.566   9.203 -1.2004  0.9834 -0.2372
  111OSM   C16F11540   5.532   3.409   9.351 -1.1626  0.0079  0.5252
  111OSM   H16F11541   5.424   3.397   9.328 -1.3384 -0.3621  1.4845
  111OSM   H16G11542   5.560   3.389   9.457 -0.5304  1.1121  0.5816
  111OSM   C17F11543   5.597   3.294   9.268 -0.5739  0.1391 -0.0505
  111OSM   H17F11544   5.590   3.327   9.162  0.7272 -0.4656 -0.3420
  111OSM   H17G11545   5.524   3.212   9.286  0.4175 -0.6466  0.5148
  111OSM   C18F11546   5.737   3.254   9.300  0.0154  0.5827  0.5515
  111OSM   H18F11547   5.746   3.221   9.406  1.8529  0.7998  0.4930
  111OSM   H18G11548   5.812   3.333   9.281  0.4548  0.0403 -0.0083
  111OSM   H18H11549   5.766   3.165   9.241  1.2566  0.0517  1.8884
  112OSM      N11550   2.235   4.623  11.057  0.0376 -0.1057 -0.0458
  112OSM    C1511551   2.332   4.701  11.140 -0.3411  0.4369  0.5272
  112OSM   H15A11552   2.333   4.809  11.141  0.1746  0.4336  1.0820
  112OSM   H15B11553   2.430   4.669  11.108 -1.1182 -1.2142 -0.3034
  112OSM   H15C11554   2.318   4.678  11.245 -0.6204 -0.2225  0.3515
  112OSM    C1411555   2.188   4.493  11.101  0.5882  0.3327 -0.8753
  112OSM   H14A11556   2.181   4.491  11.209  1.1339  1.5950 -0.7968
  112OSM   H14B11557   2.261   4.416  11.080  0.4207 -1.3125  3.4969
  112OSM   H14C11558   2.092   4.466  11.059  0.3830  2.0344 -1.5434
  112OSM    C1311559   2.108   4.705  11.046  0.0999 -0.2012 -0.2788
  112OSM   H13A11560   2.042   4.647  10.983 -2.1910 -1.2881  2.8757
  112OSM   H13B11561   2.129   4.800  11.000 -0.0937 -0.0739 -0.1024
  112OSM   H13C11562   2.066   4.719  11.144 -0.7039 -0.6693 -0.5519
  112OSM    C1211563   2.292   4.611  10.910  0.3024 -0.7604  0.3419
  112OSM   H12A11564   2.382   4.551  10.908  0.9053  0.1024  0.9262
  112OSM   H12B11565   2.319   4.706  10.866 -1.4854 -1.0429 -1.5690
  112OSM    C1111566   2.204   4.552  10.802  0.5630 -0.3918  0.5649
  112OSM   H11A11567   2.256   4.571  10.705 -0.9468 -1.2404 -0.4465
  112OSM   H11B11568   2.110   4.610  10.808 -0.3119 -1.7879  0.8060
  112OSM      P11569   2.264   4.297  10.813  0.4770 -0.2598 -0.0608
  112OSM    O1311570   2.384   4.330  10.889 -0.5173  0.2966 -0.0203
  112OSM    O1411571   2.189   4.176  10.857  0.2323  0.0021  0.3262
  112OSM    O1111572   2.304   4.289  10.660  0.4222 -0.1292  0.6591
  112OSM    O1211573   2.163   4.416  10.824 -0.2206  0.3361 -0.0675
  112OSM    C1S11574   2.198   4.264  10.565  0.2308  0.5854  0.0210
  112OSM    H1S11575   2.152   4.360  10.534 -0.9244 -0.4490 -1.6251
  112OSM    H1T11576   2.115   4.202  10.607  1.3153 -0.3630  0.8421
  112OSM     NF11577   2.162   4.218  10.323 -0.5144 -0.4839  0.2494
  112OSM    HNF11578   2.087   4.155  10.306 -2.1053  1.2563  0.5410
  112OSM    C2S11579   2.247   4.186  10.435  0.6079 -0.0147 -0.4106
  112OSM    H2S11580   2.351   4.225  10.425  0.6204  0.2102  0.4973
  112OSM    C3S11581   2.261   4.033  10.470  0.9786  0.0252 -0.0422
  112OSM    H3S11582   2.157   3.996  10.474  1.0627 -0.3251 -0.8722
  112OSM     O311583   2.322   3.999  10.591 -0.4448 -0.2143  0.2881
  112OSM    HO311584   2.341   4.089  10.618  2.3877 -0.8985  0.8884
  112OSM    C4S11585   2.336   3.955  10.365  0.3737 -0.4198 -0.2641
  112OSM    H4S11586   2.445   3.970  10.365  0.1814  1.2818 -1.5773
  112OSM    C5S11587   2.280   3.869  10.277 -0.1179  0.1983  0.3485
  112OSM    H5S11588   2.171   3.854  10.279  0.0281 -0.8080  1.7971
  112OSM    C6S11589   2.358   3.802  10.170 -0.7265  0.1765  0.0279
  112OSM    H6S11590   2.316   3.699  10.174 -0.2907  0.0372  2.1262
  112OSM    H6T11591   2.467   3.797  10.191 -1.2041  0.5526  3.1444
  112OSM    C7S11592   2.330   3.854  10.033 -0.1652 -1.0725 -0.7005
  112OSM    H7S11593   2.363   3.960  10.024 -1.9259 -0.0465  3.1218
  112OSM    H7T11594   2.220   3.862  10.015 -0.2269 -0.8245 -0.2353
  112OSM    C8S11595   2.404   3.763   9.937  0.3448 -0.0119  0.4109
  112OSM    H8S11596   2.373   3.657   9.949 -1.0357  0.2938 -0.2393
  112OSM    H8T11597   2.514   3.762   9.951  0.0393 -1.5925  3.5080
  112OSM    C9S11598   2.377   3.802   9.785  0.3123  0.5292  0.2037
  112OSM    H9S11599   2.372   3.913   9.777 -2.3217  0.5670  1.3129
  112OSM    H9T11600   2.273   3.764   9.771  0.8934 -0.5580 -1.4505
  112OSM   C10S11601   2.461   3.709   9.684 -0.3436 -0.4413 -0.0864
  112OSM   H10S11602   2.463   3.600   9.707 -1.5831 -0.4390  0.0849
  112OSM   H10T11603   2.565   3.749   9.691 -0.1342 -1.0949  0.8864
  112OSM   C11S11604   2.435   3.731   9.535 -0.0546 -0.2094  0.2614
  112OSM   H11S11605   2.439   3.836   9.499 -1.6016  0.3647  1.6598
  112OSM   H11T11606   2.330   3.702   9.513 -0.6301  0.7328  1.7077
  112OSM   C12S11607   2.539   3.650   9.444  0.4951  0.4223 -0.3077
  112OSM   H12S11608   2.551   3.547   9.482 -0.2661  0.0726 -0.9722
  112OSM   H12T11609   2.638   3.699   9.450  0.8770 -0.1055 -1.8809
  112OSM   C13S11610   2.501   3.631   9.296  0.6139  0.5286 -0.4859
  112OSM   H13S11611   2.465   3.724   9.247 -0.9125  0.1922 -0.0637
  112OSM   H13T11612   2.415   3.561   9.285 -0.4242  1.4483  1.3189
  112OSM   C14S11613   2.607   3.574   9.204  0.3829  0.5513  0.8783
  112OSM   H14S11614   2.680   3.655   9.183  0.6301  0.8731  2.7634
  112OSM   H14T11615   2.566   3.553   9.103 -0.7022 -0.9838  1.5966
  112OSM   C15S11616   2.669   3.438   9.251  0.2003 -0.5919 -0.6838
  112OSM   H15S11617   2.594   3.357   9.236  1.2429 -1.7667  0.3087
  112OSM   H15T11618   2.700   3.437   9.357 -2.0787 -0.3898  0.0531
  112OSM   C16S11619   2.764   3.382   9.142  0.0022 -0.5624 -0.2270
  112OSM   H16S11620   2.705   3.326   9.066 -1.5332 -1.1006  1.2799
  112OSM   H16T11621   2.833   3.310   9.190  3.1248  1.8301 -0.7733
  112OSM   C17S11622   2.839   3.493   9.076 -0.1361 -0.2692  0.2771
  112OSM   H17S11623   2.898   3.540   9.157  1.0293  0.4641 -0.9624
  112OSM   H17T11624   2.773   3.571   9.032  0.0026 -1.1773 -1.6404
  112OSM   C18S11625   2.933   3.442   8.967 -0.1429 -0.5642 -0.0467
  112OSM   H18S11626   3.039   3.453   9.001 -0.7183 -2.0580  2.5094
  112OSM   H18T11627   2.917   3.504   8.877  0.4982 -0.4452 -0.0812
  112OSM   H18U11628   2.902   3.342   8.929 -1.2711 -0.0618 -0.4709
  112OSM    C1F11629   2.164   4.339  10.268  0.3768  0.5355  0.1817
  112OSM     OF11630   2.230   4.426  10.315 -0.0153 -0.1070 -0.5136
  112OSM    C2F11631   2.069   4.361  10.156  0.1189 -0.6548  0.0719
  112OSM    H2F11632   2.025   4.461  10.175  0.3222 -0.5733  0.1081
  112OSM    H2G11633   1.983   4.290  10.158  2.0205 -3.1685 -1.3646
  112OSM    C3F11634   2.141   4.350  10.024 -0.4222 -0.1864  0.4040
  112OSM    H3F11635   2.221   4.425  10.006  1.2089 -2.1711 -1.1358
  112OSM    H3G11636   2.070   4.371   9.941  0.9354 -1.2916 -1.0998
  112OSM    C4F11637   2.185   4.212   9.972 -0.3617  0.5182 -0.1005
  112OSM    H4F11638   2.095   4.147   9.978  0.4593 -0.5255  1.7351
  112OSM    H4G11639   2.265   4.161  10.028 -1.1088  2.7174  3.2456
  112OSM    C5F11640   2.230   4.209   9.824  0.4674  0.4131 -0.8473
  112OSM    H5F11641   2.317   4.141   9.819 -0.5321 -1.0135  0.2870
  112OSM    H5G11642   2.262   4.307   9.784  0.0452  0.5424 -0.8771
  112OSM    C6F11643   2.114   4.146   9.736  0.6340 -0.1886 -0.7268
  112OSM    H6F11644   2.054   4.233   9.702  0.2346 -0.5490 -0.9576
  112OSM    H6G11645   2.061   4.076   9.803  1.8406  0.2880  0.7687
  112OSM    C7F11646   2.163   4.076   9.615  0.1338  0.3159  0.3945
  112OSM    H7F11647   2.080   4.017   9.571  0.6566  0.6646 -1.1134
  112OSM    H7G11648   2.235   3.994   9.637 -1.9958 -1.7416  0.2105
  112OSM    C8F11649   2.219   4.184   9.521  0.3843  0.2515  0.6818
  112OSM    H8F11650   2.280   4.249   9.587  3.4291 -2.7216  1.0326
  112OSM    H8G11651   2.135   4.248   9.485  0.6814 -0.0731 -0.6365
  112OSM    C9F11652   2.305   4.130   9.410  0.2435  0.2463  0.6028
  112OSM    H9F11653   2.401   4.087   9.443  0.9067  0.9144 -0.4176
  112OSM   C10F11654   2.256   4.109   9.285  0.3348  0.4624 -0.6781
  112OSM   H10F11655   2.322   4.071   9.206  0.3475  2.1551 -1.5110
  112OSM   C11F11656   2.111   4.122   9.240  0.3036  0.0184 -0.2916
  112OSM   H11F11657   2.031   4.117   9.318 -0.2906  0.8441 -0.8305
  112OSM   H11G11658   2.078   4.039   9.175  0.3148 -0.3914  0.2232
  112OSM   C12F11659   2.088   4.256   9.161 -0.6254 -0.3479  0.6074
  112OSM   H12F11660   2.119   4.343   9.222 -2.8499  1.9052 -1.2735
  112OSM   H12G11661   1.981   4.270   9.138 -0.7194 -1.3943  0.3630
  112OSM   C13F11662   2.164   4.269   9.026 -0.6276  0.4040 -0.2717
  112OSM   H13F11663   2.264   4.222   9.039 -1.1712 -0.6706  0.1690
  112OSM   H13G11664   2.184   4.374   8.995 -2.5262  0.7911 -0.3179
  112OSM   C14F11665   2.094   4.194   8.916  0.1849 -0.2598  0.7730
  112OSM   H14F11666   2.000   4.247   8.888  0.0748 -0.3441  0.9815
  112OSM   H14G11667   2.086   4.090   8.954  0.9465 -0.5896  0.0586
  112OSM   C15F11668   2.184   4.206   8.789  0.5381 -0.1515 -0.7235
  112OSM   H15F11669   2.293   4.192   8.808  0.9133  1.7070 -1.3002
  112OSM   H15G11670   2.163   4.307   8.749 -0.5171 -0.3223 -0.6358
  112OSM   C16F11671   2.135   4.113   8.673  0.0664  0.5583 -0.2302
  112OSM   H16F11672   2.025   4.127   8.664  0.1659  3.1004  1.6788
  112OSM   H16G11673   2.169   4.008   8.688  0.9127  0.4971 -2.2631
  112OSM   C17F11674   2.200   4.153   8.538 -0.3191  0.2695 -0.0696
  112OSM   H17F11675   2.160   4.254   8.514  0.6495  0.2497 -1.8836
  112OSM   H17G11676   2.170   4.076   8.463 -0.7656 -0.3241  0.7020
  112OSM   C18F11677   2.348   4.144   8.542 -0.2116 -0.5138 -0.4305
  112OSM   H18F11678   2.400   4.153   8.444  2.2036 -0.1117  0.8048
  112OSM   H18G11679   2.387   4.058   8.600  3.3593  1.3850  0.2982
  112OSM   H18H11680   2.393   4.229   8.598 -0.5741 -0.1338 -0.7129
  113OSM      N11681   3.309   1.448  11.130  0.3002 -0.8796  0.2649
  113OSM    C1511682   3.442   1.456  11.194 -0.6644 -0.3498 -0.4092
  113OSM   H15A11683   3.522   1.493  11.130  0.2417 -0.7347  0.4707
  113OSM   H15B11684   3.475   1.355  11.216  0.5320  0.0079 -0.4633
  113OSM   H15C11685   3.448   1.513  11.285 -1.0488  0.7780 -1.0647
  113OSM    C1411686   3.219   1.360  11.208  0.7251  0.1970 -0.0411
  113OSM   H14A11687   3.119   1.397  11.188  0.5894 -0.1556 -0.0121
  113OSM   H14B11688   3.253   1.375  11.310  2.6678 -1.3952 -0.4077
  113OSM   H14C11689   3.229   1.254  11.192  1.0757  0.4183 -1.3776
  113OSM    C1311690   3.261   1.590  11.152  0.3638 -0.7327  0.6915
  113OSM   H13A11691   3.171   1.608  11.094  0.3119 -1.1202  0.6499
  113OSM   H13B11692   3.336   1.661  11.118  0.3147 -1.2906 -0.6596
  113OSM   H13C11693   3.230   1.618  11.251  1.0084 -1.1765  1.0278
  113OSM    C1211694   3.308   1.417  10.986 -0.0459 -0.0407 -0.0359
  113OSM   H12A11695   3.356   1.322  10.971 -0.3101 -0.2650  0.5118
  113OSM   H12B11696   3.359   1.497  10.935  0.1357  0.2659  0.6090
  113OSM    C1111697   3.169   1.417  10.924  0.1423 -0.0272 -0.5009
  113OSM   H11A11698   3.109   1.339  10.975 -0.1818  0.0762 -0.7273
  113OSM   H11B11699   3.186   1.383  10.819 -0.3458 -0.2101 -0.5193
  113OSM      P11700   2.949   1.570  10.897  0.2548 -0.0153  0.1253
  113OSM    O1311701   2.859   1.469  10.955  0.3741  0.2044 -0.1362
  113OSM    O1411702   2.916   1.706  10.930 -0.4284  0.1376 -0.4520
  113OSM    O1111703   2.944   1.543  10.739  0.5654  0.4407  0.6062
  113OSM    O1211704   3.098   1.544  10.926 -0.2891 -0.1293 -0.1242
  113OSM    C1S11705   2.823   1.590  10.680 -0.8568 -0.1539 -0.1979
  113OSM    H1S11706   2.799   1.695  10.709  1.6405 -0.2941  2.9538
  113OSM    H1T11707   2.742   1.530  10.726  0.8650 -0.9033  2.0963
  113OSM     NF11708   2.723   1.647  10.474 -0.3791  0.2761  0.3267
  113OSM    HNF11709   2.633   1.611  10.494  0.1922 -0.1972  2.1942
  113OSM    C2S11710   2.826   1.569  10.529  0.1153 -0.0213  0.0462
  113OSM    H2S11711   2.924   1.606  10.491 -0.3753  0.7640 -0.4882
  113OSM    C3S11712   2.813   1.412  10.495 -0.4536 -0.4788  0.9131
  113OSM    H3S11713   2.714   1.375  10.530 -0.3779 -0.2301  1.4140
  113OSM     O311714   2.911   1.339  10.571 -0.4525 -0.0853 -0.2249
  113OSM    HO311715   2.932   1.401  10.642  1.1782 -0.0532 -0.6822
  113OSM    C4S11716   2.840   1.399  10.351  0.6222  0.0432 -0.7524
  113OSM    H4S11717   2.944   1.426  10.327  1.0738 -0.9015  0.0841
  113OSM    C5S11718   2.761   1.359  10.255  0.3621 -0.4340 -0.6677
  113OSM    H5S11719   2.662   1.317  10.280  0.7696 -0.4645  1.0511
  113OSM    C6S11720   2.792   1.358  10.109  0.0743  0.8009  0.4261
  113OSM    H6S11721   2.899   1.380  10.088 -0.3459  1.3808 -1.2990
  113OSM    H6T11722   2.732   1.429  10.047  0.8560 -0.0857 -1.4331
  113OSM    C7S11723   2.772   1.221  10.038 -0.2021 -0.1404 -0.5093
  113OSM    H7S11724   2.663   1.199  10.042 -0.7042  2.1667 -0.0177
  113OSM    H7T11725   2.830   1.143  10.092  1.2316  2.2502  1.6923
  113OSM    C8S11726   2.820   1.210   9.892  0.5639  0.3218  0.5845
  113OSM    H8S11727   2.865   1.311   9.878 -1.5792  1.6286  2.4563
  113OSM    H8T11728   2.733   1.215   9.823  0.0692  4.0353  1.2545
  113OSM    C9S11729   2.921   1.108   9.834 -0.3720 -0.1333 -0.2561
  113OSM    H9S11730   2.877   1.007   9.822 -1.9581  0.3693  0.9858
  113OSM    H9T11731   3.006   1.099   9.904 -0.0220 -0.8963 -0.7643
  113OSM   C10S11732   2.974   1.149   9.697  0.3904 -0.1652  0.7193
  113OSM   H10S11733   3.045   1.234   9.702  1.1838 -0.8870  3.7516
  113OSM   H10T11734   2.895   1.199   9.636  0.5344 -1.5356 -0.6609
  113OSM   C11S11735   3.040   1.032   9.621  0.6841  0.2406 -0.3944
  113OSM   H11S11736   2.967   0.950   9.605  0.5696  0.2672 -0.0100
  113OSM   H11T11737   3.126   0.998   9.682  1.8547  1.4105 -1.3350
  113OSM   C12S11738   3.082   1.077   9.486 -0.2745  0.1510  0.4247
  113OSM   H12S11739   3.163   1.152   9.493  1.5666 -1.8120  1.2287
  113OSM   H12T11740   2.997   1.131   9.439 -0.8652  0.3215  1.6597
  113OSM   C13S11741   3.134   0.974   9.385 -0.7944  0.6036 -0.3858
  113OSM   H13S11742   3.047   0.909   9.360 -0.2171 -0.6715  0.7936
  113OSM   H13T11743   3.201   0.903   9.438  0.1027  1.5534 -0.2149
  113OSM   C14S11744   3.222   1.018   9.264  0.2605  0.6260  0.5063
  113OSM   H14S11745   3.330   1.039   9.280  0.1949  1.4128 -0.0382
  113OSM   H14T11746   3.163   1.107   9.233 -1.7996  0.0369  2.4606
  113OSM   C15S11747   3.221   0.928   9.132 -0.1265  0.1172  0.9365
  113OSM   H15S11748   3.119   0.890   9.111  0.3181 -0.0593 -1.1843
  113OSM   H15T11749   3.290   0.843   9.149  0.1790  0.1824  0.0683
  113OSM   C16S11750   3.278   1.022   9.022 -0.3035  0.4547  0.4520
  113OSM   H16S11751   3.365   1.076   9.066 -1.3401  1.2095  1.6570
  113OSM   H16T11752   3.198   1.098   9.010 -1.5169 -1.1181 -2.0944
  113OSM   C17S11753   3.305   0.952   8.889 -0.5278  0.1569  0.3038
  113OSM   H17S11754   3.390   0.884   8.909  1.7391  1.1847 -4.4633
  113OSM   H17T11755   3.354   1.019   8.815  0.4957 -1.8736 -0.9469
  113OSM   C18S11756   3.179   0.875   8.831 -0.0577 -0.7320  0.2749
  113OSM   H18S11757   3.121   0.825   8.912 -1.7076 -2.0886 -1.6382
  113OSM   H18T11758   3.212   0.800   8.756 -1.7183 -0.0493 -1.2139
  113OSM   H18U11759   3.113   0.949   8.781 -0.6519 -1.2708  0.2507
  113OSM    C1F11760   2.721   1.773  10.442  0.0827 -0.5716  0.5612
  113OSM     OF11761   2.820   1.844  10.445  0.2228 -0.0478  0.3903
  113OSM    C2F11762   2.583   1.820  10.407  0.3811  0.1104 -0.0082
  113OSM    H2F11763   2.530   1.846  10.501  0.6595  2.5802 -0.4536
  113OSM    H2G11764   2.529   1.735  10.360 -2.2636  2.4291 -1.4797
  113OSM    C3F11765   2.583   1.945  10.317 -0.6845  1.2066  0.3334
  113OSM    H3F11766   2.651   2.020  10.362  2.5021 -0.4422 -1.3357
  113OSM    H3G11767   2.481   1.988  10.320 -0.3338  1.9793  1.4375
  113OSM    C4F11768   2.628   1.917  10.176  0.2046 -0.5256 -0.1556
  113OSM    H4F11769   2.541   1.885  10.115 -1.5817 -0.3670  2.1920
  113OSM    H4G11770   2.706   1.838  10.174 -1.5452 -2.3417 -0.3796
  113OSM    C5F11771   2.685   2.039  10.096  0.0193 -0.4647 -0.2002
  113OSM    H5F11772   2.760   2.085  10.164 -0.0936  0.1985 -0.5154
  113OSM    H5G11773   2.608   2.119  10.082 -0.2701  0.2718  4.0068
  113OSM    C6F11774   2.735   1.999   9.963 -0.5209 -0.3367 -0.1264
  113OSM    H6F11775   2.653   2.013   9.890  0.2499  1.6671 -0.6629
  113OSM    H6G11776   2.762   1.891   9.960 -0.4278 -0.3013 -0.7037
  113OSM    C7F11777   2.857   2.082   9.918  0.2510 -0.2346 -0.6726
  113OSM    H7F11778   2.939   2.056   9.988  0.0048 -1.7817 -0.9123
  113OSM    H7G11779   2.826   2.187   9.936  1.1445 -0.0504 -0.2122
  113OSM    C8F11780   2.889   2.067   9.763  0.5752 -0.4517 -0.6272
  113OSM    H8F11781   2.806   2.114   9.706 -0.9805 -0.7145  1.3182
  113OSM    H8G11782   2.900   1.962   9.729 -2.3072 -0.7439 -0.8878
  113OSM    C9F11783   3.015   2.141   9.746 -0.2664  0.2011 -0.2620
  113OSM    H9F11784   3.098   2.109   9.811 -1.6192 -0.6495  1.0945
  113OSM   C10F11785   3.032   2.230   9.654 -0.7292  0.0209  0.2803
  113OSM   H10F11786   3.117   2.297   9.674 -0.9865  0.0382  1.3618
  113OSM   C11F11787   2.937   2.279   9.550 -0.6638  0.0548  0.2032
  113OSM   H11F11788   2.984   2.367   9.500  2.9660 -0.5598  2.1936
  113OSM   H11G11789   2.839   2.303   9.597 -1.6295 -2.1392 -0.5672
  113OSM   C12F11790   2.910   2.185   9.432 -0.1052 -0.1160 -0.1354
  113OSM   H12F11791   2.826   2.212   9.364  1.4666 -2.0289 -3.0397
  113OSM   H12G11792   2.882   2.095   9.490 -1.0972  0.5550  0.4643
  113OSM   C13F11793   3.036   2.155   9.350 -0.0680  0.2450 -0.0315
  113OSM   H13F11794   3.041   2.046   9.328  0.4684  0.3342 -0.3656
  113OSM   H13G11795   3.119   2.182   9.418 -0.9545 -0.5388  1.4222
  113OSM   C14F11796   3.044   2.231   9.220  0.1095 -0.1325  0.3462
  113OSM   H14F11797   2.983   2.171   9.149  1.1411  1.7411 -2.3203
  113OSM   H14G11798   3.150   2.223   9.188  0.1825  0.8953  0.2844
  113OSM   C15F11799   2.999   2.380   9.211 -0.3150 -0.4282  0.4118
  113OSM   H15F11800   3.053   2.455   9.273 -2.0924  1.8388 -0.6314
  113OSM   H15G11801   2.894   2.378   9.245 -0.4274 -2.7439  0.0858
  113OSM   C16F11802   3.012   2.438   9.070 -0.4247 -0.1212  1.2687
  113OSM   H16F11803   3.120   2.452   9.047 -0.4327 -0.0268  1.2909
  113OSM   H16G11804   2.972   2.541   9.074  1.6566  0.7755  0.5027
  113OSM   C17F11805   2.956   2.357   8.951  0.2154  0.1865 -0.9006
  113OSM   H17F11806   2.851   2.335   8.979  0.6632  0.7334  1.4562
  113OSM   H17G11807   3.007   2.260   8.932 -1.7537 -0.7361 -1.7649
  113OSM   C18F11808   2.950   2.440   8.823  0.3737 -0.3154  0.1397
  113OSM   H18F11809   3.053   2.427   8.783  0.0026  0.6936 -1.2321
  113OSM   H18G11810   2.932   2.549   8.832  0.5812 -0.2037 -0.6740
  113OSM   H18H11811   2.888   2.399   8.740  0.8091  1.4434 -1.1215
  114OSM      N11812   3.447   0.222  11.338 -0.3003  0.0309  0.0116
  114OSM    C1511813   3.564   0.283  11.417 -0.4774  0.4110  0.2847
  114OSM   H15A11814   3.572   0.241  11.516  1.5998  1.3880  0.5922
  114OSM   H15B11815   3.558   0.390  11.428  1.4825  0.6859 -0.8597
  114OSM   H15C11816   3.651   0.261  11.357 -1.6510 -2.0119 -0.6964
  114OSM    C1411817   3.328   0.246  11.425  0.0897  0.1271 -0.2631
  114OSM   H14A11818   3.227   0.229  11.390 -1.7710  1.6072  3.7045
  114OSM   H14B11819   3.323   0.352  11.445 -0.0043  0.1872 -0.6004
  114OSM   H14C11820   3.347   0.204  11.523  1.2147 -1.0061 -0.9433
  114OSM    C1311821   3.436   0.278  11.195  0.2375 -0.1764 -0.0607
  114OSM   H13A11822   3.429   0.386  11.202 -0.8903 -0.3523  2.0037
  114OSM   H13B11823   3.337   0.249  11.164 -0.0034  0.2643  0.2892
  114OSM   H13C11824   3.510   0.240  11.126 -0.1557 -1.2969  0.1102
  114OSM    C1211825   3.470   0.069  11.338  0.8822  0.5436  0.0583
  114OSM   H12A11826   3.373   0.028  11.312 -0.1841  3.1925 -0.4348
  114OSM   H12B11827   3.489   0.024  11.435 -0.3112  0.5450  0.3105
  114OSM    C1111828   3.565   0.016  11.237 -0.8092 -1.4104 -0.0956
  114OSM   H11A11829   3.584  -0.091  11.258  1.7969 -0.6978  1.8938
  114OSM   H11B11830   3.664   0.064  11.255 -1.1989 -0.5912 -0.0981
  114OSM      P11831   3.431  -0.081  11.029  0.4056 -0.0615  0.0579
  114OSM    O1311832   3.495  -0.208  11.049 -0.0746  0.6639 -0.2201
  114OSM    O1411833   3.291  -0.070  11.070  0.0307 -0.3574 -0.3352
  114OSM    O1111834   3.443  -0.048  10.876  0.0913  0.0396 -0.3278
  114OSM    O1211835   3.520   0.032  11.099  0.2669  0.4704 -0.0808
  114OSM    C1S11836   3.359   0.050  10.822  0.4367 -0.5584  0.2687
  114OSM    H1S11837   3.371   0.152  10.864  0.2774  0.2833 -1.6254
  114OSM    H1T11838   3.253   0.023  10.844  0.0877  0.7080  0.2112
  114OSM     NF11839   3.288   0.180  10.629 -0.4700  0.3522  0.0419
  114OSM    HNF11840   3.192   0.168  10.604 -0.3418  0.9311 -0.7637
  114OSM    C2S11841   3.367   0.065  10.665 -0.4641  0.3748  0.3987
  114OSM    H2S11842   3.474   0.089  10.647 -0.2850  1.9199  2.8990
  114OSM    C3S11843   3.331  -0.072  10.595  0.7145 -0.3109  0.5200
  114OSM    H3S11844   3.221  -0.081  10.602  0.1843  2.7125 -1.7378
  114OSM     O311845   3.386  -0.188  10.654 -0.0259 -0.6387  0.5175
  114OSM    HO311846   3.404  -0.162  10.744  1.6436  1.8802 -0.4255
  114OSM    C4S11847   3.359  -0.058  10.447 -0.1052 -0.6892 -0.4616
  114OSM    H4S11848   3.274  -0.019  10.388 -0.5651 -0.0415  0.6010
  114OSM    C5S11849   3.476  -0.098  10.386  0.1153  0.0655  0.3020
  114OSM    H5S11850   3.553  -0.158  10.437  0.3466 -0.8218 -1.0499
  114OSM    C6S11851   3.501  -0.090  10.240 -0.4434  0.5124 -0.0105
  114OSM    H6S11852   3.406  -0.103  10.185 -0.7793 -3.6667  1.1926
  114OSM    H6T11853   3.557  -0.178  10.202 -2.1222 -1.0988  1.0654
  114OSM    C7S11854   3.573   0.045  10.204  0.5150  1.1855  0.3488
  114OSM    H7S11855   3.676   0.033  10.243  0.0263 -1.5455  1.0387
  114OSM    H7T11856   3.530   0.136  10.251  0.1059  1.3669 -0.3589
  114OSM    C8S11857   3.570   0.065  10.054  0.6614 -0.4673  1.1459
  114OSM    H8S11858   3.470   0.102  10.024  1.3617  0.5365 -0.0441
  114OSM    H8T11859   3.593  -0.032  10.005  0.6922  0.1750 -0.1646
  114OSM    C9S11860   3.673   0.169  10.011 -0.4771  0.1521  0.7759
  114OSM    H9S11861   3.761   0.124  10.061  0.1747  0.2842 -0.2161
  114OSM    H9T11862   3.645   0.270  10.048  1.6949  0.1226  2.7323
  114OSM   C10S11863   3.726   0.160   9.863 -0.1439  0.5871 -0.0059
  114OSM   H10S11864   3.641   0.166   9.792 -0.4368  0.7003  0.3530
  114OSM   H10T11865   3.780   0.066   9.839 -1.1200  0.1283 -0.4346
  114OSM   C11S11866   3.808   0.288   9.830  0.4870 -0.0892  1.2940
  114OSM   H11S11867   3.915   0.280   9.860  1.2056  2.1389 -0.3278
  114OSM   H11T11868   3.754   0.365   9.888 -1.4037 -0.0527 -0.4121
  114OSM   C12S11869   3.814   0.326   9.675  0.5482  0.4152 -0.4840
  114OSM   H12S11870   3.711   0.356   9.646 -0.1209 -0.4105  0.9341
  114OSM   H12T11871   3.827   0.225   9.629  0.2498  0.3152 -0.3484
  114OSM   C13S11872   3.917   0.427   9.639  0.3515 -0.6883 -0.1845
  114OSM   H13S11873   4.016   0.383   9.663 -0.9309 -2.5562  2.0707
  114OSM   H13T11874   3.905   0.528   9.684 -0.4587  0.8568 -3.4954
  114OSM   C14S11875   3.903   0.453   9.490  0.0748 -0.1188  0.6782
  114OSM   H14S11876   3.801   0.493   9.476  0.2555 -0.3546 -1.8517
  114OSM   H14T11877   3.908   0.348   9.454 -0.1049 -0.5480  1.8487
  114OSM   C15S11878   4.014   0.533   9.416  0.1976  0.3910 -0.8341
  114OSM   H15S11879   4.109   0.475   9.422 -1.6150 -2.9129 -1.7273
  114OSM   H15T11880   4.028   0.630   9.469 -0.6568 -0.6850  1.4919
  114OSM   C16S11881   3.985   0.553   9.268 -0.5805 -1.2554 -0.5106
  114OSM   H16S11882   4.068   0.599   9.209 -1.6442  1.5667  0.0060
  114OSM   H16T11883   3.896   0.617   9.287 -0.0578 -0.4240 -0.7615
  114OSM   C17S11884   3.936   0.429   9.196  0.6194  0.1533 -0.1726
  114OSM   H17S11885   3.834   0.394   9.225  1.1032 -1.4121 -0.2716
  114OSM   H17T11886   4.007   0.347   9.217 -0.5940 -0.7110  0.7377
  114OSM   C18S11887   3.924   0.447   9.046  0.4225  0.4506  0.3229
  114OSM   H18S11888   4.015   0.487   8.998 -0.2319  1.5739 -0.0344
  114OSM   H18T11889   3.835   0.504   9.010 -1.9126 -2.4569  1.0454
  114OSM   H18U11890   3.901   0.345   9.009 -2.1487  0.5817  1.3340
  114OSM    C1F11891   3.342   0.302  10.625 -0.6809  0.3496 -0.0841
  114OSM     OF11892   3.455   0.312  10.660 -0.0770  0.0536 -0.8046
  114OSM    C2F11893   3.266   0.410  10.565 -0.3940 -0.0865 -0.1298
  114OSM    H2F11894   3.247   0.495  10.635  0.0267  0.7944 -1.0635
  114OSM    H2G11895   3.164   0.372  10.545 -0.9142  2.2239 -2.2957
  114OSM    C3F11896   3.326   0.455  10.428 -0.0830 -0.5177 -0.6164
  114OSM    H3F11897   3.435   0.469  10.445 -0.3262  0.4179  0.2941
  114OSM    H3G11898   3.281   0.555  10.414 -0.5186 -0.5864  0.2277
  114OSM    C4F11899   3.292   0.374  10.303  0.2520 -0.6156  0.5175
  114OSM    H4F11900   3.309   0.270  10.339  1.3776  0.1886  2.4273
  114OSM    H4G11901   3.351   0.409  10.216 -0.1912  0.5955  0.6892
  114OSM    C5F11902   3.157   0.389  10.250  0.2363 -1.1155  0.0202
  114OSM    H5F11903   3.142   0.492  10.210 -0.5984 -1.1438  0.2329
  114OSM    H5G11904   3.077   0.371  10.325  0.1987 -2.1027 -0.2371
  114OSM    C6F11905   3.142   0.290  10.133 -0.0612  0.3254  0.6264
  114OSM    H6F11906   3.247   0.262  10.108 -0.5485 -0.7734 -0.2195
  114OSM    H6G11907   3.083   0.334  10.050 -2.1329 -0.8897  1.3953
  114OSM    C7F11908   3.070   0.159  10.173  0.0062  0.6524  0.0729
  114OSM    H7F11909   2.967   0.184  10.207  0.2939 -0.2704  1.7037
  114OSM    H7G11910   3.115   0.120  10.266  1.1755  0.0716 -0.7205
  114OSM    C8F11911   3.071   0.052  10.053  0.1840 -0.1996  0.2022
  114OSM    H8F11912   3.030  -0.042  10.095 -0.7858 -0.6927 -1.7466
  114OSM    H8G11913   3.176   0.023  10.035  0.3122 -0.1746  0.8818
  114OSM    C9F11914   2.987   0.096   9.928  0.1235 -0.6307 -0.1430
  114OSM    H9F11915   2.880   0.111   9.945  0.1221 -0.8672  0.0625
  114OSM   C10F11916   3.048   0.119   9.808  0.0259 -0.4134  0.6607
  114OSM   H10F11917   2.991   0.149   9.719 -1.2288  0.9389  1.8871
  114OSM   C11F11918   3.193   0.114   9.772 -0.0777  0.6759  0.2357
  114OSM   H11F11919   3.248   0.115   9.869  1.1317 -0.1473 -0.4158
  114OSM   H11G11920   3.222   0.197   9.704 -2.6913  0.1794 -1.6447
  114OSM   C12F11921   3.212  -0.018   9.691 -0.0035 -0.2856 -1.1076
  114OSM   H12F11922   3.160  -0.011   9.593 -0.4684  0.9345 -0.7843
  114OSM   H12G11923   3.172  -0.097   9.758  0.4699 -0.2775 -0.8119
  114OSM   C13F11924   3.360  -0.048   9.657  0.0269 -1.2570  0.1954
  114OSM   H13F11925   3.375  -0.148   9.613  3.4689 -0.4553 -0.7337
  114OSM   H13G11926   3.426  -0.060   9.746  1.0240  1.4437 -0.0650
  114OSM   C14F11927   3.429   0.048   9.562 -0.2460 -0.2515 -0.1586
  114OSM   H14F11928   3.459   0.140   9.617 -4.0084  1.4672 -0.6453
  114OSM   H14G11929   3.360   0.073   9.479 -0.4059  2.4989  0.6836
  114OSM   C15F11930   3.558  -0.012   9.516  0.6166  0.5240  0.9807
  114OSM   H15F11931   3.523  -0.108   9.473 -2.2958  1.5995  0.7824
  114OSM   H15G11932   3.632  -0.052   9.589  0.2716 -1.4933  0.3005
  114OSM   C16F11933   3.637   0.073   9.416  0.0571 -0.7590  0.7380
  114OSM   H16F11934   3.668   0.171   9.458  2.1698 -1.0489 -0.0247
  114OSM   H16G11935   3.577   0.105   9.327  2.3714  1.0990 -0.2653
  114OSM   C17F11936   3.766  -0.004   9.371  0.2003  0.9358  0.4357
  114OSM   H17F11937   3.738  -0.075   9.290 -2.6603  0.8337  1.4029
  114OSM   H17G11938   3.798  -0.066   9.457 -1.3629 -0.0965  0.3258
  114OSM   C18F11939   3.875   0.083   9.318  0.0111 -0.1970  0.2394
  114OSM   H18F11940   3.944   0.108   9.401  2.6473  1.2720 -2.2090
  114OSM   H18G11941   3.836   0.175   9.270  0.6951 -0.7587 -1.4528
  114OSM   H18H11942   3.940   0.036   9.242  0.8274  0.9788  0.1882
  115OSM      N11943   0.602   4.925   5.897 -0.0290  0.5721  0.3044
  115OSM    C1511944   0.733   4.959   5.835  0.1761 -0.7512  0.2714
  115OSM   H15A11945   0.797   4.878   5.803  0.4036 -1.5176  2.4987
  115OSM   H15B11946   0.796   5.027   5.889  1.3010 -0.2625 -1.5696
  115OSM   H15C11947   0.712   5.017   5.746 -2.8834  0.7216  1.7839
  115OSM    C1411948   0.512   5.045   5.893  0.7271 -0.1966  0.4546
  115OSM   H14A11949   0.407   5.033   5.915  0.6640 -0.3301  0.0946
  115OSM   H14B11950   0.511   5.087   5.793 -1.0403  0.5186  0.7346
  115OSM   H14C11951   0.561   5.126   5.946  1.1012  2.2599 -3.2521
  115OSM    C1311952   0.533   4.813   5.835  0.3075 -0.6544 -0.0436
  115OSM   H13A11953   0.440   4.809   5.889  1.0881  1.8139  1.6344
  115OSM   H13B11954   0.585   4.718   5.844  0.3350 -0.7519 -1.0518
  115OSM   H13C11955   0.513   4.838   5.732 -0.2841  3.0741  0.8439
  115OSM    C1211956   0.620   4.898   6.042  0.2428  0.2140 -0.1394
  115OSM   H12A11957   0.661   4.982   6.096  0.5309 -0.7173  1.1346
  115OSM   H12B11958   0.697   4.825   6.061  0.4313  0.4908  0.1714
  115OSM    C1111959   0.490   4.873   6.132 -0.1022 -0.1747 -1.1753
  115OSM   H11A11960   0.423   4.961   6.128  0.4666  0.3528  0.1991
  115OSM   H11B11961   0.514   4.871   6.240  0.6071 -0.4755 -1.3316
  115OSM      P11962   0.450   4.606   6.119 -0.5882 -0.7944  0.4484
  115OSM    O1311963   0.321   4.552   6.138  0.4409 -0.0243  0.1266
  115OSM    O1411964   0.536   4.547   6.012 -0.4250  0.4255 -0.3792
  115OSM    O1111965   0.531   4.607   6.258 -0.6135  0.0841  0.3124
  115OSM    O1211966   0.420   4.759   6.093 -0.3203 -0.7125  0.0727
  115OSM    C1S11967   0.462   4.616   6.384  0.1719 -0.8687 -0.8793
  115OSM    H1S11968   0.353   4.596   6.381 -0.1014  0.3205  0.2025
  115OSM    H1T11969   0.480   4.718   6.425 -0.9587 -1.3072  0.8132
  115OSM     NF11970   0.468   4.526   6.614  0.0893 -0.6127 -0.2252
  115OSM    HNF11971   0.508   4.595   6.674 -0.1457 -0.7415  0.0797
  115OSM    C2S11972   0.528   4.514   6.484 -0.9252 -0.1205  0.8281
  115OSM    H2S11973   0.511   4.413   6.440  1.2635  0.0823 -0.6315
  115OSM    C3S11974   0.688   4.532   6.480 -0.3353 -0.4564 -0.5768
  115OSM    H3S11975   0.716   4.638   6.496 -2.2172  0.0084 -0.1202
  115OSM     O311976   0.748   4.492   6.358 -0.1145 -0.0132  0.1261
  115OSM    HO311977   0.670   4.479   6.302 -0.3044 -0.7490  0.5474
  115OSM    C4S11978   0.750   4.453   6.591 -0.2345  0.3012 -0.2317
  115OSM    H4S11979   0.767   4.525   6.673 -0.5378  0.7895 -0.5893
  115OSM    C5S11980   0.784   4.327   6.601  0.4135  0.8239  0.4763
  115OSM    H5S11981   0.760   4.264   6.514 -0.4156 -1.3853  2.2054
  115OSM    C6S11982   0.827   4.253   6.725 -0.5113  0.0036  0.1470
  115OSM    H6S11983   0.936   4.242   6.704 -0.5460  0.8320 -0.5399
  115OSM    H6T11984   0.791   4.149   6.740  1.1522 -0.3604  1.9898
  115OSM    C7S11985   0.805   4.313   6.871  0.8193  0.0435  0.3389
  115OSM    H7S11986   0.699   4.348   6.870  0.6215 -0.4906  1.3210
  115OSM    H7T11987   0.870   4.402   6.888  0.8217  0.3443 -1.0949
  115OSM    C8S11988   0.830   4.222   6.980  0.3209  0.7778 -0.6041
  115OSM    H8S11989   0.931   4.175   6.987  0.0757  0.4736  1.4457
  115OSM    H8T11990   0.762   4.134   6.972  0.6061  0.3536  1.2404
  115OSM    C9S11991   0.805   4.273   7.122 -0.0407  0.8012  0.7316
  115OSM    H9S11992   0.708   4.326   7.121 -0.4602  0.1526 -2.1144
  115OSM    H9T11993   0.896   4.328   7.154  1.5690 -1.9873  1.3600
  115OSM   C10S11994   0.784   4.154   7.223 -0.4502  0.1609  0.0315
  115OSM   H10S11995   0.875   4.090   7.214  0.1109  1.0372 -0.6601
  115OSM   H10T11996   0.698   4.092   7.189  0.7894 -2.4716  1.3978
  115OSM   C11S11997   0.757   4.211   7.354  0.0851  0.2416  0.0888
  115OSM   H11S11998   0.676   4.288   7.357 -1.8862 -1.7244  0.0826
  115OSM   H11T11999   0.847   4.260   7.395  1.4349 -1.6030 -0.5430
  115OSM   C12S12000   0.713   4.109   7.472 -0.3930  0.0545  0.4113
  115OSM   H12S12001   0.796   4.036   7.478  1.5074  2.0418 -0.2355
  115OSM   H12T12002   0.628   4.053   7.428 -0.5759  0.9005 -0.3398
  115OSM   C13S12003   0.684   4.168   7.612  0.6560 -0.3284  0.2421
  115OSM   H13S12004   0.654   4.088   7.683 -0.6728 -0.8881 -0.8868
  115OSM   H13T12005   0.588   4.223   7.597  1.7030  1.5346 -0.0289
  115OSM   C14S12006   0.788   4.256   7.670 -0.3191 -0.5770  0.3543
  115OSM   H14S12007   0.790   4.347   7.606  1.9708 -0.9078 -0.1404
  115OSM   H14T12008   0.886   4.208   7.650  0.6197  1.2892  0.2380
  115OSM   C15S12009   0.778   4.302   7.816  0.0870  0.0439 -0.7594
  115OSM   H15S12010   0.781   4.210   7.878  0.8977  0.0084 -0.8444
  115OSM   H15T12011   0.679   4.347   7.839  0.5276 -0.0774  1.6107
  115OSM   C16S12012   0.889   4.402   7.851  0.9141 -0.0065 -0.1036
  115OSM   H16S12013   0.877   4.482   7.775  0.2211  1.2274  1.2609
  115OSM   H16T12014   0.993   4.365   7.840  1.4464  0.8177  1.7677
  115OSM   C17S12015   0.884   4.456   7.997 -0.0199  0.2011 -1.1169
  115OSM   H17S12016   0.923   4.385   8.073 -0.1811  0.5583 -0.6982
  115OSM   H17T12017   0.776   4.466   8.018 -0.1487  2.1273 -2.4702
  115OSM   C18S12018   0.957   4.586   8.015 -0.7844 -0.6011  0.5244
  115OSM   H18S12019   1.068   4.582   8.021 -0.7516 -1.2743 -0.4123
  115OSM   H18T12020   0.931   4.622   8.117  0.9869 -0.5915  1.0008
  115OSM   H18U12021   0.931   4.669   7.945  1.0659  1.5697  2.2363
  115OSM    C1F12022   0.358   4.466   6.649 -0.0335 -0.0828 -0.0348
  115OSM     OF12023   0.299   4.395   6.570  0.6106  0.1569 -0.3506
  115OSM    C2F12024   0.303   4.496   6.781  0.2081  0.4401 -0.0131
  115OSM    H2F12025   0.290   4.606   6.788  1.4942  0.5102  2.3458
  115OSM    H2G12026   0.374   4.468   6.862  0.9755  1.4176 -0.3355
  115OSM    C3F12027   0.164   4.425   6.803  0.2890  0.4481 -0.1507
  115OSM    H3F12028   0.171   4.316   6.781 -1.1842  0.8501 -3.0464
  115OSM    H3G12029   0.086   4.465   6.734  0.6514 -0.0457 -0.8527
  115OSM    C4F12030   0.111   4.445   6.949 -0.0671  0.3241  0.2374
  115OSM    H4F12031   0.188   4.398   7.014 -0.6553 -0.7218  0.1998
  115OSM    H4G12032   0.019   4.384   6.951  0.5548 -0.7763 -1.7019
  115OSM    C5F12033   0.083   4.590   7.005  0.3713  0.7166 -0.1925
  115OSM    H5F12034  -0.001   4.635   6.948 -0.8000 -0.9162  0.1729
  115OSM    H5G12035   0.177   4.648   6.998  0.5127  0.3435 -1.8443
  115OSM    C6F12036   0.058   4.579   7.151  0.1458 -0.4275 -0.3683
  115OSM    H6F12037   0.132   4.513   7.202 -0.2696  0.5653  1.6560
  115OSM    H6G12038  -0.040   4.529   7.170  1.5935 -2.6246  1.9826
  115OSM    C7F12039   0.056   4.721   7.230 -0.6180 -0.2886 -0.0615
  115OSM    H7F12040  -0.019   4.789   7.182 -0.0853 -0.3280 -0.9742
  115OSM    H7G12041   0.152   4.774   7.214  0.9347 -2.8525  0.2567
  115OSM    C8F12042   0.036   4.711   7.384  0.3733  0.4522 -0.1866
  115OSM    H8F12043   0.061   4.813   7.420 -0.3358 -0.4053  3.0342
  115OSM    H8G12044   0.110   4.643   7.432 -0.6867 -0.2960  0.4599
  115OSM    C9F12045  -0.115   4.673   7.401 -0.1373 -0.6906 -0.3140
  115OSM    H9F12046  -0.154   4.603   7.326  0.7335  0.4655 -1.9063
  115OSM   C10F12047  -0.196   4.715   7.499  0.2945 -0.1328  0.0977
  115OSM   H10F12048  -0.298   4.676   7.501 -0.1303  0.9739  1.2129
  115OSM   C11F12049  -0.164   4.815   7.608 -0.2674 -0.6771 -0.2676
  115OSM   H11F12050  -0.253   4.882   7.607 -0.1403 -0.5062 -0.9690
  115OSM   H11G12051  -0.073   4.878   7.593  0.4034 -1.4317  0.5308
  115OSM   C12F12052  -0.156   4.741   7.738  0.0479  0.3760  0.0393
  115OSM   H12F12053  -0.237   4.668   7.757  1.2945 -0.9147  0.5421
  115OSM   H12G12054  -0.151   4.819   7.816  2.8681 -0.7794  1.1509
  115OSM   C13F12055  -0.019   4.660   7.753 -0.7049 -0.5039  0.0201
  115OSM   H13F12056   0.065   4.727   7.730 -0.5891 -1.3594 -2.2827
  115OSM   H13G12057  -0.029   4.583   7.673  1.3081 -0.9307  0.1431
  115OSM   C14F12058  -0.004   4.602   7.889 -0.5375 -0.2619 -0.3514
  115OSM   H14F12059  -0.067   4.511   7.901 -0.2434 -0.5965 -1.2302
  115OSM   H14G12060  -0.021   4.675   7.970  0.8092 -1.2116  0.8489
  115OSM   C15F12061   0.140   4.558   7.900  0.4552  0.1372  0.3992
  115OSM   H15F12062   0.213   4.642   7.903  1.8255 -1.0149  0.5990
  115OSM   H15G12063   0.166   4.495   7.812 -0.3480 -1.0423  0.9819
  115OSM   C16F12064   0.180   4.472   8.026  0.0514  0.3266 -0.0528
  115OSM   H16F12065   0.098   4.398   8.035 -2.0317  2.4074 -0.9553
  115OSM   H16G12066   0.186   4.533   8.119 -3.2654 -0.3051  0.6857
  115OSM   C17F12067   0.323   4.413   8.011 -0.3421 -0.1103 -0.5332
  115OSM   H17F12068   0.380   4.430   8.105  0.4131 -0.7338 -0.8665
  115OSM   H17G12069   0.369   4.468   7.927  1.4787 -0.3373  0.2744
  115OSM   C18F12070   0.347   4.270   7.963 -0.5008 -0.4494 -0.2539
  115OSM   H18F12071   0.314   4.189   8.031 -0.3486  0.1502  0.5465
  115OSM   H18G12072   0.457   4.251   7.964 -0.1829  1.0338  2.3124
  115OSM   H18H12073   0.301   4.257   7.863  0.1773  0.2920 -0.6810
  116OSM      N12074   5.034   1.057   6.333 -0.1241 -0.9826  0.6085
  116OSM    C1512075   4.988   1.126   6.450  0.0750 -0.0369 -0.2109
  116OSM   H15A12076   4.908   1.068   6.493 -0.9989  1.2306 -0.4279
  116OSM   H15B12077   4.945   1.222   6.425 -0.6597 -0.0656  0.8573
  116OSM   H15C12078   5.070   1.155   6.515 -0.1411 -0.6306  0.3332
  116OSM    C1412079   5.105   1.162   6.255 -0.0398 -0.5499  0.3352
  116OSM   H14A12080   5.179   1.213   6.316 -0.3294 -0.7141  0.8255
  116OSM   H14B12081   5.037   1.233   6.209 -0.1701  0.3049  1.7896
  116OSM   H14C12082   5.148   1.108   6.172  0.3009  0.1688  0.0297
  116OSM    C1312083   5.124   0.945   6.374  0.5360  0.0232  0.5519
  116OSM   H13A12084   5.060   0.866   6.411  0.3318 -1.1375 -2.0501
  116OSM   H13B12085   5.201   0.979   6.442  1.0048 -0.1428  0.1129
  116OSM   H13C12086   5.164   0.902   6.283 -0.2744 -0.9998  0.6690
  116OSM    C1212087   4.917   1.002   6.259  0.1225  0.3573  0.4374
  116OSM   H12A12088   4.856   1.085   6.228 -0.1438  0.7787  2.0078
  116OSM   H12B12089   4.858   0.941   6.326 -0.8120 -0.7877 -1.3766
  116OSM    C1112090   4.956   0.915   6.131 -0.4310 -0.2767  1.1143
  116OSM   H11A12091   5.025   0.974   6.068 -1.3398  0.9372  1.2300
  116OSM   H11B12092   4.865   0.892   6.073 -0.2175 -2.1248  1.4220
  116OSM      P12093   4.936   0.673   6.215  0.4481  0.0992 -0.3151
  116OSM    O1312094   4.793   0.691   6.179  0.2204  0.0205  0.1663
  116OSM    O1412095   4.995   0.537   6.179  0.0867 -0.6151 -0.0000
  116OSM    O1112096   4.940   0.695   6.373 -0.8414  0.1857 -0.3131
  116OSM    O1212097   5.022   0.789   6.159 -0.2728  0.5861  0.0545
  116OSM    C1S12098   5.035   0.611   6.446 -0.1952 -0.2320 -0.3974
  116OSM    H1S12099   5.137   0.631   6.407 -1.1718  0.0594 -3.0063
  116OSM    H1T12100   4.998   0.506   6.447 -0.3852 -0.1634  0.1108
  116OSM     NF12101   5.151   0.613   6.675  0.1076 -0.7760  0.8543
  116OSM    HNF12102   5.130   0.539   6.739  0.7739 -0.4929  1.4205
  116OSM    C2S12103   5.034   0.660   6.597 -0.3040 -0.4983 -0.5192
  116OSM    H2S12104   5.044   0.771   6.600  0.6351 -0.5883  2.1535
  116OSM    C3S12105   4.892   0.615   6.651 -0.6646 -0.3919 -1.2809
  116OSM    H3S12106   4.898   0.504   6.653 -0.5717 -0.4184 -2.2707
  116OSM     O312107   4.782   0.648   6.572  0.6387 -0.0418 -0.1313
  116OSM    HO312108   4.816   0.682   6.489 -0.8112 -0.0250 -0.7496
  116OSM    C4S12109   4.872   0.668   6.799  0.1158  0.1238  0.1244
  116OSM    H4S12110   4.909   0.596   6.874 -1.9697 -1.6050 -0.3908
  116OSM    C5S12111   4.813   0.787   6.836  0.3339  0.9115  0.3186
  116OSM    H5S12112   4.778   0.864   6.765 -0.5927 -0.8960 -1.3111
  116OSM    C6S12113   4.793   0.838   6.978 -0.8666 -0.2040  0.7052
  116OSM    H6S12114   4.687   0.841   7.013 -1.7089  2.9882 -1.7589
  116OSM    H6T12115   4.827   0.943   6.978  0.3545 -0.5815  0.2683
  116OSM    C7S12116   4.885   0.777   7.084  0.2605  0.2424  0.2577
  116OSM    H7S12117   4.992   0.768   7.053 -0.0448 -1.2458 -0.4402
  116OSM    H7T12118   4.838   0.678   7.098  1.8936 -0.2666  2.5664
  116OSM    C8S12119   4.871   0.855   7.219  0.0743 -0.3366 -0.0512
  116OSM    H8S12120   4.766   0.852   7.255  0.5530 -0.6739  1.4016
  116OSM    H8T12121   4.897   0.963   7.215  0.1932 -0.3202  0.9306
  116OSM    C9S12122   4.960   0.797   7.330 -0.2877 -0.0247  0.3366
  116OSM    H9S12123   5.067   0.794   7.301 -0.0532 -5.1118  0.7523
  116OSM    H9T12124   4.938   0.690   7.352 -0.0881 -0.0798  0.2641
  116OSM   C10S12125   4.931   0.872   7.455 -0.5672  0.3980  0.1152
  116OSM   H10S12126   4.822   0.862   7.474 -0.7370 -2.8682 -1.8643
  116OSM   H10T12127   4.959   0.979   7.445 -0.5910  0.2488 -2.0447
  116OSM   C11S12128   5.002   0.811   7.574  0.6626  1.0992 -0.1096
  116OSM   H11S12129   5.106   0.778   7.554 -0.9344 -3.3184 -2.6064
  116OSM   H11T12130   4.964   0.710   7.601  3.7624  0.2593  1.5683
  116OSM   C12S12131   5.006   0.900   7.692  0.4032 -0.1580  0.5123
  116OSM   H12S12132   4.914   0.914   7.754  0.7408  2.0485  0.5892
  116OSM   H12T12133   5.026   1.004   7.659  0.2526 -0.0608  0.7225
  116OSM   C13S12134   5.121   0.867   7.791  0.2372 -0.6797 -0.7459
  116OSM   H13S12135   5.170   0.966   7.803 -3.7678  1.2999  1.3062
  116OSM   H13T12136   5.188   0.796   7.739  0.1731 -1.6058  0.4114
  116OSM   C14S12137   5.075   0.810   7.917  0.6539 -0.2212  0.4700
  116OSM   H14S12138   5.049   0.703   7.902  0.0208 -0.0304  0.1841
  116OSM   H14T12139   4.980   0.861   7.946  0.9861  1.1400 -0.7081
  116OSM   C15S12140   5.183   0.848   8.015  0.3353  0.4247 -0.8821
  116OSM   H15S12141   5.155   0.955   8.026 -1.2182 -0.0334 -0.0130
  116OSM   H15T12142   5.289   0.837   7.985  0.5391 -2.4530  0.6005
  116OSM   C16S12143   5.145   0.782   8.149 -0.3993 -0.2620  0.0992
  116OSM   H16S12144   5.170   0.674   8.149  2.7193  0.3446 -1.3704
  116OSM   H16T12145   5.034   0.787   8.156 -0.3632  0.1916  0.4302
  116OSM   C17S12146   5.205   0.863   8.264  0.0610 -0.9056 -0.5688
  116OSM   H17S12147   5.178   0.798   8.350  1.4838 -2.5042 -1.2734
  116OSM   H17T12148   5.157   0.962   8.280  1.0867 -0.6742  1.3747
  116OSM   C18S12149   5.355   0.881   8.273 -0.3120 -0.1928  0.1563
  116OSM   H18S12150   5.393   0.776   8.280  0.0543  0.0020  1.3694
  116OSM   H18T12151   5.390   0.938   8.362 -0.7416 -0.2109  0.3406
  116OSM   H18U12152   5.395   0.939   8.188 -0.1080  1.1291  1.1180
  116OSM    C1F12153   5.276   0.640   6.645  0.0968 -0.1386  0.3991
  116OSM     OF12154   5.309   0.748   6.592  0.4476  0.1213  0.2017
  116OSM    C2F12155   5.376   0.530   6.662 -0.2189 -0.5021  0.8370
  116OSM    H2F12156   5.379   0.474   6.566 -0.3481  0.6238  0.1574
  116OSM    H2G12157   5.339   0.457   6.737 -2.0371 -2.7893 -2.0254
  116OSM    C3F12158   5.512   0.589   6.705 -0.0661  0.1731 -0.5972
  116OSM    H3F12159   5.491   0.638   6.802 -1.6819 -1.6968  0.0693
  116OSM    H3G12160   5.560   0.660   6.634  1.2371  2.6007  2.4848
  116OSM    C4F12161   5.608   0.480   6.730 -0.0088 -0.2895 -0.3087
  116OSM    H4F12162   5.630   0.420   6.639 -1.2927  0.2696 -1.0254
  116OSM    H4G12163   5.565   0.416   6.810  2.0507 -0.1617  0.9602
  116OSM    C5F12164   5.745   0.528   6.774 -0.3610 -0.2336 -0.0952
  116OSM    H5F12165   5.793   0.598   6.702  0.5472  0.1678  0.8707
  116OSM    H5G12166   5.817   0.444   6.779 -0.7645 -0.6042 -0.4683
  116OSM    C6F12167   5.743   0.592   6.921  0.6459 -0.7001 -0.1900
  116OSM    H6F12168   5.710   0.516   6.995  1.7311 -1.5207 -0.5298
  116OSM    H6G12169   5.665   0.672   6.930 -1.5016 -2.6765 -0.2516
  116OSM    C7F12170   5.883   0.634   6.957  0.5417 -0.5341 -0.0894
  116OSM    H7F12171   5.915   0.718   6.892 -0.1801  0.9489  1.4061
  116OSM    H7G12172   5.958   0.553   6.949  0.4951 -0.8405  2.1250
  116OSM    C8F12173   5.894   0.679   7.104 -0.7995  0.2386  0.5216
  116OSM    H8F12174   5.855   0.599   7.170 -1.0756  0.9813  1.2739
  116OSM    H8G12175   5.846   0.777   7.124  1.0853  1.0614  1.2532
  116OSM    C9F12176   6.037   0.692   7.166  1.0187 -0.1247 -0.2100
  116OSM    H9F12177   6.112   0.651   7.097 -0.0822  0.4785 -1.8322
  116OSM   C10F12178   6.071   0.737   7.285  0.6084  0.2121 -0.6008
  116OSM   H10F12179   6.179   0.748   7.301  0.2961  1.9776  0.5485
  116OSM   C11F12180   5.980   0.786   7.399  0.4686  0.0037  0.1338
  116OSM   H11F12181   5.873   0.755   7.394 -0.2286  2.2020  0.2543
  116OSM   H11G12182   5.975   0.897   7.391 -1.8931 -0.1658 -2.1810
  116OSM   C12F12183   6.022   0.755   7.543  0.6127 -0.3154  0.1182
  116OSM   H12F12184   6.132   0.767   7.544  0.3640  2.7032  0.7255
  116OSM   H12G12185   5.996   0.647   7.554 -0.7249 -0.2228 -1.6323
  116OSM   C13F12186   5.946   0.838   7.649 -0.0813 -0.0116 -0.0102
  116OSM   H13F12187   5.841   0.805   7.660 -0.0998  0.2325  0.5569
  116OSM   H13G12188   5.949   0.943   7.614  0.0871  0.4002  1.2124
  116OSM   C14F12189   6.009   0.841   7.787 -0.4340 -0.3944  0.8784
  116OSM   H14F12190   6.116   0.826   7.760 -1.1613 -0.7583 -2.1540
  116OSM   H14G12191   5.971   0.757   7.849  0.0723 -0.9022  0.5130
  116OSM   C15F12192   5.995   0.964   7.868 -0.5116 -0.1551  0.0876
  116OSM   H15F12193   5.889   0.979   7.896 -0.9523  0.9840 -1.9403
  116OSM   H15G12194   6.015   1.050   7.801  1.8011 -0.2364  0.5870
  116OSM   C16F12195   6.084   0.966   7.992  0.4376 -0.1541 -0.1120
  116OSM   H16F12196   6.192   0.962   7.964  0.0477 -0.0462 -1.7252
  116OSM   H16G12197   6.057   0.884   8.061  0.6418 -0.5753 -0.5304
  116OSM   C17F12198   6.073   1.092   8.079 -0.1078 -0.2972  0.1386
  116OSM   H17F12199   5.965   1.096   8.108 -1.2558 -0.8116 -3.4593
  116OSM   H17G12200   6.088   1.182   8.016 -1.1852  1.3182  2.0591
  116OSM   C18F12201   6.170   1.106   8.197 -0.2245 -0.6010 -0.1278
  116OSM   H18F12202   6.148   1.208   8.235  0.5122 -1.0322  1.5636
  116OSM   H18G12203   6.277   1.096   8.170 -0.1934 -1.5528  0.3221
  116OSM   H18H12204   6.144   1.035   8.278 -0.1689 -1.0542 -0.5052
  117OSM      N12205   2.055   2.290   6.174  0.3342  0.5926 -0.6866
  117OSM    C1512206   2.188   2.285   6.106 -0.1521  0.1160  0.2199
  117OSM   H15A12207   2.265   2.339   6.158  0.4021 -2.0253  1.7827
  117OSM   H15B12208   2.179   2.331   6.009  0.9160 -0.4314 -0.1524
  117OSM   H15C12209   2.214   2.181   6.092 -0.1859 -0.0046  1.0120
  117OSM    C1412210   2.011   2.436   6.161  0.7562  0.2520 -0.2622
  117OSM   H14A12211   1.993   2.456   6.057  0.3931 -2.3317 -0.7596
  117OSM   H14B12212   2.084   2.511   6.188 -1.5544  2.5715 -0.1098
  117OSM   H14C12213   1.922   2.446   6.221  0.5614 -2.3039 -0.0118
  117OSM    C1312214   1.953   2.216   6.094 -0.0334  0.4000 -0.2832
  117OSM   H13A12215   1.951   2.264   5.997 -0.8997  0.6729 -0.1372
  117OSM   H13B12216   1.853   2.219   6.134 -0.3431  1.4249 -1.0704
  117OSM   H13C12217   1.976   2.114   6.067  2.2976  0.3290  1.6608
  117OSM    C1212218   2.051   2.236   6.310 -0.2822  0.6327  0.5684
  117OSM   H12A12219   2.077   2.131   6.309  0.8995  0.9066 -0.3844
  117OSM   H12B12220   1.948   2.249   6.339 -0.6832  0.4794 -0.7118
  117OSM    C1112221   2.153   2.296   6.416 -0.1215  0.6310  0.4098
  117OSM   H11A12222   2.110   2.262   6.513 -1.1109 -1.3286 -0.6466
  117OSM   H11B12223   2.137   2.405   6.420  0.0442  0.6455  0.7643
  117OSM      P12224   2.341   2.128   6.425  0.0927 -0.5975 -0.1173
  117OSM    O1312225   2.305   2.037   6.320  0.4894 -0.1765  0.2387
  117OSM    O1412226   2.486   2.132   6.458  0.3103  0.3482 -0.3755
  117OSM    O1112227   2.259   2.090   6.550  0.8722  0.8124  0.6865
  117OSM    O1212228   2.291   2.275   6.400 -0.2687 -0.1433 -0.5488
  117OSM    C1S12229   2.297   1.980   6.631 -0.3939 -0.0257 -0.3356
  117OSM    H1S12230   2.389   1.935   6.590  0.2996  0.7301  0.3562
  117OSM    H1T12231   2.218   1.903   6.620  0.2411 -0.9275  1.1612
  117OSM     NF12232   2.394   1.927   6.863 -0.3069  0.1751 -0.1150
  117OSM    HNF12233   2.355   1.861   6.927  0.3171 -1.4935 -1.3709
  117OSM    C2S12234   2.298   2.006   6.785  0.1044  0.1242  0.5059
  117OSM    H2S12235   2.332   2.111   6.803  1.9894 -0.6689  1.8049
  117OSM    C3S12236   2.148   2.007   6.838 -0.2215  0.3407 -0.3791
  117OSM    H3S12237   2.110   1.903   6.830 -1.8362  0.8245  0.5603
  117OSM     O312238   2.056   2.090   6.766 -0.1385  0.3860  0.0128
  117OSM    HO312239   2.110   2.103   6.688  2.8688 -1.1612  1.6588
  117OSM    C4S12240   2.163   2.041   6.985  0.2768 -0.4971 -0.0567
  117OSM    H4S12241   2.194   1.957   7.048  0.8988 -0.4212 -0.2508
  117OSM    C5S12242   2.124   2.166   7.032  0.6124 -0.0342 -0.3400
  117OSM    H5S12243   2.071   2.230   6.961 -1.2806 -2.6532 -1.4679
  117OSM    C6S12244   2.119   2.204   7.183  0.6763  0.4022 -0.2492
  117OSM    H6S12245   2.023   2.258   7.200  0.4928  0.0431 -0.1293
  117OSM    H6T12246   2.197   2.276   7.213  0.2380 -0.4356  3.2738
  117OSM    C7S12247   2.119   2.095   7.289 -0.4640 -0.2758 -0.1163
  117OSM    H7S12248   2.202   2.024   7.270  1.5644  1.6196  1.1610
  117OSM    H7T12249   2.023   2.038   7.285  0.4462 -1.7879 -1.8160
  117OSM    C8S12250   2.145   2.147   7.431 -0.2017 -0.6655 -0.1275
  117OSM    H8S12251   2.068   2.220   7.464  2.1361  0.8963  2.2791
  117OSM    H8T12252   2.246   2.192   7.425 -0.6486  0.0983 -3.0411
  117OSM    C9S12253   2.148   2.043   7.539 -0.3506  0.2104  0.7375
  117OSM    H9S12254   2.225   1.962   7.531 -1.0397 -0.4887  1.0874
  117OSM    H9T12255   2.054   1.988   7.519 -1.3202  2.5586 -1.8021
  117OSM   C10S12256   2.139   2.109   7.677 -0.5058  0.2611  0.3277
  117OSM   H10S12257   2.047   2.171   7.679  1.0380  2.7100 -0.3275
  117OSM   H10T12258   2.229   2.172   7.693 -1.9621  2.3478  0.6949
  117OSM   C11S12259   2.140   2.000   7.789 -0.0452 -0.4461 -0.6050
  117OSM   H11S12260   2.234   1.940   7.797  1.1402  1.3103 -0.7219
  117OSM   H11T12261   2.054   1.930   7.786 -0.3861 -0.1310  0.8573
  117OSM   C12S12262   2.104   2.066   7.920  0.8015 -1.0844  1.0739
  117OSM   H12S12263   1.997   2.093   7.907  0.5440 -1.6551  1.8993
  117OSM   H12T12264   2.160   2.162   7.920 -1.1174  0.0991 -0.1581
  117OSM   C13S12265   2.118   1.985   8.048 -0.0193 -0.1560 -0.4105
  117OSM   H13S12266   2.226   1.961   8.055  0.1122 -0.1106 -1.9952
  117OSM   H13T12267   2.051   1.898   8.035  0.2413 -0.2944 -0.8318
  117OSM   C14S12268   2.085   2.065   8.171 -0.2172  0.0609  0.1828
  117OSM   H14S12269   1.982   2.106   8.160  0.4147  2.2404  1.7137
  117OSM   H14T12270   2.156   2.150   8.158 -0.2444  0.0785  0.1480
  117OSM   C15S12271   2.104   1.988   8.304 -0.1084 -0.3801  1.1687
  117OSM   H15S12272   2.082   2.058   8.387  1.2893 -2.3200  3.2854
  117OSM   H15T12273   2.207   1.949   8.315  0.7318  1.5071  0.3648
  117OSM   C16S12274   2.010   1.874   8.336  0.6048  0.7867 -0.1591
  117OSM   H16S12275   2.036   1.783   8.277 -2.3374  0.7003 -1.4962
  117OSM   H16T12276   1.906   1.899   8.304 -0.1269  0.4122  1.7552
  117OSM   C17S12277   1.992   1.840   8.481  0.2168 -0.3637 -0.4989
  117OSM   H17S12278   1.948   1.930   8.529 -0.8157  0.0090 -2.0563
  117OSM   H17T12279   2.088   1.841   8.536 -1.2277  2.3628  2.2838
  117OSM   C18S12280   1.912   1.710   8.512 -0.3093  0.2697  0.6398
  117OSM   H18S12281   1.883   1.697   8.619 -0.0820  0.9819  0.7902
  117OSM   H18T12282   1.968   1.617   8.486  0.3438  0.1726  2.2622
  117OSM   H18U12283   1.822   1.708   8.448  0.9843 -0.8447 -1.2369
  117OSM    C1F12284   2.525   1.918   6.850  0.2652 -0.2466  0.1372
  117OSM     OF12285   2.585   1.989   6.767  0.1749 -0.0091 -0.3188
  117OSM    C2F12286   2.598   1.818   6.935  0.5556  0.5486 -0.5182
  117OSM    H2F12287   2.604   1.718   6.887  3.5271 -0.5472  1.8271
  117OSM    H2G12288   2.549   1.804   7.034  0.5123  1.5890 -0.3858
  117OSM    C3F12289   2.754   1.852   6.950  0.6395  0.4581 -0.0078
  117OSM    H3F12290   2.758   1.953   6.996 -0.0695 -0.0556  1.2140
  117OSM    H3G12291   2.793   1.856   6.846 -1.1247 -0.0612 -0.7321
  117OSM    C4F12292   2.836   1.745   7.018 -0.0284  0.2358  0.4177
  117OSM    H4F12293   2.941   1.744   6.981 -0.0875 -0.6121  0.2482
  117OSM    H4G12294   2.797   1.644   6.993 -0.4887  0.6153 -0.4308
  117OSM    C5F12295   2.823   1.758   7.171 -0.3328 -0.0060  0.3475
  117OSM    H5F12296   2.874   1.670   7.216  2.3115  0.3385 -1.7476
  117OSM    H5G12297   2.714   1.757   7.194 -0.0143 -1.4598  2.0357
  117OSM    C6F12298   2.879   1.883   7.241 -0.1888 -0.6147  0.2811
  117OSM    H6F12299   2.834   1.882   7.343 -1.8038 -1.7213 -0.4144
  117OSM    H6G12300   2.833   1.967   7.185  1.5297  0.2529  0.1200
  117OSM    C7F12301   3.032   1.884   7.243  0.1312  0.0927  0.0290
  117OSM    H7F12302   3.075   1.921   7.148  1.8722  1.0005  1.1151
  117OSM    H7G12303   3.063   1.779   7.260 -0.8052 -0.2381 -0.2571
  117OSM    C8F12304   3.109   1.973   7.340 -0.3035 -0.3888  0.2669
  117OSM    H8F12305   3.218   1.952   7.335 -0.0405  1.1677 -2.3687
  117OSM    H8G12306   3.086   1.936   7.442 -1.4424  0.4596  0.3400
  117OSM    C9F12307   3.085   2.120   7.343  0.0958 -0.6549 -0.6806
  117OSM    H9F12308   3.035   2.159   7.253 -3.2448 -0.7634  0.9719
  117OSM   C10F12309   3.114   2.211   7.433 -0.3333 -0.0802  0.2316
  117OSM   H10F12310   3.086   2.314   7.406 -0.4524 -0.2987 -0.5034
  117OSM   C11F12311   3.178   2.191   7.570  0.0516 -0.0520  0.2700
  117OSM   H11F12312   3.221   2.289   7.600  2.1649 -1.0542  0.6416
  117OSM   H11G12313   3.265   2.123   7.560  1.4377  1.8473 -1.5791
  117OSM   C12F12314   3.081   2.132   7.671 -0.3489 -0.0887  0.2959
  117OSM   H12F12315   3.058   2.025   7.648  0.9753 -0.6920  1.6159
  117OSM   H12G12316   2.993   2.200   7.675  0.8028  1.4078  1.0410
  117OSM   C13F12317   3.142   2.136   7.814  0.1085 -0.2727 -0.2684
  117OSM   H13F12318   3.186   2.238   7.823  1.5373 -0.8435 -0.5963
  117OSM   H13G12319   3.222   2.059   7.816 -0.4575 -0.8642  0.0224
  117OSM   C14F12320   3.038   2.116   7.931 -0.9784  0.3335 -0.5268
  117OSM   H14F12321   3.003   2.013   7.909 -1.2624  0.2532  0.2596
  117OSM   H14G12322   2.959   2.195   7.926 -0.2460  1.1553  0.3066
  117OSM   C15F12323   3.106   2.125   8.065  0.2776  0.3033  0.2744
  117OSM   H15F12324   3.032   2.099   8.143 -1.7951  0.4053 -1.5626
  117OSM   H15G12325   3.134   2.230   8.088  0.4730  0.2665  0.2126
  117OSM   C16F12326   3.235   2.040   8.079  0.0579 -0.0152 -0.2755
  117OSM   H16F12327   3.316   2.074   8.011  1.1608 -0.3243  0.8438
  117OSM   H16G12328   3.207   1.939   8.041 -2.1714  1.5916 -3.3750
  117OSM   C17F12329   3.305   2.037   8.213  0.1485  0.7067  0.1183
  117OSM   H17F12330   3.239   2.031   8.302  1.8797  0.2034  1.4373
  117OSM   H17G12331   3.376   1.952   8.206  0.5328  1.0883 -0.7895
  117OSM   C18F12332   3.382   2.167   8.223 -0.5500  0.0487 -0.0193
  117OSM   H18F12333   3.429   2.173   8.323  0.4483 -0.4915 -0.4379
  117OSM   H18G12334   3.315   2.253   8.199  0.8485  1.5005  1.0534
  117OSM   H18H12335   3.462   2.177   8.145 -1.9211  3.5595 -1.1894
  118OSM      N12336   6.380   5.413   5.800 -0.6054  0.3541 -0.2726
  118OSM    C1512337   6.472   5.488   5.892 -0.1296 -0.1199 -0.5317
  118OSM   H15A12338   6.515   5.575   5.845 -1.2428  1.0573  0.5346
  118OSM   H15B12339   6.557   5.432   5.930  0.7875  1.8287  0.4275
  118OSM   H15C12340   6.425   5.526   5.981  2.6841  0.2956  0.8944
  118OSM    C1412341   6.239   5.470   5.823  0.0490  0.0001 -0.8585
  118OSM   H14A12342   6.236   5.570   5.782  3.5250  1.6476  2.2695
  118OSM   H14B12343   6.221   5.475   5.930  1.0095  0.3553 -0.7029
  118OSM   H14C12344   6.159   5.415   5.777  1.4917 -0.7073 -2.6527
  118OSM    C1312345   6.434   5.427   5.663 -0.6051  0.2117 -0.5432
  118OSM   H13A12346   6.371   5.373   5.594  0.2887 -1.2120 -0.2943
  118OSM   H13B12347   6.535   5.393   5.645 -0.7705 -0.0817 -0.9176
  118OSM   H13C12348   6.435   5.530   5.630  0.5813  0.9691  1.6580
  118OSM    C1212349   6.390   5.261   5.834 -0.4128 -0.5041 -0.1221
  118OSM   H12A12350   6.495   5.236   5.824 -0.2530  0.4404 -0.9835
  118OSM   H12B12351   6.323   5.203   5.772  0.6328 -0.3773 -1.4284
  118OSM    C1112352   6.355   5.214   5.978 -0.7331 -0.4007  0.2585
  118OSM   H11A12353   6.436   5.249   6.045  1.4450  0.7057 -2.7167
  118OSM   H11B12354   6.351   5.105   5.955 -2.5367 -0.2596 -0.2848
  118OSM      P12355   6.196   5.335   6.161 -0.0050 -0.3641  0.3653
  118OSM    O1312356   6.276   5.459   6.173 -0.1339  0.2187  0.7541
  118OSM    O1412357   6.050   5.356   6.174 -0.0745 -0.4178 -0.7433
  118OSM    O1112358   6.243   5.233   6.277  0.1845  0.0781  0.3417
  118OSM    O1212359   6.223   5.265   6.013  0.2151 -0.3933  0.2847
  118OSM    C1S12360   6.348   5.275   6.359  0.3991  0.3913 -0.1885
  118OSM    H1S12361   6.302   5.345   6.432 -1.0142 -0.8654  0.1743
  118OSM    H1T12362   6.432   5.319   6.300 -0.3628  1.4058 -0.5487
  118OSM     NF12363   6.478   5.218   6.554 -0.6929  0.0365 -0.3327
  118OSM    HNF12364   6.571   5.237   6.522 -1.2718  0.5018 -1.7972
  118OSM    C2S12365   6.402   5.152   6.452  0.4548 -0.3870  0.0202
  118OSM    H2S12366   6.313   5.096   6.488 -0.0605  0.8717  0.7751
  118OSM    C3S12367   6.472   5.063   6.353  0.5405  0.2375 -0.8065
  118OSM    H3S12368   6.560   5.119   6.314  0.7796  1.0078  0.7710
  118OSM     O312369   6.405   5.025   6.232  0.2976 -0.3244  0.4059
  118OSM    HO312370   6.328   5.082   6.221  0.8187  0.0571 -1.8254
  118OSM    C4S12371   6.523   4.935   6.425 -0.4744 -0.1313  0.2954
  118OSM    H4S12372   6.622   4.938   6.473 -1.0319 -0.2459  1.4846
  118OSM    C5S12373   6.451   4.822   6.444  0.8282 -0.0612  0.2251
  118OSM    H5S12374   6.348   4.816   6.406  0.7089  1.0125  0.3202
  118OSM    C6S12375   6.498   4.708   6.531 -0.0573 -0.0091  0.0132
  118OSM    H6S12376   6.593   4.733   6.582 -1.5636  2.5509  1.7757
  118OSM    H6T12377   6.518   4.620   6.467 -1.1057  0.3187 -0.8076
  118OSM    C7S12378   6.387   4.660   6.618 -0.0473 -0.7239 -0.2312
  118OSM    H7S12379   6.436   4.582   6.680 -0.3523  0.2565  1.3095
  118OSM    H7T12380   6.308   4.607   6.560  2.1022 -1.0974 -3.0339
  118OSM    C8S12381   6.336   4.771   6.716 -0.8359 -0.0653  0.0282
  118OSM    H8S12382   6.270   4.718   6.788  1.1996 -2.4592  0.2677
  118OSM    H8T12383   6.286   4.850   6.656  0.1881 -1.6666 -3.1573
  118OSM    C9S12384   6.436   4.842   6.814 -0.0262  0.4454 -0.6371
  118OSM    H9S12385   6.505   4.895   6.746 -0.6016 -1.3572 -2.7186
  118OSM    H9T12386   6.484   4.768   6.881 -1.4649 -1.7813 -1.9495
  118OSM   C10S12387   6.372   4.939   6.919 -0.5666  0.6339 -0.8780
  118OSM   H10S12388   6.307   4.882   6.989  0.0825  4.0314  2.9116
  118OSM   H10T12389   6.309   5.013   6.864 -0.2765  0.0995 -1.9632
  118OSM   C11S12390   6.470   5.005   7.018  0.1221 -0.4672  0.5892
  118OSM   H11S12391   6.537   5.068   6.956 -1.6550 -0.2615 -1.2409
  118OSM   H11T12392   6.537   4.925   7.056 -0.2441  0.2317  2.8480
  118OSM   C12S12393   6.404   5.076   7.146  0.3152  0.8732  0.6185
  118OSM   H12S12394   6.332   5.000   7.183  0.3948  0.3207 -0.3462
  118OSM   H12T12395   6.346   5.165   7.115  1.9944  2.1191  0.9007
  118OSM   C13S12396   6.498   5.115   7.259 -0.1204 -0.1331 -0.9796
  118OSM   H13S12397   6.555   5.204   7.225  1.3895 -1.0709 -1.0077
  118OSM   H13T12398   6.572   5.034   7.275  2.5874  2.3124 -0.3288
  118OSM   C14S12399   6.417   5.141   7.383 -0.0351 -0.6315 -0.7986
  118OSM   H14S12400   6.368   5.052   7.428  0.9324  0.3539  2.5082
  118OSM   H14T12401   6.344   5.220   7.356 -0.6554 -0.9530 -0.0915
  118OSM   C15S12402   6.509   5.188   7.503  0.2555 -0.3960 -0.5332
  118OSM   H15S12403   6.553   5.287   7.479 -0.5971  0.7359  2.2276
  118OSM   H15T12404   6.591   5.115   7.522  0.7639 -0.0560 -1.3418
  118OSM   C16S12405   6.431   5.198   7.635 -0.1574 -0.4097 -0.3391
  118OSM   H16S12406   6.376   5.107   7.668  0.6919 -0.3850  1.2303
  118OSM   H16T12407   6.355   5.278   7.621  0.0603 -0.4784 -2.0786
  118OSM   C17S12408   6.519   5.230   7.753  0.0011 -0.3064  0.6171
  118OSM   H17S12409   6.569   5.323   7.717 -1.8882  0.4026 -0.2926
  118OSM   H17T12410   6.605   5.160   7.759  0.3996 -0.0283 -1.0891
  118OSM   C18S12411   6.446   5.254   7.884  0.0869  0.3134 -0.4273
  118OSM   H18S12412   6.483   5.331   7.954  0.3328 -2.1138  2.2978
  118OSM   H18T12413   6.459   5.166   7.951 -0.3540  0.5404 -0.0334
  118OSM   H18U12414   6.341   5.286   7.869  0.3610  1.8049  0.6775
  118OSM    C1F12415   6.408   5.283   6.656  0.4385 -0.3295 -0.8779
  118OSM     OF12416   6.286   5.271   6.663 -0.2674 -0.5497 -0.3204
  118OSM    C2F12417   6.490   5.352   6.763 -0.0036 -0.7863  1.0690
  118OSM    H2F12418   6.573   5.394   6.703 -0.2672  0.9136  1.8298
  118OSM    H2G12419   6.521   5.274   6.835  1.7716 -0.4999  0.6492
  118OSM    C3F12420   6.429   5.466   6.839  0.1824 -0.1879 -0.6430
  118OSM    H3F12421   6.338   5.439   6.895  1.2755 -0.1380  1.2291
  118OSM    H3G12422   6.393   5.541   6.765  2.9793  2.9245  0.8684
  118OSM    C4F12423   6.526   5.552   6.926  0.3366 -0.2732  0.1040
  118OSM    H4F12424   6.471   5.637   6.971  2.7416  1.1331  0.5023
  118OSM    H4G12425   6.602   5.600   6.861 -0.3320 -0.0779 -0.5570
  118OSM    C5F12426   6.591   5.466   7.035 -0.4962 -0.1505 -0.8823
  118OSM    H5F12427   6.653   5.382   6.995 -0.0900  0.1215 -0.8386
  118OSM    H5G12428   6.512   5.435   7.105  0.5051  0.5753  0.6156
  118OSM    C6F12429   6.687   5.547   7.126 -0.3458  0.2789  0.4099
  118OSM    H6F12430   6.622   5.603   7.197 -0.7298 -0.4972  0.6869
  118OSM    H6G12431   6.743   5.620   7.064 -1.0715  2.8549  2.5839
  118OSM    C7F12432   6.797   5.468   7.200  0.0514  0.0886  0.3558
  118OSM    H7F12433   6.841   5.393   7.130 -0.3060  1.4092 -1.3446
  118OSM    H7G12434   6.755   5.419   7.290 -0.0567  1.1532  0.8894
  118OSM    C8F12435   6.907   5.563   7.233  0.3246 -0.1112  0.3356
  118OSM    H8F12436   6.874   5.659   7.277  0.7747  1.0536 -1.7423
  118OSM    H8G12437   6.956   5.592   7.137  1.8823 -2.8494  0.1823
  118OSM    C9F12438   7.016   5.504   7.319 -0.9475 -0.2454  0.0891
  118OSM    H9F12439   7.091   5.449   7.260 -0.5166  0.9452 -0.5015
  118OSM   C10F12440   7.020   5.504   7.450 -0.1816 -0.2498 -0.2614
  118OSM   H10F12441   7.104   5.460   7.507  0.2379 -0.4293 -1.0095
  118OSM   C11F12442   6.908   5.565   7.533 -0.4821 -0.0479  0.2592
  118OSM   H11F12443   6.892   5.486   7.610  1.0388 -2.7207 -1.9991
  118OSM   H11G12444   6.812   5.572   7.479 -0.3277  1.9426  0.1731
  118OSM   C12F12445   6.948   5.698   7.590  0.5624 -0.6636  0.4015
  118OSM   H12F12446   6.883   5.738   7.671  0.6199  1.2995 -0.4625
  118OSM   H12G12447   6.935   5.775   7.512  3.0612  0.3577  0.8792
  118OSM   C13F12448   7.088   5.725   7.650  0.4550 -0.3117  0.4115
  118OSM   H13F12449   7.081   5.835   7.664 -1.7221 -0.4034  0.3358
  118OSM   H13G12450   7.168   5.698   7.578 -1.3278 -1.6536 -1.1649
  118OSM   C14F12451   7.110   5.667   7.793 -0.5309 -0.2473  0.3624
  118OSM   H14F12452   7.219   5.672   7.814 -0.2531 -2.7694 -0.2181
  118OSM   H14G12453   7.077   5.562   7.801  1.2381 -0.7216  2.3225
  118OSM   C15F12454   7.036   5.744   7.904  0.1065 -0.0771 -0.1902
  118OSM   H15F12455   7.027   5.674   7.991 -2.8363 -0.3477 -0.6259
  118OSM   H15G12456   6.929   5.757   7.879  0.1041 -0.0921 -0.1888
  118OSM   C16F12457   7.115   5.871   7.954  0.2448  0.2480  0.4699
  118OSM   H16F12458   7.131   5.935   7.864 -0.0928  0.7810  0.7784
  118OSM   H16G12459   7.219   5.847   7.984  0.9326  2.8757  0.4085
  118OSM   C17F12460   7.051   5.950   8.064 -0.4853 -0.0223  0.0612
  118OSM   H17F12461   7.122   6.031   8.091 -0.3634 -0.7430  2.0265
  118OSM   H17G12462   7.047   5.893   8.159 -1.5021  2.0111  1.2945
  118OSM   C18F12463   6.915   6.001   8.042 -0.2309  0.6032  0.1992
  118OSM   H18F12464   6.916   6.083   7.967  1.5134  1.0511  0.6584
  118OSM   H18G12465   6.874   6.050   8.133  3.3113  1.0987  1.6985
  118OSM   H18H12466   6.845   5.924   8.002 -0.0556  0.2997  0.4685
  119OSM      N12467   0.788   4.147   6.040 -0.5557  0.9714  0.7475
  119OSM    C1512468   0.908   4.061   6.070  0.6528 -0.1144  0.1895
  119OSM   H15A12469   0.875   3.958   6.073  0.7247 -0.1575 -0.3995
  119OSM   H15B12470   0.962   4.079   6.162  1.3744  2.0697 -0.5857
  119OSM   H15C12471   0.971   4.059   5.983  0.9568 -0.2077  0.4120
  119OSM    C1412472   0.830   4.287   6.079  0.7055  0.0987  0.3113
  119OSM   H14A12473   0.928   4.306   6.037 -0.6476  0.2354 -3.0297
  119OSM   H14B12474   0.843   4.292   6.186  0.7758 -0.8564  0.3557
  119OSM   H14C12475   0.754   4.359   6.052  0.6089 -0.4238 -0.8485
  119OSM    C1312476   0.752   4.126   5.901 -0.2567  0.2669 -0.8428
  119OSM   H13A12477   0.668   4.187   5.869  1.4018  3.4062  0.3552
  119OSM   H13B12478   0.721   4.025   5.878 -1.0890  0.1832  0.5480
  119OSM   H13C12479   0.836   4.153   5.839 -0.1185  0.2636 -0.6568
  119OSM    C1212480   0.667   4.108   6.128  0.9342 -0.6309 -0.2498
  119OSM   H12A12481   0.692   4.119   6.232 -1.5759  2.7916  0.1687
  119OSM   H12B12482   0.631   4.010   6.099 -0.0564  0.4977 -3.3402
  119OSM    C1112483   0.547   4.208   6.110 -0.5930  0.1903  0.0813
  119OSM   H11A12484   0.580   4.312   6.091  0.0199 -0.3960 -2.4558
  119OSM   H11B12485   0.492   4.223   6.206  0.4918 -0.9756  0.9255
  119OSM      P12486   0.387   4.021   6.018  0.1539 -0.1219 -0.0830
  119OSM    O1312487   0.254   4.045   5.958  0.5729  0.4454  0.2857
  119OSM    O1412488   0.476   3.920   5.962  0.4042  0.0292 -0.1800
  119OSM    O1112489   0.369   4.001   6.176  0.2627 -0.0019 -0.0528
  119OSM    O1212490   0.459   4.162   6.011 -0.6712 -0.4557 -0.4284
  119OSM    C1S12491   0.271   4.080   6.246  0.3536 -0.0763  0.0839
  119OSM    H1S12492   0.171   4.042   6.215 -0.4569  1.1193  1.1522
  119OSM    H1T12493   0.284   4.190   6.232 -0.0513 -0.2039 -1.5006
  119OSM     NF12494   0.178   4.150   6.479  0.1228 -0.6802 -0.2394
  119OSM    HNF12495   0.217   4.236   6.511  0.5541 -0.9354 -0.0723
  119OSM    C2S12496   0.270   4.066   6.406 -0.4684 -0.2381 -0.2243
  119OSM    H2S12497   0.254   3.959   6.429  3.9374 -0.7946  1.2097
  119OSM    C3S12498   0.415   4.096   6.466 -0.3419 -0.1904 -0.0516
  119OSM    H3S12499   0.431   4.206   6.466  1.1147 -0.3809 -0.3134
  119OSM     O312500   0.526   4.037   6.396  0.5684 -0.5810  0.0615
  119OSM    HO312501   0.486   3.982   6.329  0.5253  0.9747 -1.2400
  119OSM    C4S12502   0.431   4.040   6.609  0.1428 -0.4762 -0.6529
  119OSM    H4S12503   0.380   3.947   6.637  0.5433 -0.3400  0.6056
  119OSM    C5S12504   0.470   4.123   6.709  0.2762  0.4857  0.4793
  119OSM    H5S12505   0.483   4.230   6.690 -1.7319  0.9573  1.5223
  119OSM    C6S12506   0.460   4.086   6.854 -0.8953  0.3660 -0.3439
  119OSM    H6S12507   0.545   4.023   6.886 -1.0085  0.5182  0.2722
  119OSM    H6T12508   0.366   4.026   6.862  0.0743 -1.3277 -1.1494
  119OSM    C7S12509   0.461   4.194   6.965 -0.6054  0.0440 -0.7630
  119OSM    H7S12510   0.380   4.265   6.937 -0.5716  0.3463 -0.1236
  119OSM    H7T12511   0.561   4.241   6.976 -0.5049 -0.3648  0.1861
  119OSM    C8S12512   0.417   4.130   7.100 -0.1666  0.1223 -0.3967
  119OSM    H8S12513   0.507   4.073   7.131  0.0711  1.0253  0.6643
  119OSM    H8T12514   0.336   4.056   7.089 -1.4033  1.1779  1.1513
  119OSM    C9S12515   0.376   4.243   7.198  0.0384  0.0599  0.1160
  119OSM    H9S12516   0.303   4.312   7.152  0.2963  0.6139  0.5242
  119OSM    H9T12517   0.465   4.301   7.228 -0.2329 -0.8774  3.0748
  119OSM   C10S12518   0.309   4.185   7.324 -0.3692 -0.7088  0.0630
  119OSM   H10S12519   0.371   4.100   7.359  0.0077 -0.6498 -0.4428
  119OSM   H10T12520   0.209   4.143   7.301  0.5671 -1.9866 -1.9904
  119OSM   C11S12521   0.325   4.290   7.433 -0.5328 -0.0153  0.6121
  119OSM   H11S12522   0.297   4.387   7.387 -0.5399 -0.0820  0.4775
  119OSM   H11T12523   0.433   4.297   7.461 -0.4012 -0.3895  0.2130
  119OSM   C12S12524   0.229   4.265   7.548 -0.5003 -0.0424 -0.3526
  119OSM   H12S12525   0.252   4.326   7.638  1.8015 -2.4490  0.8434
  119OSM   H12T12526   0.239   4.156   7.571  0.4094 -0.2704 -1.6795
  119OSM   C13S12527   0.080   4.298   7.505  0.3355  0.1076 -0.6076
  119OSM   H13S12528   0.047   4.228   7.426  3.0820 -1.2096 -0.7153
  119OSM   H13T12529   0.068   4.399   7.462  1.2669  0.8117  0.6823
  119OSM   C14S12530  -0.014   4.282   7.628  0.0095  0.2015  0.3131
  119OSM   H14S12531   0.006   4.362   7.703 -0.6309  1.5385 -0.8906
  119OSM   H14T12532   0.004   4.184   7.676 -0.0558 -0.8026 -1.6034
  119OSM   C15S12533  -0.162   4.310   7.593 -1.0638 -0.1605  0.4911
  119OSM   H15S12534  -0.184   4.222   7.529 -2.0075 -2.3587  3.5753
  119OSM   H15T12535  -0.150   4.396   7.524  1.0036 -1.6249 -1.0740
  119OSM   C16S12536  -0.262   4.323   7.709 -0.8609 -0.4263 -0.6914
  119OSM   H16S12537  -0.230   4.394   7.788 -1.8981  0.6981 -1.2427
  119OSM   H16T12538  -0.288   4.224   7.752  0.7430 -0.6825 -0.2509
  119OSM   C17S12539  -0.400   4.375   7.675  0.3135 -0.3497 -0.2952
  119OSM   H17S12540  -0.382   4.484   7.656  3.3788 -0.6924  0.1006
  119OSM   H17T12541  -0.470   4.364   7.760  0.5224  2.1687  0.2861
  119OSM   C18S12542  -0.466   4.297   7.560 -0.1594  0.5592 -0.0661
  119OSM   H18S12543  -0.417   4.320   7.463 -1.0515  0.0085 -0.6622
  119OSM   H18T12544  -0.570   4.334   7.548 -0.6801 -0.6477  0.5140
  119OSM   H18U12545  -0.472   4.191   7.591 -0.8561  1.4760  3.3977
  119OSM    C1F12546   0.046   4.125   6.493  0.3433  0.0159  0.7889
  119OSM     OF12547  -0.014   4.042   6.423 -0.0746  0.0137  0.4217
  119OSM    C2F12548  -0.026   4.210   6.598 -0.2007  0.0338  0.9729
  119OSM    H2F12549   0.011   4.312   6.574  0.3252 -0.8006 -2.3552
  119OSM    H2G12550   0.009   4.166   6.694  0.6655 -1.2372  0.1086
  119OSM    C3F12551  -0.186   4.212   6.597  0.0255  0.1685 -0.2718
  119OSM    H3F12552  -0.227   4.114   6.628  0.0603  0.0059 -0.7246
  119OSM    H3G12553  -0.202   4.237   6.490 -1.1493 -1.4183 -0.4921
  119OSM    C4F12554  -0.242   4.324   6.682  0.2601  0.0714 -0.2301
  119OSM    H4F12555  -0.338   4.363   6.642 -0.1856  0.5524  1.2634
  119OSM    H4G12556  -0.170   4.408   6.677  0.1864  0.1198 -0.5268
  119OSM    C5F12557  -0.276   4.285   6.829 -0.0997  0.0687  0.3216
  119OSM    H5F12558  -0.185   4.263   6.888 -0.2136 -0.7058  0.2237
  119OSM    H5G12559  -0.337   4.192   6.836  0.6056 -0.3027  1.7299
  119OSM    C6F12560  -0.335   4.400   6.902  0.2604 -0.1456 -0.2126
  119OSM    H6F12561  -0.435   4.417   6.856  0.6893 -0.9048 -1.4619
  119OSM    H6G12562  -0.273   4.491   6.884 -2.0221  1.6581  0.5038
  119OSM    C7F12563  -0.370   4.377   7.048 -0.3196  0.0133 -0.1078
  119OSM    H7F12564  -0.286   4.321   7.094  0.3676  0.6256 -0.6043
  119OSM    H7G12565  -0.445   4.297   7.067  3.2775 -3.7383 -0.3978
  119OSM    C8F12566  -0.383   4.498   7.130  0.0177 -0.7269  0.2321
  119OSM    H8F12567  -0.288   4.555   7.120 -0.3979 -0.2661 -1.3362
  119OSM    H8G12568  -0.388   4.478   7.239 -2.0781  2.7562  0.9229
  119OSM    C9F12569  -0.500   4.580   7.093  1.2603  0.5390 -1.1691
  119OSM    H9F12570  -0.529   4.583   6.987  1.5474 -1.3195 -1.3444
  119OSM   C10F12571  -0.572   4.663   7.175  0.8776 -0.0808 -0.2644
  119OSM   H10F12572  -0.663   4.716   7.142  0.7147  0.8419  1.5779
  119OSM   C11F12573  -0.536   4.676   7.324  0.1510  0.1523  1.6521
  119OSM   H11F12574  -0.426   4.696   7.327  0.0897  1.2585 -0.7173
  119OSM   H11G12575  -0.546   4.576   7.373 -1.3344 -0.4757  0.1668
  119OSM   C12F12576  -0.613   4.772   7.405  0.1220  0.0701 -0.1791
  119OSM   H12F12577  -0.722   4.749   7.397 -0.2339  1.8238 -0.9294
  119OSM   H12G12578  -0.586   4.869   7.358  2.8826 -0.9710 -0.8948
  119OSM   C13F12579  -0.569   4.774   7.553  0.0498  0.4911 -0.0053
  119OSM   H13F12580  -0.467   4.816   7.563  0.7095 -0.6856 -1.4304
  119OSM   H13G12581  -0.562   4.672   7.597 -0.3605  0.0906 -0.8503
  119OSM   C14F12582  -0.659   4.862   7.641 -0.7939  0.0664 -0.3900
  119OSM   H14F12583  -0.755   4.811   7.660 -0.5812 -0.0862  0.3037
  119OSM   H14G12584  -0.684   4.950   7.577 -0.6490  0.0620 -0.4538
  119OSM   C15F12585  -0.586   4.905   7.769 -0.2875 -0.2797 -0.7685
  119OSM   H15F12586  -0.626   5.004   7.801 -0.1497  0.1610 -1.9401
  119OSM   H15G12587  -0.476   4.917   7.762 -0.1130 -0.6250  0.8035
  119OSM   C16F12588  -0.619   4.821   7.893  0.1431  0.2733  0.3492
  119OSM   H16F12589  -0.602   4.712   7.875  0.4525 -0.1632  2.8522
  119OSM   H16G12590  -0.729   4.828   7.911  0.3923 -1.1006  2.8765
  119OSM   C17F12591  -0.557   4.875   8.018  0.9621 -0.1601  0.4989
  119OSM   H17F12592  -0.629   4.862   8.102 -0.3204 -1.7945 -0.7776
  119OSM   H17G12593  -0.541   4.984   8.007 -3.4396  0.6551  0.4794
  119OSM   C18F12594  -0.431   4.804   8.048 -0.0905 -0.0766 -0.3845
  119OSM   H18F12595  -0.408   4.816   8.156 -0.3765  0.9157 -0.4245
  119OSM   H18G12596  -0.342   4.849   7.999  1.4891 -1.7380  0.8286
  119OSM   H18H12597  -0.419   4.698   8.016  1.1497  0.0394 -0.3575
  120OSM      N12598   2.781   3.121   6.366  0.3866 -0.3597 -0.0473
  120OSM    C1512599   2.878   3.076   6.261 -0.1613  0.1646 -0.8039
  120OSM   H15A12600   2.847   3.108   6.162 -1.8884 -1.8437 -0.9807
  120OSM   H15B12601   2.874   2.968   6.252  3.4671 -0.1955  0.1739
  120OSM   H15C12602   2.971   3.123   6.288 -1.2451  0.9624  1.8359
  120OSM    C1412603   2.644   3.091   6.321 -1.1530  0.1661  0.2849
  120OSM   H14A12604   2.614   3.144   6.232  1.9470  1.3334 -0.1924
  120OSM   H14B12605   2.572   3.113   6.399 -0.0348 -1.4605  1.8690
  120OSM   H14C12606   2.642   2.987   6.290  4.1428 -0.4313  1.1128
  120OSM    C1312607   2.810   3.048   6.491 -0.0204 -0.0038  0.0194
  120OSM   H13A12608   2.912   3.067   6.522  1.1688 -0.8187 -3.0212
  120OSM   H13B12609   2.802   2.941   6.480  1.0575 -0.3368  1.9432
  120OSM   H13C12610   2.744   3.081   6.570  0.4843  0.9680  0.0560
  120OSM    C1212611   2.799   3.265   6.379 -0.5496  0.3216 -0.0717
  120OSM   H12A12612   2.719   3.306   6.438 -0.0853 -1.5933  2.0246
  120OSM   H12B12613   2.782   3.314   6.284  0.4688 -0.2218 -0.5477
  120OSM    C1112614   2.928   3.316   6.448 -0.5822 -0.2183 -0.1525
  120OSM   H11A12615   2.922   3.280   6.553 -3.1724  0.5920  0.0458
  120OSM   H11B12616   2.931   3.426   6.465  1.1776 -0.3404  0.6331
  120OSM      P12617   3.188   3.320   6.460  0.0549  0.2265  0.1878
  120OSM    O1312618   3.298   3.238   6.399 -0.2611 -0.3147  0.5836
  120OSM    O1412619   3.201   3.466   6.453  0.9198 -0.2182  0.3818
  120OSM    O1112620   3.174   3.271   6.613  0.0359  0.7019  0.3456
  120OSM    O1212621   3.052   3.270   6.389  0.6749 -0.1691 -0.1152
  120OSM    C1S12622   3.211   3.130   6.650 -1.1151 -0.0709  0.1913
  120OSM    H1S12623   3.320   3.113   6.632 -0.7438  2.3448 -0.1847
  120OSM    H1T12624   3.140   3.058   6.605 -0.3509 -0.6598 -0.0996
  120OSM     NF12625   3.248   2.985   6.849  0.5128 -0.6698  0.6202
  120OSM    HNF12626   3.176   2.919   6.834 -0.7481  0.7644  0.0414
  120OSM    C2S12627   3.200   3.120   6.807 -0.1054  0.4690 -0.4927
  120OSM    H2S12628   3.268   3.201   6.842  0.8918  1.1036 -3.6230
  120OSM    C3S12629   3.054   3.142   6.859  0.0785  0.1755  0.3807
  120OSM    H3S12630   2.992   3.055   6.827 -0.5607  1.2793 -1.6213
  120OSM     O312631   2.981   3.249   6.800  0.9977  0.7547 -0.1603
  120OSM    HO312632   3.034   3.275   6.725 -0.7551  1.7895 -1.0942
  120OSM    C4S12633   3.057   3.169   7.007  0.1516 -0.2825 -0.1547
  120OSM    H4S12634   3.101   3.263   7.041  0.3695 -0.4708  0.0853
  120OSM    C5S12635   3.023   3.069   7.093 -0.0623  0.4466 -0.5058
  120OSM    H5S12636   2.991   2.969   7.062 -1.6846  0.4308  1.0597
  120OSM    C6S12637   3.037   3.083   7.241  0.3229 -0.3167 -0.2032
  120OSM    H6S12638   3.047   3.191   7.262 -1.7680 -0.1160 -0.0216
  120OSM    H6T12639   3.122   3.019   7.274 -1.3780 -2.2510  0.6577
  120OSM    C7S12640   2.906   3.058   7.315  0.1682  0.0985  0.4124
  120OSM    H7S12641   2.883   2.949   7.312  2.2995 -0.3948 -0.2930
  120OSM    H7T12642   2.823   3.117   7.271  0.3393 -1.4426 -2.2103
  120OSM    C8S12643   2.931   3.102   7.468 -0.5430  0.2024  0.2156
  120OSM    H8S12644   2.964   3.207   7.480 -0.0545 -0.0293  0.9761
  120OSM    H8T12645   3.013   3.046   7.517 -1.2476  0.6391  1.9986
  120OSM    C9S12646   2.812   3.077   7.557  0.2467 -0.2821 -0.6304
  120OSM    H9S12647   2.772   2.977   7.529 -2.8410  0.8027 -0.5144
  120OSM    H9T12648   2.745   3.164   7.541  1.2564  0.7932  0.7734
  120OSM   C10S12649   2.858   3.062   7.703  1.6084 -0.7093 -0.6956
  120OSM   H10S12650   2.885   3.162   7.743 -1.0947 -0.2639  0.2645
  120OSM   H10T12651   2.951   3.001   7.706  1.0257 -1.6054 -0.3386
  120OSM   C11S12652   2.754   3.001   7.798  0.7913  0.0218  0.9247
  120OSM   H11S12653   2.755   2.891   7.780  0.8608  0.2674 -0.6912
  120OSM   H11T12654   2.648   3.030   7.781  0.9452  0.3252  0.4858
  120OSM   C12S12655   2.780   3.029   7.949  0.3246  0.6941  0.2065
  120OSM   H12S12656   2.801   3.136   7.971 -1.5156  1.4925 -1.5998
  120OSM   H12T12657   2.862   2.959   7.978  0.1315 -0.6603 -2.2252
  120OSM   C13S12658   2.654   3.003   8.032  0.1057  0.3287 -0.0147
  120OSM   H13S12659   2.608   2.917   7.978  2.5350 -1.1196  0.0488
  120OSM   H13T12660   2.578   3.082   8.015  1.5351  2.1099  1.4534
  120OSM   C14S12661   2.667   2.973   8.187 -0.4646  0.0863 -0.0812
  120OSM   H14S12662   2.700   2.867   8.192  0.4103  0.1878 -2.3284
  120OSM   H14T12663   2.564   2.975   8.229 -0.7122  0.5017 -0.6840
  120OSM   C15S12664   2.761   3.073   8.260  0.6842 -0.0288 -0.6045
  120OSM   H15S12665   2.731   3.176   8.232 -1.0739 -0.9070 -2.1927
  120OSM   H15T12666   2.869   3.062   8.236  1.1682  0.7793  1.0387
  120OSM   C16S12667   2.757   3.053   8.407  0.1136 -0.1871  0.4142
  120OSM   H16S12668   2.745   2.944   8.424 -0.9165 -0.0306  0.8059
  120OSM   H16T12669   2.658   3.092   8.439  0.2069  0.0603  0.4064
  120OSM   C17S12670   2.866   3.110   8.494 -0.0424 -0.0982  0.3394
  120OSM   H17S12671   2.966   3.073   8.463 -1.1873 -2.5363 -0.7078
  120OSM   H17T12672   2.850   3.061   8.592 -0.0084  0.8974  0.8518
  120OSM   C18S12673   2.866   3.262   8.506  0.0591 -0.3388 -0.0825
  120OSM   H18S12674   2.959   3.315   8.534  0.5671 -1.0455 -0.3950
  120OSM   H18T12675   2.792   3.302   8.579  0.0441  1.5528 -1.0794
  120OSM   H18U12676   2.834   3.301   8.407 -0.5124 -1.3967 -0.3336
  120OSM    C1F12677   3.377   2.954   6.847  0.3439  0.0263  0.4777
  120OSM     OF12678   3.456   3.035   6.795 -0.3357  0.1227 -0.2173
  120OSM    C2F12679   3.419   2.821   6.908  0.6899 -0.5294  0.1873
  120OSM    H2F12680   3.440   2.745   6.830  1.8300  1.6680 -1.7899
  120OSM    H2G12681   3.330   2.790   6.967  0.2411  2.7586  1.5018
  120OSM    C3F12682   3.538   2.840   7.002  0.6136 -0.2436  0.5881
  120OSM    H3F12683   3.621   2.885   6.943 -1.1174  1.0276 -0.9918
  120OSM    H3G12684   3.573   2.740   7.036  0.1762 -0.1918  1.2225
  120OSM    C4F12685   3.508   2.930   7.124 -0.6202 -0.6014 -0.3688
  120OSM    H4F12686   3.457   3.027   7.103  0.3316 -0.3229 -1.5035
  120OSM    H4G12687   3.606   2.950   7.172 -0.7591  0.9578 -0.6760
  120OSM    C5F12688   3.428   2.852   7.221  0.6274 -0.4396 -0.5647
  120OSM    H5F12689   3.457   2.745   7.221 -1.5155 -1.0829 -1.1608
  120OSM    H5G12690   3.321   2.853   7.188  0.6195 -2.1307 -0.6872
  120OSM    C6F12691   3.425   2.898   7.366 -0.0358  0.2172 -0.0611
  120OSM    H6F12692   3.342   2.845   7.417  0.5371 -1.9863 -1.2844
  120OSM    H6G12693   3.398   3.005   7.359  1.7481  0.6212 -1.7625
  120OSM    C7F12694   3.554   2.863   7.443 -0.5458 -0.8182  0.8516
  120OSM    H7F12695   3.636   2.899   7.378 -1.0640 -1.2031 -0.0248
  120OSM    H7G12696   3.562   2.752   7.442 -2.3844 -1.0259 -2.0843
  120OSM    C8F12697   3.567   2.934   7.576 -0.0935  0.3267 -0.8981
  120OSM    H8F12698   3.533   3.039   7.564 -1.1724  0.0684 -0.2506
  120OSM    H8G12699   3.674   2.933   7.607 -0.0989  4.1076 -0.3336
  120OSM    C9F12700   3.476   2.864   7.675 -0.3370  0.0399  1.0118
  120OSM    H9F12701   3.384   2.823   7.631 -0.8860 -0.1006  2.2591
  120OSM   C10F12702   3.485   2.856   7.801  0.0288  0.6572 -0.1782
  120OSM   H10F12703   3.410   2.793   7.853  1.8794 -0.1280  1.7058
  120OSM   C11F12704   3.602   2.907   7.878 -0.2578 -0.3910  0.3715
  120OSM   H11F12705   3.688   2.947   7.819 -0.0919 -1.5211 -0.1873
  120OSM   H11G12706   3.647   2.827   7.942  1.6210  0.1851 -0.1475
  120OSM   C12F12707   3.569   3.028   7.973  0.1021 -0.1601  0.5185
  120OSM   H12F12708   3.474   3.003   8.026  0.0592  0.1080  0.5692
  120OSM   H12G12709   3.549   3.114   7.906 -0.1962 -0.0220  0.7803
  120OSM   C13F12710   3.691   3.060   8.068  0.5160 -0.6672 -0.7148
  120OSM   H13F12711   3.770   3.119   8.016  2.9382 -4.3821 -1.6601
  120OSM   H13G12712   3.727   2.976   8.130 -0.1181  1.0495  2.1884
  120OSM   C14F12713   3.634   3.150   8.178 -0.1524  0.3631 -0.7644
  120OSM   H14F12714   3.552   3.103   8.237  1.3887 -0.9169  0.4685
  120OSM   H14G12715   3.586   3.241   8.135 -0.8327 -0.0353 -0.8703
  120OSM   C15F12716   3.740   3.194   8.282 -0.3031 -0.1258  0.4953
  120OSM   H15F12717   3.825   3.242   8.230 -0.8927  3.3382  2.4596
  120OSM   H15G12718   3.776   3.104   8.336  0.6547 -0.3532 -0.4968
  120OSM   C16F12719   3.687   3.307   8.373  0.0069  0.0902  0.6155
  120OSM   H16F12720   3.608   3.269   8.440  1.3141 -1.4422  1.3626
  120OSM   H16G12721   3.653   3.394   8.313  0.0538  0.1613  0.6924
  120OSM   C17F12722   3.800   3.376   8.460  0.0091  1.0261  0.0222
  120OSM   H17F12723   3.874   3.432   8.399  2.6571  0.1229  2.1905
  120OSM   H17G12724   3.855   3.290   8.505 -0.0153  0.5539 -0.8399
  120OSM   C18F12725   3.743   3.472   8.569 -0.0988  0.1748  0.3210
  120OSM   H18F12726   3.694   3.563   8.529  0.0011  0.8594  1.6999
  120OSM   H18G12727   3.827   3.501   8.636  1.0705 -2.1738 -0.0009
  120OSM   H18H12728   3.680   3.410   8.636  0.0390 -0.3026  0.0152
  121OSM      N12729   6.403   3.556   5.820 -0.2139  0.8209 -0.1162
  121OSM    C1512730   6.530   3.497   5.873  0.2840 -0.1636  0.5346
  121OSM   H15A12731   6.544   3.516   5.979  2.4225  0.6056  0.1732
  121OSM   H15B12732   6.615   3.547   5.830 -0.8124  2.0190  0.8098
  121OSM   H15C12733   6.549   3.393   5.849  0.4520 -0.0523  0.1705
  121OSM    C1412734   6.402   3.703   5.824  0.0595 -0.7106 -0.5920
  121OSM   H14A12735   6.473   3.742   5.752 -0.0535  1.5493  0.4393
  121OSM   H14B12736   6.427   3.747   5.919  1.1701 -0.3011 -1.0629
  121OSM   H14C12737   6.304   3.744   5.805  0.0686 -0.5207 -0.2309
  121OSM    C1312738   6.391   3.511   5.679  0.3646  0.6821 -0.8609
  121OSM   H13A12739   6.483   3.530   5.626  1.6061  2.2795  1.6553
  121OSM   H13B12740   6.304   3.546   5.626  0.7013  0.2359 -1.7297
  121OSM   H13C12741   6.379   3.403   5.679  0.1548  0.6997 -1.7219
  121OSM    C1212742   6.286   3.501   5.899 -0.1488 -0.2829  0.6588
  121OSM   H12A12743   6.292   3.527   6.004 -1.0937  0.4789  0.5447
  121OSM   H12B12744   6.293   3.393   5.889 -0.4356 -0.3745  1.3464
  121OSM    C1112745   6.141   3.548   5.858  0.4787 -0.3373  0.4406
  121OSM   H11A12746   6.061   3.490   5.909  0.8274 -0.4593  0.8483
  121OSM   H11B12747   6.127   3.515   5.752  3.3838  1.0891 -0.4860
  121OSM      P12748   6.072   3.748   6.011  0.0627 -0.0050 -0.0517
  121OSM    O1312749   6.178   3.841   6.057  0.7194  0.1375 -0.4548
  121OSM    O1412750   5.931   3.799   5.997 -0.2895 -0.5390 -0.0420
  121OSM    O1112751   6.073   3.624   6.107  0.0048  0.0127  0.4519
  121OSM    O1212752   6.120   3.684   5.876  0.0296  0.3871 -0.0147
  121OSM    C1S12753   6.145   3.623   6.230  0.1874  0.3868  0.3217
  121OSM    H1S12754   6.232   3.692   6.220 -0.2190  0.7489 -0.9927
  121OSM    H1T12755   6.173   3.517   6.248 -0.6050  0.6071  3.4280
  121OSM     NF12756   6.163   3.718   6.456 -0.0311 -0.1095  0.5201
  121OSM    HNF12757   6.185   3.644   6.520 -1.0849 -1.4323 -0.5787
  121OSM    C2S12758   6.069   3.681   6.351 -0.5435 -0.2072  0.1041
  121OSM    H2S12759   6.019   3.775   6.321  0.4447  0.9916  1.9958
  121OSM    C3S12760   5.961   3.576   6.395  0.1846 -0.0738  0.8380
  121OSM    H3S12761   6.012   3.477   6.395  2.0225  0.7654 -1.1361
  121OSM     O312762   5.853   3.554   6.308  0.3411 -0.0138 -0.0334
  121OSM    HO312763   5.872   3.623   6.245  1.3928  0.1154  0.4167
  121OSM    C4S12764   5.910   3.601   6.536 -0.3295 -0.9982 -0.2985
  121OSM    H4S12765   5.829   3.674   6.521 -0.0942 -1.0812 -2.2656
  121OSM    C5S12766   5.937   3.542   6.651  0.1831  0.1671 -0.5334
  121OSM    H5S12767   6.017   3.467   6.662 -0.5226 -0.7062 -1.1983
  121OSM    C6S12768   5.872   3.583   6.781  0.1051 -0.3962  0.1985
  121OSM    H6S12769   5.782   3.519   6.792 -1.6755  1.7258 -1.1187
  121OSM    H6T12770   5.844   3.690   6.786 -2.6403 -1.0908  1.1295
  121OSM    C7S12771   5.963   3.548   6.900  0.5338  0.0429 -0.0179
  121OSM    H7S12772   6.064   3.590   6.878  0.3386  1.7878  2.1034
  121OSM    H7T12773   5.982   3.439   6.912 -0.3933 -0.3057 -1.3914
  121OSM    C8S12774   5.894   3.594   7.034 -0.6194 -0.3400 -0.6508
  121OSM    H8S12775   5.786   3.569   7.038 -1.1092  1.7509  0.0397
  121OSM    H8T12776   5.899   3.704   7.047  2.5233 -0.7062  3.0710
  121OSM    C9S12777   5.972   3.537   7.152  0.3376 -0.8755 -0.6705
  121OSM    H9S12778   6.078   3.567   7.141 -0.3557  2.1640  0.0075
  121OSM    H9T12779   5.971   3.426   7.140  0.8411 -0.8432 -1.0375
  121OSM   C10S12780   5.926   3.583   7.293 -0.7403  0.6334  0.0618
  121OSM   H10S12781   5.815   3.573   7.291 -0.6600 -0.4190 -1.8774
  121OSM   H10T12782   5.965   3.687   7.302  1.6048 -0.2248  0.5386
  121OSM   C11S12783   5.986   3.495   7.407 -0.4134  0.2300  0.1226
  121OSM   H11S12784   6.096   3.483   7.403 -0.3354  1.0759 -0.6418
  121OSM   H11T12785   5.951   3.395   7.373  0.0430 -0.0022  0.3358
  121OSM   C12S12786   5.948   3.529   7.550  0.4587  0.0879 -0.2395
  121OSM   H12S12787   5.865   3.460   7.578  0.6393  0.4672  1.3071
  121OSM   H12T12788   5.908   3.632   7.567  1.8262  0.6774 -0.4195
  121OSM   C13S12789   6.056   3.488   7.655 -0.2847 -0.2038 -0.5026
  121OSM   H13S12790   6.145   3.554   7.650  0.2083 -0.9293 -1.6972
  121OSM   H13T12791   6.090   3.386   7.629  0.0448 -0.0211 -0.7958
  121OSM   C14S12792   6.006   3.489   7.794  0.3072  0.3455  0.1151
  121OSM   H14S12793   5.942   3.399   7.804  2.6973 -1.5440 -0.7603
  121OSM   H14T12794   5.931   3.570   7.814 -0.9755 -0.7211 -0.2496
  121OSM   C15S12795   6.126   3.486   7.893  0.8610  0.7208  0.7061
  121OSM   H15S12796   6.161   3.591   7.898 -1.4754  1.5148  4.2788
  121OSM   H15T12797   6.198   3.415   7.847  0.7347  1.1744 -0.2063
  121OSM   C16S12798   6.079   3.434   8.025 -0.6729  0.4850 -0.1767
  121OSM   H16S12799   6.038   3.331   8.020 -0.0483  0.1797  0.7349
  121OSM   H16T12800   5.996   3.501   8.056 -1.3000  0.0724 -0.9295
  121OSM   C17S12801   6.175   3.433   8.133  0.5949  0.2147  0.8967
  121OSM   H17S12802   6.246   3.515   8.158  1.6476 -1.3972  3.7235
  121OSM   H17T12803   6.238   3.348   8.098 -1.2536 -1.5975  1.7820
  121OSM   C18S12804   6.112   3.403   8.265  0.0075  0.3643 -0.5744
  121OSM   H18S12805   6.030   3.474   8.289  0.0389 -0.2191  1.4947
  121OSM   H18T12806   6.192   3.403   8.342  0.4903 -0.5166 -1.0543
  121OSM   H18U12807   6.069   3.300   8.263  0.1623  0.2675  0.3162
  121OSM    C1F12808   6.224   3.841   6.451 -0.6456 -0.0296 -0.0801
  121OSM     OF12809   6.202   3.915   6.352  0.2218 -0.3280 -0.4351
  121OSM    C2F12810   6.321   3.877   6.552 -0.0540  0.5922  0.5008
  121OSM    H2F12811   6.426   3.846   6.531 -0.0281  1.0372 -0.0456
  121OSM    H2G12812   6.297   3.818   6.643  1.0099  1.0401  1.0985
  121OSM    C3F12813   6.321   4.028   6.585  0.0739 -0.5231 -0.9108
  121OSM    H3F12814   6.351   4.079   6.491  0.7171  1.1849  0.1811
  121OSM    H3G12815   6.401   4.040   6.661 -1.8169 -2.0117  1.4358
  121OSM    C4F12816   6.197   4.092   6.642  0.4631 -0.2756  0.0168
  121OSM    H4F12817   6.117   4.095   6.565 -1.8904  0.3261  2.3308
  121OSM    H4G12818   6.217   4.197   6.671 -1.9506  1.5438 -3.9772
  121OSM    C5F12819   6.123   4.011   6.752  0.3974 -0.2910 -0.0362
  121OSM    H5F12820   6.094   3.916   6.701  1.7392 -1.4407  1.2407
  121OSM    H5G12821   6.026   4.050   6.789 -0.6386 -0.7101 -2.1808
  121OSM    C6F12822   6.207   3.971   6.877  0.4715 -0.0343  0.9466
  121OSM    H6F12823   6.269   4.055   6.915  2.4449 -1.3979  0.9049
  121OSM    H6G12824   6.276   3.896   6.833  0.3684  1.0021 -1.1434
  121OSM    C7F12825   6.123   3.921   6.988  0.1078 -0.0173  1.0266
  121OSM    H7F12826   6.067   3.833   6.949  2.3876 -0.9606 -0.3079
  121OSM    H7G12827   6.052   4.002   7.015  0.5891  0.1954  1.6718
  121OSM    C8F12828   6.192   3.887   7.120  0.0117  0.4176 -0.2702
  121OSM    H8F12829   6.277   3.818   7.101 -0.3780 -0.7460  1.9040
  121OSM    H8G12830   6.122   3.823   7.179 -0.1932  0.5538 -0.3668
  121OSM    C9F12831   6.243   4.011   7.196 -0.5685 -0.0363 -0.2238
  121OSM    H9F12832   6.317   4.076   7.147 -0.3153 -1.4163 -1.7824
  121OSM   C10F12833   6.189   4.047   7.318 -0.0541 -0.2211 -0.0010
  121OSM   H10F12834   6.230   4.138   7.365  0.5491 -1.5013  2.0696
  121OSM   C11F12835   6.087   3.975   7.399  0.2062  0.4907 -0.6153
  121OSM   H11F12836   6.023   3.915   7.331 -1.0151  0.9134  0.1344
  121OSM   H11G12837   6.032   4.051   7.458  0.1454 -1.5077  2.0852
  121OSM   C12F12838   6.128   3.869   7.511  0.7881 -1.0461  0.1898
  121OSM   H12F12839   6.182   3.795   7.449 -2.2831 -1.1488 -2.6276
  121OSM   H12G12840   6.032   3.825   7.546 -0.2104  1.7762  1.3143
  121OSM   C13F12841   6.206   3.932   7.626  0.0382  0.0268  0.4577
  121OSM   H13F12842   6.142   4.009   7.675 -0.3422  0.2251 -0.3353
  121OSM   H13G12843   6.291   3.991   7.584 -1.4293  1.1365 -1.0861
  121OSM   C14F12844   6.256   3.840   7.733  0.5395  0.0738 -0.3146
  121OSM   H14F12845   6.342   3.784   7.689 -0.5398  0.1930 -2.7389
  121OSM   H14G12846   6.178   3.768   7.766  0.7439  0.6247  1.5031
  121OSM   C15F12847   6.322   3.915   7.850  0.0869 -0.1317 -1.1263
  121OSM   H15F12848   6.245   3.983   7.894 -0.0928 -1.3928  0.6412
  121OSM   H15G12849   6.407   3.975   7.811  0.4286 -0.1659 -0.4583
  121OSM   C16F12850   6.377   3.816   7.950 -0.2265  0.6204 -0.3444
  121OSM   H16F12851   6.461   3.767   7.897  2.5547  1.5151  2.9075
  121OSM   H16G12852   6.312   3.733   7.985  0.1057 -0.4838 -2.2122
  121OSM   C17F12853   6.420   3.879   8.082 -0.8403  0.6179 -0.4995
  121OSM   H17F12854   6.494   3.958   8.056  3.1631 -2.6055  0.0390
  121OSM   H17G12855   6.473   3.790   8.124 -2.9074 -0.6671 -0.4596
  121OSM   C18F12856   6.312   3.926   8.172 -0.0067  0.9212  0.0466
  121OSM   H18F12857   6.359   3.961   8.267  0.1758  2.1029 -0.4645
  121OSM   H18G12858   6.242   3.843   8.195 -2.6915  2.7628 -0.9668
  121OSM   H18H12859   6.242   4.002   8.132 -0.4396  1.5899  1.9324
  122OSM      N12860   6.577   6.264   5.946  0.2667 -0.0238  0.3839
  122OSM    C1512861   6.680   6.205   6.034  0.7799  0.3672  0.2221
  122OSM   H15A12862   6.770   6.264   6.028  0.2488  1.1499 -0.2922
  122OSM   H15B12863   6.702   6.106   5.998  2.7061  0.8547 -0.0751
  122OSM   H15C12864   6.643   6.200   6.135 -2.0559  0.8772 -0.7015
  122OSM    C1412865   6.479   6.344   6.034 -0.1220 -0.1531  0.5800
  122OSM   H14A12866   6.409   6.393   5.968  1.1435 -0.3445 -0.9707
  122OSM   H14B12867   6.540   6.412   6.091  0.2699  0.7828 -0.8932
  122OSM   H14C12868   6.426   6.275   6.098 -0.1279 -0.6055  0.0965
  122OSM    C1312869   6.646   6.366   5.858  0.6889 -0.2213 -0.3936
  122OSM   H13A12870   6.579   6.405   5.784 -2.1022 -0.8366  1.6353
  122OSM   H13B12871   6.727   6.317   5.807  3.0483  1.0275  1.9202
  122OSM   H13C12872   6.694   6.433   5.928 -0.5999 -1.8362  2.2330
  122OSM    C1212873   6.505   6.169   5.860  0.3846 -0.0312  1.1085
  122OSM   H12A12874   6.565   6.116   5.787 -0.7165 -0.1223  0.2344
  122OSM   H12B12875   6.434   6.222   5.798  0.5982 -0.1996  0.7174
  122OSM    C1112876   6.433   6.037   5.916  0.1887 -0.2864 -0.4222
  122OSM   H11A12877   6.503   5.969   5.970 -0.5895  0.0764  1.0946
  122OSM   H11B12878   6.392   5.973   5.836  0.3050 -2.6351  1.2974
  122OSM      P12879   6.186   6.101   5.974 -0.1429 -0.0129 -0.1217
  122OSM    O1312880   6.148   6.235   6.018 -0.2114 -0.3306 -0.7875
  122OSM    O1412881   6.166   6.062   5.836 -0.0235 -0.0252  0.0543
  122OSM    O1112882   6.107   5.996   6.052 -0.0403 -0.3990 -0.1137
  122OSM    O1212883   6.338   6.081   6.011  0.4410 -0.2117 -0.0940
  122OSM    C1S12884   6.185   5.897   6.121 -0.3277 -0.1798  0.4007
  122OSM    H1S12885   6.261   5.948   6.185  0.6074  0.0331 -0.8267
  122OSM    H1T12886   6.243   5.827   6.058  0.4308 -1.5110  2.4737
  122OSM     NF12887   6.179   5.718   6.294 -0.9140  0.2272 -0.1938
  122OSM    HNF12888   6.210   5.631   6.256 -0.0155  0.7642 -0.7262
  122OSM    C2S12889   6.096   5.806   6.210  0.2765 -0.1378  0.7361
  122OSM    H2S12890   6.040   5.866   6.285  1.1011 -0.9801  2.0705
  122OSM    C3S12891   5.990   5.725   6.129  0.0596 -0.5474  0.0027
  122OSM    H3S12892   6.037   5.642   6.072  0.7492 -1.5486  1.9680
  122OSM     O312893   5.919   5.808   6.036  0.2599  0.0450  0.0641
  122OSM    HO312894   5.974   5.883   6.014  1.0077 -0.6353 -0.4231
  122OSM    C4S12895   5.887   5.669   6.228  0.1363 -0.0293 -0.1405
  122OSM    H4S12896   5.908   5.563   6.247 -1.4173 -0.4440 -0.5819
  122OSM    C5S12897   5.785   5.739   6.293 -0.8128  0.1286 -0.3783
  122OSM    H5S12898   5.787   5.849   6.281  0.5322  0.2184  0.4358
  122OSM    C6S12899   5.681   5.683   6.391 -0.9862  0.3925  0.1285
  122OSM    H6S12900   5.704   5.577   6.417 -0.6664 -0.0017 -1.6433
  122OSM    H6T12901   5.589   5.673   6.331 -1.6146  0.6187  1.0415
  122OSM    C7S12902   5.664   5.771   6.517  0.5643  0.7094 -0.5456
  122OSM    H7S12903   5.635   5.875   6.489 -3.6729  0.8935  3.2723
  122OSM    H7T12904   5.766   5.770   6.561  0.5462  2.0246 -0.4164
  122OSM    C8S12905   5.554   5.720   6.615 -0.7711  0.4322 -0.0601
  122OSM    H8S12906   5.559   5.609   6.614  0.0614  0.4570 -1.5360
  122OSM    H8T12907   5.454   5.744   6.574 -0.1555 -0.7812 -2.4461
  122OSM    C9S12908   5.562   5.761   6.761  0.5748  0.2413  0.5118
  122OSM    H9S12909   5.635   5.696   6.814 -0.6228 -2.1083 -0.6002
  122OSM    H9T12910   5.466   5.749   6.816 -0.2814  0.6723 -0.8517
  122OSM   C10S12911   5.594   5.914   6.782  0.6664  0.5410  0.3754
  122OSM   H10S12912   5.522   5.970   6.718 -0.4707 -0.6136  0.5830
  122OSM   H10T12913   5.692   5.948   6.743  0.3441  1.8869  0.6824
  122OSM   C11S12914   5.591   5.953   6.932  0.2298 -0.5569  0.8196
  122OSM   H11S12915   5.493   5.934   6.982  0.2709  2.2524  2.1466
  122OSM   H11T12916   5.606   6.062   6.918 -2.6688 -0.3820 -1.8175
  122OSM   C12S12917   5.702   5.889   7.013 -0.3486  0.0665  0.5148
  122OSM   H12S12918   5.798   5.926   6.972 -0.2605  1.3252  1.7588
  122OSM   H12T12919   5.704   5.778   7.007 -0.0441  0.0967  0.0409
  122OSM   C13S12920   5.703   5.920   7.163 -0.0963  0.0465  0.8855
  122OSM   H13S12921   5.595   5.908   7.188  0.1242 -2.0053  1.0529
  122OSM   H13T12922   5.729   6.026   7.181 -0.1254  0.5099 -1.4625
  122OSM   C14S12923   5.799   5.822   7.240  0.4650 -0.2556 -0.5739
  122OSM   H14S12924   5.905   5.834   7.208  0.5267 -2.8501 -1.5289
  122OSM   H14T12925   5.775   5.714   7.227 -1.2362 -0.1812  1.3841
  122OSM   C15S12926   5.792   5.844   7.394 -0.4388  0.2645  0.0758
  122OSM   H15S12927   5.694   5.804   7.429  0.0666 -0.8674  0.2297
  122OSM   H15T12928   5.796   5.953   7.417  3.0233  0.1998  0.2634
  122OSM   C16S12929   5.899   5.770   7.476  0.5139 -0.2752  0.3091
  122OSM   H16S12930   5.995   5.809   7.434  1.1322 -1.4809  0.5549
  122OSM   H16T12931   5.897   5.660   7.464 -0.4720 -0.3848  1.2705
  122OSM   C17S12932   5.887   5.795   7.626 -0.4776 -0.3038 -0.5355
  122OSM   H17S12933   5.792   5.745   7.655  0.7299 -0.3020  4.3575
  122OSM   H17T12934   5.881   5.905   7.636 -2.2354 -0.3382 -0.9960
  122OSM   C18S12935   6.000   5.737   7.703 -0.0054  0.0202 -0.8569
  122OSM   H18S12936   6.088   5.803   7.694 -0.1956  0.3798 -0.1745
  122OSM   H18T12937   6.024   5.633   7.672  0.3825 -0.1443 -0.0177
  122OSM   H18U12938   5.980   5.738   7.812 -1.1778 -0.4370 -1.0555
  122OSM    C1F12939   6.252   5.772   6.393 -0.3163  0.0527  0.1104
  122OSM     OF12940   6.225   5.887   6.429 -0.3041 -0.3450  0.2770
  122OSM    C2F12941   6.362   5.688   6.444 -0.3331  0.1983 -0.0395
  122OSM    H2F12942   6.410   5.624   6.367  1.9998 -0.8468  2.1206
  122OSM    H2G12943   6.321   5.615   6.518  0.0843 -1.9450 -1.8340
  122OSM    C3F12944   6.464   5.779   6.506 -0.2976 -1.0913  0.3335
  122OSM    H3F12945   6.411   5.816   6.596 -1.4113 -0.6857 -0.4705
  122OSM    H3G12946   6.479   5.876   6.455 -2.1402 -0.1470  1.4746
  122OSM    C4F12947   6.582   5.713   6.566 -0.3232  0.0442 -0.1509
  122OSM    H4F12948   6.627   5.658   6.481 -0.7049 -0.6555  0.0983
  122OSM    H4G12949   6.556   5.646   6.651 -0.0593 -0.8792 -0.7883
  122OSM    C5F12950   6.679   5.818   6.632 -0.0787 -0.1943  0.0951
  122OSM    H5F12951   6.715   5.888   6.553 -0.0058 -1.6382 -1.1981
  122OSM    H5G12952   6.767   5.757   6.661 -0.2914 -0.0638  1.0506
  122OSM    C6F12953   6.619   5.889   6.752 -0.0228  0.1352  0.0416
  122OSM    H6F12954   6.557   5.816   6.808 -0.0767  0.7444  0.7966
  122OSM    H6G12955   6.550   5.971   6.723  0.1601 -0.0357 -0.8808
  122OSM    C7F12956   6.735   5.947   6.842  0.0261 -0.3552 -0.2674
  122OSM    H7F12957   6.779   6.026   6.777 -0.4836 -0.3027 -0.5528
  122OSM    H7G12958   6.815   5.875   6.869  0.5612 -0.3016 -1.6057
  122OSM    C8F12959   6.683   6.031   6.965 -0.2110 -0.1987 -0.1174
  122OSM    H8F12960   6.607   6.102   6.924 -1.3525 -1.9277 -1.1088
  122OSM    H8G12961   6.760   6.092   7.017  0.8297 -2.7489  1.4793
  122OSM    C9F12962   6.628   5.935   7.067  0.2433  0.0771 -0.0732
  122OSM    H9F12963   6.540   5.879   7.033 -1.3400  1.5137  1.4364
  122OSM   C10F12964   6.676   5.902   7.189 -0.0727 -0.4031 -0.0117
  122OSM   H10F12965   6.604   5.858   7.259 -0.7679  1.1965  0.3188
  122OSM   C11F12966   6.803   5.955   7.250 -0.1062  0.4605  0.5355
  122OSM   H11F12967   6.866   6.006   7.174 -0.0454 -0.3782  0.0112
  122OSM   H11G12968   6.859   5.865   7.283 -1.6636 -0.5577  0.5229
  122OSM   C12F12969   6.780   6.035   7.374 -0.7090  0.3186 -0.3729
  122OSM   H12F12970   6.726   5.983   7.456  2.3442 -1.4831  0.6929
  122OSM   H12G12971   6.709   6.118   7.357 -0.4782  0.9999  1.6867
  122OSM   C13F12972   6.907   6.092   7.445  0.4234 -0.4062 -0.4884
  122OSM   H13F12973   6.980   6.123   7.367  1.1932 -2.7230 -0.7653
  122OSM   H13G12974   6.942   6.003   7.503  0.6486  0.0521  0.0860
  122OSM   C14F12975   6.885   6.205   7.545  0.0958  0.7642  0.5670
  122OSM   H14F12976   6.802   6.172   7.610 -0.2304  1.7812  0.6896
  122OSM   H14G12977   6.864   6.305   7.501 -0.1415 -0.1544 -1.4913
  122OSM   C15F12978   7.002   6.222   7.645 -0.3370 -0.1126  0.0051
  122OSM   H15F12979   7.005   6.128   7.704 -2.6690 -2.8269 -3.7155
  122OSM   H15G12980   6.983   6.299   7.723 -3.6034 -1.2872  0.5511
  122OSM   C16F12981   7.141   6.247   7.582 -0.3895  0.1016 -0.2050
  122OSM   H16F12982   7.119   6.329   7.510 -1.8207  3.2919  3.5349
  122OSM   H16G12983   7.182   6.160   7.526  0.8880  1.7353 -1.9956
  122OSM   C17F12984   7.249   6.299   7.674  0.2444  0.0304  0.2589
  122OSM   H17F12985   7.217   6.384   7.738 -0.4429  1.1217 -1.4580
  122OSM   H17G12986   7.329   6.332   7.604 -2.0506  1.3050 -1.9726
  122OSM   C18F12987   7.310   6.189   7.762 -0.0373  0.0313 -0.2840
  122OSM   H18F12988   7.226   6.151   7.824 -0.4577 -0.4235 -1.1105
  122OSM   H18G12989   7.401   6.222   7.816 -0.6604 -0.0016  0.8123
  122OSM   H18H12990   7.343   6.103   7.700 -0.6040  0.7590 -1.6316
  123OSM      N12991   3.447   2.663   6.206 -0.0527 -0.5034  0.1392
  123OSM    C1512992   3.302   2.620   6.220  0.7284 -0.3091  0.2197
  123OSM   H15A12993   3.247   2.677   6.147  2.3227  0.0505 -0.7367
  123OSM   H15B12994   3.266   2.627   6.322  2.7923  0.2681  0.9684
  123OSM   H15C12995   3.289   2.517   6.190  1.2739  0.2343 -2.0286
  123OSM    C1412996   3.512   2.588   6.096 -0.0226  0.2238  0.4529
  123OSM   H14A12997   3.454   2.599   6.005  1.5484 -1.8704 -0.9032
  123OSM   H14B12998   3.510   2.482   6.118  0.4929  0.2138  0.4631
  123OSM   H14C12999   3.611   2.629   6.082  0.0320  0.6341  1.8883
  123OSM    C1313000   3.456   2.811   6.171  0.5981  0.4559 -0.0640
  123OSM   H13A13001   3.379   2.865   6.223 -0.5631 -0.9625 -0.2566
  123OSM   H13B13002   3.426   2.828   6.069  0.5536  0.9185  0.0230
  123OSM   H13C13003   3.554   2.856   6.181  0.9362  0.7194 -3.2897
  123OSM    C1213004   3.530   2.644   6.336  0.4249  1.0899  0.3859
  123OSM   H12A13005   3.501   2.545   6.368 -2.0207  1.9586  1.1423
  123OSM   H12B13006   3.485   2.724   6.392 -1.6106  1.3769 -1.5314
  123OSM    C1113007   3.683   2.651   6.336  0.6091  0.4570  0.0865
  123OSM   H11A13008   3.730   2.645   6.437 -0.6124 -0.0402  0.6526
  123OSM   H11B13009   3.708   2.758   6.322 -1.0641  1.3327  2.8272
  123OSM      P13010   3.760   2.405   6.299 -0.0869 -0.2973  0.5580
  123OSM    O1313011   3.653   2.320   6.252  0.2864 -0.2696  0.0259
  123OSM    O1413012   3.890   2.363   6.236  0.2469 -0.0884 -0.1982
  123OSM    O1113013   3.760   2.410   6.454 -0.9577  0.1597  0.3007
  123OSM    O1213014   3.752   2.563   6.252  0.3273 -0.2291  0.8074
  123OSM    C1S13015   3.761   2.290   6.529  0.0637 -0.7234  0.4932
  123OSM    H1S13016   3.867   2.257   6.519 -0.2004 -1.6699  0.7089
  123OSM    H1T13017   3.694   2.212   6.486 -0.7938 -1.0868  2.3789
  123OSM     NF13018   3.743   2.196   6.755 -0.0992  0.5819  0.2523
  123OSM    HNF13019   3.667   2.134   6.773  0.6947 -2.9708 -5.7320
  123OSM    C2S13020   3.717   2.318   6.680  0.2040  0.1657  0.3034
  123OSM    H2S13021   3.778   2.404   6.714  0.2117  0.1196  0.4079
  123OSM    C3S13022   3.566   2.370   6.678  0.3120  0.2366 -0.6801
  123OSM    H3S13023   3.519   2.296   6.610  2.5799 -0.0288 -2.0561
  123OSM     O313024   3.540   2.498   6.623 -0.5629  0.0658  0.1880
  123OSM    HO313025   3.620   2.518   6.575  1.0313 -1.6278  1.9493
  123OSM    C4S13026   3.518   2.361   6.813 -0.9248 -0.4717 -0.5466
  123OSM    H4S13027   3.474   2.261   6.825 -0.7218 -0.7519 -1.9934
  123OSM    C5S13028   3.510   2.453   6.912 -0.3586  0.1317 -0.6931
  123OSM    H5S13029   3.526   2.560   6.892 -1.6108  0.3200 -0.8087
  123OSM    C6S13030   3.445   2.428   7.044  0.7255 -0.0653  0.0197
  123OSM    H6S13031   3.378   2.341   7.063  1.9513 -1.2684 -0.9837
  123OSM    H6T13032   3.374   2.512   7.060  0.2980 -0.2714 -0.7328
  123OSM    C7S13033   3.550   2.413   7.159  0.2600 -0.3821 -0.1631
  123OSM    H7S13034   3.625   2.495   7.153 -0.5834  0.5376  1.1634
  123OSM    H7T13035   3.606   2.319   7.141 -0.2892 -1.1681  1.8928
  123OSM    C8S13036   3.485   2.415   7.293 -0.8601 -0.4521  0.0529
  123OSM    H8S13037   3.423   2.324   7.307 -0.0922 -0.8665  0.8613
  123OSM    H8T13038   3.419   2.504   7.306 -0.9831 -0.4795 -0.3824
  123OSM    C9S13039   3.577   2.425   7.418  0.5738 -0.7441 -0.0205
  123OSM    H9S13040   3.626   2.525   7.419 -0.4775 -0.2110  0.9869
  123OSM    H9T13041   3.651   2.344   7.406  1.9598  0.5821 -0.7894
  123OSM   C10S13042   3.497   2.421   7.548  0.5013  0.7974 -0.8794
  123OSM   H10S13043   3.429   2.332   7.549 -0.7269  1.6417  2.3848
  123OSM   H10T13044   3.421   2.501   7.534 -0.9233 -0.6964 -2.1040
  123OSM   C11S13045   3.579   2.410   7.677 -0.3760  0.2493 -0.1116
  123OSM   H11S13046   3.643   2.499   7.695  2.0746 -1.4671  0.1946
  123OSM   H11T13047   3.659   2.333   7.669 -3.6978 -3.3695 -1.7903
  123OSM   C12S13048   3.487   2.372   7.795  0.0839  0.0159  0.0950
  123OSM   H12S13049   3.423   2.285   7.771 -2.2731  1.2641  1.4773
  123OSM   H12T13050   3.413   2.454   7.807  0.3437  0.2938 -0.1990
  123OSM   C13S13051   3.545   2.353   7.931 -0.0311  0.4323 -0.4700
  123OSM   H13S13052   3.593   2.254   7.943 -2.3457 -0.6694  0.3147
  123OSM   H13T13053   3.457   2.340   7.998 -0.1271 -2.4980 -1.0376
  123OSM   C14S13054   3.651   2.458   7.976 -0.8888  0.0497 -0.8884
  123OSM   H14S13055   3.604   2.558   7.990 -0.8853 -0.2123  1.2082
  123OSM   H14T13056   3.727   2.462   7.894  0.3981 -0.9714  0.2088
  123OSM   C15S13057   3.714   2.424   8.121 -0.7153 -0.2544  0.3568
  123OSM   H15S13058   3.798   2.494   8.140 -0.5630 -0.6400  1.1148
  123OSM   H15T13059   3.752   2.320   8.113 -0.1858 -0.1143  0.9567
  123OSM   C16S13060   3.613   2.437   8.231 -0.6496 -0.0422  0.1916
  123OSM   H16S13061   3.539   2.355   8.220  1.3344 -2.1383  1.5691
  123OSM   H16T13062   3.563   2.534   8.210  0.2956  1.1693  3.0684
  123OSM   C17S13063   3.676   2.449   8.376 -0.6268  0.3024 -0.0488
  123OSM   H17S13064   3.747   2.534   8.378  0.1144 -0.3106  0.8672
  123OSM   H17T13065   3.731   2.353   8.391 -2.3185 -0.6452  0.4305
  123OSM   C18S13066   3.587   2.454   8.493 -0.8770  0.4007 -0.0284
  123OSM   H18S13067   3.530   2.549   8.486  0.3451  1.3553  1.8801
  123OSM   H18T13068   3.643   2.461   8.589  0.8522 -0.9719 -0.8665
  123OSM   H18U13069   3.510   2.374   8.498 -0.2139 -0.4961 -2.5364
  123OSM    C1F13070   3.865   2.158   6.789  0.2211 -0.0780  0.7058
  123OSM     OF13071   3.972   2.206   6.745 -0.0045  0.7937  0.6396
  123OSM    C2F13072   3.871   2.044   6.886 -0.4078  0.0657  0.1295
  123OSM    H2F13073   3.853   1.948   6.834  1.2560  0.7976 -1.9342
  123OSM    H2G13074   3.788   2.062   6.957 -1.1065 -0.2030 -0.6022
  123OSM    C3F13075   4.010   2.038   6.962  0.0323 -0.2945  0.7964
  123OSM    H3F13076   4.025   2.141   7.001  1.0163  0.2199 -0.8372
  123OSM    H3G13077   4.098   2.024   6.894 -0.7011  3.5364 -1.2310
  123OSM    C4F13078   4.021   1.943   7.083 -0.0821  0.4948  0.7597
  123OSM    H4F13079   4.129   1.936   7.108 -0.2439 -1.1423  1.1512
  123OSM    H4G13080   3.993   1.841   7.048 -1.1175  0.5434  1.4047
  123OSM    C5F13081   3.930   1.976   7.202  0.1043  0.1243  1.0506
  123OSM    H5F13082   3.945   1.897   7.279 -0.7088 -1.4606 -0.3431
  123OSM    H5G13083   3.824   1.968   7.168 -0.1138  0.7945  1.5437
  123OSM    C6F13084   3.953   2.121   7.258 -0.0797 -0.1005  0.3922
  123OSM    H6F13085   3.891   2.192   7.200  1.2451 -0.8084 -2.0062
  123OSM    H6G13086   4.057   2.154   7.241 -0.1601  0.3747  0.8039
  123OSM    C7F13087   3.934   2.128   7.408 -0.2272  0.3597 -0.5866
  123OSM    H7F13088   3.952   2.031   7.458  1.2810 -0.4590 -2.5674
  123OSM    H7G13089   3.827   2.152   7.423 -0.8987 -1.6335 -1.7956
  123OSM    C8F13090   4.018   2.240   7.486 -0.3653 -0.0459  0.2583
  123OSM    H8F13091   4.006   2.329   7.421 -2.1140 -1.5356 -1.6149
  123OSM    H8G13092   4.126   2.215   7.491 -0.3890 -0.3214 -0.4350
  123OSM    C9F13093   3.951   2.262   7.621  0.1499 -0.8780  0.0730
  123OSM    H9F13094   3.848   2.298   7.609  0.0101 -0.9048  1.0933
  123OSM   C10F13095   3.993   2.245   7.745  0.2785  0.7899 -0.0783
  123OSM   H10F13096   3.925   2.274   7.827  0.6145  2.1625 -0.2789
  123OSM   C11F13097   4.131   2.187   7.787  0.6446  0.3995 -0.3959
  123OSM   H11F13098   4.187   2.272   7.832 -1.4272  1.8543 -0.4306
  123OSM   H11G13099   4.182   2.142   7.699  0.4991  0.5147 -0.5376
  123OSM   C12F13100   4.104   2.070   7.886 -0.1438  0.9010 -0.0885
  123OSM   H12F13101   4.200   2.020   7.912 -0.7123  0.0878  0.5028
  123OSM   H12G13102   4.034   1.994   7.844  0.2574  0.6032 -0.2211
  123OSM   C13F13103   4.055   2.119   8.020  0.1045  0.2073  0.8358
  123OSM   H13F13104   3.968   2.187   8.009  0.9075  1.5741  2.4652
  123OSM   H13G13105   4.137   2.185   8.057  0.1751  0.7414 -0.2340
  123OSM   C14F13106   4.029   2.004   8.127 -0.2240  0.1785  0.0990
  123OSM   H14F13107   4.116   1.936   8.126  0.4549  1.0273  0.0372
  123OSM   H14G13108   3.948   1.951   8.071  1.8703 -1.2412 -1.7425
  123OSM   C15F13109   3.993   2.048   8.268  0.0621 -0.3119 -0.2237
  123OSM   H15F13110   4.079   2.111   8.297  0.6599 -1.2905  0.2072
  123OSM   H15G13111   3.993   1.952   8.325 -2.3196 -0.8796 -1.0626
  123OSM   C16F13112   3.860   2.119   8.293 -0.1005  0.2073 -0.6438
  123OSM   H16F13113   3.862   2.220   8.246  1.4896 -0.8725 -3.0893
  123OSM   H16G13114   3.856   2.133   8.403 -1.1192 -2.2162 -0.3143
  123OSM   C17F13115   3.732   2.040   8.257 -0.3270 -0.5669  0.2293
  123OSM   H17F13116   3.743   1.997   8.155 -0.1450 -1.6454  0.6817
  123OSM   H17G13117   3.645   2.108   8.269 -0.4707 -0.7526  0.2657
  123OSM   C18F13118   3.692   1.926   8.354  0.4454 -0.1044 -0.7555
  123OSM   H18F13119   3.585   1.899   8.342 -0.4944  3.0284 -0.2835
  123OSM   H18G13120   3.713   1.964   8.456 -1.2854  1.1807 -0.8363
  123OSM   H18H13121   3.755   1.835   8.345 -1.0027 -1.3445  1.0004
  124OSM      N13122   6.131   4.681   6.092 -0.2211  0.1771  0.0953
  124OSM    C1513123   5.991   4.630   6.084  0.2977 -0.6122  0.2126
  124OSM   H15A13124   5.930   4.717   6.103 -0.8504 -1.8508  2.5622
  124OSM   H15B13125   5.968   4.553   6.156 -2.1627 -0.0888  0.0659
  124OSM   H15C13126   5.970   4.601   5.982  1.8030  0.2194 -0.3849
  124OSM    C1413127   6.173   4.699   6.235  0.1612  0.2636  0.4385
  124OSM   H14A13128   6.146   4.615   6.298 -0.5131  0.0863 -0.0788
  124OSM   H14B13129   6.122   4.783   6.278  1.9679  1.3114  0.6243
  124OSM   H14C13130   6.281   4.705   6.245  0.6461 -3.7609 -0.4680
  124OSM    C1313131   6.222   4.575   6.050 -0.2945 -0.3914 -0.3203
  124OSM   H13A13132   6.227   4.567   5.942  1.2412  0.5229 -0.3538
  124OSM   H13B13133   6.213   4.476   6.093  1.7373  0.1702  1.5636
  124OSM   H13C13134   6.323   4.601   6.079 -1.0351  1.6619  0.5795
  124OSM    C1213135   6.147   4.805   6.011  0.7710  0.3881  0.1830
  124OSM   H12A13136   6.116   4.779   5.910 -1.3014 -0.1512  0.9111
  124OSM   H12B13137   6.252   4.829   6.015  1.0852 -0.8855  0.1476
  124OSM    C1113138   6.066   4.932   6.043  0.1103  0.3844  0.3527
  124OSM   H11A13139   6.090   5.017   5.976 -0.1142  0.3540  0.2321
  124OSM   H11B13140   6.092   4.957   6.148  1.0387  0.0211  0.2186
  124OSM      P13141   5.819   4.960   6.140  0.2215  0.0324 -0.4315
  124OSM    O1313142   5.779   5.095   6.101  0.4394  0.7176  0.5046
  124OSM    O1413143   5.721   4.855   6.159 -0.1457  0.5603 -0.9666
  124OSM    O1113144   5.888   4.966   6.288  0.3426  0.1849 -0.3956
  124OSM    O1213145   5.925   4.913   6.030 -0.8356  0.5654  0.3149
  124OSM    C1S13146   5.970   5.077   6.342 -0.1306 -0.2526 -0.4642
  124OSM    H1S13147   5.942   5.176   6.299  0.5850 -0.5958 -1.7650
  124OSM    H1T13148   6.078   5.065   6.319 -0.6267 -2.4085 -1.8875
  124OSM     NF13149   6.016   5.209   6.541 -0.0582 -0.2333 -0.5069
  124OSM    HNF13150   6.109   5.218   6.575  0.3962  0.1290 -1.8001
  124OSM    C2S13151   5.968   5.082   6.497 -0.5109 -0.0632 -0.1221
  124OSM    H2S13152   5.861   5.078   6.526 -0.7115  2.5392 -0.3058
  124OSM    C3S13153   6.046   4.962   6.554 -0.4046  0.3201  0.5160
  124OSM    H3S13154   6.154   4.972   6.532 -0.2397 -2.9763 -0.7480
  124OSM     O313155   6.020   4.832   6.496  0.0598 -0.1023  0.6724
  124OSM    HO313156   5.959   4.846   6.423 -1.7246 -0.5712  2.0015
  124OSM    C4S13157   6.028   4.950   6.702 -0.4432 -0.8585 -0.2206
  124OSM    H4S13158   6.118   4.977   6.758 -2.1215  1.7620  1.4552
  124OSM    C5S13159   5.926   4.896   6.774 -0.3866  0.2792  0.1271
  124OSM    H5S13160   5.838   4.853   6.724 -2.0497  5.0665 -1.6901
  124OSM    C6S13161   5.914   4.890   6.927  0.6095 -0.0456  0.7597
  124OSM    H6S13162   5.959   4.799   6.973  1.1977 -0.0223  0.2480
  124OSM    H6T13163   5.808   4.880   6.959  0.6814 -2.4833  0.3940
  124OSM    C7S13164   5.980   5.010   6.995  0.2705  0.4342  0.4428
  124OSM    H7S13165   5.956   5.111   6.957  0.1367  0.2240 -0.0448
  124OSM    H7T13166   6.090   5.002   7.004  0.4529  0.5422 -1.3335
  124OSM    C8S13167   5.925   5.008   7.144 -0.8672 -0.0770 -0.5406
  124OSM    H8S13168   5.932   4.907   7.190 -1.1883  1.4466  3.1985
  124OSM    H8T13169   5.817   5.036   7.139 -0.7067  0.3500 -2.0880
  124OSM    C9S13170   6.003   5.110   7.234  0.2565 -0.8311 -0.6258
  124OSM    H9S13171   5.970   5.208   7.193  1.6371 -0.7637 -1.6880
  124OSM    H9T13172   6.110   5.111   7.201  0.8634  0.1580  1.2289
  124OSM   C10S13173   5.982   5.088   7.388 -0.1037  0.4130  0.1520
  124OSM   H10S13174   5.996   4.982   7.416  0.8636  1.2322  3.0756
  124OSM   H10T13175   5.873   5.105   7.400 -0.2062  0.0781 -0.2620
  124OSM   C11S13176   6.061   5.181   7.475 -0.4986  0.0843  0.3426
  124OSM   H11S13177   6.082   5.275   7.419  0.7585 -1.4560 -1.9619
  124OSM   H11T13178   6.165   5.148   7.496  0.5607  1.9974 -1.5328
  124OSM   C12S13179   5.988   5.216   7.601 -0.4772 -0.0395 -0.2499
  124OSM   H12S13180   5.931   5.130   7.645 -0.4144  0.4446  0.8047
  124OSM   H12T13181   5.900   5.283   7.586  0.1433  0.3661 -2.2770
  124OSM   C13S13182   6.078   5.301   7.702 -0.6314  0.6392  0.5147
  124OSM   H13S13183   6.118   5.391   7.652  1.4843  0.0058  0.9941
  124OSM   H13T13184   6.162   5.235   7.730  1.8699  2.6816 -1.6740
  124OSM   C14S13185   6.011   5.341   7.833 -0.4131  0.0964  0.0732
  124OSM   H14S13186   5.928   5.408   7.803 -0.4104  0.1644  0.2178
  124OSM   H14T13187   6.099   5.383   7.886 -0.9487 -1.6947  2.5343
  124OSM   C15S13188   5.964   5.222   7.925 -0.1582 -0.7286  0.5728
  124OSM   H15S13189   6.043   5.145   7.936  1.1024  0.6144  1.1203
  124OSM   H15T13190   5.873   5.181   7.875  1.0882 -1.5448 -1.1160
  124OSM   C16S13191   5.918   5.263   8.061  0.3405  0.4856 -0.1673
  124OSM   H16S13192   6.005   5.308   8.113  1.7425  0.3555 -2.2891
  124OSM   H16T13193   5.890   5.172   8.119  1.1795 -0.0304 -0.5709
  124OSM   C17S13194   5.802   5.361   8.056 -0.3785  0.2271  0.9353
  124OSM   H17S13195   5.710   5.313   8.017  0.5702 -0.9135 -0.0025
  124OSM   H17T13196   5.826   5.447   7.990 -1.3565 -0.5545 -0.4990
  124OSM   C18S13197   5.754   5.427   8.185  0.6068  0.7458 -0.1392
  124OSM   H18S13198   5.838   5.484   8.230  1.9208  1.0125 -2.7133
  124OSM   H18T13199   5.721   5.348   8.256 -0.6179  0.5615 -0.8877
  124OSM   H18U13200   5.669   5.496   8.171 -0.0676 -0.0146  0.1347
  124OSM    C1F13201   5.943   5.314   6.513 -0.7801  0.7274  0.6591
  124OSM     OF13202   5.824   5.322   6.507  0.1354  0.0872  0.0680
  124OSM    C2F13203   6.021   5.446   6.498 -0.7722 -0.9291  0.5523
  124OSM    H2F13204   6.005   5.486   6.396 -0.1990  1.9690  1.5253
  124OSM    H2G13205   6.129   5.427   6.518 -0.5023 -0.2319 -0.2410
  124OSM    C3F13206   5.987   5.560   6.598 -0.5127  0.5084  0.3652
  124OSM    H3F13207   5.876   5.571   6.591 -0.6304 -1.3094 -1.6901
  124OSM    H3G13208   6.024   5.660   6.567 -4.6594  1.7276 -1.3393
  124OSM    C4F13209   6.026   5.542   6.746  0.7602  0.3936 -0.0203
  124OSM    H4F13210   6.127   5.499   6.758 -0.2108 -1.5021  1.9353
  124OSM    H4G13211   5.959   5.468   6.794  0.7121 -1.3858 -2.6445
  124OSM    C5F13212   6.026   5.673   6.821  0.1477  0.6335 -0.2679
  124OSM    H5F13213   5.930   5.729   6.825  1.5920  3.2991 -0.0811
  124OSM    H5G13214   6.095   5.747   6.774  1.3045  0.2987  0.8436
  124OSM    C6F13215   6.083   5.663   6.964  0.7210  0.0490  0.0296
  124OSM    H6F13216   6.080   5.762   7.013  1.4155 -0.5543  1.3527
  124OSM    H6G13217   6.193   5.646   6.963  0.7257  0.0879 -0.1698
  124OSM    C7F13218   5.999   5.575   7.057  0.0769 -0.9523 -0.2094
  124OSM    H7F13219   6.000   5.474   7.009  2.9398 -0.0092 -2.3926
  124OSM    H7G13220   5.896   5.616   7.064  0.3068 -0.6481  3.2304
  124OSM    C8F13221   6.043   5.565   7.204  0.4953  0.3268 -1.0013
  124OSM    H8F13222   5.967   5.507   7.260  2.5522 -0.3684  1.2546
  124OSM    H8G13223   6.045   5.665   7.253 -1.0667  0.4310 -1.0892
  124OSM    C9F13224   6.188   5.519   7.223  0.4007  0.1538 -0.0563
  124OSM    H9F13225   6.208   5.442   7.147 -0.3631 -0.5375  0.4321
  124OSM   C10F13226   6.278   5.552   7.320 -0.2714 -1.0757 -0.2332
  124OSM   H10F13227   6.380   5.512   7.317  0.4811  0.5087  1.7501
  124OSM   C11F13228   6.248   5.648   7.433 -0.6491  0.3962 -0.5451
  124OSM   H11F13229   6.206   5.600   7.524 -0.6077 -1.5136 -1.4804
  124OSM   H11G13230   6.176   5.721   7.391 -0.8673  0.1901 -0.5338
  124OSM   C12F13231   6.371   5.737   7.471 -0.1323  0.5623  0.5870
  124OSM   H12F13232   6.342   5.817   7.543 -0.6303 -0.3181  1.3988
  124OSM   H12G13233   6.412   5.786   7.380 -0.2398 -0.2668  0.0899
  124OSM   C13F13234   6.480   5.652   7.532 -0.0750 -0.5251 -0.0831
  124OSM   H13F13235   6.535   5.590   7.458 -0.7064 -1.0512 -0.1197
  124OSM   H13G13236   6.438   5.574   7.599  0.4525 -0.2788  0.5505
  124OSM   C14F13237   6.591   5.737   7.605  0.2501  0.3484  0.5218
  124OSM   H14F13238   6.631   5.810   7.532 -1.1573  0.9449  0.3322
  124OSM   H14G13239   6.665   5.661   7.640  1.1839 -0.0337 -2.0102
  124OSM   C15F13240   6.534   5.826   7.724 -0.3007  0.7990  0.6683
  124OSM   H15F13241   6.463   5.905   7.692  0.4162  2.2280  2.4047
  124OSM   H15G13242   6.615   5.880   7.778  0.9568  0.8087 -1.1529
  124OSM   C16F13243   6.456   5.746   7.828  0.9062 -0.1436 -0.1935
  124OSM   H16F13244   6.526   5.678   7.882  1.0170  0.5612  0.5678
  124OSM   H16G13245   6.383   5.676   7.782  1.5226 -0.7763 -0.2211
  124OSM   C17F13246   6.380   5.831   7.931  1.4611  0.6130 -0.0382
  124OSM   H17F13247   6.323   5.905   7.871  1.3201 -0.7123 -1.5891
  124OSM   H17G13248   6.458   5.882   7.992  0.4277  1.1743  0.8497
  124OSM   C18F13249   6.302   5.732   8.023 -0.1150  0.5724  0.0759
  124OSM   H18F13250   6.237   5.667   7.962  1.2872 -2.4969  1.6507
  124OSM   H18G13251   6.255   5.777   8.114  0.5173 -1.3536  1.4280
  124OSM   H18H13252   6.389   5.678   8.066  3.3845  1.6351 -4.8953
  125OSM      N13253   6.410   2.802   6.158 -0.1822 -0.0708 -0.1794
  125OSM    C1513254   6.390   2.681   6.067  0.6780  0.2503  0.1087
  125OSM   H15A13255   6.388   2.589   6.123  0.8705 -0.4937 -1.0714
  125OSM   H15B13256   6.469   2.666   5.996 -0.3337 -2.2714 -0.6107
  125OSM   H15C13257   6.296   2.690   6.015 -0.0196 -1.2242  1.0548
  125OSM    C1413258   6.318   2.789   6.273  0.0865  0.4938  0.5873
  125OSM   H14A13259   6.222   2.778   6.224  1.9462  0.5706 -3.5016
  125OSM   H14B13260   6.313   2.886   6.320 -2.0654  1.0405 -0.6161
  125OSM   H14C13261   6.335   2.711   6.345  0.7724 -0.0812 -0.1724
  125OSM    C1313262   6.552   2.788   6.209  0.6699  0.2432  0.1392
  125OSM   H13A13263   6.560   2.702   6.274  2.6271 -1.7777 -2.5317
  125OSM   H13B13264   6.579   2.875   6.267  1.3701 -0.7194  1.2890
  125OSM   H13C13265   6.623   2.778   6.128 -1.5718  2.3867 -2.2760
  125OSM    C1213266   6.412   2.921   6.069  0.1975  0.3603  0.3418
  125OSM   H12A13267   6.467   2.910   5.977 -1.4331  1.9545 -0.8800
  125OSM   H12B13268   6.456   3.000   6.128  1.5733 -2.1022  2.8611
  125OSM    C1113269   6.267   2.967   6.028 -0.3957  0.2119  0.0817
  125OSM   H11A13270   6.210   2.879   5.992  0.2412  0.3981 -1.4321
  125OSM   H11B13271   6.282   3.031   5.939 -0.5884  0.2079  0.0456
  125OSM      P13272   6.184   3.185   6.132 -0.2649 -0.7471 -0.0060
  125OSM    O1313273   6.315   3.251   6.140  0.0455  0.3552  0.7301
  125OSM    O1413274   6.094   3.222   6.020 -0.2055 -0.2611  0.4915
  125OSM    O1113275   6.100   3.216   6.269  0.2503  0.3517  0.2903
  125OSM    O1213276   6.198   3.029   6.136  0.3705 -0.4635  0.2789
  125OSM    C1S13277   6.106   3.131   6.380 -0.3834 -0.0166 -0.0226
  125OSM    H1S13278   6.209   3.144   6.421  0.5660 -3.1297 -1.1106
  125OSM    H1T13279   6.087   3.024   6.355 -1.0875  0.1508 -0.2336
  125OSM     NF13280   6.021   3.118   6.600  0.1950  0.0640 -0.0919
  125OSM    HNF13281   5.982   3.026   6.608 -0.9974  0.5354 -0.3087
  125OSM    C2S13282   5.998   3.177   6.476  0.0956 -0.1240 -0.2991
  125OSM    H2S13283   6.010   3.287   6.478  0.5454 -0.1728  1.1688
  125OSM    C3S13284   5.854   3.157   6.424  0.6765 -0.3250 -1.0618
  125OSM    H3S13285   5.814   3.054   6.439 -1.3009  0.5848  0.5328
  125OSM     O313286   5.843   3.170   6.284 -0.1768  0.0453 -0.0001
  125OSM    HO313287   5.931   3.189   6.253 -1.0343 -0.1227 -2.8696
  125OSM    C4S13288   5.755   3.246   6.496  0.1520  0.4013  1.0537
  125OSM    H4S13289   5.769   3.354   6.478 -1.6338  0.0547 -3.9922
  125OSM    C5S13290   5.656   3.207   6.573  0.2424  0.0784 -0.1723
  125OSM    H5S13291   5.640   3.098   6.581  1.4394 -0.3190 -2.4229
  125OSM    C6S13292   5.556   3.297   6.637  0.4823  0.4263  1.0637
  125OSM    H6S13293   5.463   3.295   6.576  1.5422 -1.0899 -0.5882
  125OSM    H6T13294   5.595   3.401   6.637  1.4908  0.0549  1.5820
  125OSM    C7S13295   5.512   3.232   6.771  0.3896 -0.1885 -0.8503
  125OSM    H7S13296   5.469   3.131   6.756 -1.6591  0.2450  1.4499
  125OSM    H7T13297   5.424   3.292   6.801 -0.9282 -1.3730 -2.1568
  125OSM    C8S13298   5.631   3.231   6.870  0.0792 -0.8104 -0.0849
  125OSM    H8S13299   5.660   3.338   6.871 -1.7824 -0.2427 -0.7166
  125OSM    H8T13300   5.717   3.171   6.833 -0.8953 -0.9292 -2.2991
  125OSM    C9S13301   5.584   3.198   7.017  0.0253  0.6902 -0.2243
  125OSM    H9S13302   5.563   3.089   7.028  1.6099  0.3887 -0.0521
  125OSM    H9T13303   5.492   3.257   7.039 -0.5840 -0.5988  0.8099
  125OSM   C10S13304   5.687   3.233   7.121 -0.0511 -0.6276  0.2741
  125OSM   H10S13305   5.717   3.339   7.137 -1.3805 -0.5792  3.0785
  125OSM   H10T13306   5.784   3.188   7.089  0.4189  1.2905 -1.2097
  125OSM   C11S13307   5.647   3.178   7.263  0.8304 -0.2902 -0.3277
  125OSM   H11S13308   5.629   3.070   7.245 -1.0116 -0.2488  0.9815
  125OSM   H11T13309   5.548   3.225   7.282  0.6498 -1.1196  0.8509
  125OSM   C12S13310   5.742   3.207   7.368  0.2389  0.6122 -0.2456
  125OSM   H12S13311   5.746   3.315   7.395 -0.3182  0.4117  0.7022
  125OSM   H12T13312   5.843   3.174   7.336 -0.6771 -3.3050  0.3799
  125OSM   C13S13313   5.702   3.126   7.500 -0.4224 -0.0385  0.4907
  125OSM   H13S13314   5.707   3.016   7.494  0.1665 -0.0717  1.3964
  125OSM   H13T13315   5.597   3.157   7.524 -0.9255 -1.6961  0.5088
  125OSM   C14S13316   5.795   3.172   7.614  0.1613  0.1289  0.1587
  125OSM   H14S13317   5.766   3.278   7.630  0.6289  0.3009 -0.1216
  125OSM   H14T13318   5.901   3.163   7.580  1.1367 -0.0403  2.9230
  125OSM   C15S13319   5.770   3.096   7.750 -0.2446  0.1793  0.1770
  125OSM   H15S13320   5.742   2.990   7.729  2.7914 -1.2231  2.4571
  125OSM   H15T13321   5.684   3.138   7.806  0.1547  2.2926 -0.7115
  125OSM   C16S13322   5.897   3.092   7.832 -0.4245 -0.4812  0.0604
  125OSM   H16S13323   5.942   3.190   7.859  1.4677 -1.8607  2.2876
  125OSM   H16T13324   5.971   3.026   7.783 -1.3648 -1.5281 -0.0009
  125OSM   C17S13325   5.869   3.023   7.967  0.1317 -0.8988 -0.0921
  125OSM   H17S13326   5.828   2.922   7.946 -1.7063 -0.0306 -0.9474
  125OSM   H17T13327   5.797   3.080   8.031  2.5807  0.0009  2.0233
  125OSM   C18S13328   5.990   3.011   8.059 -0.5055 -0.1371 -0.2114
  125OSM   H18S13329   5.970   2.937   8.139  2.7413 -1.5280 -0.5501
  125OSM   H18T13330   6.019   3.110   8.103 -1.2425 -0.1790  0.3927
  125OSM   H18U13331   6.080   2.978   8.004 -0.5431 -0.7836  0.1125
  125OSM    C1F13332   6.111   3.156   6.690 -0.4058 -0.4494 -0.4171
  125OSM     OF13333   6.191   3.241   6.666 -0.6214 -0.2296 -0.7219
  125OSM    C2F13334   6.098   3.096   6.829  0.7447  0.3849 -0.3369
  125OSM    H2F13335   6.023   3.014   6.824  0.0335  0.9211  0.9045
  125OSM    H2G13336   6.052   3.178   6.888 -6.0167 -1.7314 -1.7798
  125OSM    C3F13337   6.229   3.041   6.878 -0.1560 -0.0160 -0.1162
  125OSM    H3F13338   6.317   3.101   6.846 -1.4113  1.1972 -1.4589
  125OSM    H3G13339   6.244   2.944   6.826  0.0026 -0.4507  0.7362
  125OSM    C4F13340   6.226   2.998   7.023  0.3756 -0.0204  0.4150
  125OSM    H4F13341   6.328   2.964   7.049  0.2178  0.6031  1.9188
  125OSM    H4G13342   6.165   2.906   7.034  0.0272  0.2013  0.3521
  125OSM    C5F13343   6.187   3.117   7.114  0.0220 -0.0155  0.8019
  125OSM    H5F13344   6.083   3.154   7.100 -0.0691  0.4889  2.5173
  125OSM    H5G13345   6.255   3.202   7.095 -0.7076  0.1972 -1.0213
  125OSM    C6F13346   6.179   3.082   7.262 -0.4293  0.3902 -0.5394
  125OSM    H6F13347   6.100   3.005   7.273  0.6318 -0.6766 -0.1662
  125OSM    H6G13348   6.138   3.160   7.331  0.0833  0.4464 -0.2935
  125OSM    C7F13349   6.309   3.032   7.325 -0.1357  0.1371  0.2130
  125OSM    H7F13350   6.372   3.120   7.349 -0.3724  0.0639  1.1427
  125OSM    H7G13351   6.365   2.968   7.253  1.8250 -0.5138  2.2106
  125OSM    C8F13352   6.291   2.938   7.447 -0.3160 -0.4669  0.3923
  125OSM    H8F13353   6.382   2.874   7.458 -1.6405 -2.5510 -0.1453
  125OSM    H8G13354   6.220   2.858   7.418 -1.1428 -0.1278  1.3956
  125OSM    C9F13355   6.253   3.010   7.572 -0.3205  0.1445  1.1269
  125OSM    H9F13356   6.177   3.086   7.548  1.0359  0.6166 -2.1965
  125OSM   C10F13357   6.302   2.992   7.702 -0.1214 -0.1485 -0.1347
  125OSM   H10F13358   6.259   3.059   7.778 -1.0454  0.4648 -1.1627
  125OSM   C11F13359   6.408   2.893   7.752 -0.0658 -0.2823  0.6742
  125OSM   H11F13360   6.467   2.935   7.836  0.0433  1.0151 -0.0130
  125OSM   H11G13361   6.477   2.890   7.665 -0.0566  0.3329  0.6552
  125OSM   C12F13362   6.370   2.746   7.797 -0.3155 -0.4563  0.1511
  125OSM   H12F13363   6.466   2.691   7.802 -0.2033 -0.4204 -1.3158
  125OSM   H12G13364   6.310   2.696   7.718  1.3509 -0.2894 -1.2685
  125OSM   C13F13365   6.292   2.732   7.931 -0.3167  0.1838 -0.1891
  125OSM   H13F13366   6.220   2.648   7.930 -0.7013  0.5112 -0.2748
  125OSM   H13G13367   6.229   2.824   7.935  1.9783  1.9381 -1.5867
  125OSM   C14F13368   6.383   2.742   8.057  0.6199 -0.2829  0.2164
  125OSM   H14F13369   6.460   2.822   8.052  1.4455 -1.0955 -0.3668
  125OSM   H14G13370   6.444   2.650   8.072 -0.9162 -1.6127 -1.1695
  125OSM   C15F13371   6.295   2.774   8.178 -0.2725  0.2204  0.6255
  125OSM   H15F13372   6.223   2.852   8.146 -0.4106 -0.3130 -0.3861
  125OSM   H15G13373   6.346   2.814   8.269 -0.7529  0.2098  0.9054
  125OSM   C16F13374   6.200   2.661   8.219 -0.2778  0.2155 -0.3822
  125OSM   H16F13375   6.253   2.564   8.235  1.5507  0.6812 -3.0592
  125OSM   H16G13376   6.128   2.644   8.136  0.4425 -1.3082 -0.7413
  125OSM   C17F13377   6.133   2.681   8.357  0.2828 -0.5094  0.1276
  125OSM   H17F13378   6.057   2.603   8.379  0.1835 -0.3014  0.5251
  125OSM   H17G13379   6.086   2.781   8.367  0.7281 -0.3508  0.6432
  125OSM   C18F13380   6.238   2.665   8.464 -0.2470 -0.7557  0.4548
  125OSM   H18F13381   6.300   2.575   8.445 -1.2917 -1.5533  0.7814
  125OSM   H18G13382   6.188   2.645   8.561  0.4067 -0.5320  0.8413
  125OSM   H18H13383   6.298   2.758   8.479 -3.0942  0.7771  3.6892
  126OSM      N13384   3.500   1.108   6.288 -0.4850 -0.3418  0.0340
  126OSM    C1513385   3.401   1.216   6.297  0.3747 -0.3552 -0.8073
  126OSM   H15A13386   3.345   1.216   6.390 -0.5690 -0.2474 -1.3628
  126OSM   H15B13387   3.320   1.205   6.226  1.1642  3.1867 -2.4766
  126OSM   H15C13388   3.446   1.315   6.296 -1.8792  0.8579  1.9667
  126OSM    C1413389   3.429   0.973   6.282 -0.7138 -0.2671  0.6818
  126OSM   H14A13390   3.492   0.888   6.305 -2.8291 -1.9397  0.6911
  126OSM   H14B13391   3.393   0.968   6.180 -0.9449  0.4427  0.7252
  126OSM   H14C13392   3.331   0.965   6.329 -1.2827 -0.1000 -0.4448
  126OSM    C1313393   3.582   1.128   6.163  0.3687 -0.2132 -0.4314
  126OSM   H13A13394   3.632   1.223   6.156  0.7939 -0.4987 -1.3969
  126OSM   H13B13395   3.521   1.126   6.074 -0.3973  2.1998 -0.0218
  126OSM   H13C13396   3.655   1.049   6.173 -0.1717 -0.6198  0.4597
  126OSM    C1213397   3.592   1.113   6.405  0.4843 -0.4469 -0.0786
  126OSM   H12A13398   3.526   1.103   6.490  1.3570 -2.3738  0.4339
  126OSM   H12B13399   3.645   1.207   6.412 -0.8653  0.3861 -0.6518
  126OSM    C1113400   3.712   1.011   6.411  0.9719 -0.0379 -0.0461
  126OSM   H11A13401   3.793   1.051   6.476  1.4844  1.0433 -1.3287
  126OSM   H11B13402   3.753   1.011   6.308  1.4257  0.2688  0.1295
  126OSM      P13403   3.752   0.761   6.436  0.1140 -0.0925 -0.0309
  126OSM    O1313404   3.670   0.655   6.488  0.2777 -0.4826 -0.6960
  126OSM    O1413405   3.808   0.743   6.298  0.6240 -0.3111 -0.6990
  126OSM    O1113406   3.862   0.803   6.547 -0.0982  0.8991  0.0777
  126OSM    O1213407   3.659   0.880   6.434 -0.0384 -0.1314  0.0743
  126OSM    C1S13408   3.830   0.832   6.681  0.0736 -0.5179  0.2226
  126OSM    H1S13409   3.724   0.807   6.703 -0.4254  0.6794 -0.6915
  126OSM    H1T13410   3.832   0.943   6.683  0.4101 -0.4580 -1.4549
  126OSM     NF13411   3.884   0.801   6.921  0.6835 -0.1576 -0.0709
  126OSM    HNF13412   3.916   0.865   6.990 -0.5665  0.2434  0.1626
  126OSM    C2S13413   3.935   0.790   6.782  0.0876  1.3677 -1.0519
  126OSM    H2S13414   3.968   0.686   6.759  0.7261  1.3855 -0.2557
  126OSM    C3S13415   4.073   0.865   6.752  0.4630 -0.4639 -0.2228
  126OSM    H3S13416   4.053   0.971   6.776  2.3343 -0.0048 -0.4999
  126OSM     O313417   4.117   0.857   6.616 -0.6534  0.2748  0.3826
  126OSM    HO313418   4.033   0.857   6.570 -0.3955 -0.8927 -0.1347
  126OSM    C4S13419   4.174   0.813   6.849  0.4142  1.0105  0.0584
  126OSM    H4S13420   4.167   0.860   6.948 -0.9936  0.3076  0.3211
  126OSM    C5S13421   4.266   0.712   6.844  0.3559  0.0101  0.5975
  126OSM    H5S13422   4.287   0.662   6.748  0.7817 -2.2577  1.8173
  126OSM    C6S13423   4.356   0.682   6.958 -0.3923  0.4424  0.1727
  126OSM    H6S13424   4.458   0.695   6.916  0.0434  1.1238  1.4250
  126OSM    H6T13425   4.348   0.574   6.983 -0.3063  0.1839 -0.8326
  126OSM    C7S13426   4.341   0.763   7.095 -0.7359 -0.2422 -0.1744
  126OSM    H7S13427   4.235   0.753   7.126  0.0432 -0.9830  2.5289
  126OSM    H7T13428   4.367   0.871   7.085  0.9503 -0.5643  0.3447
  126OSM    C8S13429   4.434   0.720   7.210 -0.5731  0.1397  0.0652
  126OSM    H8S13430   4.541   0.736   7.184  0.0193 -3.5185 -0.3763
  126OSM    H8T13431   4.413   0.618   7.250 -0.2501  0.7438  1.8975
  126OSM    C9S13432   4.420   0.820   7.333  0.4759 -0.0624 -0.2236
  126OSM    H9S13433   4.323   0.789   7.378  0.3067  1.2869  0.3787
  126OSM    H9T13434   4.413   0.925   7.298 -0.0003 -0.0858 -0.2113
  126OSM   C10S13435   4.524   0.808   7.446 -0.0078 -0.4187  0.2529
  126OSM   H10S13436   4.619   0.846   7.401  0.3139 -0.0079  1.2562
  126OSM   H10T13437   4.523   0.701   7.473  0.2083 -0.7589 -0.9986
  126OSM   C11S13438   4.487   0.878   7.581  0.1238 -0.6858  0.4343
  126OSM   H11S13439   4.379   0.860   7.597 -0.4857  0.2650 -2.2557
  126OSM   H11T13440   4.498   0.989   7.579  2.8686 -0.8841  0.2523
  126OSM   C12S13441   4.581   0.829   7.695 -0.4209 -0.1340  0.3455
  126OSM   H12S13442   4.685   0.832   7.656 -1.2943 -0.7718 -2.1659
  126OSM   H12T13443   4.557   0.723   7.715 -1.8699  0.0784 -0.1318
  126OSM   C13S13444   4.559   0.903   7.828 -0.3244  0.0409 -0.9131
  126OSM   H13S13445   4.451   0.909   7.853 -0.3577  1.0385 -1.2575
  126OSM   H13T13446   4.598   1.007   7.822 -0.4647  0.0441 -1.9323
  126OSM   C14S13447   4.635   0.840   7.946 -0.1061  1.3438 -0.2343
  126OSM   H14S13448   4.728   0.901   7.949  0.8254 -0.0094 -0.6677
  126OSM   H14T13449   4.671   0.737   7.926 -1.1567  1.3194 -2.3292
  126OSM   C15S13450   4.565   0.832   8.081 -0.1798 -0.2762  0.1058
  126OSM   H15S13451   4.461   0.795   8.078  0.7336 -3.0542 -0.3567
  126OSM   H15T13452   4.563   0.933   8.126 -0.0475 -0.5696  0.7821
  126OSM   C16S13453   4.638   0.746   8.192  0.4116  0.1958 -0.2398
  126OSM   H16S13454   4.672   0.646   8.158 -0.1167 -1.4527  3.4955
  126OSM   H16T13455   4.565   0.737   8.275 -0.5476  1.3244 -0.9385
  126OSM   C17S13456   4.767   0.815   8.247  0.2610 -0.0080  0.6101
  126OSM   H17S13457   4.730   0.907   8.296 -0.6483  0.9451 -1.7230
  126OSM   H17T13458   4.840   0.844   8.169 -0.3617 -0.4107 -0.1334
  126OSM   C18S13459   4.832   0.728   8.353 -0.1621  0.7650 -0.1934
  126OSM   H18S13460   4.937   0.762   8.368  0.2274 -0.6580  0.4576
  126OSM   H18T13461   4.846   0.627   8.309 -0.4005  0.3006  0.7849
  126OSM   H18U13462   4.781   0.731   8.451  2.3639 -0.9287  1.2771
  126OSM    C1F13463   3.791   0.719   6.968 -0.5837 -0.5145  0.0822
  126OSM     OF13464   3.734   0.634   6.900 -0.8349  0.5144 -0.1370
  126OSM    C2F13465   3.756   0.735   7.114  0.2982  0.2804 -0.0403
  126OSM    H2F13466   3.764   0.842   7.142  0.9417  0.4444 -0.8038
  126OSM    H2G13467   3.831   0.680   7.174  1.8734  1.7367 -0.5984
  126OSM    C3F13468   3.616   0.675   7.149 -0.2815 -0.3311 -0.5289
  126OSM    H3F13469   3.616   0.569   7.116 -1.7572 -0.0385 -1.5530
  126OSM    H3G13470   3.545   0.737   7.090  0.4890  2.1686  0.9950
  126OSM    C4F13471   3.561   0.676   7.296  0.7964 -0.2936 -0.3846
  126OSM    H4F13472   3.468   0.615   7.288  0.6349  0.0630 -1.4701
  126OSM    H4G13473   3.527   0.771   7.342 -1.5752 -1.1699 -0.1787
  126OSM    C5F13474   3.664   0.609   7.394  0.3188 -0.0066 -0.3051
  126OSM    H5F13475   3.755   0.667   7.371  1.8176 -2.6877 -1.5718
  126OSM    H5G13476   3.688   0.507   7.358 -0.2503  0.8703 -3.4012
  126OSM    C6F13477   3.625   0.617   7.545 -0.3565 -0.2741  0.5840
  126OSM    H6F13478   3.530   0.561   7.558 -0.3546 -0.6951 -1.0619
  126OSM    H6G13479   3.611   0.725   7.568  3.5307  0.2319  1.3122
  126OSM    C7F13480   3.752   0.570   7.624 -0.6041 -0.3953 -0.5139
  126OSM    H7F13481   3.843   0.624   7.590  0.0769 -0.9507  0.3689
  126OSM    H7G13482   3.764   0.465   7.590  0.4191 -0.3655 -0.2739
  126OSM    C8F13483   3.741   0.551   7.775  0.0803  0.4633  0.3106
  126OSM    H8F13484   3.822   0.484   7.811 -0.6626 -1.0858 -0.7963
  126OSM    H8G13485   3.653   0.484   7.791  1.3209 -0.8306  2.2218
  126OSM    C9F13486   3.709   0.674   7.852  0.1248  0.0042  0.6244
  126OSM    H9F13487   3.639   0.743   7.804  2.1128  2.5161  1.1373
  126OSM   C10F13488   3.759   0.702   7.970 -0.2951  0.1852 -0.7147
  126OSM   H10F13489   3.726   0.795   8.017 -3.4622 -1.8899  1.6490
  126OSM   C11F13490   3.846   0.609   8.058  0.1037 -0.0093 -0.4007
  126OSM   H11F13491   3.949   0.650   8.065  0.2860 -0.5866  0.4196
  126OSM   H11G13492   3.856   0.505   8.022  0.7628 -0.7094  1.6669
  126OSM   C12F13493   3.799   0.600   8.209 -0.2135  0.2927 -0.1450
  126OSM   H12F13494   3.853   0.519   8.264 -2.5231 -0.1828  1.5619
  126OSM   H12G13495   3.690   0.579   8.204 -0.3056  0.8225 -0.5179
  126OSM   C13F13496   3.820   0.735   8.278 -0.1339  0.9834  0.1039
  126OSM   H13F13497   3.802   0.819   8.207  4.6645  2.6755  0.5362
  126OSM   H13G13498   3.925   0.741   8.312  0.0991 -2.2997  0.2532
  126OSM   C14F13499   3.728   0.757   8.396 -0.2182  0.7064 -0.2611
  126OSM   H14F13500   3.769   0.702   8.483 -1.4309  1.6880  0.9793
  126OSM   H14G13501   3.625   0.725   8.367  0.6419 -1.2402 -1.3091
  126OSM   C15F13502   3.731   0.902   8.442  0.2646 -0.2985 -0.2314
  126OSM   H15F13503   3.646   0.922   8.511  0.3646  0.1823 -0.2445
  126OSM   H15G13504   3.709   0.963   8.352  4.0714 -1.0355 -1.8444
  126OSM   C16F13505   3.862   0.955   8.499 -0.6315  0.0752  0.6176
  126OSM   H16F13506   3.935   0.919   8.424  0.6619  0.5649  1.5987
  126OSM   H16G13507   3.887   0.903   8.594  1.4656 -1.7038 -0.8009
  126OSM   C17F13508   3.880   1.108   8.507 -0.1818 -1.4917  0.4124
  126OSM   H17F13509   3.799   1.156   8.565  0.0537 -0.0438 -0.4133
  126OSM   H17G13510   3.872   1.148   8.403  0.7114 -0.3958  0.7450
  126OSM   C18F13511   4.015   1.153   8.542  0.0481 -0.3790  0.4495
  126OSM   H18F13512   4.040   1.257   8.511 -0.6697 -0.1550  0.6162
  126OSM   H18G13513   4.091   1.076   8.515  0.2685 -0.3216  0.9085
  126OSM   H18H13514   4.016   1.142   8.652 -0.4445 -0.6955  0.4264
  127OSM      N13515   2.720   1.736   6.459 -0.9039 -0.3179  0.4583
  127OSM    C1513516   2.594   1.713   6.392  1.3452  1.2732  0.3158
  127OSM   H15A13517   2.552   1.794   6.335  0.1914 -1.3463 -2.8328
  127OSM   H15B13518   2.522   1.677   6.464  1.9619 -0.9930 -0.1282
  127OSM   H15C13519   2.598   1.637   6.317  2.2273  0.3383  1.2749
  127OSM    C1413520   2.812   1.755   6.343  0.3065 -0.3244 -0.1030
  127OSM   H14A13521   2.795   1.841   6.280 -0.1072 -0.7622 -0.6018
  127OSM   H14B13522   2.806   1.673   6.273  1.9481 -0.5113 -0.0522
  127OSM   H14C13523   2.916   1.748   6.368  0.1515 -0.9242  0.4013
  127OSM    C1313524   2.709   1.865   6.535 -0.1791  0.2286  0.5410
  127OSM   H13A13525   2.695   1.951   6.471 -1.7133 -0.2994  0.1114
  127OSM   H13B13526   2.793   1.890   6.598  0.4730  2.1580 -0.9574
  127OSM   H13C13527   2.623   1.866   6.601 -0.9327  0.5434 -0.4195
  127OSM    C1213528   2.769   1.618   6.533 -0.3362  0.2741 -0.6241
  127OSM   H12A13529   2.864   1.659   6.562 -1.2299  1.9616  0.0735
  127OSM   H12B13530   2.785   1.533   6.469 -1.0193  0.9884 -1.7868
  127OSM    C1113531   2.702   1.571   6.661 -0.0631  0.4833  0.3200
  127OSM   H11A13532   2.688   1.662   6.724  0.8455  0.6535  0.2913
  127OSM   H11B13533   2.778   1.507   6.711 -0.5723  0.2353  0.7902
  127OSM      P13534   2.582   1.356   6.594  0.5167  0.3127 -0.4867
  127OSM    O1313535   2.445   1.313   6.555  0.1811  0.4080  0.3935
  127OSM    O1413536   2.691   1.329   6.500  0.2384 -0.2771  0.9246
  127OSM    O1113537   2.607   1.276   6.731  0.0526  0.0813  0.0260
  127OSM    O1213538   2.579   1.508   6.642  0.4264  0.6292  0.1636
  127OSM    C1S13539   2.550   1.315   6.857 -0.4672 -0.3159  0.0731
  127OSM    H1S13540   2.459   1.377   6.843 -0.2073  0.1420  0.4141
  127OSM    H1T13541   2.629   1.370   6.913 -0.7823 -0.7799  0.9986
  127OSM     NF13542   2.457   1.218   7.062 -0.2782  0.4481  0.1686
  127OSM    HNF13543   2.517   1.235   7.140 -0.2535 -1.2207  0.5383
  127OSM    C2S13544   2.526   1.187   6.936  0.1918 -0.3446 -0.4508
  127OSM    H2S13545   2.470   1.116   6.872  2.3464  0.1743 -3.1205
  127OSM    C3S13546   2.659   1.110   6.964 -0.0647 -0.1382 -0.2703
  127OSM    H3S13547   2.707   1.173   7.043 -3.0790  2.0833 -0.0235
  127OSM     O313548   2.743   1.097   6.853  0.1450  0.6688 -0.0384
  127OSM    HO313549   2.699   1.159   6.794 -0.5254 -0.4706 -0.7713
  127OSM    C4S13550   2.628   0.975   7.027  0.0074  0.3787 -0.4985
  127OSM    H4S13551   2.598   0.887   6.968  3.4983 -0.4994 -1.1756
  127OSM    C5S13552   2.648   0.953   7.163 -0.1982 -0.1826  0.2447
  127OSM    H5S13553   2.681   1.032   7.232  0.3753 -0.0240 -0.2070
  127OSM    C6S13554   2.625   0.819   7.230 -0.4154 -0.6056 -0.4324
  127OSM    H6S13555   2.595   0.747   7.151 -1.5930 -0.2411 -0.3387
  127OSM    H6T13556   2.536   0.833   7.294 -0.2969  0.4312 -0.4695
  127OSM    C7S13557   2.754   0.774   7.307 -0.0823 -0.1288 -0.1719
  127OSM    H7S13558   2.843   0.787   7.242 -0.6430 -2.0765 -1.4144
  127OSM    H7T13559   2.734   0.666   7.321  0.8757 -0.7235 -2.8620
  127OSM    C8S13560   2.783   0.844   7.442  0.8706  0.5615  0.4638
  127OSM    H8S13561   2.692   0.833   7.504  0.4543  0.6808 -0.1142
  127OSM    H8T13562   2.793   0.950   7.409 -0.5886  0.3829 -0.6626
  127OSM    C9S13563   2.909   0.784   7.501 -0.7042 -0.0280 -0.0525
  127OSM    H9S13564   2.994   0.837   7.454 -1.6387  3.3164  1.7179
  127OSM    H9T13565   2.904   0.674   7.484 -0.6724  0.0847 -0.8040
  127OSM   C10S13566   2.909   0.813   7.651  0.3742 -0.4029  0.6414
  127OSM   H10S13567   3.002   0.774   7.696  0.5850 -1.3358 -0.5279
  127OSM   H10T13568   2.823   0.756   7.692 -0.0199  1.0622  1.9195
  127OSM   C11S13569   2.899   0.961   7.692  0.3560  0.0971  0.4655
  127OSM   H11S13570   2.819   1.016   7.638  2.6494  3.6775  0.3770
  127OSM   H11T13571   2.994   1.015   7.673 -0.0181  0.7545  0.4281
  127OSM   C12S13572   2.862   0.976   7.839  0.3715 -0.2651  0.5709
  127OSM   H12S13573   2.766   0.925   7.864 -0.3767  0.3302 -0.9068
  127OSM   H12T13574   2.848   1.083   7.864 -0.1279  0.3338 -1.9632
  127OSM   C13S13575   2.982   0.932   7.925 -0.1030  0.0393 -0.1201
  127OSM   H13S13576   3.079   0.969   7.886  0.1866 -0.9789 -0.3995
  127OSM   H13T13577   2.995   0.821   7.926  2.6791  0.2798  1.1292
  127OSM   C14S13578   2.972   0.972   8.073 -0.0139  0.5007  0.1072
  127OSM   H14S13579   2.866   0.957   8.103 -1.0424  1.4992 -2.7180
  127OSM   H14T13580   2.996   1.080   8.088 -0.5943  0.5451  0.7688
  127OSM   C15S13581   3.060   0.895   8.177  0.2268 -0.3011  0.7061
  127OSM   H15S13582   3.167   0.918   8.157  0.3704 -0.5053  1.2302
  127OSM   H15T13583   3.036   0.787   8.178 -0.7237 -0.1204 -0.2160
  127OSM   C16S13584   3.034   0.948   8.318  0.1617  0.2172 -0.6228
  127OSM   H16S13585   2.924   0.952   8.332 -0.1504 -2.8614 -1.4762
  127OSM   H16T13586   3.083   1.047   8.322 -2.7847  1.8085 -1.6006
  127OSM   C17S13587   3.103   0.852   8.427  0.8973  0.6220  0.8343
  127OSM   H17S13588   3.088   0.745   8.401  2.9846  0.0697  1.7028
  127OSM   H17T13589   3.049   0.882   8.519 -2.2217  1.3752 -1.0884
  127OSM   C18S13590   3.249   0.872   8.456  0.1624 -0.9071 -0.3507
  127OSM   H18S13591   3.277   0.979   8.467  0.5383 -0.9309 -1.0179
  127OSM   H18T13592   3.294   0.833   8.362  3.5467 -1.1785  1.2315
  127OSM   H18U13593   3.286   0.818   8.545  2.4011  1.4475  0.2712
  127OSM    C1F13594   2.329   1.260   7.064  0.7499  0.2531  0.3066
  127OSM     OF13595   2.272   1.261   6.958  0.4270 -0.2226  0.2695
  127OSM    C2F13596   2.276   1.306   7.195  0.2302  0.1596 -0.2028
  127OSM    H2F13597   2.313   1.408   7.221  2.6987 -1.3055  2.8281
  127OSM    H2G13598   2.310   1.243   7.280  1.0882 -0.3881 -0.9288
  127OSM    C3F13599   2.121   1.314   7.197  0.5148 -0.3404 -0.4739
  127OSM    H3F13600   2.075   1.233   7.136 -2.4766  1.2071 -0.4800
  127OSM    H3G13601   2.084   1.403   7.141  2.1925  0.8882  0.2876
  127OSM    C4F13602   2.062   1.316   7.340  0.4986  0.5306 -0.1246
  127OSM    H4F13603   2.124   1.257   7.412 -0.6895  1.0125  1.3553
  127OSM    H4G13604   1.958   1.278   7.345 -0.7044  2.2831 -5.4712
  127OSM    C5F13605   2.035   1.460   7.394 -0.1975  0.0832  0.0479
  127OSM    H5F13606   1.958   1.467   7.474 -0.0039  1.9056  0.1172
  127OSM    H5G13607   1.995   1.520   7.309 -1.6847  0.8786  1.2459
  127OSM    C6F13608   2.156   1.548   7.429 -0.4896  0.0350 -0.3362
  127OSM    H6F13609   2.106   1.640   7.465 -0.3314 -0.8414  2.3326
  127OSM    H6G13610   2.229   1.556   7.346 -0.7179 -3.9914 -1.1231
  127OSM    C7F13611   2.236   1.510   7.554 -0.4523  1.2856 -0.1485
  127OSM    H7F13612   2.314   1.437   7.525 -1.5015 -1.1172  2.5473
  127OSM    H7G13613   2.177   1.464   7.637  2.2850  0.7227  1.6282
  127OSM    C8F13614   2.307   1.638   7.602  1.0250  0.6274 -0.6603
  127OSM    H8F13615   2.247   1.727   7.630 -1.5151 -0.7443 -1.4831
  127OSM    H8G13616   2.354   1.677   7.509 -0.6211  0.1516 -1.7329
  127OSM    C9F13617   2.408   1.602   7.711 -0.5915 -0.6800  0.3466
  127OSM    H9F13618   2.505   1.561   7.681  0.1352  0.0259  1.6455
  127OSM   C10F13619   2.407   1.639   7.838  0.3769  1.7387  0.7089
  127OSM   H10F13620   2.488   1.604   7.904  0.1763  2.3962  1.3157
  127OSM   C11F13621   2.288   1.701   7.907  0.1004 -0.1439  0.2258
  127OSM   H11F13622   2.196   1.706   7.844 -1.5766 -0.8956  2.4462
  127OSM   H11G13623   2.317   1.807   7.918 -1.5445  0.3971 -0.2824
  127OSM   C12F13624   2.256   1.631   8.043  0.5193 -0.3816  0.2345
  127OSM   H12F13625   2.240   1.527   8.008 -2.8939  0.6670 -1.7566
  127OSM   H12G13626   2.158   1.667   8.080 -0.3310 -1.1409 -1.1807
  127OSM   C13F13627   2.365   1.656   8.146 -0.1787 -0.4580 -1.1450
  127OSM   H13F13628   2.386   1.765   8.140  2.4029 -0.2467  4.7104
  127OSM   H13G13629   2.448   1.590   8.115 -0.1193 -1.0158  0.1207
  127OSM   C14F13630   2.330   1.627   8.293 -0.0736  0.5280  0.2831
  127OSM   H14F13631   2.234   1.677   8.319 -1.2132 -0.9437 -0.8538
  127OSM   H14G13632   2.400   1.674   8.364 -0.0593  1.8766 -0.5957
  127OSM   C15F13633   2.309   1.474   8.311  0.3151  0.1743 -0.2960
  127OSM   H15F13634   2.404   1.422   8.287 -1.3277 -2.5477 -1.2676
  127OSM   H15G13635   2.224   1.440   8.249 -1.4868  2.0227  0.9973
  127OSM   C16F13636   2.278   1.446   8.455 -0.3491 -0.0029 -0.3067
  127OSM   H16F13637   2.190   1.509   8.479 -1.1784  0.2058 -3.4776
  127OSM   H16G13638   2.372   1.461   8.512 -0.6383 -0.5510  0.3360
  127OSM   C17F13639   2.246   1.295   8.482 -0.4110  0.2767  0.5959
  127OSM   H17F13640   2.252   1.272   8.590  1.5297  0.2079  0.5099
  127OSM   H17G13641   2.325   1.243   8.423  0.2856  2.0095 -0.0899
  127OSM   C18F13642   2.113   1.243   8.419 -0.3994  0.0574 -0.2541
  127OSM   H18F13643   2.137   1.191   8.324  3.0839 -1.3257  1.2163
  127OSM   H18G13644   2.040   1.326   8.409  0.2092  0.7313  0.7666
  127OSM   H18H13645   2.078   1.168   8.493 -1.0667  2.5772  2.1702
  128OSM      N13646   1.374   4.834   6.455 -0.2062 -0.4046 -0.9342
  128OSM    C1513647   1.499   4.900   6.392  0.8968 -0.0670  0.3745
  128OSM   H15A13648   1.560   4.830   6.337  0.4927  0.7817 -1.2312
  128OSM   H15B13649   1.561   4.949   6.465  2.2132  0.2583 -0.9156
  128OSM   H15C13650   1.475   4.969   6.312  0.7473 -0.5661 -0.0127
  128OSM    C1413651   1.335   4.906   6.581 -0.3244 -0.3920  0.0487
  128OSM   H14A13652   1.244   4.870   6.627 -0.2958 -0.5649 -0.0287
  128OSM   H14B13653   1.311   5.010   6.566  0.6590 -0.3020 -1.0840
  128OSM   H14C13654   1.418   4.902   6.650  0.0185  2.7560 -0.0562
  128OSM    C1313655   1.261   4.846   6.356  0.9422  0.3588 -0.3191
  128OSM   H13A13656   1.291   4.818   6.256  1.7811  1.9455 -0.5531
  128OSM   H13B13657   1.232   4.948   6.340 -2.4497 -0.2561  1.2357
  128OSM   H13C13658   1.177   4.787   6.388  0.3907  0.2755 -1.8190
  128OSM    C1213659   1.402   4.689   6.483 -0.2607 -0.7605 -0.1775
  128OSM   H12A13660   1.332   4.660   6.559  0.2121  2.7570  1.8102
  128OSM   H12B13661   1.498   4.692   6.532 -0.7496  0.5504  0.7584
  128OSM    C1113662   1.410   4.602   6.360  0.2887 -0.0872  0.4482
  128OSM   H11A13663   1.322   4.599   6.292  0.3933  0.4854  0.2828
  128OSM   H11B13664   1.421   4.495   6.389  1.3407  0.3383  1.6951
  128OSM      P13665   1.665   4.600   6.297  0.0490 -0.2052  0.3009
  128OSM    O1313666   1.707   4.515   6.183 -0.2892  0.3260  0.2694
  128OSM    O1413667   1.743   4.727   6.318 -0.2345 -0.1659  0.2600
  128OSM    O1113668   1.670   4.510   6.424  0.6953 -0.0402 -0.6196
  128OSM    O1213669   1.512   4.638   6.275  0.0216  0.0251  0.0616
  128OSM    C1S13670   1.751   4.534   6.540 -0.1224  0.1871 -0.1908
  128OSM    H1S13671   1.758   4.639   6.575 -2.0553 -0.2755  1.7898
  128OSM    H1T13672   1.859   4.511   6.525  0.9315  2.9920  2.1341
  128OSM     NF13673   1.777   4.485   6.775  0.6299 -0.2030 -0.2540
  128OSM    HNF13674   1.849   4.421   6.799  2.5829  0.8013 -2.9444
  128OSM    C2S13675   1.707   4.444   6.656 -0.2078  0.1072  0.5367
  128OSM    H2S13676   1.600   4.464   6.679 -0.5945 -0.4571 -0.7195
  128OSM    C3S13677   1.726   4.293   6.618  0.6061  0.0808  0.5241
  128OSM    H3S13678   1.834   4.271   6.605  0.0775 -3.4857  1.0028
  128OSM     O313679   1.661   4.260   6.495  0.3289 -0.1328 -0.5492
  128OSM    HO313680   1.636   4.344   6.454  0.0399 -1.3827 -3.1287
  128OSM    C4S13681   1.675   4.209   6.728 -0.2082  0.1803  0.4100
  128OSM    H4S13682   1.766   4.168   6.774  0.1749  1.3167  0.6755
  128OSM    C5S13683   1.548   4.160   6.743  0.3502 -0.5839 -0.4478
  128OSM    H5S13684   1.478   4.177   6.660 -0.7435 -3.1528 -0.1526
  128OSM    C6S13685   1.500   4.069   6.851  0.4406  0.0961  0.1678
  128OSM    H6S13686   1.485   3.968   6.807 -2.0643 -0.1874  1.5221
  128OSM    H6T13687   1.394   4.085   6.876 -0.3396  2.9568 -3.8921
  128OSM    C7S13688   1.592   4.050   6.981 -0.2979  0.5881  0.4643
  128OSM    H7S13689   1.695   4.012   6.961  0.1193  0.0998  3.2081
  128OSM    H7T13690   1.536   3.976   7.042 -1.5619  2.6999  1.9849
  128OSM    C8S13691   1.601   4.170   7.081  0.3041  0.1406 -0.7787
  128OSM    H8S13692   1.497   4.205   7.098 -0.0459  0.0900 -2.5606
  128OSM    H8T13693   1.660   4.250   7.030 -0.3413  1.5423  0.6140
  128OSM    C9S13694   1.662   4.134   7.207 -0.7852  0.2749 -0.2820
  128OSM    H9S13695   1.754   4.072   7.203 -2.1949 -1.8793 -1.3324
  128OSM    H9T13696   1.602   4.049   7.246  2.6876 -1.3490  2.0100
  128OSM   C10S13697   1.679   4.246   7.306 -0.2877  0.4339 -0.2194
  128OSM   H10S13698   1.579   4.287   7.329 -1.1835 -2.4516  1.6279
  128OSM   H10T13699   1.749   4.322   7.266 -0.2203 -0.1829 -1.3252
  128OSM   C11S13700   1.733   4.188   7.444  0.4261  0.4065  0.1394
  128OSM   H11S13701   1.827   4.134   7.420  0.5302  0.3051  0.7421
  128OSM   H11T13702   1.656   4.118   7.484 -0.4745  1.2582 -0.0729
  128OSM   C12S13703   1.764   4.292   7.549 -0.1250  0.0229 -0.1534
  128OSM   H12S13704   1.691   4.375   7.540 -0.2841 -0.2250 -1.3988
  128OSM   H12T13705   1.866   4.331   7.528 -0.0851  0.9553  1.5814
  128OSM   C13S13706   1.766   4.226   7.690  0.5355 -0.1398 -0.0232
  128OSM   H13S13707   1.830   4.136   7.678  0.2667 -0.0336 -3.0318
  128OSM   H13T13708   1.662   4.197   7.715 -0.7575  0.5409 -3.8620
  128OSM   C14S13709   1.812   4.311   7.807 -0.1704  0.5848  0.0285
  128OSM   H14S13710   1.772   4.411   7.780 -0.6858 -0.2730 -2.6192
  128OSM   H14T13711   1.923   4.309   7.799 -0.2981  0.8946 -2.6393
  128OSM   C15S13712   1.772   4.259   7.948  1.0842 -0.4919 -0.1698
  128OSM   H15S13713   1.767   4.149   7.933 -1.3693 -0.5109  0.3054
  128OSM   H15T13714   1.668   4.289   7.973 -0.0635 -2.4862 -2.1257
  128OSM   C16S13715   1.858   4.300   8.071 -0.9721  0.7744  0.5574
  128OSM   H16S13716   1.804   4.266   8.162 -0.7798 -0.7123  0.1322
  128OSM   H16T13717   1.876   4.410   8.074  4.2597  0.2473 -1.2938
  128OSM   C17S13718   1.997   4.231   8.060  1.2579  0.1056 -0.5387
  128OSM   H17S13719   2.045   4.270   7.967 -0.3742 -0.5860 -1.7083
  128OSM   H17T13720   1.982   4.122   8.047  3.1254 -0.2199 -0.3855
  128OSM   C18S13721   2.077   4.256   8.187  0.2265  0.7170 -0.0086
  128OSM   H18S13722   2.163   4.186   8.175  0.3493  0.4682  1.8763
  128OSM   H18T13723   2.015   4.214   8.269  0.5555  1.2041  0.4956
  128OSM   H18U13724   2.105   4.362   8.207  1.4120  0.1950  1.3780
  128OSM    C1F13725   1.764   4.592   6.851 -0.2125  0.4462 -0.6700
  128OSM     OF13726   1.703   4.684   6.809 -0.2611 -0.6941  0.0246
  128OSM    C2F13727   1.830   4.603   6.987  0.1369 -0.4218 -0.2069
  128OSM    H2F13728   1.881   4.700   6.969  1.4218 -0.8594  0.9006
  128OSM    H2G13729   1.920   4.539   6.998  0.7243  0.2241 -1.2142
  128OSM    C3F13730   1.730   4.626   7.102  0.3187 -0.8467  0.3308
  128OSM    H3F13731   1.656   4.543   7.092 -0.3806 -0.0604 -1.6028
  128OSM    H3G13732   1.679   4.723   7.080 -1.0171 -1.2948  1.3594
  128OSM    C4F13733   1.809   4.628   7.231 -0.4173 -0.0327  0.4023
  128OSM    H4F13734   1.885   4.710   7.233  1.2559 -1.5402  0.8759
  128OSM    H4G13735   1.867   4.534   7.236  1.2027  0.6745 -2.5540
  128OSM    C5F13736   1.719   4.645   7.351  0.4009  0.0039  0.4109
  128OSM    H5F13737   1.655   4.557   7.372 -0.2902 -0.1246 -1.9902
  128OSM    H5G13738   1.646   4.725   7.325 -1.5164 -1.9510 -0.4958
  128OSM    C6F13739   1.794   4.693   7.476  0.4456 -0.8991  0.7074
  128OSM    H6F13740   1.832   4.795   7.453 -0.9345 -0.3893  0.6260
  128OSM    H6G13741   1.867   4.614   7.503  0.3400 -1.3268 -0.2334
  128OSM    C7F13742   1.693   4.710   7.591  0.2110 -0.4781 -0.7178
  128OSM    H7F13743   1.627   4.621   7.603  2.4870 -2.1578  0.0404
  128OSM    H7G13744   1.628   4.798   7.571 -1.0911 -1.4247 -0.7982
  128OSM    C8F13745   1.774   4.734   7.724  0.0258  0.6772 -0.0975
  128OSM    H8F13746   1.799   4.842   7.739 -0.4620  0.8740 -0.6418
  128OSM    H8G13747   1.871   4.682   7.736  0.1033  1.0645  1.0068
  128OSM    C9F13748   1.687   4.678   7.835  0.2866  0.4493 -0.3324
  128OSM    H9F13749   1.656   4.573   7.827 -0.8975  0.4886  2.5968
  128OSM   C10F13750   1.632   4.755   7.925  0.6973 -0.4352 -0.3825
  128OSM   H10F13751   1.579   4.711   8.011 -0.3537  0.9490 -0.2915
  128OSM   C11F13752   1.652   4.906   7.936  0.5278 -0.2551  0.0896
  128OSM   H11F13753   1.561   4.970   7.927  1.6728  1.9200  2.4109
  128OSM   H11G13754   1.720   4.955   7.863  1.9294  1.1253  2.1985
  128OSM   C12F13755   1.716   4.942   8.071  0.0744 -0.0645 -0.5340
  128OSM   H12F13756   1.669   4.891   8.157 -2.7078  1.3278 -1.1252
  128OSM   H12G13757   1.702   5.051   8.081 -1.0882 -0.1510 -1.1103
  128OSM   C13F13758   1.872   4.910   8.063  0.3858 -0.8344  0.2419
  128OSM   H13F13759   1.910   4.914   7.959  0.0734  4.0744  0.1141
  128OSM   H13G13760   1.877   4.809   8.110 -1.1780 -1.4517 -0.8466
  128OSM   C14F13761   1.949   5.009   8.144  0.1060 -0.4237 -0.1884
  128OSM   H14F13762   1.895   5.026   8.240 -2.5512  0.8611 -1.7821
  128OSM   H14G13763   1.940   5.110   8.097 -0.6097 -0.7697 -0.8177
  128OSM   C15F13764   2.100   4.976   8.155 -0.2004 -0.2706 -1.1704
  128OSM   H15F13765   2.127   4.984   8.047  1.7667  2.8522 -0.5949
  128OSM   H15G13766   2.105   4.872   8.193  0.1658  0.4958  1.0265
  128OSM   C16F13767   2.186   5.081   8.224 -0.6355 -1.2026 -0.7637
  128OSM   H16F13768   2.160   5.080   8.332 -0.7146  0.4884 -0.7358
  128OSM   H16G13769   2.159   5.184   8.190 -2.4378 -1.0528  0.8933
  128OSM   C17F13770   2.340   5.061   8.225  0.8308 -0.9011  0.7446
  128OSM   H17F13771   2.366   5.148   8.290  0.3550 -2.5313  3.2555
  128OSM   H17G13772   2.374   5.082   8.121 -3.4677  0.0062 -0.6927
  128OSM   C18F13773   2.401   4.940   8.289  0.1596  0.2412  0.5757
  128OSM   H18F13774   2.512   4.947   8.285  0.0611  1.6428 -0.6988
  128OSM   H18G13775   2.366   4.848   8.237  1.9049  0.5817 -1.3482
  128OSM   H18H13776   2.366   4.934   8.394 -0.1802  3.2192  0.7304
  129OSM      N13777   1.245   5.660   6.105  0.9664 -0.0050 -0.1103
  129OSM    C1513778   1.131   5.620   6.194  0.2351  0.0421  0.1565
  129OSM   H15A13779   1.121   5.675   6.287  1.5276 -0.5254  0.6487
  129OSM   H15B13780   1.139   5.517   6.227 -1.8675  0.6075  2.8051
  129OSM   H15C13781   1.034   5.615   6.145 -0.0993  1.5096  0.6374
  129OSM    C1413782   1.268   5.554   6.008  0.4556  0.2757  0.4106
  129OSM   H14A13783   1.178   5.531   5.953  0.7242  0.1490  0.0201
  129OSM   H14B13784   1.289   5.459   6.054 -0.4143 -0.2266 -0.2060
  129OSM   H14C13785   1.350   5.573   5.941  0.4540 -0.1276  0.2963
  129OSM    C1313786   1.206   5.786   6.035  0.3653 -0.0405  0.2530
  129OSM   H13A13787   1.214   5.873   6.098 -0.8286 -0.6172  1.2578
  129OSM   H13B13788   1.102   5.788   6.005 -0.0651 -1.0697  1.5567
  129OSM   H13C13789   1.263   5.809   5.947 -1.4029  0.6049 -0.7855
  129OSM    C1213790   1.378   5.685   6.182  0.3549 -0.0635  0.3262
  129OSM   H12A13791   1.368   5.770   6.248  1.9843  0.4097  0.0308
  129OSM   H12B13792   1.455   5.702   6.108 -0.2832 -0.0031 -0.3367
  129OSM    C1113793   1.430   5.571   6.270 -0.2212 -0.1428  0.0608
  129OSM   H11A13794   1.347   5.526   6.328 -2.1033  0.2127 -2.1921
  129OSM   H11B13795   1.514   5.613   6.330  0.6355  1.6026 -2.1752
  129OSM      P13796   1.474   5.326   6.188  0.2738  0.3172 -0.1932
  129OSM    O1313797   1.342   5.280   6.132  0.3747  0.1829  0.5674
  129OSM    O1413798   1.593   5.264   6.132 -0.0386  0.2213 -0.3560
  129OSM    O1113799   1.478   5.287   6.340 -0.2296 -0.0193 -0.3946
  129OSM    O1213800   1.493   5.480   6.180  0.6854 -0.0804 -1.2012
  129OSM    C1S13801   1.598   5.283   6.418  0.2310 -0.4634  0.1811
  129OSM    H1S13802   1.677   5.345   6.370  0.0751 -0.1288  0.3489
  129OSM    H1T13803   1.640   5.181   6.425 -0.5387 -0.8896 -1.0519
  129OSM     NF13804   1.706   5.346   6.632 -0.1053 -0.7637 -0.1535
  129OSM    HNF13805   1.753   5.266   6.669  0.1560 -0.3283  0.4685
  129OSM    C2S13806   1.579   5.334   6.567  0.3688  0.8479  0.1162
  129OSM    H2S13807   1.537   5.437   6.565 -1.2057  0.2243 -1.1548
  129OSM    C3S13808   1.476   5.239   6.634 -0.2682  0.2588  0.3026
  129OSM    H3S13809   1.516   5.135   6.643 -4.0132 -1.5927 -2.0331
  129OSM     O313810   1.359   5.226   6.560 -0.2498 -0.3678  0.0872
  129OSM    HO313811   1.382   5.266   6.476  1.4963  2.1840  1.6509
  129OSM    C4S13812   1.446   5.290   6.773 -0.2611  0.0118 -0.2922
  129OSM    H4S13813   1.492   5.236   6.858  1.2242  0.2923 -0.8932
  129OSM    C5S13814   1.360   5.392   6.795  0.1080 -0.1360 -0.8151
  129OSM    H5S13815   1.300   5.433   6.712 -0.8966  0.3556  0.1082
  129OSM    C6S13816   1.318   5.451   6.932 -1.2028 -0.1030  0.1762
  129OSM    H6S13817   1.210   5.439   6.956 -0.8847 -0.4876  1.4610
  129OSM    H6T13818   1.348   5.558   6.933  1.3255 -0.7376 -1.1630
  129OSM    C7S13819   1.398   5.396   7.055 -0.3669  0.0029 -0.7254
  129OSM    H7S13820   1.505   5.419   7.041 -0.2653  0.0086  0.0567
  129OSM    H7T13821   1.389   5.286   7.053  0.7025 -0.0939 -0.5236
  129OSM    C8S13822   1.356   5.458   7.188 -0.1585  0.3034  0.1568
  129OSM    H8S13823   1.248   5.435   7.202  0.3429 -2.2132  0.4148
  129OSM    H8T13824   1.365   5.568   7.193 -0.7441  0.3657 -0.0150
  129OSM    C9S13825   1.425   5.395   7.311  0.0199 -0.1770  0.8401
  129OSM    H9S13826   1.534   5.415   7.302 -0.4409  1.8330 -2.2111
  129OSM    H9T13827   1.400   5.287   7.315  0.5469 -0.2677  2.3538
  129OSM   C10S13828   1.379   5.451   7.445 -0.3214 -0.3055  0.4865
  129OSM   H10S13829   1.268   5.452   7.444 -0.3417  0.6427 -1.0245
  129OSM   H10T13830   1.410   5.558   7.438 -2.7221  0.4374  0.0533
  129OSM   C11S13831   1.455   5.385   7.564 -0.3010 -0.0262  0.1485
  129OSM   H11S13832   1.565   5.401   7.555 -0.2801 -0.5541 -0.8015
  129OSM   H11T13833   1.442   5.278   7.534  1.1785  0.3976 -2.3021
  129OSM   C12S13834   1.389   5.427   7.697 -0.4106 -0.0019 -0.3942
  129OSM   H12S13835   1.278   5.433   7.699 -0.5382 -1.2821  2.8381
  129OSM   H12T13836   1.433   5.526   7.725  0.4721 -0.7059  0.8150
  129OSM   C13S13837   1.412   5.327   7.809 -1.0533 -0.8064 -0.2393
  129OSM   H13S13838   1.502   5.266   7.788  0.0730 -0.1206  2.1990
  129OSM   H13T13839   1.324   5.259   7.803 -1.7855  0.1896 -1.1648
  129OSM   C14S13840   1.420   5.391   7.949 -0.5527 -0.4998  0.3357
  129OSM   H14S13841   1.354   5.342   8.023  0.6908 -1.0069  1.1394
  129OSM   H14T13842   1.403   5.499   7.931  1.6611  0.2460  2.2304
  129OSM   C15S13843   1.563   5.366   8.011 -0.0013 -0.0720  0.0272
  129OSM   H15S13844   1.635   5.393   7.931 -0.2422 -2.1829 -0.9634
  129OSM   H15T13845   1.557   5.256   8.017  0.5131 -0.1288 -0.4030
  129OSM   C16S13846   1.602   5.437   8.139 -0.4818 -0.3157  0.1439
  129OSM   H16S13847   1.562   5.380   8.226 -2.7863  0.6604 -0.1783
  129OSM   H16T13848   1.553   5.538   8.137  0.2011  0.0170  0.0705
  129OSM   C17S13849   1.754   5.451   8.147 -0.6540 -0.3679  0.3014
  129OSM   H17S13850   1.798   5.513   8.066 -1.3811  1.9131  1.5475
  129OSM   H17T13851   1.804   5.353   8.135 -0.1298  0.1032 -1.7442
  129OSM   C18S13852   1.800   5.508   8.283  0.1618 -0.1219 -0.0808
  129OSM   H18S13853   1.774   5.436   8.364 -0.5634 -1.9500 -1.8515
  129OSM   H18T13854   1.744   5.602   8.303  2.1867  0.5649  3.2022
  129OSM   H18U13855   1.909   5.526   8.289  0.5491 -1.9907 -0.9394
  129OSM    C1F13856   1.798   5.431   6.590 -0.2083 -0.1752  0.7097
  129OSM     OF13857   1.764   5.524   6.513  0.0196 -1.0012 -0.1849
  129OSM    C2F13858   1.936   5.408   6.640 -0.7700  0.0946  0.1667
  129OSM    H2F13859   2.010   5.419   6.558 -1.9329  0.8222 -0.8316
  129OSM    H2G13860   1.948   5.305   6.679 -1.0282 -0.1304 -0.3348
  129OSM    C3F13861   1.969   5.506   6.746  0.5941 -0.6474 -0.4927
  129OSM    H3F13862   1.912   5.492   6.840  1.2620 -2.3140 -0.2879
  129OSM    H3G13863   1.945   5.606   6.703 -2.5794 -1.1992 -0.2271
  129OSM    C4F13864   2.118   5.505   6.790 -0.0531 -0.0318 -0.2930
  129OSM    H4F13865   2.183   5.510   6.700  1.9366 -0.5200  1.0449
  129OSM    H4G13866   2.132   5.407   6.838  0.6892 -0.7071 -1.8180
  129OSM    C5F13867   2.150   5.631   6.862 -0.6101 -0.3269 -0.3012
  129OSM    H5F13868   2.077   5.708   6.829 -1.2304 -2.0387 -3.2873
  129OSM    H5G13869   2.247   5.676   6.830 -1.3867  0.3695 -1.7745
  129OSM    C6F13870   2.150   5.619   7.015 -0.1174 -0.3165  0.3266
  129OSM    H6F13871   2.228   5.542   7.033 -1.1693 -1.4931  0.0362
  129OSM    H6G13872   2.055   5.578   7.056  0.3589 -0.5623  1.1936
  129OSM    C7F13873   2.200   5.750   7.088  0.0485  0.2043  0.8091
  129OSM    H7F13874   2.150   5.843   7.055 -0.5612 -0.8796 -1.5902
  129OSM    H7G13875   2.308   5.756   7.065 -0.5199  0.1516 -2.1902
  129OSM    C8F13876   2.177   5.740   7.238 -0.6387  0.3852 -0.3107
  129OSM    H8F13877   2.187   5.633   7.268  2.1690  0.8192  0.5755
  129OSM    H8G13878   2.076   5.781   7.258 -0.7838  0.6016 -1.4329
  129OSM    C9F13879   2.285   5.813   7.310  0.2786  0.0953 -0.0911
  129OSM    H9F13880   2.387   5.774   7.294  0.0094 -2.0905  2.6976
  129OSM   C10F13881   2.271   5.899   7.415 -0.0203  0.8700  0.1624
  129OSM   H10F13882   2.366   5.950   7.437  2.0846 -2.6759  0.0270
  129OSM   C11F13883   2.145   5.942   7.486  0.0600  0.3864  0.2904
  129OSM   H11F13884   2.051   5.910   7.437  0.1054  0.3520  0.2253
  129OSM   H11G13885   2.128   6.052   7.482 -2.4051  0.0363 -1.3878
  129OSM   C12F13886   2.143   5.898   7.630 -0.1738 -0.5982  0.5661
  129OSM   H12F13887   2.193   5.801   7.653  1.8492  0.3198  0.2737
  129OSM   H12G13888   2.037   5.879   7.655 -1.1496  0.0965 -2.6013
  129OSM   C13F13889   2.214   5.998   7.722  0.7772 -0.1598  0.2576
  129OSM   H13F13890   2.171   6.098   7.699 -0.1932 -1.1453 -2.6266
  129OSM   H13G13891   2.320   6.008   7.691  0.7008 -0.6649 -0.1668
  129OSM   C14F13892   2.199   5.963   7.873 -1.3652  0.5175  0.4887
  129OSM   H14F13893   2.280   5.893   7.901  1.2240  2.0941 -2.4030
  129OSM   H14G13894   2.097   5.923   7.890 -1.8914 -0.5596 -4.0461
  129OSM   C15F13895   2.230   6.082   7.962  0.8825 -0.3522  0.1473
  129OSM   H15F13896   2.166   6.168   7.932 -0.3038 -1.5581 -0.9321
  129OSM   H15G13897   2.332   6.111   7.931  0.6932  0.6953  0.4644
  129OSM   C16F13898   2.224   6.078   8.115  0.0940 -0.0479  0.0067
  129OSM   H16F13899   2.283   5.989   8.146 -0.7763 -0.6998 -0.1572
  129OSM   H16G13900   2.116   6.059   8.135 -0.0250 -1.1319 -1.4414
  129OSM   C17F13901   2.278   6.200   8.180  0.4748 -0.5441 -0.8292
  129OSM   H17F13902   2.225   6.289   8.139  0.9139 -0.5594 -1.4443
  129OSM   H17G13903   2.382   6.225   8.152  0.7327  4.1693  2.9073
  129OSM   C18F13904   2.256   6.193   8.329  0.0163  0.2569 -0.1249
  129OSM   H18F13905   2.236   6.292   8.373  0.2883  0.7587 -1.0968
  129OSM   H18G13906   2.349   6.151   8.372  1.0608  4.1477  1.7703
  129OSM   H18H13907   2.172   6.133   8.370  0.9064  0.8679  2.7630
  130OSM      N13908   1.681   3.057   6.411 -0.1550 -0.1154 -0.1055
  130OSM    C1513909   1.620   3.076   6.541  0.9416  0.5160  0.3294
  130OSM   H15A13910   1.562   2.988   6.565 -1.7675  0.8779 -3.7946
  130OSM   H15B13911   1.554   3.162   6.540  0.2154 -0.0264 -0.4871
  130OSM   H15C13912   1.695   3.097   6.615  2.0798 -0.2288 -0.5807
  130OSM    C1413913   1.578   3.042   6.307  0.1397 -0.1425  0.5733
  130OSM   H14A13914   1.617   3.036   6.207  1.2505 -0.5962  1.0207
  130OSM   H14B13915   1.501   3.118   6.311  1.1334  0.9581 -0.6515
  130OSM   H14C13916   1.522   2.951   6.325  2.6026 -1.7660  0.5677
  130OSM    C1313917   1.780   3.167   6.387 -0.3083 -0.2349  0.3854
  130OSM   H13A13918   1.847   3.140   6.307 -0.1973  0.8569  0.0896
  130OSM   H13B13919   1.856   3.177   6.463  0.3119 -2.4703  0.1331
  130OSM   H13C13920   1.742   3.267   6.370 -0.5178 -0.4177 -0.2684
  130OSM    C1213921   1.756   2.928   6.412 -0.1144 -0.3857 -0.1848
  130OSM   H12A13922   1.693   2.841   6.410  1.3292 -1.5441 -3.8046
  130OSM   H12B13923   1.815   2.922   6.503  1.3881  1.6773 -0.9573
  130OSM    C1113924   1.849   2.896   6.290  0.3723 -0.4588  0.2653
  130OSM   H11A13925   1.793   2.909   6.195  0.5005  1.7631  0.4440
  130OSM   H11B13926   1.869   2.786   6.294  2.1675 -0.2399 -1.2914
  130OSM      P13927   2.077   2.973   6.402  0.3274  0.1408 -0.0568
  130OSM    O1313928   2.204   2.922   6.346 -0.4959 -0.4963  0.5208
  130OSM    O1413929   2.081   3.113   6.450 -0.2840 -0.3066 -0.2191
  130OSM    O1113930   2.015   2.871   6.506  0.4834 -0.3015  0.5184
  130OSM    O1213931   1.970   2.972   6.285  0.0972  0.3490  0.1008
  130OSM    C1S13932   2.062   2.735   6.526 -0.2169 -0.7187 -0.6783
  130OSM    H1S13933   2.157   2.710   6.475 -0.1917  0.4428 -1.2460
  130OSM    H1T13934   1.999   2.657   6.479 -1.0691  0.3849 -1.4426
  130OSM     NF13935   2.120   2.572   6.711 -0.1481 -0.0252 -0.2305
  130OSM    HNF13936   2.063   2.491   6.702 -0.2318  0.0641 -0.5135
  130OSM    C2S13937   2.064   2.703   6.679  0.3485  1.1074  0.3083
  130OSM    H2S13938   2.129   2.776   6.732  0.4374  0.5665  0.9688
  130OSM    C3S13939   1.916   2.718   6.734 -0.1669 -0.0639  0.9976
  130OSM    H3S13940   1.855   2.639   6.685  0.1163 -0.5987  1.4922
  130OSM     O313941   1.859   2.846   6.710  0.2094  0.4858 -0.0700
  130OSM    HO313942   1.925   2.883   6.652  1.8484  0.3227  1.5961
  130OSM    C4S13943   1.915   2.698   6.878  0.0689 -0.0196  0.4422
  130OSM    H4S13944   1.938   2.792   6.930 -0.2833 -0.2336  1.0019
  130OSM    C5S13945   1.870   2.590   6.937 -0.5615  0.1948 -0.9787
  130OSM    H5S13946   1.826   2.503   6.886 -1.2407 -1.4038  2.1069
  130OSM    C6S13947   1.864   2.576   7.084  0.0187  0.3284  0.4321
  130OSM    H6S13948   1.950   2.512   7.113 -0.3323 -0.3965 -0.0897
  130OSM    H6T13949   1.769   2.530   7.119 -0.3491  0.1260 -0.7912
  130OSM    C7S13950   1.872   2.709   7.163  0.4767 -0.2227  0.2472
  130OSM    H7S13951   1.779   2.769   7.155  0.8221  0.5086  1.4705
  130OSM    H7T13952   1.964   2.762   7.130 -1.8155  2.7478 -1.8234
  130OSM    C8S13953   1.903   2.692   7.312  0.2442  0.0661  0.1276
  130OSM    H8S13954   1.996   2.638   7.338 -0.4813 -0.7820  1.0210
  130OSM    H8T13955   1.823   2.631   7.360 -0.2930 -0.0730 -0.9103
  130OSM    C9S13956   1.898   2.825   7.390 -1.2943  0.1542 -0.9918
  130OSM    H9S13957   1.809   2.888   7.369  1.0671  3.9179 -0.7877
  130OSM    H9T13958   1.985   2.884   7.354  0.7501 -2.2594 -0.2910
  130OSM   C10S13959   1.905   2.804   7.543 -0.1070 -0.2978 -0.2677
  130OSM   H10S13960   1.998   2.750   7.572  0.1973 -0.2699 -1.1615
  130OSM   H10T13961   1.820   2.745   7.583 -0.7493  1.8223  1.7724
  130OSM   C11S13962   1.904   2.941   7.623 -0.5813 -0.5735  0.0591
  130OSM   H11S13963   1.803   2.987   7.621  0.9228  3.0813 -0.3511
  130OSM   H11T13964   1.972   3.014   7.574 -0.8519  0.5013  1.2200
  130OSM   C12S13965   1.941   2.933   7.774  0.2348  0.0672  0.7634
  130OSM   H12S13966   1.937   2.828   7.811 -1.6103 -0.8698 -1.7653
  130OSM   H12T13967   1.862   2.989   7.828  0.0215  0.3482  0.1743
  130OSM   C13S13968   2.066   3.017   7.812  0.5901 -0.5875  0.0162
  130OSM   H13S13969   2.048   3.124   7.785 -1.2838  0.1348  3.5144
  130OSM   H13T13970   2.155   2.981   7.756  0.4513 -1.7056  0.4936
  130OSM   C14S13971   2.087   3.009   7.967  0.4611  0.1123 -0.3809
  130OSM   H14S13972   2.137   2.916   8.001  0.0514  0.5612  1.5359
  130OSM   H14T13973   1.987   3.027   8.011 -0.0910  0.5284 -1.7675
  130OSM   C15S13974   2.171   3.118   8.029 -0.0565 -0.5908 -0.3911
  130OSM   H15S13975   2.114   3.210   8.056  1.8588  1.0966 -1.7778
  130OSM   H15T13976   2.238   3.163   7.952  1.0352 -0.9880  0.3000
  130OSM   C16S13977   2.250   3.096   8.160  0.1003  0.8720  0.3696
  130OSM   H16S13978   2.337   3.029   8.143  0.1887  1.5123 -2.0453
  130OSM   H16T13979   2.178   3.035   8.219  0.7096  0.6700  0.9248
  130OSM   C17S13980   2.301   3.212   8.238 -0.6307 -0.4608 -0.1364
  130OSM   H17S13981   2.219   3.277   8.276 -1.2127 -1.6571  0.6887
  130OSM   H17T13982   2.355   3.281   8.170 -1.8533  0.2451 -0.4215
  130OSM   C18S13983   2.382   3.187   8.364 -0.1358  0.2138 -0.3221
  130OSM   H18S13984   2.455   3.103   8.361 -0.1609  0.2139 -0.9491
  130OSM   H18T13985   2.314   3.184   8.452  0.6947  2.0541  0.4457
  130OSM   H18U13986   2.442   3.277   8.393 -0.5632  0.2781  0.3858
  130OSM    C1F13987   2.253   2.561   6.724 -0.4216 -0.0393 -0.4531
  130OSM     OF13988   2.324   2.661   6.705 -0.6135  0.0776 -0.6692
  130OSM    C2F13989   2.317   2.429   6.752  0.3800  0.0735 -0.5092
  130OSM    H2F13990   2.341   2.383   6.654  0.5053  1.1618 -1.0026
  130OSM    H2G13991   2.249   2.359   6.804  0.3654 -0.5518 -1.3471
  130OSM    C3F13992   2.445   2.448   6.841  1.1032  0.0490 -0.2879
  130OSM    H3F13993   2.410   2.504   6.930 -1.1152 -1.2216 -0.2761
  130OSM    H3G13994   2.525   2.501   6.785  0.3642  1.2390 -0.2366
  130OSM    C4F13995   2.484   2.305   6.892  0.0002 -0.6211  0.1119
  130OSM    H4F13996   2.536   2.237   6.821  0.8642 -0.1419  0.2731
  130OSM    H4G13997   2.397   2.245   6.927 -0.2257 -1.8668 -2.4238
  130OSM    C5F13998   2.594   2.337   6.998  0.9218 -0.0812 -0.1215
  130OSM    H5F13999   2.542   2.372   7.089  1.1126  1.3977 -0.5508
  130OSM    H5G14000   2.664   2.415   6.961  1.9214  0.0071  1.8460
  130OSM    C6F14001   2.668   2.213   7.057  0.5581  0.1597  0.0159
  130OSM    H6F14002   2.740   2.256   7.130 -0.3752 -1.0923  1.7404
  130OSM    H6G14003   2.728   2.157   6.983  0.8310 -0.2299  0.5264
  130OSM    C7F14004   2.568   2.119   7.126  0.3707  0.8014 -0.2215
  130OSM    H7F14005   2.629   2.027   7.138 -1.3204 -0.2291  0.7618
  130OSM    H7G14006   2.478   2.099   7.064  0.4062 -0.5632  0.1416
  130OSM    C8F14007   2.518   2.169   7.267  0.1291 -0.5493  0.4968
  130OSM    H8F14008   2.470   2.081   7.317 -2.6931  1.2067  1.1036
  130OSM    H8G14009   2.449   2.252   7.243 -0.2236 -1.2642 -1.0929
  130OSM    C9F14010   2.633   2.218   7.353  0.2848  0.2154 -0.6388
  130OSM    H9F14011   2.667   2.319   7.330  0.4519 -0.0138 -1.4168
  130OSM   C10F14012   2.687   2.152   7.459 -0.2500  1.2317  0.0467
  130OSM   H10F14013   2.770   2.191   7.521  1.4097 -2.8173  0.7104
  130OSM   C11F14014   2.638   2.023   7.513  0.4163  0.1225 -0.0738
  130OSM   H11F14015   2.729   1.964   7.536  1.7426  2.1397  0.0717
  130OSM   H11G14016   2.587   1.967   7.432 -0.9385  0.3736  0.5793
  130OSM   C12F14017   2.552   2.040   7.643  0.3626  0.3988 -0.0240
  130OSM   H12F14018   2.490   1.948   7.653 -0.5192  1.1125  1.6401
  130OSM   H12G14019   2.472   2.117   7.628 -3.0946 -2.5877  1.5101
  130OSM   C13F14020   2.638   2.050   7.766  0.5816 -0.0974 -0.0638
  130OSM   H13F14021   2.685   2.150   7.772 -1.5335  0.8369  2.3758
  130OSM   H13G14022   2.718   1.973   7.766  0.1446 -0.5570  0.6152
  130OSM   C14F14023   2.553   2.052   7.895  0.5604  0.9342 -0.3914
  130OSM   H14F14024   2.491   1.959   7.893  0.7086  0.8333 -0.2955
  130OSM   H14G14025   2.485   2.139   7.884 -2.0756 -1.1520 -1.8794
  130OSM   C15F14026   2.645   2.055   8.025 -0.2560 -0.1224 -0.4751
  130OSM   H15F14027   2.747   2.023   7.994 -1.0152 -3.1281 -0.2030
  130OSM   H15G14028   2.600   1.983   8.096 -1.9153  0.7508 -0.6040
  130OSM   C16F14029   2.633   2.188   8.107 -0.9638  0.3502 -0.5799
  130OSM   H16F14030   2.541   2.190   8.168  0.4768  2.2302  1.6958
  130OSM   H16G14031   2.620   2.264   8.027  1.9500  1.6194 -0.0047
  130OSM   C17F14032   2.757   2.230   8.193 -0.3254  0.2635  0.1365
  130OSM   H17F14033   2.740   2.332   8.233 -0.6529  0.2246  0.0988
  130OSM   H17G14034   2.835   2.241   8.115 -0.4479  2.5761  0.2671
  130OSM   C18F14035   2.799   2.131   8.298 -0.3175 -0.2266  0.3228
  130OSM   H18F14036   2.718   2.114   8.371  0.0576  0.5497  0.9318
  130OSM   H18G14037   2.890   2.159   8.355 -0.1545 -0.8984  0.4024
  130OSM   H18H14038   2.820   2.033   8.251  0.8210  0.3715 -0.4833
  131OSM      N14039   1.029   0.792   6.183  0.1619  0.5517  0.8141
  131OSM    C1514040   1.028   0.639   6.195  0.6184 -0.3548 -0.0362
  131OSM   H15A14041   1.085   0.595   6.114  0.3721 -0.7350 -0.0078
  131OSM   H15B14042   0.925   0.607   6.194  1.4448 -3.3700 -0.4412
  131OSM   H15C14043   1.080   0.600   6.282  0.2107  1.9680  1.3263
  131OSM    C1414044   0.970   0.824   6.053 -0.8242  0.2297  0.7030
  131OSM   H14A14045   0.983   0.929   6.032 -2.0865 -0.2374 -3.1534
  131OSM   H14B14046   0.869   0.792   6.036 -0.4542 -0.0661 -1.1243
  131OSM   H14C14047   1.030   0.769   5.982  0.6538  0.9373  1.3349
  131OSM    C1314048   0.954   0.857   6.289  0.5637 -0.1272  0.4486
  131OSM   H13A14049   0.847   0.849   6.272  0.7449  0.6599 -1.3463
  131OSM   H13B14050   0.977   0.963   6.291  0.3549 -0.0712  0.0381
  131OSM   H13C14051   0.968   0.820   6.389  0.2857 -0.4410  0.3712
  131OSM    C1214052   1.170   0.834   6.208  0.3514 -0.1407 -0.1047
  131OSM   H12A14053   1.232   0.767   6.150  0.7545  0.0088  0.1416
  131OSM   H12B14054   1.197   0.816   6.311 -0.1368 -0.6135 -0.0611
  131OSM    C1114055   1.214   0.982   6.171 -0.1351 -0.2287  0.7345
  131OSM   H11A14056   1.225   0.974   6.061  2.1757 -1.1333  0.9661
  131OSM   H11B14057   1.316   1.006   6.209 -0.3522  1.7709  0.1773
  131OSM      P14058   1.118   1.217   6.158  0.0278  0.0624 -0.1276
  131OSM    O1314059   1.245   1.251   6.096 -0.7159  0.1138 -0.5398
  131OSM    O1414060   1.003   1.244   6.073  0.0302  0.2745  0.2652
  131OSM    O1114061   1.109   1.309   6.287 -0.3654 -0.1196  0.2988
  131OSM    O1214062   1.114   1.076   6.221 -0.0978  0.3329  0.2412
  131OSM    C1S14063   1.009   1.405   6.315 -0.3057  0.4635 -0.3613
  131OSM    H1S14064   0.924   1.384   6.247 -1.0111 -1.1986  0.9555
  131OSM    H1T14065   1.044   1.507   6.289  1.6199  0.8862  3.1868
  131OSM     NF14066   0.841   1.464   6.492 -0.2693 -0.0082  0.1044
  131OSM    HNF14067   0.834   1.529   6.567 -0.1535  0.7427 -0.5202
  131OSM    C2S14068   0.971   1.412   6.470  0.2213 -0.1804 -0.1131
  131OSM    H2S14069   0.965   1.304   6.497 -1.5829 -0.7075 -2.3368
  131OSM    C3S14070   1.093   1.476   6.543  0.2166 -0.3262 -0.5230
  131OSM    H3S14071   1.097   1.583   6.513 -1.9752  0.0949  0.5127
  131OSM     O314072   1.222   1.412   6.505  0.1890 -0.0256 -0.1023
  131OSM    HO314073   1.205   1.351   6.432  0.8770  0.2840 -0.5384
  131OSM    C4S14074   1.081   1.478   6.702  0.4589 -0.3598  0.1856
  131OSM    H4S14075   1.004   1.545   6.741  0.0670 -1.5294  1.4892
  131OSM    C5S14076   1.141   1.401   6.794 -0.5390 -0.0057  0.2596
  131OSM    H5S14077   1.215   1.331   6.755 -0.5582  0.2571 -0.2508
  131OSM    C6S14078   1.117   1.397   6.941 -0.3000 -0.4482 -0.0626
  131OSM    H6S14079   1.066   1.304   6.973  0.1324 -0.5322  0.3932
  131OSM    H6T14080   1.056   1.480   6.982  0.2634 -0.4386  0.7876
  131OSM    C7S14081   1.251   1.402   7.019  0.1872  0.4190  0.0978
  131OSM    H7S14082   1.310   1.495   7.006  0.5357  0.1041 -0.6311
  131OSM    H7T14083   1.316   1.317   6.988 -1.0045 -0.9270  1.1556
  131OSM    C8S14084   1.213   1.394   7.169 -0.6758 -0.1271 -0.2122
  131OSM    H8S14085   1.156   1.298   7.175  0.8998 -1.0229  1.8509
  131OSM    H8T14086   1.154   1.487   7.182 -0.4660  0.2115 -1.6026
  131OSM    C9S14087   1.328   1.389   7.267 -0.7693 -0.0042  0.4088
  131OSM    H9S14088   1.394   1.477   7.252  0.1242 -0.5427  1.0960
  131OSM    H9T14089   1.392   1.301   7.245  0.1692  0.4937  1.0693
  131OSM   C10S14090   1.286   1.392   7.417  0.3140 -0.0896  0.2801
  131OSM   H10S14091   1.198   1.457   7.435 -0.4111 -0.9812  0.0216
  131OSM   H10T14092   1.373   1.432   7.475  1.1456  1.1755 -1.7316
  131OSM   C11S14093   1.247   1.261   7.476 -1.2675  0.0364  0.3526
  131OSM   H11S14094   1.320   1.178   7.464 -1.0618  0.3398 -0.5679
  131OSM   H11T14095   1.158   1.222   7.423 -2.2974  1.5935  0.8828
  131OSM   C12S14096   1.249   1.267   7.630  0.6902  0.0105  0.1680
  131OSM   H12S14097   1.207   1.366   7.655 -4.0456 -1.3943 -1.1444
  131OSM   H12T14098   1.350   1.260   7.675  0.2310  0.1853  1.2582
  131OSM   C13S14099   1.156   1.159   7.683  0.9872  0.0903  0.4321
  131OSM   H13S14100   1.185   1.055   7.656  3.4985  1.0638 -0.9146
  131OSM   H13T14101   1.057   1.174   7.637  0.6044  1.6811  1.6797
  131OSM   C14S14102   1.131   1.159   7.834  0.1347 -0.0906  0.0688
  131OSM   H14S14103   1.072   1.250   7.857  1.8706  1.3309 -0.9239
  131OSM   H14T14104   1.233   1.167   7.878  0.7074  0.1096 -1.2472
  131OSM   C15S14105   1.065   1.029   7.889  1.0469 -0.2824 -0.0678
  131OSM   H15S14106   1.145   0.952   7.898  0.6373 -0.5406  1.7219
  131OSM   H15T14107   0.980   1.008   7.821  1.2101  2.6832 -1.3624
  131OSM   C16S14108   1.016   1.051   8.035  0.2476 -0.7233 -0.2480
  131OSM   H16S14109   0.949   1.139   8.039 -1.0253 -1.5510 -2.0497
  131OSM   H16T14110   1.108   1.075   8.093  1.5143  2.7033 -3.2812
  131OSM   C17S14111   0.935   0.930   8.093  0.5605 -0.2490 -0.2062
  131OSM   H17S14112   0.840   0.910   8.040 -0.4327  0.7371  1.1379
  131OSM   H17T14113   0.909   0.953   8.199 -0.1212  0.7770 -0.5865
  131OSM   C18S14114   1.031   0.807   8.103  0.0908 -1.1850 -0.8269
  131OSM   H18S14115   1.131   0.842   8.138  0.1572  0.0805 -2.2193
  131OSM   H18T14116   1.031   0.756   8.004 -3.9058 -2.4558 -0.3413
  131OSM   H18U14117   0.986   0.734   8.173 -1.8396 -0.2038 -0.9962
  131OSM    C1F14118   0.728   1.428   6.431 -0.1146  0.2611  0.4443
  131OSM     OF14119   0.731   1.340   6.340 -0.2083  0.0700  0.2261
  131OSM    C2F14120   0.605   1.489   6.482  0.1434 -0.4782  0.3038
  131OSM    H2F14121   0.604   1.599   6.464  0.9434 -0.5291 -0.1060
  131OSM    H2G14122   0.616   1.484   6.593  0.9633  3.1664  0.5034
  131OSM    C3F14123   0.478   1.398   6.466  0.0900 -0.6248 -0.4139
  131OSM    H3F14124   0.504   1.295   6.498 -0.7797 -1.2034 -1.4906
  131OSM    H3G14125   0.458   1.395   6.356  0.1963  1.9429 -0.5726
  131OSM    C4F14126   0.346   1.448   6.540  0.4015  0.1076  0.3570
  131OSM    H4F14127   0.275   1.363   6.529  0.1273  0.4883 -0.9462
  131OSM    H4G14128   0.300   1.530   6.482 -2.7728 -1.8723 -0.1765
  131OSM    C5F14129   0.366   1.473   6.694  0.6144 -0.1557  0.0146
  131OSM    H5F14130   0.271   1.508   6.740  1.0912 -0.5520  1.3763
  131OSM    H5G14131   0.430   1.563   6.708 -1.9218  1.8452 -0.7120
  131OSM    C6F14132   0.423   1.351   6.764  0.2342 -0.3296 -0.1003
  131OSM    H6F14133   0.452   1.387   6.865  1.7641  0.4957 -0.7970
  131OSM    H6G14134   0.518   1.309   6.724  0.9037  0.5791  0.4927
  131OSM    C7F14135   0.308   1.242   6.774  0.6795 -0.1619 -0.1777
  131OSM    H7F14136   0.277   1.211   6.672 -0.7672  2.4979 -0.6309
  131OSM    H7G14137   0.217   1.295   6.809 -0.4974 -2.5261  0.5505
  131OSM    C8F14138   0.330   1.128   6.867  0.7863 -0.3675  0.9728
  131OSM    H8F14139   0.230   1.086   6.893  0.7367 -0.8137  0.1247
  131OSM    H8G14140   0.382   1.161   6.959  1.9685 -1.8740  0.8800
  131OSM    C9F14141   0.414   1.026   6.799 -0.1836  0.3567  0.4619
  131OSM    H9F14142   0.480   1.057   6.717 -0.5787 -0.5012 -0.1954
  131OSM   C10F14143   0.415   0.893   6.813 -0.7183  0.0888 -0.1813
  131OSM   H10F14144   0.502   0.836   6.779 -0.9538 -1.8069  2.1364
  131OSM   C11F14145   0.325   0.814   6.913 -1.0537  0.3010 -0.2833
  131OSM   H11F14146   0.296   0.711   6.884  0.4971 -0.8923  2.1057
  131OSM   H11G14147   0.229   0.870   6.923 -1.3451 -0.2368 -0.0319
  131OSM   C12F14148   0.387   0.809   7.050 -0.1248  0.2437 -0.9117
  131OSM   H12F14149   0.420   0.910   7.083 -1.5174  0.0590  1.2130
  131OSM   H12G14150   0.480   0.748   7.044  0.3066  0.9303 -1.4330
  131OSM   C13F14151   0.291   0.756   7.163  0.1834 -0.3818  1.0051
  131OSM   H13F14152   0.264   0.649   7.149  3.5472 -1.1636 -0.5385
  131OSM   H13G14153   0.199   0.817   7.171 -0.1134 -0.5441 -0.7860
  131OSM   C14F14154   0.361   0.761   7.303 -0.0364 -0.3594  0.0284
  131OSM   H14F14155   0.404   0.862   7.320  0.3618 -0.6175  0.5664
  131OSM   H14G14156   0.444   0.687   7.296  0.3851 -0.0887  1.8507
  131OSM   C15F14157   0.285   0.729   7.432 -0.2293  0.1072  0.8774
  131OSM   H15F14158   0.221   0.639   7.424  0.5242 -0.4192  0.6080
  131OSM   H15G14159   0.213   0.810   7.455 -1.1104 -0.3382 -0.2553
  131OSM   C16F14160   0.388   0.704   7.548 -0.2650  0.2796  0.7479
  131OSM   H16F14161   0.441   0.801   7.558 -1.2659  1.1879 -1.8110
  131OSM   H16G14162   0.471   0.634   7.524  0.3032  0.5862  1.7796
  131OSM   C17F14163   0.317   0.653   7.677  1.1516 -0.5646  0.5676
  131OSM   H17F14164   0.408   0.629   7.736  2.0530 -1.9540 -1.3067
  131OSM   H17G14165   0.255   0.562   7.659 -1.3393  1.0219  0.5576
  131OSM   C18F14166   0.217   0.742   7.753  0.5251 -0.2671  0.0283
  131OSM   H18F14167   0.155   0.687   7.827  1.6781  0.2676  1.4548
  131OSM   H18G14168   0.157   0.781   7.668 -0.3529 -2.7382 -0.5663
  131OSM   H18H14169   0.279   0.820   7.803  1.0285 -1.2558  0.9805
  132OSM      N14170   2.947   0.056   6.317 -0.2714  0.4143 -0.1371
  132OSM    C1514171   2.804   0.047   6.281 -0.2051 -0.2313 -0.0021
  132OSM   H15A14172   2.760   0.146   6.288 -0.7016 -0.2698 -2.0462
  132OSM   H15B14173   2.761  -0.024   6.350  1.1567  0.8468  2.0947
  132OSM   H15C14174   2.803   0.027   6.175  1.3626  1.0978 -0.3195
  132OSM    C1414175   3.007   0.176   6.254 -0.2414  0.1700  1.3317
  132OSM   H14A14176   2.974   0.172   6.151 -1.6542 -1.4974  1.8035
  132OSM   H14B14177   3.115   0.174   6.251 -0.2168 -0.6108 -2.6717
  132OSM   H14C14178   2.985   0.274   6.296 -1.1632 -0.6080  2.7614
  132OSM    C1314179   2.964   0.070   6.464  0.3649 -0.3153 -0.6849
  132OSM   H13A14180   2.947  -0.026   6.510 -0.4425 -0.5654 -1.4679
  132OSM   H13B14181   2.899   0.150   6.497  2.9263  1.5856  0.0438
  132OSM   H13C14182   3.062   0.110   6.486  0.9632 -2.1652  0.2677
  132OSM    C1214183   3.024  -0.073   6.281  0.5656 -0.5371  0.1957
  132OSM   H12A14184   3.003  -0.154   6.349 -1.5063  0.2980  0.6361
  132OSM   H12B14185   3.127  -0.043   6.293  0.9209 -1.8010  0.4584
  132OSM    C1114186   3.000  -0.126   6.136  0.4814  0.8056 -0.0302
  132OSM   H11A14187   3.083  -0.195   6.112  0.7566  0.9054  0.6134
  132OSM   H11B14188   3.015  -0.045   6.062 -0.9965 -0.3471 -1.6579
  132OSM      P14189   2.833  -0.327   6.163  0.5026 -0.3117  0.0781
  132OSM    O1314190   2.688  -0.336   6.186  0.0282  0.0705 -0.2237
  132OSM    O1414191   2.883  -0.423   6.068 -0.0945 -0.0864 -0.0926
  132OSM    O1114192   2.904  -0.341   6.302  0.1346 -0.8057 -0.1243
  132OSM    O1214193   2.868  -0.181   6.116  0.5964 -0.0304 -0.2457
  132OSM    C1S14194   2.824  -0.327   6.418  0.2854  0.4752  0.3850
  132OSM    H1S14195   2.748  -0.407   6.407  1.9486 -0.9955 -1.0950
  132OSM    H1T14196   2.781  -0.227   6.438  0.3221 -0.0160  3.5519
  132OSM     NF14197   2.806  -0.392   6.645 -0.3523 -0.1100  0.0636
  132OSM    HNF14198   2.758  -0.311   6.679 -1.4208 -1.7112  2.6887
  132OSM    C2S14199   2.905  -0.361   6.548 -1.0030 -0.4666  1.0216
  132OSM    H2S14200   2.957  -0.458   6.531  1.1249  1.0064 -1.5520
  132OSM    C3S14201   3.004  -0.253   6.589  0.1761  0.2551  0.1812
  132OSM    H3S14202   2.952  -0.155   6.585  0.6837  0.5237  0.1015
  132OSM     O314203   3.114  -0.245   6.500 -0.2725  0.0565  0.2910
  132OSM    HO314204   3.099  -0.308   6.428  2.5508  0.9425 -1.2184
  132OSM    C4S14205   3.056  -0.275   6.733 -0.4047  0.1544  0.8831
  132OSM    H4S14206   2.984  -0.249   6.813  2.1790 -1.3541  3.9207
  132OSM    C5S14207   3.178  -0.318   6.769 -0.0034  0.8583  0.2364
  132OSM    H5S14208   3.249  -0.349   6.691 -1.6206 -0.4481 -0.7979
  132OSM    C6S14209   3.225  -0.323   6.909  0.2988  0.6683  0.2281
  132OSM    H6S14210   3.278  -0.421   6.920 -1.5932 -0.6177 -1.4323
  132OSM    H6T14211   3.142  -0.321   6.982  0.9837  1.1860  1.0140
  132OSM    C7S14212   3.327  -0.216   6.967  0.8822  0.1764 -0.5469
  132OSM    H7S14213   3.286  -0.112   6.965  1.2770  0.3895  1.3328
  132OSM    H7T14214   3.413  -0.210   6.897  0.8365  0.1704 -0.6040
  132OSM    C8S14215   3.369  -0.247   7.113  0.6105 -0.1800  0.4693
  132OSM    H8S14216   3.454  -0.178   7.132  2.2617 -1.7915 -0.7420
  132OSM    H8T14217   3.396  -0.354   7.119 -2.2292 -0.9466  1.1691
  132OSM    C9S14218   3.248  -0.228   7.208  0.3537  0.9214 -0.0468
  132OSM    H9S14219   3.177  -0.312   7.190  0.6625  0.5782  0.3151
  132OSM    H9T14220   3.199  -0.132   7.182 -0.7779  0.0908 -1.0670
  132OSM   C10S14221   3.279  -0.207   7.359  0.2271  0.4414  0.2862
  132OSM   H10S14222   3.214  -0.131   7.408  0.8891  2.5447 -1.8842
  132OSM   H10T14223   3.384  -0.182   7.384 -0.2538  0.8399  2.0905
  132OSM   C11S14224   3.266  -0.332   7.450 -0.5133  0.3661  0.4348
  132OSM   H11S14225   3.316  -0.425   7.415 -0.6850  0.2609  0.4685
  132OSM   H11T14226   3.159  -0.359   7.438 -0.0988 -0.3762 -2.1017
  132OSM   C12S14227   3.308  -0.303   7.594  0.1259  0.1978 -0.0201
  132OSM   H12S14228   3.247  -0.217   7.630 -1.9991 -0.5745 -1.5929
  132OSM   H12T14229   3.416  -0.278   7.594 -0.1476  1.4388  0.2197
  132OSM   C13S14230   3.266  -0.414   7.697  0.6355 -0.5223  0.0495
  132OSM   H13S14231   3.156  -0.417   7.705  0.3734  0.0550 -2.4993
  132OSM   H13T14232   3.309  -0.381   7.794 -2.1936 -0.5197  1.3967
  132OSM   C14S14233   3.329  -0.551   7.681  0.5501  0.5234  0.1462
  132OSM   H14S14234   3.274  -0.606   7.602 -2.0407 -0.2466  2.3205
  132OSM   H14T14235   3.313  -0.622   7.765 -1.5591  0.4270 -0.2891
  132OSM   C15S14236   3.478  -0.539   7.676  0.4559  0.0339  1.0138
  132OSM   H15S14237   3.524  -0.490   7.764  1.2369 -0.9456  1.1719
  132OSM   H15T14238   3.507  -0.481   7.585  0.4657 -1.8345 -0.2378
  132OSM   C16S14239   3.542  -0.679   7.673 -0.3739 -0.8811 -0.3652
  132OSM   H16S14240   3.528  -0.723   7.572 -0.5934  0.0912 -0.7715
  132OSM   H16T14241   3.503  -0.746   7.752  1.5040  0.4581  1.7993
  132OSM   C17S14242   3.692  -0.662   7.696 -0.9900  0.3188  0.4311
  132OSM   H17S14243   3.717  -0.618   7.795  1.5175  1.3795 -0.5797
  132OSM   H17T14244   3.727  -0.577   7.633  1.0931 -0.9005 -0.1669
  132OSM   C18S14245   3.778  -0.781   7.654 -0.4208  0.4566  0.5761
  132OSM   H18S14246   3.795  -0.849   7.741  0.7925  1.5584  1.2410
  132OSM   H18T14247   3.868  -0.755   7.595 -0.5775 -0.7516 -0.2328
  132OSM   H18U14248   3.719  -0.844   7.583  0.3809 -1.4479  1.5117
  132OSM    C1F14249   2.742  -0.512   6.662  0.4328 -0.5359  0.3751
  132OSM     OF14250   2.746  -0.590   6.572  0.2214 -0.5000 -0.1640
  132OSM    C2F14251   2.652  -0.537   6.780  0.3627  0.1777  0.3541
  132OSM    H2F14252   2.656  -0.645   6.807 -3.1910 -0.3975 -0.9023
  132OSM    H2G14253   2.549  -0.508   6.752  0.4911 -0.3233 -0.7085
  132OSM    C3F14254   2.696  -0.449   6.899  0.0934  0.1599  0.1870
  132OSM    H3F14255   2.725  -0.345   6.872 -0.5648  0.7509  1.6463
  132OSM    H3G14256   2.788  -0.484   6.950 -0.4710  0.2489  1.2855
  132OSM    C4F14257   2.578  -0.440   6.992  0.3083 -0.7898 -0.6760
  132OSM    H4F14258   2.537  -0.538   7.025  0.9682 -1.2826 -1.2905
  132OSM    H4G14259   2.494  -0.403   6.931 -0.6836 -1.2074  0.3953
  132OSM    C5F14260   2.596  -0.346   7.118 -0.3907  0.7436  0.5191
  132OSM    H5F14261   2.511  -0.366   7.187  0.0749 -2.7336  0.2850
  132OSM    H5G14262   2.613  -0.245   7.077 -0.8774  0.1426 -1.2539
  132OSM    C6F14263   2.718  -0.383   7.210 -0.4542  0.5553  0.8887
  132OSM    H6F14264   2.810  -0.353   7.156  0.1107 -0.9654  0.9514
  132OSM    H6G14265   2.717  -0.490   7.240  1.3054 -0.1693 -1.3000
  132OSM    C7F14266   2.707  -0.300   7.347  0.7417 -0.1677 -0.1700
  132OSM    H7F14267   2.671  -0.198   7.324  0.8658  0.3942  1.9355
  132OSM    H7G14268   2.807  -0.301   7.397  0.4202 -3.0389  0.6060
  132OSM    C8F14269   2.615  -0.359   7.456 -0.6724 -0.1032 -0.2709
  132OSM    H8F14270   2.516  -0.368   7.407 -0.1748 -0.1228 -1.2821
  132OSM    H8G14271   2.604  -0.277   7.531  0.0115 -1.4401  1.3639
  132OSM    C9F14272   2.645  -0.483   7.524  0.5155 -0.2657  0.2306
  132OSM    H9F14273   2.590  -0.564   7.473 -0.9305  0.6737  0.2598
  132OSM   C10F14274   2.725  -0.507   7.631  0.7178 -0.4033  0.0295
  132OSM   H10F14275   2.734  -0.614   7.656 -0.2156 -0.3611  0.5873
  132OSM   C11F14276   2.809  -0.392   7.697 -0.6666  0.2851  0.1182
  132OSM   H11F14277   2.819  -0.303   7.631 -0.2278  0.3350  0.2501
  132OSM   H11G14278   2.911  -0.426   7.723 -0.6066  0.3726 -0.0011
  132OSM   C12F14279   2.732  -0.353   7.829  0.1941  0.3688  0.7365
  132OSM   H12F14280   2.635  -0.311   7.796  0.2689  1.1058  1.4344
  132OSM   H12G14281   2.784  -0.262   7.864  1.1855 -0.2947  1.0407
  132OSM   C13F14282   2.723  -0.445   7.949  0.2132  0.5956  0.2105
  132OSM   H13F14283   2.652  -0.528   7.933  0.0808  0.9551 -1.1889
  132OSM   H13G14284   2.673  -0.385   8.028 -2.9402  0.4326 -1.4757
  132OSM   C14F14285   2.858  -0.507   8.002 -0.4297  0.8657 -0.1051
  132OSM   H14F14286   2.915  -0.547   7.915 -1.1575 -0.8734  0.1806
  132OSM   H14G14287   2.830  -0.599   8.057  1.1974 -1.2033 -2.5224
  132OSM   C15F14288   2.951  -0.409   8.081 -0.1127 -0.2742  0.2762
  132OSM   H15F14289   2.891  -0.344   8.149 -0.5012 -0.9165  0.5498
  132OSM   H15G14290   3.010  -0.341   8.015  0.0780  0.6540  1.3741
  132OSM   C16F14291   3.050  -0.489   8.169 -0.5246 -0.2191 -0.3206
  132OSM   H16F14292   3.104  -0.573   8.120 -0.3598 -0.1422 -0.2691
  132OSM   H16G14293   2.994  -0.531   8.255 -0.0473 -0.8475 -0.3080
  132OSM   C17F14294   3.152  -0.387   8.231  0.4814 -0.4793  0.3225
  132OSM   H17F14295   3.197  -0.436   8.320  2.3454  0.1015 -0.2573
  132OSM   H17G14296   3.100  -0.293   8.261  2.1639 -0.1535  2.4223
  132OSM   C18F14297   3.269  -0.350   8.143 -0.3702 -0.9349  0.6244
  132OSM   H18F14298   3.350  -0.426   8.139  0.5680 -0.0269  1.3345
  132OSM   H18G14299   3.306  -0.248   8.171  0.1450 -0.9529  0.0353
  132OSM   H18H14300   3.232  -0.337   8.039  0.0842  2.0448  0.7289
  133SAPE     N14301   4.736   3.082  10.693 -0.3499 -0.6719  0.2987
  133SAPE   HN114302   4.785   3.171  10.717 -0.1752 -0.3024 -1.3438
  133SAPE   HN214303   4.636   3.104  10.680 -0.2951 -1.0392 -0.8286
  133SAPE   HN314304   4.751   3.020  10.775 -0.4669 -2.1755 -0.7817
  133SAPE   C1214305   4.786   3.016  10.569  0.0553 -0.7283 -0.3331
  133SAPE  H12A14306   4.796   3.102  10.498  1.0488  1.0502  1.8360
  133SAPE  H12B14307   4.708   2.947  10.530  0.0693 -0.8546 -0.1395
  133SAPE   C1114308   4.915   2.945  10.597  0.0604  0.5383  0.6085
  133SAPE  H11A14309   4.979   3.015  10.655  0.1549  1.3112 -0.3970
  133SAPE  H11B14310   4.956   2.931  10.494 -2.7229  0.6786 -0.6079
  133SAPE     P14311   5.027   2.723  10.671  0.3442 -0.0020  0.4788
  133SAPE   O1314312   5.145   2.792  10.714 -0.8650  0.1163  0.2341
  133SAPE   O1414313   4.995   2.610  10.765  0.2333  0.2954  0.1301
  133SAPE   O1214314   4.903   2.821  10.664  0.6595 -0.8214  0.4759
  133SAPE   O1114315   5.043   2.675  10.524  0.3960  0.7349  0.6913
  133SAPE    C114316   4.934   2.611  10.458  0.3273  0.4794  0.8049
  133SAPE    HA14317   4.939   2.501  10.475 -1.7761  0.2764  0.4269
  133SAPE    HB14318   4.831   2.646  10.481  1.0724  1.2450  3.2409
  133SAPE    C214319   4.947   2.622  10.309  0.0693 -0.0719  0.6718
  133SAPE    HS14320   5.053   2.601  10.282  0.1030  0.1038  0.6609
  133SAPE   O2114321   4.922   2.760  10.275  0.2315 -0.4590  0.6391
  133SAPE   C2114322   4.971   2.805  10.156  0.1233  0.1155 -0.3701
  133SAPE   O2214323   5.062   2.751  10.097  0.1820 -0.5205 -0.4550
  133SAPE   C2214324   4.921   2.938  10.130 -0.4512 -0.6264 -0.1084
  133SAPE   H2R14325   4.810   2.938  10.134 -0.4794 -0.0478 -0.6589
  133SAPE   H2S14326   4.959   3.012  10.204  3.0359  0.6566 -2.8399
  133SAPE    C314327   4.851   2.523  10.243  1.0764  0.3710  0.5991
  133SAPE    HX14328   4.748   2.556  10.269  0.2154 -1.1340 -0.7348
  133SAPE    HY14329   4.863   2.427  10.298  2.2846  0.4510  0.5002
  133SAPE   O3114330   4.873   2.513  10.101 -0.2911 -0.0821 -0.0005
  133SAPE   C3114331   4.975   2.434  10.069  0.4962  0.5307 -0.1660
  133SAPE   O3214332   5.048   2.374  10.147  0.2960  0.0663  0.0143
  133SAPE   C3214333   4.989   2.430   9.915  0.5815  0.5962  0.8157
  133SAPE   H2X14334   4.991   2.536   9.880  0.6666  1.1289  2.3493
  133SAPE   H2Y14335   4.902   2.378   9.872 -0.3877  0.9019  2.3204
  133SAPE   C2314336   4.967   2.978   9.993  0.4321 -0.6732 -0.0738
  133SAPE   H3R14337   4.933   2.922   9.904 -0.8286  0.6458 -0.4629
  133SAPE   H3S14338   5.078   2.977  10.002  0.3460 -3.4294  1.7359
  133SAPE   C2414339   4.925   3.128   9.955  0.1758 -0.4331  0.1506
  133SAPE   H4R14340   4.816   3.141   9.974  0.4702 -0.2139  1.7726
  133SAPE   H4S14341   4.942   3.135   9.845 -0.4508  1.7643  0.1346
  133SAPE   C2514342   5.004   3.217  10.044  0.6521  0.1279  0.0374
  133SAPE   H5R14343   4.981   3.219  10.152 -0.5800 -1.6124 -0.1414
  133SAPE   C2614344   5.103   3.300   9.998 -0.4025  0.5703 -0.7766
  133SAPE   H6R14345   5.152   3.363  10.073  0.5515 -0.5811 -0.3964
  133SAPE   C2714346   5.148   3.311   9.852  0.9135 -0.2909  0.2848
  133SAPE   H7R14347   5.115   3.226   9.790  1.8264  0.8824 -1.9263
  133SAPE   H7S14348   5.259   3.311   9.856  1.0147 -4.0630  0.3596
  133SAPE   C2814349   5.107   3.433   9.777 -0.0942  0.1346 -0.6235
  133SAPE   H8R14350   5.122   3.529   9.830 -1.4140  1.4330 -2.4466
  133SAPE   C2914351   5.055   3.449   9.653 -0.1379 -0.9762 -0.5319
  133SAPE   H9R14352   5.011   3.548   9.635  1.3783 -0.2383 -0.3764
  133SAPE  C21014353   5.012   3.343   9.550 -0.2562 -0.7289 -0.2317
  133SAPE  H10R14354   4.981   3.386   9.452  2.1099  0.3143 -0.5747
  133SAPE  H10S14355   4.926   3.283   9.588 -1.4436  0.5237 -0.8098
  133SAPE  C21114356   5.131   3.261   9.512  0.0494 -0.1274  0.5560
  133SAPE  H11R14357   5.231   3.289   9.551  1.3455  0.0619 -2.5956
  133SAPE  C21214358   5.123   3.158   9.426 -0.0152  0.3553 -0.4828
  133SAPE  H12R14359   5.216   3.102   9.406 -1.0185 -0.8145 -2.1490
  133SAPE  C21314360   4.998   3.108   9.358 -0.8037  0.8395 -0.0205
  133SAPE  H13R14361   4.909   3.174   9.361 -2.0341 -0.5530 -2.8240
  133SAPE  H13S14362   4.970   3.012   9.406  1.5618  1.1358  2.2273
  133SAPE  C21414363   5.051   3.065   9.220 -0.0747  0.0822  0.4091
  133SAPE  H14R14364   5.159   3.047   9.211 -0.3555 -1.4448 -0.1280
  133SAPE  C21514365   4.979   3.056   9.110  0.5228 -0.1863  0.5824
  133SAPE  H15R14366   5.031   3.034   9.016 -1.2210  0.0760 -0.4904
  133SAPE  C21614367   4.828   3.059   9.104  0.0413 -0.0685  0.0841
  133SAPE  H16R14368   4.816   3.160   9.060  1.5303 -0.9087 -2.4516
  133SAPE  H16S14369   4.784   3.073   9.206  1.3869 -3.3179  1.2380
  133SAPE  C21714370   4.772   2.958   9.008 -0.8275 -0.0807  0.0887
  133SAPE  H17R14371   4.807   2.960   8.902 -0.8378 -1.2790  0.0378
  133SAPE  H17S14372   4.666   2.988   8.992 -0.2492  1.0678 -2.0156
  133SAPE  C21814373   4.786   2.821   9.059 -0.1749 -0.1598  0.2665
  133SAPE  H18R14374   4.749   2.804   9.162  1.3078  2.4722  1.3486
  133SAPE  H18S14375   4.892   2.793   9.074  0.0288 -1.2821 -2.5868
  133SAPE  C21914376   4.746   2.715   8.956  0.1235  0.6443 -0.2292
  133SAPE  H19R14377   4.809   2.738   8.868  2.5037  0.6924  1.4034
  133SAPE  H19S14378   4.636   2.718   8.937 -0.0323 -1.1705  0.1937
  133SAPE  C22014379   4.781   2.572   9.008  0.8398  0.2250 -0.0504
  133SAPE  H20R14380   4.887   2.555   9.037  0.6877  0.2173  0.5323
  133SAPE  H20S14381   4.758   2.503   8.925 -0.9921 -0.2533  0.8025
  133SAPE  H20T14382   4.731   2.540   9.102  2.3580  0.2865  0.8120
  133SAPE   C3314383   5.119   2.363   9.868 -0.4537 -0.0189 -0.6786
  133SAPE   H3X14384   5.126   2.259   9.906 -0.5388  0.2082 -0.0363
  133SAPE   H3Y14385   5.205   2.427   9.897  0.7829 -2.2655  0.8872
  133SAPE   C3414386   5.116   2.368   9.716  0.2493  0.0423  0.8288
  133SAPE   H4X14387   5.110   2.474   9.684 -4.2052  0.3175  1.9122
  133SAPE   H4Y14388   5.025   2.313   9.683  0.1234  0.2360  0.8548
  133SAPE   C3514389   5.229   2.295   9.637 -1.0952  0.2901 -0.2994
  133SAPE   H5X14390   5.185   2.274   9.538  1.1174 -1.8263 -0.9296
  133SAPE   H5Y14391   5.252   2.193   9.675  1.7469 -0.0652 -2.6196
  133SAPE   C3614392   5.356   2.373   9.631 -0.1388 -0.0078  0.5043
  133SAPE   H6X14393   5.409   2.378   9.728 -0.5369  2.8203  0.6562
  133SAPE   H6Y14394   5.328   2.475   9.596 -0.6657 -0.1724  0.4320
  133SAPE   C3714395   5.457   2.319   9.524  0.0713 -0.7230 -0.0331
  133SAPE   H7X14396   5.413   2.261   9.441  1.0690 -2.0656  0.3379
  133SAPE   H7Y14397   5.523   2.242   9.570 -0.3332 -2.4913 -2.2434
  133SAPE   C3814398   5.544   2.442   9.487 -0.0832  0.5858  0.4162
  133SAPE   H8X14399   5.594   2.492   9.573  0.7009 -1.0209  0.9436
  133SAPE   H8Y14400   5.486   2.516   9.428  0.6117 -0.1633 -1.2720
  133SAPE   C3914401   5.659   2.401   9.391  0.0700 -0.7731 -0.2210
  133SAPE   H9X14402   5.608   2.341   9.312 -0.6562 -0.1148 -0.2617
  133SAPE   H9Y14403   5.725   2.333   9.449 -0.8331  0.1517  2.0124
  133SAPE  C31014404   5.748   2.512   9.336 -0.1020 -0.2647 -0.1474
  133SAPE  H10X14405   5.790   2.570   9.421  0.9612 -0.9650 -0.1805
  133SAPE  H10Y14406   5.690   2.576   9.266  1.1288 -0.3275 -1.2650
  133SAPE  C31114407   5.861   2.459   9.248 -0.7656  0.3877  0.4412
  133SAPE  H11X14408   5.897   2.370   9.305 -1.4014  0.2010  0.5613
  133SAPE  H11Y14409   5.949   2.526   9.248 -2.0990  2.3084 -2.1298
  133SAPE  C31214410   5.826   2.427   9.103 -0.4033 -0.0796  0.2254
  133SAPE  H12X14411   5.728   2.376   9.090 -0.1878  0.0999 -3.0397
  133SAPE  H12Y14412   5.909   2.359   9.073 -1.9184 -1.6377 -0.6147
  133SAPE  C31314413   5.831   2.553   9.014 -0.3044 -0.7762  0.2235
  133SAPE  H13X14414   5.772   2.636   9.057  2.1800  1.9613 -1.2297
  133SAPE  H13Y14415   5.786   2.524   8.917  1.4572 -3.2148  0.0286
  133SAPE  C31414416   5.973   2.606   8.972  1.2125 -0.4082 -0.5658
  133SAPE  H14X14417   6.010   2.527   8.903  0.5126 -1.3738  0.1365
  133SAPE  H14Y14418   6.030   2.606   9.067 -1.0762 -1.6362  0.9102
  133SAPE  C31514419   5.962   2.745   8.912 -0.5060 -0.0445  1.1804
  133SAPE  H15X14420   5.935   2.810   8.998 -0.5260  0.7587  0.5861
  133SAPE  H15Y14421   5.878   2.742   8.839 -0.5558  2.7982  1.0145
  133SAPE  C31614422   6.092   2.807   8.853  0.2665 -0.2214 -0.8022
  133SAPE  H16X14423   6.134   2.742   8.774  0.4861 -1.0414 -0.0318
  133SAPE  H16Y14424   6.172   2.809   8.930  0.1672 -1.8790 -0.6178
  133SAPE  C31714425   6.065   2.935   8.782  0.1905 -0.1436 -0.3848
  133SAPE  H17X14426   6.030   3.015   8.851  2.0913 -0.3537  0.8900
  133SAPE  H17Y14427   5.987   2.906   8.708 -0.6829  0.3454  0.3193
  133SAPE  C31814428   6.182   3.001   8.707 -0.2431 -0.6346  0.3248
  133SAPE  H18X14429   6.258   3.036   8.780 -0.1669  0.1805 -0.1392
  133SAPE  H18Y14430   6.157   3.096   8.655  0.5641  0.3772  1.7301
  133SAPE  H18Z14431   6.247   2.936   8.643  1.2991  0.5101  0.6752
  134SAPE     N14432   2.139   5.589  10.940  0.3545 -0.1231  0.6870
  134SAPE   HN114433   2.142   5.486  10.944 -0.7258 -0.1429  1.5137
  134SAPE   HN214434   2.231   5.630  10.915 -0.0276  0.5365  0.3248
  134SAPE   HN314435   2.106   5.625  11.032 -0.7817  0.2995  0.1348
  134SAPE   C1214436   2.037   5.638  10.836 -0.2398 -0.2008 -0.5194
  134SAPE  H12A14437   2.058   5.741  10.801 -1.0348 -0.0599 -0.6192
  134SAPE  H12B14438   1.942   5.641  10.894 -0.0345  0.3963 -0.2150
  134SAPE   C1114439   2.040   5.534  10.727  0.4319 -0.7449  0.8626
  134SAPE  H11A14440   2.136   5.547  10.673  0.1480 -0.2014  0.4849
  134SAPE  H11B14441   1.962   5.551  10.650  0.4434 -0.7831  0.8432
  134SAPE     P14442   1.917   5.323  10.841  0.1272  0.3182  0.2486
  134SAPE   O1314443   1.954   5.178  10.866 -0.7756 -0.0658  0.5562
  134SAPE   O1414444   1.870   5.400  10.957 -0.3286  0.3005 -0.1328
  134SAPE   O1214445   2.043   5.398  10.780 -0.7928  0.1304 -0.8103
  134SAPE   O1114446   1.820   5.329  10.711  0.1390 -0.2712 -0.0637
  134SAPE    C114447   1.820   5.227  10.614  0.6264  0.0236  1.1237
  134SAPE    HA14448   1.865   5.133  10.651 -0.3643 -0.4532  1.1562
  134SAPE    HB14449   1.718   5.190  10.593 -0.6845  1.8054  3.7430
  134SAPE    C214450   1.901   5.269  10.487  1.0777  0.2640 -0.5149
  134SAPE    HS14451   2.006   5.276  10.523  1.8324  3.2232 -2.9269
  134SAPE   O2114452   1.851   5.397  10.441  0.2224 -0.3135 -0.3590
  134SAPE   C2114453   1.944   5.489  10.401  0.1662  0.0656  0.7394
  134SAPE   O2214454   2.063   5.469  10.393  0.4157  0.3773 -0.4261
  134SAPE   C2214455   1.877   5.621  10.377  0.3737  0.1639  1.0509
  134SAPE   H2R14456   1.780   5.614  10.322  1.1723 -1.6547 -0.2128
  134SAPE   H2S14457   1.849   5.673  10.471 -3.2116  1.0865 -0.3345
  134SAPE    C314458   1.885   5.173  10.371  0.3957  0.4463  0.3176
  134SAPE    HX14459   1.775   5.178  10.356  0.4794  1.5721  0.0120
  134SAPE    HY14460   1.907   5.067  10.393  0.1146  0.5607  1.1930
  134SAPE   O3114461   1.948   5.212  10.248 -0.3279  0.2951 -0.4182
  134SAPE   C3114462   2.074   5.202  10.236 -0.6454 -0.6571  0.1016
  134SAPE   O3214463   2.159   5.169  10.323  0.2853  0.6424  0.4809
  134SAPE   C3214464   2.114   5.230  10.092 -0.1134 -0.7469  0.0102
  134SAPE   H2X14465   2.019   5.229  10.035 -0.6415 -0.0702  0.8435
  134SAPE   H2Y14466   2.180   5.147  10.058  0.3749  0.6586 -2.7891
  134SAPE   C2314467   1.968   5.715  10.301 -0.6442  0.1060 -0.0944
  134SAPE   H3R14468   1.999   5.662  10.209  1.5465  0.7672  0.2185
  134SAPE   H3S14469   2.061   5.720  10.361 -0.0912 -1.5593 -0.7486
  134SAPE   C2414470   1.911   5.856  10.275  0.3829 -0.1205 -0.2759
  134SAPE   H4R14471   1.868   5.899  10.368  2.2946  2.6041 -0.5191
  134SAPE   H4S14472   1.823   5.846  10.208  1.1928 -1.7233 -1.1315
  134SAPE   C2514473   2.019   5.936  10.214  0.1556  0.3853  0.4035
  134SAPE   H5R14474   2.099   5.972  10.280  1.2512 -1.5935  0.2290
  134SAPE   C2614475   2.039   5.968  10.088  0.8922 -0.2795  0.6984
  134SAPE   H6R14476   2.138   6.011  10.064  1.4584 -1.3755  0.9780
  134SAPE   C2714477   1.950   5.931   9.966  0.0800  0.0059 -0.3020
  134SAPE   H7R14478   1.935   6.019   9.899  1.1187  0.7744  0.4342
  134SAPE   H7S14479   1.842   5.916   9.989  0.1884  0.1932  0.3582
  134SAPE   C2814480   1.999   5.812   9.896  0.3880 -0.3443 -0.2559
  134SAPE   H8R14481   1.993   5.720   9.957 -1.0018 -0.6539 -0.7964
  134SAPE   C2914482   2.033   5.807   9.767 -0.6975  0.3839 -0.7681
  134SAPE   H9R14483   2.064   5.719   9.709  1.3210  0.9103 -0.5766
  134SAPE  C21014484   2.051   5.925   9.676 -0.2933 -0.4983 -0.2640
  134SAPE  H10R14485   2.131   5.897   9.605 -1.5994  1.4668 -2.6446
  134SAPE  H10S14486   2.080   6.020   9.725 -0.7926  0.6692 -2.1454
  134SAPE  C21114487   1.922   5.951   9.604 -0.8969  0.2035  0.5778
  134SAPE  H11R14488   1.848   6.017   9.651  0.3774  2.8776 -0.9150
  134SAPE  C21214489   1.885   5.909   9.480  0.3913  0.0191 -0.5728
  134SAPE  H12R14490   1.781   5.930   9.451 -0.1696 -0.0219  1.2233
  134SAPE  C21314491   1.965   5.819   9.393  0.6430 -0.3250  0.4644
  134SAPE  H13R14492   1.900   5.735   9.360 -0.8161  1.4658 -1.4664
  134SAPE  H13S14493   2.043   5.772   9.457 -1.7392 -2.5811  1.9467
  134SAPE  C21414494   2.026   5.886   9.269 -0.2974  0.3024  0.0319
  134SAPE  H14R14495   2.056   5.990   9.287  2.8203 -0.8653  2.4017
  134SAPE  C21514496   2.051   5.834   9.150 -0.1671  0.2145  1.0398
  134SAPE  H15R14497   2.102   5.895   9.074  1.2489 -2.3401 -0.2191
  134SAPE  C21614498   2.034   5.692   9.097  0.0268 -0.8687  0.2232
  134SAPE  H16R14499   1.992   5.632   9.181  0.6495 -0.7592  0.6196
  134SAPE  H16S14500   2.132   5.646   9.072 -0.0875  0.4086 -2.9955
  134SAPE  C21714501   1.951   5.664   8.980  0.7250  0.2478  0.2251
  134SAPE  H17R14502   1.841   5.677   8.991  0.6290 -0.8473  0.6394
  134SAPE  H17S14503   1.970   5.557   8.960  0.2502  0.4020 -1.1233
  134SAPE  C21814504   2.007   5.734   8.847  0.4774  0.7647  0.9319
  134SAPE  H18R14505   2.111   5.769   8.865  1.1855  1.2724 -3.1663
  134SAPE  H18S14506   1.939   5.820   8.834 -2.1284 -1.3009 -0.2104
  134SAPE  C21914507   2.006   5.639   8.729  0.1770 -0.3372 -0.2039
  134SAPE  H19R14508   1.910   5.583   8.728  1.5281 -2.8435 -1.4209
  134SAPE  H19S14509   2.090   5.566   8.728  0.4018 -0.0820 -1.3765
  134SAPE  C22014510   2.002   5.725   8.600 -0.7307  0.4158  0.3003
  134SAPE  H20R14511   2.096   5.783   8.602  0.6035 -1.6504  0.3609
  134SAPE  H20S14512   1.921   5.800   8.612 -0.5763  0.2455  2.8785
  134SAPE  H20T14513   1.987   5.668   8.506 -1.8518  0.9026  0.1656
  134SAPE   C3314514   2.177   5.371  10.086 -0.7153 -0.1793  0.6451
  134SAPE   H3X14515   2.280   5.374  10.127 -0.5462  0.4253  0.2119
  134SAPE   H3Y14516   2.111   5.450  10.128 -0.1791  1.0863 -0.7811
  134SAPE   C3414517   2.196   5.410   9.941 -1.2729 -0.1033  0.8902
  134SAPE   H4X14518   2.098   5.450   9.908 -0.0465  1.2753 -1.3117
  134SAPE   H4Y14519   2.218   5.315   9.886  0.5875 -0.0809  1.5327
  134SAPE   C3514520   2.292   5.509   9.888 -0.0003 -0.3398 -1.2132
  134SAPE   H5X14521   2.392   5.485   9.930  0.5321 -1.1110 -2.8607
  134SAPE   H5Y14522   2.266   5.604   9.940 -1.1573 -1.3646  0.1613
  134SAPE   C3614523   2.270   5.535   9.733 -0.7866 -0.2560  0.1491
  134SAPE   H6X14524   2.321   5.630   9.706 -1.9321 -0.1376 -1.7868
  134SAPE   H6Y14525   2.159   5.534   9.725 -1.0102 -5.0892  0.4665
  134SAPE   C3714526   2.313   5.418   9.646  0.6343 -0.4456  0.5531
  134SAPE   H7X14527   2.230   5.344   9.643 -2.2911  2.5826 -1.1755
  134SAPE   H7Y14528   2.407   5.376   9.687  1.5238  2.7152  2.1157
  134SAPE   C3814529   2.345   5.465   9.502 -0.0506  0.1897 -0.2149
  134SAPE   H8X14530   2.418   5.549   9.507  0.0409  0.1331 -0.5643
  134SAPE   H8Y14531   2.254   5.510   9.456  0.8644  0.0358 -2.2712
  134SAPE   C3914532   2.387   5.346   9.425  0.6938  0.5785  0.0271
  134SAPE   H9X14533   2.319   5.258   9.433  2.0816 -0.4449  1.1979
  134SAPE   H9Y14534   2.479   5.298   9.465  0.8610  0.5693 -0.3567
  134SAPE  C31014535   2.407   5.375   9.275 -0.4066 -0.2630  0.2679
  134SAPE  H10X14536   2.491   5.448   9.270 -0.0468 -0.6499  0.6605
  134SAPE  H10Y14537   2.315   5.415   9.229  0.8376 -0.8582 -3.0710
  134SAPE  C31114538   2.447   5.256   9.183 -0.3224  0.4651  0.5139
  134SAPE  H11X14539   2.369   5.179   9.171 -1.8029  1.6987  1.7981
  134SAPE  H11Y14540   2.532   5.203   9.232  0.7561  1.4600 -0.2020
  134SAPE  C31214541   2.496   5.295   9.045  0.0196  0.1479 -0.2751
  134SAPE  H12X14542   2.573   5.376   9.044  0.2741 -0.0888 -1.1115
  134SAPE  H12Y14543   2.416   5.329   8.976  0.7138 -0.2482 -1.3046
  134SAPE  C31314544   2.566   5.181   8.964 -0.9347 -0.5891 -0.1357
  134SAPE  H13X14545   2.487   5.104   8.954  0.7803 -2.6535  1.4329
  134SAPE  H13Y14546   2.649   5.133   9.019 -0.6819  0.9270  0.8724
  134SAPE  C31414547   2.611   5.236   8.828  0.3028 -0.0099 -0.0258
  134SAPE  H14X14548   2.544   5.310   8.778  1.5755  1.7388  0.7823
  134SAPE  H14Y14549   2.630   5.147   8.764  1.5250 -0.4384  0.9186
  134SAPE  C31514550   2.749   5.298   8.835  0.1982 -0.9575  0.1472
  134SAPE  H15X14551   2.819   5.222   8.877  1.7351  0.5636  0.4400
  134SAPE  H15Y14552   2.747   5.387   8.901 -3.0428 -1.0117  0.2443
  134SAPE  C31614553   2.807   5.334   8.699  0.4991  0.3966 -0.0058
  134SAPE  H16X14554   2.772   5.431   8.657 -0.4252 -1.0296 -2.7799
  134SAPE  H16Y14555   2.780   5.249   8.632 -1.8574 -2.1674  3.7847
  134SAPE  C31714556   2.962   5.350   8.699 -0.6882 -0.1431  0.1106
  134SAPE  H17X14557   3.000   5.249   8.725  0.9309  0.5940  0.7717
  134SAPE  H17Y14558   2.979   5.425   8.779  0.5607 -0.0452 -0.2208
  134SAPE  C31814559   3.020   5.387   8.561  0.1654 -0.3712  0.6061
  134SAPE  H18X14560   2.954   5.452   8.500 -1.8118 -1.9070  1.0089
  134SAPE  H18Y14561   3.045   5.299   8.498 -1.0720  0.9543 -1.9160
  134SAPE  H18Z14562   3.117   5.442   8.565  0.3892 -0.8031  1.3500
  135SAPE     N14563   0.473   3.338  10.672  0.1891  0.2569 -0.9062
  135SAPE   HN114564   0.503   3.249  10.627  0.8276 -1.1046  1.9777
  135SAPE   HN214565   0.556   3.398  10.694 -0.4155  0.6516  0.3889
  135SAPE   HN314566   0.420   3.322  10.760  0.7667  2.8966  0.0301
  135SAPE   C1214567   0.390   3.417  10.578  0.3660 -0.2564  0.5333
  135SAPE  H12A14568   0.343   3.503  10.630 -0.2821 -0.4993  0.3730
  135SAPE  H12B14569   0.312   3.344  10.545 -0.0011 -0.9681  2.7816
  135SAPE   C1114570   0.458   3.456  10.445  0.5418 -0.6126  0.0584
  135SAPE  H11A14571   0.399   3.540  10.404  2.1201  1.7045  2.2033
  135SAPE  H11B14572   0.456   3.362  10.386 -0.6163 -1.0062  0.6844
  135SAPE     P14573   0.703   3.436  10.379  0.3503  0.4128 -0.4190
  135SAPE   O1314574   0.832   3.509  10.382 -0.3682 -0.4088 -0.4493
  135SAPE   O1414575   0.700   3.291  10.412  0.7040 -0.1504 -0.4940
  135SAPE   O1214576   0.587   3.509  10.465  0.4192 -0.4194 -0.3390
  135SAPE   O1114577   0.636   3.461  10.235 -0.1989  0.2495  0.6204
  135SAPE    C114578   0.651   3.370  10.130 -0.2169  0.3013  0.0299
  135SAPE    HA14579   0.635   3.265  10.163  0.1199  1.0174  2.7269
  135SAPE    HB14580   0.568   3.397  10.062  0.6246 -1.0783 -1.5960
  135SAPE    C214581   0.787   3.391  10.068  0.8649  0.5388 -0.2315
  135SAPE    HS14582   0.867   3.370  10.143 -0.0870 -1.7582  0.2183
  135SAPE   O2114583   0.783   3.528  10.020 -0.0029 -0.6384 -0.5505
  135SAPE   C2114584   0.908   3.570   9.996  0.3862 -0.1182 -0.1336
  135SAPE   O2214585   1.010   3.507  10.032  0.1734 -0.0705  0.2508
  135SAPE   C2214586   0.902   3.702   9.906 -0.0345  0.4238  0.2391
  135SAPE   H2R14587   0.815   3.759   9.946 -2.0495 -3.2673  1.6540
  135SAPE   H2S14588   1.001   3.752   9.909  0.2454 -0.1643  2.4600
  135SAPE    C314589   0.813   3.291   9.946 -0.0258 -0.1946  0.2406
  135SAPE    HX14590   0.912   3.322   9.907 -0.1728 -1.3203 -1.0800
  135SAPE    HY14591   0.739   3.307   9.865 -2.5482  1.2241  2.6729
  135SAPE   O3114592   0.811   3.151   9.974 -0.2138  0.2013 -0.3186
  135SAPE   C3114593   0.923   3.091  10.012 -0.0828 -0.6481  0.4841
  135SAPE   O3214594   1.027   3.149  10.048  0.6655 -0.1970  0.9015
  135SAPE   C3214595   0.915   2.940  10.015 -0.7642  0.0351 -0.2520
  135SAPE   H2X14596   0.820   2.929  10.071  0.5176 -1.6507  1.7381
  135SAPE   H2Y14597   0.996   2.886  10.068 -1.2317 -1.6754 -1.2052
  135SAPE   C2314598   0.864   3.675   9.758 -0.4241 -0.2980 -0.1559
  135SAPE   H3R14599   0.820   3.766   9.712  1.5616  0.6407 -0.2958
  135SAPE   H3S14600   0.790   3.592   9.750  1.8191 -2.3731 -0.2924
  135SAPE   C2414601   0.988   3.643   9.672 -0.2945  0.2063  0.0646
  135SAPE   H4R14602   1.059   3.729   9.676 -0.2368  0.3028 -2.1879
  135SAPE   H4S14603   0.945   3.622   9.572  0.2513  0.3667 -0.2084
  135SAPE   C2514604   1.073   3.521   9.709  0.0765 -0.1767 -0.0967
  135SAPE   H5R14605   1.165   3.536   9.768  0.0329  0.2447 -0.1322
  135SAPE   C2614606   1.040   3.393   9.680  0.3468 -0.4863 -0.2709
  135SAPE   H6R14607   1.118   3.320   9.707  0.9738 -0.2457 -1.3678
  135SAPE   C2714608   0.931   3.337   9.592 -0.3209  0.0532  0.5496
  135SAPE   H7R14609   0.851   3.414   9.587 -0.9855 -0.6768 -0.4719
  135SAPE   H7S14610   0.882   3.250   9.640  0.4230 -1.5051 -1.3759
  135SAPE   C2814611   0.976   3.290   9.447  0.3193  0.1417  0.0341
  135SAPE   H8R14612   1.078   3.251   9.437  0.2009 -1.1653  2.8913
  135SAPE   C2914613   0.897   3.299   9.337 -0.0992 -0.0663  0.6891
  135SAPE   H9R14614   0.940   3.284   9.237  0.2983 -0.5812  0.9317
  135SAPE  C21014615   0.758   3.364   9.318  0.4344 -0.0927 -1.0124
  135SAPE  H10R14616   0.734   3.374   9.210  0.0334 -1.8100 -1.1103
  135SAPE  H10S14617   0.756   3.463   9.367  0.4895 -1.6896  2.5343
  135SAPE  C21114618   0.659   3.269   9.379  0.6195  0.5687 -0.2741
  135SAPE  H11R14619   0.677   3.160   9.384 -2.8909 -0.1083  1.3458
  135SAPE  C21214620   0.557   3.309   9.453 -0.4667  0.3425 -0.7689
  135SAPE  H12R14621   0.487   3.234   9.493 -0.7741  0.1750 -1.6032
  135SAPE  C21314622   0.526   3.450   9.505  0.3483 -0.1294  0.3204
  135SAPE  H13R14623   0.426   3.485   9.470 -1.0360 -0.1229  3.8926
  135SAPE  H13S14624   0.600   3.526   9.473  0.5731 -0.9465 -1.1816
  135SAPE  C21414625   0.545   3.454   9.653 -0.3459 -0.0465 -0.5518
  135SAPE  H14R14626   0.627   3.394   9.695 -0.1741  1.2855  1.1560
  135SAPE  C21514627   0.472   3.532   9.736 -0.2155  0.3833  0.4130
  135SAPE  H15R14628   0.509   3.535   9.839 -0.6961 -2.8921  0.7750
  135SAPE  C21614629   0.354   3.618   9.693 -0.5874  0.4210  0.4388
  135SAPE  H16R14630   0.354   3.644   9.585 -2.3070  0.3333  0.3825
  135SAPE  H16S14631   0.354   3.707   9.759  3.1240  0.1975  0.9435
  135SAPE  C21714632   0.223   3.538   9.709 -0.1158 -1.2120  0.0001
  135SAPE  H17R14633   0.230   3.484   9.806  2.1379  1.7176  1.6361
  135SAPE  H17S14634   0.205   3.467   9.626  0.4086 -0.9742 -0.3206
  135SAPE  C21814635   0.097   3.635   9.696 -1.0365  0.1331  0.2012
  135SAPE  H18R14636   0.024   3.566   9.648  0.5173  0.2074 -2.4535
  135SAPE  H18S14637   0.125   3.723   9.635  0.8222  0.3276  1.2493
  135SAPE  C21914638   0.049   3.713   9.817  0.4909  0.2227  0.2929
  135SAPE  H19R14639  -0.038   3.777   9.791  0.2523  0.0137  0.5582
  135SAPE  H19S14640   0.126   3.783   9.855 -0.4220  0.9154  0.9250
  135SAPE  C22014641   0.009   3.623   9.936 -0.0971  0.0728  0.3088
  135SAPE  H20R14642  -0.050   3.541   9.892  0.9188 -0.0871 -0.8076
  135SAPE  H20S14643  -0.048   3.676  10.015  0.1850  1.9149 -0.6682
  135SAPE  H20T14644   0.090   3.570   9.991 -0.6463 -0.3226  0.7402
  135SAPE   C3314645   0.892   2.883   9.877  0.1245  0.8511 -0.1592
  135SAPE   H3X14646   0.795   2.924   9.840 -2.1027 -0.4596  3.6545
  135SAPE   H3Y14647   0.875   2.773   9.880 -0.2764  0.9335  1.3506
  135SAPE   C3414648   1.015   2.899   9.780  0.1046 -1.0506  0.6067
  135SAPE   H4X14649   1.110   2.888   9.836  0.5535  2.8019  0.8556
  135SAPE   H4Y14650   1.020   3.004   9.745  0.5746 -0.9089  1.0805
  135SAPE   C3514651   1.004   2.807   9.652 -0.7813  0.1984 -0.8028
  135SAPE   H5X14652   0.911   2.838   9.600 -2.1827  0.2028  1.5389
  135SAPE   H5Y14653   0.994   2.701   9.684 -3.0475  0.2531 -1.1668
  135SAPE   C3614654   1.120   2.843   9.561  0.9124  0.0244 -0.1926
  135SAPE   H6X14655   1.222   2.825   9.600  0.0181 -2.0836  1.4065
  135SAPE   H6Y14656   1.099   2.950   9.541  0.2140  0.1100  0.9242
  135SAPE   C3714657   1.109   2.773   9.425 -0.0057  0.3763 -0.4075
  135SAPE   H7X14658   1.012   2.794   9.375 -1.2094  0.8174  2.0138
  135SAPE   H7Y14659   1.113   2.663   9.438  0.2562  0.3360 -0.7990
  135SAPE   C3814660   1.226   2.820   9.325 -0.3863 -0.0243 -0.2146
  135SAPE   H8X14661   1.321   2.852   9.374  1.3914 -1.7549 -2.2790
  135SAPE   H8Y14662   1.188   2.903   9.261  0.4054 -0.4171 -1.2275
  135SAPE   C3914663   1.284   2.713   9.239  0.0043 -0.7503 -0.0521
  135SAPE   H9X14664   1.200   2.666   9.183  0.1913 -0.3650 -0.6584
  135SAPE   H9Y14665   1.337   2.639   9.303  0.2427  0.3677  1.0679
  135SAPE  C31014666   1.378   2.781   9.135  0.0728  0.3078  0.2595
  135SAPE  H10X14667   1.469   2.819   9.186 -0.6485  1.7510  0.5320
  135SAPE  H10Y14668   1.319   2.862   9.088 -3.4925 -1.5077  1.2228
  135SAPE  C31114669   1.437   2.686   9.032 -0.4968 -0.3447  0.9086
  135SAPE  H11X14670   1.347   2.642   8.983  0.4897 -0.0566 -1.2976
  135SAPE  H11Y14671   1.489   2.606   9.088  1.4445  0.2345  0.0065
  135SAPE  C31214672   1.519   2.755   8.918  0.3428 -0.2052 -0.3120
  135SAPE  H12X14673   1.607   2.812   8.954 -0.9652  0.4810  2.0475
  135SAPE  H12Y14674   1.460   2.832   8.863  2.4139  0.9911 -0.9432
  135SAPE  C31314675   1.562   2.653   8.815 -0.1386 -0.3002 -0.2578
  135SAPE  H13X14676   1.481   2.580   8.796  1.0804 -1.3203 -1.7261
  135SAPE  H13Y14677   1.650   2.595   8.849 -0.5100 -0.4873  0.4034
  135SAPE  C31414678   1.577   2.725   8.681 -1.1242  0.1827 -0.3638
  135SAPE  H14X14679   1.654   2.806   8.684 -1.1194  0.2083 -1.0288
  135SAPE  H14Y14680   1.478   2.764   8.649 -0.5827  1.6382 -0.3832
  135SAPE  C31514681   1.639   2.639   8.570  0.4764  0.5047 -0.4077
  135SAPE  H15X14682   1.639   2.706   8.482  0.0737  1.3636  0.2284
  135SAPE  H15Y14683   1.578   2.549   8.546  1.1037 -0.4921  1.5342
  135SAPE  C31614684   1.785   2.603   8.594  0.3491 -0.4334 -0.2033
  135SAPE  H16X14685   1.780   2.532   8.680 -0.6737  1.1388  1.1113
  135SAPE  H16Y14686   1.842   2.697   8.614  2.5872 -1.7190 -0.2477
  135SAPE  C31714687   1.843   2.522   8.479 -0.0666 -0.4105 -0.4471
  135SAPE  H17X14688   1.944   2.489   8.512  0.8743  1.1568 -1.6468
  135SAPE  H17Y14689   1.863   2.602   8.404 -0.1728  0.1394  0.1093
  135SAPE  C31814690   1.761   2.409   8.428 -0.6081 -0.1263 -0.4849
  135SAPE  H18X14691   1.677   2.429   8.358 -0.0845 -1.8068 -1.6661
  135SAPE  H18Y14692   1.705   2.361   8.511  0.8006 -0.1527  0.4784
  135SAPE  H18Z14693   1.827   2.331   8.384 -2.1635 -2.7376  1.4852
  136SAPE     N14694   4.168   1.693  11.050  0.3534 -0.6205  0.3494
  136SAPE   HN114695   4.267   1.675  11.025 -0.6083 -1.1169 -3.8315
  136SAPE   HN214696   4.166   1.719  11.150 -0.6994 -1.1579  0.4864
  136SAPE   HN314697   4.122   1.599  11.048  0.2725 -0.5945  0.9134
  136SAPE   C1214698   4.117   1.798  10.956  0.5533 -0.1133 -0.7640
  136SAPE  H12A14699   4.168   1.893  10.986 -0.3306 -0.2853  1.4427
  136SAPE  H12B14700   4.007   1.802  10.964  0.6068  0.7500 -0.3263
  136SAPE   C1114701   4.162   1.766  10.815  0.7035  0.6781 -0.4073
  136SAPE  H11A14702   4.110   1.839  10.750 -1.1663  0.6192  0.9559
  136SAPE  H11B14703   4.135   1.662  10.787  1.5804 -0.4553  2.5724
  136SAPE     P14704   4.369   1.789  10.660 -0.2949 -0.3566 -0.1438
  136SAPE   O1314705   4.411   1.929  10.631  0.4144  0.0953 -0.0808
  136SAPE   O1414706   4.477   1.686  10.653  1.0372 -0.8186  0.5245
  136SAPE   O1214707   4.307   1.775  10.808 -0.4089 -0.4128 -0.4979
  136SAPE   O1114708   4.262   1.747  10.553  0.0557  0.5713  0.1808
  136SAPE    C114709   4.242   1.604  10.530  0.6353 -0.9810 -0.0962
  136SAPE    HA14710   4.266   1.542  10.620 -3.0909 -0.2278  1.6231
  136SAPE    HB14711   4.135   1.583  10.509  1.1191 -1.0406 -2.7379
  136SAPE    C214712   4.328   1.562  10.407  0.9469 -0.0475 -0.7557
  136SAPE    HS14713   4.437   1.574  10.429  1.4498  1.4334 -3.6092
  136SAPE   O2114714   4.292   1.637  10.291 -0.5734 -0.1581 -0.4898
  136SAPE   C2114715   4.394   1.638  10.202  0.0614 -0.2538  0.1320
  136SAPE   O2214716   4.512   1.626  10.230 -0.3143  0.2911  0.7089
  136SAPE   C2214717   4.335   1.662  10.063  0.0672 -1.4643  0.8387
  136SAPE   H2R14718   4.291   1.567  10.027 -2.1768 -0.4799  0.8478
  136SAPE   H2S14719   4.248   1.728  10.082 -0.0550 -1.4965  0.3858
  136SAPE    C314720   4.318   1.409  10.405  0.7270 -0.0421  0.1087
  136SAPE    HX14721   4.304   1.373  10.509 -1.7987 -0.0054 -0.1670
  136SAPE    HY14722   4.412   1.371  10.358 -0.4270 -1.9447 -0.8029
  136SAPE   O3114723   4.201   1.367  10.325  0.2711 -0.1135  0.3421
  136SAPE   C3114724   4.095   1.329  10.401  0.3947  0.3326 -0.3177
  136SAPE   O3214725   4.094   1.330  10.521  0.3380  0.0225  0.5532
  136SAPE   C3214726   3.982   1.278  10.302  0.2077 -0.2963  0.1628
  136SAPE   H2X14727   3.933   1.196  10.360  0.1554 -0.4362 -0.0800
  136SAPE   H2Y14728   4.027   1.223  10.217 -1.3151 -1.3590  0.0011
  136SAPE   C2314729   4.435   1.721   9.960 -0.5018  0.0587 -0.1987
  136SAPE   H3R14730   4.486   1.801  10.018 -2.5373  1.4972 -0.2396
  136SAPE   H3S14731   4.386   1.784   9.882  1.5162 -0.4995 -1.9919
  136SAPE   C2414732   4.532   1.623   9.885  0.1426  0.1715  0.5028
  136SAPE   H4R14733   4.468   1.573   9.809 -0.9347  4.4321 -1.7129
  136SAPE   H4S14734   4.572   1.544   9.953  1.4564  0.1408 -0.2827
  136SAPE   C2514735   4.636   1.707   9.819 -0.1357  0.3842  0.2494
  136SAPE   H5R14736   4.682   1.784   9.884 -0.6295 -0.9000  2.2030
  136SAPE   C2614737   4.691   1.697   9.694 -0.3668  0.3933 -0.0621
  136SAPE   H6R14738   4.774   1.767   9.673 -0.0417  0.6802  1.9802
  136SAPE   C2714739   4.655   1.597   9.590 -0.9633 -0.1682 -0.2593
  136SAPE   H7R14740   4.601   1.511   9.636 -0.5089 -0.1598  0.3027
  136SAPE   H7S14741   4.748   1.552   9.551  0.4101  1.4967  0.9387
  136SAPE   C2814742   4.576   1.658   9.479  0.3816  0.7214  0.0307
  136SAPE   H8R14743   4.488   1.711   9.519  0.4108  1.4991 -0.9099
  136SAPE   C2914744   4.594   1.660   9.345 -0.6433  0.0374 -0.3598
  136SAPE   H9R14745   4.518   1.710   9.284 -1.1828  0.8844  0.9493
  136SAPE  C21014746   4.699   1.582   9.275  0.0377  0.1818  0.1242
  136SAPE  H10R14747   4.684   1.476   9.306  0.0823 -0.1790 -1.0409
  136SAPE  H10S14748   4.794   1.615   9.321 -0.0524  0.1251  0.3497
  136SAPE  C21114749   4.697   1.608   9.130 -0.1633  0.1962  1.1380
  136SAPE  H11R14750   4.678   1.707   9.087  1.8300 -0.2801 -1.0948
  136SAPE  C21214751   4.712   1.511   9.035 -0.7278  0.9863 -0.5120
  136SAPE  H12R14752   4.704   1.522   8.926  1.0850 -1.1970 -0.9645
  136SAPE  C21314753   4.731   1.368   9.071 -1.3425  0.3914 -0.3161
  136SAPE  H13R14754   4.694   1.304   8.988 -1.2258  1.5456 -1.2856
  136SAPE  H13S14755   4.661   1.350   9.155 -0.9370 -2.0107 -0.4141
  136SAPE  C21414756   4.869   1.314   9.115 -0.3882 -0.7438  0.1746
  136SAPE  H14R14757   4.873   1.281   9.220  0.5244 -1.2788 -0.0175
  136SAPE  C21514758   4.991   1.313   9.056  0.1093 -0.0020  0.0974
  136SAPE  H15R14759   5.079   1.274   9.109  0.2190 -0.5976 -0.5060
  136SAPE  C21614760   5.026   1.353   8.913 -0.0553 -0.3662 -0.3377
  136SAPE  H16R14761   5.089   1.444   8.923  0.7350 -0.8254 -0.9553
  136SAPE  H16S14762   4.933   1.376   8.857  0.3706  2.1709 -0.1106
  136SAPE  C21714763   5.115   1.260   8.830 -0.2096 -0.1470  0.2636
  136SAPE  H17R14764   5.065   1.162   8.820  0.0369 -0.1249 -1.4989
  136SAPE  H17S14765   5.215   1.252   8.878  0.4287 -0.5359 -1.0800
  136SAPE  C21814766   5.133   1.312   8.686  0.3797  0.0441 -0.0872
  136SAPE  H18R14767   5.036   1.350   8.649  0.4148 -0.0733 -0.3019
  136SAPE  H18S14768   5.163   1.240   8.606 -0.6940 -0.0532 -0.4161
  136SAPE  C21914769   5.233   1.437   8.678 -0.7580  0.1916 -0.3719
  136SAPE  H19R14770   5.306   1.438   8.762 -1.7413  1.0521  0.4948
  136SAPE  H19S14771   5.176   1.530   8.697  0.5867  0.9719 -0.0213
  136SAPE  C22014772   5.280   1.459   8.535  0.0757 -0.4531 -0.0193
  136SAPE  H20R14773   5.210   1.504   8.461 -1.1174  1.7225  2.2879
  136SAPE  H20S14774   5.309   1.364   8.486  1.7893 -0.2458  0.5440
  136SAPE  H20T14775   5.366   1.529   8.532  1.2315 -1.7846  0.6148
  136SAPE   C3314776   3.886   1.391  10.255  0.1086 -0.5842 -0.1417
  136SAPE   H3X14777   3.870   1.468  10.333 -0.1074 -2.1002  1.3645
  136SAPE   H3Y14778   3.782   1.360  10.234 -0.8390  2.3778 -0.2492
  136SAPE   C3414779   3.939   1.458  10.126 -0.6520 -0.3694  0.3901
  136SAPE   H4X14780   4.033   1.511  10.150 -1.5348  2.0433 -1.0838
  136SAPE   H4Y14781   3.875   1.543  10.095 -0.0797 -0.8887 -2.4987
  136SAPE   C3514782   3.955   1.369   9.999  0.6345  0.0527  0.5014
  136SAPE   H5X14783   3.856   1.330   9.966  1.1925 -0.4932 -0.6075
  136SAPE   H5Y14784   4.021   1.281  10.020 -0.5411 -0.7215  1.0170
  136SAPE   C3614785   4.018   1.445   9.875 -0.3072 -0.1391  0.1305
  136SAPE   H6X14786   4.117   1.475   9.916  1.7414 -3.7143 -1.6519
  136SAPE   H6Y14787   3.962   1.533   9.835  0.2307 -0.0450 -0.4358
  136SAPE   C3714788   4.038   1.350   9.753  0.4716 -0.6568  0.3076
  136SAPE   H7X14789   3.956   1.283   9.717  0.3812 -0.6991  0.5896
  136SAPE   H7Y14790   4.117   1.274   9.771 -0.1496 -1.1921  0.8320
  136SAPE   C3814791   4.080   1.448   9.640  0.2120  0.1557 -0.2777
  136SAPE   H8X14792   4.147   1.525   9.683 -0.2942 -0.7619  2.3221
  136SAPE   H8Y14793   3.990   1.503   9.605 -0.2023 -0.5302 -0.3136
  136SAPE   C3914794   4.148   1.384   9.519 -0.4628  0.4954  0.1373
  136SAPE   H9X14795   4.074   1.325   9.460  1.0367 -1.7378  0.4122
  136SAPE   H9Y14796   4.215   1.304   9.556  0.7990  0.6329 -1.7468
  136SAPE  C31014797   4.236   1.474   9.436 -0.4257 -0.6473 -0.3470
  136SAPE  H10X14798   4.327   1.510   9.489 -0.3566  1.2220 -1.6279
  136SAPE  H10Y14799   4.178   1.564   9.405 -3.0672 -2.3994 -0.8817
  136SAPE  C31114800   4.297   1.422   9.297 -0.0592  0.3912 -0.0260
  136SAPE  H11X14801   4.346   1.324   9.318 -0.4505  0.3761  0.8627
  136SAPE  H11Y14802   4.374   1.496   9.270  0.6127  0.4023  1.7800
  136SAPE  C31214803   4.191   1.394   9.189  0.4393  0.7025 -0.5707
  136SAPE  H12X14804   4.112   1.323   9.221  1.8621 -0.4049  0.6298
  136SAPE  H12Y14805   4.245   1.338   9.109  0.0264 -0.2412 -0.2038
  136SAPE  C31314806   4.119   1.519   9.133  0.2271 -0.5396 -0.3587
  136SAPE  H13X14807   4.053   1.573   9.205  2.8617  0.1540  1.6948
  136SAPE  H13Y14808   4.055   1.479   9.052 -0.7118  0.5985 -0.2046
  136SAPE  C31414809   4.225   1.616   9.084 -0.1311 -0.5178 -1.0722
  136SAPE  H14X14810   4.291   1.563   9.012  0.9440  1.0401 -1.2981
  136SAPE  H14Y14811   4.285   1.648   9.172  0.5328 -0.2951 -1.5957
  136SAPE  C31514812   4.181   1.753   9.040  0.2113  0.6903  0.0427
  136SAPE  H15X14813   4.126   1.803   9.123 -1.9298 -1.4976  0.0295
  136SAPE  H15Y14814   4.107   1.754   8.957 -0.0327 -0.2338  0.2364
  136SAPE  C31614815   4.292   1.848   8.999 -0.4900 -0.5131  0.3811
  136SAPE  H16X14816   4.359   1.864   9.086  0.8770  2.6369 -1.1096
  136SAPE  H16Y14817   4.262   1.954   8.985 -2.4320 -0.9052  1.1945
  136SAPE  C31714818   4.381   1.805   8.877  0.2387 -0.4376  0.1327
  136SAPE  H17X14819   4.311   1.798   8.792  0.7233  2.8131 -0.6496
  136SAPE  H17Y14820   4.429   1.708   8.906 -0.2348 -0.2166  1.7703
  136SAPE  C31814821   4.498   1.905   8.845  0.1414 -0.6692  0.8458
  136SAPE  H18X14822   4.585   1.913   8.913 -0.3437 -0.2838  1.4310
  136SAPE  H18Y14823   4.450   2.004   8.829 -0.6046 -1.0642  0.5829
  136SAPE  H18Z14824   4.545   1.884   8.747  0.8464 -0.5671  1.1576
  137SAPE     N14825   0.503   0.483  10.888 -0.3601  0.1931 -0.4170
  137SAPE   HN114826   0.408   0.448  10.913  0.7583 -1.4065  2.0397
  137SAPE   HN214827   0.509   0.586  10.892  1.5837  0.2594 -2.6274
  137SAPE   HN314828   0.523   0.456  10.789  2.5066 -0.4341  0.2218
  137SAPE   C1214829   0.610   0.415  10.971 -0.2134 -0.5389  0.1945
  137SAPE  H12A14830   0.612   0.455  11.075 -0.8182 -2.0537  0.8114
  137SAPE  H12B14831   0.708   0.442  10.927 -1.3353  0.6266 -1.7595
  137SAPE   C1114832   0.607   0.261  10.980 -0.2364  0.3260 -0.1771
  137SAPE  H11A14833   0.662   0.228  11.070 -0.1657  2.5341  0.6561
  137SAPE  H11B14834   0.652   0.230  10.883  3.2697  3.1239  0.3704
  137SAPE     P14835   0.435   0.055  10.985  0.0259 -0.0166  0.0626
  137SAPE   O1314836   0.508  -0.010  11.098 -0.2844  0.1080  0.0121
  137SAPE   O1414837   0.292   0.029  10.967 -0.1673 -0.0862 -0.6783
  137SAPE   O1214838   0.470   0.216  10.989 -0.5473  0.5722  0.1687
  137SAPE   O1114839   0.518   0.013  10.861  0.0699  0.1026 -0.2998
  137SAPE    C114840   0.493   0.057  10.731 -0.6982  0.0507  0.7268
  137SAPE    HA14841   0.389   0.088  10.712 -0.3309  0.9136  0.0603
  137SAPE    HB14842   0.558   0.144  10.708 -0.1027 -0.4132  0.6173
  137SAPE    C214843   0.515  -0.060  10.628 -1.1089 -0.6334 -0.9162
  137SAPE    HS14844   0.436  -0.134  10.654 -2.3655  0.3232 -1.8773
  137SAPE   O2114845   0.651  -0.124  10.636  0.0067  0.1971 -0.4099
  137SAPE   C2114846   0.664  -0.254  10.597  0.3573  0.3763  0.5213
  137SAPE   O2214847   0.571  -0.330  10.575  0.2634 -0.3316  0.0407
  137SAPE   C2214848   0.810  -0.293  10.604  0.2545  0.2125 -0.0488
  137SAPE   H2R14849   0.875  -0.207  10.577 -0.7768  1.0794  0.2005
  137SAPE   H2S14850   0.835  -0.326  10.707 -1.6035 -0.6377  0.1809
  137SAPE    C314851   0.490  -0.011  10.483 -0.4552  0.1640  0.2273
  137SAPE    HX14852   0.582   0.047  10.460  0.4099 -2.0667 -2.6256
  137SAPE    HY14853   0.403   0.056  10.479  1.2417  2.4406 -1.2604
  137SAPE   O3114854   0.488  -0.104  10.377  0.1786  0.2250 -0.0085
  137SAPE   C3114855   0.363  -0.162  10.364 -0.2374 -0.9633 -0.7738
  137SAPE   O3214856   0.273  -0.130  10.441 -0.3348  0.4570  0.8295
  137SAPE   C3214857   0.351  -0.251  10.241  0.5168  0.4907 -0.9036
  137SAPE   H2X14858   0.288  -0.331  10.286  2.4535 -0.3556  0.4488
  137SAPE   H2Y14859   0.450  -0.291  10.210 -0.7798 -1.4469 -2.9199
  137SAPE   C2314860   0.838  -0.421  10.522 -0.2597  0.5235 -0.5024
  137SAPE   H3R14861   0.757  -0.496  10.532  0.4249 -0.0495  0.9913
  137SAPE   H3S14862   0.933  -0.472  10.551 -0.0553 -0.0784 -2.0909
  137SAPE   C2414863   0.850  -0.390  10.373  0.4953  1.6725 -0.1046
  137SAPE   H4R14864   0.944  -0.332  10.361  0.9288  1.0334  0.2051
  137SAPE   H4S14865   0.758  -0.341  10.333 -0.2755 -0.7274 -1.5361
  137SAPE   C2514866   0.868  -0.529  10.304  0.0301  0.3929  0.5534
  137SAPE   H5R14867   0.926  -0.602  10.363  2.1439 -0.0664 -1.8974
  137SAPE   C2614868   0.803  -0.573  10.196  0.6588  0.1790 -0.1523
  137SAPE   H6R14869   0.844  -0.660  10.143  1.7128 -0.5322  1.7189
  137SAPE   C2714870   0.707  -0.493  10.116  0.2058  0.6788 -0.3547
  137SAPE   H7R14871   0.756  -0.407  10.067 -0.4211 -0.2433 -2.7217
  137SAPE   H7S14872   0.623  -0.448  10.174 -0.8419 -0.5489 -0.8683
  137SAPE   C2814873   0.626  -0.569  10.014  0.4717  0.3025  0.4397
  137SAPE   H8R14874   0.542  -0.631  10.048 -0.9153  2.0229  0.2757
  137SAPE   C2914875   0.650  -0.570   9.880 -0.0507  0.2801  0.3344
  137SAPE   H9R14876   0.580  -0.626   9.817 -0.0401  1.2194 -0.5272
  137SAPE  C21014877   0.760  -0.495   9.810  0.5650  0.1499 -0.6147
  137SAPE  H10R14878   0.848  -0.471   9.874  0.3851  1.1765 -0.7291
  137SAPE  H10S14879   0.711  -0.399   9.783 -1.4758 -1.3286 -2.5829
  137SAPE  C21114880   0.812  -0.574   9.694 -0.5082 -0.9630  0.4747
  137SAPE  H11R14881   0.887  -0.649   9.721 -1.7399 -1.7780  1.7801
  137SAPE  C21214882   0.768  -0.569   9.569 -0.5154  0.4944  0.2385
  137SAPE  H12R14883   0.829  -0.629   9.501  1.2880  0.4247  1.8194
  137SAPE  C21314884   0.669  -0.478   9.506 -0.4385 -0.1723 -0.8398
  137SAPE  H13R14885   0.629  -0.394   9.568 -1.1016 -0.8275 -0.3566
  137SAPE  H13S14886   0.572  -0.532   9.498 -0.6185 -0.1151  0.6302
  137SAPE  C21414887   0.715  -0.418   9.366  0.1059  0.2073  0.2128
  137SAPE  H14R14888   0.780  -0.330   9.370  1.1440 -0.5670  1.3612
  137SAPE  C21514889   0.671  -0.471   9.253 -0.1599  0.3398 -0.0391
  137SAPE  H15R14890   0.710  -0.435   9.157 -0.6469 -1.6985 -1.0660
  137SAPE  C21614891   0.586  -0.591   9.235 -0.3385  0.3795 -0.3930
  137SAPE  H16R14892   0.539  -0.631   9.328  0.4643 -0.2257 -0.2339
  137SAPE  H16S14893   0.640  -0.679   9.193 -2.2762 -0.9443 -0.2499
  137SAPE  C21714894   0.475  -0.557   9.138  0.1766 -0.2036  0.6455
  137SAPE  H17R14895   0.420  -0.465   9.169  0.3295  0.3596 -0.6897
  137SAPE  H17S14896   0.400  -0.639   9.141  1.7810 -1.9282 -2.2430
  137SAPE  C21814897   0.524  -0.549   8.988  0.4201 -0.2018 -0.4063
  137SAPE  H18R14898   0.567  -0.649   8.965  0.0311  0.1520 -3.0263
  137SAPE  H18S14899   0.604  -0.475   8.969  0.5031 -0.1144  0.2561
  137SAPE  C21914900   0.405  -0.524   8.892 -0.3936  0.2048  0.2402
  137SAPE  H19R14901   0.398  -0.413   8.888 -0.2356  0.1886 -1.2827
  137SAPE  H19S14902   0.313  -0.564   8.939  0.5906 -2.2349  0.2408
  137SAPE  C22014903   0.422  -0.574   8.746  0.0549 -0.7803  0.2953
  137SAPE  H20R14904   0.495  -0.521   8.681  0.0256 -1.1716 -0.0590
  137SAPE  H20S14905   0.322  -0.564   8.700  0.6777  0.2331 -0.9264
  137SAPE  H20T14906   0.456  -0.679   8.759  0.0140 -1.0050 -1.2001
  137SAPE   C3314907   0.271  -0.188  10.122 -0.0735  0.6082  0.2001
  137SAPE   H3X14908   0.330  -0.107  10.074 -0.7829  0.0751 -1.6781
  137SAPE   H3Y14909   0.174  -0.158  10.167 -0.7929 -1.7698  0.3736
  137SAPE   C3414910   0.230  -0.276  10.001 -0.0201  0.6290 -0.5944
  137SAPE   H4X14911   0.162  -0.222   9.932  0.1432  0.4015 -0.9377
  137SAPE   H4Y14912   0.166  -0.350  10.054 -0.8971  2.4443  1.0039
  137SAPE   C3514913   0.349  -0.338   9.930  0.6423  0.4342  0.3427
  137SAPE   H5X14914   0.302  -0.424   9.877  1.5511 -0.3807  0.8140
  137SAPE   H5Y14915   0.410  -0.393  10.005  0.4198  0.5223  0.5893
  137SAPE   C3614916   0.427  -0.243   9.835  0.0376  0.5057  0.1102
  137SAPE   H6X14917   0.507  -0.305   9.788  0.3324  0.5003  0.6166
  137SAPE   H6Y14918   0.483  -0.163   9.889 -1.5304  0.4384  1.9048
  137SAPE   C3714919   0.348  -0.177   9.716  0.5936  0.7974 -0.6021
  137SAPE   H7X14920   0.413  -0.103   9.665  1.3158 -0.1678 -1.1106
  137SAPE   H7Y14921   0.259  -0.122   9.754  1.7240  1.9535  0.4678
  137SAPE   C3814922   0.314  -0.281   9.608 -0.1846 -0.5419 -0.4895
  137SAPE   H8X14923   0.255  -0.350   9.673  0.6953 -0.2673  0.6485
  137SAPE   H8Y14924   0.404  -0.335   9.571 -0.8476 -1.0942 -1.3135
  137SAPE   C3914925   0.245  -0.239   9.478  1.1563 -0.1711  0.2637
  137SAPE   H9X14926   0.188  -0.146   9.499  2.6562  0.8270  0.0713
  137SAPE   H9Y14927   0.185  -0.322   9.436 -0.3840  0.5769  0.9351
  137SAPE  C31014928   0.343  -0.192   9.369 -0.1816  0.7042 -0.1485
  137SAPE  H10X14929   0.389  -0.283   9.325 -1.1019 -0.6534  1.5626
  137SAPE  H10Y14930   0.429  -0.131   9.405 -0.8631  1.5187  0.1307
  137SAPE  C31114931   0.275  -0.111   9.255 -0.3264  0.8955  0.3409
  137SAPE  H11X14932   0.358  -0.085   9.186  0.0028  2.6869  1.3385
  137SAPE  H11Y14933   0.244  -0.007   9.282 -1.4953  0.6368  0.0499
  137SAPE  C31214934   0.166  -0.179   9.169  1.1175  0.0177 -0.0709
  137SAPE  H12X14935   0.070  -0.184   9.224  1.7832 -0.4435  1.0873
  137SAPE  H12Y14936   0.184  -0.288   9.155  0.1851 -0.0986 -0.4893
  137SAPE  C31314937   0.157  -0.102   9.039 -0.3784  0.1938  0.0758
  137SAPE  H13X14938   0.183   0.006   9.045 -0.1054  0.2845 -1.9249
  137SAPE  H13Y14939   0.054  -0.104   8.996  0.2309 -0.8861 -1.4357
  137SAPE  C31414940   0.256  -0.161   8.935  0.0807  0.1168  0.1489
  137SAPE  H14X14941   0.239  -0.269   8.953 -1.6080  0.7165  2.7553
  137SAPE  H14Y14942   0.354  -0.139   8.982 -0.3388  2.3273  0.0721
  137SAPE  C31514943   0.237  -0.143   8.780 -0.0690 -0.3792 -0.8108
  137SAPE  H15X14944   0.205  -0.038   8.762 -0.5529 -0.3944 -0.0829
  137SAPE  H15Y14945   0.153  -0.206   8.744  0.1150 -0.7417 -0.6074
  137SAPE  C31614946   0.364  -0.161   8.702 -0.0996 -0.2408  0.5877
  137SAPE  H16X14947   0.380  -0.271   8.697 -2.0063 -0.4815 -2.1902
  137SAPE  H16Y14948   0.443  -0.107   8.760  0.4407 -1.3040  0.8714
  137SAPE  C31714949   0.366  -0.113   8.556  0.6414  0.3490  0.2070
  137SAPE  H17X14950   0.294  -0.029   8.541  1.2703  0.8853  0.1462
  137SAPE  H17Y14951   0.330  -0.197   8.493 -1.0572 -0.0278  1.6007
  137SAPE  C31814952   0.502  -0.053   8.516 -1.0987  0.2455 -0.0011
  137SAPE  H18X14953   0.521   0.035   8.582 -0.6008  0.5547 -0.5419
  137SAPE  H18Y14954   0.505  -0.010   8.413  0.1227 -1.3175 -0.6526
  137SAPE  H18Z14955   0.585  -0.125   8.532 -0.1369  1.2039 -0.5085
  138SAPE     N14956   5.574   6.144  10.637  0.5704 -0.1768  0.1592
  138SAPE   HN114957   5.671   6.168  10.609  0.9073 -1.3263  0.2888
  138SAPE   HN214958   5.536   6.090  10.557  1.9714  0.2518 -0.8433
  138SAPE   HN314959   5.527   6.237  10.636  1.3425  0.2175 -0.7771
  138SAPE   C1214960   5.571   6.095  10.775 -0.2745 -0.4199 -0.0595
  138SAPE  H12A14961   5.635   6.150  10.846 -0.8841  0.8773 -0.4703
  138SAPE  H12B14962   5.610   5.991  10.776 -1.0034 -0.6996  0.5444
  138SAPE   C1114963   5.421   6.099  10.827 -0.5206  0.5238 -0.2351
  138SAPE  H11A14964   5.397   6.207  10.826 -1.3903  0.3936  1.7221
  138SAPE  H11B14965   5.415   6.077  10.936  0.5694 -2.3748 -0.6503
  138SAPE     P14966   5.202   5.948  10.806 -0.3216  0.2322 -0.2170
  138SAPE   O1314967   5.235   5.803  10.808  0.3051 -0.1726 -0.6049
  138SAPE   O1414968   5.168   6.015  10.933  0.8315  0.1694 -0.3555
  138SAPE   O1214969   5.326   6.022  10.746  0.4527 -0.1678  0.4316
  138SAPE   O1114970   5.084   5.969  10.701 -0.4997  0.4849  0.2337
  138SAPE    C114971   5.106   6.023  10.566 -0.6972 -0.6341 -0.8377
  138SAPE    HA14972   5.201   5.985  10.523 -1.0048 -1.0118 -1.1851
  138SAPE    HB14973   5.031   5.989  10.491 -1.5248  3.0416 -1.8702
  138SAPE    C214974   5.108   6.177  10.562  0.4307  0.5486  0.7177
  138SAPE    HS14975   5.155   6.218  10.655  1.9130 -1.7911  1.0963
  138SAPE   O2114976   4.969   6.224  10.550  0.4101 -0.8143  0.5637
  138SAPE   C2114977   4.961   6.351  10.595 -0.1527 -0.0821  0.2749
  138SAPE   O2214978   5.057   6.418  10.632 -0.1410  0.3162  0.0481
  138SAPE   C2214979   4.821   6.399  10.593 -0.0424  0.5431 -0.3436
  138SAPE   H2R14980   4.800   6.416  10.485  1.2492 -2.5479 -1.1915
  138SAPE   H2S14981   4.764   6.313  10.634 -0.1035  0.2379 -1.0628
  138SAPE    C314982   5.184   6.213  10.436  0.3269 -0.0923  0.0557
  138SAPE    HX14983   5.287   6.180  10.460  0.2911  0.5727  1.2078
  138SAPE    HY14984   5.190   6.324  10.427 -1.6181 -0.0285 -1.1343
  138SAPE   O3114985   5.121   6.159  10.317  0.6665  0.4234  0.3394
  138SAPE   C3114986   5.186   6.199  10.209 -0.1549 -0.2296 -0.1289
  138SAPE   O3214987   5.288   6.266  10.205  0.4409  0.1158  0.9027
  138SAPE   C3214988   5.106   6.152  10.095  0.0623  0.4019 -0.3219
  138SAPE   H2X14989   5.012   6.210  10.085 -0.6415 -0.9260 -2.0152
  138SAPE   H2Y14990   5.085   6.045  10.117 -0.0438  0.3321 -0.7412
  138SAPE   C2314991   4.784   6.529  10.671 -0.2783 -0.2162 -1.0176
  138SAPE   H3R14992   4.832   6.527  10.771 -1.2382  0.6576 -0.5258
  138SAPE   H3S14993   4.674   6.533  10.684 -0.0408  4.2141  1.7766
  138SAPE   C2414994   4.830   6.663  10.600 -0.0864 -0.2565  0.6410
  138SAPE   H4R14995   4.940   6.655  10.598  0.1111  2.0009 -1.0735
  138SAPE   H4S14996   4.810   6.747  10.670 -1.1008 -0.6458  0.8445
  138SAPE   C2514997   4.760   6.691  10.467 -0.2806  0.2693  0.2681
  138SAPE   H5R14998   4.655   6.720  10.482  0.3161  2.6679  0.3028
  138SAPE   C2614999   4.817   6.667  10.345  0.1074  0.4507 -0.1555
  138SAPE   H6R15000   4.750   6.695  10.263 -1.7484  2.5111  1.9551
  138SAPE   C2715001   4.957   6.619  10.313 -0.4475  0.1702 -0.0949
  138SAPE   H7R15002   5.009   6.569  10.398 -0.8929 -0.1548 -0.0086
  138SAPE   H7S15003   5.023   6.706  10.294  0.3387 -0.1532  1.0644
  138SAPE   C2815004   4.959   6.516  10.204  0.0211 -0.3263 -0.1062
  138SAPE   H8R15005   4.868   6.456  10.191  0.9646 -1.7049 -0.5816
  138SAPE   C2915006   5.051   6.508  10.105 -0.3523  0.1822 -0.1008
  138SAPE   H9R15007   5.049   6.429  10.029  1.5892  0.0599 -0.0637
  138SAPE  C21015008   5.169   6.593  10.088  0.2959  0.1430 -0.2429
  138SAPE  H10R15009   5.240   6.526  10.034  0.3720 -0.3290  0.4314
  138SAPE  H10S15010   5.213   6.615  10.187  2.3982 -0.8224 -0.8797
  138SAPE  C21115011   5.129   6.715  10.010 -0.9274 -0.4186 -0.2620
  138SAPE  H11R15012   5.079   6.790  10.073  1.8810 -0.0530  1.6803
  138SAPE  C21215013   5.129   6.726   9.877 -0.5534  0.5512  0.0446
  138SAPE  H12R15014   5.095   6.815   9.822 -1.8230  0.1391  0.1236
  138SAPE  C21315015   5.169   6.621   9.776  0.2786  0.0464  0.3324
  138SAPE  H13R15016   5.074   6.602   9.720 -0.4509  1.4693  1.0352
  138SAPE  H13S15017   5.192   6.520   9.816  2.4621  0.3070 -0.1361
  138SAPE  C21415018   5.279   6.654   9.681 -0.0822 -0.4208  0.1381
  138SAPE  H14R15019   5.379   6.659   9.726  0.2515  1.5270 -0.6835
  138SAPE  C21515020   5.264   6.682   9.551 -0.2393 -0.3145  0.5413
  138SAPE  H15R15021   5.352   6.718   9.495  0.5083 -1.2164  1.0876
  138SAPE  C21615022   5.139   6.685   9.475 -0.0029  0.2911  0.1533
  138SAPE  H16R15023   5.090   6.783   9.492 -1.2459 -0.8409  4.1519
  138SAPE  H16S15024   5.083   6.595   9.507  1.3048 -0.5543  0.0970
  138SAPE  C21715025   5.160   6.677   9.326  0.7924 -0.3388  0.5699
  138SAPE  H17R15026   5.061   6.678   9.276  1.4909  1.3079 -0.8937
  138SAPE  H17S15027   5.212   6.583   9.298 -1.1617 -0.8707 -1.5381
  138SAPE  C21815028   5.218   6.797   9.248  0.2106 -1.2192 -0.0946
  138SAPE  H18R15029   5.319   6.815   9.291  0.4649 -0.6724 -0.8931
  138SAPE  H18S15030   5.160   6.892   9.255  2.0304 -0.1566  1.2575
  138SAPE  C21915031   5.243   6.777   9.098 -0.3302 -0.5468  0.3200
  138SAPE  H19R15032   5.151   6.734   9.054 -0.7015 -1.1845  1.6556
  138SAPE  H19S15033   5.327   6.707   9.080 -0.4358 -0.8626  1.0187
  138SAPE  C22015034   5.298   6.909   9.028 -0.4659  0.4749  0.0033
  138SAPE  H20R15035   5.318   6.878   8.923 -0.4521  2.0277 -0.4746
  138SAPE  H20S15036   5.398   6.931   9.071  0.0578 -0.4315 -0.7092
  138SAPE  H20T15037   5.224   6.992   9.033  0.4447  1.3885 -1.2497
  138SAPE   C3315038   5.187   6.155   9.964  0.3195  0.0030  0.6455
  138SAPE   H3X15039   5.243   6.059   9.953  0.9899 -0.2378  4.6855
  138SAPE   H3Y15040   5.260   6.239   9.964 -0.0754  0.3488  0.2564
  138SAPE   C3415041   5.101   6.195   9.845  0.6992 -0.6176  0.3013
  138SAPE   H4X15042   5.048   6.292   9.858  0.4094  0.0537 -4.2145
  138SAPE   H4Y15043   5.025   6.117   9.823 -2.0123  2.0030 -0.2899
  138SAPE   C3515044   5.182   6.202   9.719 -0.2137 -1.0223  0.4646
  138SAPE   H5X15045   5.222   6.098   9.723 -1.0409 -1.4205 -0.8929
  138SAPE   H5Y15046   5.261   6.280   9.723 -0.5157 -0.6000 -1.1821
  138SAPE   C3615047   5.083   6.219   9.605  0.9384 -0.1383 -0.7787
  138SAPE   H6X15048   5.022   6.310   9.624 -0.9542 -1.8212  1.7508
  138SAPE   H6Y15049   5.011   6.135   9.615  1.0959 -0.0535  1.4182
  138SAPE   C3715050   5.146   6.234   9.472 -0.1897 -1.0890  0.4369
  138SAPE   H7X15051   5.203   6.143   9.443 -1.0341 -1.4075 -0.2716
  138SAPE   H7Y15052   5.214   6.321   9.462 -4.6541  2.9823  1.5434
  138SAPE   C3815053   5.045   6.258   9.363  0.1237 -0.0394  0.7832
  138SAPE   H8X15054   4.999   6.356   9.384  0.1242 -0.1335  1.2316
  138SAPE   H8Y15055   4.972   6.174   9.364  0.0099  0.0479  0.0604
  138SAPE   C3915056   5.105   6.254   9.222 -0.3278  0.1431 -0.3578
  138SAPE   H9X15057   5.153   6.155   9.208 -2.7985 -1.7747  3.0684
  138SAPE   H9Y15058   5.179   6.336   9.230 -0.4251  0.1723  0.2619
  138SAPE  C31015059   5.005   6.276   9.110 -0.8652 -0.2964  0.2286
  138SAPE  H10X15060   4.955   6.372   9.135  0.6008  0.8458 -1.0336
  138SAPE  H10Y15061   4.932   6.192   9.113 -0.7659 -0.4742 -1.3839
  138SAPE  C31115062   5.075   6.280   8.967  0.6143 -0.2829 -0.1724
  138SAPE  H11X15063   4.992   6.257   8.897  1.8134 -1.1336 -1.3930
  138SAPE  H11Y15064   5.143   6.193   8.955  1.9657  0.9458 -1.9302
  138SAPE  C31215065   5.133   6.414   8.929 -0.7220 -0.2351 -0.2488
  138SAPE  H12X15066   5.223   6.434   8.992  0.2025 -0.2939 -1.5168
  138SAPE  H12Y15067   5.058   6.489   8.963 -1.0344  0.0004 -1.4258
  138SAPE  C31315068   5.166   6.437   8.786  0.7357 -0.4497 -0.3264
  138SAPE  H13X15069   5.076   6.414   8.724 -0.3509  0.6943  0.7706
  138SAPE  H13Y15070   5.249   6.366   8.763  1.2295  0.2486 -0.7218
  138SAPE  C31415071   5.207   6.581   8.754  0.3164  0.0004 -0.1803
  138SAPE  H14X15072   5.305   6.612   8.797 -0.0998 -0.4569  1.1348
  138SAPE  H14Y15073   5.134   6.660   8.781 -0.7692  0.1253 -3.1540
  138SAPE  C31515074   5.228   6.590   8.600 -0.3813 -0.3599  0.0196
  138SAPE  H15X15075   5.125   6.590   8.558 -1.1279 -0.2036  1.7360
  138SAPE  H15Y15076   5.293   6.509   8.562  1.1162  1.5467 -1.7263
  138SAPE  C31615077   5.299   6.728   8.563 -0.3153 -0.2942  0.3072
  138SAPE  H16X15078   5.407   6.714   8.586 -0.1142  0.7859  0.0733
  138SAPE  H16Y15079   5.261   6.807   8.632  0.3310  0.5756 -0.3037
  138SAPE  C31715080   5.274   6.756   8.417  0.0521  0.3498  0.5024
  138SAPE  H17X15081   5.170   6.794   8.406 -0.8930 -2.1250  0.2532
  138SAPE  H17Y15082   5.291   6.662   8.361  3.3952  0.5236  0.9970
  138SAPE  C31815083   5.375   6.863   8.363 -0.5565  0.1767  0.2316
  138SAPE  H18X15084   5.479   6.842   8.397 -0.5301  1.6846  1.1903
  138SAPE  H18Y15085   5.349   6.960   8.410  1.4972  0.3699  1.0636
  138SAPE  H18Z15086   5.368   6.860   8.252  2.0458 -1.4651  0.0208
  139SAPE     N15087   5.400   2.818  10.721  0.1288  0.2281  0.0842
  139SAPE   HN115088   5.445   2.740  10.670  3.0742  1.8418 -0.0019
  139SAPE   HN215089   5.434   2.809  10.819  0.5586  0.3220 -0.0530
  139SAPE   HN315090   5.296   2.808  10.716  0.4049 -2.6738 -2.0463
  139SAPE   C1215091   5.467   2.934  10.657  0.4601 -0.4137 -0.5571
  139SAPE  H12A15092   5.514   3.004  10.729 -0.4090  0.9580 -1.2677
  139SAPE  H12B15093   5.394   2.989  10.593  0.5370  1.9754  1.2663
  139SAPE   C1115094   5.585   2.885  10.567  0.0427 -0.1463  0.2079
  139SAPE  H11A15095   5.617   2.981  10.521  2.3566 -1.4723 -1.1467
  139SAPE  H11B15096   5.557   2.818  10.483  2.1863 -0.7911 -0.0615
  139SAPE     P15097   5.812   2.890  10.707  0.6338 -0.0112 -0.2893
  139SAPE   O1315098   5.809   3.031  10.667  0.2933  0.1859  0.0579
  139SAPE   O1415099   5.806   2.861  10.853 -0.0019 -0.0578  0.1002
  139SAPE   O1215100   5.687   2.816  10.638 -0.4624  0.1629 -0.5772
  139SAPE   O1115101   5.929   2.821  10.622 -0.3973 -0.3645 -0.0538
  139SAPE    C115102   6.008   2.891  10.527 -0.6632  0.5385  0.5770
  139SAPE    HA15103   6.046   2.985  10.572  1.8498  0.1908 -0.6507
  139SAPE    HB15104   6.098   2.830  10.505 -1.0653  0.0671  0.2312
  139SAPE    C215105   5.934   2.928  10.395  0.2442  0.1251  0.5774
  139SAPE    HS15106   5.838   2.970  10.433  0.4158 -1.3259  2.7819
  139SAPE   O2115107   5.933   2.808  10.307  0.2703  0.3330 -0.3712
  139SAPE   C2115108   5.817   2.795  10.236  0.1374 -0.2897 -0.5251
  139SAPE   O2215109   5.727   2.878  10.247  0.0954  0.0176 -0.1823
  139SAPE   C2215110   5.823   2.678  10.142  0.0042 -0.0228  0.0980
  139SAPE   H2R15111   5.929   2.644  10.145  0.4666  1.3516 -0.1278
  139SAPE   H2S15112   5.755   2.602  10.187  0.6976 -0.1914  0.8944
  139SAPE    C315113   6.005   3.043  10.323 -0.1432 -0.1096  0.3445
  139SAPE    HX15114   6.113   3.020  10.313 -0.3779 -0.8357 -0.7249
  139SAPE    HY15115   5.986   3.138  10.377  2.3579  1.1191 -0.8194
  139SAPE   O3115116   5.958   3.051  10.183 -0.0367 -0.2610  0.5254
  139SAPE   C3115117   5.858   3.136  10.169  0.2883  0.2598  0.3859
  139SAPE   O3215118   5.815   3.221  10.247 -0.2454  0.5941  0.6846
  139SAPE   C3215119   5.792   3.113  10.029  0.0337  0.1655  1.0036
  139SAPE   H2X15120   5.695   3.167  10.026  0.9909  1.9262 -0.7623
  139SAPE   H2Y15121   5.783   3.003  10.013  1.3099  0.2037 -0.2083
  139SAPE   C2315122   5.801   2.714   9.992 -0.6234  0.4240  0.3343
  139SAPE   H3R15123   5.855   2.807   9.965  0.7927 -0.9136 -1.8157
  139SAPE   H3S15124   5.693   2.736   9.979 -1.2782 -2.2951  0.5500
  139SAPE   C2415125   5.851   2.616   9.883 -0.6451 -0.1917  0.3921
  139SAPE   H4R15126   5.953   2.602   9.924 -0.3078  0.1516 -0.3071
  139SAPE   H4S15127   5.863   2.661   9.782 -0.7796 -1.7204 -0.3360
  139SAPE   C2515128   5.763   2.489   9.887 -0.5677 -0.3559  0.7981
  139SAPE   H5R15129   5.661   2.506   9.849  0.7194  2.4268 -1.9312
  139SAPE   C2615130   5.815   2.366   9.925 -0.1313  0.4180 -0.1834
  139SAPE   H6R15131   5.748   2.282   9.948  0.9603  0.3063  3.0891
  139SAPE   C2715132   5.961   2.344   9.970 -0.2912  0.2694  0.1548
  139SAPE   H7R15133   5.967   2.351  10.081  0.0788  0.4917  0.1207
  139SAPE   H7S15134   6.038   2.407   9.922  0.1676  2.2904  3.3127
  139SAPE   C2815135   6.003   2.206   9.935  0.2048 -0.2639  0.1924
  139SAPE   H8R15136   6.012   2.131  10.014 -1.5965 -0.7120  0.0243
  139SAPE   C2915137   6.048   2.164   9.816 -0.0156  0.3109 -0.0117
  139SAPE   H9R15138   6.088   2.062   9.807  1.8300  1.1153 -1.6183
  139SAPE  C21015139   6.054   2.252   9.691 -0.8488 -0.2834 -0.6980
  139SAPE  H10R15140   6.162   2.257   9.665 -1.2386 -0.0496 -2.4067
  139SAPE  H10S15141   6.017   2.356   9.704  0.6677  0.1555  0.3788
  139SAPE  C21115142   5.965   2.181   9.596  0.7780  0.1813  0.3009
  139SAPE  H11R15143   5.860   2.184   9.627  0.8453  1.8791  0.4623
  139SAPE  C21215144   5.991   2.134   9.470  0.0759 -0.5225  0.6115
  139SAPE  H12R15145   5.912   2.081   9.414 -1.2316 -0.6298  2.4820
  139SAPE  C21315146   6.133   2.143   9.414 -0.0233  1.0368  0.3197
  139SAPE  H13R15147   6.204   2.122   9.496  1.7201  1.3618 -1.0461
  139SAPE  H13S15148   6.147   2.251   9.396 -3.4945  1.5678 -0.0004
  139SAPE  C21415149   6.187   2.078   9.291 -0.1488  1.1033  0.1783
  139SAPE  H14R15150   6.231   1.982   9.321  0.0501  1.4986  1.1678
  139SAPE  C21515151   6.204   2.122   9.167  0.0461  0.1357 -0.3818
  139SAPE  H15R15152   6.249   2.056   9.091 -1.2652 -1.0174 -0.1996
  139SAPE  C21615153   6.170   2.259   9.119 -0.2056 -0.3440  0.0266
  139SAPE  H16R15154   6.111   2.318   9.193  0.4450  1.4538 -0.8362
  139SAPE  H16S15155   6.100   2.254   9.033 -0.7623 -1.3116  0.5112
  139SAPE  C21715156   6.301   2.319   9.086  0.2113 -0.1492  0.8736
  139SAPE  H17R15157   6.361   2.272   9.006  1.9357 -0.3967  2.2479
  139SAPE  H17S15158   6.360   2.322   9.180  0.7433 -2.5402  0.6755
  139SAPE  C21815159   6.284   2.463   9.037 -0.0593  0.1345  0.2919
  139SAPE  H18R15160   6.256   2.526   9.124  0.4340  0.5729  0.1331
  139SAPE  H18S15161   6.199   2.462   8.966  0.0216 -0.5544  0.1963
  139SAPE  C21915162   6.405   2.500   8.958 -0.6992  0.4028  0.5586
  139SAPE  H19R15163   6.431   2.424   8.880 -0.0545 -0.0862  1.2351
  139SAPE  H19S15164   6.496   2.499   9.022 -0.3976  1.4352  0.1649
  139SAPE  C22015165   6.410   2.637   8.890  1.1713  0.2759  0.4724
  139SAPE  H20R15166   6.366   2.715   8.956 -0.9563  0.7427 -1.3707
  139SAPE  H20S15167   6.344   2.639   8.802  2.0164  1.5260 -0.1664
  139SAPE  H20T15168   6.511   2.676   8.862  1.4372 -0.8193 -0.1377
  139SAPE   C3315169   5.873   3.165   9.900  0.1450  0.9553 -0.2621
  139SAPE   H3X15170   5.982   3.155   9.913  0.1068  0.7425 -0.0931
  139SAPE   H3Y15171   5.848   3.273   9.893 -1.6790  0.5359 -0.8348
  139SAPE   C3415172   5.845   3.094   9.777 -0.2918 -0.0114  0.5868
  139SAPE   H4X15173   5.738   3.102   9.750 -0.2205  1.6679  0.6717
  139SAPE   H4Y15174   5.850   2.983   9.776 -1.3073 -0.0624  0.4595
  139SAPE   C3515175   5.924   3.143   9.660  0.0765 -0.0010 -1.0099
  139SAPE   H5X15176   6.026   3.157   9.702 -0.7880 -1.5135  1.8594
  139SAPE   H5Y15177   5.873   3.230   9.615 -1.5622 -0.8512 -0.8862
  139SAPE   C3615178   5.964   3.046   9.551 -0.6130 -0.1471  0.3626
  139SAPE   H6X15179   5.878   3.029   9.482  0.9954 -1.0535 -1.5248
  139SAPE   H6Y15180   5.993   2.948   9.593  1.0970 -1.0536 -2.6245
  139SAPE   C3715181   6.086   3.093   9.463 -0.0361 -0.2467 -0.4374
  139SAPE   H7X15182   6.178   3.072   9.522  1.5705  2.8177 -1.6917
  139SAPE   H7Y15183   6.085   3.202   9.442  1.7905 -0.2384 -0.6489
  139SAPE   C3815184   6.099   3.016   9.332 -0.1443 -0.1870  0.2440
  139SAPE   H8X15185   6.023   3.058   9.262  1.0196  1.0138 -0.3571
  139SAPE   H8Y15186   6.077   2.907   9.342  0.0745 -0.2564 -0.0267
  139SAPE   C3915187   6.244   3.039   9.284 -0.2989  0.3531 -0.2306
  139SAPE   H9X15188   6.322   3.008   9.356  0.1623  0.8219 -0.5184
  139SAPE   H9Y15189   6.246   3.149   9.269 -1.2683  0.1036 -2.7331
  139SAPE  C31015190   6.274   2.979   9.148 -0.9969  0.0049 -0.2323
  139SAPE  H10X15191   6.194   3.028   9.088 -1.6666 -0.8247 -0.0301
  139SAPE  H10Y15192   6.264   2.869   9.156 -0.3529 -0.0382  0.0006
  139SAPE  C31115193   6.416   3.000   9.096  1.1467  0.5044  0.0984
  139SAPE  H11X15194   6.421   2.925   9.014 -1.2819 -1.8071  1.8938
  139SAPE  H11Y15195   6.500   2.986   9.167  3.0043  0.0685 -2.0732
  139SAPE  C31215196   6.418   3.141   9.034 -0.1707  0.6301  0.1678
  139SAPE  H12X15197   6.401   3.217   9.113 -2.5047  0.7413 -0.3473
  139SAPE  H12Y15198   6.336   3.151   8.959 -1.3188  1.0478  1.4360
  139SAPE  C31315199   6.553   3.169   8.965 -0.5991 -0.5746  0.4096
  139SAPE  H13X15200   6.587   3.085   8.902 -2.3832 -0.8942 -0.1737
  139SAPE  H13Y15201   6.644   3.184   9.027  0.0083 -1.5298 -0.2404
  139SAPE  C31415202   6.548   3.305   8.892 -0.1052 -0.0491  0.9874
  139SAPE  H14X15203   6.524   3.389   8.960  0.9680  0.1034  1.1998
  139SAPE  H14Y15204   6.461   3.307   8.823  0.4243 -0.6012  0.2887
  139SAPE  C31515205   6.679   3.335   8.812 -0.1714  0.0453  0.2335
  139SAPE  H15X15206   6.684   3.241   8.753 -0.7179 -0.5309  1.0712
  139SAPE  H15Y15207   6.763   3.342   8.885  0.7191  0.0896 -0.7732
  139SAPE  C31615208   6.665   3.458   8.714  0.3490 -0.3840 -0.0308
  139SAPE  H16X15209   6.573   3.456   8.651  1.7334  0.3310 -2.1702
  139SAPE  H16Y15210   6.668   3.557   8.765  1.2735 -0.5957  0.3498
  139SAPE  C31715211   6.787   3.452   8.621 -0.6619 -0.3915 -0.1595
  139SAPE  H17X15212   6.759   3.522   8.539 -0.3951 -1.4532 -1.1951
  139SAPE  H17Y15213   6.802   3.348   8.586 -0.0408  0.0715 -1.3384
  139SAPE  C31815214   6.924   3.500   8.677  0.0378 -0.4895  0.1861
  139SAPE  H18X15215   7.010   3.475   8.611  1.2477  0.4610  1.3530
  139SAPE  H18Y15216   6.946   3.449   8.773 -1.8930 -0.0838  0.8884
  139SAPE  H18Z15217   6.936   3.611   8.687  1.4521 -0.5608 -0.4288
  140SAPE     N15218   5.715   1.920  11.351 -0.2021 -0.2405 -0.4662
  140SAPE   HN115219   5.620   1.878  11.359 -0.4842  0.0501 -1.9834
  140SAPE   HN215220   5.775   1.865  11.286 -0.7244  1.1143 -2.1797
  140SAPE   HN315221   5.761   1.920  11.444  0.1046  2.0784 -0.5546
  140SAPE   C1215222   5.711   2.060  11.290 -0.6300 -0.1264 -0.2113
  140SAPE  H12A15223   5.807   2.110  11.314 -0.7164  0.1972 -0.5188
  140SAPE  H12B15224   5.632   2.126  11.331  1.3265  3.8451 -2.2121
  140SAPE   C1115225   5.706   2.060  11.133  0.4035 -0.9885  0.3136
  140SAPE  H11A15226   5.698   2.166  11.102  0.6565 -1.2064 -0.5410
  140SAPE  H11B15227   5.608   2.018  11.101 -0.2884 -0.2176  1.3750
  140SAPE     P15228   5.826   1.852  11.038  0.3396 -0.2689 -0.2646
  140SAPE   O1315229   5.930   1.850  10.936  0.0700  0.4325 -0.1009
  140SAPE   O1415230   5.846   1.777  11.163 -0.0738  0.3032 -0.2737
  140SAPE   O1215231   5.819   2.001  11.071  0.6920  0.3865  0.9247
  140SAPE   O1115232   5.696   1.809  10.967  0.1364 -0.1397  0.1142
  140SAPE    C115233   5.650   1.880  10.846 -0.5043  0.4197  0.6601
  140SAPE    HA15234   5.554   1.931  10.870 -0.8248  0.6694 -1.0603
  140SAPE    HB15235   5.724   1.957  10.816 -0.0667 -1.0625 -2.3988
  140SAPE    C215236   5.653   1.797  10.714 -0.4696 -0.1171 -0.0326
  140SAPE    HS15237   5.597   1.862  10.643 -1.0626  0.2488  0.7518
  140SAPE   O2115238   5.572   1.674  10.726 -0.1022 -0.3598 -0.1591
  140SAPE   C2115239   5.439   1.697  10.737  0.5708  0.2452  0.3846
  140SAPE   O2215240   5.390   1.807  10.755 -0.1581 -0.0286  0.0054
  140SAPE   C2215241   5.355   1.564  10.711  0.0788  0.2619  0.1484
  140SAPE   H2R15242   5.424   1.476  10.718 -1.2935 -0.8428  0.1687
  140SAPE   H2S15243   5.284   1.565  10.796  1.0558 -0.6145  1.0195
  140SAPE    C315244   5.792   1.763  10.670  0.2077  0.7532 -0.1439
  140SAPE    HX15245   5.814   1.686  10.747  1.0764 -1.5697 -2.5638
  140SAPE    HY15246   5.879   1.830  10.687  1.6322 -0.8267 -0.9476
  140SAPE   O3115247   5.798   1.702  10.539 -0.0580  0.5370  0.1506
  140SAPE   C3115248   5.880   1.594  10.527  0.2581  0.0745 -0.9134
  140SAPE   O3215249   5.946   1.543  10.619 -0.0693  0.2723  0.4716
  140SAPE   C3215250   5.847   1.527  10.388 -0.4872 -0.5705 -0.6783
  140SAPE   H2X15251   5.943   1.487  10.348  0.3904  1.5421 -0.8455
  140SAPE   H2Y15252   5.820   1.612  10.322  3.4365  1.2706 -0.2215
  140SAPE   C2315253   5.282   1.552  10.572 -0.6178 -0.0312 -0.2844
  140SAPE   H3R15254   5.200   1.626  10.562  0.7884  1.6698  0.2296
  140SAPE   H3S15255   5.211   1.466  10.581 -0.4081 -0.0388  2.0834
  140SAPE   C2415256   5.367   1.532  10.438 -0.2631 -0.4276  0.4881
  140SAPE   H4R15257   5.286   1.517  10.363 -0.2455  0.5573  0.2501
  140SAPE   H4S15258   5.431   1.444  10.458 -0.4564 -0.6890 -0.0308
  140SAPE   C2515259   5.454   1.656  10.403 -0.0330  0.6701  0.5713
  140SAPE   H5R15260   5.562   1.660  10.426  0.4781  0.1019 -1.4843
  140SAPE   C2615261   5.409   1.762  10.334  0.0454 -0.1529  0.0272
  140SAPE   H6R15262   5.482   1.843  10.321  1.7167 -1.5531  0.2827
  140SAPE   C2715263   5.273   1.785  10.278 -0.3568 -0.1782 -0.1428
  140SAPE   H7R15264   5.253   1.894  10.272  2.7537  0.4633 -0.5963
  140SAPE   H7S15265   5.196   1.759  10.353 -0.5598  2.7592  0.7875
  140SAPE   C2815266   5.243   1.720  10.145 -0.7711  0.4019 -0.4865
  140SAPE   H8R15267   5.299   1.627  10.126 -1.4462 -0.7475  2.5993
  140SAPE   C2915268   5.147   1.760  10.057 -0.1978  0.3853 -0.4748
  140SAPE   H9R15269   5.126   1.690   9.975 -1.0011  0.2593 -0.1703
  140SAPE  C21015270   5.048   1.874  10.070 -0.1228  0.0720 -0.4690
  140SAPE  H10R15271   5.032   1.901  10.177  1.8535  1.1515 -0.4021
  140SAPE  H10S15272   4.953   1.830  10.033 -0.1222 -2.4075  2.1425
  140SAPE  C21115273   5.067   1.998   9.983 -0.3838  0.8882  0.2459
  140SAPE  H11R15274   5.103   2.087  10.037 -0.9833  0.5945  1.1538
  140SAPE  C21215275   5.038   2.004   9.849  0.2294 -0.4825  0.4296
  140SAPE  H12R15276   5.064   2.097   9.796  0.7563  0.2203  1.8697
  140SAPE  C21315277   4.982   1.891   9.764  0.5294 -0.2382  0.4455
  140SAPE  H13R15278   4.887   1.928   9.720  0.3984 -0.6989  0.3389
  140SAPE  H13S15279   4.948   1.804   9.823  0.9552 -0.2215  0.7208
  140SAPE  C21415280   5.088   1.865   9.658 -0.3550  1.2151 -0.1517
  140SAPE  H14R15281   5.188   1.866   9.704 -1.0428  1.2962  1.4262
  140SAPE  C21515282   5.070   1.865   9.523  0.1437  0.0336 -0.2739
  140SAPE  H15R15283   5.155   1.843   9.457  0.2211  1.0604 -0.5405
  140SAPE  C21615284   4.946   1.887   9.448  0.5390 -0.1971 -0.5863
  140SAPE  H16R15285   4.859   1.893   9.516  0.8725  0.6181 -0.2187
  140SAPE  H16S15286   4.923   1.803   9.378 -3.5976  0.8152 -0.6803
  140SAPE  C21715287   4.968   2.023   9.383 -0.0070 -0.1377  0.3339
  140SAPE  H17R15288   5.001   2.106   9.448 -4.1541  1.8939  0.1782
  140SAPE  H17S15289   4.872   2.059   9.341  0.8471 -1.0983 -2.7038
  140SAPE  C21815290   5.056   2.033   9.256  0.0546  0.2301  0.1623
  140SAPE  H18R15291   5.164   2.009   9.272 -0.1320  0.3705  1.7525
  140SAPE  H18S15292   5.055   2.133   9.209  0.2578  1.5456  2.8165
  140SAPE  C21915293   5.012   1.940   9.139  0.2077  0.4358  0.0907
  140SAPE  H19R15294   4.986   1.843   9.187  0.1121 -0.0095 -0.8488
  140SAPE  H19S15295   5.094   1.925   9.065 -0.3639  0.0144 -0.4668
  140SAPE  C22015296   4.880   1.973   9.063  0.6966  0.7640 -0.2917
  140SAPE  H20R15297   4.797   1.983   9.135  0.7405 -1.0667  0.0672
  140SAPE  H20S15298   4.856   1.896   8.986 -1.3086  0.4965  0.5597
  140SAPE  H20T15299   4.892   2.071   9.013  2.0467  2.3606  2.8920
  140SAPE   C3315300   5.731   1.424  10.393 -0.2655 -0.1930 -0.9807
  140SAPE   H3X15301   5.654   1.468  10.460 -1.0692 -2.2779 -0.4549
  140SAPE   H3Y15302   5.768   1.327  10.434 -1.4412 -0.5067 -0.6082
  140SAPE   C3415303   5.663   1.404  10.254 -1.2316 -0.7170  1.3631
  140SAPE   H4X15304   5.647   1.510  10.226  0.5481 -0.5528  0.8242
  140SAPE   H4Y15305   5.566   1.351  10.267 -0.5532 -2.5928 -0.5732
  140SAPE   C3515306   5.750   1.341  10.140 -0.3458  0.4572 -0.2172
  140SAPE   H5X15307   5.777   1.237  10.166  1.0831  0.6169 -0.9719
  140SAPE   H5Y15308   5.848   1.384  10.111 -0.7635 -0.6342 -3.7338
  140SAPE   C3615309   5.677   1.326  10.008  0.3757  0.5666  0.1803
  140SAPE   H6X15310   5.570   1.303  10.027  0.2738  1.2432  0.4689
  140SAPE   H6Y15311   5.712   1.243   9.943 -2.1376  1.1261 -2.0717
  140SAPE   C3715312   5.683   1.457   9.930  0.5278  0.0957  0.0512
  140SAPE   H7X15313   5.790   1.468   9.904  0.8301  0.3515  1.3069
  140SAPE   H7Y15314   5.661   1.531  10.009 -1.9206 -1.3600  0.8503
  140SAPE   C3815315   5.596   1.471   9.804  0.2100  0.2476  0.1204
  140SAPE   H8X15316   5.587   1.578   9.775 -2.2958  0.8956  2.8108
  140SAPE   H8Y15317   5.496   1.440   9.840 -0.0183  1.0462  0.1792
  140SAPE   C3915318   5.646   1.387   9.689  0.3293  0.4283 -0.0013
  140SAPE   H9X15319   5.604   1.285   9.701 -2.3159  1.3470 -0.7278
  140SAPE   H9Y15320   5.755   1.369   9.691  0.1260 -0.9845 -0.5292
  140SAPE  C31015321   5.597   1.440   9.555 -0.2328  0.0840 -0.0219
  140SAPE  H10X15322   5.634   1.541   9.527 -2.5724  1.0393  0.1283
  140SAPE  H10Y15323   5.486   1.432   9.561 -0.2889  1.4430  3.8515
  140SAPE  C31115324   5.651   1.341   9.450  0.1153  0.7787 -0.5884
  140SAPE  H11X15325   5.615   1.238   9.471  1.0220  0.5864  0.0469
  140SAPE  H11Y15326   5.760   1.354   9.469  0.5437 -0.2960 -2.1030
  140SAPE  C31215327   5.617   1.381   9.308  0.4996 -0.1370 -0.4461
  140SAPE  H12X15328   5.607   1.491   9.314 -0.6395 -0.2855  1.3823
  140SAPE  H12Y15329   5.521   1.339   9.271  1.1666 -0.4180 -1.9075
  140SAPE  C31315330   5.717   1.350   9.204 -0.2537  0.3446 -0.2480
  140SAPE  H13X15331   5.734   1.241   9.193  0.1210 -0.0395  3.0936
  140SAPE  H13Y15332   5.817   1.382   9.240  0.1752 -2.0703  0.8623
  140SAPE  C31415333   5.678   1.414   9.068 -0.6670 -0.3158 -0.2941
  140SAPE  H14X15334   5.675   1.523   9.088  0.5178 -0.5596  1.4972
  140SAPE  H14Y15335   5.578   1.368   9.054 -0.7107 -0.5188  0.6124
  140SAPE  C31515336   5.768   1.390   8.949 -0.7533 -0.3758  0.0144
  140SAPE  H15X15337   5.757   1.291   8.901  3.5628 -0.9276 -0.2405
  140SAPE  H15Y15338   5.871   1.411   8.985 -1.9156  1.4861  2.5990
  140SAPE  C31615339   5.733   1.488   8.829  0.3304 -0.3678  0.2107
  140SAPE  H16X15340   5.743   1.590   8.871 -0.1753 -0.7499  1.2839
  140SAPE  H16Y15341   5.635   1.471   8.780  0.2637  0.3961  0.0720
  140SAPE  C31715342   5.842   1.476   8.712 -0.6208  0.0759  0.1516
  140SAPE  H17X15343   5.836   1.370   8.680 -0.3037  0.4729 -1.2658
  140SAPE  H17Y15344   5.944   1.494   8.752  0.2969  1.2981 -2.5198
  140SAPE  C31815345   5.817   1.585   8.600  0.7428 -0.0521  0.0682
  140SAPE  H18X15346   5.910   1.598   8.541 -0.0533 -0.9556 -1.4396
  140SAPE  H18Y15347   5.801   1.683   8.651  0.3078  0.3330 -0.7848
  140SAPE  H18Z15348   5.732   1.579   8.528  1.3326  1.1652 -0.7598
  141SAPE     N15349   2.332   3.744  10.757 -0.3945 -0.3595 -0.0331
  141SAPE   HN115350   2.350   3.844  10.735  0.7475 -0.1324  1.7113
  141SAPE   HN215351   2.242   3.747  10.808  0.1131  1.1053  0.8177
  141SAPE   HN315352   2.401   3.714  10.829  0.5246 -2.3314 -1.6198
  141SAPE   C1215353   2.348   3.659  10.630 -0.5330 -0.7111 -0.1660
  141SAPE  H12A15354   2.403   3.565  10.653  1.3978  0.3359 -0.2800
  141SAPE  H12B15355   2.412   3.715  10.558 -1.5852  0.4265 -0.2585
  141SAPE   C1115356   2.211   3.632  10.567 -0.0092 -0.2628 -0.2128
  141SAPE  H11A15357   2.230   3.569  10.477  1.6775 -2.5810  1.6389
  141SAPE  H11B15358   2.157   3.721  10.528  0.4701  0.3071  0.4072
  141SAPE     P15359   2.015   3.632  10.744  0.1632 -0.2454 -0.0322
  141SAPE   O1315360   1.992   3.569  10.874 -0.0774  0.4427 -0.5509
  141SAPE   O1415361   2.049   3.778  10.744 -0.1049  0.0983  0.4432
  141SAPE   O1215362   2.127   3.558  10.658 -0.6785  0.3008  0.1271
  141SAPE   O1115363   1.880   3.606  10.663  0.6007 -0.4778 -0.1308
  141SAPE    C115364   1.873   3.583  10.522  0.5031 -0.2190 -0.1650
  141SAPE    HA15365   1.970   3.585  10.467  0.3468  0.2593 -0.4282
  141SAPE    HB15366   1.821   3.487  10.500 -1.3542  0.6053  0.4489
  141SAPE    C215367   1.779   3.702  10.461 -0.2473  0.3516  0.0318
  141SAPE    HS15368   1.705   3.731  10.540 -2.0362  0.9358 -1.7531
  141SAPE   O2115369   1.715   3.633  10.348 -0.0183 -0.0644 -0.0682
  141SAPE   C2115370   1.599   3.676  10.311 -0.1001 -0.1625  0.1873
  141SAPE   O2215371   1.521   3.750  10.371  0.1156  0.8634 -0.5142
  141SAPE   C2215372   1.560   3.607  10.182 -0.1666 -0.2477  0.9171
  141SAPE   H2R15373   1.646   3.579  10.117 -1.0457 -0.6684 -0.0877
  141SAPE   H2S15374   1.503   3.514  10.200 -2.2987  0.6930 -0.6029
  141SAPE    C315375   1.867   3.820  10.421 -0.7873  0.1188 -0.7468
  141SAPE    HX15376   1.955   3.781  10.366 -0.3645 -0.6068  0.4267
  141SAPE    HY15377   1.910   3.866  10.513  0.4096 -1.3021 -0.5689
  141SAPE   O3115378   1.794   3.916  10.349 -0.1612 -0.6023 -0.0967
  141SAPE   C3115379   1.849   4.019  10.304 -0.1786 -0.9564  0.1416
  141SAPE   O3215380   1.970   4.044  10.310 -0.2927 -0.4863 -0.2289
  141SAPE   C3215381   1.738   4.118  10.250  0.1316 -0.6691 -0.1292
  141SAPE   H2X15382   1.767   4.224  10.232  1.5276 -1.3202 -2.0257
  141SAPE   H2Y15383   1.665   4.141  10.331  0.8176  1.0969  0.0361
  141SAPE   C2315384   1.463   3.692  10.090  0.2722  0.0099  0.6406
  141SAPE   H3R15385   1.532   3.776  10.067  1.0731 -0.5721  0.8953
  141SAPE   H3S15386   1.371   3.735  10.134 -0.7464 -1.7359  0.3079
  141SAPE   C2415387   1.426   3.624   9.953 -0.4910  0.0658 -0.0157
  141SAPE   H4R15388   1.332   3.563   9.953 -0.6953  0.3027  1.9344
  141SAPE   H4S15389   1.522   3.573   9.930  0.9271  0.7537  3.7723
  141SAPE   C2515390   1.389   3.725   9.859 -0.1560  0.1320  0.8737
  141SAPE   H5R15391   1.311   3.798   9.886 -1.4940 -1.0930  0.4410
  141SAPE   C2615392   1.428   3.721   9.732  0.1315 -0.0715 -0.4627
  141SAPE   H6R15393   1.393   3.804   9.670  1.2309 -0.6555 -1.9241
  141SAPE   C2715394   1.525   3.621   9.661 -0.3574  0.0148  0.4236
  141SAPE   H7R15395   1.563   3.545   9.731  0.5980  2.1014  2.2828
  141SAPE   H7S15396   1.621   3.665   9.629  0.1801 -1.4231 -0.0137
  141SAPE   C2815397   1.445   3.554   9.553  0.0808  0.3292  0.4283
  141SAPE   H8R15398   1.367   3.486   9.592 -0.8659  1.3559  0.3854
  141SAPE   C2915399   1.477   3.549   9.425  0.3517  0.1732  0.0502
  141SAPE   H9R15400   1.427   3.486   9.350  1.2195  1.0419 -1.2922
  141SAPE  C21015401   1.596   3.619   9.366  0.4175  0.3761  0.3446
  141SAPE  H10R15402   1.688   3.594   9.422  0.9914  1.0411 -0.2878
  141SAPE  H10S15403   1.586   3.729   9.375 -2.2914  0.3298 -0.9924
  141SAPE  C21115404   1.623   3.587   9.217 -0.1166 -0.4057  0.3429
  141SAPE  H11R15405   1.672   3.491   9.198  1.3605  0.5446 -0.9454
  141SAPE  C21215406   1.588   3.665   9.106 -0.4435 -0.2064 -1.2057
  141SAPE  H12R15407   1.612   3.626   9.006  2.1935 -1.4151 -0.1968
  141SAPE  C21315408   1.530   3.803   9.099 -0.3541 -0.2523 -0.2212
  141SAPE  H13R15409   1.612   3.878   9.096 -2.5929  2.7147  3.3992
  141SAPE  H13S15410   1.482   3.831   9.196 -1.5754 -3.2546  0.1437
  141SAPE  C21415411   1.436   3.824   8.984 -0.5545  0.3953 -0.1350
  141SAPE  H14R15412   1.328   3.805   8.994 -0.2117 -1.0570  1.0990
  141SAPE  C21515413   1.467   3.837   8.856 -0.2485 -0.1920  0.3036
  141SAPE  H15R15414   1.384   3.843   8.785  0.2827 -0.8832 -0.4008
  141SAPE  C21615415   1.605   3.847   8.793 -0.7164  0.5088 -0.0790
  141SAPE  H16R15416   1.611   3.761   8.722  0.6607 -0.7311  1.4467
  141SAPE  H16S15417   1.679   3.852   8.875 -2.3551  4.2978  1.3998
  141SAPE  C21715418   1.621   3.977   8.713 -0.1528  0.1793 -0.4699
  141SAPE  H17R15419   1.526   4.001   8.660  0.1127  0.6711 -0.7298
  141SAPE  H17S15420   1.699   3.949   8.639  0.2100 -1.4276  0.4674
  141SAPE  C21815421   1.644   4.087   8.808  0.0630 -0.5955 -0.1388
  141SAPE  H18R15422   1.708   4.048   8.890 -0.0687 -1.9851 -0.6666
  141SAPE  H18S15423   1.548   4.120   8.852  0.0223 -1.2648  0.3014
  141SAPE  C21915424   1.710   4.212   8.743 -0.7938 -0.3499  0.4010
  141SAPE  H19R15425   1.794   4.165   8.688 -0.5248  0.1986  0.3355
  141SAPE  H19S15426   1.750   4.280   8.821  2.0983 -0.4072 -0.9166
  141SAPE  C22015427   1.626   4.302   8.653 -0.1592  0.2384  0.7439
  141SAPE  H20R15428   1.576   4.248   8.570  1.4068 -0.7401  0.3789
  141SAPE  H20S15429   1.690   4.381   8.607 -2.5720  1.3800 -0.7991
  141SAPE  H20T15430   1.539   4.342   8.709 -0.7636 -1.1608  0.8290
  141SAPE   C3315431   1.663   4.075  10.117 -0.5209 -0.1242  0.2274
  141SAPE   H3X15432   1.570   4.137  10.119 -0.3960  0.0468  0.7980
  141SAPE   H3Y15433   1.642   3.967  10.104  2.1864 -0.6324 -0.5653
  141SAPE   C3415434   1.750   4.111   9.994  0.5018  0.1201 -0.1719
  141SAPE   H4X15435   1.847   4.057  10.000 -0.5280 -1.7550  0.4902
  141SAPE   H4Y15436   1.769   4.220   9.997 -2.1298  0.6177  2.0224
  141SAPE   C3515437   1.687   4.071   9.853  0.5086  0.0936 -0.3379
  141SAPE   H5X15438   1.598   4.135   9.840  0.4136 -0.3786 -2.2467
  141SAPE   H5Y15439   1.671   3.961   9.846  2.2921 -0.0706 -3.1508
  141SAPE   C3615440   1.771   4.107   9.728 -0.4601  0.2655 -0.8414
  141SAPE   H6X15441   1.839   4.023   9.703  0.4680  0.2893  1.4143
  141SAPE   H6Y15442   1.832   4.194   9.761 -0.2661  0.5243 -1.8303
  141SAPE   C3715443   1.680   4.122   9.600  0.1819  0.9314 -0.5050
  141SAPE   H7X15444   1.636   4.224   9.606  1.6002  1.6468 -1.6436
  141SAPE   H7Y15445   1.600   4.045   9.593  0.1638  0.8825  0.1974
  141SAPE   C3815446   1.773   4.116   9.477  0.1922  0.0450 -0.2020
  141SAPE   H8X15447   1.861   4.050   9.487 -0.2003 -0.4969 -0.2633
  141SAPE   H8Y15448   1.823   4.215   9.484 -1.1453  0.6132  4.4115
  141SAPE   C3915449   1.706   4.100   9.338  0.4682 -0.5216  0.0069
  141SAPE   H9X15450   1.642   4.009   9.344 -0.1757 -0.4217 -3.1877
  141SAPE   H9Y15451   1.776   4.073   9.256  0.0598 -0.9103 -0.2213
  141SAPE  C31015452   1.617   4.218   9.296 -0.1360 -0.1183 -0.0304
  141SAPE  H10X15453   1.682   4.307   9.281  3.0059 -2.1935  0.4598
  141SAPE  H10Y15454   1.548   4.244   9.380  0.7946  0.8367  0.4702
  141SAPE  C31115455   1.539   4.177   9.167  0.2099 -0.4087  0.0361
  141SAPE  H11X15456   1.478   4.085   9.181 -0.4802 -0.0289 -0.4284
  141SAPE  H11Y15457   1.616   4.157   9.089 -0.4445  1.6670 -1.2292
  141SAPE  C31215458   1.448   4.285   9.117 -0.7911  0.1401  0.4740
  141SAPE  H12X15459   1.422   4.262   9.011 -0.1281  2.0442 -0.1521
  141SAPE  H12Y15460   1.506   4.378   9.098 -0.8914  0.3671  1.2424
  141SAPE  C31315461   1.333   4.310   9.216 -0.3564  0.0478 -0.2653
  141SAPE  H13X15462   1.380   4.329   9.315 -0.7721 -2.4638  0.4794
  141SAPE  H13Y15463   1.281   4.212   9.220 -0.8222 -0.0768 -4.4596
  141SAPE  C31415464   1.224   4.415   9.185  0.1713  0.5844  0.1141
  141SAPE  H14X15465   1.189   4.402   9.080 -3.1559  0.8619  1.0951
  141SAPE  H14Y15466   1.275   4.513   9.189  2.4540 -0.4911 -0.6006
  141SAPE  C31515467   1.107   4.403   9.278  0.2863 -0.2134 -0.1197
  141SAPE  H15X15468   1.076   4.298   9.291  0.4079  0.0179  2.4517
  141SAPE  H15Y15469   1.022   4.458   9.234 -0.0905  0.9899  1.9997
  141SAPE  C31615470   1.142   4.459   9.419 -0.3892  0.3639 -0.1015
  141SAPE  H16X15471   1.168   4.567   9.422 -0.9527  0.5070 -0.2947
  141SAPE  H16Y15472   1.227   4.400   9.459 -1.4804 -0.1037  1.6645
  141SAPE  C31715473   1.020   4.435   9.519 -0.2865 -0.1100 -0.3753
  141SAPE  H17X15474   0.998   4.326   9.517  1.3543 -0.4782  0.1305
  141SAPE  H17Y15475   0.930   4.478   9.469 -0.3908 -2.3754 -2.3428
  141SAPE  C31815476   1.041   4.481   9.660 -0.3072  0.1078  0.0870
  141SAPE  H18X15477   1.054   4.591   9.659  0.3996  0.0340  0.6030
  141SAPE  H18Y15478   1.137   4.444   9.702 -0.3640 -0.9020 -0.6500
  141SAPE  H18Z15479   0.953   4.451   9.721  1.1551 -1.6085  1.4641
  142SAPE     N15480   1.703   3.599  10.881  0.0043  0.6742  0.7729
  142SAPE   HN115481   1.713   3.700  10.855  0.3226  0.6196  0.6811
  142SAPE   HN215482   1.794   3.554  10.900 -0.9126 -1.1010  1.1876
  142SAPE   HN315483   1.659   3.559  10.795  1.1356  2.3643 -0.6611
  142SAPE   C1215484   1.608   3.583  10.990  0.4276 -0.1995 -0.5845
  142SAPE  H12A15485   1.510   3.629  10.964 -0.1831 -0.4528  1.1177
  142SAPE  H12B15486   1.650   3.647  11.070 -1.9907  3.1480 -1.7652
  142SAPE   C1115487   1.591   3.437  11.022 -0.2643 -0.3603  0.3622
  142SAPE  H11A15488   1.553   3.378  10.936  1.5034 -1.1692  0.0906
  142SAPE  H11B15489   1.510   3.449  11.097  0.4363  3.3667  0.7432
  142SAPE     P15490   1.725   3.224  11.081  0.2195  0.3739 -0.1670
  142SAPE   O1315491   1.816   3.190  11.194 -0.1338  0.0434  0.7273
  142SAPE   O1415492   1.583   3.163  11.077 -0.0069 -0.2532  0.4209
  142SAPE   O1215493   1.714   3.387  11.081  0.0070  0.2969  0.1990
  142SAPE   O1115494   1.805   3.184  10.949  0.1682 -0.2288  0.2724
  142SAPE    C115495   1.881   3.282  10.873 -0.4243 -1.0016  0.4765
  142SAPE    HA15496   1.810   3.363  10.847  0.1019 -1.4421 -2.7892
  142SAPE    HB15497   1.960   3.326  10.938  2.3307  0.5333 -3.5194
  142SAPE    C215498   1.951   3.237  10.745  0.3051  0.0345 -0.0690
  142SAPE    HS15499   1.976   3.330  10.690 -0.2484 -0.3027 -0.9007
  142SAPE   O2115500   1.866   3.150  10.667  0.3166  0.1066 -0.0530
  142SAPE   C2115501   1.752   3.199  10.626 -0.3502  0.1729  1.4360
  142SAPE   O2215502   1.713   3.310  10.645  0.2903  0.4288 -0.3335
  142SAPE   C2215503   1.680   3.092  10.543  0.2656  0.5469  0.3763
  142SAPE   H2R15504   1.707   2.993  10.586  0.0653 -0.6174 -1.9954
  142SAPE   H2S15505   1.577   3.124  10.568 -0.0158 -0.2299  0.2474
  142SAPE    C315506   2.073   3.150  10.759 -0.6834 -0.5181  0.2385
  142SAPE    HX15507   2.040   3.062  10.820  1.2506 -0.3841  1.5965
  142SAPE    HY15508   2.153   3.192  10.824 -0.5188 -1.4756  0.6772
  142SAPE   O3115509   2.122   3.100  10.633 -0.1273 -0.5625  0.3227
  142SAPE   C3115510   2.217   3.167  10.578  1.0113  0.5003 -0.2854
  142SAPE   O3215511   2.283   3.255  10.626 -0.3957 -0.4365 -0.0470
  142SAPE   C3215512   2.221   3.133  10.430 -0.5212 -0.3027 -0.4494
  142SAPE   H2X15513   2.158   3.043  10.415 -2.5473  0.8172  0.7942
  142SAPE   H2Y15514   2.317   3.092  10.394  0.3963  1.0292  0.3522
  142SAPE   C2315515   1.702   3.090  10.392 -0.2450  1.0578  0.0243
  142SAPE   H3R15516   1.652   2.995  10.363  2.2522 -0.4847  0.5117
  142SAPE   H3S15517   1.811   3.068  10.387 -0.5732 -2.1049  2.9304
  142SAPE   C2415518   1.651   3.201  10.305 -0.3673 -1.0758 -0.4010
  142SAPE   H4R15519   1.697   3.296  10.339 -1.4519 -0.5122 -0.4860
  142SAPE   H4S15520   1.543   3.216  10.324 -0.3431 -0.6119 -0.6268
  142SAPE   C2515521   1.676   3.166  10.162 -0.8587 -0.0975 -0.7278
  142SAPE   H5R15522   1.780   3.180  10.129 -0.2444  2.3905  1.9004
  142SAPE   C2615523   1.592   3.128  10.068 -0.4308 -0.0571  0.4606
  142SAPE   H6R15524   1.633   3.087   9.974  1.2564 -1.3292  1.6974
  142SAPE   C2715525   1.443   3.108  10.064  0.0333  0.1538 -0.7609
  142SAPE   H7R15526   1.427   3.063  10.164  0.2301 -0.3759 -0.9635
  142SAPE   H7S15527   1.404   3.027   9.998 -1.9336  0.5998 -0.2260
  142SAPE   C2815528   1.345   3.225  10.056  0.3809 -0.2920  0.6881
  142SAPE   H8R15529   1.288   3.239  10.149  1.5074  0.6226  1.2552
  142SAPE   C2915530   1.304   3.285   9.942 -0.4799  0.2188  0.2355
  142SAPE   H9R15531   1.221   3.354   9.963 -0.8109 -0.6739  2.0100
  142SAPE  C21015532   1.363   3.272   9.803 -0.2753 -0.4892 -0.2415
  142SAPE  H10R15533   1.473   3.280   9.813 -0.2711 -1.0682  0.2590
  142SAPE  H10S15534   1.328   3.360   9.745 -2.5774 -0.7368  0.6381
  142SAPE  C21115535   1.336   3.141   9.738  0.4321 -0.2732 -0.3291
  142SAPE  H11R15536   1.276   3.068   9.796 -1.4604  2.3769  1.3126
  142SAPE  C21215537   1.355   3.119   9.608  0.3120  0.5977 -0.6573
  142SAPE  H12R15538   1.309   3.027   9.569  0.4940  0.0830  0.3067
  142SAPE  C21315539   1.408   3.221   9.519  0.6467 -0.5672 -0.5812
  142SAPE  H13R15540   1.480   3.292   9.566 -2.4711  2.1561  0.5261
  142SAPE  H13S15541   1.319   3.283   9.494  0.6569 -0.3967 -0.2056
  142SAPE  C21415542   1.458   3.160   9.387 -0.9976 -0.1537  0.6576
  142SAPE  H14R15543   1.542   3.092   9.405 -0.1747 -0.0627 -2.2797
  142SAPE  C21515544   1.404   3.161   9.260  0.1639  0.3945  0.4456
  142SAPE  H15R15545   1.463   3.118   9.178  2.1794 -2.0660  2.9992
  142SAPE  C21615546   1.268   3.229   9.222 -0.9091  0.4719  0.8062
  142SAPE  H16R15547   1.248   3.325   9.275 -2.5590  0.7691 -0.2800
  142SAPE  H16S15548   1.180   3.167   9.250 -1.4521  0.4622 -0.8103
  142SAPE  C21715549   1.254   3.265   9.067  0.6564  0.0411 -0.2791
  142SAPE  H17R15550   1.346   3.320   9.037  1.6260 -0.9938  0.6754
  142SAPE  H17S15551   1.167   3.332   9.055  0.9006  0.6587  1.2139
  142SAPE  C21815552   1.241   3.148   8.969 -0.0486 -0.7409 -0.4453
  142SAPE  H18R15553   1.146   3.094   8.991  0.1568 -1.0292 -0.2604
  142SAPE  H18S15554   1.334   3.088   8.967  1.2330  1.1384 -3.4916
  142SAPE  C21915555   1.231   3.196   8.824  0.4860 -0.3637 -0.8199
  142SAPE  H19R15556   1.155   3.277   8.814 -0.5673 -1.1596  0.4245
  142SAPE  H19S15557   1.174   3.109   8.786 -0.3598 -1.6484  2.9714
  142SAPE  C22015558   1.359   3.239   8.757  0.1407 -0.5492  0.1069
  142SAPE  H20R15559   1.353   3.278   8.653  0.7486  0.2799  0.3756
  142SAPE  H20S15560   1.432   3.155   8.759  0.2286 -0.4638  0.6703
  142SAPE  H20T15561   1.399   3.320   8.821  0.6164  0.5808 -1.5671
  142SAPE   C3315562   2.180   3.254  10.341 -0.8918  0.4783 -0.8972
  142SAPE   H3X15563   2.201   3.245  10.232 -1.5567  4.0909 -1.4305
  142SAPE   H3Y15564   2.238   3.342  10.377  0.6344 -0.8940  0.1463
  142SAPE   C3415565   2.032   3.290  10.349 -0.1347 -0.3974  0.0553
  142SAPE   H4X15566   2.011   3.335  10.448 -0.2685  0.1117 -0.1990
  142SAPE   H4Y15567   1.971   3.199  10.326  0.1006 -0.2251 -1.3700
  142SAPE   C3515568   1.998   3.401  10.247  0.3687 -0.0789 -0.2660
  142SAPE   H5X15569   2.047   3.496  10.277  3.7791 -1.4262 -1.0832
  142SAPE   H5Y15570   1.892   3.432  10.265  0.3162  1.2336 -2.4066
  142SAPE   C3615571   2.034   3.387  10.096  0.0191 -0.3126  0.0057
  142SAPE   H6X15572   2.009   3.284  10.064 -0.1392 -0.1591 -0.3704
  142SAPE   H6Y15573   2.143   3.408  10.094 -0.0358 -0.0120  0.0582
  142SAPE   C3715574   1.966   3.488  10.003  0.1864  0.0765  0.3065
  142SAPE   H7X15575   1.859   3.483  10.029 -0.6298  1.1007 -2.4765
  142SAPE   H7Y15576   1.970   3.456   9.897 -1.7524 -0.6959  0.4309
  142SAPE   C3815577   2.020   3.636  10.015  0.0301  0.0531  0.1483
  142SAPE   H8X15578   2.116   3.630   9.959 -0.9198 -0.6578 -1.5067
  142SAPE   H8Y15579   2.032   3.662  10.122 -0.3251  0.0721  0.1852
  142SAPE   C3915580   1.914   3.731   9.952  0.1063  0.6404 -0.5075
  142SAPE   H9X15581   1.958   3.830   9.925 -0.0562  0.6021 -0.9273
  142SAPE   H9Y15582   1.826   3.744  10.019 -0.8101  0.2097 -1.6039
  142SAPE  C31015583   1.858   3.686   9.812  0.2740 -0.7909  0.1293
  142SAPE  H10X15584   1.777   3.759   9.790  1.3937  0.4600  0.0361
  142SAPE  H10Y15585   1.818   3.583   9.822  0.7540 -0.7997  2.4703
  142SAPE  C31115586   1.969   3.694   9.706 -0.6422  0.2042 -0.3246
  142SAPE  H11X15587   2.035   3.606   9.715  0.8459  1.4803  2.7515
  142SAPE  H11Y15588   2.035   3.772   9.751 -1.2268 -0.4362  1.7806
  142SAPE  C31215589   1.921   3.734   9.570 -0.1561  0.0362 -0.5630
  142SAPE  H12X15590   1.904   3.844   9.569 -0.3065  0.0361  0.6059
  142SAPE  H12Y15591   1.831   3.671   9.551 -0.5020 -0.0689  1.2328
  142SAPE  C31315592   2.026   3.701   9.455  0.1977  0.1699 -0.6206
  142SAPE  H13X15593   2.046   3.595   9.480  2.2210  0.8536  0.8737
  142SAPE  H13Y15594   2.113   3.765   9.481  1.0656 -0.7966 -1.0933
  142SAPE  C31415595   1.974   3.718   9.314  0.1718  0.3776 -0.3456
  142SAPE  H14X15596   1.941   3.824   9.311 -0.2596  0.2424 -0.4230
  142SAPE  H14Y15597   1.891   3.646   9.297  0.3928  0.3936 -1.5954
  142SAPE  C31515598   2.083   3.689   9.209  0.0371 -0.4589 -0.2008
  142SAPE  H15X15599   2.123   3.589   9.236 -3.6918 -1.9026  0.6348
  142SAPE  H15Y15600   2.165   3.763   9.217  1.1126 -1.6031 -0.3696
  142SAPE  C31615601   2.027   3.680   9.069  0.4526  0.3412  0.0586
  142SAPE  H16X15602   1.924   3.638   9.071  1.0886 -1.2442  0.9041
  142SAPE  H16Y15603   2.099   3.618   9.012  1.6315  0.0373  1.8083
  142SAPE  C31715604   2.019   3.818   8.987 -0.0760 -0.6638  0.1057
  142SAPE  H17X15605   2.122   3.859   8.982 -0.7489  0.9904 -0.9800
  142SAPE  H17Y15606   1.957   3.890   9.043 -0.2833 -0.6857 -0.0937
  142SAPE  C31815607   1.979   3.830   8.835  0.4423 -0.0710 -0.4713
  142SAPE  H18X15608   2.042   3.762   8.774 -2.6494 -1.7026 -2.0980
  142SAPE  H18Y15609   1.983   3.929   8.785 -2.0421 -0.4977 -1.6662
  142SAPE  H18Z15610   1.877   3.789   8.819  0.4599 -0.3374  0.0598
  143SAPE     N15611   3.395   6.191  10.793  0.0784  0.1752  0.1901
  143SAPE   HN115612   3.484   6.138  10.796 -0.3849 -0.5754  3.0161
  143SAPE   HN215613   3.317   6.136  10.752  0.0223 -0.3605  1.0108
  143SAPE   HN315614   3.399   6.270  10.725 -2.3131 -1.4236 -1.9952
  143SAPE   C1215615   3.359   6.241  10.931  0.6141  0.1883  0.3139
  143SAPE  H12A15616   3.456   6.281  10.970  1.7223 -1.3526 -0.7367
  143SAPE  H12B15617   3.330   6.154  10.994 -2.1762  0.6542 -0.1922
  143SAPE   C1115618   3.249   6.354  10.907 -0.2578  0.3153 -0.2574
  143SAPE  H11A15619   3.297   6.434  10.845  0.6582  0.1394  0.2055
  143SAPE  H11B15620   3.235   6.389  11.012  1.3373 -1.1445  0.4892
  143SAPE     P15621   2.999   6.396  10.846 -0.5354  0.1311 -0.0814
  143SAPE   O1315622   2.881   6.312  10.814 -0.8125 -0.1215 -0.0545
  143SAPE   O1415623   2.997   6.467  10.974 -0.5962  0.4288 -0.1654
  143SAPE   O1215624   3.133   6.310  10.834  0.1585 -0.1827  0.1292
  143SAPE   O1115625   3.014   6.492  10.732 -0.1523  0.1760  0.4972
  143SAPE    C115626   3.073   6.465  10.607 -0.1625 -0.1856 -0.6331
  143SAPE    HA15627   3.095   6.565  10.565 -0.0808 -0.3276 -0.9313
  143SAPE    HB15628   3.175   6.423  10.619  0.3301  1.2618  0.6016
  143SAPE    C215629   2.984   6.397  10.507  0.2749 -0.2884  0.0616
  143SAPE    HS15630   2.958   6.293  10.538 -0.4963 -1.1108 -2.9860
  143SAPE   O2115631   3.053   6.395  10.386  0.9247 -0.0648  0.0617
  143SAPE   C2115632   3.148   6.315  10.368  0.3319 -1.0499 -0.4821
  143SAPE   O2215633   3.190   6.228  10.441  0.1497 -0.3001  0.0405
  143SAPE   C2215634   3.198   6.323  10.216  0.0810 -0.2582  0.6671
  143SAPE   H2R15635   3.276   6.247  10.191  0.2207  0.4054 -1.0607
  143SAPE   H2S15636   3.105   6.300  10.159  0.0293 -1.8605  1.3400
  143SAPE    C315637   2.853   6.474  10.483  0.6277 -0.2106 -0.6677
  143SAPE    HX15638   2.870   6.583  10.465  0.0423 -0.2695 -1.6073
  143SAPE    HY15639   2.795   6.471  10.578 -0.5263 -1.5033 -1.3750
  143SAPE   O3115640   2.775   6.429  10.369  0.0250 -0.1568  0.6474
  143SAPE   C3115641   2.748   6.522  10.273 -0.0488 -0.4532  0.0676
  143SAPE   O3215642   2.779   6.636  10.276  0.0857  0.7989  0.1830
  143SAPE   C3215643   2.654   6.461  10.163  0.0786 -0.4594  0.3752
  143SAPE   H2X15644   2.560   6.429  10.212  1.6173 -0.5827  3.5210
  143SAPE   H2Y15645   2.726   6.388  10.119  0.2926  0.9202 -1.6475
  143SAPE   C2315646   3.263   6.461  10.185  0.1788 -0.4866  0.0395
  143SAPE   H3R15647   3.348   6.480  10.254  0.3096 -1.9732  0.3208
  143SAPE   H3S15648   3.192   6.545  10.200 -0.8234 -1.5645  1.5720
  143SAPE   C2415649   3.299   6.475  10.032 -0.5144 -0.7429 -0.1606
  143SAPE   H4R15650   3.352   6.386   9.992  2.0903 -0.1561  1.7087
  143SAPE   H4S15651   3.363   6.565  10.016 -1.0679 -0.5351 -1.3174
  143SAPE   C2515652   3.183   6.508   9.955  0.0099 -0.0785  0.9423
  143SAPE   H5R15653   3.132   6.595   9.999 -0.8365  0.4180 -0.8764
  143SAPE   C2615654   3.141   6.453   9.835 -0.1055  0.2918  0.3233
  143SAPE   H6R15655   3.051   6.495   9.789 -0.5970 -0.6542  0.4069
  143SAPE   C2715656   3.216   6.346   9.754  0.2211 -0.1583  0.5971
  143SAPE   H7R15657   3.140   6.291   9.694  0.0171 -0.7901  1.4065
  143SAPE   H7S15658   3.250   6.259   9.814  2.6485 -1.5610 -2.5100
  143SAPE   C2815659   3.340   6.399   9.678 -0.2567  0.8303  0.2571
  143SAPE   H8R15660   3.428   6.424   9.738 -1.7409  1.2980  2.3328
  143SAPE   C2915661   3.351   6.429   9.545 -0.2606 -0.3406  0.5843
  143SAPE   H9R15662   3.450   6.462   9.512 -1.7177  1.8521 -1.9795
  143SAPE  C21015663   3.238   6.426   9.442 -0.8365  0.3935  0.1241
  143SAPE  H10R15664   3.142   6.386   9.480  0.2026  1.0948  3.9064
  143SAPE  H10S15665   3.286   6.359   9.367 -0.0497  0.1677  0.8144
  143SAPE  C21115666   3.219   6.568   9.390 -0.3909  0.0851 -0.2783
  143SAPE  H11R15667   3.163   6.625   9.466  1.6921  0.7386  0.8392
  143SAPE  C21215668   3.251   6.628   9.273  0.7590  0.1866 -0.0445
  143SAPE  H12R15669   3.220   6.732   9.252 -1.4101  0.0575  2.0080
  143SAPE  C21315670   3.318   6.563   9.158 -0.1680  0.2353  0.4560
  143SAPE  H13R15671   3.308   6.638   9.077  0.4539 -1.5172 -1.3310
  143SAPE  H13S15672   3.258   6.474   9.129 -1.6922  1.2501  0.3728
  143SAPE  C21415673   3.466   6.530   9.170  0.0402 -0.2539  0.6237
  143SAPE  H14R15674   3.495   6.450   9.239  1.4564 -0.4236 -0.1242
  143SAPE  C21515675   3.565   6.603   9.124  0.0249 -0.3389  0.9039
  143SAPE  H15R15676   3.663   6.555   9.126  0.0718 -0.2579  0.5308
  143SAPE  C21615677   3.551   6.730   9.048 -0.5962 -0.9017  0.5773
  143SAPE  H16R15678   3.602   6.817   9.096  0.2916 -0.7301 -0.6363
  143SAPE  H16S15679   3.445   6.762   9.044 -0.7762 -1.6181 -1.2180
  143SAPE  C21715680   3.606   6.715   8.906  0.7789 -0.4251 -0.2890
  143SAPE  H17R15681   3.715   6.694   8.900  1.1873  0.0438  3.3087
  143SAPE  H17S15682   3.597   6.808   8.846  1.8281 -1.7559 -2.6468
  143SAPE  C21815683   3.526   6.609   8.831 -0.1026 -0.0051 -0.2820
  143SAPE  H18R15684   3.419   6.637   8.840  0.2313  0.6463  2.3910
  143SAPE  H18S15685   3.538   6.508   8.877  0.0037 -0.5507 -1.4489
  143SAPE  C21915686   3.558   6.612   8.676  0.5154  0.1660 -0.4379
  143SAPE  H19R15687   3.662   6.582   8.651  1.8020  2.8776  1.1695
  143SAPE  H19S15688   3.556   6.720   8.647 -0.2195  0.5200  0.8441
  143SAPE  C22015689   3.437   6.551   8.595 -0.1139 -0.1778  0.5613
  143SAPE  H20R15690   3.340   6.596   8.625  0.0554 -1.8237  4.1051
  143SAPE  H20S15691   3.412   6.450   8.635  0.3597  0.5064  2.6841
  143SAPE  H20T15692   3.465   6.538   8.488  2.6872 -0.9245  1.3096
  143SAPE   C3315693   2.616   6.566  10.049 -0.0574  0.2353 -0.1342
  143SAPE   H3X15694   2.632   6.665  10.096 -0.8431 -0.5312  1.8669
  143SAPE   H3Y15695   2.511   6.546  10.017  0.2030  0.8575 -1.4276
  143SAPE   C3415696   2.712   6.569   9.930  0.1838 -0.2009 -0.1322
  143SAPE   H4X15697   2.818   6.558   9.961 -0.2139 -0.6304  1.1270
  143SAPE   H4Y15698   2.687   6.663   9.877 -0.3815  0.3660  1.1205
  143SAPE   C3515699   2.671   6.451   9.838  0.5354  0.7537 -0.3670
  143SAPE   H5X15700   2.564   6.470   9.814  1.0327  2.2751 -1.6018
  143SAPE   H5Y15701   2.681   6.358   9.897  1.6254  0.3553 -1.1350
  143SAPE   C3615702   2.752   6.448   9.706 -0.4605 -0.5238  0.0984
  143SAPE   H6X15703   2.846   6.390   9.721  1.1368  1.2154 -2.2580
  143SAPE   H6Y15704   2.787   6.549   9.676 -0.9087 -0.2280  0.5560
  143SAPE   C3715705   2.698   6.371   9.580 -0.0101 -0.4896  0.1486
  143SAPE   H7X15706   2.627   6.437   9.527 -0.3511  0.0834  1.2826
  143SAPE   H7Y15707   2.638   6.279   9.597 -0.4973 -0.5477 -1.7505
  143SAPE   C3815708   2.804   6.322   9.481 -0.2961  0.3351 -0.0118
  143SAPE   H8X15709   2.874   6.246   9.523 -1.3065 -0.2611  0.6394
  143SAPE   H8Y15710   2.868   6.408   9.452 -0.3035  0.1104 -0.7109
  143SAPE   C3915711   2.735   6.284   9.348  0.1584  0.7977 -0.0201
  143SAPE   H9X15712   2.686   6.378   9.315 -1.6033 -0.4530 -1.0804
  143SAPE   H9Y15713   2.659   6.205   9.362  0.7516 -0.4891 -3.1550
  143SAPE  C31015714   2.830   6.220   9.248 -0.4553 -0.2011  0.5569
  143SAPE  H10X15715   2.864   6.120   9.284  2.3395  0.0234 -1.1752
  143SAPE  H10Y15716   2.930   6.268   9.244  0.9086 -2.8995 -0.8710
  143SAPE  C31115717   2.781   6.209   9.099  0.5515 -0.0262  0.5785
  143SAPE  H11X15718   2.683   6.158   9.094  0.0798  0.7541  1.5099
  143SAPE  H11Y15719   2.851   6.155   9.031  0.3846  0.9630 -0.3985
  143SAPE  C31215720   2.761   6.344   9.023 -0.2881  1.0084 -0.0139
  143SAPE  H12X15721   2.859   6.396   9.028  0.0632  0.4180 -0.6155
  143SAPE  H12Y15722   2.692   6.398   9.091  1.0633  0.8791  1.5243
  143SAPE  C31315723   2.696   6.333   8.885  0.0167 -0.2881 -0.0065
  143SAPE  H13X15724   2.686   6.441   8.862  0.3749 -0.1411  0.5078
  143SAPE  H13Y15725   2.594   6.291   8.899 -0.8999  1.6086 -0.6600
  143SAPE  C31415726   2.779   6.283   8.765  0.5034  0.2262 -0.6629
  143SAPE  H14X15727   2.762   6.174   8.754  2.9434 -0.2482 -0.3977
  143SAPE  H14Y15728   2.886   6.292   8.793 -0.0459 -0.6356  1.9869
  143SAPE  C31515729   2.748   6.350   8.643  0.3424 -0.1940  0.0537
  143SAPE  H15X15730   2.831   6.315   8.578 -0.9682 -2.1166 -0.6700
  143SAPE  H15Y15731   2.762   6.459   8.658 -1.0588  0.0572 -0.3194
  143SAPE  C31615732   2.612   6.321   8.582 -1.1634 -0.2144 -0.5219
  143SAPE  H16X15733   2.531   6.369   8.641 -0.2749  1.3226 -0.5155
  143SAPE  H16Y15734   2.586   6.216   8.609 -0.6891  0.0347  1.0073
  143SAPE  C31715735   2.594   6.379   8.439 -0.1827  0.7748  0.4405
  143SAPE  H17X15736   2.641   6.479   8.429 -0.6143  1.2928  2.8561
  143SAPE  H17Y15737   2.489   6.382   8.402 -0.1798  1.7912  0.4783
  143SAPE  C31815738   2.655   6.282   8.341  0.2466 -0.1421  0.2614
  143SAPE  H18X15739   2.649   6.320   8.237  0.6907 -0.7138  0.0243
  143SAPE  H18Y15740   2.597   6.188   8.344  0.3551 -0.2704 -1.0133
  143SAPE  H18Z15741   2.762   6.261   8.360  0.5398  0.9281 -0.1157
  144SAPE     N15742   0.837   0.931  10.809  0.5507  0.4855  0.1064
  144SAPE   HN115743   0.934   0.969  10.819  0.7113 -0.2891  1.9706
  144SAPE   HN215744   0.765   1.005  10.822  1.4405  1.7942 -1.9744
  144SAPE   HN315745   0.835   0.857  10.882  0.4431 -0.9750 -1.3203
  144SAPE   C1215746   0.808   0.886  10.670  0.2896  0.2430 -0.0887
  144SAPE  H12A15747   0.870   0.797  10.645  1.9009  1.5068 -0.6999
  144SAPE  H12B15748   0.839   0.968  10.602 -0.7657  0.7181 -0.0164
  144SAPE   C1115749   0.658   0.837  10.657 -0.1678  0.0487  0.2118
  144SAPE  H11A15750   0.652   0.735  10.699 -0.2440 -1.0213 -2.2234
  144SAPE  H11B15751   0.641   0.821  10.549  1.2246  0.4667 -0.0951
  144SAPE     P15752   0.444   0.874  10.797 -0.2091 -0.2655  0.0322
  144SAPE   O1315753   0.491   0.772  10.896  0.4540 -0.1981  0.6082
  144SAPE   O1415754   0.359   0.981  10.847  0.0221 -0.5430  0.1580
  144SAPE   O1215755   0.577   0.936  10.720  0.6485  0.3147 -0.1332
  144SAPE   O1115756   0.385   0.804  10.673 -0.4870 -0.0992  0.0084
  144SAPE    C115757   0.257   0.746  10.687 -0.6408 -0.2925 -0.2893
  144SAPE    HA15758   0.265   0.664  10.762  0.4030  0.2241  0.1804
  144SAPE    HB15759   0.178   0.820  10.713 -0.2794 -0.1717  0.4933
  144SAPE    C215760   0.214   0.694  10.547 -0.2790  0.1646  0.2770
  144SAPE    HS15761   0.111   0.657  10.562 -0.1332 -0.0156  0.8305
  144SAPE   O2115762   0.295   0.581  10.511 -0.5824 -0.5563  0.0233
  144SAPE   C2115763   0.246   0.501  10.417  0.9582  0.8093 -0.3950
  144SAPE   O2215764   0.130   0.492  10.381 -0.1841 -0.0301  0.4008
  144SAPE   C2215765   0.364   0.421  10.370 -0.8294 -0.6527  0.1970
  144SAPE   H2R15766   0.444   0.495  10.350  3.1675 -4.4826  0.4655
  144SAPE   H2S15767   0.403   0.352  10.448 -0.7007 -0.7663  0.0342
  144SAPE    C315768   0.223   0.809  10.440 -0.5559 -0.3139 -0.0022
  144SAPE    HX15769   0.327   0.850  10.433  0.0810 -1.7613  0.6653
  144SAPE    HY15770   0.163   0.883  10.497  0.4335 -2.4624  4.1672
  144SAPE   O3115771   0.175   0.765  10.311  0.2414 -0.8963  0.4280
  144SAPE   C3115772   0.039   0.770  10.299 -0.6872 -0.0312  0.6136
  144SAPE   O3215773  -0.038   0.791  10.389  0.6790 -0.3673  0.1553
  144SAPE   C3215774  -0.007   0.746  10.159 -0.2734 -0.4768  0.4786
  144SAPE   H2X15775   0.051   0.811  10.090  0.4263  1.3025  2.6375
  144SAPE   H2Y15776  -0.114   0.775  10.152 -0.4038 -1.2655 -1.4351
  144SAPE   C2315777   0.350   0.334  10.242  0.1476 -0.3608  0.0954
  144SAPE   H3R15778   0.316   0.394  10.155 -1.0059 -2.6894 -1.1695
  144SAPE   H3S15779   0.261   0.268  10.255  0.1268 -0.2677  0.4391
  144SAPE   C2415780   0.474   0.242  10.218  0.1097 -0.2677 -0.4015
  144SAPE   H4R15781   0.495   0.202  10.320 -1.9204 -1.3600 -0.3580
  144SAPE   H4S15782   0.560   0.306  10.190  1.0812 -0.8985  0.9625
  144SAPE   C2515783   0.454   0.140  10.109  0.0227  0.3025 -0.2313
  144SAPE   H5R15784   0.435   0.039  10.148  2.5831 -1.3764 -2.8946
  144SAPE   C2615785   0.451   0.157   9.969 -0.4810 -0.3280  0.0239
  144SAPE   H6R15786   0.425   0.066   9.913 -2.4752 -0.0843  0.4518
  144SAPE   C2715787   0.473   0.281   9.891 -0.4728 -0.0222 -0.1082
  144SAPE   H7R15788   0.534   0.251   9.803  0.6859  1.0171  0.3136
  144SAPE   H7S15789   0.535   0.353   9.948 -0.3262  0.0487 -0.3580
  144SAPE   C2815790   0.345   0.346   9.843  0.5074  0.0740 -0.3227
  144SAPE   H8R15791   0.273   0.355   9.925  0.8398 -1.3295  0.1504
  144SAPE   C2915792   0.310   0.369   9.714  0.2681  0.4925  0.2713
  144SAPE   H9R15793   0.210   0.412   9.699  0.4230  2.6220  4.0085
  144SAPE  C21015794   0.384   0.329   9.592 -0.4348  0.7305 -0.2185
  144SAPE  H10R15795   0.345   0.227   9.571 -1.1239  0.7513  0.9172
  144SAPE  H10S15796   0.494   0.311   9.601 -0.5815  0.7194  1.7913
  144SAPE  C21115797   0.371   0.423   9.472  0.8895 -0.3772  0.2613
  144SAPE  H11R15798   0.336   0.525   9.493  3.4636  0.2822  1.8300
  144SAPE  C21215799   0.399   0.396   9.339 -0.3245 -0.0811 -0.3218
  144SAPE  H12R15800   0.361   0.475   9.273 -0.1617  1.3631  1.2402
  144SAPE  C21315801   0.433   0.266   9.282 -0.7354 -0.2904  0.6060
  144SAPE  H13R15802   0.340   0.218   9.243 -0.6336 -0.9972  1.1908
  144SAPE  H13S15803   0.467   0.202   9.366 -0.6474 -0.9073  0.1098
  144SAPE  C21415804   0.538   0.258   9.168  0.2255  0.0351 -0.2406
  144SAPE  H14R15805   0.642   0.253   9.205  0.2625  0.7119 -0.2416
  144SAPE  C21515806   0.519   0.242   9.040  0.8390 -0.0937 -0.1661
  144SAPE  H15R15807   0.608   0.209   8.984  3.2177 -0.2717  3.3782
  144SAPE  C21615808   0.398   0.238   8.962  0.3629 -0.6527  0.8526
  144SAPE  H16R15809   0.302   0.225   9.016 -1.5626 -2.8994 -2.7314
  144SAPE  H16S15810   0.395   0.147   8.899 -0.7997 -1.2787  1.7757
  144SAPE  C21715811   0.373   0.370   8.877  0.0350  0.0983  0.2599
  144SAPE  H17R15812   0.362   0.451   8.952 -2.5642  0.5486 -0.5179
  144SAPE  H17S15813   0.274   0.359   8.828  0.3243 -1.3624 -0.0251
  144SAPE  C21815814   0.474   0.409   8.769  0.3508 -0.2674 -1.0783
  144SAPE  H18R15815   0.570   0.430   8.821 -1.3775 -1.3083  2.9376
  144SAPE  H18S15816   0.434   0.507   8.736 -1.0777 -0.8040 -0.9827
  144SAPE  C21915817   0.493   0.301   8.664  0.9936  0.4838 -0.5382
  144SAPE  H19R15818   0.397   0.286   8.610  1.6040  0.7108 -1.7328
  144SAPE  H19S15819   0.519   0.200   8.704  1.3732 -0.1010 -2.1798
  144SAPE  C22015820   0.597   0.345   8.557 -0.7158  0.5735 -0.6301
  144SAPE  H20R15821   0.699   0.336   8.600 -1.5461 -2.4186  1.0328
  144SAPE  H20S15822   0.586   0.452   8.531  3.4176  0.7644 -2.3955
  144SAPE  H20T15823   0.583   0.274   8.473 -0.9166 -2.4414  1.7664
  144SAPE   C3315824  -0.002   0.599  10.121 -0.4221  0.2546 -0.0197
  144SAPE   H3X15825  -0.052   0.536  10.197  1.2234  0.3009  1.1709
  144SAPE   H3Y15826   0.103   0.564  10.112  0.2615  1.7486  1.5813
  144SAPE   C3415827  -0.064   0.584   9.976 -0.0151  0.6639 -0.2218
  144SAPE   H4X15828  -0.172   0.599   9.993 -0.3928 -0.4925 -1.4192
  144SAPE   H4Y15829  -0.064   0.477   9.944  0.4084  0.1061  1.5101
  144SAPE   C3515830  -0.017   0.679   9.862  0.4334  0.2174  0.1213
  144SAPE   H5X15831   0.088   0.708   9.888  0.4876 -0.7876  1.1070
  144SAPE   H5Y15832  -0.079   0.771   9.867 -1.7154 -0.9572 -2.3892
  144SAPE   C3615833  -0.027   0.616   9.722 -0.4592 -1.0098 -0.8588
  144SAPE   H6X15834  -0.131   0.619   9.684 -0.2587  2.0036 -1.3785
  144SAPE   H6Y15835   0.005   0.509   9.717  0.6705 -0.7508  0.3320
  144SAPE   C3715836   0.056   0.691   9.625 -0.3406  0.0206 -0.0425
  144SAPE   H7X15837   0.165   0.702   9.643 -0.3130 -1.8823  1.2550
  144SAPE   H7Y15838   0.024   0.797   9.616 -2.2131 -0.5849 -1.1708
  144SAPE   C3815839   0.034   0.629   9.487  0.1114  0.5885 -0.4611
  144SAPE   H8X15840  -0.073   0.610   9.462 -0.1683 -0.0696  1.0999
  144SAPE   H8Y15841   0.073   0.525   9.489 -3.8981 -1.1084  0.2399
  144SAPE   C3915842   0.099   0.717   9.377  0.0246  0.0044 -0.5376
  144SAPE   H9X15843   0.205   0.749   9.392  0.7737 -1.9062 -1.3268
  144SAPE   H9Y15844   0.048   0.815   9.373 -0.2444 -0.1154 -0.0539
  144SAPE  C31015845   0.095   0.649   9.245 -0.3088  0.7412  0.0545
  144SAPE  H10X15846  -0.013   0.631   9.226 -0.0842  1.1064 -1.7873
  144SAPE  H10Y15847   0.159   0.559   9.247 -1.1284  0.1202 -0.8515
  144SAPE  C31115848   0.141   0.756   9.136  0.2863 -0.1017 -0.3248
  144SAPE  H11X15849   0.246   0.776   9.165  1.0215 -2.9842 -0.6173
  144SAPE  H11Y15850   0.081   0.849   9.137 -1.8681 -1.3744 -1.6347
  144SAPE  C31215851   0.133   0.688   8.995 -0.3531 -0.0487  0.0767
  144SAPE  H12X15852   0.030   0.660   8.963 -0.1776  1.5985 -2.1203
  144SAPE  H12Y15853   0.191   0.594   8.993  0.1130  0.2360  0.1717
  144SAPE  C31315854   0.187   0.781   8.884  0.6424  0.6040 -0.0052
  144SAPE  H13X15855   0.153   0.885   8.904  0.6718  0.4422  0.9305
  144SAPE  H13Y15856   0.151   0.747   8.784 -0.2014 -1.0739  0.8332
  144SAPE  C31415857   0.341   0.790   8.891  0.0048 -0.4727 -0.0713
  144SAPE  H14X15858   0.386   0.689   8.884  1.7629  0.3483 -1.0460
  144SAPE  H14Y15859   0.367   0.834   8.990 -1.6635  1.3484 -0.3903
  144SAPE  C31515860   0.394   0.878   8.780 -0.0368 -0.2555 -0.2705
  144SAPE  H15X15861   0.444   0.969   8.817 -1.5808  0.2073  0.7696
  144SAPE  H15Y15862   0.309   0.915   8.718  0.0298  1.0145  0.3610
  144SAPE  C31615863   0.482   0.802   8.680 -0.2046  0.2861  0.0316
  144SAPE  H16X15864   0.504   0.875   8.598 -3.2867  0.9081 -0.3365
  144SAPE  H16Y15865   0.438   0.714   8.629 -0.1223 -1.6501  3.0919
  144SAPE  C31715866   0.619   0.774   8.741 -0.3672  0.1563  0.3733
  144SAPE  H17X15867   0.617   0.700   8.824  1.2488 -1.3658 -0.8554
  144SAPE  H17Y15868   0.653   0.871   8.784  1.1099 -0.4944  0.7567
  144SAPE  C31815869   0.729   0.741   8.643 -0.8063 -0.0476 -0.5213
  144SAPE  H18X15870   0.704   0.655   8.577  0.1849 -2.4110  2.0058
  144SAPE  H18Y15871   0.820   0.710   8.698  0.3571  3.1728 -0.4000
  144SAPE  H18Z15872   0.758   0.824   8.575  0.8357  0.5003  0.8013
  145SAPE     N15873   2.646   4.279  10.907 -0.0969  0.5939 -0.6368
  145SAPE   HN115874   2.550   4.313  10.885  0.2663  0.2540 -3.0856
  145SAPE   HN215875   2.660   4.256  11.007 -0.2018 -3.1472 -1.3401
  145SAPE   HN315876   2.716   4.353  10.887 -0.9929  1.2061 -1.6362
  145SAPE   C1215877   2.673   4.142  10.840 -0.3740 -0.2306 -0.2850
  145SAPE  H12A15878   2.764   4.100  10.886  0.1052 -1.1917 -2.0071
  145SAPE  H12B15879   2.698   4.170  10.735 -0.5210  3.1681  0.4568
  145SAPE   C1115880   2.559   4.046  10.859  0.1510  0.2040 -0.3264
  145SAPE  H11A15881   2.566   3.950  10.803 -3.1352 -0.3699  0.0390
  145SAPE  H11B15882   2.464   4.092  10.825 -0.0497 -1.3038 -1.9612
  145SAPE     P15883   2.535   3.873  11.060 -0.0755  0.6246  0.4861
  145SAPE   O1315884   2.654   3.843  11.138  0.3733  0.3824  0.4445
  145SAPE   O1415885   2.407   3.873  11.134  0.5046 -0.1367  0.0020
  145SAPE   O1215886   2.556   4.015  10.992 -0.4409  0.4159  0.4994
  145SAPE   O1115887   2.526   3.781  10.937  0.4412  0.5211 -0.6222
  145SAPE    C115888   2.604   3.663  10.916  0.0417  0.1940 -0.1031
  145SAPE    HA15889   2.631   3.615  11.013 -3.6860 -2.2837 -0.0954
  145SAPE    HB15890   2.548   3.580  10.869 -0.7389  0.6844 -0.0471
  145SAPE    C215891   2.726   3.678  10.824  0.5700 -0.8409 -0.1389
  145SAPE    HS15892   2.787   3.743  10.890 -2.5279  0.3718  1.7846
  145SAPE   O2115893   2.676   3.749  10.709  0.1222  0.5269 -1.4098
  145SAPE   C2115894   2.770   3.777  10.619 -0.2024  0.0322 -0.1214
  145SAPE   O2215895   2.888   3.789  10.653 -0.0105 -0.2506  0.4559
  145SAPE   C2215896   2.714   3.794  10.472  0.0758 -0.4158  0.5771
  145SAPE   H2R15897   2.681   3.693  10.438  0.5317 -0.2361 -0.4447
  145SAPE   H2S15898   2.636   3.872  10.475  1.8040  1.5770 -1.8503
  145SAPE    C315899   2.801   3.541  10.800 -0.4549  0.5997 -0.6117
  145SAPE    HX15900   2.843   3.524  10.901  0.9611  0.9053 -1.1368
  145SAPE    HY15901   2.887   3.559  10.732 -0.0204  1.8836  0.2514
  145SAPE   O3115902   2.716   3.435  10.750  0.4352 -0.3395  0.1300
  145SAPE   C3115903   2.722   3.416  10.613 -1.1140 -0.1134  0.1091
  145SAPE   O3215904   2.796   3.483  10.544 -0.3468 -0.1133 -1.0092
  145SAPE   C3215905   2.640   3.296  10.572  0.4672 -0.3127  0.5955
  145SAPE   H2X15906   2.532   3.320  10.584  1.0693  1.5841  2.9065
  145SAPE   H2Y15907   2.665   3.208  10.635 -1.4747 -1.4366 -0.1224
  145SAPE   C2315908   2.832   3.839  10.380  0.0928 -0.1651 -0.2264
  145SAPE   H3R15909   2.926   3.781  10.393  1.5334  2.0852 -0.1144
  145SAPE   H3S15910   2.857   3.944  10.406  0.8291 -0.4909  0.4202
  145SAPE   C2415911   2.802   3.832  10.228  0.3330 -0.0202 -0.2893
  145SAPE   H4R15912   2.724   3.906  10.203 -0.9204 -0.8024  1.1267
  145SAPE   H4S15913   2.760   3.730  10.212 -0.2159  0.3152 -1.0197
  145SAPE   C2515914   2.918   3.852  10.136 -0.6481  0.8434  0.0771
  145SAPE   H5R15915   3.002   3.912  10.174  0.2355 -0.4605  0.2527
  145SAPE   C2615916   2.926   3.801  10.013 -0.0953  0.3571  0.2510
  145SAPE   H6R15917   3.002   3.829   9.939 -1.4507 -2.4884 -2.4529
  145SAPE   C2715918   2.822   3.713   9.943 -0.1275 -0.0291  0.2559
  145SAPE   H7R15919   2.796   3.753   9.842  0.1920 -3.9956 -1.6044
  145SAPE   H7S15920   2.728   3.704  10.001  0.0091 -0.7975  0.3691
  145SAPE   C2815921   2.886   3.578   9.939  0.3460  0.3556 -0.1859
  145SAPE   H8R15922   2.919   3.531  10.033  1.5225 -1.2660 -1.3414
  145SAPE   C2915923   2.909   3.505   9.822 -0.4161  0.0653 -0.0939
  145SAPE   H9R15924   2.963   3.410   9.823 -0.7935 -0.2424 -2.4806
  145SAPE  C21015925   2.874   3.558   9.687 -0.5022 -0.0000 -0.1373
  145SAPE  H10R15926   2.932   3.652   9.672 -1.5684  0.3964 -2.0885
  145SAPE  H10S15927   2.765   3.577   9.681 -0.8074 -1.7722 -0.6854
  145SAPE  C21115928   2.892   3.450   9.580 -0.8794 -0.1645 -0.2812
  145SAPE  H11R15929   2.848   3.353   9.607  0.5753 -1.2074 -1.5127
  145SAPE  C21215930   2.957   3.466   9.464  0.1092  0.5593 -0.2725
  145SAPE  H12R15931   2.962   3.380   9.395  0.3444 -0.0399  0.4772
  145SAPE  C21315932   3.039   3.583   9.419  0.2728 -0.6992  0.4733
  145SAPE  H13R15933   3.007   3.669   9.481  0.1143 -0.2452 -0.2350
  145SAPE  H13S15934   3.030   3.618   9.314  1.8882 -1.2433  0.1171
  145SAPE  C21415935   3.182   3.556   9.446 -0.6716 -0.7514 -0.4418
  145SAPE  H14R15936   3.215   3.603   9.540 -1.5364 -1.3558  0.1825
  145SAPE  C21515937   3.272   3.490   9.365  0.6744 -0.3107  0.5579
  145SAPE  H15R15938   3.380   3.489   9.387  0.5339 -1.0391  1.2817
  145SAPE  C21615939   3.237   3.425   9.234  0.0089 -0.0966 -0.0231
  145SAPE  H16R15940   3.130   3.401   9.212  0.3299 -1.0240 -0.6585
  145SAPE  H16S15941   3.287   3.326   9.242 -0.0001 -0.3447 -2.4790
  145SAPE  C21715942   3.295   3.471   9.102  0.1723 -0.4506 -0.0381
  145SAPE  H17R15943   3.260   3.573   9.078 -0.7553 -0.1432  2.3792
  145SAPE  H17S15944   3.261   3.397   9.026 -0.7048  0.0088 -0.1071
  145SAPE  C21815945   3.448   3.467   9.117  0.5283  0.3780  0.9639
  145SAPE  H18R15946   3.467   3.367   9.162 -1.6125  0.0967  1.3693
  145SAPE  H18S15947   3.473   3.548   9.188  1.4986  1.7025 -0.8034
  145SAPE  C21915948   3.523   3.489   8.974 -0.8048  0.1957  0.7666
  145SAPE  H19R15949   3.476   3.577   8.926  0.7785  1.1086  0.8259
  145SAPE  H19S15950   3.520   3.408   8.899  3.2899 -1.1252  1.7873
  145SAPE  C22015951   3.673   3.527   9.001 -0.1460 -0.3949 -0.6754
  145SAPE  H20R15952   3.712   3.535   8.898 -0.0988  1.3170 -0.5454
  145SAPE  H20S15953   3.734   3.460   9.065 -0.9346  1.1649  1.8681
  145SAPE  H20T15954   3.686   3.628   9.045 -1.7340 -0.2401 -0.4956
  145SAPE   C3315955   2.644   3.255  10.417  0.7288  0.1240 -0.0661
  145SAPE   H3X15956   2.589   3.158  10.419  0.7404  0.1132 -0.2513
  145SAPE   H3Y15957   2.748   3.228  10.390 -0.1861 -2.5427 -1.2545
  145SAPE   C3415958   2.590   3.354  10.313 -0.1117 -0.5478 -0.1828
  145SAPE   H4X15959   2.666   3.431  10.290 -0.8196  0.6370  1.2987
  145SAPE   H4Y15960   2.500   3.398  10.362 -0.6343 -1.5037 -0.2575
  145SAPE   C3515961   2.540   3.288  10.187  0.2428  0.4193 -0.1980
  145SAPE   H5X15962   2.486   3.201  10.231  1.9179 -0.6073 -0.1176
  145SAPE   H5Y15963   2.624   3.243  10.130  1.7287  1.9276  0.7089
  145SAPE   C3615964   2.449   3.382  10.103  0.1277  1.0325 -1.1634
  145SAPE   H6X15965   2.491   3.480  10.073 -0.0710  0.5461 -3.1791
  145SAPE   H6Y15966   2.363   3.403  10.170  0.9801 -2.0325  1.1156
  145SAPE   C3715967   2.391   3.312   9.981 -0.1336 -0.5378  0.4615
  145SAPE   H7X15968   2.307   3.379   9.952  1.1118  1.1929  0.6697
  145SAPE   H7Y15969   2.364   3.206  10.001 -0.4360 -0.7188 -0.8024
  145SAPE   C3815970   2.480   3.328   9.855 -0.4862 -0.8021 -0.4073
  145SAPE   H8X15971   2.573   3.269   9.871  0.3358  0.8833  1.3365
  145SAPE   H8Y15972   2.517   3.432   9.848  0.3790 -1.1191 -0.6938
  145SAPE   C3915973   2.418   3.278   9.728 -0.3866  0.3351  0.3930
  145SAPE   H9X15974   2.340   3.352   9.697 -2.1163 -0.4494  2.6223
  145SAPE   H9Y15975   2.367   3.180   9.741  1.5971 -0.8687 -0.4257
  145SAPE  C31015976   2.522   3.259   9.619 -0.1805  0.7396  0.2814
  145SAPE  H10X15977   2.593   3.190   9.668 -0.8861 -0.8263 -0.8121
  145SAPE  H10Y15978   2.558   3.364   9.609 -1.6296  1.4313  1.8254
  145SAPE  C31115979   2.462   3.196   9.486  1.1627  0.2611 -1.0416
  145SAPE  H11X15980   2.414   3.098   9.503  0.6479  0.2829 -2.2743
  145SAPE  H11Y15981   2.535   3.180   9.404 -0.8093 -0.0494 -2.8306
  145SAPE  C31215982   2.353   3.285   9.414  0.2550  0.0324  0.6676
  145SAPE  H12X15983   2.388   3.377   9.363 -0.8111 -0.2745 -0.6760
  145SAPE  H12Y15984   2.288   3.332   9.491 -3.8044 -1.9612 -1.2536
  145SAPE  C31315985   2.265   3.213   9.311 -0.2243 -0.2248 -0.0558
  145SAPE  H13X15986   2.175   3.277   9.298 -1.0994 -0.5564  3.3986
  145SAPE  H13Y15987   2.231   3.120   9.362 -0.1689 -1.3490 -1.9820
  145SAPE  C31415988   2.331   3.173   9.176 -0.1729 -0.3003 -0.2071
  145SAPE  H14X15989   2.274   3.082   9.148 -0.7048 -0.5171  1.4441
  145SAPE  H14Y15990   2.435   3.142   9.200 -0.2785 -2.2798 -1.9784
  145SAPE  C31515991   2.312   3.278   9.061 -0.6086 -0.1807  0.0227
  145SAPE  H15X15992   2.400   3.346   9.062  1.3307 -2.5364  0.7961
  145SAPE  H15Y15993   2.216   3.332   9.068 -0.1678  0.6891 -0.4619
  145SAPE  C31615994   2.317   3.223   8.917  0.5591 -0.0266  0.0720
  145SAPE  H16X15995   2.418   3.183   8.895  0.0944 -1.9863  1.2153
  145SAPE  H16Y15996   2.303   3.313   8.854 -3.8308 -1.3241 -1.2340
  145SAPE  C31715997   2.210   3.119   8.881 -0.5299 -0.7527  0.7626
  145SAPE  H17X15998   2.109   3.162   8.899 -0.2268  0.6236 -0.6227
  145SAPE  H17Y15999   2.215   3.029   8.946 -1.3784 -3.1590 -2.2607
  145SAPE  C31816000   2.209   3.063   8.741 -0.3155 -1.0140 -0.9614
  145SAPE  H18X16001   2.313   3.032   8.715  0.4267  1.4484 -1.1529
  145SAPE  H18Y16002   2.178   3.135   8.663 -2.1634 -0.0126  0.6346
  145SAPE  H18Z16003   2.153   2.968   8.726 -0.8770 -0.6474 -1.1989
  146SAPE     N16004   1.568   1.442  11.460 -0.2104  0.1976  0.3770
  146SAPE   HN116005   1.503   1.410  11.386 -1.3021 -0.8075  1.7140
  146SAPE   HN216006   1.591   1.358  11.516  0.1154 -1.0635 -1.5431
  146SAPE   HN316007   1.520   1.513  11.518  2.0613  1.8549  0.3767
  146SAPE   C1216008   1.698   1.499  11.396  0.4784 -0.7313 -0.0805
  146SAPE  H12A16009   1.770   1.419  11.369  0.1547 -0.3857 -2.1463
  146SAPE  H12B16010   1.735   1.555  11.485 -3.2967  0.6280  0.8414
  146SAPE   C1116011   1.671   1.602  11.280 -0.2925  0.0027 -0.4358
  146SAPE  H11A16012   1.771   1.641  11.254  0.2426 -1.2550 -0.3427
  146SAPE  H11B16013   1.612   1.689  11.315  2.5665  1.3906  1.2334
  146SAPE     P16014   1.657   1.435  11.071  0.1260 -0.1044  0.5290
  146SAPE   O1316015   1.709   1.318  11.151 -0.3550 -0.0602  0.5378
  146SAPE   O1416016   1.554   1.414  10.968  0.4788  0.3254 -0.5454
  146SAPE   O1216017   1.600   1.531  11.180  0.1614 -0.1131 -0.3105
  146SAPE   O1116018   1.779   1.519  11.012 -0.4842 -0.7956 -0.1235
  146SAPE    C116019   1.775   1.656  10.977 -0.0432  0.3950  0.1940
  146SAPE    HA16020   1.704   1.712  11.042 -0.9733  0.7975 -1.1357
  146SAPE    HB16021   1.876   1.699  10.992  0.9070 -0.6078 -2.6246
  146SAPE    C216022   1.735   1.683  10.834 -0.0101 -0.4341 -0.0763
  146SAPE    HS16023   1.626   1.664  10.832 -0.4691  1.8870 -2.8374
  146SAPE   O2116024   1.822   1.599  10.749 -0.7980  0.2497  0.2245
  146SAPE   C2116025   1.769   1.557  10.644  0.1385 -0.4792  0.5859
  146SAPE   O2216026   1.649   1.539  10.618  0.5502 -0.1212 -0.1500
  146SAPE   C2216027   1.887   1.544  10.540  0.4528  0.2932  0.3382
  146SAPE   H2R16028   1.892   1.636  10.478 -0.7406 -1.0178 -1.8383
  146SAPE   H2S16029   1.988   1.522  10.579  0.6685  2.2892  1.0638
  146SAPE    C316030   1.764   1.830  10.798 -0.8437 -0.3139 -0.2715
  146SAPE    HX16031   1.871   1.854  10.812 -1.2881  2.0061 -0.2982
  146SAPE    HY16032   1.717   1.899  10.872 -0.4537 -0.5734  0.2281
  146SAPE   O3116033   1.738   1.856  10.662  0.5757 -0.0745 -0.9290
  146SAPE   C3116034   1.600   1.878  10.644 -0.7539 -0.1211 -0.3656
  146SAPE   O3216035   1.522   1.881  10.738 -0.0374  0.0132  0.1580
  146SAPE   C3216036   1.583   1.916  10.496 -0.3855 -0.1110  0.2779
  146SAPE   H2X16037   1.642   2.010  10.489  2.9716 -2.1069  0.2358
  146SAPE   H2Y16038   1.477   1.945  10.480 -0.2582  1.1439  1.5105
  146SAPE   C2316039   1.852   1.445  10.425  0.1066 -0.2966  0.1929
  146SAPE   H3R16040   1.775   1.376  10.466  0.5040  0.1798  1.8267
  146SAPE   H3S16041   1.939   1.384  10.393 -0.8146 -1.3521 -0.3828
  146SAPE   C2416042   1.785   1.523  10.317  0.2426  0.1554 -0.0290
  146SAPE   H4R16043   1.841   1.613  10.283  1.0335 -0.3148  0.0169
  146SAPE   H4S16044   1.697   1.576  10.359  1.1505  0.3327  1.7041
  146SAPE   C2516045   1.744   1.441  10.195 -0.3833  0.4386 -0.1832
  146SAPE   H5R16046   1.661   1.373  10.219 -0.1464  0.1223 -0.2564
  146SAPE   C2616047   1.785   1.457  10.068  0.1658  0.5225  0.7971
  146SAPE   H6R16048   1.749   1.378  10.000 -2.1755 -0.1167  2.6139
  146SAPE   C2716049   1.900   1.551  10.017  0.0507  0.2308 -0.1019
  146SAPE   H7R16050   1.982   1.549  10.092 -0.0862 -1.0671  0.0338
  146SAPE   H7S16051   1.866   1.656  10.020 -0.5020  0.0653 -0.6184
  146SAPE   C2816052   1.952   1.515   9.879  0.0894  0.7963  0.0952
  146SAPE   H8R16053   1.999   1.416   9.874 -3.3967 -0.9397 -1.5227
  146SAPE   C2916054   1.933   1.579   9.759  0.0752  0.1719  0.0314
  146SAPE   H9R16055   1.970   1.537   9.664 -0.0271 -1.1932  0.5857
  146SAPE  C21016056   1.853   1.708   9.744  0.1208 -0.8657  0.2752
  146SAPE  H10R16057   1.806   1.732   9.841  0.3319 -0.3119  0.2495
  146SAPE  H10S16058   1.763   1.702   9.680 -0.0165  1.1906  0.1899
  146SAPE  C21116059   1.936   1.828   9.692 -0.0371 -0.2595 -0.0630
  146SAPE  H11R16060   1.993   1.868   9.777  1.2830  3.4485 -2.4388
  146SAPE  C21216061   1.969   1.867   9.570  0.3305 -0.3960  0.2211
  146SAPE  H12R16062   2.026   1.961   9.573  0.5219 -0.4276 -1.4602
  146SAPE  C21316063   1.933   1.815   9.434 -0.0759  0.4629 -0.6909
  146SAPE  H13R16064   1.922   1.901   9.364  2.0591  1.3571 -0.0199
  146SAPE  H13S16065   1.836   1.762   9.432 -0.9773  1.9782 -3.6823
  146SAPE  C21416066   2.040   1.717   9.385  0.1577  0.1315 -0.3640
  146SAPE  H14R16067   2.042   1.618   9.431  0.0312  0.3486  0.1137
  146SAPE  C21516068   2.124   1.735   9.280  0.3125  0.3901  0.0769
  146SAPE  H15R16069   2.191   1.652   9.254 -1.2773 -0.5985 -1.0176
  146SAPE  C21616070   2.140   1.854   9.199 -0.0569 -0.5667 -0.0128
  146SAPE  H16R16071   2.239   1.892   9.235 -0.3395 -0.0936  0.2835
  146SAPE  H16S16072   2.055   1.925   9.207  0.0291 -0.5638  1.1880
  146SAPE  C21716073   2.169   1.841   9.050  0.0869 -0.1331  0.2180
  146SAPE  H17R16074   2.158   1.936   8.993 -1.9351 -1.2833 -1.4578
  146SAPE  H17S16075   2.096   1.776   8.997  1.6555 -0.2095 -1.9958
  146SAPE  C21816076   2.307   1.783   9.015  0.3244 -0.2815 -0.0283
  146SAPE  H18R16077   2.309   1.672   9.000  2.6568  0.0514 -3.1493
  146SAPE  H18S16078   2.381   1.822   9.088  0.8388  1.7488 -1.5568
  146SAPE  C21916079   2.354   1.852   8.885 -0.4948 -0.4010  0.2995
  146SAPE  H19R16080   2.464   1.836   8.877 -0.3183  0.8298  0.0313
  146SAPE  H19S16081   2.341   1.962   8.898  2.9137  0.8300 -4.1088
  146SAPE  C22016082   2.297   1.810   8.748 -0.0889 -0.5111 -0.5376
  146SAPE  H20R16083   2.269   1.703   8.743 -0.1733 -0.5053 -0.2233
  146SAPE  H20S16084   2.364   1.838   8.664  0.1969 -0.3957 -0.2749
  146SAPE  H20T16085   2.216   1.881   8.722  0.1050  0.0306  0.3173
  146SAPE   C3316086   1.643   1.818  10.398  0.4406  1.0337  0.4528
  146SAPE   H3X16087   1.579   1.728  10.387  2.0599 -0.1670  0.5177
  146SAPE   H3Y16088   1.735   1.773  10.440 -0.0797 -1.2696 -0.6875
  146SAPE   C3416089   1.658   1.878  10.253  0.1119  0.4173 -0.1698
  146SAPE   H4X16090   1.739   1.819  10.204 -1.1463 -0.6334 -1.0361
  146SAPE   H4Y16091   1.687   1.985  10.261 -3.6884  1.4642  1.8610
  146SAPE   C3516092   1.528   1.867  10.172 -0.2930  0.2159 -1.1485
  146SAPE   H5X16093   1.454   1.931  10.224  1.4883  0.9718  0.5959
  146SAPE   H5Y16094   1.479   1.770  10.192  0.6386  0.4374  3.1269
  146SAPE   C3616095   1.531   1.897  10.021  0.8765 -0.1532  0.2578
  146SAPE   H6X16096   1.587   1.823   9.962  0.5526 -1.9850  2.1221
  146SAPE   H6Y16097   1.586   1.992  10.001 -0.5586  1.0810  1.7605
  146SAPE   C3716098   1.397   1.923   9.960 -0.4690 -0.1810 -0.5042
  146SAPE   H7X16099   1.366   2.019  10.008  0.0403 -0.8478  1.2497
  146SAPE   H7Y16100   1.323   1.846   9.991  0.0108 -0.0804  0.9954
  146SAPE   C3816101   1.392   1.919   9.811 -0.5549  0.8991  0.1245
  146SAPE   H8X16102   1.489   1.953   9.770 -0.5420  1.2937  0.4826
  146SAPE   H8Y16103   1.311   1.985   9.775 -0.5537  0.8547  0.0414
  146SAPE   C3916104   1.377   1.774   9.757  0.2927 -0.1245 -0.3000
  146SAPE   H9X16105   1.274   1.733   9.752  0.2561 -0.2416  0.9686
  146SAPE   H9Y16106   1.432   1.713   9.832  0.1733  2.4133  2.0219
  146SAPE  C31016107   1.448   1.753   9.625 -0.5878  0.1841 -0.1057
  146SAPE  H10X16108   1.463   1.643   9.618  1.7320  0.2513  2.1437
  146SAPE  H10Y16109   1.547   1.803   9.625 -0.2420 -0.4546 -1.5131
  146SAPE  C31116110   1.359   1.814   9.517 -0.4328  0.2023  0.1512
  146SAPE  H11X16111   1.322   1.915   9.544 -0.5486 -0.1934  1.5433
  146SAPE  H11Y16112   1.269   1.755   9.488  0.6750 -0.2594 -2.7113
  146SAPE  C31216113   1.437   1.837   9.384  0.0318  0.3290 -0.0945
  146SAPE  H12X16114   1.375   1.894   9.313 -0.3196 -2.3249 -2.0706
  146SAPE  H12Y16115   1.448   1.737   9.338  1.9691  0.6600 -0.4426
  146SAPE  C31316116   1.572   1.902   9.391  1.1758  1.3324 -0.0963
  146SAPE  H13X16117   1.637   1.822   9.434  0.0556 -0.7878 -2.1151
  146SAPE  H13Y16118   1.583   1.998   9.446  1.1108  1.5032 -0.3796
  146SAPE  C31416119   1.636   1.934   9.258 -0.1320  0.6511  0.3121
  146SAPE  H14X16120   1.736   1.973   9.285  0.5757 -0.4755 -0.5948
  146SAPE  H14Y16121   1.577   2.014   9.208 -0.8907 -0.6076 -0.8675
  146SAPE  C31516122   1.673   1.813   9.169  0.4753 -0.2213  0.3563
  146SAPE  H15X16123   1.572   1.773   9.148  0.0532  1.1077 -0.2680
  146SAPE  H15Y16124   1.737   1.738   9.220  1.3225  0.0092 -0.3414
  146SAPE  C31616125   1.759   1.860   9.049  0.0057  0.3749  0.9282
  146SAPE  H16X16126   1.852   1.905   9.090 -0.7394 -0.1637  3.4115
  146SAPE  H16Y16127   1.707   1.941   8.994  1.5867  0.5855 -0.3117
  146SAPE  C31716128   1.800   1.749   8.946  1.0078 -0.0083 -0.0191
  146SAPE  H17X16129   1.868   1.678   8.996  0.8052 -0.3966 -0.2898
  146SAPE  H17Y16130   1.862   1.800   8.869  1.9844 -0.1007  0.6836
  146SAPE  C31816131   1.686   1.657   8.899 -0.2649 -0.0546  0.4485
  146SAPE  H18X16132   1.650   1.600   8.988 -2.0475  0.3870  0.0402
  146SAPE  H18Y16133   1.726   1.577   8.834 -1.7107 -1.5369  1.3047
  146SAPE  H18Z16134   1.599   1.707   8.850  0.4445 -0.7837 -1.6740
  147SAPE     N16135   0.531   0.090   6.064  0.6229  0.2308  0.0092
  147SAPE   HN116136   0.551   0.136   5.973 -1.0876 -3.4701 -2.4763
  147SAPE   HN216137   0.427   0.092   6.071  0.6447 -0.6794  0.9905
  147SAPE   HN316138   0.567   0.140   6.148 -1.8927  0.3915  1.0845
  147SAPE   C1216139   0.598  -0.043   6.068 -0.2057  0.1598  0.2694
  147SAPE  H12A16140   0.699  -0.031   6.112 -0.2801 -1.6071  1.0365
  147SAPE  H12B16141   0.613  -0.078   5.963  1.4890  2.7260 -0.4299
  147SAPE   C1116142   0.510  -0.132   6.154 -0.1784  0.7365 -0.2851
  147SAPE  H11A16143   0.513  -0.102   6.260 -2.0777 -1.6178  0.5367
  147SAPE  H11B16144   0.559  -0.232   6.156 -3.9910 -1.3234  1.0095
  147SAPE     P16145   0.250  -0.204   6.187  0.3352  0.3958  0.0895
  147SAPE   O1316146   0.171  -0.100   6.252  0.1074  0.2451 -0.0062
  147SAPE   O1416147   0.179  -0.292   6.092  0.8884  0.1337  0.2942
  147SAPE   O1216148   0.368  -0.139   6.103  0.2377 -0.5803  0.5730
  147SAPE   O1116149   0.328  -0.284   6.296 -0.1900  0.5713 -0.0499
  147SAPE    C116150   0.322  -0.434   6.299  0.2312 -0.9727  0.3791
  147SAPE    HA16151   0.297  -0.473   6.198 -0.7767 -0.4116  0.4010
  147SAPE    HB16152   0.419  -0.478   6.329  1.3695  0.8614 -0.4269
  147SAPE    C216153   0.206  -0.477   6.393 -0.3506  0.4655  0.7676
  147SAPE    HS16154   0.125  -0.401   6.380 -0.1397  0.7651  1.1920
  147SAPE   O2116155   0.251  -0.487   6.528  1.2232 -0.3169 -0.4584
  147SAPE   C2116156   0.238  -0.374   6.609  0.0163 -0.5601 -0.1835
  147SAPE   O2216157   0.169  -0.276   6.572  0.0505  0.0041 -0.0992
  147SAPE   C2216158   0.315  -0.385   6.741 -0.4166 -0.4605  0.0191
  147SAPE   H2R16159   0.377  -0.477   6.732 -0.6936 -0.8457  1.7751
  147SAPE   H2S16160   0.378  -0.294   6.748 -1.8492  0.9186 -2.8995
  147SAPE    C316161   0.150  -0.618   6.351  0.1447 -0.6682  0.7067
  147SAPE    HX16162   0.234  -0.690   6.359 -0.1987 -1.0945  0.5162
  147SAPE    HY16163   0.103  -0.605   6.251 -0.4620  0.1296  1.0882
  147SAPE   O3116164   0.045  -0.667   6.435  0.3411 -0.3076 -0.1877
  147SAPE   C3116165  -0.074  -0.612   6.428  0.6075  0.4094 -0.3408
  147SAPE   O3216166  -0.108  -0.540   6.333  0.2518 -0.0974  0.5633
  147SAPE   C3216167  -0.159  -0.658   6.542  0.5342 -0.0124 -0.3092
  147SAPE   H2X16168  -0.085  -0.683   6.621  0.4259  1.3291  0.2515
  147SAPE   H2Y16169  -0.222  -0.743   6.508 -0.9011  0.5214  0.8811
  147SAPE   C2316170   0.219  -0.390   6.860 -0.1306  0.2714  0.3966
  147SAPE   H3R16171   0.146  -0.473   6.846  1.1169 -0.6341 -1.1338
  147SAPE   H3S16172   0.160  -0.296   6.869 -0.8405 -0.0391 -0.7696
  147SAPE   C2416173   0.284  -0.423   7.003  0.1485 -0.3708  0.4313
  147SAPE   H4R16174   0.338  -0.337   7.048 -0.8308  0.4054  0.1666
  147SAPE   H4S16175   0.360  -0.503   6.998  0.3751 -0.0999 -0.4445
  147SAPE   C2516176   0.181  -0.486   7.102  0.1771  0.2267 -0.1210
  147SAPE   H5R16177   0.174  -0.594   7.083  1.4529  0.0351  0.3442
  147SAPE   C2616178   0.110  -0.430   7.201  0.1010 -0.2152  0.3763
  147SAPE   H6R16179   0.040  -0.493   7.257 -1.3899 -0.2531 -1.4345
  147SAPE   C2716180   0.112  -0.284   7.244  0.1671  0.5135 -0.4669
  147SAPE   H7R16181   0.184  -0.223   7.185  0.1414 -0.4926 -1.5791
  147SAPE   H7S16182   0.133  -0.282   7.353 -1.8837  0.8344 -0.0345
  147SAPE   C2816183  -0.024  -0.214   7.233  0.2923  0.8995 -0.2117
  147SAPE   H8R16184  -0.030  -0.142   7.150 -2.6263  1.4667  0.3908
  147SAPE   C2916185  -0.121  -0.215   7.326 -0.7076 -0.0199 -0.5747
  147SAPE   H9R16186  -0.212  -0.161   7.294 -1.3894 -0.2599  0.8591
  147SAPE  C21016187  -0.132  -0.292   7.457 -0.3245  0.3826  0.0166
  147SAPE  H10R16188  -0.030  -0.326   7.486 -1.3020 -1.2525  1.7686
  147SAPE  H10S16189  -0.190  -0.386   7.445  1.6059 -0.6839 -1.5303
  147SAPE  C21116190  -0.203  -0.207   7.566 -0.2882 -0.5516 -0.3412
  147SAPE  H11R16191  -0.273  -0.131   7.529  0.6037  0.2349 -0.4700
  147SAPE  C21216192  -0.179  -0.220   7.700 -0.4499 -0.0253  0.3692
  147SAPE  H12R16193  -0.229  -0.158   7.776  1.0108 -2.3124  3.4487
  147SAPE  C21316194  -0.086  -0.313   7.762 -0.0964 -0.9187  0.6174
  147SAPE  H13R16195  -0.086  -0.395   7.687 -0.7315  0.0977 -0.5085
  147SAPE  H13S16196  -0.140  -0.358   7.849 -3.3023 -0.1694 -0.8500
  147SAPE  C21416197   0.053  -0.262   7.793 -0.3501  0.6006 -0.4339
  147SAPE  H14R16198   0.094  -0.192   7.718 -1.0581 -1.1502 -2.5654
  147SAPE  C21516199   0.122  -0.317   7.894  0.4095 -0.1401 -0.2117
  147SAPE  H15R16200   0.226  -0.288   7.913  0.3867 -0.8865  1.2042
  147SAPE  C21616201   0.090  -0.431   7.988 -0.0622  0.7786 -0.2569
  147SAPE  H16R16202   0.018  -0.504   7.945 -2.0769  1.9338  1.0093
  147SAPE  H16S16203   0.044  -0.393   8.082 -0.5271  2.3268 -1.0752
  147SAPE  C21716204   0.226  -0.497   8.026  0.3888 -0.0408  0.0596
  147SAPE  H17R16205   0.276  -0.523   7.930  0.5227 -0.7006  0.3085
  147SAPE  H17S16206   0.216  -0.600   8.066  0.2371 -0.3231 -0.6931
  147SAPE  C21816207   0.297  -0.425   8.143 -0.1535  0.0061  0.5558
  147SAPE  H18R16208   0.224  -0.379   8.215  0.0504  0.3631  0.5372
  147SAPE  H18S16209   0.344  -0.329   8.113  0.9503 -0.1638  1.6819
  147SAPE  C21916210   0.399  -0.519   8.207 -0.2883  0.3408  0.6366
  147SAPE  H19R16211   0.472  -0.561   8.135  0.2469 -0.6327  1.7315
  147SAPE  H19S16212   0.349  -0.605   8.255 -0.2517 -0.4361 -0.6619
  147SAPE  C22016213   0.477  -0.454   8.325 -0.2455 -0.2218  0.4266
  147SAPE  H20R16214   0.518  -0.360   8.282  0.7731 -0.3080  1.1857
  147SAPE  H20S16215   0.560  -0.517   8.363  0.7052  1.7907  1.9097
  147SAPE  H20T16216   0.403  -0.430   8.405  0.9946 -1.2303  1.9334
  147SAPE   C3316217  -0.253  -0.544   6.584  0.0217 -0.2194 -0.1886
  147SAPE   H3X16218  -0.323  -0.589   6.658  0.1891  1.1439  0.8407
  147SAPE   H3Y16219  -0.320  -0.510   6.503 -0.8539 -0.8286  0.2622
  147SAPE   C3416220  -0.171  -0.433   6.657  0.1796 -0.0197 -0.8938
  147SAPE   H4X16221  -0.116  -0.383   6.574  1.7395 -0.4899 -0.1698
  147SAPE   H4Y16222  -0.094  -0.468   6.729  0.0012  1.3514  0.0152
  147SAPE   C3516223  -0.253  -0.322   6.738  0.0675  0.3293  0.3770
  147SAPE   H5X16224  -0.306  -0.377   6.819 -1.5269  2.6306  1.0014
  147SAPE   H5Y16225  -0.318  -0.272   6.663 -0.9343 -2.4069 -0.7355
  147SAPE   C3616226  -0.162  -0.224   6.809  0.2224  0.4348 -0.5069
  147SAPE   H6X16227  -0.068  -0.211   6.752  0.7397  1.5030  0.5392
  147SAPE   H6Y16228  -0.137  -0.269   6.907 -1.8772 -0.4398 -0.3153
  147SAPE   C3716229  -0.209  -0.080   6.831 -0.5463 -0.0598  0.2897
  147SAPE   H7X16230  -0.244  -0.044   6.732  0.4748 -3.1529 -1.3144
  147SAPE   H7Y16231  -0.115  -0.031   6.865  0.3447 -2.2269  1.1476
  147SAPE   C3816232  -0.316  -0.053   6.933 -0.7539  0.2580 -0.5269
  147SAPE   H8X16233  -0.342   0.055   6.937 -1.8086  0.0110 -0.2285
  147SAPE   H8Y16234  -0.257  -0.073   7.025  0.9215  0.2767 -1.5548
  147SAPE   C3916235  -0.452  -0.128   6.940 -0.9176  0.1738  0.0586
  147SAPE   H9X16236  -0.426  -0.230   6.975 -2.5932  0.6676  3.1173
  147SAPE   H9Y16237  -0.501  -0.120   6.841 -2.9462  2.0589  1.1330
  147SAPE  C31016238  -0.559  -0.084   7.044  0.0520 -0.9683 -0.8235
  147SAPE  H10X16239  -0.640  -0.157   7.069  1.0560 -1.3270  1.5862
  147SAPE  H10Y16240  -0.606   0.007   7.001  2.2324  2.0471  2.6364
  147SAPE  C31116241  -0.518  -0.042   7.193 -0.3050  0.2376  0.1044
  147SAPE  H11X16242  -0.464   0.055   7.184  0.3408  0.1325  2.3068
  147SAPE  H11Y16243  -0.442  -0.116   7.227 -1.4740  0.1595  2.7803
  147SAPE  C31216244  -0.630  -0.022   7.289 -0.4117 -0.0064 -0.1513
  147SAPE  H12X16245  -0.701  -0.101   7.257  2.2038 -2.3762 -0.4324
  147SAPE  H12Y16246  -0.682   0.076   7.278 -1.1855 -0.4220 -0.2454
  147SAPE  C31316247  -0.588  -0.040   7.433 -0.2320 -0.4921 -0.3606
  147SAPE  H13X16248  -0.545   0.059   7.458 -1.5716 -0.4831  2.2069
  147SAPE  H13Y16249  -0.510  -0.119   7.440 -0.0915 -0.3082  0.2153
  147SAPE  C31416250  -0.704  -0.067   7.524 -0.1148 -0.1320 -0.7333
  147SAPE  H14X16251  -0.727  -0.175   7.511 -0.5211 -0.2487  0.8445
  147SAPE  H14Y16252  -0.785  -0.012   7.471 -2.5100 -3.9419 -1.4531
  147SAPE  C31516253  -0.694  -0.050   7.674  0.7848 -0.0688  0.2721
  147SAPE  H15X16254  -0.793  -0.081   7.712 -0.0092  0.2355 -1.4488
  147SAPE  H15Y16255  -0.674   0.059   7.686  1.3984 -0.3433  1.9249
  147SAPE  C31616256  -0.579  -0.132   7.741 -0.1367  0.3615 -0.8828
  147SAPE  H16X16257  -0.480  -0.089   7.715 -0.2185  1.4178  0.4406
  147SAPE  H16Y16258  -0.584  -0.238   7.709  0.3360 -0.5998  1.8934
  147SAPE  C31716259  -0.593  -0.147   7.897 -0.0491  0.1799  0.5679
  147SAPE  H17X16260  -0.503  -0.204   7.928 -0.4542  0.2264  1.8748
  147SAPE  H17Y16261  -0.683  -0.211   7.911  0.2902 -0.2285  0.8908
  147SAPE  C31816262  -0.596  -0.017   7.972 -0.2321  0.1160  0.5037
  147SAPE  H18X16263  -0.576  -0.037   8.080 -1.0511  1.2165  0.8819
  147SAPE  H18Y16264  -0.692   0.038   7.977  1.6212  3.6230  0.9241
  147SAPE  H18Z16265  -0.513   0.052   7.945  0.2781  0.6528  3.0994
  148SAPE     N16266   2.203   3.382   6.398 -0.1578  0.4213  0.0195
  148SAPE   HN116267   2.178   3.283   6.380  1.2353  0.1327 -0.4078
  148SAPE   HN216268   2.260   3.383   6.485  1.7012 -0.7414 -1.1297
  148SAPE   HN316269   2.132   3.459   6.404  1.1771  1.6452  0.6785
  148SAPE   C1216270   2.284   3.426   6.282  0.7694  0.6573  0.8107
  148SAPE  H12A16271   2.218   3.434   6.193  0.0279  0.9949  1.3807
  148SAPE  H12B16272   2.353   3.342   6.258 -0.8159  0.1150 -2.4629
  148SAPE   C1116273   2.356   3.561   6.320  0.5934  0.9560 -0.5780
  148SAPE  H11A16274   2.418   3.593   6.234  0.0853 -1.1852 -1.8247
  148SAPE  H11B16275   2.418   3.533   6.408 -1.8396  1.1705  1.3117
  148SAPE     P16276   2.291   3.780   6.446 -0.5037  0.1471  0.4495
  148SAPE   O1316277   2.341   3.890   6.357  0.0315 -0.1072  0.5009
  148SAPE   O1416278   2.189   3.798   6.545  0.1011 -0.5795 -0.1649
  148SAPE   O1216279   2.260   3.660   6.351  0.7187  0.0381  0.6531
  148SAPE   O1116280   2.423   3.733   6.524  0.2400  0.0171 -0.3340
  148SAPE    C116281   2.478   3.820   6.625 -0.1302 -0.0874  0.5692
  148SAPE    HA16282   2.589   3.819   6.636  0.0547  1.3104 -0.8191
  148SAPE    HB16283   2.459   3.926   6.600 -0.5195  0.1378  1.8036
  148SAPE    C216284   2.409   3.798   6.762 -0.0759  0.1444 -0.5436
  148SAPE    HS16285   2.317   3.860   6.764  0.5523  1.0983  0.5610
  148SAPE   O2116286   2.493   3.849   6.867 -0.2872  0.2728  0.3234
  148SAPE   C2116287   2.495   3.978   6.887  0.0397  0.3027  0.2458
  148SAPE   O2216288   2.437   4.060   6.812 -0.2257 -0.1042 -0.1258
  148SAPE   C2216289   2.551   4.009   7.026 -0.7173  0.8549 -0.5232
  148SAPE   H2R16290   2.495   3.959   7.107  0.2261  0.7537  0.0772
  148SAPE   H2S16291   2.656   3.974   7.031 -0.4880  1.4358 -1.0703
  148SAPE    C316292   2.383   3.651   6.788  0.9989  0.0467 -0.2164
  148SAPE    HX16293   2.469   3.585   6.762  1.7937  0.4861  1.1774
  148SAPE    HY16294   2.307   3.613   6.717  2.2767  1.8284 -2.6780
  148SAPE   O3116295   2.353   3.625   6.927  0.2644  0.1797  0.5829
  148SAPE   C3116296   2.233   3.662   6.973 -0.5250  0.0946  0.3808
  148SAPE   O3216297   2.141   3.701   6.899  0.7801 -0.3432 -0.2368
  148SAPE   C3216298   2.238   3.669   7.130 -0.0624  0.0654 -0.1508
  148SAPE   H2X16299   2.258   3.567   7.170 -1.0421 -0.3682 -0.7274
  148SAPE   H2Y16300   2.135   3.695   7.163 -0.3385 -1.2207  0.0547
  148SAPE   C2316301   2.555   4.155   7.062  0.2301  0.4847 -0.3688
  148SAPE   H3R16302   2.450   4.192   7.053 -0.0310 -0.3883 -1.0609
  148SAPE   H3S16303   2.627   4.217   7.004  1.9344 -1.2067 -0.1593
  148SAPE   C2416304   2.578   4.193   7.203  0.0457 -0.1901 -0.1688
  148SAPE   H4R16305   2.503   4.132   7.257  1.5116 -0.9119  1.1396
  148SAPE   H4S16306   2.555   4.301   7.217 -0.4556 -0.0131 -2.1189
  148SAPE   C2516307   2.709   4.150   7.258  1.2019  1.0304  0.0438
  148SAPE   H5R16308   2.727   4.042   7.263  2.2051  1.0919 -1.5825
  148SAPE   C2616309   2.814   4.224   7.289 -0.0147  0.1648 -0.3158
  148SAPE   H6R16310   2.906   4.175   7.325  1.5280  2.4788 -0.8309
  148SAPE   C2716311   2.824   4.380   7.285  0.7489  0.6995  0.2045
  148SAPE   H7R16312   2.780   4.411   7.188  1.5168 -1.2601 -0.8231
  148SAPE   H7S16313   2.931   4.410   7.284  1.6492 -2.2244 -0.1431
  148SAPE   C2816314   2.753   4.459   7.398 -0.3619 -0.2268  0.4612
  148SAPE   H8R16315   2.804   4.455   7.495 -1.0182 -5.1993  0.9075
  148SAPE   C2916316   2.640   4.538   7.389 -0.4764  0.2859 -0.3697
  148SAPE   H9R16317   2.613   4.588   7.483  0.4495 -2.8768  1.7431
  148SAPE  C21016318   2.544   4.564   7.274  0.0197 -0.3096  0.1063
  148SAPE  H10R16319   2.446   4.517   7.300  1.2200 -2.3363  1.2099
  148SAPE  H10S16320   2.568   4.514   7.178  0.3009  0.9502 -0.4938
  148SAPE  C21116321   2.532   4.713   7.237  0.8784 -0.1705 -0.6729
  148SAPE  H11R16322   2.628   4.758   7.206  0.1586  1.0096 -1.2406
  148SAPE  C21216323   2.418   4.788   7.235  0.2752 -0.0653  0.6829
  148SAPE  H12R16324   2.432   4.893   7.205  0.6700 -0.3723 -0.2392
  148SAPE  C21316325   2.280   4.737   7.280 -0.0088  0.3353  0.3652
  148SAPE  H13R16326   2.295   4.666   7.364  0.5454 -0.6040 -0.5067
  148SAPE  H13S16327   2.243   4.672   7.198  0.7660  1.2888 -0.7709
  148SAPE  C21416328   2.188   4.852   7.310 -0.4932 -0.3906 -0.6722
  148SAPE  H14R16329   2.132   4.887   7.222  0.2570  1.3014 -0.5034
  148SAPE  C21516330   2.178   4.917   7.430 -0.4986 -0.3939 -0.2693
  148SAPE  H15R16331   2.101   4.994   7.444  0.2935  0.3131  0.3187
  148SAPE  C21616332   2.258   4.881   7.559 -0.1520 -0.0692 -0.3316
  148SAPE  H16R16333   2.291   4.975   7.609 -0.4060 -0.8861  1.4383
  148SAPE  H16S16334   2.345   4.815   7.539 -1.2665 -1.6297 -0.2055
  148SAPE  C21716335   2.169   4.809   7.661  0.3492 -0.5231 -0.6749
  148SAPE  H17R16336   2.099   4.732   7.623 -1.8477  1.0327 -0.0018
  148SAPE  H17S16337   2.112   4.892   7.707  1.6995  0.3942 -0.5913
  148SAPE  C21816338   2.243   4.746   7.780 -0.0430 -0.4554 -0.2735
  148SAPE  H18R16339   2.326   4.809   7.819 -0.3459 -1.9271  3.0829
  148SAPE  H18S16340   2.291   4.652   7.744 -0.3317 -1.0406  0.8200
  148SAPE  C21916341   2.152   4.706   7.897  1.4032  0.1082  0.4208
  148SAPE  H19R16342   2.074   4.635   7.863  1.7762 -0.4961  0.8047
  148SAPE  H19S16343   2.103   4.799   7.934  2.0445  0.3310  0.7299
  148SAPE  C22016344   2.234   4.650   8.013  0.1464  0.3035 -0.1620
  148SAPE  H20R16345   2.333   4.606   7.986  0.9195  1.5797  0.4790
  148SAPE  H20S16346   2.174   4.576   8.069 -0.5656 -0.7816 -2.2388
  148SAPE  H20T16347   2.258   4.730   8.086  0.9615  1.7980 -1.9638
  148SAPE   C3316348   2.344   3.760   7.191 -0.6974 -0.1896 -1.1885
  148SAPE   H3X16349   2.305   3.864   7.179  1.8170  0.9459 -0.2940
  148SAPE   H3Y16350   2.441   3.752   7.137 -1.3741  0.3684 -2.5319
  148SAPE   C3416351   2.373   3.734   7.341  0.0664 -0.0691 -0.7323
  148SAPE   H4X16352   2.400   3.628   7.360  0.2831 -0.0189 -0.7509
  148SAPE   H4Y16353   2.277   3.753   7.394  1.0789  0.9071  0.8531
  148SAPE   C3516354   2.467   3.836   7.409  0.2914  0.7212  0.0700
  148SAPE   H5X16355   2.409   3.930   7.393 -2.0604 -0.5231  0.8036
  148SAPE   H5Y16356   2.568   3.844   7.362 -0.3991  3.5296 -1.1600
  148SAPE   C3616357   2.485   3.817   7.564  0.5131  0.0309 -0.3032
  148SAPE   H6X16358   2.564   3.740   7.579  0.1110 -0.3584 -0.1889
  148SAPE   H6Y16359   2.389   3.786   7.609  0.8563 -0.7306 -0.0818
  148SAPE   C3716360   2.519   3.944   7.639  0.0891  0.4819  0.0530
  148SAPE   H7X16361   2.494   3.935   7.747 -0.3529 -1.7633 -0.1711
  148SAPE   H7Y16362   2.451   4.026   7.609  0.2770  1.7372  2.7590
  148SAPE   C3816363   2.668   3.982   7.621  0.0654  0.2912  0.1305
  148SAPE   H8X16364   2.697   3.955   7.517 -1.3770  0.2376 -0.2768
  148SAPE   H8Y16365   2.726   3.916   7.689 -1.3391 -0.0652  1.0309
  148SAPE   C3916366   2.691   4.126   7.658  0.1806 -0.0469 -0.5307
  148SAPE   H9X16367   2.637   4.160   7.749  0.9749  1.8846 -0.7145
  148SAPE   H9Y16368   2.648   4.192   7.580 -0.5850  0.8782  0.6279
  148SAPE  C31016369   2.841   4.148   7.692  0.4277  0.0083 -0.4802
  148SAPE  H10X16370   2.901   4.129   7.600 -0.3020  2.0793 -1.4536
  148SAPE  H10Y16371   2.864   4.068   7.765 -0.5974 -0.9110 -1.1454
  148SAPE  C31116372   2.880   4.280   7.741  0.2035 -0.1678  0.3410
  148SAPE  H11X16373   2.843   4.353   7.665  0.2806 -0.0753  0.3921
  148SAPE  H11Y16374   2.991   4.283   7.744  0.1855  1.4191  2.7071
  148SAPE  C31216375   2.837   4.326   7.883 -0.2705  0.5729  0.4725
  148SAPE  H12X16376   2.860   4.243   7.954 -0.1018 -0.1732 -0.4279
  148SAPE  H12Y16377   2.727   4.341   7.891 -0.3086 -0.2567  1.9831
  148SAPE  C31316378   2.904   4.449   7.932 -0.2331  0.3579  0.1961
  148SAPE  H13X16379   2.908   4.520   7.846  1.7793 -1.0505 -0.9652
  148SAPE  H13Y16380   3.013   4.436   7.948  0.2594  0.1874 -2.7467
  148SAPE  C31416381   2.833   4.513   8.057 -0.0350 -0.6857 -0.0731
  148SAPE  H14X16382   2.725   4.519   8.031  0.0269  0.7761 -0.0650
  148SAPE  H14Y16383   2.871   4.617   8.070 -1.9932  0.3521 -1.9519
  148SAPE  C31516384   2.842   4.424   8.179 -0.1539 -0.3593 -0.4063
  148SAPE  H15X16385   2.940   4.373   8.186  0.0498  0.2721  3.1478
  148SAPE  H15Y16386   2.763   4.347   8.171 -2.2298  1.4360  1.2581
  148SAPE  C31616387   2.814   4.507   8.303  0.5264  0.1977 -0.1299
  148SAPE  H16X16388   2.904   4.564   8.334  0.6020 -0.0700  0.1457
  148SAPE  H16Y16389   2.793   4.434   8.384 -0.5643  1.2093  0.5274
  148SAPE  C31716390   2.693   4.608   8.287 -0.0886  0.0011  0.5952
  148SAPE  H17X16391   2.608   4.553   8.240 -0.0291  0.4031  0.0092
  148SAPE  H17Y16392   2.716   4.693   8.220  0.6326 -1.2491 -0.8155
  148SAPE  C31816393   2.635   4.664   8.421 -0.5216  0.6048  0.1953
  148SAPE  H18X16394   2.529   4.691   8.402 -0.5714  2.2439  2.3559
  148SAPE  H18Y16395   2.700   4.744   8.463  1.6863 -0.6466 -0.7180
  148SAPE  H18Z16396   2.643   4.577   8.490 -0.1970  1.5416  1.3810
  149SAPE     N16397   3.001   4.599   6.100 -0.2768  0.1741 -0.1318
  149SAPE   HN116398   2.955   4.679   6.053 -1.4182  0.2005  0.9645
  149SAPE   HN216399   2.948   4.512   6.080  0.0906  0.3629 -2.0926
  149SAPE   HN316400   3.004   4.614   6.203  1.9601 -1.5142  0.1270
  149SAPE   C1216401   3.134   4.569   6.036  0.0331 -0.0853 -0.6909
  149SAPE  H12A16402   3.120   4.570   5.926 -0.2596 -0.4760 -0.6597
  149SAPE  H12B16403   3.171   4.466   6.056  0.2897  0.1308 -0.0152
  149SAPE   C1116404   3.247   4.663   6.088  0.6635  0.4071  0.3127
  149SAPE  H11A16405   3.212   4.767   6.069 -1.2243 -0.4732 -1.4153
  149SAPE  H11B16406   3.333   4.654   6.017 -0.8396  1.0935 -1.6897
  149SAPE     P16407   3.369   4.537   6.277 -0.0758 -0.1266 -0.0097
  149SAPE   O1316408   3.411   4.453   6.160  0.3521 -0.2923  0.0435
  149SAPE   O1416409   3.481   4.602   6.344 -0.8593  0.1152  0.1258
  149SAPE   O1216410   3.271   4.652   6.232 -0.5874  0.3939 -0.3756
  149SAPE   O1116411   3.278   4.457   6.369 -0.5430  0.5381  0.0673
  149SAPE    C116412   3.158   4.512   6.430  0.1700  0.0060 -0.2912
  149SAPE    HA16413   3.113   4.593   6.369  3.4281  0.9530 -1.6480
  149SAPE    HB16414   3.079   4.435   6.429 -0.3281  0.5137 -1.7942
  149SAPE    C216415   3.178   4.561   6.582 -0.1645 -0.0168 -0.2868
  149SAPE    HS16416   3.085   4.612   6.617  0.1623  1.6823 -1.7332
  149SAPE   O2116417   3.287   4.646   6.595 -0.2268  0.4748  0.3832
  149SAPE   C2116418   3.281   4.772   6.544  0.1914 -0.1404  0.4399
  149SAPE   O2216419   3.194   4.808   6.458 -0.0302 -0.4546 -0.5004
  149SAPE   C2216420   3.389   4.860   6.605 -0.1377  0.6508 -0.3000
  149SAPE   H2R16421   3.487   4.813   6.579 -0.3134 -0.4707  0.9735
  149SAPE   H2S16422   3.375   4.959   6.557 -1.5866  1.0276  0.8686
  149SAPE    C316423   3.197   4.435   6.680 -0.2766  0.2304  0.1158
  149SAPE    HX16424   3.272   4.371   6.629 -0.4318  0.5459 -0.5190
  149SAPE    HY16425   3.100   4.380   6.688 -1.8731  2.9239  0.6094
  149SAPE   O3116426   3.244   4.463   6.809  0.0062  0.0663 -0.1294
  149SAPE   C3116427   3.143   4.512   6.889 -0.1073 -0.5266 -0.5025
  149SAPE   O3216428   3.032   4.543   6.852 -0.2011  0.2856  0.0060
  149SAPE   C3216429   3.200   4.534   7.035 -0.3207  0.3459  0.3167
  149SAPE   H2X16430   3.307   4.557   7.020 -0.3487 -1.3612 -3.9671
  149SAPE   H2Y16431   3.197   4.436   7.087  0.3730  0.5363  0.7202
  149SAPE   C2316432   3.383   4.857   6.762  0.7535 -0.3246  0.0149
  149SAPE   H3R16433   3.405   4.755   6.801  0.8426 -0.5268 -0.5671
  149SAPE   H3S16434   3.281   4.889   6.791  2.0109  3.8793  0.4589
  149SAPE   C2416435   3.480   4.960   6.828  0.6257 -0.5383 -0.1088
  149SAPE   H4R16436   3.583   4.937   6.796  0.4167 -4.4917  1.5594
  149SAPE   H4S16437   3.489   4.935   6.936  0.1368  0.6778  0.2319
  149SAPE   C2516438   3.437   5.103   6.809  0.0163  0.1434  0.2590
  149SAPE   H5R16439   3.468   5.153   6.716  0.0965 -1.2787 -0.5181
  149SAPE   C2616440   3.387   5.175   6.912  0.5344  0.2880 -0.3835
  149SAPE   H6R16441   3.359   5.280   6.897  1.1032  0.4018 -0.6708
  149SAPE   C2716442   3.349   5.126   7.054  0.1820  0.2164  0.0213
  149SAPE   H7R16443   3.300   5.027   7.050  0.6778 -0.0338  0.0446
  149SAPE   H7S16444   3.264   5.186   7.092 -1.4585 -2.6223  1.1062
  149SAPE   C2816445   3.463   5.112   7.151 -0.6259 -0.5892 -0.8054
  149SAPE   H8R16446   3.564   5.107   7.107 -0.4439 -1.6815 -0.3013
  149SAPE   C2916447   3.448   5.097   7.284 -0.1694  0.0935  0.4040
  149SAPE   H9R16448   3.544   5.094   7.338  0.0893  1.5811  0.0850
  149SAPE  C21016449   3.314   5.088   7.352  0.1288  0.1226 -0.1568
  149SAPE  H10R16450   3.315   4.992   7.407 -0.8353  1.4090  2.2341
  149SAPE  H10S16451   3.227   5.059   7.290 -0.4021  2.4655 -0.6322
  149SAPE  C21116452   3.276   5.203   7.439  0.2893 -0.2388 -0.2416
  149SAPE  H11R16453   3.274   5.305   7.398 -0.2226  0.6401  1.8323
  149SAPE  C21216454   3.241   5.191   7.572  0.1334  1.0830  0.3915
  149SAPE  H12R16455   3.218   5.280   7.632 -1.7859  1.9056 -1.4202
  149SAPE  C21316456   3.235   5.063   7.648  0.6961 -0.1303  0.2096
  149SAPE  H13R16457   3.243   5.098   7.753 -1.7839 -0.2777  0.5108
  149SAPE  H13S16458   3.333   5.011   7.639  0.4290 -0.4030 -1.5677
  149SAPE  C21416459   3.125   4.956   7.626  0.3674 -0.4798 -0.8491
  149SAPE  H14R16460   3.115   4.917   7.524 -1.1285 -2.3777 -0.0226
  149SAPE  C21516461   3.028   4.924   7.721 -0.2152 -0.0252  0.2150
  149SAPE  H15R16462   2.957   4.845   7.694 -0.7230  0.4740  0.0657
  149SAPE  C21616463   3.018   4.977   7.858 -0.3551 -0.0067 -0.2414
  149SAPE  H16R16464   2.942   5.058   7.856 -0.7330 -0.3203  0.9628
  149SAPE  H16S16465   3.110   5.025   7.899 -0.9436  0.1563  0.9307
  149SAPE  C21716466   2.998   4.875   7.968  0.3566  0.8063  0.4980
  149SAPE  H17R16467   3.053   4.781   7.947  0.8385  1.1130  0.3558
  149SAPE  H17S16468   2.892   4.844   7.955  0.8094 -0.9143  0.6400
  149SAPE  C21816469   3.018   4.921   8.111  0.5501  0.3573 -0.0170
  149SAPE  H18R16470   3.126   4.921   8.139  1.1398  1.3667 -2.0910
  149SAPE  H18S16471   2.953   4.858   8.176 -0.0629  1.6742  0.6695
  149SAPE  C21916472   2.960   5.059   8.134 -0.3435 -0.4622  0.5173
  149SAPE  H19R16473   2.851   5.043   8.120 -0.0020 -2.0373 -0.6839
  149SAPE  H19S16474   2.999   5.137   8.065  1.2694 -0.5804  1.2310
  149SAPE  C22016475   2.993   5.109   8.276 -0.3891 -0.4557 -0.3007
  149SAPE  H20R16476   2.974   5.219   8.280  2.6236  0.1258  0.9460
  149SAPE  H20S16477   3.098   5.085   8.303 -0.5871 -1.5785 -0.5145
  149SAPE  H20T16478   2.927   5.052   8.344  1.5349 -1.9031  0.4307
  149SAPE   C3316479   3.130   4.644   7.105  0.0468  0.7120  0.2962
  149SAPE   H3X16480   3.024   4.613   7.117  0.7000 -2.0670 -0.4610
  149SAPE   H3Y16481   3.119   4.734   7.040  0.4417  0.4423 -0.1518
  149SAPE   C3416482   3.195   4.685   7.235  0.1575  0.6117  0.3048
  149SAPE   H4X16483   3.149   4.778   7.274  0.2298  1.4645 -1.5427
  149SAPE   H4Y16484   3.301   4.701   7.207  0.0915 -1.3223 -1.2767
  149SAPE   C3516485   3.172   4.580   7.351  0.3776 -0.5605 -0.1212
  149SAPE   H5X16486   3.196   4.476   7.318  2.0387 -0.7614  1.5077
  149SAPE   H5Y16487   3.068   4.582   7.389 -0.6455  0.0003 -2.7455
  149SAPE   C3616488   3.259   4.614   7.477  0.1354  0.5115 -0.2389
  149SAPE   H6X16489   3.260   4.526   7.544  2.8332 -0.5830 -1.5509
  149SAPE   H6Y16490   3.209   4.700   7.525  0.6247  0.4668  0.3604
  149SAPE   C3716491   3.404   4.649   7.446 -0.7793  0.6547  0.5851
  149SAPE   H7X16492   3.407   4.731   7.371  2.3292  0.9243  0.8711
  149SAPE   H7Y16493   3.458   4.560   7.406  1.2839  1.2927  1.8390
  149SAPE   C3816494   3.472   4.704   7.577 -0.6752 -0.0613  1.1004
  149SAPE   H8X16495   3.477   4.623   7.653 -1.2117 -1.6713 -0.5257
  149SAPE   H8Y16496   3.408   4.789   7.609  0.2568  1.0141  0.1863
  149SAPE   C3916497   3.609   4.765   7.548 -0.4634  0.1586 -0.1627
  149SAPE   H9X16498   3.601   4.858   7.489 -0.8511  0.2344  0.0041
  149SAPE   H9Y16499   3.654   4.684   7.487 -0.4317 -1.3137  1.7164
  149SAPE  C31016500   3.705   4.807   7.667  0.7430 -0.1423  0.0848
  149SAPE  H10X16501   3.805   4.830   7.625  0.1313  1.0115 -0.7795
  149SAPE  H10Y16502   3.705   4.719   7.735 -0.5252 -0.2450 -0.0183
  149SAPE  C31116503   3.663   4.925   7.743 -0.2284 -0.8029  0.2203
  149SAPE  H11X16504   3.730   4.929   7.832 -0.9739  2.9774  0.7623
  149SAPE  H11Y16505   3.562   4.917   7.789  1.1590 -1.5744  3.4298
  149SAPE  C31216506   3.662   5.059   7.668  0.2475  0.0043 -0.1825
  149SAPE  H12X16507   3.607   5.055   7.571  3.3315  1.8270 -2.1931
  149SAPE  H12Y16508   3.768   5.079   7.642  0.1521 -0.7268 -1.2254
  149SAPE  C31316509   3.599   5.165   7.752  0.1638 -0.2801 -1.2128
  149SAPE  H13X16510   3.642   5.167   7.854 -1.5428  0.5446 -0.4606
  149SAPE  H13Y16511   3.491   5.145   7.770  0.1495 -0.0355 -1.0242
  149SAPE  C31416512   3.593   5.305   7.685  0.5782  0.0443 -0.1355
  149SAPE  H14X16513   3.532   5.288   7.594 -1.1377  0.5617  0.8727
  149SAPE  H14Y16514   3.697   5.331   7.658  0.7700 -2.2327 -2.0033
  149SAPE  C31516515   3.527   5.406   7.777 -0.4684  0.5893  0.1464
  149SAPE  H15X16516   3.582   5.410   7.873  0.1614 -1.2623 -0.0907
  149SAPE  H15Y16517   3.426   5.368   7.800 -0.3985  0.8186  0.8590
  149SAPE  C31616518   3.503   5.539   7.700 -0.1314 -0.9392  0.4756
  149SAPE  H16X16519   3.463   5.514   7.600 -0.6740 -2.3237  1.0083
  149SAPE  H16Y16520   3.606   5.576   7.681 -0.5267  1.6900  2.8838
  149SAPE  C31716521   3.418   5.640   7.774  0.0130 -0.3460 -0.2654
  149SAPE  H17X16522   3.458   5.652   7.877  2.8570 -1.9598 -1.0660
  149SAPE  H17Y16523   3.315   5.597   7.777  0.1158 -0.5554  1.7472
  149SAPE  C31816524   3.405   5.768   7.693  0.3434  0.1748  0.1207
  149SAPE  H18X16525   3.365   5.743   7.593  0.7483 -1.1036  0.2616
  149SAPE  H18Y16526   3.501   5.821   7.673  0.9611 -1.0797 -0.3322
  149SAPE  H18Z16527   3.338   5.840   7.745  2.2566 -0.1357  3.3104
  150SAPE     N16528   4.375   2.681   6.297 -0.8936 -0.2615 -0.0973
  150SAPE   HN116529   4.387   2.783   6.314 -1.8622 -0.2519  0.5782
  150SAPE   HN216530   4.276   2.671   6.269 -0.8780  0.2836 -0.3674
  150SAPE   HN316531   4.378   2.623   6.383 -0.5663  0.9731  0.7597
  150SAPE   C1216532   4.469   2.635   6.187  0.1191  0.1832  0.1605
  150SAPE  H12A16533   4.421   2.672   6.095 -0.3128  0.4885  0.5063
  150SAPE  H12B16534   4.489   2.526   6.190 -0.4842  0.0641  3.1196
  150SAPE   C1116535   4.611   2.700   6.195 -0.5059 -0.2585  0.2669
  150SAPE  H11A16536   4.662   2.682   6.098 -3.5026  2.3575 -2.0038
  150SAPE  H11B16537   4.672   2.657   6.277 -0.7433  1.1491  1.2179
  150SAPE     P16538   4.743   2.925   6.242  0.0881  0.0109 -0.0626
  150SAPE   O1316539   4.853   2.858   6.161  0.9088 -0.3979 -0.4651
  150SAPE   O1416540   4.725   3.069   6.225 -0.1729  0.1447 -0.3128
  150SAPE   O1216541   4.607   2.842   6.222  0.4520  0.4120 -0.3384
  150SAPE   O1116542   4.773   2.892   6.387  0.0605  0.0744  0.2053
  150SAPE    C116543   4.675   2.880   6.493  0.6852  0.2817 -0.2593
  150SAPE    HA16544   4.573   2.876   6.448 -0.7173  3.7992  2.1283
  150SAPE    HB16545   4.694   2.781   6.538  1.5092 -0.1456 -1.5008
  150SAPE    C216546   4.691   2.995   6.602 -0.0866 -0.2198 -0.8115
  150SAPE    HS16547   4.798   3.002   6.628 -0.2619 -0.5667  0.0211
  150SAPE   O2116548   4.620   2.959   6.726  0.0919  0.1083  0.2213
  150SAPE   C2116549   4.668   2.863   6.801  0.7340 -0.5757 -0.5844
  150SAPE   O2216550   4.774   2.806   6.790 -0.0490 -0.6170 -0.6061
  150SAPE   C2216551   4.568   2.839   6.919  0.4569 -0.1336 -0.1283
  150SAPE   H2R16552   4.469   2.856   6.872  0.0300 -0.3996  0.6554
  150SAPE   H2S16553   4.571   2.731   6.946  1.1876  0.0337  0.5150
  150SAPE    C316554   4.643   3.140   6.566  0.0928  0.0259  0.6422
  150SAPE    HX16555   4.540   3.130   6.524  0.0062 -0.8326  1.0455
  150SAPE    HY16556   4.714   3.174   6.488 -1.5487  0.5452 -0.6999
  150SAPE   O3116557   4.645   3.223   6.688  0.0601  1.0729  0.1518
  150SAPE   C3116558   4.763   3.252   6.735  0.3104  0.0473 -0.1309
  150SAPE   O3216559   4.872   3.214   6.705 -0.8078 -0.1051  1.0379
  150SAPE   C3216560   4.742   3.339   6.863 -0.0467 -0.0600  0.5856
  150SAPE   H2X16561   4.637   3.375   6.864 -0.0145  0.2424 -1.4656
  150SAPE   H2Y16562   4.809   3.428   6.858 -0.0101 -0.0871  0.5938
  150SAPE   C2316563   4.589   2.916   7.056 -0.0833  0.0911 -0.1764
  150SAPE   H3R16564   4.497   2.882   7.107 -0.6731  0.3954 -1.0178
  150SAPE   H3S16565   4.591   3.025   7.036  0.5099  0.1291  0.0628
  150SAPE   C2416566   4.716   2.877   7.124 -0.0099 -0.6600 -0.0062
  150SAPE   H4R16567   4.758   2.945   7.202 -0.4889 -0.3539 -0.0163
  150SAPE   H4S16568   4.799   2.870   7.051 -0.4368  2.6725 -0.9785
  150SAPE   C2516569   4.700   2.738   7.181  0.4314 -0.8227  0.3792
  150SAPE   H5R16570   4.619   2.684   7.130  1.9291  0.4526 -3.7447
  150SAPE   C2616571   4.782   2.680   7.267  0.6296 -0.0656 -0.0493
  150SAPE   H6R16572   4.747   2.583   7.305  1.9987 -0.9870 -1.0606
  150SAPE   C2716573   4.901   2.739   7.342 -0.4220 -0.4056  0.4227
  150SAPE   H7R16574   4.865   2.811   7.418  3.3735  1.4042  0.7309
  150SAPE   H7S16575   4.964   2.801   7.275  0.5372  1.6804  3.0965
  150SAPE   C2816576   4.992   2.627   7.400 -0.1551  0.4884 -0.2804
  150SAPE   H8R16577   5.031   2.552   7.329 -0.7261  1.4409 -1.6423
  150SAPE   C2916578   5.013   2.595   7.528 -0.1789 -0.0382  0.2373
  150SAPE   H9R16579   5.085   2.517   7.557  1.6616  0.9125 -1.5320
  150SAPE  C21016580   4.973   2.677   7.650  0.0126  0.0303 -0.2116
  150SAPE  H10R16581   4.922   2.621   7.731  0.5110 -0.2091 -0.0589
  150SAPE  H10S16582   4.902   2.756   7.618  1.4795  1.5877  0.2024
  150SAPE  C21116583   5.094   2.763   7.688  1.0484 -1.1027  0.2161
  150SAPE  H11R16584   5.147   2.813   7.605 -0.0080  0.3093  0.3498
  150SAPE  C21216585   5.141   2.795   7.807  0.5244  0.1224  0.0112
  150SAPE  H12R16586   5.210   2.881   7.803 -0.5454  0.9913 -0.1873
  150SAPE  C21316587   5.093   2.759   7.945  0.5877 -0.2737 -0.9375
  150SAPE  H13R16588   5.168   2.794   8.019 -0.7098  2.0242 -0.6095
  150SAPE  H13S16589   5.090   2.648   7.951  1.2129 -0.2134  1.9313
  150SAPE  C21416590   4.957   2.825   7.974  0.1159 -0.2494  0.7140
  150SAPE  H14R16591   4.910   2.870   7.886  0.3768  0.2999  0.8545
  150SAPE  C21516592   4.911   2.846   8.094  0.2265 -0.0937 -0.0316
  150SAPE  H15R16593   4.814   2.895   8.106 -0.9528 -1.9917 -1.3715
  150SAPE  C21616594   4.966   2.804   8.229 -0.6576  0.2850 -0.3102
  150SAPE  H16R16595   5.074   2.785   8.213 -0.5619 -0.1728  0.8063
  150SAPE  H16S16596   4.933   2.703   8.262  2.5933 -0.6634  0.3524
  150SAPE  C21716597   4.921   2.912   8.335  0.5433 -0.6110  0.3348
  150SAPE  H17R16598   4.812   2.902   8.354 -0.0846  1.2209 -1.8691
  150SAPE  H17S16599   4.926   3.016   8.297  1.6638 -0.4205  0.9573
  150SAPE  C21816600   5.016   2.932   8.451  0.8676  0.1964 -0.7887
  150SAPE  H18R16601   5.109   2.971   8.403  0.3204  2.1305 -0.3456
  150SAPE  H18S16602   5.037   2.834   8.500 -0.3876 -0.4134 -1.4133
  150SAPE  C21916603   4.969   3.039   8.547 -0.3482 -0.6395 -1.0761
  150SAPE  H19R16604   4.964   3.138   8.498 -0.8716  0.1822  0.5610
  150SAPE  H19S16605   5.045   3.036   8.628 -0.2276 -1.4179 -1.2095
  150SAPE  C22016606   4.826   3.018   8.602  0.4996  0.6258 -0.1694
  150SAPE  H20R16607   4.840   3.036   8.711  3.8918 -3.1057  0.2718
  150SAPE  H20S16608   4.806   2.910   8.581 -1.5776  1.1439 -1.0042
  150SAPE  H20T16609   4.742   3.072   8.555  0.6133  0.7418 -0.2402
  150SAPE   C3316610   4.774   3.268   6.994 -0.6320  0.0504  0.0485
  150SAPE   H3X16611   4.875   3.224   6.986 -0.9749 -0.9687  1.0568
  150SAPE   H3Y16612   4.697   3.188   6.995  0.3251 -0.9878 -1.9061
  150SAPE   C3416613   4.760   3.346   7.120 -0.1662  0.0814 -0.5033
  150SAPE   H4X16614   4.655   3.378   7.132  0.2834  1.7476 -0.7670
  150SAPE   H4Y16615   4.814   3.444   7.119 -1.5415  0.8694 -2.2265
  150SAPE   C3516616   4.810   3.256   7.237  0.2148  0.2987  0.1425
  150SAPE   H5X16617   4.917   3.228   7.228 -0.1593 -0.8276 -1.4085
  150SAPE   H5Y16618   4.758   3.158   7.223  2.9207 -1.1386 -0.6515
  150SAPE   C3616619   4.781   3.304   7.376 -0.8353  0.2293 -0.3784
  150SAPE   H6X16620   4.679   3.348   7.384 -1.1954 -0.4154 -1.1832
  150SAPE   H6Y16621   4.861   3.378   7.398 -0.1434 -0.8678  0.9533
  150SAPE   C3716622   4.790   3.197   7.488  0.2495 -0.2637 -0.0054
  150SAPE   H7X16623   4.777   3.246   7.587  2.9474 -0.7377  0.6669
  150SAPE   H7Y16624   4.891   3.152   7.485 -0.0223 -0.8879  0.0312
  150SAPE   C3816625   4.682   3.084   7.493  0.4126 -0.0471  0.3485
  150SAPE   H8X16626   4.706   3.009   7.415  0.8044  0.0166  0.4071
  150SAPE   H8Y16627   4.578   3.116   7.471 -0.1239 -0.5771  1.9708
  150SAPE   C3916628   4.668   3.005   7.626  0.5805 -0.3338  0.2397
  150SAPE   H9X16629   4.769   2.992   7.671  0.3470  1.1734  1.2808
  150SAPE   H9Y16630   4.627   2.904   7.603  0.9855 -0.1645 -1.3150
  150SAPE  C31016631   4.579   3.073   7.734  0.6497 -0.2845 -0.0023
  150SAPE  H10X16632   4.472   3.068   7.707  0.5942  0.4220  0.0652
  150SAPE  H10Y16633   4.604   3.181   7.744 -1.1811  0.1711  0.0083
  150SAPE  C31116634   4.598   3.006   7.872 -0.1645 -0.4098 -0.1536
  150SAPE  H11X16635   4.705   3.022   7.895  0.3297 -0.8860 -1.9133
  150SAPE  H11Y16636   4.588   2.895   7.873 -1.7045 -0.3043 -0.8168
  150SAPE  C31216637   4.509   3.055   7.990  0.0351 -0.0868  0.3730
  150SAPE  H12X16638   4.404   3.036   7.959 -0.0390  0.8832 -0.0056
  150SAPE  H12Y16639   4.519   3.165   8.002  1.8794 -0.4495  2.9567
  150SAPE  C31316640   4.541   2.997   8.127  0.3316 -0.2538 -0.0654
  150SAPE  H13X16641   4.462   3.036   8.194 -0.3805 -1.3679 -0.2382
  150SAPE  H13Y16642   4.630   3.043   8.176 -1.4187  1.7116  1.4585
  150SAPE  C31416643   4.538   2.847   8.142  0.0414 -0.6175 -0.0598
  150SAPE  H14X16644   4.633   2.790   8.136  1.6214  1.8468  0.2226
  150SAPE  H14Y16645   4.473   2.802   8.063 -0.4596  0.4781 -0.2805
  150SAPE  C31516646   4.476   2.788   8.270  0.2185 -1.3568  0.2426
  150SAPE  H15X16647   4.498   2.679   8.269 -0.9818 -1.6245  0.7310
  150SAPE  H15Y16648   4.365   2.791   8.260  0.3586  0.0299 -1.2668
  150SAPE  C31616649   4.530   2.831   8.405  0.0270 -0.3995  0.5221
  150SAPE  H16X16650   4.520   2.941   8.419 -0.2987 -0.4464  0.6709
  150SAPE  H16Y16651   4.633   2.798   8.429 -0.1026  0.2301  2.0469
  150SAPE  C31716652   4.451   2.776   8.527  0.8371 -0.7875  0.8772
  150SAPE  H17X16653   4.496   2.677   8.547  1.1434 -1.0702 -1.0620
  150SAPE  H17Y16654   4.341   2.770   8.517  0.7070 -0.1346  1.7694
  150SAPE  C31816655   4.472   2.859   8.661  0.3470 -0.1014  1.1216
  150SAPE  H18X16656   4.575   2.853   8.701  1.0012 -0.4244 -0.5687
  150SAPE  H18Y16657   4.403   2.820   8.739 -1.3340  0.6133  0.0483
  150SAPE  H18Z16658   4.445   2.966   8.645 -0.8456 -0.6250 -0.6665
  151SAPE     N16659   5.038   2.063   6.237 -0.2844  0.1293 -0.3276
  151SAPE   HN116660   5.005   1.979   6.288  0.4069 -0.4014 -0.7410
  151SAPE   HN216661   5.106   2.105   6.304  0.5846 -2.6355  0.6690
  151SAPE   HN316662   4.959   2.126   6.210  1.0020  1.7743 -0.4371
  151SAPE   C1216663   5.123   1.997   6.138 -0.2246 -0.1276  0.3659
  151SAPE  H12A16664   5.197   1.934   6.191  0.4985  0.5118  0.1412
  151SAPE  H12B16665   5.191   2.065   6.082  0.9284 -1.3651  0.2373
  151SAPE   C1116666   5.038   1.910   6.042  0.2816 -0.5502  0.2205
  151SAPE  H11A16667   5.108   1.863   5.969 -0.1665 -0.4320 -0.2867
  151SAPE  H11B16668   4.973   1.984   5.990  1.4328  0.5134  0.2500
  151SAPE     P16669   5.017   1.668   6.141  0.5753 -0.2458  0.0068
  151SAPE   O1316670   4.905   1.585   6.184 -0.4499 -0.3043  0.3720
  151SAPE   O1416671   5.098   1.615   6.029  0.2139  0.2368 -0.2800
  151SAPE   O1216672   4.966   1.806   6.106 -0.4994 -0.0754 -0.4252
  151SAPE   O1116673   5.106   1.700   6.273  0.5394 -0.1510  0.3786
  151SAPE    C116674   5.251   1.679   6.277 -0.2488  0.2045 -0.5293
  151SAPE    HA16675   5.300   1.679   6.177  0.4050  1.6362 -0.2292
  151SAPE    HB16676   5.303   1.761   6.331  2.9897 -2.3515  0.5601
  151SAPE    C216677   5.278   1.548   6.362 -0.2347  0.0286  0.4259
  151SAPE    HS16678   5.246   1.460   6.302 -1.4334  0.9859 -0.3950
  151SAPE   O2116679   5.207   1.556   6.484 -0.1112  0.1320 -0.0871
  151SAPE   C2116680   5.187   1.445   6.549 -0.3697 -0.6436  0.3318
  151SAPE   O2216681   5.217   1.333   6.515 -0.5432 -0.2533  0.1371
  151SAPE   C2216682   5.108   1.478   6.676  0.0014  0.1284 -0.1076
  151SAPE   H2R16683   5.072   1.582   6.663  0.8001  0.9874  3.5367
  151SAPE   H2S16684   5.026   1.403   6.675 -0.7412  0.9277 -0.5711
  151SAPE    C316685   5.437   1.535   6.372  0.1991 -0.0480 -0.1136
  151SAPE    HX16686   5.477   1.566   6.273  1.2264 -1.6502 -0.2500
  151SAPE    HY16687   5.456   1.426   6.382  0.3589  0.1184  1.6903
  151SAPE   O3116688   5.484   1.617   6.481  0.6010  0.6615  0.7346
  151SAPE   C3116689   5.614   1.632   6.493 -0.1115  0.1194  0.2456
  151SAPE   O3216690   5.699   1.570   6.429 -0.1058 -0.3239 -0.1274
  151SAPE   C3216691   5.648   1.740   6.600 -0.4280 -0.2939  0.2622
  151SAPE   H2X16692   5.696   1.681   6.682 -0.2547  1.4131  1.4425
  151SAPE   H2Y16693   5.562   1.799   6.638 -1.8826 -1.3547 -1.2470
  151SAPE   C2316694   5.179   1.477   6.806 -0.0209  0.2993  0.1236
  151SAPE   H3R16695   5.233   1.379   6.805 -3.5879 -1.9026 -2.4789
  151SAPE   H3S16696   5.100   1.476   6.884  2.3602  0.6441  2.6681
  151SAPE   C2416697   5.279   1.589   6.815 -0.3981 -0.1597  0.5367
  151SAPE   H4R16698   5.352   1.587   6.732 -0.3440 -0.4265  0.5900
  151SAPE   H4S16699   5.343   1.582   6.906 -0.5166  0.6638  0.6886
  151SAPE   C2516700   5.208   1.718   6.834  0.4424  0.6412  0.5846
  151SAPE   H5R16701   5.178   1.762   6.737 -2.6137 -2.2711  0.0138
  151SAPE   C2616702   5.184   1.777   6.957  0.3046  0.3006  0.2304
  151SAPE   H6R16703   5.103   1.851   6.955 -0.5648 -0.6260 -1.3937
  151SAPE   C2716704   5.230   1.724   7.087 -0.3251 -0.5907 -0.1497
  151SAPE   H7R16705   5.291   1.805   7.132 -1.8844 -0.9601  2.9175
  151SAPE   H7S16706   5.293   1.632   7.084  1.2237  0.3055  1.8672
  151SAPE   C2816707   5.115   1.694   7.180  0.1712  1.0387  0.2677
  151SAPE   H8R16708   5.036   1.642   7.124  0.5886 -0.1905  0.7893
  151SAPE   C2916709   5.097   1.714   7.316 -0.2351 -0.2023  0.2262
  151SAPE   H9R16710   4.998   1.683   7.352 -0.1595  0.9244  1.4671
  151SAPE  C21016711   5.197   1.770   7.414  0.1251 -0.6834 -0.1875
  151SAPE  H10R16712   5.140   1.811   7.500 -2.5474 -2.7754 -0.8164
  151SAPE  H10S16713   5.250   1.858   7.374  0.3370  0.0090  1.5279
  151SAPE  C21116714   5.301   1.675   7.461 -0.1197 -0.0754 -0.2558
  151SAPE  H11R16715   5.343   1.625   7.372 -0.8401  0.0036 -0.6435
  151SAPE  C21216716   5.355   1.636   7.581  0.0620 -0.1583 -0.2506
  151SAPE  H12R16717   5.425   1.551   7.582  0.5193 -0.0814 -4.8495
  151SAPE  C21316718   5.326   1.696   7.711 -0.7370 -0.5690 -0.1272
  151SAPE  H13R16719   5.309   1.806   7.713  0.0398 -0.4259  2.4846
  151SAPE  H13S16720   5.422   1.698   7.768 -1.6336  0.6540  1.4234
  151SAPE  C21416721   5.228   1.626   7.797  0.4400  0.9418 -0.1725
  151SAPE  H14R16722   5.163   1.551   7.751  0.7414 -0.4666  1.5735
  151SAPE  C21516723   5.222   1.645   7.934 -0.4269  0.9720 -0.6405
  151SAPE  H15R16724   5.145   1.587   7.987  0.6540 -1.2926 -1.4271
  151SAPE  C21616725   5.297   1.743   8.009  0.1553  0.3144  0.2245
  151SAPE  H16R16726   5.225   1.801   8.070 -1.1598 -0.4545 -0.5536
  151SAPE  H16S16727   5.361   1.809   7.947  0.5455 -0.2752  0.0013
  151SAPE  C21716728   5.384   1.669   8.116  0.2369  0.5817  0.8354
  151SAPE  H17R16729   5.475   1.617   8.079 -0.5750 -0.4510  0.2399
  151SAPE  H17S16730   5.326   1.596   8.175 -0.4042  0.4460  0.0538
  151SAPE  C21816731   5.424   1.773   8.219  0.2217  0.0102  0.1320
  151SAPE  H18R16732   5.336   1.819   8.268  0.4413  1.5130 -0.8239
  151SAPE  H18S16733   5.479   1.851   8.161  0.9249 -0.2664  0.4104
  151SAPE  C21916734   5.525   1.721   8.323  0.4614 -0.0005  0.6398
  151SAPE  H19R16735   5.612   1.678   8.268 -0.2016  2.5217 -2.6680
  151SAPE  H19S16736   5.476   1.638   8.379  1.3886 -1.7166 -0.9454
  151SAPE  C22016737   5.579   1.832   8.409  0.2132  0.1655  0.2118
  151SAPE  H20R16738   5.631   1.905   8.344 -1.9209  1.0872 -0.5566
  151SAPE  H20S16739   5.487   1.871   8.457  1.1136  0.8258  1.4505
  151SAPE  H20T16740   5.650   1.796   8.487  1.1274  0.1018 -0.6352
  151SAPE   C3316741   5.763   1.832   6.548  0.1114 -0.7539  0.0454
  151SAPE   H3X16742   5.728   1.901   6.467 -0.7591 -1.2350 -0.0019
  151SAPE   H3Y16743   5.839   1.766   6.502 -0.8389 -0.9444 -1.3025
  151SAPE   C3416744   5.823   1.913   6.672  0.3977 -0.1860  0.0093
  151SAPE   H4X16745   5.838   1.845   6.758 -1.5176 -3.3716 -1.9748
  151SAPE   H4Y16746   5.751   1.996   6.693 -1.0074 -1.0263 -1.2472
  151SAPE   C3516747   5.954   1.979   6.630 -0.6078 -0.1733 -0.3058
  151SAPE   H5X16748   5.948   2.065   6.560 -0.1498 -0.9059 -1.2695
  151SAPE   H5Y16749   6.022   1.901   6.591  0.5579  0.4529  0.4072
  151SAPE   C3616750   6.029   2.044   6.754 -0.0630 -0.7759 -0.1122
  151SAPE   H6X16751   6.125   2.082   6.713  1.1721 -1.7070  1.7800
  151SAPE   H6Y16752   6.053   1.965   6.828 -1.8968  0.7288  2.2177
  151SAPE   C3716753   5.948   2.146   6.833  0.1734  0.5463  0.4678
  151SAPE   H7X16754   5.867   2.092   6.886  2.0235 -0.9667  1.8967
  151SAPE   H7Y16755   5.901   2.217   6.761  4.0670  0.0577 -2.8830
  151SAPE   C3816756   6.026   2.222   6.933 -0.2663 -0.4311  0.5962
  151SAPE   H8X16757   5.964   2.308   6.967 -0.1332 -0.1053  0.0333
  151SAPE   H8Y16758   6.118   2.264   6.885 -0.2141  0.8801  1.7738
  151SAPE   C3916759   6.071   2.142   7.056  0.8553 -0.2400 -0.1201
  151SAPE   H9X16760   6.125   2.050   7.024  0.8770  0.4794 -2.3159
  151SAPE   H9Y16761   5.977   2.107   7.103 -0.7726  0.9023 -2.3457
  151SAPE  C31016762   6.149   2.220   7.163  0.7752 -0.2415  0.8692
  151SAPE  H10X16763   6.099   2.317   7.181  2.1788  1.0130 -1.4863
  151SAPE  H10Y16764   6.244   2.249   7.113  0.1087 -0.3836 -0.5262
  151SAPE  C31116765   6.169   2.133   7.282 -0.6248 -0.1449  0.0352
  151SAPE  H11X16766   6.227   2.040   7.263  0.2242 -0.0132  1.7419
  151SAPE  H11Y16767   6.077   2.091   7.329  0.0467 -1.4384  0.2458
  151SAPE  C31216768   6.250   2.204   7.387  0.4447 -0.3909 -0.6783
  151SAPE  H12X16769   6.346   2.239   7.343  0.3128  0.2788 -0.4409
  151SAPE  H12Y16770   6.266   2.135   7.472 -0.1928 -0.1996 -0.3985
  151SAPE  C31316771   6.191   2.337   7.434  0.0398 -0.4113 -0.0730
  151SAPE  H13X16772   6.081   2.338   7.448  0.2694  3.1378  2.8887
  151SAPE  H13Y16773   6.205   2.410   7.351 -0.5055  0.8303  0.9037
  151SAPE  C31416774   6.264   2.396   7.558 -0.5871 -0.5016 -0.2372
  151SAPE  H14X16775   6.283   2.504   7.545 -2.0604 -0.1134  0.6351
  151SAPE  H14Y16776   6.365   2.350   7.568  0.2088  0.9983 -1.1224
  151SAPE  C31516777   6.183   2.372   7.690 -0.0676 -0.3795  0.4372
  151SAPE  H15X16778   6.129   2.276   7.675 -1.5222  0.9245 -5.0257
  151SAPE  H15Y16779   6.104   2.448   7.708 -0.4326 -1.6234  5.4583
  151SAPE  C31616780   6.266   2.358   7.816  0.1343 -0.0229 -0.6334
  151SAPE  H16X16781   6.332   2.447   7.825  2.1197 -1.4951  0.2820
  151SAPE  H16Y16782   6.339   2.274   7.812 -0.5743 -0.6927 -0.0330
  151SAPE  C31716783   6.190   2.340   7.948 -0.2789 -0.3630  0.3912
  151SAPE  H17X16784   6.110   2.266   7.928  0.6063 -0.8995 -1.4063
  151SAPE  H17Y16785   6.135   2.435   7.968 -3.0024 -1.5942 -0.8614
  151SAPE  C31816786   6.288   2.302   8.060 -0.0734 -0.1105 -0.7291
  151SAPE  H18X16787   6.346   2.394   8.084 -2.0096  1.7218 -2.6852
  151SAPE  H18Y16788   6.351   2.222   8.018  1.8083  1.4495 -1.0324
  151SAPE  H18Z16789   6.236   2.265   8.151 -1.0065  0.8861 -0.8392
  152SAPE     N16790   3.764   5.623   5.833  0.6673 -0.0935 -0.2644
  152SAPE   HN116791   3.779   5.720   5.798 -0.6548  0.7126  1.2749
  152SAPE   HN216792   3.794   5.616   5.933 -0.7149 -2.2604  0.0833
  152SAPE   HN316793   3.814   5.551   5.777 -2.4787 -1.6351 -1.3163
  152SAPE   C1216794   3.612   5.603   5.836  0.2069  0.3091  0.6411
  152SAPE  H12A16795   3.580   5.637   5.736  0.0022  0.9997  0.9378
  152SAPE  H12B16796   3.567   5.666   5.915 -1.4273  0.0980 -0.0944
  152SAPE   C1116797   3.580   5.455   5.879 -0.2502 -0.1937 -0.0423
  152SAPE  H11A16798   3.585   5.395   5.785 -0.7275 -0.3742  0.0434
  152SAPE  H11B16799   3.470   5.456   5.897 -0.2789 -0.9172 -0.1338
  152SAPE     P16800   3.613   5.425   6.130  0.7526 -0.0316 -0.2581
  152SAPE   O1316801   3.708   5.348   6.215  0.4649 -0.2923 -0.5284
  152SAPE   O1416802   3.579   5.565   6.164  0.0934  0.0439 -0.2809
  152SAPE   O1216803   3.670   5.412   5.984 -0.0647 -0.1055 -0.3714
  152SAPE   O1116804   3.481   5.335   6.116  0.7698  0.0987 -0.1915
  152SAPE    C116805   3.367   5.354   6.206 -0.6012  0.6268 -0.1072
  152SAPE    HA16806   3.324   5.252   6.216 -1.4837  0.9070 -0.7973
  152SAPE    HB16807   3.393   5.374   6.312 -2.2948  1.2482  0.2251
  152SAPE    C216808   3.267   5.457   6.162 -0.0457 -0.3728  0.8485
  152SAPE    HS16809   3.269   5.444   6.052  0.4041 -0.2417  0.8375
  152SAPE   O2116810   3.311   5.585   6.190 -0.2300 -0.2794 -0.6184
  152SAPE   C2116811   3.248   5.687   6.126 -0.5222 -0.3364  0.5271
  152SAPE   O2216812   3.167   5.666   6.036  0.3488  0.5844  0.1062
  152SAPE   C2216813   3.277   5.820   6.190 -0.1481 -0.5198  0.3949
  152SAPE   H2R16814   3.388   5.831   6.194  0.3442 -2.6074 -3.0758
  152SAPE   H2S16815   3.242   5.904   6.127  1.0730  0.9884  1.6358
  152SAPE    C316816   3.129   5.424   6.218  0.1304  0.0039  0.0063
  152SAPE    HX16817   3.099   5.320   6.192 -1.4990  0.9395 -2.1460
  152SAPE    HY16818   3.053   5.485   6.166  0.3897 -0.3703 -0.8297
  152SAPE   O3116819   3.109   5.448   6.360  0.0957  0.2630 -0.2804
  152SAPE   C3116820   3.121   5.347   6.449  0.1663 -0.0873 -0.7414
  152SAPE   O3216821   3.122   5.234   6.418  0.3040  0.4394 -0.2287
  152SAPE   C3216822   3.108   5.405   6.589 -0.7930  0.4193 -0.8881
  152SAPE   H2X16823   3.002   5.434   6.606  0.3312  5.3537 -0.8092
  152SAPE   H2Y16824   3.179   5.490   6.594  1.9402 -1.6707 -1.4110
  152SAPE   C2316825   3.207   5.830   6.329 -0.2909  0.0234  0.1481
  152SAPE   H3R16826   3.231   5.933   6.363  1.2102 -0.3887  0.4188
  152SAPE   H3S16827   3.253   5.750   6.390 -0.4939  0.4320  0.8539
  152SAPE   C2416828   3.053   5.823   6.321 -0.1380  0.3360  0.0071
  152SAPE   H4R16829   3.024   5.728   6.271 -0.5650  0.5628 -0.1816
  152SAPE   H4S16830   3.018   5.916   6.272  1.0884  0.5051 -0.5793
  152SAPE   C2516831   2.972   5.815   6.453 -0.0328 -0.5529 -0.7906
  152SAPE   H5R16832   2.865   5.793   6.437 -0.4249 -0.3169  1.1963
  152SAPE   C2616833   3.008   5.829   6.584 -0.6918  0.3433 -0.0937
  152SAPE   H6R16834   2.932   5.823   6.663  0.2829  3.4738  1.2341
  152SAPE   C2716835   3.141   5.862   6.643 -0.6333 -0.4441 -0.4210
  152SAPE   H7R16836   3.221   5.809   6.587  0.8812  0.5396  0.7301
  152SAPE   H7S16837   3.153   5.829   6.749 -0.8090 -1.2990 -0.6581
  152SAPE   C2816838   3.171   6.008   6.636  0.4324 -0.3198 -0.5827
  152SAPE   H8R16839   3.244   6.045   6.563 -0.5993  1.7650 -0.6198
  152SAPE   C2916840   3.133   6.091   6.735 -0.1237  0.4719 -0.4372
  152SAPE   H9R16841   3.169   6.194   6.731  0.2606  0.3032 -2.2302
  152SAPE  C21016842   3.049   6.061   6.854 -0.1998 -0.2409 -0.5147
  152SAPE  H10R16843   3.081   5.960   6.888  1.2316  0.3301 -0.0893
  152SAPE  H10S16844   2.943   6.066   6.820 -0.3931 -0.9009 -0.0407
  152SAPE  C21116845   3.066   6.165   6.962  0.6599  0.1882 -0.8292
  152SAPE  H11R16846   3.027   6.265   6.939 -1.8970 -0.3375  0.7838
  152SAPE  C21216847   3.126   6.152   7.081  0.3428  0.3073  0.0246
  152SAPE  H12R16848   3.154   6.242   7.136 -0.3208  0.4775  0.0944
  152SAPE  C21316849   3.183   6.015   7.128  0.0252  0.4816 -0.1470
  152SAPE  H13R16850   3.283   6.005   7.081  0.2006 -0.5780  0.4335
  152SAPE  H13S16851   3.144   5.924   7.078  4.7688 -0.3272 -3.0228
  152SAPE  C21416852   3.210   5.994   7.276 -0.1004  0.8007 -0.0585
  152SAPE  H14R16853   3.138   5.936   7.335 -1.3999  1.9219 -0.4802
  152SAPE  C21516854   3.315   6.037   7.346 -0.3563 -0.0053 -0.1878
  152SAPE  H15R16855   3.314   6.005   7.451  0.0235 -1.4653 -0.5940
  152SAPE  C21616856   3.433   6.120   7.303 -0.2833  0.2673 -0.2788
  152SAPE  H16R16857   3.470   6.179   7.390 -2.7482 -1.6264  2.2652
  152SAPE  H16S16858   3.410   6.183   7.215  0.7279  1.4023  0.2385
  152SAPE  C21716859   3.563   6.037   7.278 -0.4174  0.0297  0.1780
  152SAPE  H17R16860   3.543   5.971   7.191 -0.1184 -1.8815  1.4973
  152SAPE  H17S16861   3.577   5.971   7.366  1.6166 -1.7275 -1.3576
  152SAPE  C21816862   3.681   6.132   7.249 -0.0613  0.3838 -0.8989
  152SAPE  H18R16863   3.696   6.194   7.340  0.6425  0.5210 -1.1066
  152SAPE  H18S16864   3.656   6.199   7.163 -0.7952  0.5336 -0.5765
  152SAPE  C21916865   3.818   6.060   7.216 -0.8444 -0.1898 -0.2802
  152SAPE  H19R16866   3.840   5.987   7.297 -1.3280  1.4743  1.4284
  152SAPE  H19S16867   3.891   6.142   7.228  0.0368 -0.8929 -0.7562
  152SAPE  C22016868   3.824   6.010   7.070  0.4955 -0.0346 -1.3704
  152SAPE  H20R16869   3.751   6.070   7.011  0.0334  1.7290  0.8505
  152SAPE  H20S16870   3.796   5.903   7.071  0.8714 -0.1323 -0.7496
  152SAPE  H20T16871   3.926   6.019   7.026 -0.1893  0.0271 -3.0141
  152SAPE   C3316872   3.137   5.295   6.699 -0.5361  0.6892  0.1678
  152SAPE   H3X16873   3.247   5.280   6.705 -0.6884 -0.9767 -0.7434
  152SAPE   H3Y16874   3.097   5.198   6.664 -2.1037  0.5591  2.1693
  152SAPE   C3416875   3.076   5.330   6.833  0.8287 -0.8323  0.4541
  152SAPE   H4X16876   3.103   5.251   6.907  0.8986 -0.0105  1.3242
  152SAPE   H4Y16877   2.966   5.317   6.824  0.9680 -1.0834 -1.4412
  152SAPE   C3516878   3.102   5.470   6.891  0.5912 -0.3536 -0.2164
  152SAPE   H5X16879   3.097   5.550   6.813 -0.7878  1.8308  1.9700
  152SAPE   H5Y16880   3.208   5.454   6.917  0.0591 -1.3784  1.4456
  152SAPE   C3616881   3.019   5.506   7.017 -0.9305 -0.5023  0.5711
  152SAPE   H6X16882   3.020   5.419   7.087  0.1930 -2.1647 -1.4116
  152SAPE   H6Y16883   2.914   5.531   6.992 -0.9774 -0.3950  0.8681
  152SAPE   C3716884   3.076   5.632   7.088 -0.3090 -0.2080 -0.4744
  152SAPE   H7X16885   3.038   5.720   7.032  1.8103  2.2705  1.6887
  152SAPE   H7Y16886   3.184   5.625   7.059  0.0140  0.2380  0.5723
  152SAPE   C3816887   3.039   5.642   7.237 -0.0750  0.1549 -0.0323
  152SAPE   H8X16888   2.935   5.611   7.260  0.3000  0.3650  2.2258
  152SAPE   H8Y16889   3.044   5.750   7.265  0.7658  0.0043  0.4172
  152SAPE   C3916890   3.147   5.563   7.312 -0.2068 -0.3150 -0.2555
  152SAPE   H9X16891   3.241   5.597   7.264  2.4432 -2.5945  2.8737
  152SAPE   H9Y16892   3.136   5.454   7.291 -0.7281 -0.3270  0.0471
  152SAPE  C31016893   3.148   5.578   7.468 -0.0916  0.2276  0.1504
  152SAPE  H10X16894   3.138   5.687   7.491 -0.5479  0.5174 -1.2911
  152SAPE  H10Y16895   3.238   5.542   7.521 -1.1532 -0.2441  1.6890
  152SAPE  C31116896   3.020   5.501   7.529  0.0007  0.2075 -0.5271
  152SAPE  H11X16897   3.025   5.391   7.513  2.2717  0.3310 -1.0348
  152SAPE  H11Y16898   2.923   5.548   7.503 -0.3114  0.8474  1.6423
  152SAPE  C31216899   3.007   5.532   7.686  0.8041 -0.1247  0.0617
  152SAPE  H12X16900   2.950   5.626   7.701 -1.6729 -1.5151 -0.0517
  152SAPE  H12Y16901   3.098   5.529   7.748 -0.6719  1.7608  2.5113
  152SAPE  C31316902   2.902   5.434   7.753 -0.1433 -1.1567  0.0126
  152SAPE  H13X16903   2.949   5.334   7.760  0.1559 -1.0194 -0.0319
  152SAPE  H13Y16904   2.815   5.438   7.684  0.4492  1.2179 -0.7204
  152SAPE  C31416905   2.854   5.489   7.892 -0.4084  0.0709  0.4128
  152SAPE  H14X16906   2.793   5.582   7.885  0.6911  0.7701 -0.2471
  152SAPE  H14Y16907   2.941   5.517   7.954  0.8143  1.0614 -1.6338
  152SAPE  C31516908   2.764   5.389   7.967  0.5215  0.0503 -0.4609
  152SAPE  H15X16909   2.801   5.285   7.952 -1.6379 -0.6067 -1.5452
  152SAPE  H15Y16910   2.660   5.396   7.930  0.0038 -1.0586  0.7140
  152SAPE  C31616911   2.752   5.418   8.117  0.4028 -0.0902  0.1646
  152SAPE  H16X16912   2.715   5.522   8.130 -0.4537 -0.3710  0.0433
  152SAPE  H16Y16913   2.856   5.422   8.155  0.2200  1.8278  0.5543
  152SAPE  C31716914   2.675   5.309   8.199  0.0185  0.2467  0.5532
  152SAPE  H17X16915   2.707   5.204   8.181 -0.3298  0.3668 -0.8973
  152SAPE  H17Y16916   2.573   5.315   8.156 -0.1848  0.3301  1.0387
  152SAPE  C31816917   2.663   5.339   8.349 -0.0541  0.7933 -0.0910
  152SAPE  H18X16918   2.767   5.355   8.385 -0.4354  3.3021  0.0805
  152SAPE  H18Y16919   2.615   5.250   8.393  0.9966  0.1732 -0.1648
  152SAPE  H18Z16920   2.606   5.433   8.366  1.0807  1.4678  0.0856
  153SAPE     N16921   6.759   6.787   6.364 -0.5887 -0.6363 -0.0301
  153SAPE   HN116922   6.667   6.740   6.351 -0.3960 -1.1375  0.3702
  153SAPE   HN216923   6.764   6.882   6.322  0.0574 -0.4788  0.3908
  153SAPE   HN316924   6.830   6.734   6.309  0.9137 -2.5704  3.4382
  153SAPE   C1216925   6.814   6.822   6.502  0.8403  0.2641 -0.5035
  153SAPE  H12A16926   6.915   6.780   6.523  0.9626  0.0183 -1.5329
  153SAPE  H12B16927   6.739   6.779   6.572  1.4588 -0.3412 -0.1934
  153SAPE   C1116928   6.838   6.968   6.543  1.1719  0.8031  0.3104
  153SAPE  H11A16929   6.864   6.962   6.651  1.3302 -1.0558  0.1926
  153SAPE  H11B16930   6.748   7.030   6.522  1.4430  1.6600  1.5675
  153SAPE     P16931   7.002   7.168   6.487 -0.3060  0.1924  0.1970
  153SAPE   O1316932   7.107   7.190   6.386  0.2486 -0.5815  0.3817
  153SAPE   O1416933   6.880   7.262   6.477  0.2030  0.5352  0.2555
  153SAPE   O1216934   6.950   7.019   6.464  0.0174 -0.7305  0.0883
  153SAPE   O1116935   7.066   7.154   6.636  0.3763 -0.2188  0.4430
  153SAPE    C116936   7.152   7.257   6.682 -0.5685  0.4637  0.5676
  153SAPE    HA16937   7.138   7.353   6.629 -0.1297 -0.4201 -1.2163
  153SAPE    HB16938   7.152   7.270   6.793  0.0446 -0.7504  0.7272
  153SAPE    C216939   7.301   7.213   6.647  0.5554 -0.7865  0.2114
  153SAPE    HS16940   7.304   7.202   6.536 -0.4170 -1.2895  0.2223
  153SAPE   O2116941   7.336   7.086   6.710  0.2231 -0.2477  0.2228
  153SAPE   C2116942   7.439   7.018   6.655 -0.6320 -0.0409  0.6031
  153SAPE   O2216943   7.486   7.054   6.548  0.6591  1.0548  0.2135
  153SAPE   C2216944   7.486   6.899   6.731 -0.1176  0.0053 -0.0263
  153SAPE   H2R16945   7.548   6.936   6.815  0.0618  3.0094 -1.3370
  153SAPE   H2S16946   7.399   6.836   6.757  0.4383 -0.6260  0.3276
  153SAPE    C316947   7.394   7.331   6.699  0.5342  0.1415  0.0712
  153SAPE    HX16948   7.371   7.430   6.655  3.6497  0.7392 -0.4806
  153SAPE    HY16949   7.496   7.325   6.654  0.0123 -1.1802 -1.0409
  153SAPE   O3116950   7.391   7.351   6.841 -0.3020 -0.8772 -0.8562
  153SAPE   C3116951   7.482   7.273   6.897  0.6058 -0.3273  0.0331
  153SAPE   O3216952   7.572   7.221   6.833 -0.0992  0.1415 -0.4494
  153SAPE   C3216953   7.448   7.265   7.049 -0.3187 -0.1129  0.2742
  153SAPE   H2X16954   7.366   7.189   7.053 -0.4548  0.0913  1.4984
  153SAPE   H2Y16955   7.401   7.362   7.073 -0.3794  0.6247 -2.5028
  153SAPE   C2316956   7.583   6.808   6.649 -0.4315 -0.2307  1.1078
  153SAPE   H3R16957   7.663   6.865   6.597 -0.1075 -1.8278 -0.2616
  153SAPE   H3S16958   7.524   6.761   6.567 -1.8489  2.4892  0.4598
  153SAPE   C2416959   7.647   6.703   6.739  0.3147 -0.1675 -0.6074
  153SAPE   H4R16960   7.699   6.759   6.820  1.3262  0.5520 -1.6990
  153SAPE   H4S16961   7.718   6.638   6.682  0.2767 -2.8298  2.1853
  153SAPE   C2516962   7.546   6.607   6.802 -0.3315 -0.5077  0.3925
  153SAPE   H5R16963   7.486   6.556   6.725  1.6371  0.3379 -1.7986
  153SAPE   C2616964   7.527   6.583   6.931 -0.1290 -0.2173 -0.3495
  153SAPE   H6R16965   7.449   6.510   6.958 -1.4085  1.5763  1.1243
  153SAPE   C2716966   7.605   6.656   7.048  0.3177  0.8292  0.5834
  153SAPE   H7R16967   7.702   6.706   7.028  0.4888 -0.3169 -1.7448
  153SAPE   H7S16968   7.632   6.573   7.117 -2.4752 -0.5951  0.1423
  153SAPE   C2816969   7.508   6.735   7.126  0.1018  0.1458 -0.7632
  153SAPE   H8R16970   7.481   6.828   7.074 -0.1228  0.0056 -0.8959
  153SAPE   C2916971   7.446   6.704   7.241 -0.4129 -0.0467 -0.2460
  153SAPE   H9R16972   7.371   6.780   7.268 -0.1716  0.3229 -0.6034
  153SAPE  C21016973   7.458   6.573   7.319  0.4174  0.2059 -0.0255
  153SAPE  H10R16974   7.521   6.597   7.408  0.8862  0.7491 -0.4888
  153SAPE  H10S16975   7.499   6.487   7.262  0.0255 -0.2380  0.3558
  153SAPE  C21116976   7.317   6.543   7.363 -0.6881  0.2967  0.2849
  153SAPE  H11R16977   7.270   6.465   7.301 -0.1285 -0.0123  0.2425
  153SAPE  C21216978   7.255   6.586   7.474 -0.1437  0.5711  0.2495
  153SAPE  H12R16979   7.156   6.546   7.500  0.6022 -2.6155 -1.3546
  153SAPE  C21316980   7.310   6.688   7.569  0.3042 -0.0094 -0.6980
  153SAPE  H13R16981   7.216   6.724   7.617 -1.3342 -2.2108 -2.0286
  153SAPE  H13S16982   7.354   6.776   7.517  1.1105  1.7288  2.6816
  153SAPE  C21416983   7.407   6.625   7.661  0.3713 -0.2811 -0.4274
  153SAPE  H14R16984   7.494   6.588   7.604  1.5664  3.5455 -1.3322
  153SAPE  C21516985   7.415   6.628   7.797  0.2186 -0.1992 -0.4349
  153SAPE  H15R16986   7.500   6.580   7.847 -0.0849  0.2261  0.5378
  153SAPE  C21616987   7.340   6.710   7.898  0.5644  0.1262  0.0917
  153SAPE  H16R16988   7.357   6.656   7.994  0.3977  2.8152  1.7218
  153SAPE  H16S16989   7.233   6.721   7.871  1.2962  0.2215 -3.0659
  153SAPE  C21716990   7.393   6.858   7.914  0.4131  0.4622  0.5242
  153SAPE  H17R16991   7.340   6.926   7.843 -0.3764 -1.4258 -0.7710
  153SAPE  H17S16992   7.499   6.859   7.882  0.0966 -1.1670 -0.7097
  153SAPE  C21816993   7.346   6.905   8.051  0.1779 -0.6173 -1.0286
  153SAPE  H18R16994   7.417   6.985   8.081 -1.5696  2.2795 -4.0026
  153SAPE  H18S16995   7.369   6.813   8.109 -0.4359 -0.1336  0.0073
  153SAPE  C21916996   7.197   6.945   8.063 -0.1422 -0.2914 -0.1929
  153SAPE  H19R16997   7.144   6.848   8.074  0.5896 -1.1484 -3.2236
  153SAPE  H19S16998   7.169   7.004   7.973 -1.3026 -0.1476  0.2542
  153SAPE  C22016999   7.156   7.023   8.189  0.3212  0.3754  0.2558
  153SAPE  H20R17000   7.210   7.116   8.217 -2.3677  2.0988  0.0294
  153SAPE  H20S17001   7.159   6.950   8.272  4.4492  0.0598  0.0667
  153SAPE  H20T17002   7.053   7.062   8.177  0.9378  2.5890  1.6166
  153SAPE   C3317003   7.560   7.221   7.145 -0.6292  0.1147  0.4499
  153SAPE   H3X17004   7.517   7.215   7.247 -0.0952 -2.4537  0.5981
  153SAPE   H3Y17005   7.639   7.299   7.144  0.6928 -1.1643 -1.5059
  153SAPE   C3417006   7.632   7.090   7.106 -0.5951 -0.1004  0.1024
  153SAPE   H4X17007   7.706   7.105   7.025  2.2312 -1.6713  2.2362
  153SAPE   H4Y17008   7.547   7.025   7.076 -1.7596  1.8372 -0.9938
  153SAPE   C3517009   7.717   7.019   7.215 -0.6288 -0.3649  0.4744
  153SAPE   H5X17010   7.808   7.080   7.236 -1.9712  1.2802  1.8974
  153SAPE   H5Y17011   7.731   6.918   7.171 -2.3035 -0.3911 -0.0746
  153SAPE   C3617012   7.650   7.001   7.350  0.3065 -0.7738  0.0475
  153SAPE   H6X17013   7.577   6.918   7.336  0.8128 -1.0882 -0.8441
  153SAPE   H6Y17014   7.593   7.093   7.374  0.1438 -1.1759  1.2919
  153SAPE   C3717015   7.748   6.981   7.466  0.3525  0.5147  0.1718
  153SAPE   H7X17016   7.802   7.078   7.475  3.3079 -0.9562 -0.2857
  153SAPE   H7Y17017   7.823   6.906   7.432 -0.8889 -0.7308  0.1030
  153SAPE   C3817018   7.680   6.948   7.602 -0.6353  0.5232  0.0431
  153SAPE   H8X17019   7.608   6.863   7.601 -2.6611  2.1125  1.5385
  153SAPE   H8Y17020   7.615   7.031   7.637  1.3042  1.9789  0.3905
  153SAPE   C3917021   7.773   6.914   7.720 -0.1155 -0.0723  0.3086
  153SAPE   H9X17022   7.808   6.810   7.701 -0.6953  0.0561 -1.6273
  153SAPE   H9Y17023   7.715   6.910   7.815 -0.1888  0.7430  0.3005
  153SAPE  C31017024   7.892   7.007   7.744  0.1825  0.1005  1.0983
  153SAPE  H10X17025   7.856   7.111   7.730  0.1196  0.2917  2.5321
  153SAPE  H10Y17026   7.962   7.002   7.659 -1.5300 -2.5976 -0.3028
  153SAPE  C31117027   7.937   6.997   7.893  0.2698  0.8071  0.2378
  153SAPE  H11X17028   7.989   6.901   7.912  0.4353  0.9828  0.6817
  153SAPE  H11Y17029   7.855   7.009   7.968 -0.9435 -1.5194 -0.6224
  153SAPE  C31217030   8.049   7.096   7.926 -0.7265 -0.2433 -0.1695
  153SAPE  H12X17031   8.108   7.116   7.834 -0.1420  1.9184  0.6120
  153SAPE  H12Y17032   8.118   7.056   8.003 -0.1784 -0.3097 -0.6901
  153SAPE  C31317033   7.992   7.229   7.985 -0.6620 -0.0906  0.7211
  153SAPE  H13X17034   7.882   7.241   7.985 -0.5634  1.2085 -1.2401
  153SAPE  H13Y17035   8.019   7.310   7.913 -0.5887 -0.5788  0.1890
  153SAPE  C31417036   8.046   7.269   8.117  0.5480  0.1275  0.2062
  153SAPE  H14X17037   8.004   7.371   8.129 -0.3410  0.2721 -3.2461
  153SAPE  H14Y17038   8.156   7.276   8.100  0.5246 -2.1779 -1.2961
  153SAPE  C31517039   7.988   7.176   8.227  0.4226  0.3372  0.4055
  153SAPE  H15X17040   8.044   7.199   8.320  0.9982  2.0164 -0.3258
  153SAPE  H15Y17041   8.003   7.071   8.193 -0.6499  0.1223  0.5539
  153SAPE  C31617042   7.832   7.203   8.237  0.2231  0.2113 -0.2321
  153SAPE  H16X17043   7.775   7.168   8.148  0.7085  0.3818 -0.6150
  153SAPE  H16Y17044   7.817   7.311   8.257 -1.5610  0.0460 -0.5377
  153SAPE  C31717045   7.760   7.122   8.345  0.2257  0.4006 -0.5221
  153SAPE  H17X17046   7.677   7.186   8.381 -0.3569 -1.2013  1.1113
  153SAPE  H17Y17047   7.826   7.077   8.422  0.7537  2.1830  0.1292
  153SAPE  C31817048   7.687   7.004   8.270 -0.0944  0.3886  0.0808
  153SAPE  H18X17049   7.647   6.944   8.354  0.0736  0.5226  0.2551
  153SAPE  H18Y17050   7.753   6.932   8.216 -2.5152 -2.2288  0.3984
  153SAPE  H18Z17051   7.612   7.043   8.198  0.6099  0.2362 -0.7536
  154SAPE     N17052   5.454   3.550   5.854  0.2890 -0.3340 -0.0517
  154SAPE   HN117053   5.545   3.504   5.836  0.8648  0.5368  0.5945
  154SAPE   HN217054   5.397   3.492   5.919  0.7255  0.4020  1.0027
  154SAPE   HN317055   5.400   3.566   5.766 -2.8111  1.4130  1.9643
  154SAPE   C1217056   5.501   3.674   5.922  0.2537  0.7404 -0.0845
  154SAPE  H12A17057   5.535   3.745   5.844  0.6815  0.0847 -0.5045
  154SAPE  H12B17058   5.584   3.637   5.985 -0.6880 -1.2365  0.0775
  154SAPE   C1117059   5.388   3.739   6.000  0.1818  0.2261 -0.4318
  154SAPE  H11A17060   5.424   3.819   6.068 -0.6814  0.3771 -0.1363
  154SAPE  H11B17061   5.340   3.661   6.062 -0.9348 -0.2574 -1.8456
  154SAPE     P17062   5.174   3.895   5.969  0.4343  0.3390  0.0457
  154SAPE   O1317063   5.211   4.029   5.919 -0.5513 -0.0041  0.1224
  154SAPE   O1417064   5.041   3.848   5.926  0.1953 -0.3822  0.2739
  154SAPE   O1217065   5.284   3.794   5.914 -0.0996  0.8642 -0.1548
  154SAPE   O1117066   5.197   3.873   6.122  0.0173  0.7031  0.4415
  154SAPE    C117067   5.090   3.808   6.190 -1.0069  0.4026  0.6525
  154SAPE    HA17068   4.990   3.855   6.178  0.0754  2.7381  0.0486
  154SAPE    HB17069   5.084   3.707   6.146  2.1055  0.0644  0.7661
  154SAPE    C217070   5.103   3.807   6.344  0.0552 -0.9131  0.4836
  154SAPE    HS17071   5.060   3.903   6.381 -0.8443 -1.6590  1.4090
  154SAPE   O2117072   5.239   3.796   6.386  0.0235 -0.0061  0.5141
  154SAPE   C2117073   5.309   3.915   6.372 -0.1801 -0.1228 -0.0603
  154SAPE   O2217074   5.261   4.023   6.342 -0.4921  0.1433  0.4501
  154SAPE   C2217075   5.457   3.901   6.413  0.2917  0.6752  0.5098
  154SAPE   H2R17076   5.509   3.869   6.320  1.0144 -1.7093  1.6494
  154SAPE   H2S17077   5.493   4.004   6.434  1.6349  0.1914  0.6728
  154SAPE    C317078   5.015   3.693   6.407  0.6362 -0.0989 -0.7601
  154SAPE    HX17079   5.054   3.595   6.373  0.9536  0.2016 -1.3009
  154SAPE    HY17080   4.910   3.706   6.373  0.0454 -2.6341 -0.1146
  154SAPE   O3117081   5.007   3.708   6.551 -0.2625  0.2339 -0.2580
  154SAPE   C3117082   5.078   3.620   6.622  0.2867  0.0267  0.7510
  154SAPE   O3217083   5.146   3.532   6.573 -0.4104  0.4001  0.1882
  154SAPE   C3217084   5.060   3.642   6.772  0.1514  1.1082  0.8724
  154SAPE   H2X17085   4.956   3.679   6.782 -0.4503 -0.1418 -0.4090
  154SAPE   H2Y17086   5.128   3.729   6.791  0.2022  1.7154 -1.7007
  154SAPE   C2317087   5.491   3.811   6.529  0.0012  0.8139  0.0848
  154SAPE   H3R17088   5.601   3.798   6.525 -0.1061 -0.1447  0.0754
  154SAPE   H3S17089   5.443   3.711   6.520  0.0859  0.6576  1.2402
  154SAPE   C2417090   5.431   3.858   6.659 -0.7525 -0.3576  0.0386
  154SAPE   H4R17091   5.320   3.860   6.660 -0.7596  1.1757  1.5007
  154SAPE   H4S17092   5.471   3.961   6.673  1.4527 -0.8842 -1.8590
  154SAPE   C2517093   5.465   3.759   6.766  0.1299 -0.9697 -1.2609
  154SAPE   H5R17094   5.455   3.656   6.729  1.8467 -1.1502 -1.3030
  154SAPE   C2617095   5.501   3.793   6.896  0.5310 -0.0060 -0.1846
  154SAPE   H6R17096   5.533   3.717   6.968  0.9124  1.5189  1.3136
  154SAPE   C2717097   5.494   3.923   6.960 -0.5646  0.2552  0.1622
  154SAPE   H7R17098   5.480   3.907   7.069  1.5680 -0.0964  0.4286
  154SAPE   H7S17099   5.410   3.984   6.922  0.2371  0.2284 -1.7636
  154SAPE   C2817100   5.621   3.990   6.937 -0.0707 -0.6288 -0.4403
  154SAPE   H8R17101   5.662   3.995   6.835 -1.2070 -0.3230 -0.8974
  154SAPE   C2917102   5.694   4.057   7.032 -0.4198 -0.3944  0.3197
  154SAPE   H9R17103   5.780   4.110   6.989 -2.3385  1.1705 -1.8851
  154SAPE  C21017104   5.658   4.085   7.179  0.3206  0.8392  0.2414
  154SAPE  H10R17105   5.552   4.119   7.179  0.8127  2.5691  2.0771
  154SAPE  H10S17106   5.714   4.172   7.220  0.1645  0.7223  0.7054
  154SAPE  C21117107   5.684   3.960   7.258  0.1173  0.8928 -0.3404
  154SAPE  H11R17108   5.692   3.869   7.197  0.3665  0.4800  0.2968
  154SAPE  C21217109   5.696   3.946   7.393  0.1545  0.1627 -0.0388
  154SAPE  H12R17110   5.730   3.850   7.434 -1.7097 -1.1920 -1.4725
  154SAPE  C21317111   5.674   4.065   7.483 -0.2276  0.7843 -0.3964
  154SAPE  H13R17112   5.614   4.148   7.439 -0.6119 -0.0259 -1.4201
  154SAPE  H13S17113   5.772   4.108   7.514  0.6104 -0.2118 -1.5804
  154SAPE  C21417114   5.613   4.014   7.614 -0.1025 -0.0183  0.4819
  154SAPE  H14R17115   5.505   4.031   7.615 -0.1092  0.1769 -0.9977
  154SAPE  C21517116   5.677   3.971   7.731 -0.3153  0.3761  0.0418
  154SAPE  H15R17117   5.624   3.971   7.827  1.2274 -0.6386  0.9319
  154SAPE  C21617118   5.823   3.954   7.738 -0.0347 -0.2871 -0.0910
  154SAPE  H16R17119   5.872   4.004   7.652  0.0108 -1.3974 -0.7351
  154SAPE  H16S17120   5.851   3.847   7.740 -0.2860 -0.3509  2.3190
  154SAPE  C21717121   5.874   4.036   7.862  0.1308 -0.8130 -0.1477
  154SAPE  H17R17122   5.824   4.135   7.871 -0.9907 -1.4897  1.5179
  154SAPE  H17S17123   5.981   4.062   7.843 -0.1070 -0.0573 -0.4807
  154SAPE  C21817124   5.866   3.959   7.996  0.0125 -0.3528 -0.1889
  154SAPE  H18R17125   5.761   3.927   8.017  0.3148  0.2829  2.6101
  154SAPE  H18S17126   5.894   4.031   8.076 -1.5478 -0.3345  0.3924
  154SAPE  C21917127   5.955   3.837   8.008 -0.6576 -0.1493  0.5617
  154SAPE  H19R17128   6.054   3.861   7.965 -1.3992  2.5497  0.1507
  154SAPE  H19S17129   5.923   3.756   7.940  2.8852 -0.4206 -0.9730
  154SAPE  C22017130   5.969   3.785   8.149 -0.0172 -0.3981 -0.1111
  154SAPE  H20R17131   5.869   3.767   8.194  0.6196  0.5322  1.7486
  154SAPE  H20S17132   6.018   3.847   8.226  0.0821  0.4374 -0.8328
  154SAPE  H20T17133   6.022   3.687   8.148  0.2113 -0.2826 -1.2841
  154SAPE   C3317134   5.099   3.520   6.852  0.1382 -1.0957  0.6696
  154SAPE   H3X17135   5.195   3.472   6.821  0.1191 -0.1002 -1.0651
  154SAPE   H3Y17136   5.027   3.438   6.832  2.0031 -2.7416  0.3610
  154SAPE   C3417137   5.116   3.552   7.001  0.2416  0.3585  0.4196
  154SAPE   H4X17138   5.023   3.598   7.042 -0.0196 -1.5512  2.1319
  154SAPE   H4Y17139   5.201   3.623   7.010  0.4382  0.0786  0.8140
  154SAPE   C3517140   5.150   3.426   7.079 -0.9406 -0.1898 -0.2781
  154SAPE   H5X17141   5.227   3.368   7.025 -2.4638 -2.8040  0.1729
  154SAPE   H5Y17142   5.066   3.354   7.089 -1.6346  0.7751  1.5595
  154SAPE   C3617143   5.189   3.441   7.223 -0.5784  0.2033 -0.2710
  154SAPE   H6X17144   5.238   3.349   7.262  0.9093  1.4256  0.8619
  154SAPE   H6Y17145   5.108   3.483   7.287  0.9198  2.2531  0.3900
  154SAPE   C3717146   5.308   3.543   7.231 -0.4695 -0.1531  0.1394
  154SAPE   H7X17147   5.283   3.651   7.231  0.7404  0.1648  1.7279
  154SAPE   H7Y17148   5.378   3.515   7.150  0.4985 -1.1175  1.2769
  154SAPE   C3817149   5.398   3.517   7.356  0.4087  0.5750 -0.0217
  154SAPE   H8X17150   5.398   3.408   7.378  0.5305  0.6036  0.1240
  154SAPE   H8Y17151   5.332   3.559   7.434 -0.2276 -0.0077 -0.2404
  154SAPE   C3917152   5.531   3.594   7.379 -0.2419 -0.2635  0.1901
  154SAPE   H9X17153   5.530   3.705   7.382  1.1546 -0.1519 -1.4096
  154SAPE   H9Y17154   5.594   3.571   7.290  0.0568 -0.4761  0.4516
  154SAPE  C31017155   5.606   3.550   7.509 -0.0503  0.6656 -0.1649
  154SAPE  H10X17156   5.709   3.590   7.507  1.4762 -2.8323 -2.3668
  154SAPE  H10Y17157   5.620   3.439   7.505  0.0255  0.6635  0.1749
  154SAPE  C31117158   5.527   3.589   7.641 -0.2756 -0.0657  0.6080
  154SAPE  H11X17159   5.427   3.545   7.626  0.2233 -1.1904  0.5066
  154SAPE  H11Y17160   5.518   3.700   7.632 -2.1958 -0.3258 -1.6373
  154SAPE  C31217161   5.597   3.537   7.764  0.3458 -0.5739  0.0947
  154SAPE  H12X17162   5.705   3.556   7.748  0.0309 -0.5157 -2.4933
  154SAPE  H12Y17163   5.589   3.426   7.767 -2.8912 -0.5233 -1.9283
  154SAPE  C31317164   5.562   3.588   7.903  0.5059 -0.1368 -0.3202
  154SAPE  H13X17165   5.453   3.574   7.919  0.6343  0.6124  1.4714
  154SAPE  H13Y17166   5.594   3.694   7.891  1.6709 -0.4706 -0.2740
  154SAPE  C31417167   5.647   3.516   8.010  0.0388 -0.1165  0.2941
  154SAPE  H14X17168   5.750   3.545   7.981  0.2888  0.2755  1.5327
  154SAPE  H14Y17169   5.630   3.406   7.999 -3.4480  0.3425 -0.1519
  154SAPE  C31517170   5.624   3.544   8.161 -0.0751  0.0828  0.4222
  154SAPE  H15X17171   5.517   3.524   8.181 -1.3198  3.5070 -1.9380
  154SAPE  H15Y17172   5.654   3.651   8.157  1.6954 -0.3127  1.9204
  154SAPE  C31617173   5.712   3.442   8.241  0.0021 -0.0249  0.8248
  154SAPE  H16X17174   5.812   3.473   8.204 -0.4162  0.4497  0.0567
  154SAPE  H16Y17175   5.681   3.340   8.211  1.3207 -0.2520  0.1349
  154SAPE  C31717176   5.695   3.439   8.388  0.1855 -0.4201  0.4213
  154SAPE  H17X17177   5.613   3.366   8.403  0.3949 -0.8984 -0.6179
  154SAPE  H17Y17178   5.663   3.538   8.427  2.0788  1.2536 -1.9303
  154SAPE  C31817179   5.817   3.411   8.471  0.2444 -0.2361  0.2837
  154SAPE  H18X17180   5.890   3.494   8.458  2.1755 -1.7449  1.0789
  154SAPE  H18Y17181   5.874   3.322   8.437  1.8926  0.9054 -0.0171
  154SAPE  H18Z17182   5.798   3.407   8.580 -1.1937 -0.5485  0.0462
  155SAPE     N17183   6.184   4.128   6.163 -0.2107  0.1846  0.1982
  155SAPE   HN117184   6.202   4.105   6.063 -2.5523 -1.4741  0.0846
  155SAPE   HN217185   6.183   4.045   6.226 -1.2180  0.4636  0.5760
  155SAPE   HN317186   6.091   4.172   6.178  0.3542  1.1001  1.1895
  155SAPE   C1217187   6.279   4.222   6.229 -0.5677  0.8856  0.3769
  155SAPE  H12A17188   6.333   4.289   6.158 -1.1447  1.0860  0.1219
  155SAPE  H12B17189   6.351   4.164   6.290 -0.8023 -0.5984 -0.6949
  155SAPE   C1117190   6.193   4.301   6.325 -0.0869 -0.3660 -0.0675
  155SAPE  H11A17191   6.248   4.385   6.373 -0.2308 -1.1150  1.4581
  155SAPE  H11B17192   6.163   4.241   6.413  1.3621  0.9800  1.3946
  155SAPE     P17193   5.930   4.327   6.298  0.3680 -0.0617  0.0052
  155SAPE   O1317194   5.846   4.432   6.245  0.1767  0.1339 -0.3386
  155SAPE   O1417195   5.914   4.186   6.258  0.1860  0.2283  0.4843
  155SAPE   O1217196   6.074   4.363   6.261  0.4150  0.4278  0.3441
  155SAPE   O1117197   5.935   4.354   6.452 -0.0937 -0.4860  1.2626
  155SAPE    C117198   5.988   4.486   6.490 -0.5837 -0.1464  0.2177
  155SAPE    HA17199   6.095   4.477   6.521 -0.3731  1.7219  0.1285
  155SAPE    HB17200   5.972   4.563   6.413 -1.8209 -0.6179 -0.0154
  155SAPE    C217201   5.918   4.532   6.627 -0.0287  0.3738  0.0497
  155SAPE    HS17202   5.984   4.609   6.671  0.3859  0.2882 -0.4166
  155SAPE   O2117203   5.902   4.425   6.717  0.0122 -0.2912 -0.1963
  155SAPE   C2117204   6.001   4.410   6.802 -0.0849  0.4135  0.4874
  155SAPE   O2217205   6.109   4.464   6.805 -0.1175 -0.0087 -0.1232
  155SAPE   C2217206   5.947   4.323   6.914 -0.2781  0.0057  0.5796
  155SAPE   H2R17207   5.849   4.363   6.947 -1.6302 -0.1370 -2.8450
  155SAPE   H2S17208   5.930   4.222   6.873  1.0654 -0.2393  0.5733
  155SAPE    C317209   5.780   4.595   6.595  0.0880 -0.2184  0.5547
  155SAPE    HX17210   5.724   4.515   6.542 -0.9091  0.2814  0.8157
  155SAPE    HY17211   5.812   4.674   6.523  2.2991 -4.0186 -3.0579
  155SAPE   O3117212   5.729   4.631   6.728  0.0940 -0.5682 -0.0273
  155SAPE   C3117213   5.604   4.663   6.724 -0.1759  1.4965  0.6133
  155SAPE   O3217214   5.540   4.686   6.622  0.2994 -0.5007 -0.4883
  155SAPE   C3217215   5.545   4.672   6.864  0.6250  0.2300 -1.2281
  155SAPE   H2X17216   5.626   4.653   6.938 -0.3146 -1.5980 -0.6064
  155SAPE   H2Y17217   5.476   4.587   6.881  0.9999 -0.1365 -1.5089
  155SAPE   C2317218   6.033   4.300   7.041 -0.3711 -0.9480 -0.6193
  155SAPE   H3R17219   6.137   4.272   7.011 -0.0856  0.8938 -1.5229
  155SAPE   H3S17220   5.994   4.206   7.085  0.3736 -2.2839 -2.6453
  155SAPE   C2417221   6.019   4.418   7.143 -0.0091 -0.1514  0.6704
  155SAPE   H4R17222   6.054   4.510   7.092 -0.6348  0.5294  1.4562
  155SAPE   H4S17223   6.097   4.392   7.218  1.3919  0.4632 -0.5221
  155SAPE   C2517224   5.886   4.455   7.203 -0.0713 -0.4582 -0.0890
  155SAPE   H5R17225   5.818   4.494   7.126 -1.6129 -1.6564  0.6078
  155SAPE   C2617226   5.841   4.443   7.330 -0.0472 -0.4486  0.1185
  155SAPE   H6R17227   5.737   4.473   7.350 -0.5459 -0.9650 -1.5090
  155SAPE   C2717228   5.904   4.391   7.456 -0.0275  0.2808 -0.0847
  155SAPE   H7R17229   5.960   4.300   7.424  2.4417  2.3493 -2.0324
  155SAPE   H7S17230   5.825   4.357   7.526 -0.9050  0.9004 -0.7647
  155SAPE   C2817231   6.001   4.494   7.515  0.3352 -0.1143  0.3954
  155SAPE   H8R17232   6.046   4.561   7.440 -0.8927 -1.3791 -1.5310
  155SAPE   C2917233   6.025   4.505   7.649  0.1527 -0.1534  0.3930
  155SAPE   H9R17234   6.105   4.566   7.694 -0.6069 -0.5855  2.4509
  155SAPE  C21017235   5.964   4.414   7.757 -0.6260 -0.1289 -0.6142
  155SAPE  H10R17236   5.880   4.351   7.720  0.6777 -1.8959 -0.6853
  155SAPE  H10S17237   5.918   4.479   7.835 -0.9042  0.6702 -1.4200
  155SAPE  C21117238   6.061   4.323   7.821  0.3464  0.0724  0.7075
  155SAPE  H11R17239   6.089   4.245   7.750  1.3079  0.2598  0.8667
  155SAPE  C21217240   6.116   4.324   7.937  0.5539 -0.1908  0.9920
  155SAPE  H12R17241   6.198   4.252   7.954  0.1788 -0.7012  0.6798
  155SAPE  C21317242   6.086   4.430   8.043  0.4721 -0.0150 -0.0630
  155SAPE  H13R17243   6.079   4.535   8.009  0.2039  0.6086  1.7770
  155SAPE  H13S17244   6.178   4.441   8.104  1.0123 -0.2910 -0.8269
  155SAPE  C21417245   5.962   4.378   8.117 -0.0512  0.4529 -0.1351
  155SAPE  H14R17246   5.868   4.411   8.070  1.1111  4.1843 -0.1445
  155SAPE  C21517247   5.962   4.288   8.223 -0.6302 -0.2397 -0.5525
  155SAPE  H15R17248   5.861   4.257   8.253 -1.9519  1.3031 -3.0153
  155SAPE  C21617249   6.087   4.226   8.280  0.3133 -0.2415  0.1992
  155SAPE  H16R17250   6.174   4.293   8.265  1.1657 -1.2351  0.5205
  155SAPE  H16S17251   6.114   4.135   8.222  0.5039  1.0949 -1.9162
  155SAPE  C21717252   6.076   4.185   8.430  0.3664 -0.1856 -0.4612
  155SAPE  H17R17253   6.022   4.269   8.479 -0.9888 -1.4040  0.1686
  155SAPE  H17S17254   6.176   4.176   8.478  0.2016 -0.9892 -0.2611
  155SAPE  C21817255   5.995   4.058   8.454  0.6122  0.3617  0.2239
  155SAPE  H18R17256   6.043   3.967   8.414 -1.9772 -1.0363  0.0729
  155SAPE  H18S17257   5.899   4.070   8.398  0.0943 -0.7114  0.8493
  155SAPE  C21917258   5.949   4.021   8.595 -0.2760 -0.7601  0.0026
  155SAPE  H19R17259   5.870   4.095   8.622  0.1220 -0.5950  0.7424
  155SAPE  H19S17260   6.031   4.037   8.669 -0.5107 -2.5421  0.6968
  155SAPE  C22017261   5.882   3.881   8.618  0.6112  0.8087 -0.6398
  155SAPE  H20R17262   5.951   3.802   8.581 -1.0356 -0.5939 -0.8223
  155SAPE  H20S17263   5.792   3.877   8.553  1.1635 -1.8570 -1.3282
  155SAPE  H20T17264   5.850   3.861   8.723 -0.7305  0.8442 -1.0304
  155SAPE   C3317265   5.478   4.814   6.892 -0.6359 -0.1007 -0.3116
  155SAPE   H3X17266   5.393   4.838   6.825  0.2232  2.0210 -0.6977
  155SAPE   H3Y17267   5.556   4.885   6.857 -0.1880  0.1323  1.0784
  155SAPE   C3417268   5.444   4.832   7.037  0.2037  0.1977  0.4597
  155SAPE   H4X17269   5.373   4.754   7.070  0.1019  0.4334  0.7996
  155SAPE   H4Y17270   5.392   4.930   7.048  2.9876  1.7847  0.5268
  155SAPE   C3517271   5.560   4.830   7.136 -0.6243 -0.4225  0.2179
  155SAPE   H5X17272   5.626   4.918   7.126 -1.6474  0.3298 -0.1156
  155SAPE   H5Y17273   5.614   4.735   7.117 -0.0899  0.1949 -1.5364
  155SAPE   C3617274   5.523   4.846   7.281 -0.4492  0.0640 -0.2773
  155SAPE   H6X17275   5.458   4.761   7.310  0.2590 -0.4062 -0.0529
  155SAPE   H6Y17276   5.450   4.929   7.290  0.2802  0.9616 -2.0263
  155SAPE   C3717277   5.648   4.867   7.370  0.4784 -0.7450 -0.0399
  155SAPE   H7X17278   5.681   4.971   7.348 -1.2208  0.0559  1.0527
  155SAPE   H7Y17279   5.720   4.785   7.348 -0.9261 -2.2770  0.9004
  155SAPE   C3817280   5.607   4.866   7.517 -0.2880 -0.0286 -0.2343
  155SAPE   H8X17281   5.577   4.769   7.563 -0.7990  0.6291  0.8617
  155SAPE   H8Y17282   5.523   4.937   7.530  1.0727  1.3393  1.8002
  155SAPE   C3917283   5.717   4.921   7.603 -0.4686  0.2776 -0.4927
  155SAPE   H9X17284   5.721   5.030   7.582 -3.0254  0.3699 -0.7601
  155SAPE   H9Y17285   5.815   4.880   7.570 -1.3856 -2.8367  0.3151
  155SAPE  C31017286   5.692   4.897   7.750  0.4441  0.0122  0.2108
  155SAPE  H10X17287   5.597   4.950   7.771  0.7642  0.9328 -0.6060
  155SAPE  H10Y17288   5.766   4.963   7.800  0.9309  0.5658 -1.1987
  155SAPE  C31117289   5.677   4.762   7.805  0.2282  0.8942 -1.0587
  155SAPE  H11X17290   5.767   4.704   7.778  0.7497  1.1774 -0.0032
  155SAPE  H11Y17291   5.588   4.708   7.766  1.3277 -1.2878 -0.6591
  155SAPE  C31217292   5.670   4.762   7.961  0.5927 -0.0978  0.7081
  155SAPE  H12X17293   5.593   4.691   7.999 -0.4667  0.1883 -0.8498
  155SAPE  H12Y17294   5.639   4.862   7.996 -0.3249  0.8665 -2.5733
  155SAPE  C31317295   5.799   4.721   8.032 -0.1475  0.0244 -0.7283
  155SAPE  H13X17296   5.884   4.786   8.004  0.4867 -1.5831 -2.7989
  155SAPE  H13Y17297   5.845   4.623   8.004  1.2883 -0.1159  1.7624
  155SAPE  C31417298   5.796   4.719   8.182  0.5827 -0.3755 -0.2579
  155SAPE  H14X17299   5.742   4.628   8.215 -1.1121  1.1688  1.5295
  155SAPE  H14Y17300   5.741   4.804   8.227 -0.0596 -0.9357  0.0272
  155SAPE  C31517301   5.940   4.715   8.241 -0.2812  0.0816  0.0180
  155SAPE  H15X17302   5.980   4.818   8.230  1.5091 -0.4493  1.0945
  155SAPE  H15Y17303   6.002   4.652   8.174  2.1639  1.3009  1.0198
  155SAPE  C31617304   5.945   4.659   8.380 -0.4419 -0.6988  0.1046
  155SAPE  H16X17305   5.893   4.561   8.391 -2.3415  0.3974  1.5437
  155SAPE  H16Y17306   5.898   4.725   8.456  0.2415  2.9345 -2.4158
  155SAPE  C31717307   6.096   4.648   8.417  0.6624 -0.6930  0.3334
  155SAPE  H17X17308   6.141   4.749   8.412 -2.3373  0.7604  0.5822
  155SAPE  H17Y17309   6.150   4.576   8.352 -2.5965 -1.3543 -1.8872
  155SAPE  C31817310   6.119   4.593   8.561 -1.3051  0.3044  0.5580
  155SAPE  H18X17311   6.078   4.492   8.580  2.8722 -1.2002  2.9768
  155SAPE  H18Y17312   6.090   4.666   8.640  0.0767 -0.7960  2.1463
  155SAPE  H18Z17313   6.227   4.580   8.582 -0.8122 -1.4984 -2.5014
  156SAPE     N17314   2.500   0.861   6.267  0.3921 -0.2298  0.1842
  156SAPE   HN117315   2.560   0.776   6.265 -0.3586 -0.7944 -1.7880
  156SAPE   HN217316   2.527   0.912   6.180  1.7440 -0.3862  0.4904
  156SAPE   HN317317   2.515   0.929   6.344 -3.2896 -1.0462  1.8672
  156SAPE   C1217318   2.354   0.811   6.267  0.3819  0.2479  0.7062
  156SAPE  H12A17319   2.333   0.760   6.170  0.6923  0.7461  0.3693
  156SAPE  H12B17320   2.293   0.904   6.269  0.9340  0.5982  1.4866
  156SAPE   C1117321   2.326   0.724   6.393 -0.3972 -0.1906  0.1890
  156SAPE  H11A17322   2.215   0.716   6.394 -0.3841 -0.9158 -1.3939
  156SAPE  H11B17323   2.343   0.783   6.486  0.3174 -2.7942  1.8017
  156SAPE     P17324   2.498   0.546   6.488 -0.0823  0.0391  0.4245
  156SAPE   O1317325   2.541   0.416   6.428  0.0361  0.2499 -0.2836
  156SAPE   O1417326   2.596   0.657   6.491 -0.2274  0.2324 -0.2703
  156SAPE   O1217327   2.383   0.593   6.397  0.5667 -0.3398  0.4000
  156SAPE   O1117328   2.443   0.516   6.630  0.0696  0.2547  0.1547
  156SAPE    C117329   2.330   0.430   6.641  0.1172 -0.2159 -0.5663
  156SAPE    HA17330   2.250   0.462   6.571 -1.6484 -0.0417  1.4288
  156SAPE    HB17331   2.357   0.323   6.623  1.5299  0.0479 -0.1570
  156SAPE    C217332   2.265   0.426   6.786  0.3182 -0.1000  0.3330
  156SAPE    HS17333   2.338   0.375   6.853 -0.3461 -2.6618 -0.7574
  156SAPE   O2117334   2.140   0.356   6.779  0.3468  0.0192 -0.2501
  156SAPE   C2117335   2.119   0.278   6.878  0.4329  0.9501  0.2277
  156SAPE   O2217336   2.190   0.254   6.980 -0.1908 -0.1527 -0.2973
  156SAPE   C2217337   1.986   0.198   6.863 -0.1329  0.5969 -0.2323
  156SAPE   H2R17338   1.930   0.230   6.773 -1.8547 -0.1154  0.5582
  156SAPE   H2S17339   2.005   0.091   6.841 -0.6696  0.3584  0.4460
  156SAPE    C317340   2.239   0.569   6.844 -0.4309 -0.3471  0.1185
  156SAPE    HX17341   2.144   0.603   6.799  0.0416  1.3833  0.3518
  156SAPE    HY17342   2.316   0.642   6.811 -1.5829  0.9249  0.1723
  156SAPE   O3117343   2.222   0.564   6.983  0.0545 -0.6239  0.3189
  156SAPE   C3117344   2.337   0.557   7.049  0.5924  0.0241 -0.5585
  156SAPE   O3217345   2.451   0.549   7.004 -0.1774 -0.2988  0.2889
  156SAPE   C3217346   2.306   0.565   7.207 -0.2937 -0.3494  0.2614
  156SAPE   H2X17347   2.198   0.571   7.231 -0.0904  0.6809  0.9626
  156SAPE   H2Y17348   2.357   0.661   7.227  3.4345 -1.9456 -0.6541
  156SAPE   C2317349   1.900   0.205   6.995  0.2908  0.2382 -0.5189
  156SAPE   H3R17350   1.956   0.205   7.091 -0.7087 -0.8889  0.0956
  156SAPE   H3S17351   1.830   0.119   7.006  1.9223 -0.8491  3.0374
  156SAPE   C2417352   1.819   0.341   6.987 -0.3824 -0.2565 -0.7684
  156SAPE   H4R17353   1.761   0.337   6.893 -0.1788  0.0188 -0.9054
  156SAPE   H4S17354   1.897   0.421   6.979  0.7867 -1.3688 -0.8459
  156SAPE   C2517355   1.726   0.367   7.098  0.6819 -0.2650 -0.7967
  156SAPE   H5R17356   1.619   0.364   7.071 -0.1494  0.8916  2.0321
  156SAPE   C2617357   1.755   0.411   7.222 -0.0830 -0.0954  0.1213
  156SAPE   H6R17358   1.683   0.431   7.302 -0.5033 -1.3060  0.0774
  156SAPE   C2717359   1.901   0.442   7.262 -0.1066 -0.2445  0.1250
  156SAPE   H7R17360   1.972   0.438   7.177  0.6791 -0.0364  0.7668
  156SAPE   H7S17361   1.929   0.368   7.340 -1.3962  0.6317  1.4530
  156SAPE   C2817362   1.908   0.578   7.323  0.0509  0.3072 -0.2500
  156SAPE   H8R17363   1.906   0.661   7.250  0.3430  0.1935 -0.3893
  156SAPE   C2917364   1.894   0.606   7.455 -0.4718  0.5865 -0.4783
  156SAPE   H9R17365   1.899   0.709   7.491  1.6921  0.8988 -1.4751
  156SAPE  C21017366   1.871   0.505   7.566  0.3603  0.6048  0.6892
  156SAPE  H10R17367   1.836   0.409   7.524 -2.5219  1.1576  1.6171
  156SAPE  H10S17368   1.794   0.547   7.634  1.7937  3.9839  0.4309
  156SAPE  C21117369   1.995   0.475   7.650  0.0612 -0.1429  0.1348
  156SAPE  H11R17370   2.040   0.377   7.627  0.2554  0.2980 -1.5589
  156SAPE  C21217371   2.050   0.556   7.743 -0.2820 -0.3696 -0.2779
  156SAPE  H12R17372   2.135   0.524   7.804 -1.8041 -0.3770  1.9783
  156SAPE  C21317373   1.996   0.695   7.784  0.2887  0.1557 -0.0382
  156SAPE  H13R17374   1.944   0.757   7.708 -2.3979 -0.6729  1.0151
  156SAPE  H13S17375   2.080   0.762   7.812  2.0787 -0.5951 -3.1262
  156SAPE  C21417376   1.882   0.680   7.885  0.0644  0.1363 -0.2858
  156SAPE  H14R17377   1.802   0.607   7.864  0.0618 -0.5075  1.7296
  156SAPE  C21517378   1.859   0.766   7.990 -0.1356  0.4480 -0.3248
  156SAPE  H15R17379   1.781   0.738   8.062  0.8611 -0.0309  0.5948
  156SAPE  C21617380   1.940   0.894   8.015  1.1140  0.6146  0.1027
  156SAPE  H16R17381   1.865   0.975   8.012 -0.2626 -0.5295  1.7290
  156SAPE  H16S17382   2.018   0.903   7.936  3.5159 -1.1022  2.0768
  156SAPE  C21717383   2.019   0.895   8.149  0.0476 -0.2357  0.4421
  156SAPE  H17R17384   2.064   0.995   8.162  1.0520 -0.2042 -2.6427
  156SAPE  H17S17385   2.106   0.827   8.150  1.7047  1.7586 -0.8743
  156SAPE  C21817386   1.919   0.866   8.266 -1.2991 -0.0735  0.1010
  156SAPE  H18R17387   1.872   0.767   8.251 -0.6259 -0.0964 -2.3889
  156SAPE  H18S17388   1.849   0.952   8.263  0.2351  1.5887  4.3961
  156SAPE  C21917389   1.983   0.868   8.406 -0.4814 -0.4374  0.4839
  156SAPE  H19R17390   2.033   0.964   8.433 -0.1902 -0.5485  0.3408
  156SAPE  H19S17391   2.052   0.781   8.409 -0.8111 -0.6870  2.4328
  156SAPE  C22017392   1.883   0.838   8.509 -0.3815 -0.5831 -0.3025
  156SAPE  H20R17393   1.814   0.924   8.524  2.0204  1.2784  0.9257
  156SAPE  H20S17394   1.932   0.815   8.606 -1.1264 -2.6456 -0.3833
  156SAPE  H20T17395   1.820   0.751   8.483  1.0659 -1.3665 -1.2994
  156SAPE   C3317396   2.384   0.461   7.286 -0.4851 -0.4563 -0.0821
  156SAPE   H3X17397   2.489   0.459   7.250 -0.3961  1.1398  0.0514
  156SAPE   H3Y17398   2.334   0.366   7.257 -0.5686 -0.0846 -1.1695
  156SAPE   C3417399   2.400   0.476   7.442 -0.4016  0.2638  0.9728
  156SAPE   H4X17400   2.450   0.383   7.478 -1.4653 -1.0049 -0.6582
  156SAPE   H4Y17401   2.298   0.482   7.487 -0.7629  5.2782  0.0310
  156SAPE   C3517402   2.482   0.596   7.496  0.2374 -0.3717 -0.0382
  156SAPE   H5X17403   2.431   0.688   7.460  3.9566  1.7383 -0.3750
  156SAPE   H5Y17404   2.583   0.610   7.452 -1.2043 -0.2023 -3.6415
  156SAPE   C3617405   2.486   0.614   7.651 -0.4539  0.0236  0.6214
  156SAPE   H6X17406   2.383   0.590   7.685 -0.4473 -0.4438  0.3126
  156SAPE   H6Y17407   2.516   0.720   7.671  0.2273 -0.2567  1.1236
  156SAPE   C3717408   2.587   0.520   7.719 -0.0823  0.5024  0.4614
  156SAPE   H7X17409   2.675   0.512   7.652  0.5322 -0.7954  1.3802
  156SAPE   H7Y17410   2.527   0.430   7.745  0.0529  1.4784  4.9430
  156SAPE   C3817411   2.645   0.577   7.854  0.3727 -0.0350 -0.2226
  156SAPE   H8X17412   2.687   0.673   7.818  1.2179  0.1055  1.0712
  156SAPE   H8Y17413   2.727   0.511   7.890 -0.0572  0.3542  1.5913
  156SAPE   C3917414   2.547   0.617   7.970 -0.3043 -0.2970 -0.0095
  156SAPE   H9X17415   2.510   0.519   8.005  0.6242 -0.3687  0.8192
  156SAPE   H9Y17416   2.462   0.676   7.929  0.1222 -1.1665 -2.3351
  156SAPE  C31017417   2.617   0.694   8.080  1.2147 -0.8403  0.1219
  156SAPE  H10X17418   2.533   0.736   8.141 -0.9767 -1.3550 -2.3681
  156SAPE  H10Y17419   2.674   0.783   8.047  0.2815  0.3127  1.4606
  156SAPE  C31117420   2.704   0.609   8.174  0.0767 -0.0047  0.3379
  156SAPE  H11X17421   2.793   0.576   8.116 -0.3312 -1.0099  0.2720
  156SAPE  H11Y17422   2.650   0.514   8.192 -0.7047  0.6194  1.3906
  156SAPE  C31217423   2.749   0.680   8.298  0.5479  0.1835  0.2697
  156SAPE  H12X17424   2.661   0.737   8.336  1.5751  0.6034  2.1374
  156SAPE  H12Y17425   2.827   0.755   8.276  1.1100 -0.2834  0.6526
  156SAPE  C31317426   2.789   0.576   8.411 -1.0902 -1.1890  0.0856
  156SAPE  H13X17427   2.886   0.537   8.373  0.1140  0.8050  0.9369
  156SAPE  H13Y17428   2.713   0.499   8.435 -0.6446 -1.6140  0.1273
  156SAPE  C31417429   2.815   0.657   8.540  0.4007 -0.5543 -0.3065
  156SAPE  H14X17430   2.723   0.697   8.588  0.7480  0.7871 -0.7031
  156SAPE  H14Y17431   2.885   0.741   8.520  0.6863 -0.4899  0.9005
  156SAPE  C31517432   2.884   0.572   8.647  0.5007  0.2463 -0.0447
  156SAPE  H15X17433   2.985   0.530   8.623  0.7288 -0.5331  2.0538
  156SAPE  H15Y17434   2.814   0.490   8.674 -0.9657  1.0251 -1.2998
  156SAPE  C31617435   2.920   0.646   8.772  0.3531 -0.2033  0.7505
  156SAPE  H16X17436   2.823   0.690   8.805  1.1075 -0.0564  2.9269
  156SAPE  H16Y17437   2.978   0.736   8.743 -0.9592  0.2012 -0.8344
  156SAPE  C31717438   3.005   0.568   8.881 -0.1084  0.0351  0.7339
  156SAPE  H17X17439   3.032   0.632   8.967  0.7363  3.0471 -1.6202
  156SAPE  H17Y17440   3.097   0.550   8.821 -1.3740 -1.2887 -0.8975
  156SAPE  C31817441   2.938   0.434   8.924 -0.2457 -0.0687 -0.2369
  156SAPE  H18X17442   2.915   0.373   8.834 -1.9033  1.7780 -1.1576
  156SAPE  H18Y17443   2.845   0.464   8.976 -0.2089  0.4849 -0.4752
  156SAPE  H18Z17444   2.996   0.381   9.002 -0.7403  0.1225  0.2721
  157SAPE     N17445   5.466   0.294   6.095 -0.5388  0.6146  0.5807
  157SAPE   HN117446   5.540   0.252   6.035 -0.5190 -0.5372  1.3935
  157SAPE   HN217447   5.387   0.307   6.028  0.4166 -0.0464 -0.7120
  157SAPE   HN317448   5.497   0.387   6.127  1.2331 -0.4612  2.1682
  157SAPE   C1217449   5.438   0.212   6.219  0.5525  0.1803 -0.1072
  157SAPE  H12A17450   5.413   0.109   6.185 -2.8091  1.0159 -0.5230
  157SAPE  H12B17451   5.343   0.257   6.255  0.1138  1.9338 -3.1365
  157SAPE   C1117452   5.548   0.203   6.318  0.2990  0.6125 -0.6527
  157SAPE  H11A17453   5.522   0.145   6.409 -1.4311  2.2332 -0.0395
  157SAPE  H11B17454   5.558   0.309   6.351 -1.8719  1.3766 -2.1841
  157SAPE     P17455   5.737   0.032   6.260  0.2161  0.0670  0.1610
  157SAPE   O1317456   5.635  -0.066   6.307 -0.0342 -0.3326  0.0320
  157SAPE   O1417457   5.795   0.012   6.126  0.4063 -0.4433  0.3652
  157SAPE   O1217458   5.664   0.174   6.247  0.5843  0.1194 -0.1105
  157SAPE   O1117459   5.844   0.057   6.372  0.1772 -0.2018 -0.2385
  157SAPE    C117460   5.917   0.186   6.367  0.8442 -0.0053  0.0760
  157SAPE    HA17461   5.866   0.255   6.296 -1.5687  1.1143  2.6912
  157SAPE    HB17462   5.918   0.236   6.467  1.1640  1.3167 -0.5623
  157SAPE    C217463   6.061   0.175   6.303  0.1178 -0.1739  0.2982
  157SAPE    HS17464   6.065   0.123   6.205  0.6268  1.2503 -0.4497
  157SAPE   O2117465   6.153   0.111   6.387  0.4163  0.1283 -0.4110
  157SAPE   C2117466   6.129  -0.015   6.423  0.2145 -0.6868 -0.1701
  157SAPE   O2217467   6.058  -0.095   6.367  0.1396 -0.1559  0.0114
  157SAPE   C2217468   6.236  -0.061   6.525 -0.4045 -0.2894  1.0215
  157SAPE   H2R17469   6.329  -0.089   6.472 -0.8687  0.6997 -0.3693
  157SAPE   H2S17470   6.254   0.024   6.595 -0.9241  0.4698  0.2512
  157SAPE    C317471   6.110   0.320   6.268 -0.3886  0.5397 -0.0210
  157SAPE    HX17472   6.053   0.358   6.180 -0.8752 -0.4933 -0.1674
  157SAPE    HY17473   6.217   0.323   6.241 -0.2813  0.5411  0.3948
  157SAPE   O3117474   6.077   0.409   6.371  0.9672  0.3383 -0.7641
  157SAPE   C3117475   6.171   0.435   6.466 -0.1384  0.1873 -0.4755
  157SAPE   O3217476   6.283   0.389   6.473  0.3443  0.0260  0.1119
  157SAPE   C3217477   6.115   0.528   6.574  0.5704  0.5611 -0.0336
  157SAPE   H2X17478   6.004   0.525   6.567  0.5149  0.1307  0.8792
  157SAPE   H2Y17479   6.148   0.629   6.542  0.2965  0.3482 -1.0333
  157SAPE   C2317480   6.196  -0.193   6.597  0.6430 -0.2710 -0.0274
  157SAPE   H3R17481   6.284  -0.223   6.658 -0.7602 -2.0750  1.1934
  157SAPE   H3S17482   6.165  -0.280   6.534  0.0621  0.6537 -1.0640
  157SAPE   C2417483   6.079  -0.172   6.699  0.2309  0.1510 -0.4132
  157SAPE   H4R17484   6.116  -0.101   6.776 -0.6744 -0.7034  0.8586
  157SAPE   H4S17485   6.071  -0.266   6.759  0.5849  0.1185 -0.4191
  157SAPE   C2517486   5.944  -0.136   6.654  0.0455  0.4583 -0.0951
  157SAPE   H5R17487   5.912  -0.175   6.556  1.5966  0.6038 -0.6866
  157SAPE   C2617488   5.868  -0.043   6.713 -0.2295 -0.1098 -0.0931
  157SAPE   H6R17489   5.766  -0.028   6.675  0.2539  1.3150 -0.9128
  157SAPE   C2717490   5.894   0.038   6.835  0.6332  0.4612 -0.5979
  157SAPE   H7R17491   5.994   0.081   6.816  0.8668 -0.4302 -1.4424
  157SAPE   H7S17492   5.903  -0.030   6.922 -1.9951  2.8837  1.7851
  157SAPE   C2817493   5.788   0.153   6.864  0.0705  0.3100 -0.2238
  157SAPE   H8R17494   5.731   0.194   6.779 -0.3589  2.2047  0.9389
  157SAPE   C2917495   5.759   0.208   6.986  1.0439 -0.3478  0.7558
  157SAPE   H9R17496   5.670   0.268   7.010  0.3756 -1.0852  0.1721
  157SAPE  C21017497   5.832   0.163   7.106 -0.2964 -0.6546  0.5476
  157SAPE  H10R17498   5.905   0.081   7.086  1.9844  1.3473  0.1600
  157SAPE  H10S17499   5.759   0.115   7.175 -0.6941 -3.5183 -1.6722
  157SAPE  C21117500   5.906   0.286   7.157 -0.0392  0.2119 -0.1893
  157SAPE  H11R17501   5.981   0.338   7.095  1.1937 -2.0929 -0.7351
  157SAPE  C21217502   5.900   0.321   7.285 -0.4164  0.3251 -0.3056
  157SAPE  H12R17503   5.940   0.418   7.319 -0.3945  0.2563 -0.1334
  157SAPE  C21317504   5.830   0.258   7.407  1.1214 -0.1801  0.2115
  157SAPE  H13R17505   5.921   0.221   7.459  0.1267 -2.0550  0.6905
  157SAPE  H13S17506   5.771   0.167   7.383 -0.0374  0.1719  1.6006
  157SAPE  C21417507   5.752   0.350   7.501 -0.1039 -0.3573  0.7788
  157SAPE  H14R17508   5.648   0.368   7.472 -0.1397 -1.7656 -0.0572
  157SAPE  C21517509   5.794   0.408   7.619 -0.5403  0.7370  0.2669
  157SAPE  H15R17510   5.725   0.475   7.672  0.1533  0.4230  1.5932
  157SAPE  C21617511   5.923   0.379   7.687  0.6472  0.5315 -0.3999
  157SAPE  H16R17512   5.944   0.460   7.760 -2.4583  3.1905 -2.1805
  157SAPE  H16S17513   6.018   0.390   7.630  1.4469  0.4749  0.8896
  157SAPE  C21717514   5.910   0.238   7.761  0.2666 -0.3500  0.2825
  157SAPE  H17R17515   6.007   0.210   7.807  0.3603  0.1259  0.3829
  157SAPE  H17S17516   5.900   0.165   7.678 -0.5100  2.4335 -2.2659
  157SAPE  C21817517   5.792   0.234   7.860 -0.1828 -0.0280 -0.3506
  157SAPE  H18R17518   5.703   0.257   7.797 -1.0513 -0.3913  0.7192
  157SAPE  H18S17519   5.800   0.328   7.919  0.1298 -0.3346  0.0928
  157SAPE  C21917520   5.791   0.108   7.949 -0.0125  0.2503 -0.0681
  157SAPE  H19R17521   5.715   0.128   8.028 -1.1372  0.9165 -1.2762
  157SAPE  H19S17522   5.892   0.110   7.994 -1.2471 -0.5617  2.9967
  157SAPE  C22017523   5.765  -0.029   7.881  0.3581  0.2797  0.7935
  157SAPE  H20R17524   5.804  -0.114   7.942  2.3779  0.1449 -0.5689
  157SAPE  H20S17525   5.820  -0.046   7.786  0.7042 -0.6853  1.1512
  157SAPE  H20T17526   5.657  -0.038   7.859  0.4286  0.9657  0.1403
  157SAPE   C3317527   6.158   0.484   6.720  0.2546 -0.2505  1.4608
  157SAPE   H3X17528   6.123   0.560   6.793  1.6651  0.0712  1.8164
  157SAPE   H3Y17529   6.269   0.487   6.724  0.4984 -0.1361 -2.2080
  157SAPE   C3417530   6.110   0.343   6.760  0.7776 -0.8257 -0.2391
  157SAPE   H4X17531   6.105   0.272   6.675 -1.9969 -0.0831 -0.7982
  157SAPE   H4Y17532   6.019   0.363   6.821  1.1352  1.5991 -0.4163
  157SAPE   C3517533   6.213   0.296   6.867 -0.4540  0.3219  0.6361
  157SAPE   H5X17534   6.301   0.264   6.807  0.3716  0.3584  1.7718
  157SAPE   H5Y17535   6.172   0.202   6.910 -0.8528 -0.1188 -0.6624
  157SAPE   C3617536   6.262   0.395   6.980  0.2923  0.8408 -0.5182
  157SAPE   H6X17537   6.173   0.458   7.000 -0.4864 -0.6992  1.1785
  157SAPE   H6Y17538   6.351   0.451   6.945 -0.7776  1.9124 -1.6069
  157SAPE   C3717539   6.299   0.324   7.111  0.7214  1.0472  0.0754
  157SAPE   H7X17540   6.408   0.300   7.113  0.7307  1.1096  2.1760
  157SAPE   H7Y17541   6.229   0.239   7.129 -0.5215  1.9675 -0.2817
  157SAPE   C3817542   6.273   0.414   7.227 -0.3072 -0.1653  0.5617
  157SAPE   H8X17543   6.162   0.423   7.224 -0.4767 -2.1239 -0.8275
  157SAPE   H8Y17544   6.315   0.515   7.206 -1.3766  0.3281  0.6997
  157SAPE   C3917545   6.311   0.350   7.359 -0.2527 -0.6815 -0.6939
  157SAPE   H9X17546   6.419   0.324   7.368 -1.4315 -5.9051  2.6710
  157SAPE   H9Y17547   6.251   0.260   7.382 -0.7581 -0.5590 -1.4868
  157SAPE  C31017548   6.276   0.456   7.462 -0.0141  0.1972 -0.8745
  157SAPE  H10X17549   6.165   0.452   7.475  0.1211 -1.9539  0.0396
  157SAPE  H10Y17550   6.294   0.557   7.420 -2.3531  1.1669  0.2699
  157SAPE  C31117551   6.356   0.443   7.590 -0.2648  0.1801  0.4080
  157SAPE  H11X17552   6.461   0.480   7.579  0.0849 -1.1937 -1.3657
  157SAPE  H11Y17553   6.369   0.339   7.627  2.3516  0.3297  0.1372
  157SAPE  C31217554   6.294   0.527   7.698 -0.6429  0.4019 -0.0217
  157SAPE  H12X17555   6.189   0.495   7.716 -0.2366 -0.0681  1.7574
  157SAPE  H12Y17556   6.281   0.632   7.665  4.6943  0.4033 -3.2214
  157SAPE  C31317557   6.368   0.522   7.836 -0.2682  0.0364 -0.0510
  157SAPE  H13X17558   6.475   0.548   7.815 -0.2142 -1.3336 -1.7056
  157SAPE  H13Y17559   6.387   0.415   7.858 -1.1838 -0.6679 -2.3759
  157SAPE  C31417560   6.297   0.611   7.939  0.2773  0.7486 -0.5759
  157SAPE  H14X17561   6.278   0.717   7.910  1.1266  1.4965  1.3838
  157SAPE  H14Y17562   6.372   0.614   8.020 -1.3189 -0.4187  1.0201
  157SAPE  C31517563   6.174   0.552   8.000 -0.6953 -0.2349 -0.0771
  157SAPE  H15X17564   6.097   0.508   7.933 -1.1723 -1.1511  1.0583
  157SAPE  H15Y17565   6.118   0.631   8.054  0.7600  0.3773  0.6071
  157SAPE  C31617566   6.204   0.437   8.100 -0.7446 -0.4374 -0.5772
  157SAPE  H16X17567   6.269   0.473   8.183 -2.4431  0.3976  0.4278
  157SAPE  H16Y17568   6.251   0.352   8.045 -0.6289  0.8041 -2.5079
  157SAPE  C31717569   6.078   0.377   8.160  0.0481  0.1410 -0.2660
  157SAPE  H17X17570   6.013   0.332   8.082 -1.2255 -2.1084  1.9490
  157SAPE  H17Y17571   6.018   0.461   8.203 -1.4344 -0.4619 -1.0598
  157SAPE  C31817572   6.098   0.261   8.256  0.3584 -0.0970  0.1461
  157SAPE  H18X17573   6.195   0.212   8.235  0.5872 -0.3299  1.6611
  157SAPE  H18Y17574   6.016   0.189   8.237 -1.4963  2.3055 -1.7865
  157SAPE  H18Z17575   6.092   0.289   8.363  0.6651 -0.8997  0.3795
  158SAPE     N17576   0.275   5.577   5.776  0.2463 -0.4321  0.6134
  158SAPE   HN117577   0.379   5.578   5.788  0.2898 -0.7783  0.3208
  158SAPE   HN217578   0.235   5.484   5.751 -0.2523 -0.6313  2.0498
  158SAPE   HN317579   0.238   5.634   5.697 -1.7116 -0.2259  1.6187
  158SAPE   C1217580   0.203   5.623   5.897  0.7205  0.3365 -0.0806
  158SAPE  H12A17581   0.103   5.652   5.858  0.3107  0.1959  0.8225
  158SAPE  H12B17582   0.244   5.720   5.932 -2.3389  1.8172 -0.2564
  158SAPE   C1117583   0.193   5.522   6.006  0.1974  0.1528 -0.7859
  158SAPE  H11A17584   0.167   5.578   6.099  2.4356 -0.6742  0.4294
  158SAPE  H11B17585   0.293   5.478   6.027  0.3476  0.2466 -1.2937
  158SAPE     P17586   0.024   5.358   6.089  0.1072  0.3953  0.1069
  158SAPE   O1317587  -0.054   5.447   6.175  0.3567  0.0722  0.1286
  158SAPE   O1417588  -0.044   5.239   6.033 -0.3892  0.2090  0.2371
  158SAPE   O1217589   0.091   5.429   5.963  0.0293  0.7563 -0.3113
  158SAPE   O1117590   0.158   5.321   6.158 -0.1150 -0.2394 -0.0577
  158SAPE    C117591   0.203   5.185   6.186  1.1809 -0.3102 -0.4361
  158SAPE    HA17592   0.187   5.109   6.107  0.6379 -0.1024 -0.5325
  158SAPE    HB17593   0.311   5.178   6.211  0.9329  1.4612  1.4471
  158SAPE    C217594   0.131   5.122   6.309 -0.0842  0.0121  0.1573
  158SAPE    HS17595   0.022   5.136   6.291  0.0462  1.6168  0.4959
  158SAPE   O2117596   0.178   5.184   6.433 -0.2211  0.2436 -0.3759
  158SAPE   C2117597   0.081   5.221   6.511  0.3424  0.2055 -0.1692
  158SAPE   O2217598  -0.038   5.207   6.495  0.7475 -0.4934  0.1985
  158SAPE   C2217599   0.145   5.294   6.635  0.0478 -1.3726  0.1528
  158SAPE   H2R17600   0.193   5.220   6.703  0.3110 -0.2799  1.1761
  158SAPE   H2S17601   0.224   5.353   6.585 -0.8362 -1.3739 -1.3198
  158SAPE    C317602   0.168   4.972   6.327 -0.0594 -0.3021  0.3602
  158SAPE    HX17603   0.274   4.965   6.361  0.1465 -1.1315 -0.4173
  158SAPE    HY17604   0.155   4.917   6.232  0.7384 -1.6391  0.9888
  158SAPE   O3117605   0.085   4.914   6.428  0.3676  0.3845 -0.4120
  158SAPE   C3117606   0.140   4.829   6.513  0.1365 -0.5851 -0.6152
  158SAPE   O3217607   0.257   4.817   6.527 -0.1013 -0.2039  0.4426
  158SAPE   C3217608   0.036   4.757   6.600 -0.1685 -0.3421 -0.3638
  158SAPE   H2X17609   0.084   4.667   6.643 -1.1567 -0.2354  1.0350
  158SAPE   H2Y17610  -0.036   4.704   6.533 -0.0414 -0.4801 -0.3913
  158SAPE   C2317611   0.045   5.386   6.707  0.6926  0.0588 -0.1109
  158SAPE   H3R17612  -0.032   5.316   6.746  2.1875 -1.2506  0.5591
  158SAPE   H3S17613  -0.003   5.453   6.632  0.6324  0.4841  0.2985
  158SAPE   C2417614   0.092   5.470   6.827 -0.4158 -0.5231  0.1423
  158SAPE   H4R17615   0.094   5.411   6.921 -2.5466 -1.0298 -0.0886
  158SAPE   H4S17616   0.020   5.555   6.836 -0.5526 -0.7154  0.9914
  158SAPE   C2517617   0.230   5.527   6.794 -0.5591  0.3337  0.9325
  158SAPE   H5R17618   0.249   5.598   6.712  1.9108 -1.4947 -0.2275
  158SAPE   C2617619   0.345   5.484   6.856 -0.0190 -0.2841 -0.4028
  158SAPE   H6R17620   0.441   5.518   6.814 -0.1196  0.7578  0.1565
  158SAPE   C2717621   0.343   5.382   6.964  0.2467  0.2528  0.1080
  158SAPE   H7R17622   0.259   5.311   6.977  3.0073 -2.9064  2.1156
  158SAPE   H7S17623   0.358   5.433   7.062 -2.8444  1.2859  0.1414
  158SAPE   C2817624   0.459   5.293   6.941 -0.5468 -0.7619  0.3690
  158SAPE   H8R17625   0.458   5.260   6.837  1.1035  1.2199 -0.3537
  158SAPE   C2917626   0.546   5.238   7.029 -0.3677 -0.1557 -0.8966
  158SAPE   H9R17627   0.622   5.167   6.992 -0.7531 -1.1406  0.1810
  158SAPE  C21017628   0.547   5.260   7.180  0.1995  0.1164  0.6625
  158SAPE  H10R17629   0.612   5.177   7.216  2.2984  1.3721 -0.1036
  158SAPE  H10S17630   0.442   5.230   7.204  0.9987 -1.0564  2.9366
  158SAPE  C21117631   0.583   5.397   7.229  0.0126 -0.0049  0.7750
  158SAPE  H11R17632   0.631   5.459   7.151  1.8263 -0.9704  1.0563
  158SAPE  C21217633   0.573   5.439   7.355  0.6318 -0.2730 -0.3318
  158SAPE  H12R17634   0.622   5.534   7.383 -1.1331 -0.4705  4.1875
  158SAPE  C21317635   0.518   5.351   7.464  0.2599 -0.6333  0.0492
  158SAPE  H13R17636   0.437   5.293   7.416 -1.5934  2.8747 -1.4302
  158SAPE  H13S17637   0.470   5.421   7.536  1.3030  1.0199 -0.8165
  158SAPE  C21417638   0.616   5.262   7.533 -0.1902 -0.5003  0.0228
  158SAPE  H14R17639   0.695   5.209   7.478 -1.2049 -3.5038  1.2764
  158SAPE  C21517640   0.619   5.223   7.660  0.0140 -0.3542  0.0341
  158SAPE  H15R17641   0.704   5.158   7.688  0.3073  0.9029  2.3205
  158SAPE  C21617642   0.535   5.274   7.770 -0.1892 -0.3679 -0.6744
  158SAPE  H16R17643   0.513   5.192   7.841  2.7735  0.7284  1.7307
  158SAPE  H16S17644   0.442   5.314   7.724  0.9179  0.5293 -2.2428
  158SAPE  C21717645   0.606   5.382   7.863  0.1161  0.1265  0.5486
  158SAPE  H17R17646   0.640   5.468   7.801  1.3164 -0.5024  0.3020
  158SAPE  H17S17647   0.700   5.339   7.904  0.9245 -0.1728 -1.4898
  158SAPE  C21817648   0.509   5.435   7.976 -0.9155 -0.3367  0.1429
  158SAPE  H18R17649   0.472   5.344   8.029  2.4605 -1.2245  1.2575
  158SAPE  H18S17650   0.421   5.496   7.946 -0.3410  0.3830 -0.0906
  158SAPE  C21917651   0.589   5.511   8.086 -0.3720  0.5359  0.1979
  158SAPE  H19R17652   0.638   5.599   8.039 -0.4661  0.3385 -0.2860
  158SAPE  H19S17653   0.657   5.429   8.116  0.5987  1.5207  0.7522
  158SAPE  C22017654   0.499   5.550   8.203  0.4305 -0.0973 -0.9927
  158SAPE  H20R17655   0.552   5.601   8.285 -1.1415  0.5212 -0.3141
  158SAPE  H20S17656   0.466   5.456   8.251  2.0215 -0.7066 -1.0459
  158SAPE  H20T17657   0.414   5.616   8.174  0.1080  0.8387  1.7846
  158SAPE   C3317658  -0.029   4.846   6.703  0.3148 -0.1403  0.3373
  158SAPE   H3X17659  -0.096   4.786   6.768 -0.5530 -0.2680 -0.6378
  158SAPE   H3Y17660  -0.097   4.917   6.650  0.0041 -1.5928 -1.3158
  158SAPE   C3417661   0.069   4.920   6.798  1.0745 -0.5260 -0.5054
  158SAPE   H4X17662   0.129   5.001   6.752  2.0082 -0.5105  0.6809
  158SAPE   H4Y17663   0.148   4.852   6.838 -0.6843 -1.9319  0.7420
  158SAPE   C3517664   0.002   4.978   6.927  1.1725  0.0007 -0.0684
  158SAPE   H5X17665  -0.049   4.898   6.985  2.0758  0.3983  1.3196
  158SAPE   H5Y17666  -0.068   5.053   6.883  1.5079  0.7196  0.6147
  158SAPE   C3617667   0.105   5.044   7.026  0.1444 -0.8365  0.7790
  158SAPE   H6X17668   0.151   5.125   6.965 -0.4002 -1.5462 -0.6230
  158SAPE   H6Y17669   0.195   4.980   7.041  0.2365 -0.5850  1.3246
  158SAPE   C3717670   0.042   5.099   7.150  0.7569 -0.7499 -0.1187
  158SAPE   H7X17671  -0.006   5.193   7.117 -0.7408 -1.0319  1.1285
  158SAPE   H7Y17672  -0.041   5.030   7.177 -0.0068  0.5858  1.0623
  158SAPE   C3817673   0.136   5.125   7.262 -0.4081 -0.8605  0.0711
  158SAPE   H8X17674   0.196   5.214   7.234 -0.7641 -1.0077 -1.1961
  158SAPE   H8Y17675   0.210   5.044   7.282  0.5634  0.2181  0.9375
  158SAPE   C3917676   0.067   5.153   7.400 -0.2070  0.7159  0.9698
  158SAPE   H9X17677   0.008   5.061   7.419  0.0613  0.7441  2.0506
  158SAPE   H9Y17678   0.002   5.242   7.385 -0.2440  0.2097 -2.5108
  158SAPE  C31017679   0.154   5.169   7.521  0.3403 -0.0981 -0.0155
  158SAPE  H10X17680   0.215   5.262   7.513 -0.6715  0.4415 -2.0619
  158SAPE  H10Y17681   0.233   5.091   7.527  0.3922 -0.0766 -0.3924
  158SAPE  C31117682   0.066   5.177   7.646  0.0241  0.0606 -0.5956
  158SAPE  H11X17683   0.010   5.082   7.661  1.4741 -0.6679  0.3531
  158SAPE  H11Y17684  -0.007   5.259   7.626  0.3378  0.6509  0.5690
  158SAPE  C31217685   0.143   5.190   7.774 -0.1733 -0.3863 -0.1666
  158SAPE  H12X17686   0.216   5.273   7.760 -1.6402  1.1141  0.7231
  158SAPE  H12Y17687   0.208   5.103   7.798  0.2524 -1.2299 -3.7461
  158SAPE  C31317688   0.061   5.233   7.892  0.0581 -0.4149 -0.2778
  158SAPE  H13X17689  -0.019   5.158   7.913  1.1142 -1.0547  1.7149
  158SAPE  H13Y17690   0.006   5.327   7.870  0.4864 -0.0591  0.1563
  158SAPE  C31417691   0.147   5.255   8.017  0.2543 -0.0812  0.2453
  158SAPE  H14X17692   0.232   5.326   8.007 -0.7030  1.3667  1.7974
  158SAPE  H14Y17693   0.197   5.163   8.055 -0.7679  0.9494  4.7115
  158SAPE  C31517694   0.067   5.301   8.130  0.9826 -0.3822  0.2591
  158SAPE  H15X17695  -0.025   5.239   8.136 -0.5731  1.6327 -1.2520
  158SAPE  H15Y17696   0.015   5.398   8.113  0.3749 -0.4875  1.3937
  158SAPE  C31617697   0.129   5.299   8.268 -0.4259 -0.5286 -1.5463
  158SAPE  H16X17698   0.229   5.347   8.271 -0.9080  0.5309 -1.8107
  158SAPE  H16Y17699   0.148   5.193   8.297 -2.3504 -0.0859  1.8644
  158SAPE  C31717700   0.023   5.349   8.370  0.2269  0.6967 -0.7646
  158SAPE  H17X17701   0.056   5.319   8.472  2.4698  0.6804 -1.4392
  158SAPE  H17Y17702  -0.070   5.290   8.357 -0.0528 -0.3958  4.0423
  158SAPE  C31817703  -0.002   5.496   8.368 -0.1378  0.1410 -0.3944
  158SAPE  H18X17704   0.089   5.545   8.408  1.0161 -1.6027 -0.7332
  158SAPE  H18Y17705  -0.085   5.533   8.432  1.1507  1.5399  0.5301
  158SAPE  H18Z17706  -0.015   5.533   8.264 -0.0700 -0.3296 -0.5757
  159SAPE     N17707   0.391   0.555   6.233  0.2385  0.0797  0.0815
  159SAPE   HN117708   0.331   0.489   6.286 -0.4435  1.6084  1.3021
  159SAPE   HN217709   0.489   0.530   6.257 -0.3813 -0.8891  1.7535
  159SAPE   HN317710   0.375   0.650   6.272  1.2852 -0.3525  1.6825
  159SAPE   C1217711   0.358   0.547   6.086  0.2201 -0.5789  0.0113
  159SAPE  H12A17712   0.372   0.445   6.043 -0.3926 -0.2767 -0.9398
  159SAPE  H12B17713   0.419   0.627   6.039 -1.1046  1.4217  1.5124
  159SAPE   C1117714   0.205   0.582   6.074  0.1521 -0.5429  0.1789
  159SAPE  H11A17715   0.154   0.503   6.134 -0.7010 -0.2459 -0.1512
  159SAPE  H11B17716   0.153   0.562   5.978  1.2286 -1.4005 -0.2449
  159SAPE     P17717   0.038   0.785   6.093  0.4396  0.5356 -0.2883
  159SAPE   O1317718   0.038   0.852   5.964 -0.4012  0.3127  0.0851
  159SAPE   O1417719  -0.079   0.695   6.124  0.0072 -0.0716 -0.3093
  159SAPE   O1217720   0.175   0.719   6.111 -0.2946 -0.0236 -0.2089
  159SAPE   O1117721   0.031   0.904   6.194 -0.1891 -0.5345 -0.1627
  159SAPE    C117722   0.117   1.013   6.194  0.2022  0.3874 -0.3763
  159SAPE    HA17723   0.214   0.965   6.217  0.5371  0.5988 -1.2970
  159SAPE    HB17724   0.117   1.051   6.089 -4.0319  0.2244 -0.6034
  159SAPE    C217725   0.086   1.122   6.294  0.0477  0.1705  0.3710
  159SAPE    HS17726   0.178   1.165   6.339 -1.5594  1.5955  2.4811
  159SAPE   O2117727   0.008   1.065   6.399  0.0367  0.6013 -0.5587
  159SAPE   C2117728   0.077   0.983   6.480  0.5601  0.2002  0.1797
  159SAPE   O2217729   0.196   0.970   6.492 -1.2090  0.3398 -0.4694
  159SAPE   C2217730  -0.027   0.899   6.554  0.7236 -0.2912 -0.0136
  159SAPE   H2R17731  -0.092   0.845   6.482 -0.9922 -0.6863  1.7625
  159SAPE   H2S17732   0.030   0.823   6.611  0.4345 -1.6326 -1.4461
  159SAPE    C317733   0.001   1.228   6.226 -0.5644  1.1269  0.2079
  159SAPE    HX17734  -0.095   1.175   6.210 -0.0206  0.1942 -0.0762
  159SAPE    HY17735   0.026   1.264   6.124  0.6937 -0.4679 -0.0829
  159SAPE   O3117736  -0.014   1.341   6.318  0.4490  0.4190  0.0158
  159SAPE   C3117737  -0.130   1.343   6.392 -0.6220 -0.2785 -0.4706
  159SAPE   O3217738  -0.221   1.259   6.378 -0.9040 -0.3167 -0.1091
  159SAPE   C3217739  -0.144   1.472   6.481 -0.3016 -0.9300 -0.2905
  159SAPE   H2X17740  -0.220   1.543   6.441  1.3281  1.3698  0.4499
  159SAPE   H2Y17741  -0.045   1.520   6.496 -2.0657  2.6716  1.0637
  159SAPE   C2317742  -0.114   0.987   6.651  0.9370 -0.2441  0.0829
  159SAPE   H3R17743  -0.184   0.916   6.699 -1.8815  1.6450 -0.9556
  159SAPE   H3S17744  -0.176   1.050   6.583 -0.2726 -1.2655  0.2019
  159SAPE   C2417745  -0.052   1.077   6.757  0.0110  0.3581  0.1748
  159SAPE   H4R17746   0.009   1.157   6.710 -1.6022  1.6725  0.2510
  159SAPE   H4S17747   0.012   1.003   6.811  2.0929  1.5400 -0.5426
  159SAPE   C2517748  -0.157   1.133   6.838  0.5828 -0.3298 -0.3464
  159SAPE   H5R17749  -0.254   1.151   6.788  0.4930 -1.1588 -0.4917
  159SAPE   C2617750  -0.141   1.166   6.965  0.0316 -0.6796  0.1728
  159SAPE   H6R17751  -0.228   1.193   7.028 -0.3136 -0.4466 -0.3971
  159SAPE   C2717752  -0.019   1.145   7.046  0.0942  0.2131 -0.1481
  159SAPE   H7R17753   0.046   1.065   7.007  1.7414  0.1272  2.4909
  159SAPE   H7S17754  -0.040   1.103   7.147  5.6069 -1.4829  0.6172
  159SAPE   C2817755   0.074   1.265   7.062  0.5181  0.1933 -0.6140
  159SAPE   H8R17756   0.073   1.338   6.980  0.9615  1.0953  0.1569
  159SAPE   C2917757   0.131   1.294   7.181 -0.6542 -0.0587  0.8718
  159SAPE   H9R17758   0.183   1.389   7.163 -1.3213  0.8237  3.2911
  159SAPE  C21017759   0.142   1.225   7.314  0.1248 -0.0779  0.8128
  159SAPE  H10R17760   0.074   1.137   7.305 -0.5309  0.5766 -1.1545
  159SAPE  H10S17761   0.105   1.284   7.401  2.0715  0.9446  1.0045
  159SAPE  C21117762   0.283   1.179   7.354 -0.8234 -0.4715  0.1213
  159SAPE  H11R17763   0.345   1.161   7.265 -0.8169  0.0642  0.0099
  159SAPE  C21217764   0.329   1.167   7.484 -0.1738  0.8402  0.2893
  159SAPE  H12R17765   0.431   1.128   7.494 -0.5657 -0.6499 -1.1825
  159SAPE  C21317766   0.255   1.198   7.613  0.4628  0.7049  0.1501
  159SAPE  H13R17767   0.241   1.104   7.671 -1.4305  0.2250 -1.0125
  159SAPE  H13S17768   0.148   1.226   7.604 -0.1699 -2.1641 -2.7110
  159SAPE  C21417769   0.333   1.300   7.687 -0.4528  0.1720  0.4127
  159SAPE  H14R17770   0.309   1.403   7.659  2.0650  1.0662  1.3380
  159SAPE  C21517771   0.430   1.271   7.780  0.3540 -0.2998 -0.1985
  159SAPE  H15R17772   0.497   1.353   7.809 -1.8039  1.0294  1.2680
  159SAPE  C21617773   0.469   1.130   7.825 -0.5448  0.0012 -0.3189
  159SAPE  H16R17774   0.552   1.092   7.762 -1.5488 -2.6667 -0.1653
  159SAPE  H16S17775   0.391   1.053   7.809 -0.4039  0.0299 -1.1562
  159SAPE  C21717776   0.491   1.141   7.976  0.6589  0.5580  0.5221
  159SAPE  H17R17777   0.398   1.182   8.022  0.2145  0.5712 -0.3656
  159SAPE  H17S17778   0.577   1.204   8.008  1.4100 -0.6775  1.0195
  159SAPE  C21817779   0.524   1.009   8.047  0.6904  0.0374  0.2799
  159SAPE  H18R17780   0.607   0.971   7.984  0.6783  0.8193 -0.2162
  159SAPE  H18S17781   0.439   0.947   8.009 -0.3226  0.5119  1.6632
  159SAPE  C21917782   0.540   1.021   8.201 -0.0961  0.4693  0.3066
  159SAPE  H19R17783   0.442   1.064   8.230 -1.3145 -2.2883  0.6765
  159SAPE  H19S17784   0.628   1.075   8.241  0.8848 -2.5582  2.6713
  159SAPE  C22017785   0.552   0.883   8.269 -0.3982 -0.3169 -0.2904
  159SAPE  H20R17786   0.533   0.901   8.377  2.0656 -0.7071  0.2660
  159SAPE  H20S17787   0.650   0.836   8.248 -0.3268  0.4782 -1.8836
  159SAPE  H20T17788   0.470   0.815   8.236 -0.8455 -0.6645  1.4658
  159SAPE   C3317789  -0.197   1.427   6.620  0.8075  0.1540  0.2277
  159SAPE   H3X17790  -0.123   1.361   6.670  1.8408  1.2043  0.1127
  159SAPE   H3Y17791  -0.296   1.377   6.612  1.3948 -1.0797  0.3972
  159SAPE   C3417792  -0.223   1.542   6.709 -0.3637 -0.0974 -0.4086
  159SAPE   H4X17793  -0.322   1.590   6.698  0.4845  2.0525  0.6018
  159SAPE   H4Y17794  -0.145   1.621   6.695 -0.8946 -0.0262 -3.6489
  159SAPE   C3517795  -0.226   1.494   6.859  0.0006  0.7303 -0.3986
  159SAPE   H5X17796  -0.133   1.435   6.874 -0.2552  0.6170  0.8894
  159SAPE   H5Y17797  -0.310   1.423   6.874 -0.5964  1.7695  1.6348
  159SAPE   C3617798  -0.230   1.604   6.970  0.5339  0.5594 -0.4591
  159SAPE   H6X17799  -0.327   1.658   6.961 -0.5351 -0.5475  3.1062
  159SAPE   H6Y17800  -0.149   1.674   6.940  1.0780 -0.6724 -2.0028
  159SAPE   C3717801  -0.201   1.548   7.107 -0.6428 -0.4692  0.2158
  159SAPE   H7X17802  -0.163   1.624   7.179 -1.9236  2.1257 -1.6722
  159SAPE   H7Y17803  -0.115   1.480   7.093  0.0817  0.3367  0.6515
  159SAPE   C3817804  -0.314   1.464   7.173 -0.1222  0.2787  0.2589
  159SAPE   H8X17805  -0.281   1.360   7.151  0.9515  0.1993  2.0410
  159SAPE   H8Y17806  -0.413   1.473   7.123 -0.0438 -0.2291  0.0037
  159SAPE   C3917807  -0.336   1.492   7.324  0.0737  0.2548 -0.2365
  159SAPE   H9X17808  -0.419   1.424   7.355 -0.1258 -0.1041 -1.5101
  159SAPE   H9Y17809  -0.367   1.597   7.343 -2.7931 -0.7366  1.1712
  159SAPE  C31017810  -0.210   1.470   7.400  0.7878  0.4839  0.0252
  159SAPE  H10X17811  -0.127   1.538   7.370  0.8143 -0.3260 -1.9717
  159SAPE  H10Y17812  -0.174   1.370   7.367 -0.8314  0.0952 -0.6609
  159SAPE  C31117813  -0.224   1.476   7.553 -0.2398 -0.0903  0.0802
  159SAPE  H11X17814  -0.303   1.407   7.590  1.3818 -0.9023  2.2113
  159SAPE  H11Y17815  -0.257   1.577   7.583 -0.8499 -0.4617  0.6845
  159SAPE  C31217816  -0.098   1.444   7.627 -0.0691  0.8210  0.0819
  159SAPE  H12X17817  -0.019   1.508   7.582 -0.9989  1.6723 -0.3901
  159SAPE  H12Y17818  -0.071   1.337   7.613 -1.6945  0.4618 -0.4740
  159SAPE  C31317819  -0.099   1.465   7.774 -0.2302  0.0306 -0.0352
  159SAPE  H13X17820  -0.173   1.393   7.815 -1.0016  0.3881 -0.7652
  159SAPE  H13Y17821  -0.143   1.566   7.791  1.1302  0.5735  0.4605
  159SAPE  C31417822   0.039   1.442   7.846  0.1331  0.7480  0.6672
  159SAPE  H14X17823   0.117   1.478   7.777 -0.4293  1.0785  0.1922
  159SAPE  H14Y17824   0.047   1.331   7.855  1.4822  0.9515  2.5394
  159SAPE  C31517825   0.036   1.504   7.990  0.4451  0.2805  0.5265
  159SAPE  H15X17826   0.132   1.480   8.041  0.2939 -2.0244 -0.1857
  159SAPE  H15Y17827  -0.051   1.469   8.048 -0.9051  0.9431 -1.0116
  159SAPE  C31617828   0.036   1.659   7.992 -0.4509  0.5060 -0.1900
  159SAPE  H16X17829  -0.066   1.697   7.971 -2.2108 -2.2946  2.4314
  159SAPE  H16Y17830   0.112   1.707   7.927  1.3188 -0.8905  0.7361
  159SAPE  C31717831   0.064   1.715   8.137  0.8572  0.8908  0.4346
  159SAPE  H17X17832   0.082   1.824   8.145  0.0029  1.2254 -1.6577
  159SAPE  H17Y17833   0.157   1.660   8.166 -0.7942 -2.7337 -0.5090
  159SAPE  C31817834  -0.032   1.687   8.249  0.1178 -0.1877 -0.0435
  159SAPE  H18X17835   0.001   1.741   8.340 -0.4915 -0.7434  0.5147
  159SAPE  H18Y17836  -0.033   1.579   8.275 -0.3337 -0.1179  0.2404
  159SAPE  H18Z17837  -0.136   1.717   8.222  0.1748 -1.2807 -1.5968
  160SAPE     N17838   1.957   6.465   6.428  0.0738 -0.6495  0.1062
  160SAPE   HN117839   2.006   6.384   6.472  2.8457  0.1561 -1.2132
  160SAPE   HN217840   1.959   6.535   6.505  0.7361  0.3923 -0.8306
  160SAPE   HN317841   1.857   6.442   6.417 -0.1200 -0.4483  1.3041
  160SAPE   C1217842   2.012   6.522   6.299  0.3267  0.1054 -0.6631
  160SAPE  H12A17843   2.022   6.444   6.221  1.6193  0.0236 -0.4374
  160SAPE  H12B17844   2.112   6.565   6.321  0.0436 -0.0966  1.1815
  160SAPE   C1117845   1.921   6.625   6.236 -0.2268 -0.0970 -0.4030
  160SAPE  H11A17846   1.827   6.567   6.221 -0.3437 -0.8187  2.4793
  160SAPE  H11B17847   1.965   6.661   6.141 -1.6144 -1.6091 -1.6869
  160SAPE     P17848   1.777   6.823   6.344  0.0343  0.1854 -0.0034
  160SAPE   O1317849   1.823   6.954   6.391 -0.5330  0.4091  0.3289
  160SAPE   O1417850   1.707   6.822   6.217 -0.2710  0.3681  0.4292
  160SAPE   O1217851   1.910   6.732   6.333 -0.1396  0.0648  0.0551
  160SAPE   O1117852   1.697   6.751   6.462 -0.6267 -0.9986 -0.3441
  160SAPE    C117853   1.615   6.826   6.550  0.2820  0.3127 -0.5802
  160SAPE    HA17854   1.596   6.932   6.524 -0.4091  0.3530  0.0722
  160SAPE    HB17855   1.520   6.768   6.548  2.9377 -4.5925 -0.7794
  160SAPE    C217856   1.672   6.802   6.692  0.3911 -0.7549 -0.8243
  160SAPE    HS17857   1.779   6.833   6.691  0.8860 -2.1763  1.5487
  160SAPE   O2117858   1.660   6.658   6.727 -0.6588  0.0894  0.0170
  160SAPE   C2117859   1.769   6.586   6.717 -0.1339 -0.3911  0.4934
  160SAPE   O2217860   1.864   6.605   6.643 -0.2834  0.8443  0.2061
  160SAPE   C2217861   1.763   6.462   6.808  0.3825  0.3422  0.5654
  160SAPE   H2R17862   1.686   6.389   6.773 -0.9666  1.2433  1.5460
  160SAPE   H2S17863   1.855   6.401   6.794 -1.4046 -2.0091 -2.1420
  160SAPE    C317864   1.599   6.885   6.801  0.3719  0.4324  0.4757
  160SAPE    HX17865   1.492   6.886   6.773  0.8766 -1.4085 -1.8176
  160SAPE    HY17866   1.632   6.991   6.792  1.5866 -0.0081 -0.6506
  160SAPE   O3117867   1.630   6.829   6.928  0.2874 -0.1712 -0.6026
  160SAPE   C3117868   1.548   6.871   7.025 -0.0189  0.5343  0.4837
  160SAPE   O3217869   1.480   6.970   7.011  0.5144  0.2456 -0.8755
  160SAPE   C3217870   1.567   6.790   7.150 -0.6273 -0.0577 -0.2494
  160SAPE   H2X17871   1.553   6.682   7.131  1.2514 -0.2895 -0.5019
  160SAPE   H2Y17872   1.489   6.823   7.222 -0.8529 -1.2028  0.0493
  160SAPE   C2317873   1.722   6.507   6.951 -0.6031 -0.2025 -0.4391
  160SAPE   H3R17874   1.637   6.577   6.942 -0.0417  0.4513 -0.7439
  160SAPE   H3S17875   1.798   6.571   7.000 -3.0989  1.7844  1.0896
  160SAPE   C2417876   1.692   6.394   7.044 -0.5223  0.6857 -1.0563
  160SAPE   H4R17877   1.688   6.436   7.147 -0.0852 -0.8060 -0.4121
  160SAPE   H4S17878   1.779   6.324   7.042 -1.8470 -1.3046  2.5125
  160SAPE   C2517879   1.555   6.338   7.022  0.8354 -0.0461  0.4138
  160SAPE   H5R17880   1.529   6.316   6.917  2.7693  2.3415 -0.6643
  160SAPE   C2617881   1.455   6.340   7.116 -0.3906  0.0216 -0.5636
  160SAPE   H6R17882   1.362   6.283   7.097 -1.0992  2.1321 -4.4493
  160SAPE   C2717883   1.486   6.386   7.260 -0.1408 -0.6910 -1.0247
  160SAPE   H7R17884   1.481   6.497   7.258  0.3730 -0.6518 -0.4151
  160SAPE   H7S17885   1.588   6.350   7.282  1.0141  1.1277 -3.0281
  160SAPE   C2817886   1.374   6.351   7.361  0.1679  0.1488  0.5241
  160SAPE   H8R17887   1.271   6.373   7.329 -0.0792 -0.0015  1.2108
  160SAPE   C2917888   1.399   6.304   7.484 -0.2838  0.1364 -0.4172
  160SAPE   H9R17889   1.320   6.282   7.556 -0.6426 -3.7033 -1.7417
  160SAPE  C21017890   1.540   6.282   7.541 -0.2408 -0.5157 -0.0147
  160SAPE  H10R17891   1.611   6.361   7.510  0.0741 -0.6490  0.3529
  160SAPE  H10S17892   1.569   6.191   7.484  2.9131  1.3188 -1.5796
  160SAPE  C21117893   1.533   6.253   7.684  0.1260 -0.0038  0.3048
  160SAPE  H11R17894   1.440   6.212   7.728 -1.8539  2.2222 -1.5386
  160SAPE  C21217895   1.635   6.253   7.766  0.1298 -0.4916 -1.3485
  160SAPE  H12R17896   1.625   6.216   7.869  0.8631  1.5714 -0.4763
  160SAPE  C21317897   1.778   6.284   7.732 -0.7141  0.5191  0.6616
  160SAPE  H13R17898   1.783   6.391   7.704  2.4376 -0.0274 -1.3738
  160SAPE  H13S17899   1.814   6.220   7.649 -0.6795  0.6448  0.5805
  160SAPE  C21417900   1.868   6.256   7.855  0.3835 -0.4079  0.8937
  160SAPE  H14R17901   1.891   6.150   7.871  0.8923 -0.3561  0.5340
  160SAPE  C21517902   1.924   6.358   7.926  0.1219  0.8275  0.0432
  160SAPE  H15R17903   1.998   6.319   7.997 -0.1482 -2.3636 -1.2339
  160SAPE  C21617904   1.927   6.508   7.901  0.1712 -0.1820 -0.5522
  160SAPE  H16R17905   1.845   6.535   7.832  0.3112  0.0002 -0.6504
  160SAPE  H16S17906   2.020   6.535   7.845  0.6918  1.0270  0.8147
  160SAPE  C21717907   1.916   6.579   8.031 -0.3387  0.4056  0.3389
  160SAPE  H17R17908   2.005   6.552   8.092 -0.2775  1.8664  0.9403
  160SAPE  H17S17909   1.819   6.553   8.077 -0.6640 -0.4020 -0.7573
  160SAPE  C21817910   1.925   6.731   8.007 -0.3371 -0.4238  1.1627
  160SAPE  H18R17911   1.848   6.778   7.943 -0.8606 -0.0310  2.0611
  160SAPE  H18S17912   2.022   6.746   7.954 -1.6307 -0.3828 -1.3422
  160SAPE  C21917913   1.926   6.814   8.134 -0.0233  0.0468  0.0096
  160SAPE  H19R17914   1.925   6.924   8.116  1.2815 -0.1118 -1.2310
  160SAPE  H19S17915   2.020   6.790   8.187  0.3997 -0.6153 -1.0148
  160SAPE  C22017916   1.813   6.776   8.227 -0.0924 -0.0181  0.5332
  160SAPE  H20R17917   1.843   6.678   8.270  2.2274  0.4917  0.2041
  160SAPE  H20S17918   1.726   6.743   8.166 -0.9709  0.7129  1.3645
  160SAPE  H20T17919   1.791   6.861   8.294  0.5472  1.1527 -0.6883
  160SAPE   C3317920   1.708   6.810   7.218  0.2325 -0.3964 -0.0460
  160SAPE   H3X17921   1.727   6.915   7.248  3.2154 -0.5476 -1.1304
  160SAPE   H3Y17922   1.793   6.801   7.147 -0.4001  0.0040 -0.8628
  160SAPE   C3417923   1.721   6.722   7.348 -0.2866  0.1094  0.0336
  160SAPE   H4X17924   1.728   6.617   7.313 -0.9605  0.3279 -0.8157
  160SAPE   H4Y17925   1.635   6.726   7.418  0.4904 -1.6396  1.1245
  160SAPE   C3517926   1.851   6.759   7.428 -0.4408  0.1100  0.3021
  160SAPE   H5X17927   1.926   6.763   7.347 -1.6417  1.3046 -0.7799
  160SAPE   H5Y17928   1.881   6.676   7.497  1.0508 -0.3369 -0.8304
  160SAPE   C3617929   1.837   6.894   7.508 -0.1974  0.8532  0.0994
  160SAPE   H6X17930   1.806   6.977   7.440  1.4026 -0.5038 -2.4171
  160SAPE   H6Y17931   1.939   6.928   7.538 -0.4065  1.0908  0.5690
  160SAPE   C3717932   1.746   6.882   7.627  0.5490  0.2472 -0.5383
  160SAPE   H7X17933   1.802   6.824   7.703  0.1058  1.3415  0.6679
  160SAPE   H7Y17934   1.649   6.834   7.605 -0.7124  1.7372  1.3961
  160SAPE   C3817935   1.717   7.021   7.692  0.0027 -0.0200 -0.0022
  160SAPE   H8X17936   1.649   7.084   7.630  1.2249  0.3660 -1.0042
  160SAPE   H8Y17937   1.814   7.075   7.686 -0.6963  1.2517 -0.3339
  160SAPE   C3917938   1.682   7.008   7.838  0.3564 -0.5244  0.2160
  160SAPE   H9X17939   1.750   6.940   7.894 -1.2736 -1.6745  0.8791
  160SAPE   H9Y17940   1.578   6.970   7.845  0.3179 -1.2063 -2.6632
  160SAPE  C31017941   1.699   7.147   7.910  0.3676 -0.1155  0.1112
  160SAPE  H10X17942   1.657   7.217   7.835 -0.3167 -2.0746 -1.4309
  160SAPE  H10Y17943   1.808   7.167   7.917  0.1253  2.4271 -1.8965
  160SAPE  C31117944   1.626   7.164   8.042  0.6474 -0.1937 -0.0067
  160SAPE  H11X17945   1.684   7.101   8.114 -0.2705 -2.0515 -0.8335
  160SAPE  H11Y17946   1.519   7.133   8.039  0.0576  1.4497  2.0801
  160SAPE  C31217947   1.613   7.304   8.100 -0.1436 -0.0244 -1.1624
  160SAPE  H12X17948   1.543   7.375   8.050  0.7743  3.2247  1.8303
  160SAPE  H12Y17949   1.700   7.372   8.096 -0.1856  0.1694  0.5175
  160SAPE  C31317950   1.580   7.310   8.251  0.6117  0.3705 -0.1573
  160SAPE  H13X17951   1.669   7.259   8.293 -0.1674 -1.3077 -0.4802
  160SAPE  H13Y17952   1.486   7.257   8.279 -0.4053  2.2532  0.1817
  160SAPE  C31417953   1.573   7.453   8.310  0.3718  0.3791 -0.4709
  160SAPE  H14X17954   1.657   7.517   8.275  2.5548 -2.6716 -1.1923
  160SAPE  H14Y17955   1.589   7.449   8.420  0.1758 -0.5689 -0.4701
  160SAPE  C31517956   1.436   7.513   8.285  1.1662 -0.8991 -0.0519
  160SAPE  H15X17957   1.346   7.449   8.302  0.2921 -1.1510 -4.5079
  160SAPE  H15Y17958   1.432   7.530   8.176  1.1831  0.0020  0.0804
  160SAPE  C31617959   1.420   7.632   8.374  0.2119  0.2435  0.6347
  160SAPE  H16X17960   1.510   7.696   8.361 -0.2161  0.9168  0.9422
  160SAPE  H16Y17961   1.418   7.592   8.477  0.0689 -3.5771 -0.6906
  160SAPE  C31717962   1.291   7.708   8.365  0.7219 -0.7684  0.4307
  160SAPE  H17X17963   1.214   7.628   8.368  0.7434 -0.9061 -1.6101
  160SAPE  H17Y17964   1.288   7.754   8.264  2.7977 -1.6776 -0.1068
  160SAPE  C31817965   1.276   7.826   8.466  0.4703  0.2045 -0.2262
  160SAPE  H18X17966   1.195   7.891   8.427  3.3231  1.6654 -4.3789
  160SAPE  H18Y17967   1.374   7.877   8.476  1.5557 -1.6636 -0.8705
  160SAPE  H18Z17968   1.246   7.782   8.564 -0.3285 -2.1691 -1.4506
  161SOPE     N17969   0.650   3.683  10.647  0.3141  0.8590  0.5688
  161SOPE   HN117970   0.587   3.676  10.729 -2.0023 -0.9980 -1.2417
  161SOPE   HN217971   0.611   3.618  10.576  2.3471 -1.0464  1.0858
  161SOPE   HN317972   0.752   3.666  10.654  0.2744 -0.8357 -1.8002
  161SOPE   C1217973   0.641   3.819  10.588 -0.1423  0.0116  0.3145
  161SOPE  H12A17974   0.714   3.816  10.505  0.2285  3.1929  0.4181
  161SOPE  H12B17975   0.678   3.891  10.664  0.8437  0.6652 -0.7688
  161SOPE   C1117976   0.505   3.857  10.527  0.4653 -0.6523 -0.0283
  161SOPE  H11A17977   0.496   3.786  10.442  0.1243 -0.5314 -0.0978
  161SOPE  H11B17978   0.524   3.960  10.489  2.0910 -0.2529  1.7326
  161SOPE     P17979   0.248   3.823  10.587 -0.2031 -0.2733 -0.7662
  161SOPE   O1317980   0.161   3.851  10.704 -0.3027 -0.3329  0.0351
  161SOPE   O1417981   0.232   3.690  10.527 -0.0053 -0.9476 -0.3578
  161SOPE   O1217982   0.400   3.851  10.628  0.5085  0.1968  0.2751
  161SOPE   O1117983   0.213   3.923  10.467 -0.2673 -0.2925 -0.3243
  161SOPE    C117984   0.236   4.066  10.476  0.1178  0.5197  0.0594
  161SOPE    HA17985   0.345   4.088  10.467  0.2064 -0.1632 -0.6479
  161SOPE    HB17986   0.188   4.114  10.564  1.6962  1.5778  0.3831
  161SOPE    C217987   0.157   4.140  10.367 -0.1133  0.6607 -0.1857
  161SOPE    HS17988   0.050   4.117  10.382  0.1432  0.1064  0.9420
  161SOPE   O2117989   0.203   4.103  10.245 -0.1834  0.1795 -0.0083
  161SOPE   C2117990   0.112   4.094  10.151  0.7772  0.5475  0.1175
  161SOPE   O2217991  -0.008   4.108  10.161 -0.4065 -0.2659 -0.4005
  161SOPE   C2217992   0.187   4.077  10.021 -0.4521  0.3941  0.1994
  161SOPE   H2R17993   0.218   3.971  10.016 -0.6523  0.3481 -0.1262
  161SOPE   H2S17994   0.276   4.142  10.031 -2.3702  3.9247 -2.7082
  161SOPE    C317995   0.173   4.296  10.386  0.4674  0.6652  0.8698
  161SOPE    HX17996   0.282   4.312  10.367  0.6537 -1.5791 -0.3258
  161SOPE    HY17997   0.143   4.310  10.492 -0.5283 -3.5789  1.3137
  161SOPE   O3117998   0.080   4.367  10.295 -0.1202  0.1144 -0.4820
  161SOPE   C3117999   0.124   4.444  10.199 -0.5651 -0.2894  0.1416
  161SOPE   O3218000   0.242   4.484  10.179  0.4993  0.8548  0.5736
  161SOPE   C3218001   0.007   4.475  10.109  0.1877 -0.7531 -0.0004
  161SOPE   H2X18002  -0.057   4.555  10.153 -2.0759 -0.5088 -3.3695
  161SOPE   H2Y18003  -0.048   4.382  10.084 -0.0328 -0.2215 -1.6635
  161SOPE   C2318004   0.098   4.100   9.895  0.7605  0.5042 -0.4691
  161SOPE   H3R18005   0.042   4.196   9.896  1.3531  0.8558  0.8230
  161SOPE   H3S18006   0.019   4.022   9.896 -0.0721  1.3145 -0.9592
  161SOPE   C2418007   0.188   4.078   9.774 -0.4241  0.1344  0.1050
  161SOPE   H4R18008   0.265   4.158   9.777 -0.6101  0.3615 -0.7512
  161SOPE   H4S18009   0.237   3.978   9.782 -0.3998  0.2446  1.5933
  161SOPE   C2518010   0.107   4.082   9.642 -0.1674  0.1005  0.2403
  161SOPE   H5R18011   0.047   3.989   9.635  0.2032 -0.2584  1.5584
  161SOPE   H5S18012   0.033   4.164   9.644 -1.3409 -0.9472  0.8843
  161SOPE   C2618013   0.185   4.097   9.507  0.0209 -0.0499 -0.4470
  161SOPE   H6R18014   0.262   4.175   9.521 -0.6975  0.4481  0.8642
  161SOPE   H6S18015   0.226   3.997   9.481  0.3707  0.6625 -2.9435
  161SOPE   C2718016   0.095   4.131   9.389  0.6423 -0.0800  0.1608
  161SOPE   H7R18017  -0.007   4.089   9.403  0.7626 -0.8729 -1.1202
  161SOPE   H7S18018   0.086   4.241   9.392  0.3951 -0.1201  1.7429
  161SOPE   C2818019   0.153   4.096   9.251  0.5619  0.3904  0.1085
  161SOPE   H8R18020   0.106   4.166   9.179 -3.4661 -0.2506  1.8699
  161SOPE   H8S18021   0.263   4.107   9.261  0.4696  0.6455  0.9324
  161SOPE   C2918022   0.127   3.953   9.207  0.5765 -0.6552 -0.1510
  161SOPE   H9118023   0.122   3.875   9.285 -1.7304 -0.4370  0.0074
  161SOPE  C21018024   0.093   3.919   9.083  0.1852 -0.1756  0.8296
  161SOPE  H10118025   0.100   3.813   9.058  1.4250  0.0822 -0.0007
  161SOPE  C21118026   0.082   4.008   8.961 -0.3058  0.1536 -0.1757
  161SOPE  H11R18027   0.177   4.064   8.948  0.6370 -1.5510 -0.9206
  161SOPE  H11S18028  -0.008   4.074   8.956 -1.6383 -1.2147  2.8716
  161SOPE  C21218029   0.072   3.921   8.835 -0.4927 -0.0012 -0.1867
  161SOPE  H12R18030  -0.014   3.852   8.848  0.1260 -0.3483  2.6470
  161SOPE  H12S18031   0.164   3.859   8.830  0.5755  1.5366 -0.3313
  161SOPE  C21318032   0.047   4.013   8.713 -0.5168  0.6283 -0.5258
  161SOPE  H13R18033   0.134   4.081   8.695 -1.3695  1.2221 -2.8919
  161SOPE  H13S18034  -0.051   4.063   8.727 -0.8154  0.0697 -0.5941
  161SOPE  C21418035   0.049   3.919   8.588  0.3399  0.1999 -0.5880
  161SOPE  H14R18036   0.126   3.839   8.600 -1.7964 -1.7789  0.5682
  161SOPE  H14S18037   0.070   3.988   8.503 -0.7442  0.1315 -0.9185
  161SOPE  C21518038  -0.089   3.866   8.555  0.2405 -0.9528 -0.1707
  161SOPE  H15R18039  -0.166   3.945   8.545  0.9339 -0.4436 -1.9278
  161SOPE  H15S18040  -0.117   3.802   8.641  0.0831  1.3660  1.6030
  161SOPE  C21618041  -0.068   3.790   8.421  0.0946  0.0093  0.7273
  161SOPE  H16R18042   0.019   3.724   8.440 -0.8005 -1.5620 -0.4457
  161SOPE  H16S18043  -0.034   3.848   8.332 -0.5429 -1.3232 -0.4149
  161SOPE  C21718044  -0.201   3.720   8.384 -0.4812  0.3700  0.0662
  161SOPE  H17R18045  -0.275   3.790   8.339 -1.6055 -1.3068 -0.7846
  161SOPE  H17S18046  -0.244   3.676   8.476 -0.5553 -1.5029 -0.8207
  161SOPE  C21818047  -0.185   3.605   8.282  1.0963  0.1546 -0.1919
  161SOPE  H18R18048  -0.117   3.524   8.316 -0.0222 -0.4155  0.7234
  161SOPE  H18S18049  -0.134   3.642   8.190  0.7362 -1.6052 -1.1450
  161SOPE  H18T18050  -0.285   3.571   8.247  1.1069  0.0632 -0.1340
  161SOPE   C3318051   0.062   4.529   9.971  0.3616 -0.6329 -0.5082
  161SOPE   H3X18052   0.134   4.451   9.939  0.8297 -1.0559  1.4649
  161SOPE   H3Y18053   0.125   4.620   9.973  1.6756 -1.4196 -2.4913
  161SOPE   C3418054  -0.039   4.552   9.856  0.0094  0.0005 -0.1208
  161SOPE   H4X18055  -0.093   4.649   9.860 -0.6104 -0.3741  2.8057
  161SOPE   H4Y18056  -0.125   4.483   9.860  1.1341 -1.7097 -2.6134
  161SOPE   C3518057   0.033   4.518   9.722  0.3060 -0.3887  0.4308
  161SOPE   H5X18058   0.064   4.411   9.723 -1.8573 -1.2121 -2.7098
  161SOPE   H5Y18059   0.122   4.583   9.707 -2.0033  2.5905 -1.5661
  161SOPE   C3618060  -0.066   4.532   9.604 -0.3550 -0.0768  0.0171
  161SOPE   H6X18061  -0.112   4.631   9.621 -0.2406  0.2331 -1.3904
  161SOPE   H6Y18062  -0.142   4.452   9.598  1.1738 -1.5572 -0.5863
  161SOPE   C3718063   0.023   4.544   9.483  0.0497  0.5850  0.4496
  161SOPE   H7X18064   0.093   4.458   9.482 -2.5937 -1.7055 -0.4172
  161SOPE   H7Y18065   0.088   4.634   9.475  3.3688 -1.7304 -0.8152
  161SOPE   C3818066  -0.047   4.540   9.347  0.0195  0.9234  0.5109
  161SOPE   H8X18067  -0.111   4.626   9.321 -1.8043 -1.1209 -2.3938
  161SOPE   H8Y18068  -0.125   4.461   9.351 -1.9977  2.7217 -1.2830
  161SOPE   C3918069   0.043   4.513   9.229  0.4985 -0.2638 -0.5687
  161SOPE   H9X18070   0.128   4.450   9.265  1.6240  1.9894  0.9826
  161SOPE   H9Y18071   0.084   4.608   9.189 -0.6769  0.6778  0.3968
  161SOPE  C31018072  -0.022   4.436   9.117  0.6609  0.0930 -0.3957
  161SOPE  H10X18073  -0.116   4.483   9.080 -1.8099 -2.9359  1.5791
  161SOPE  H10Y18074  -0.057   4.337   9.154 -0.0965 -0.0479 -1.4318
  161SOPE  C31118075   0.069   4.401   8.999 -0.6003 -0.4060 -0.1605
  161SOPE  H11X18076   0.012   4.335   8.930 -1.5879  1.2976 -1.0403
  161SOPE  H11Y18077   0.150   4.333   9.032 -0.3077 -0.0882 -0.2207
  161SOPE  C31218078   0.127   4.515   8.919  0.0963 -0.3117  0.0740
  161SOPE  H12X18079   0.196   4.572   8.985 -0.5644  0.5570  0.0313
  161SOPE  H12Y18080   0.050   4.592   8.897 -0.9406 -1.8440 -1.9402
  161SOPE  C31318081   0.206   4.465   8.797  0.1723 -0.2020  0.2462
  161SOPE  H13X18082   0.286   4.394   8.830  0.2015 -1.4605 -2.3141
  161SOPE  H13Y18083   0.260   4.554   8.759  0.8225 -1.6942 -2.5653
  161SOPE  C31418084   0.122   4.394   8.694 -0.9829  0.2015  0.6647
  161SOPE  H14X18085   0.045   4.471   8.669 -0.6830  0.3515  0.1933
  161SOPE  H14Y18086   0.086   4.293   8.723  3.0647 -1.3523  0.9409
  161SOPE  C31518087   0.209   4.366   8.568  0.6367 -0.7059 -0.2421
  161SOPE  H15X18088   0.297   4.303   8.595 -0.5552 -2.3995 -0.1951
  161SOPE  H15Y18089   0.235   4.466   8.525 -1.1908  0.0059  0.2186
  161SOPE  C31618090   0.113   4.293   8.469  0.3935  0.1602  0.7762
  161SOPE  H16X18091   0.036   4.368   8.445  0.2248  0.1639  1.3144
  161SOPE  H16Y18092   0.072   4.194   8.501  2.4249 -1.4062 -1.1241
  161SOPE  C31718093   0.166   4.251   8.331 -0.2270 -0.8352 -0.8776
  161SOPE  H17X18094   0.223   4.342   8.302  2.1004 -1.4004  1.5026
  161SOPE  H17Y18095   0.085   4.239   8.257 -0.6914 -1.7172 -0.2441
  161SOPE  C31818096   0.274   4.144   8.333  0.4646 -0.1603 -0.2128
  161SOPE  H18X18097   0.232   4.046   8.363  1.2293 -0.4378 -0.0095
  161SOPE  H18Y18098   0.358   4.173   8.401 -0.4555 -1.7025  1.6534
  161SOPE  H18Z18099   0.309   4.119   8.230 -1.4851 -1.2641 -0.6370
  162SOPE     N18100   4.403   4.282  10.857  0.1024  0.3264  0.5150
  162SOPE   HN118101   4.411   4.363  10.922 -0.2839  0.6811  0.1343
  162SOPE   HN218102   4.425   4.319  10.762 -1.5761 -1.3642 -0.5961
  162SOPE   HN318103   4.315   4.228  10.848  0.3862  0.1892 -2.4402
  162SOPE   C1218104   4.509   4.182  10.880 -0.4309  0.0117  0.3692
  162SOPE  H12A18105   4.521   4.121  10.788  1.8929 -1.2722  1.4489
  162SOPE  H12B18106   4.481   4.125  10.971  2.5546  2.3513  2.9800
  162SOPE   C1118107   4.649   4.253  10.892 -0.7038  0.0587  0.3227
  162SOPE  H11A18108   4.723   4.188  10.943 -0.4698  0.7110  0.8192
  162SOPE  H11B18109   4.644   4.342  10.958  0.4888 -1.1506  2.1318
  162SOPE     P18110   4.836   4.316  10.708  0.3477  0.1064  0.2962
  162SOPE   O1318111   4.941   4.314  10.801 -0.1842  0.1315  0.4357
  162SOPE   O1418112   4.830   4.442  10.631  0.0172  0.5316  0.4217
  162SOPE   O1218113   4.681   4.294  10.759 -0.3957  0.2672  0.0411
  162SOPE   O1118114   4.857   4.204  10.608  0.4243  0.0446  0.3987
  162SOPE    C118115   4.750   4.124  10.555  0.1995 -0.3222  0.7655
  162SOPE    HA18116   4.667   4.181  10.507 -2.2157 -2.5357  2.0437
  162SOPE    HB18117   4.696   4.073  10.638  0.2297  0.0582  1.0224
  162SOPE    C218118   4.794   4.017  10.450  0.1148  0.0750  0.3423
  162SOPE    HS18119   4.879   3.965  10.500 -0.8900 -0.3829  1.6319
  162SOPE   O2118120   4.843   4.071  10.320 -0.5113 -0.0982 -0.0846
  162SOPE   C2118121   4.965   4.122  10.333  0.0557 -0.0002 -0.1226
  162SOPE   O2218122   5.045   4.103  10.423  0.1569 -1.4647  0.1782
  162SOPE   C2218123   4.998   4.214  10.211 -0.1199  0.3201  0.2675
  162SOPE   H2R18124   5.004   4.315  10.257 -0.8202  0.2505  0.5382
  162SOPE   H2S18125   4.905   4.225  10.151 -0.9243 -1.7129  1.0414
  162SOPE    C318126   4.686   3.906  10.421 -0.0140 -0.1789 -0.5042
  162SOPE    HX18127   4.665   3.851  10.516 -0.2843 -0.7114 -0.8686
  162SOPE    HY18128   4.735   3.837  10.349  0.4445 -1.2673  0.7811
  162SOPE   O3118129   4.566   3.959  10.355 -0.1424  0.1248  0.1076
  162SOPE   C3118130   4.495   3.859  10.301  0.7315  0.0274 -0.1920
  162SOPE   O3218131   4.534   3.744  10.296  0.3805  0.1210 -0.1661
  162SOPE   C3218132   4.362   3.908  10.249 -0.0140 -0.0328  0.1286
  162SOPE   H2X18133   4.389   3.980  10.168  0.4988 -0.2378  0.1167
  162SOPE   H2Y18134   4.299   3.972  10.314 -1.5225  1.5210 -2.6414
  162SOPE   C2318135   5.119   4.179  10.132  0.0194 -0.6082 -0.8125
  162SOPE   H3R18136   5.094   4.085  10.078  2.8380 -2.7913  1.3095
  162SOPE   H3S18137   5.213   4.187  10.191 -0.4576 -0.2821 -0.0797
  162SOPE   C2418138   5.158   4.287  10.026 -0.0095  0.1758  0.0460
  162SOPE   H4R18139   5.200   4.374  10.081 -0.3427 -0.4181  1.2754
  162SOPE   H4S18140   5.228   4.226   9.965 -1.4326 -1.6400  0.1199
  162SOPE   C2518141   5.040   4.340   9.933 -0.1790  0.3639 -0.3116
  162SOPE   H5R18142   4.985   4.250   9.898  1.7312 -1.3092  0.7749
  162SOPE   H5S18143   4.976   4.405   9.996  1.5986  1.6081  0.2634
  162SOPE   C2618144   5.100   4.413   9.811 -0.1189  0.3567 -1.0519
  162SOPE   H6R18145   5.140   4.509   9.850  1.8420 -1.0288  0.5313
  162SOPE   H6S18146   5.189   4.352   9.785  0.1356  0.7595 -1.1350
  162SOPE   C2718147   5.020   4.427   9.684 -0.3387 -0.0230 -0.0558
  162SOPE   H7R18148   4.990   4.324   9.655  0.8089 -0.6977  1.0526
  162SOPE   H7S18149   4.939   4.503   9.680 -0.8013 -0.5617 -2.4383
  162SOPE   C2818150   5.119   4.475   9.572  0.3009 -0.2313 -0.0686
  162SOPE   H8R18151   5.058   4.508   9.486  2.3886 -0.0699 -1.5750
  162SOPE   H8S18152   5.164   4.572   9.603 -1.1958  1.1029 -1.8543
  162SOPE   C2918153   5.216   4.374   9.530 -0.1872  0.2914  0.2616
  162SOPE   H9118154   5.295   4.352   9.604  2.4574  0.1348 -2.4393
  162SOPE  C21018155   5.220   4.300   9.413  0.0274 -0.1595 -0.6937
  162SOPE  H10118156   5.290   4.215   9.405  0.2935  0.0082 -0.1845
  162SOPE  C21118157   5.116   4.308   9.302 -0.7207  1.0759  0.3823
  162SOPE  H11R18158   5.140   4.408   9.260 -3.1450  1.7203  0.3619
  162SOPE  H11S18159   5.010   4.312   9.336 -0.6902  1.7924  0.4073
  162SOPE  C21218160   5.130   4.206   9.189  0.4124  0.0944 -0.0321
  162SOPE  H12R18161   5.154   4.105   9.228 -1.1082 -0.4641 -0.4843
  162SOPE  H12S18162   5.218   4.237   9.129 -0.0421 -0.5709 -1.0701
  162SOPE  C21318163   5.005   4.186   9.100 -0.2500  0.0788 -0.1832
  162SOPE  H13R18164   4.965   4.287   9.077  1.9299  1.0643  0.0261
  162SOPE  H13S18165   4.928   4.139   9.165 -0.1031  0.9681  0.6524
  162SOPE  C21418166   5.040   4.089   8.987 -0.0706 -0.5132 -0.6289
  162SOPE  H14R18167   5.083   3.993   9.022  2.4468  1.0361  0.8800
  162SOPE  H14S18168   5.120   4.139   8.928  2.0193 -2.3661  0.5003
  162SOPE  C21518169   4.920   4.076   8.881 -0.2618  0.4142 -0.0648
  162SOPE  H15R18170   4.903   4.174   8.833  0.0399 -0.2558 -1.5796
  162SOPE  H15S18171   4.831   4.052   8.943 -1.7528  1.4343 -1.7035
  162SOPE  C21618172   4.946   3.970   8.769  0.1473 -0.4091  0.0951
  162SOPE  H16R18173   4.850   3.968   8.714  0.5978  1.0999 -0.7948
  162SOPE  H16S18174   4.969   3.881   8.833  0.0908  1.7018  3.2659
  162SOPE  C21718175   5.075   3.998   8.684  0.0097  0.4515  0.7561
  162SOPE  H17R18176   5.072   3.916   8.610  0.8896 -0.6098  1.8682
  162SOPE  H17S18177   5.156   3.984   8.759  0.5838 -0.7626 -0.0746
  162SOPE  C21818178   5.079   4.135   8.616  0.1772  0.2897 -0.4395
  162SOPE  H18R18179   5.067   4.211   8.696  2.1386 -0.9370  1.1078
  162SOPE  H18S18180   5.002   4.130   8.536  1.0723  1.4636 -1.4117
  162SOPE  H18T18181   5.174   4.153   8.563 -0.7669 -1.3394 -2.8542
  162SOPE   C3318182   4.277   3.787  10.196 -0.1194 -0.4103 -0.6872
  162SOPE   H3X18183   4.168   3.811  10.192 -0.1654 -0.7921 -2.0751
  162SOPE   H3Y18184   4.265   3.712  10.277  0.2132 -2.3315 -2.3591
  162SOPE   C3418185   4.337   3.718  10.067 -0.3858 -0.2087 -0.1771
  162SOPE   H4X18186   4.258   3.645  10.040 -0.8466 -0.1172  0.8931
  162SOPE   H4Y18187   4.425   3.657  10.095  0.1883  0.9784  0.7163
  162SOPE   C3518188   4.363   3.822   9.959  0.2322  0.7892  0.1862
  162SOPE   H5X18189   4.454   3.884   9.975 -0.0854  1.8324 -1.7674
  162SOPE   H5Y18190   4.279   3.894   9.963 -1.0416 -0.5872 -0.6660
  162SOPE   C3618191   4.367   3.760   9.816 -0.6921  1.4664  0.0261
  162SOPE   H6X18192   4.278   3.696   9.794 -1.3762  1.6353  2.1246
  162SOPE   H6Y18193   4.462   3.704   9.809 -1.5956 -0.1214 -0.0499
  162SOPE   C3718194   4.363   3.867   9.704 -0.6609 -0.1312  0.0616
  162SOPE   H7X18195   4.444   3.942   9.716 -1.2048  0.5684 -0.5382
  162SOPE   H7Y18196   4.271   3.927   9.718 -1.0814 -0.8269  0.3575
  162SOPE   C3818197   4.362   3.805   9.559 -0.1463  0.0893  0.1380
  162SOPE   H8X18198   4.289   3.862   9.498  1.0927 -0.0206 -1.5408
  162SOPE   H8Y18199   4.329   3.699   9.551 -1.6257  0.6636 -2.9884
  162SOPE   C3918200   4.497   3.825   9.492 -0.4295  0.6902  0.8474
  162SOPE   H9X18201   4.582   3.770   9.537 -0.0984  0.3560 -0.1790
  162SOPE   H9Y18202   4.525   3.933   9.498  0.4745  0.5784 -0.8451
  162SOPE  C31018203   4.494   3.776   9.343  0.8823 -0.0729 -0.3155
  162SOPE  H10X18204   4.455   3.673   9.346  2.5580 -0.8150  4.3731
  162SOPE  H10Y18205   4.597   3.771   9.301  0.6536  1.3959 -1.1093
  162SOPE  C31118206   4.407   3.867   9.259  0.1049 -0.5795 -0.4548
  162SOPE  H11X18207   4.455   3.965   9.233  1.5489 -1.7029 -2.3255
  162SOPE  H11Y18208   4.305   3.884   9.298  0.5552 -0.7923  0.8774
  162SOPE  C31218209   4.374   3.820   9.114 -0.2520 -0.3908  0.1052
  162SOPE  H12X18210   4.306   3.895   9.068  1.2183  0.8628 -0.1493
  162SOPE  H12Y18211   4.326   3.720   9.108  1.0590 -0.9694 -2.1575
  162SOPE  C31318212   4.489   3.822   9.021 -0.6329  0.1669 -0.3799
  162SOPE  H13X18213   4.542   3.725   9.026  0.7267  0.7659 -2.0142
  162SOPE  H13Y18214   4.556   3.909   9.043 -0.5984 -0.4041  1.9916
  162SOPE  C31418215   4.441   3.823   8.868 -0.4621  0.2904 -0.1664
  162SOPE  H14X18216   4.355   3.891   8.848  1.1586  2.1228 -1.2345
  162SOPE  H14Y18217   4.402   3.726   8.832 -0.2741 -0.5177  1.6798
  162SOPE  C31518218   4.552   3.864   8.770  0.0617  0.6338 -0.7336
  162SOPE  H15X18219   4.641   3.802   8.797 -0.9216 -0.5010 -0.0085
  162SOPE  H15Y18220   4.592   3.964   8.799 -0.8899  0.6427  0.6660
  162SOPE  C31618221   4.514   3.856   8.626  0.0586 -0.4119 -0.1904
  162SOPE  H16X18222   4.433   3.780   8.619 -0.1006 -0.1024 -3.3686
  162SOPE  H16Y18223   4.600   3.837   8.559 -0.7467  0.5945 -1.5580
  162SOPE  C31718224   4.458   3.989   8.570  0.0687  0.3679  0.1538
  162SOPE  H17X18225   4.547   4.054   8.575  0.9882 -0.7919 -0.4922
  162SOPE  H17Y18226   4.384   4.025   8.645 -0.6373  0.5521 -0.6153
  162SOPE  C31818227   4.389   3.974   8.438 -0.3608  0.0075 -0.4432
  162SOPE  H18X18228   4.312   3.895   8.451 -0.5504  0.3239  0.5271
  162SOPE  H18Y18229   4.456   3.933   8.361 -1.9530  1.0547 -2.4778
  162SOPE  H18Z18230   4.349   4.072   8.403  0.7093  0.0948 -1.4752
  163SOPE     N18231   5.837   0.868  10.750  0.2195 -0.3897  0.2295
  163SOPE   HN118232   5.860   0.816  10.837  0.0048 -0.0602  0.4874
  163SOPE   HN218233   5.899   0.949  10.734 -3.3323  2.1182 -2.4041
  163SOPE   HN318234   5.741   0.908  10.750  0.2905 -0.1014  2.2629
  163SOPE   C1218235   5.875   0.778  10.630 -1.2687 -0.3183 -0.8649
  163SOPE  H12A18236   5.870   0.840  10.538  3.4975  1.4124 -0.2510
  163SOPE  H12B18237   5.795   0.701  10.630 -0.9528 -0.6538 -1.7150
  163SOPE   C1118238   6.014   0.713  10.635 -0.4555 -0.0509 -0.1562
  163SOPE  H11A18239   6.035   0.678  10.532 -2.3121 -0.9138 -0.2751
  163SOPE  H11B18240   6.007   0.622  10.698  0.6966  0.7334  1.1859
  163SOPE     P18241   6.253   0.812  10.640  0.1673 -0.1410  0.3908
  163SOPE   O1318242   6.326   0.829  10.770  0.3236 -0.1134  0.2128
  163SOPE   O1418243   6.277   0.922  10.546  0.5505 -0.6874  0.3774
  163SOPE   O1218244   6.102   0.815  10.676  0.1748 -0.2725 -0.2773
  163SOPE   O1118245   6.274   0.674  10.571  0.1661  0.1759 -0.5597
  163SOPE    C118246   6.389   0.638  10.479  0.2386 -0.2936  0.1165
  163SOPE    HA18247   6.419   0.533  10.495  1.0964 -0.1646 -0.6154
  163SOPE    HB18248   6.478   0.702  10.496 -0.5929  1.2148 -0.8767
  163SOPE    C218249   6.334   0.648  10.331  0.6181 -0.6112 -0.3658
  163SOPE    HS18250   6.329   0.755  10.303 -1.2187 -0.6395 -0.2379
  163SOPE   O2118251   6.212   0.577  10.321  0.1011  0.1065  0.5354
  163SOPE   C2118252   6.125   0.624  10.236 -0.8645 -0.0376  0.2294
  163SOPE   O2218253   6.140   0.734  10.186  0.3640  0.3092 -0.7834
  163SOPE   C2218254   6.000   0.530  10.209  0.2054 -0.3285 -0.8099
  163SOPE   H2R18255   5.915   0.601  10.198  1.4304  1.8136  2.0788
  163SOPE   H2S18256   5.974   0.472  10.300  2.3383  0.1191  0.1350
  163SOPE    C318257   6.433   0.588  10.227  0.6509 -0.2172 -0.2786
  163SOPE    HX18258   6.435   0.483  10.262  1.7621  0.5787  2.3672
  163SOPE    HY18259   6.534   0.632  10.242  0.0349  0.6869  1.5619
  163SOPE   O3118260   6.398   0.587  10.089  0.0777  0.5082 -0.0045
  163SOPE   C3118261   6.404   0.708  10.025  0.0552 -0.0251 -0.0845
  163SOPE   O3218262   6.441   0.806  10.084 -0.9038 -0.1809 -0.2305
  163SOPE   C3218263   6.351   0.701   9.876 -0.2103 -0.2883 -0.5534
  163SOPE   H2X18264   6.274   0.781   9.871 -1.2040 -1.2733 -1.5357
  163SOPE   H2Y18265   6.303   0.603   9.856  0.2414 -0.7045  0.3498
  163SOPE   C2318266   6.003   0.432  10.086 -1.3686  0.6161  0.1336
  163SOPE   H3R18267   5.908   0.375  10.080 -0.2673 -1.6076  2.0091
  163SOPE   H3S18268   6.073   0.351  10.117 -2.0280  0.4342  1.2076
  163SOPE   C2418269   6.020   0.511   9.957  0.3752  0.2632 -0.3460
  163SOPE   H4R18270   5.947   0.594   9.951  1.2298  1.0029 -0.6096
  163SOPE   H4S18271   6.120   0.559   9.960  0.8845 -0.7368 -0.7955
  163SOPE   C2518272   6.008   0.413   9.838 -0.3599 -0.3041  0.2267
  163SOPE   H5R18273   6.089   0.338   9.852 -1.1526 -0.9064  1.9265
  163SOPE   H5S18274   5.913   0.358   9.851  0.3720 -1.8554 -0.7720
  163SOPE   C2618275   6.010   0.471   9.699  0.0524  0.0762 -0.4632
  163SOPE   H6R18276   5.922   0.537   9.680 -0.9671 -1.2131 -0.3374
  163SOPE   H6S18277   6.100   0.532   9.677  0.8673 -0.9849 -0.1725
  163SOPE   C2718278   6.002   0.365   9.588  0.0506  0.3209  0.5522
  163SOPE   H7R18279   6.093   0.304   9.601  0.7658  1.2678  0.0856
  163SOPE   H7S18280   5.916   0.298   9.608  1.4823 -1.0102  2.5569
  163SOPE   C2818281   6.003   0.408   9.442  0.0471  0.1720  0.2814
  163SOPE   H8R18282   6.022   0.327   9.368  0.8511  0.9976 -0.4302
  163SOPE   H8S18283   5.896   0.418   9.412 -0.0279 -0.0584  0.4718
  163SOPE   C2918284   6.072   0.539   9.405  0.6084 -0.0419  0.1732
  163SOPE   H9118285   6.083   0.617   9.482 -1.6603 -1.1981  1.7900
  163SOPE  C21018286   6.095   0.570   9.277 -0.5247  0.4262  0.1197
  163SOPE  H10118287   6.147   0.662   9.248  1.1464 -0.5619 -0.1375
  163SOPE  C21118288   6.070   0.481   9.157 -0.3489  0.2242  0.8048
  163SOPE  H11R18289   5.971   0.511   9.115 -0.0658  1.8010  1.1731
  163SOPE  H11S18290   6.049   0.376   9.184  1.3913  0.0071  1.4333
  163SOPE  C21218291   6.182   0.481   9.051  0.6983 -0.1206 -1.1920
  163SOPE  H12R18292   6.279   0.449   9.093 -0.5772 -2.0398  0.4642
  163SOPE  H12S18293   6.195   0.586   9.016  0.9937 -0.1011 -1.0185
  163SOPE  C21318294   6.137   0.403   8.924 -0.4814  0.0689  0.2858
  163SOPE  H13R18295   6.111   0.299   8.952 -0.7298 -0.4734 -1.7813
  163SOPE  H13S18296   6.224   0.400   8.855 -1.2686  0.3633 -0.7387
  163SOPE  C21418297   6.007   0.458   8.854 -0.4005 -0.6557  0.4644
  163SOPE  H14R18298   6.010   0.569   8.855  0.0164 -0.6696  1.1704
  163SOPE  H14S18299   5.921   0.432   8.919 -0.0622 -0.8532  0.8388
  163SOPE  C21518300   5.992   0.404   8.716  0.5994 -0.4394  1.0434
  163SOPE  H15R18301   6.080   0.422   8.650 -1.0146 -0.9061 -1.3613
  163SOPE  H15S18302   5.904   0.457   8.672  1.5427 -0.9920 -1.7098
  163SOPE  C21618303   5.947   0.259   8.713 -0.1522 -0.0115  0.1726
  163SOPE  H16R18304   5.878   0.238   8.797 -2.0658  0.8454 -1.1015
  163SOPE  H16S18305   6.039   0.196   8.721  0.3948  0.4185 -1.9500
  163SOPE  C21718306   5.884   0.216   8.583 -0.0298 -0.2591  1.0924
  163SOPE  H17R18307   5.949   0.251   8.500 -0.2477 -0.7111  0.7240
  163SOPE  H17S18308   5.787   0.269   8.577 -1.4375 -2.6770  0.8306
  163SOPE  C21818309   5.847   0.067   8.578  0.3589  0.3557  0.1271
  163SOPE  H18R18310   5.935   0.007   8.610 -0.6004  0.6536  3.7163
  163SOPE  H18S18311   5.810   0.033   8.478 -2.1669  0.3459  0.9903
  163SOPE  H18T18312   5.770   0.036   8.652  0.6553  1.2594  0.8335
  163SOPE   C3318313   6.457   0.710   9.765  0.4030  0.3574  0.1190
  163SOPE   H3X18314   6.535   0.632   9.779  3.5330  3.5099  1.4523
  163SOPE   H3Y18315   6.500   0.812   9.765 -0.5652  0.7947  1.3448
  163SOPE   C3418316   6.393   0.687   9.633  0.4951 -0.1005 -0.2253
  163SOPE   H4X18317   6.307   0.757   9.625 -1.8013 -2.7520 -0.2969
  163SOPE   H4Y18318   6.345   0.587   9.623  0.9586 -0.2378 -1.1010
  163SOPE   C3518319   6.489   0.708   9.515  0.0224  0.2889 -0.6653
  163SOPE   H5X18320   6.550   0.616   9.500 -0.2199  0.2480 -1.4676
  163SOPE   H5Y18321   6.550   0.795   9.547 -0.9829  0.7521  0.0407
  163SOPE   C3618322   6.419   0.728   9.384 -0.6887 -0.2697 -0.5322
  163SOPE   H6X18323   6.337   0.803   9.390  1.0904  1.7420 -0.0577
  163SOPE   H6Y18324   6.369   0.632   9.360  2.4028 -2.7019  1.8473
  163SOPE   C3718325   6.520   0.762   9.274  0.3499  0.0896 -0.1448
  163SOPE   H7X18326   6.613   0.702   9.281 -0.3596 -1.8267 -4.0814
  163SOPE   H7Y18327   6.538   0.872   9.276 -2.7965  0.6728  0.9362
  163SOPE   C3818328   6.463   0.706   9.143  0.6344 -0.3040  0.6429
  163SOPE   H8X18329   6.367   0.761   9.132  1.8590  1.9965  0.7512
  163SOPE   H8Y18330   6.459   0.596   9.155 -0.3663 -0.1885  1.5270
  163SOPE   C3918331   6.547   0.741   9.013  0.4158  0.1949 -0.4791
  163SOPE   H9X18332   6.497   0.699   8.923  1.8731  2.4888 -2.4992
  163SOPE   H9Y18333   6.647   0.696   9.029 -0.4606 -1.8231 -0.3194
  163SOPE  C31018334   6.548   0.884   8.971  0.6390 -0.1589 -0.3445
  163SOPE  H10X18335   6.603   0.944   9.046  0.6245  1.0113 -1.2339
  163SOPE  H10Y18336   6.440   0.912   8.963  0.2363 -1.3535  0.6924
  163SOPE  C31118337   6.621   0.902   8.843  0.0079 -0.0423  0.1878
  163SOPE  H11X18338   6.586   0.830   8.766  1.5919 -0.1873 -0.4459
  163SOPE  H11Y18339   6.728   0.880   8.861  0.2192  1.6991  1.2774
  163SOPE  C31218340   6.582   1.036   8.777  0.3045 -0.6045  0.2126
  163SOPE  H12X18341   6.624   1.126   8.827 -0.0998 -0.3838  0.1588
  163SOPE  H12Y18342   6.472   1.045   8.768  0.4203  2.5794  0.5407
  163SOPE  C31318343   6.629   1.043   8.635 -0.0696  0.0630  0.5615
  163SOPE  H13X18344   6.738   1.022   8.637 -0.0315  0.1937 -0.0710
  163SOPE  H13Y18345   6.624   1.146   8.593 -1.8706  0.4006  1.4852
  163SOPE  C31418346   6.572   0.943   8.537 -0.0201  0.1058 -0.1015
  163SOPE  H14X18347   6.605   0.842   8.572 -0.1089 -0.9795 -2.8870
  163SOPE  H14Y18348   6.624   0.948   8.438 -0.2228 -0.4861 -0.2474
  163SOPE  C31518349   6.419   0.952   8.513  0.0140  0.0769 -0.2026
  163SOPE  H15X18350   6.408   1.051   8.464 -0.7866 -0.9078 -2.1317
  163SOPE  H15Y18351   6.361   0.951   8.607 -0.4710  1.2710 -0.4740
  163SOPE  C31618352   6.360   0.854   8.406  0.4782 -0.2284 -0.5473
  163SOPE  H16X18353   6.417   0.860   8.311  0.9379  3.4877 -0.1914
  163SOPE  H16Y18354   6.253   0.879   8.396 -0.3881 -3.2982 -0.0205
  163SOPE  C31718355   6.370   0.708   8.444  0.2746  0.1069  0.3875
  163SOPE  H17X18356   6.469   0.657   8.435  0.9077  1.4077 -0.2750
  163SOPE  H17Y18357   6.319   0.648   8.366 -2.3171 -0.8353  2.6589
  163SOPE  C31818358   6.299   0.667   8.569  0.2627 -0.2216 -0.2201
  163SOPE  H18X18359   6.195   0.705   8.578 -0.2154 -1.5552  0.1315
  163SOPE  H18Y18360   6.362   0.691   8.657  0.3189 -0.7256 -0.1192
  163SOPE  H18Z18361   6.277   0.558   8.577 -1.2356  0.1711  2.7477
  164SOPE     N18362   3.345   5.802  10.624 -0.3923 -0.6494 -0.2467
  164SOPE   HN118363   3.444   5.788  10.650  0.4112 -0.1791 -2.7728
  164SOPE   HN218364   3.348   5.874  10.549 -1.7921 -0.6119 -0.2973
  164SOPE   HN318365   3.303   5.837  10.713 -1.7593 -3.6199  0.4058
  164SOPE   C1218366   3.275   5.677  10.588  0.1984  0.6949  0.4809
  164SOPE  H12A18367   3.168   5.695  10.566  0.8326  0.8512 -3.1753
  164SOPE  H12B18368   3.287   5.610  10.675  0.9696 -0.6179 -0.5889
  164SOPE   C1118369   3.351   5.600  10.481 -0.0820 -0.1306 -0.0119
  164SOPE  H11A18370   3.362   5.659  10.388  1.6462 -0.5035 -0.0801
  164SOPE  H11B18371   3.285   5.519  10.444 -0.5530  1.0879 -1.9787
  164SOPE     P18372   3.500   5.414  10.600 -0.3131  0.4042  0.2471
  164SOPE   O1318373   3.402   5.415  10.708 -0.7194 -0.1034 -0.8665
  164SOPE   O1418374   3.640   5.421  10.639 -0.1448  0.3075  0.3762
  164SOPE   O1218375   3.475   5.548  10.522  0.0089 -0.2780  0.0865
  164SOPE   O1118376   3.474   5.307  10.494  0.4375  0.1676  0.4927
  164SOPE    C118377   3.504   5.319  10.358  0.2013  0.0602  0.2744
  164SOPE    HA18378   3.480   5.419  10.316 -3.7124 -0.9358 -0.3024
  164SOPE    HB18379   3.441   5.252  10.295  0.9446  0.6300 -1.1318
  164SOPE    C218380   3.644   5.268  10.330  0.7298 -0.1580 -0.0846
  164SOPE    HS18381   3.653   5.167  10.377  0.7634 -0.8918 -1.6019
  164SOPE   O2118382   3.738   5.365  10.379  0.0377  0.0364  0.0592
  164SOPE   C2118383   3.846   5.314  10.426 -0.8888 -0.1668  0.9925
  164SOPE   O2218384   3.880   5.196  10.426 -0.0668  0.3994 -0.0816
  164SOPE   C2218385   3.938   5.422  10.473 -0.2910  0.0897 -0.4784
  164SOPE   H2R18386   3.969   5.397  10.577 -0.6535 -0.0177 -0.3944
  164SOPE   H2S18387   3.873   5.512  10.468 -0.5695 -0.1662 -2.0989
  164SOPE    C318388   3.658   5.255  10.173  0.6814 -0.3341 -0.6720
  164SOPE    HX18389   3.756   5.223  10.131  0.3838 -3.0754  0.5075
  164SOPE    HY18390   3.633   5.357  10.137 -1.1299 -0.7164 -0.5740
  164SOPE   O3118391   3.551   5.166  10.120 -0.2646  0.0230 -0.3023
  164SOPE   C3118392   3.577   5.035  10.120 -0.2169 -0.3857  0.0694
  164SOPE   O3218393   3.677   4.983  10.161 -0.0910  0.1654  0.0889
  164SOPE   C3218394   3.459   4.965  10.056 -0.4785  0.5159 -0.0758
  164SOPE   H2X18395   3.367   5.024  10.076 -1.6342 -1.0379 -0.6089
  164SOPE   H2Y18396   3.446   4.873  10.116  1.8030  1.6635  2.4055
  164SOPE   C2318397   4.063   5.454  10.389  0.2847  0.0065  0.7320
  164SOPE   H3R18398   4.145   5.379  10.393 -1.4723 -2.1274 -0.6908
  164SOPE   H3S18399   4.103   5.549  10.430  0.4872  0.5972 -0.7915
  164SOPE   C2418400   4.024   5.478  10.242  0.5688 -0.0132 -0.3342
  164SOPE   H4R18401   3.967   5.395  10.193 -0.3990  1.1348 -1.2093
  164SOPE   H4S18402   3.962   5.570  10.241  1.3070  0.5065 -2.1654
  164SOPE   C2518403   4.141   5.506  10.144  0.2746 -0.2216 -0.2794
  164SOPE   H5R18404   4.202   5.585  10.193 -0.1690 -0.3346  0.4792
  164SOPE   H5S18405   4.202   5.418  10.114 -0.0909 -0.8513  0.7534
  164SOPE   C2618406   4.089   5.574  10.018 -1.1847 -0.1985 -0.3674
  164SOPE   H6R18407   4.018   5.505   9.968  0.0930 -0.4091 -1.9940
  164SOPE   H6S18408   4.035   5.669  10.031 -1.9987 -0.4875 -1.4193
  164SOPE   C2718409   4.213   5.613   9.938 -0.2085  0.5849 -0.5202
  164SOPE   H7R18410   4.180   5.705   9.883 -1.3040 -1.0426 -2.7676
  164SOPE   H7S18411   4.296   5.626  10.010 -0.3344  1.4857 -0.5286
  164SOPE   C2818412   4.273   5.505   9.848  0.1393  0.3599  0.0660
  164SOPE   H8R18413   4.363   5.560   9.812 -1.2199  1.7918 -1.3233
  164SOPE   H8S18414   4.328   5.435   9.914 -0.5093  0.9706  1.2864
  164SOPE   C2918415   4.187   5.451   9.743 -0.1740  0.1447  0.4758
  164SOPE   H9118416   4.095   5.397   9.771 -1.0108  1.4174  0.2889
  164SOPE  C21018417   4.209   5.448   9.606 -0.4494 -0.3773 -0.1375
  164SOPE  H10118418   4.136   5.398   9.541 -0.2393  0.2249 -0.8552
  164SOPE  C21118419   4.319   5.509   9.525  0.5269  0.0845  0.5683
  164SOPE  H11R18420   4.383   5.423   9.496  0.3745  0.4317 -0.8647
  164SOPE  H11S18421   4.387   5.568   9.590  2.2560 -0.2352 -0.8531
  164SOPE  C21218422   4.274   5.591   9.408  0.0480 -0.3973  0.3797
  164SOPE  H12R18423   4.366   5.642   9.371 -1.3097  0.4733 -2.0593
  164SOPE  H12S18424   4.214   5.679   9.440  0.9931  0.9478 -1.3475
  164SOPE  C21318425   4.212   5.516   9.291  0.6053  0.2403 -0.4840
  164SOPE  H13R18426   4.136   5.448   9.334  2.3966 -0.4108  1.8423
  164SOPE  H13S18427   4.282   5.456   9.229  0.8783 -0.5350  0.5493
  164SOPE  C21418428   4.131   5.602   9.187 -0.2515 -0.3688 -0.7439
  164SOPE  H14R18429   4.069   5.682   9.232 -0.8259 -0.7161 -0.9151
  164SOPE  H14S18430   4.067   5.524   9.141  1.3738 -2.6114  0.5783
  164SOPE  C21518431   4.229   5.664   9.080  0.0321 -0.0480 -0.3285
  164SOPE  H15R18432   4.283   5.579   9.033  0.3878  0.4030 -0.7384
  164SOPE  H15S18433   4.297   5.739   9.125  0.5718  0.9306 -2.6581
  164SOPE  C21618434   4.151   5.740   8.968 -0.2725  0.1724 -0.1692
  164SOPE  H16R18435   4.215   5.815   8.918 -1.9742  0.6117 -1.8128
  164SOPE  H16S18436   4.061   5.787   9.015  1.3185  0.4330  2.8362
  164SOPE  C21718437   4.102   5.642   8.856 -0.0055 -0.1753 -0.4513
  164SOPE  H17R18438   4.053   5.550   8.894  1.7790 -1.2163 -0.5598
  164SOPE  H17S18439   4.193   5.605   8.805 -0.7627 -0.0765 -1.9324
  164SOPE  C21818440   4.012   5.721   8.759 -0.3104 -0.0863  0.1301
  164SOPE  H18R18441   3.940   5.791   8.807  1.9193  2.7064 -0.2791
  164SOPE  H18S18442   3.960   5.655   8.687 -0.7005  1.1685 -0.7914
  164SOPE  H18T18443   4.085   5.779   8.698 -0.2004 -1.3399 -0.9841
  164SOPE   C3318444   3.468   4.940   9.902  0.5344  0.2145 -0.0498
  164SOPE   H3X18445   3.502   5.030   9.847  0.3044  0.8460  0.8159
  164SOPE   H3Y18446   3.368   4.914   9.859  1.4540 -0.7081 -1.7613
  164SOPE   C3418447   3.582   4.838   9.867 -0.1790  0.1571 -0.6127
  164SOPE   H4X18448   3.553   4.738   9.904  1.1333  0.3383  1.0278
  164SOPE   H4Y18449   3.668   4.872   9.929 -0.3601 -1.7491  0.7496
  164SOPE   C3518450   3.622   4.834   9.719 -0.1906 -0.4745  0.2773
  164SOPE   H5X18451   3.685   4.746   9.693 -1.3141 -0.6245 -2.2399
  164SOPE   H5Y18452   3.683   4.921   9.688 -0.9278  1.5381  3.9138
  164SOPE   C3618453   3.506   4.829   9.610  1.0730  0.0334  0.8110
  164SOPE   H6X18454   3.439   4.915   9.631  2.6441  1.1578  1.3914
  164SOPE   H6Y18455   3.453   4.732   9.625 -1.9995  1.1957 -1.5070
  164SOPE   C3718456   3.564   4.846   9.465  0.1253 -0.5615  0.1587
  164SOPE   H7X18457   3.623   4.756   9.439 -0.7082 -1.7113  2.0518
  164SOPE   H7Y18458   3.638   4.926   9.447 -0.9339  0.2692 -0.6455
  164SOPE   C3818459   3.457   4.878   9.357 -0.1699 -0.6527 -0.1596
  164SOPE   H8X18460   3.386   4.956   9.392 -0.8922 -1.3234 -0.1067
  164SOPE   H8Y18461   3.397   4.790   9.327 -0.2275  0.2966 -3.2062
  164SOPE   C3918462   3.524   4.926   9.225  0.0610  0.3805 -0.2420
  164SOPE   H9X18463   3.573   4.853   9.158  0.9663  0.1408  0.6409
  164SOPE   H9Y18464   3.597   5.009   9.241 -0.3277  0.7012 -0.1076
  164SOPE  C31018465   3.409   4.972   9.135  0.3306  0.6126 -0.6910
  164SOPE  H10X18466   3.450   5.032   9.051 -1.9074  1.9199 -0.9305
  164SOPE  H10Y18467   3.352   5.045   9.197 -0.9884 -1.6307  0.8964
  164SOPE  C31118468   3.315   4.866   9.074 -0.2186  0.5887  0.7937
  164SOPE  H11X18469   3.240   4.902   9.001 -1.8678 -2.0406  1.0400
  164SOPE  H11Y18470   3.250   4.832   9.158 -3.2024  3.2608 -0.2480
  164SOPE  C31218471   3.389   4.739   9.026 -0.0087 -0.1515  0.0865
  164SOPE  H12X18472   3.314   4.661   9.001  0.1960 -1.2407  2.6243
  164SOPE  H12Y18473   3.460   4.700   9.103  1.7361  0.7364 -0.9941
  164SOPE  C31318474   3.458   4.779   8.900 -1.0990  0.2722 -0.2123
  164SOPE  H13X18475   3.530   4.863   8.907  1.5762 -1.9059  0.1733
  164SOPE  H13Y18476   3.382   4.808   8.824 -1.2661 -0.3619 -0.2937
  164SOPE  C31418477   3.541   4.659   8.843 -0.3482  0.1627 -0.2095
  164SOPE  H14X18478   3.470   4.577   8.819 -3.0935  2.5066 -0.7913
  164SOPE  H14Y18479   3.605   4.626   8.928  1.1560  0.7178 -1.0912
  164SOPE  C31518480   3.616   4.699   8.716  0.4594 -0.5140  0.2368
  164SOPE  H15X18481   3.686   4.617   8.688  1.8958  1.0222 -0.8998
  164SOPE  H15Y18482   3.681   4.786   8.743  1.6689 -1.1051 -0.6323
  164SOPE  C31618483   3.536   4.725   8.589 -0.5383 -0.2898  0.2171
  164SOPE  H16X18484   3.599   4.777   8.514 -1.4252 -0.2300 -0.5045
  164SOPE  H16Y18485   3.461   4.804   8.609  0.1286 -0.1366  2.3604
  164SOPE  C31718486   3.461   4.603   8.530 -0.7400 -0.0129  0.6349
  164SOPE  H17X18487   3.414   4.541   8.609 -2.4005  1.6712  1.0340
  164SOPE  H17Y18488   3.531   4.543   8.469 -1.0906  1.5723 -1.4280
  164SOPE  C31818489   3.340   4.654   8.436 -0.0771 -0.0549 -0.3462
  164SOPE  H18X18490   3.276   4.712   8.506 -1.2883  0.3793 -1.7576
  164SOPE  H18Y18491   3.281   4.566   8.404 -0.0984 -0.6840  1.2929
  164SOPE  H18Z18492   3.366   4.722   8.352 -4.3846  1.5264 -0.6421
  165SOPE     N18493   0.942   6.691  11.086  0.7190  0.1073  0.3903
  165SOPE   HN118494   0.867   6.728  11.148  0.9452  0.6357  0.3573
  165SOPE   HN218495   0.987   6.601  11.110  1.1538 -0.6460 -2.8201
  165SOPE   HN318496   1.023   6.757  11.086 -0.3116  1.5940 -2.9766
  165SOPE   C1218497   0.891   6.676  10.938 -0.1348 -0.1337 -0.3789
  165SOPE  H12A18498   0.806   6.604  10.943  1.1453 -1.6036  2.4020
  165SOPE  H12B18499   0.974   6.632  10.878  0.3748  0.3288 -0.0173
  165SOPE   C1118500   0.867   6.815  10.872 -0.1752  0.6056 -0.5433
  165SOPE  H11A18501   0.782   6.874  10.912  0.7515  0.3700  1.9392
  165SOPE  H11B18502   0.856   6.790  10.764  1.7372  0.8908 -0.8416
  165SOPE     P18503   1.026   7.004  10.785 -0.0902  0.0964  0.1550
  165SOPE   O1318504   1.150   7.068  10.838 -0.0669 -0.4656 -0.7650
  165SOPE   O1418505   0.903   7.089  10.775  0.1261  0.0180  0.0160
  165SOPE   O1218506   0.992   6.889  10.880  0.1335  0.1352  0.3043
  165SOPE   O1118507   1.047   6.938  10.640 -0.1493  0.1467  0.1097
  165SOPE    C118508   1.174   6.907  10.591 -0.2961  0.4807 -0.3383
  165SOPE    HA18509   1.184   6.796  10.600 -3.6693  0.1959  1.2030
  165SOPE    HB18510   1.253   6.971  10.636 -1.1130  1.5968 -0.4706
  165SOPE    C218511   1.184   6.947  10.439  0.5228  0.5555  0.6439
  165SOPE    HS18512   1.148   7.051  10.435 -0.7491  0.0887 -1.3758
  165SOPE   O2118513   1.091   6.854  10.373  0.2851 -0.3496  0.3321
  165SOPE   C2118514   0.999   6.910  10.296  0.6846 -0.1729 -0.1995
  165SOPE   O2218515   0.976   7.030  10.284  0.0375 -0.4658 -0.3958
  165SOPE   C2218516   0.922   6.801  10.231 -0.2037  0.1239  0.3604
  165SOPE   H2R18517   0.901   6.731  10.314 -1.7408 -0.1460 -0.2197
  165SOPE   H2S18518   0.991   6.759  10.155 -0.9045 -3.1000  1.3528
  165SOPE    C318519   1.329   6.918  10.390  0.1755 -0.1288 -0.4915
  165SOPE    HX18520   1.353   6.812  10.414 -2.2180 -0.7046 -0.4684
  165SOPE    HY18521   1.383   6.997  10.447 -2.7175  2.7181 -1.4438
  165SOPE   O3118522   1.346   6.935  10.246  0.0201  0.3798 -0.0474
  165SOPE   C3118523   1.437   7.022  10.214  0.3887 -0.1670  0.4623
  165SOPE   O3218524   1.490   7.107  10.289 -0.1750 -0.3315  0.0515
  165SOPE   C3218525   1.471   6.995  10.063 -0.5658  0.1546 -0.3198
  165SOPE   H2X18526   1.379   7.014  10.005 -0.7358 -1.6092 -0.7017
  165SOPE   H2Y18527   1.503   6.889  10.051  0.1697  0.5902 -2.8745
  165SOPE   C2318528   0.791   6.856  10.163  0.2353 -0.4904 -0.9216
  165SOPE   H3R18529   0.820   6.936  10.091  3.2937 -0.4520  0.1875
  165SOPE   H3S18530   0.715   6.899  10.232  3.2001 -0.1114  2.4149
  165SOPE   C2418531   0.719   6.754  10.075  0.1478 -0.5841 -0.7696
  165SOPE   H4R18532   0.681   6.673  10.141 -1.0633  0.2844 -0.3626
  165SOPE   H4S18533   0.637   6.805  10.021  0.8380 -1.6541 -2.9508
  165SOPE   C2518534   0.813   6.694   9.968 -0.6205 -0.4407 -0.5155
  165SOPE   H5R18535   0.888   6.629  10.018  0.6266  1.1177 -0.2751
  165SOPE   H5S18536   0.756   6.622   9.905  0.3485 -1.0679 -0.6962
  165SOPE   C2618537   0.878   6.792   9.873  0.4951 -0.4688 -0.0603
  165SOPE   H6R18538   0.810   6.871   9.836  1.3441  0.0336 -0.5987
  165SOPE   H6S18539   0.963   6.843   9.924  0.2804 -2.1191  2.0840
  165SOPE   C2718540   0.923   6.728   9.740 -0.3310  0.0712  0.2065
  165SOPE   H7R18541   1.002   6.783   9.684 -1.0271  1.1444  0.2524
  165SOPE   H7S18542   0.973   6.633   9.769  1.1710 -0.5360 -3.6611
  165SOPE   C2818543   0.807   6.701   9.641 -0.3227 -0.1765 -0.0066
  165SOPE   H8R18544   0.840   6.632   9.560  1.2076  1.3460 -0.7391
  165SOPE   H8S18545   0.730   6.642   9.695 -0.2815  0.0216  0.2718
  165SOPE   C2918546   0.739   6.818   9.578 -0.1274  0.1441  0.0062
  165SOPE   H9118547   0.697   6.894   9.646  1.2432  1.9238 -1.0397
  165SOPE  C21018548   0.743   6.850   9.448 -1.2428 -0.4416  0.4541
  165SOPE  H10118549   0.684   6.938   9.417 -0.6463  0.1186  0.8753
  165SOPE  C21118550   0.806   6.789   9.326  1.0174  1.0130  0.4659
  165SOPE  H11R18551   0.878   6.706   9.346  4.0100  3.5768  1.0907
  165SOPE  H11S18552   0.862   6.871   9.276  1.4046 -0.2179 -1.1930
  165SOPE  C21218553   0.687   6.754   9.238  0.6132  0.2243  0.4476
  165SOPE  H12R18554   0.622   6.841   9.218  0.5999  0.4816  1.5401
  165SOPE  H12S18555   0.626   6.673   9.283 -0.2643 -0.6610 -2.1997
  165SOPE  C21318556   0.741   6.700   9.102 -0.3813  0.0180 -0.4614
  165SOPE  H13R18557   0.647   6.666   9.053 -0.4621 -0.5159  0.0532
  165SOPE  H13S18558   0.798   6.605   9.115 -2.9386 -1.5958 -0.3309
  165SOPE  C21418559   0.811   6.804   9.012 -0.1672 -0.6901 -0.3048
  165SOPE  H14R18560   0.912   6.830   9.049  0.4488  0.1380 -2.4023
  165SOPE  H14S18561   0.742   6.890   9.020 -2.6938 -2.5374 -0.9681
  165SOPE  C21518562   0.834   6.771   8.865 -0.1483  0.6202  0.0104
  165SOPE  H15R18563   0.741   6.780   8.804  1.0851 -0.9603 -2.2666
  165SOPE  H15S18564   0.861   6.663   8.860  0.2895  0.6384  1.5445
  165SOPE  C21618565   0.924   6.877   8.803 -0.3181 -0.5366  0.2873
  165SOPE  H16R18566   1.032   6.870   8.830  0.1099  3.8317  0.2976
  165SOPE  H16S18567   0.896   6.982   8.826  1.0896 -0.1563  0.3752
  165SOPE  C21718568   0.918   6.858   8.654  0.5938 -0.1462  0.4199
  165SOPE  H17R18569   0.959   6.949   8.604  2.8228 -0.1051  2.1551
  165SOPE  H17S18570   0.812   6.844   8.625  0.8732  1.2461 -1.5492
  165SOPE  C21818571   1.014   6.747   8.606 -0.4439  0.1421 -0.3056
  165SOPE  H18R18572   1.113   6.754   8.658 -0.3319 -0.9685 -0.3599
  165SOPE  H18S18573   1.023   6.740   8.496  1.4749 -0.2735 -0.1703
  165SOPE  H18T18574   0.978   6.645   8.629  1.0690  0.0504  2.0909
  165SOPE   C3318575   1.593   7.084  10.008 -0.0273 -0.1381 -0.3722
  165SOPE   H3X18576   1.670   7.079  10.088 -0.8141 -0.9438  0.3587
  165SOPE   H3Y18577   1.558   7.189  10.003 -0.7013 -0.2144  1.7706
  165SOPE   C3418578   1.641   7.036   9.869  0.2612  0.2864  0.1518
  165SOPE   H4X18579   1.698   6.941   9.867 -1.5686 -0.9898  3.0499
  165SOPE   H4Y18580   1.701   7.117   9.821 -1.4631  0.4267 -1.9820
  165SOPE   C3518581   1.528   7.003   9.765 -0.2371  0.5054  0.4854
  165SOPE   H5X18582   1.472   7.096   9.741 -2.1465 -1.3330 -2.8703
  165SOPE   H5Y18583   1.459   6.929   9.812 -0.5724  0.4753 -0.0545
  165SOPE   C3618584   1.594   6.961   9.633 -0.0225 -0.3620  0.3901
  165SOPE   H6X18585   1.662   6.877   9.659  0.7475  0.1879  0.1823
  165SOPE   H6Y18586   1.659   7.042   9.593 -0.0320 -1.3813 -1.7980
  165SOPE   C3718587   1.497   6.924   9.522  0.0665  0.1251 -0.1037
  165SOPE   H7X18588   1.454   7.021   9.490  1.1719  0.4407 -0.6666
  165SOPE   H7Y18589   1.411   6.865   9.559 -2.1037  1.0935 -3.1433
  165SOPE   C3818590   1.568   6.866   9.396  0.6566  0.1032  0.4946
  165SOPE   H8X18591   1.597   6.764   9.426  1.2572  0.3069  0.6121
  165SOPE   H8Y18592   1.658   6.929   9.382  1.5671 -0.5667  2.8601
  165SOPE   C3918593   1.466   6.853   9.283  0.1345  0.5829  0.6747
  165SOPE   H9X18594   1.407   6.947   9.271 -0.7030 -0.1169 -1.0300
  165SOPE   H9Y18595   1.394   6.775   9.316  1.4365 -0.4629  1.1195
  165SOPE  C31018596   1.518   6.830   9.138  0.2226 -0.5341  0.2374
  165SOPE  H10X18597   1.532   6.722   9.116 -1.3260 -0.7189  0.0268
  165SOPE  H10Y18598   1.617   6.878   9.124 -0.7714  1.6409  0.1901
  165SOPE  C31118599   1.422   6.878   9.025 -0.2428  0.3284  0.3419
  165SOPE  H11X18600   1.394   6.981   9.055 -0.1924  0.4960 -0.1800
  165SOPE  H11Y18601   1.327   6.821   9.013  0.3090 -0.8602  1.4533
  165SOPE  C31218602   1.505   6.866   8.891 -0.2665 -0.1241  0.0708
  165SOPE  H12X18603   1.519   6.757   8.877 -2.1316 -0.2745 -1.0280
  165SOPE  H12Y18604   1.600   6.923   8.903 -0.5078  0.3828 -0.3519
  165SOPE  C31318605   1.439   6.930   8.773  0.5636  0.4183  0.0467
  165SOPE  H13X18606   1.434   7.041   8.785  1.1025  0.3878  0.6093
  165SOPE  H13Y18607   1.339   6.881   8.773  2.0491 -2.8398  0.7889
  165SOPE  C31418608   1.492   6.890   8.636 -0.0952 -0.1282  1.2150
  165SOPE  H14X18609   1.483   6.780   8.624 -1.7169  0.1236 -0.1430
  165SOPE  H14Y18610   1.593   6.936   8.625 -1.4959  2.7426 -0.8257
  165SOPE  C31518611   1.416   6.930   8.511  0.6655  0.0843  0.0873
  165SOPE  H15X18612   1.390   7.037   8.498 -1.4349 -0.3881  0.0444
  165SOPE  H15Y18613   1.320   6.876   8.522  1.7002 -1.6746  0.8542
  165SOPE  C31618614   1.484   6.877   8.390 -0.0616  0.2383 -0.3499
  165SOPE  H16X18615   1.503   6.769   8.378 -1.6138 -0.0214 -0.6869
  165SOPE  H16Y18616   1.572   6.943   8.375 -1.9688  2.4271 -2.9699
  165SOPE  C31718617   1.409   6.919   8.260 -0.0800  0.4537 -1.5080
  165SOPE  H17X18618   1.409   7.030   8.261  1.6382  0.4735 -0.1285
  165SOPE  H17Y18619   1.303   6.884   8.262  0.2487 -0.5572  0.4438
  165SOPE  C31818620   1.483   6.876   8.130 -0.1407 -0.0025 -0.3146
  165SOPE  H18X18621   1.584   6.920   8.122 -0.0720 -0.1970 -0.5119
  165SOPE  H18Y18622   1.420   6.885   8.039  1.0668 -0.3181 -1.1935
  165SOPE  H18Z18623   1.511   6.769   8.141  0.2808 -0.0914 -2.0584
  166SOPE     N18624   4.161   5.043  10.842  0.4259  0.0539 -0.9502
  166SOPE   HN118625   4.156   4.952  10.892  0.0620  0.8277  0.4823
  166SOPE   HN218626   4.262   5.062  10.823  0.3686  0.3875 -0.9348
  166SOPE   HN318627   4.131   5.108  10.918 -1.6455  1.3448 -2.7617
  166SOPE   C1218628   4.072   5.042  10.731  0.3702 -0.3418  0.6877
  166SOPE  H12A18629   4.068   5.142  10.682 -1.0809  0.1771  1.8083
  166SOPE  H12B18630   3.966   5.023  10.757 -0.0573  0.0502 -0.7118
  166SOPE   C1118631   4.117   4.955  10.615 -0.7417  1.1798  1.0306
  166SOPE  H11A18632   4.209   4.995  10.567 -0.5622 -0.0436  0.2883
  166SOPE  H11B18633   4.044   4.952  10.531  0.3059 -1.7505  0.1010
  166SOPE     P18634   4.254   4.731  10.615 -0.0976 -0.0870 -0.1585
  166SOPE   O1318635   4.230   4.588  10.642  0.3694 -0.3119  0.3802
  166SOPE   O1418636   4.370   4.783  10.687 -0.1198 -0.1281 -0.0870
  166SOPE   O1218637   4.127   4.818  10.653 -0.4933  0.4260 -1.1646
  166SOPE   O1118638   4.264   4.760  10.461  0.9838  0.0189  0.6714
  166SOPE    C118639   4.380   4.725  10.388 -0.4118 -0.1832  0.9373
  166SOPE    HA18640   4.363   4.647  10.312 -1.9329  0.0048  1.0508
  166SOPE    HB18641   4.459   4.696  10.461 -0.9121  0.7617  1.8904
  166SOPE    C218642   4.433   4.850  10.302  0.3396 -0.1713 -0.4153
  166SOPE    HS18643   4.452   4.925  10.380  0.3194 -0.1547 -0.4265
  166SOPE   O2118644   4.328   4.890  10.209 -0.7435 -0.0578  0.0197
  166SOPE   C2118645   4.337   5.020  10.187  0.8894 -0.8706 -0.2005
  166SOPE   O2218646   4.426   5.091  10.233 -0.0752 -0.7784  0.1897
  166SOPE   C2218647   4.220   5.078  10.101 -0.6249  0.6814 -0.0080
  166SOPE   H2R18648   4.168   5.151  10.168 -0.4727  1.2481 -0.5044
  166SOPE   H2S18649   4.143   5.003  10.073  1.1220 -2.2540  2.4391
  166SOPE    C318650   4.572   4.828  10.238  0.2736  0.3447  0.9357
  166SOPE    HX18651   4.619   4.748  10.300 -1.0144 -2.1843 -1.1973
  166SOPE    HY18652   4.623   4.927  10.232 -0.9797  0.9593  0.0447
  166SOPE   O3118653   4.550   4.780  10.107 -0.9239 -0.7219  0.0027
  166SOPE   C3118654   4.654   4.781  10.025 -0.1285 -0.1872 -0.0375
  166SOPE   O3218655   4.770   4.797  10.057  0.1592  0.2031 -0.5223
  166SOPE   C3218656   4.599   4.772   9.884  0.4207  0.3424 -0.4201
  166SOPE   H2X18657   4.555   4.870   9.857 -2.4145 -0.2315  1.6802
  166SOPE   H2Y18658   4.515   4.699   9.885  1.3937 -0.8178  1.3585
  166SOPE   C2318659   4.253   5.139   9.963  0.4441  0.5224  0.7587
  166SOPE   H3R18660   4.340   5.208   9.970  0.2605  0.8004  0.3044
  166SOPE   H3S18661   4.158   5.187   9.930 -0.0885  0.6772  2.4187
  166SOPE   C2418662   4.296   5.028   9.870  0.1861  0.3129  1.2322
  166SOPE   H4R18663   4.360   4.950   9.915  0.6054  0.9483  1.7492
  166SOPE   H4S18664   4.202   4.978   9.838  0.3769  0.1741  0.8850
  166SOPE   C2518665   4.354   5.093   9.741  0.3607 -0.3406  0.2472
  166SOPE   H5R18666   4.299   5.187   9.722  1.7663  0.6301  0.8092
  166SOPE   H5S18667   4.461   5.120   9.757  0.1883  0.4728  0.0748
  166SOPE   C2618668   4.350   5.010   9.605 -0.5091  0.8527  0.1784
  166SOPE   H6R18669   4.376   4.905   9.627  0.8277  1.2929  0.8113
  166SOPE   H6S18670   4.247   5.017   9.566 -1.0236 -1.4827  0.9643
  166SOPE   C2718671   4.457   5.055   9.492 -0.0558 -0.6149 -0.7013
  166SOPE   H7R18672   4.429   5.161   9.473  2.0335  0.2676  0.8125
  166SOPE   H7S18673   4.562   5.056   9.528  0.0655 -0.9736 -1.0464
  166SOPE   C2818674   4.445   4.973   9.364  0.1640 -0.0840 -0.6855
  166SOPE   H8R18675   4.483   4.872   9.389  1.3620  0.3666 -0.6090
  166SOPE   H8S18676   4.336   4.956   9.351  0.5131 -2.0757 -1.2715
  166SOPE   C2918677   4.524   5.033   9.249  0.0751 -0.4521  0.1590
  166SOPE   H9118678   4.632   5.009   9.244  0.3902  0.0026  3.0459
  166SOPE  C21018679   4.467   5.108   9.143  0.0486  0.6405 -0.0712
  166SOPE  H10118680   4.535   5.141   9.063 -0.3466  1.1157 -0.2228
  166SOPE  C21118681   4.316   5.138   9.116 -0.3353  0.2879  0.1958
  166SOPE  H11R18682   4.291   5.246   9.127 -1.1531 -0.0029  1.3540
  166SOPE  H11S18683   4.252   5.100   9.197  0.5094 -0.2079  0.6432
  166SOPE  C21218684   4.261   5.101   8.975 -0.5389  0.3547 -0.5127
  166SOPE  H12R18685   4.152   5.118   8.971 -0.7206 -0.9255 -1.5329
  166SOPE  H12S18686   4.264   4.990   8.971  0.4438  0.3047  0.9413
  166SOPE  C21318687   4.325   5.152   8.848  0.9811  0.4838 -0.3411
  166SOPE  H13R18688   4.275   5.108   8.760 -0.3053  3.4982 -1.2612
  166SOPE  H13S18689   4.431   5.122   8.842  1.3668  1.2794  1.5942
  166SOPE  C21418690   4.308   5.302   8.841  0.5312 -0.2506  0.5095
  166SOPE  H14R18691   4.357   5.348   8.930  1.9245 -2.8554  1.1899
  166SOPE  H14S18692   4.203   5.338   8.845  0.8740  0.6565  2.2250
  166SOPE  C21518693   4.388   5.358   8.726 -0.1022 -1.0630 -0.4916
  166SOPE  H15R18694   4.481   5.301   8.705  0.0219 -0.6647 -1.0475
  166SOPE  H15S18695   4.421   5.461   8.750  0.6950 -1.3263 -0.4331
  166SOPE  C21618696   4.309   5.354   8.596  0.0778  0.1567  0.6076
  166SOPE  H16R18697   4.212   5.406   8.604  0.7971  1.3732  1.8429
  166SOPE  H16S18698   4.302   5.249   8.558  0.4084 -0.7288  2.8226
  166SOPE  C21718699   4.383   5.440   8.475  0.7586  0.5832 -0.4669
  166SOPE  H17R18700   4.460   5.504   8.523  0.9746 -1.4214  2.0454
  166SOPE  H17S18701   4.314   5.510   8.423 -1.2395 -0.3883  0.7674
  166SOPE  C21818702   4.448   5.352   8.370 -0.6469 -0.3463 -0.0631
  166SOPE  H18R18703   4.366   5.282   8.343 -2.9639  1.8297  0.9763
  166SOPE  H18S18704   4.527   5.292   8.422 -1.0190 -0.2585  0.6156
  166SOPE  H18T18705   4.476   5.413   8.282 -1.1207 -0.8087 -0.5385
  166SOPE   C3318706   4.697   4.729   9.777 -0.8213 -0.0069 -0.6000
  166SOPE   H3X18707   4.744   4.630   9.798  1.5921  1.3622  0.9694
  166SOPE   H3Y18708   4.787   4.795   9.781 -0.6520 -0.2128 -0.9125
  166SOPE   C3418709   4.641   4.745   9.639  0.2117  0.5975  0.2286
  166SOPE   H4X18710   4.537   4.780   9.655  0.4534  1.4138  0.0775
  166SOPE   H4Y18711   4.631   4.642   9.599 -3.3645  0.3815  1.2985
  166SOPE   C3518712   4.724   4.833   9.551 -0.0782  0.3352 -0.1498
  166SOPE   H5X18713   4.744   4.934   9.592  0.6067 -0.0424  0.4480
  166SOPE   H5Y18714   4.672   4.856   9.455  1.5728  0.2475 -1.1098
  166SOPE   C3618715   4.859   4.774   9.514 -0.7186  0.1522  0.0517
  166SOPE   H6X18716   4.855   4.667   9.484  2.6342  0.1304 -0.7037
  166SOPE   H6Y18717   4.932   4.799   9.594 -1.0328  1.2371  0.0136
  166SOPE   C3718718   4.922   4.841   9.397 -0.5136 -0.9095  0.5815
  166SOPE   H7X18719   4.905   4.950   9.405  1.0619 -0.6379  0.4602
  166SOPE   H7Y18720   4.864   4.813   9.306  0.9447 -2.1634 -0.0110
  166SOPE   C3818721   5.065   4.811   9.372  0.0185  0.7236 -0.2534
  166SOPE   H8X18722   5.078   4.702   9.356 -0.5496  0.9590 -2.5848
  166SOPE   H8Y18723   5.121   4.842   9.463 -0.1821 -0.7430  0.3998
  166SOPE   C3918724   5.123   4.873   9.243  0.6886  0.3752  0.4525
  166SOPE   H9X18725   5.233   4.863   9.244  0.6573 -0.1287  0.0032
  166SOPE   H9Y18726   5.102   4.981   9.230  0.2122  0.4022  1.3601
  166SOPE  C31018727   5.056   4.806   9.119 -0.0870  0.3732  0.1892
  166SOPE  H10X18728   4.949   4.826   9.101 -0.5818 -3.1003 -1.6670
  166SOPE  H10Y18729   5.072   4.698   9.138 -0.6598  0.1017 -0.8091
  166SOPE  C31118730   5.135   4.841   8.995 -0.2429  0.0168  0.0055
  166SOPE  H11X18731   5.245   4.845   9.010  0.0202  2.2507 -1.9814
  166SOPE  H11Y18732   5.111   4.942   8.957 -1.6205 -0.9842 -1.9727
  166SOPE  C31218733   5.121   4.744   8.879 -0.2239  0.3988 -0.1910
  166SOPE  H12X18734   5.019   4.700   8.887 -0.5351  1.4042  2.9913
  166SOPE  H12Y18735   5.207   4.675   8.893 -0.1665  0.6171  0.5788
  166SOPE  C31318736   5.128   4.815   8.742  0.0372  0.6118 -0.3746
  166SOPE  H13X18737   5.124   4.727   8.674  1.8108  0.1513  0.0821
  166SOPE  H13Y18738   5.230   4.858   8.740  0.7308 -0.2790  4.5883
  166SOPE  C31418739   5.012   4.912   8.705 -0.3257  0.0626  0.9549
  166SOPE  H14X18740   5.000   4.993   8.780  1.7510  2.4715 -1.1499
  166SOPE  H14Y18741   4.918   4.853   8.706  0.5916 -1.4563  1.0153
  166SOPE  C31518742   5.014   4.981   8.564  0.1132 -0.8582  0.3436
  166SOPE  H15X18743   5.112   5.028   8.540 -0.4838 -1.2130 -3.4261
  166SOPE  H15Y18744   4.935   5.058   8.556  1.3873  0.4044 -0.6688
  166SOPE  C31618745   4.990   4.874   8.451  0.0328 -0.1013 -0.2963
  166SOPE  H16X18746   5.079   4.809   8.435 -0.8094 -1.1147 -1.0205
  166SOPE  H16Y18747   4.994   4.931   8.356  0.7779  1.4653  0.6223
  166SOPE  C31718748   4.850   4.810   8.461 -0.2755 -0.0391 -0.3307
  166SOPE  H17X18749   4.768   4.883   8.474 -1.0784 -0.9346 -0.1914
  166SOPE  H17Y18750   4.845   4.740   8.547  0.6047  0.5247  0.1913
  166SOPE  C31818751   4.820   4.727   8.334  0.6982 -0.9419  0.1588
  166SOPE  H18X18752   4.912   4.682   8.291  1.4436  2.1435 -1.8118
  166SOPE  H18Y18753   4.771   4.794   8.260  1.3384  0.1321  0.6902
  166SOPE  H18Z18754   4.758   4.636   8.349 -0.8791 -0.1993 -1.4104
  167SOPE     N18755   6.154   1.902   6.026  0.1408 -0.2399 -0.2772
  167SOPE   HN118756   6.189   1.846   6.106  1.5912  1.0126  0.0152
  167SOPE   HN218757   6.107   1.838   5.959 -3.3821  0.2664  1.4459
  167SOPE   HN318758   6.236   1.951   5.986 -0.2268  1.7331  1.1924
  167SOPE   C1218759   6.067   2.015   6.075 -0.2960 -0.3022  0.6924
  167SOPE  H12A18760   5.962   1.979   6.082 -1.0229  1.5777  0.2084
  167SOPE  H12B18761   6.069   2.093   5.995 -0.7267 -0.7850  0.2002
  167SOPE   C1118762   6.121   2.074   6.204 -0.9157  0.0439 -0.8335
  167SOPE  H11A18763   6.101   2.008   6.291 -1.6064  0.9018 -0.3175
  167SOPE  H11B18764   6.070   2.168   6.234 -0.0978  0.3185 -0.2636
  167SOPE     P18765   6.327   2.233   6.187 -0.1330 -0.0280 -0.1050
  167SOPE   O1318766   6.291   2.298   6.061  0.6173 -0.0478 -0.4075
  167SOPE   O1418767   6.475   2.228   6.229 -0.5473  0.0969  0.1802
  167SOPE   O1218768   6.257   2.095   6.195 -0.1740 -0.6209 -0.0274
  167SOPE   O1118769   6.246   2.311   6.301 -0.5056 -0.1205 -0.9345
  167SOPE    C118770   6.234   2.267   6.432 -0.0255 -0.7931 -1.0104
  167SOPE    HA18771   6.283   2.169   6.451 -0.2615 -0.5606  0.9817
  167SOPE    HB18772   6.129   2.269   6.466  0.1947  4.0485  0.0136
  167SOPE    C218773   6.317   2.361   6.523  0.1179 -0.0292  0.4377
  167SOPE    HS18774   6.273   2.462   6.508 -0.7721 -0.7754 -2.6120
  167SOPE   O2118775   6.456   2.348   6.495 -0.2693 -0.2622  0.3480
  167SOPE   C2118776   6.516   2.457   6.460 -0.6889 -0.7535  0.0134
  167SOPE   O2218777   6.465   2.566   6.447 -0.3463 -0.0577 -0.6288
  167SOPE   C2218778   6.669   2.434   6.427 -0.2119 -0.1206 -0.0313
  167SOPE   H2R18779   6.699   2.488   6.335 -1.8208 -0.1920 -0.6346
  167SOPE   H2S18780   6.683   2.325   6.407  1.9217  0.2123 -0.5977
  167SOPE    C318781   6.290   2.310   6.670 -0.3084  0.2057 -0.1373
  167SOPE    HX18782   6.339   2.210   6.680  2.1447  1.2192 -1.0452
  167SOPE    HY18783   6.181   2.306   6.687 -0.2709 -0.5877 -0.0416
  167SOPE   O3118784   6.345   2.399   6.773 -0.3743 -0.3315  0.2177
  167SOPE   C3118785   6.266   2.503   6.804 -0.1886 -0.2663 -0.2706
  167SOPE   O3218786   6.161   2.536   6.747 -0.0949  0.0301 -0.6421
  167SOPE   C3218787   6.331   2.588   6.917  0.1191  0.3308 -0.0688
  167SOPE   H2X18788   6.257   2.661   6.958 -1.0258 -1.1745  0.6422
  167SOPE   H2Y18789   6.425   2.637   6.883  0.4933  0.2630  0.8458
  167SOPE   C2318790   6.761   2.486   6.538  0.3896  0.0373  0.0643
  167SOPE   H3R18791   6.735   2.591   6.562  0.9882  0.2561 -0.2100
  167SOPE   H3S18792   6.867   2.498   6.505  0.6067  2.4668  1.4004
  167SOPE   C2418793   6.762   2.385   6.658  0.9284 -0.2290  0.4969
  167SOPE   H4R18794   6.666   2.385   6.714  0.9812  2.4950  0.7445
  167SOPE   H4S18795   6.786   2.282   6.627  3.7461  0.4731  0.0748
  167SOPE   C2518796   6.875   2.436   6.752 -0.4286  0.5208 -0.0255
  167SOPE   H5R18797   6.974   2.424   6.702 -0.6231 -0.3006 -0.2272
  167SOPE   H5S18798   6.852   2.544   6.764  0.1198  1.3165 -4.3720
  167SOPE   C2618799   6.874   2.386   6.895  0.7145 -0.0974 -0.7084
  167SOPE   H6R18800   6.769   2.368   6.924  0.6777  2.2116  0.8707
  167SOPE   H6S18801   6.927   2.288   6.896  1.9806  0.5543  0.9840
  167SOPE   C2718802   6.920   2.479   7.003 -0.3807  0.5904 -0.6761
  167SOPE   H7R18803   7.030   2.468   6.988 -0.8510 -2.1189 -3.1496
  167SOPE   H7S18804   6.878   2.578   6.977 -0.1230  0.5117 -1.4295
  167SOPE   C2818805   6.874   2.444   7.155  0.2424 -0.3132  0.9115
  167SOPE   H8R18806   6.904   2.527   7.222 -1.2533  0.2769  0.8836
  167SOPE   H8S18807   6.763   2.438   7.149 -0.0490  3.1875  1.1733
  167SOPE   C2918808   6.919   2.321   7.226 -0.2172  0.3313 -0.1404
  167SOPE   H9118809   6.847   2.239   7.241 -1.7128  1.7032  0.5438
  167SOPE  C21018810   7.045   2.314   7.276 -0.2385  0.0962 -0.6424
  167SOPE  H10118811   7.071   2.222   7.331 -1.5049 -1.4080 -2.4198
  167SOPE  C21118812   7.152   2.426   7.282 -0.6387  0.6818 -0.6973
  167SOPE  H11R18813   7.106   2.526   7.295  0.9762  1.6877 -2.3262
  167SOPE  H11S18814   7.214   2.422   7.190  0.6203  1.2340  0.0997
  167SOPE  C21218815   7.255   2.387   7.399  0.1694 -0.5201  0.6584
  167SOPE  H12R18816   7.343   2.448   7.369 -0.3082 -0.3212 -0.3716
  167SOPE  H12S18817   7.301   2.286   7.398 -0.6123 -0.8814 -0.0526
  167SOPE  C21318818   7.197   2.425   7.534 -0.9735 -0.1195 -0.0629
  167SOPE  H13R18819   7.106   2.365   7.554  0.9202 -2.6576  1.6338
  167SOPE  H13S18820   7.173   2.532   7.516  1.3515  0.1416 -2.1975
  167SOPE  C21418821   7.306   2.413   7.641 -0.1263  0.5410 -0.7062
  167SOPE  H14R18822   7.392   2.473   7.604  0.0034  0.3733 -0.6791
  167SOPE  H14S18823   7.343   2.309   7.644  0.8362  0.8485 -1.4404
  167SOPE  C21518824   7.259   2.446   7.778 -0.5356  0.4777  0.3623
  167SOPE  H15R18825   7.164   2.391   7.797  0.3486 -1.9525 -1.7466
  167SOPE  H15S18826   7.247   2.556   7.781  0.7250  0.7310 -1.9069
  167SOPE  C21618827   7.364   2.418   7.885 -0.1691  0.5861 -0.2792
  167SOPE  H16R18828   7.444   2.496   7.884  0.7521 -0.3036  0.9871
  167SOPE  H16S18829   7.400   2.313   7.876 -0.1261  0.4816  0.9191
  167SOPE  C21718830   7.304   2.412   8.029  0.0974  0.1881  0.8489
  167SOPE  H17R18831   7.380   2.354   8.086  0.2439  0.0230  0.4925
  167SOPE  H17S18832   7.212   2.349   8.024 -0.6205  1.2851 -0.2215
  167SOPE  C21818833   7.278   2.549   8.092  0.3751 -0.3585 -0.6301
  167SOPE  H18R18834   7.216   2.529   8.182  1.6551 -0.2062  0.3090
  167SOPE  H18S18835   7.223   2.614   8.021  0.5349 -0.8480 -1.2122
  167SOPE  H18T18836   7.375   2.593   8.125  0.0485  0.1862 -0.3921
  167SOPE   C3318837   6.370   2.516   7.048 -0.5198  0.3623 -0.3595
  167SOPE   H3X18838   6.414   2.419   7.019 -1.3873  0.4703 -2.2352
  167SOPE   H3Y18839   6.290   2.488   7.119  0.0072 -0.9453 -0.2697
  167SOPE   C3418840   6.474   2.591   7.131 -0.2824  0.0297 -0.7188
  167SOPE   H4X18841   6.428   2.689   7.158 -0.8623 -0.3576 -0.2915
  167SOPE   H4Y18842   6.566   2.602   7.069 -0.4879 -2.6007 -1.6042
  167SOPE   C3518843   6.501   2.529   7.272  0.2945 -0.1113 -0.4467
  167SOPE   H5X18844   6.539   2.425   7.259  0.6506 -0.2729  1.4907
  167SOPE   H5Y18845   6.406   2.534   7.331  0.7942 -0.0897  0.3743
  167SOPE   C3618846   6.602   2.607   7.357  0.1163  0.3598  0.0885
  167SOPE   H6X18847   6.571   2.713   7.353 -3.2146 -0.5048 -2.3912
  167SOPE   H6Y18848   6.700   2.602   7.305  0.0788 -0.2426  0.0628
  167SOPE   C3718849   6.620   2.570   7.507  0.2467  0.0611 -0.4377
  167SOPE   H7X18850   6.536   2.593   7.576  1.0054  0.7091  0.2959
  167SOPE   H7Y18851   6.705   2.635   7.537 -0.1914  0.2798  0.3374
  167SOPE   C3818852   6.654   2.421   7.535 -0.3670  0.4302 -0.6750
  167SOPE   H8X18853   6.731   2.393   7.460 -1.4018  1.6995 -2.2955
  167SOPE   H8Y18854   6.559   2.369   7.513 -0.4726  0.0098  0.6998
  167SOPE   C3918855   6.717   2.415   7.669 -0.8279 -0.1942  0.0256
  167SOPE   H9X18856   6.631   2.430   7.738  0.0376  1.0253  0.8975
  167SOPE   H9Y18857   6.794   2.495   7.672 -1.4064  0.3620  0.4133
  167SOPE  C31018858   6.784   2.290   7.726 -0.5962 -0.3936 -0.0626
  167SOPE  H10X18859   6.861   2.259   7.653 -1.1098  0.0509 -0.8084
  167SOPE  H10Y18860   6.708   2.208   7.727  0.0806 -1.0232  1.0508
  167SOPE  C31118861   6.845   2.300   7.866 -0.2066 -0.1290  0.6437
  167SOPE  H11X18862   6.941   2.355   7.858 -1.7802  2.5272 -1.9317
  167SOPE  H11Y18863   6.874   2.202   7.910  0.7149  0.1349  0.6446
  167SOPE  C31218864   6.766   2.389   7.966  0.2465 -0.0398  0.2080
  167SOPE  H12X18865   6.667   2.338   7.968  0.9362 -1.4154  1.8685
  167SOPE  H12Y18866   6.768   2.484   7.908 -0.4201 -0.0525  0.1584
  167SOPE  C31318867   6.838   2.410   8.102  0.0816  0.7223  0.1580
  167SOPE  H13X18868   6.944   2.439   8.084 -0.4982  1.6481 -2.1193
  167SOPE  H13Y18869   6.834   2.316   8.161  2.2136  0.9360  0.7243
  167SOPE  C31418870   6.789   2.531   8.183 -0.2747 -0.1917 -0.3262
  167SOPE  H14X18871   6.802   2.622   8.121 -2.0984  0.4938  0.2416
  167SOPE  H14Y18872   6.863   2.527   8.266  1.0941 -0.3278 -1.5108
  167SOPE  C31518873   6.653   2.505   8.246 -0.0542 -0.2327 -0.0023
  167SOPE  H15X18874   6.659   2.410   8.304 -0.3935  0.3802  1.0660
  167SOPE  H15Y18875   6.582   2.494   8.161 -1.8801  0.6958  1.3264
  167SOPE  C31618876   6.600   2.624   8.340  0.1391  0.3908 -0.0198
  167SOPE  H16X18877   6.494   2.606   8.367  0.2539 -0.3919 -0.0886
  167SOPE  H16Y18878   6.612   2.711   8.271  2.2575  1.4873  1.6032
  167SOPE  C31718879   6.684   2.647   8.465  0.0306  0.1052 -0.6705
  167SOPE  H17X18880   6.722   2.751   8.456 -0.1479  0.2567  0.2428
  167SOPE  H17Y18881   6.772   2.583   8.484 -0.8470 -1.1076 -0.5812
  167SOPE  C31818882   6.597   2.631   8.592  0.5709  0.2580 -0.7671
  167SOPE  H18X18883   6.657   2.626   8.685  0.4533  0.6207 -0.6682
  167SOPE  H18Y18884   6.550   2.531   8.587  0.8472  0.0601  0.3074
  167SOPE  H18Z18885   6.519   2.711   8.600  2.7001  2.5709 -1.8086
  168SOPE     N18886   3.953   5.230   6.227 -0.1687  0.6428  0.0424
  168SOPE   HN118887   3.936   5.140   6.180 -0.6235  1.4482 -1.3904
  168SOPE   HN218888   3.855   5.264   6.231 -0.5998 -0.3749 -1.3259
  168SOPE   HN318889   4.009   5.283   6.157 -0.4680 -2.5114 -2.8267
  168SOPE   C1218890   4.015   5.214   6.365 -0.8970  0.4858  0.2603
  168SOPE  H12A18891   3.952   5.148   6.428 -1.0127 -1.5962 -1.8585
  168SOPE  H12B18892   4.016   5.313   6.415 -0.3307 -0.2153  1.6952
  168SOPE   C1118893   4.156   5.148   6.366  0.0245 -0.3418 -0.0871
  168SOPE  H11A18894   4.147   5.057   6.303  1.2807  0.0340 -0.8518
  168SOPE  H11B18895   4.163   5.114   6.472 -3.7721 -0.9898  0.0903
  168SOPE     P18896   4.402   5.225   6.314 -0.0015  0.2384 -0.0533
  168SOPE   O1318897   4.473   5.353   6.309  0.7108 -0.0559 -0.2368
  168SOPE   O1418898   4.420   5.133   6.195  0.4883 -0.1559 -0.3276
  168SOPE   O1218899   4.248   5.248   6.323 -0.0907  0.6042  0.0607
  168SOPE   O1118900   4.421   5.151   6.447  0.2411  0.0489 -0.1396
  168SOPE    C118901   4.469   5.183   6.574  0.3370  0.1746 -0.5266
  168SOPE    HA18902   4.485   5.292   6.589  1.4166 -0.0436  0.0576
  168SOPE    HB18903   4.569   5.138   6.593  1.0268  2.2767  1.3085
  168SOPE    C218904   4.366   5.130   6.680 -0.4449 -0.4048  0.0548
  168SOPE    HS18905   4.271   5.170   6.639 -2.0752 -0.1077  3.7644
  168SOPE   O2118906   4.400   5.170   6.815  0.7430 -0.5462 -0.2483
  168SOPE   C2118907   4.293   5.205   6.881  0.0607  0.5807 -0.8970
  168SOPE   O2218908   4.178   5.226   6.848  0.2006 -0.3645  0.0854
  168SOPE   C2218909   4.333   5.208   7.033 -0.2740 -0.3193  0.6751
  168SOPE   H2R18910   4.374   5.307   7.060 -1.1163  0.4998 -0.9326
  168SOPE   H2S18911   4.422   5.142   7.037  0.0934 -0.1151 -2.1777
  168SOPE    C318912   4.350   4.978   6.664 -0.5140 -0.0292  0.6732
  168SOPE    HX18913   4.452   4.936   6.681  0.1465  1.1641 -0.1589
  168SOPE    HY18914   4.308   4.958   6.563 -3.0994 -0.6027  1.7834
  168SOPE   O3118915   4.269   4.934   6.765  0.1597 -0.1877  0.2102
  168SOPE   C3118916   4.247   4.800   6.750 -0.5806 -0.1835 -0.8531
  168SOPE   O3218917   4.305   4.726   6.674 -0.4364  0.8210  0.5412
  168SOPE   C3218918   4.127   4.762   6.846 -0.4002 -0.8278 -0.0786
  168SOPE   H2X18919   4.033   4.739   6.791 -1.1366  0.4516  0.6063
  168SOPE   H2Y18920   4.110   4.848   6.915  0.1698 -0.2020 -0.7071
  168SOPE   C2318921   4.228   5.158   7.131  1.0397  0.2154  0.4050
  168SOPE   H3R18922   4.201   5.059   7.089 -0.9497  0.9494 -0.1832
  168SOPE   H3S18923   4.144   5.230   7.117 -0.6402 -1.3420  1.8367
  168SOPE   C2418924   4.282   5.126   7.270 -0.4433 -0.4916  0.2056
  168SOPE   H4R18925   4.216   5.064   7.335 -0.0240  0.6718  1.7996
  168SOPE   H4S18926   4.381   5.079   7.254 -0.5408 -0.0813 -1.8154
  168SOPE   C2518927   4.324   5.249   7.351 -0.3264  0.0066 -0.0080
  168SOPE   H5R18928   4.424   5.296   7.348 -0.4238  0.1735 -1.0232
  168SOPE   H5S18929   4.263   5.330   7.304  1.5373  1.5069  0.0433
  168SOPE   C2618930   4.282   5.242   7.497 -0.5682  0.2278 -0.4604
  168SOPE   H6R18931   4.297   5.346   7.534  0.2267  0.5150 -1.5396
  168SOPE   H6S18932   4.175   5.224   7.517 -0.3681 -0.5947 -0.0729
  168SOPE   C2718933   4.361   5.147   7.588  0.1710 -0.2580  0.1598
  168SOPE   H7R18934   4.383   5.054   7.531 -0.0887 -0.1658 -0.0975
  168SOPE   H7S18935   4.463   5.190   7.599  0.8311 -1.1417 -2.0341
  168SOPE   C2818936   4.301   5.098   7.720  0.4550 -0.8700  0.0260
  168SOPE   H8R18937   4.383   5.042   7.770  2.1347 -0.2588 -1.8749
  168SOPE   H8S18938   4.286   5.177   7.796 -1.6224 -3.1882  2.2007
  168SOPE   C2918939   4.174   5.012   7.705 -0.2161 -0.6683  0.7860
  168SOPE   H9118940   4.195   4.924   7.642 -3.0306 -0.1773 -1.0208
  168SOPE  C21018941   4.048   5.040   7.736  0.3534 -0.2481  0.8009
  168SOPE  H10118942   3.977   4.957   7.732  3.8186 -3.5225  1.5257
  168SOPE  C21118943   4.001   5.167   7.799 -0.7428  0.1185 -0.1019
  168SOPE  H11R18944   3.903   5.201   7.758  0.8209  1.9383 -2.6462
  168SOPE  H11S18945   4.058   5.259   7.772 -1.1524  0.2382 -0.5890
  168SOPE  C21218946   3.987   5.150   7.952 -0.4380  0.3123 -0.0754
  168SOPE  H12R18947   4.084   5.111   7.990  0.5163  0.7660 -1.9197
  168SOPE  H12S18948   3.911   5.072   7.973 -0.7321  0.1906 -1.5008
  168SOPE  C21318949   3.947   5.278   8.026  0.6593  0.2818  0.7460
  168SOPE  H13R18950   3.841   5.302   8.006 -0.3060 -2.5174  1.9497
  168SOPE  H13S18951   4.011   5.364   7.998  4.4897 -2.1413  1.2262
  168SOPE  C21418952   3.950   5.263   8.180 -0.4341 -0.6886 -0.4495
  168SOPE  H14R18953   4.061   5.254   8.189 -0.1513  0.0747 -2.5347
  168SOPE  H14S18954   3.900   5.171   8.218 -0.4544 -0.9183 -1.0132
  168SOPE  C21518955   3.886   5.384   8.241 -0.4529  0.1023 -0.6629
  168SOPE  H15R18956   3.783   5.408   8.208 -1.0596  2.5260  2.4436
  168SOPE  H15S18957   3.939   5.471   8.196  0.0316  0.5475  0.7137
  168SOPE  C21618958   3.884   5.387   8.396  0.5241 -0.3063  0.3045
  168SOPE  H16R18959   3.988   5.389   8.435  0.7067 -1.4847 -0.0674
  168SOPE  H16S18960   3.835   5.295   8.435 -1.0239  0.8610  1.2250
  168SOPE  C21718961   3.804   5.501   8.458 -0.0780 -0.1267  0.0692
  168SOPE  H17R18962   3.802   5.474   8.566  1.6878 -1.1721 -0.1286
  168SOPE  H17S18963   3.704   5.509   8.410  0.8696  2.1214 -1.6966
  168SOPE  C21818964   3.876   5.640   8.430 -0.2409  0.8373  0.2486
  168SOPE  H18R18965   3.984   5.628   8.453  0.0390  0.2088 -1.2373
  168SOPE  H18S18966   3.832   5.713   8.501 -0.3661  0.8834  0.1223
  168SOPE  H18T18967   3.860   5.671   8.325 -1.3582  0.1035  0.1843
  168SOPE   C3318968   4.157   4.619   6.909 -0.6049  0.9292 -0.6519
  168SOPE   H3X18969   4.184   4.535   6.841  1.7207  0.9835  0.1216
  168SOPE   H3Y18970   4.063   4.585   6.957 -0.5194  1.5795  0.0026
  168SOPE   C3418971   4.263   4.629   7.019  0.2456 -0.2579  0.3111
  168SOPE   H4X18972   4.365   4.656   6.984 -0.8796  1.2159 -2.0772
  168SOPE   H4Y18973   4.280   4.526   7.059  1.1503  0.1051  0.8876
  168SOPE   C3518974   4.228   4.725   7.133 -0.6415 -0.3025  0.3412
  168SOPE   H5X18975   4.131   4.691   7.176 -0.1404 -0.5225  1.3153
  168SOPE   H5Y18976   4.213   4.824   7.083  1.4563  0.2714  0.7834
  168SOPE   C3618977   4.337   4.730   7.239  0.4418 -0.6820 -0.0650
  168SOPE   H6X18978   4.309   4.814   7.307 -1.1972 -0.4867 -0.9274
  168SOPE   H6Y18979   4.440   4.733   7.197  0.1509 -0.9539 -0.8272
  168SOPE   C3718980   4.331   4.615   7.333  0.0663 -0.3664  0.1976
  168SOPE   H7X18981   4.330   4.527   7.264 -1.2624 -0.8445  0.7988
  168SOPE   H7Y18982   4.233   4.629   7.383  0.0038  0.0083 -0.0254
  168SOPE   C3818983   4.446   4.615   7.441  0.2102  0.8587 -0.2955
  168SOPE   H8X18984   4.530   4.681   7.409 -0.1017  2.1652  1.4219
  168SOPE   H8Y18985   4.481   4.510   7.435 -0.9580  0.3777  0.8431
  168SOPE   C3918986   4.404   4.631   7.589  1.1398  0.0813 -0.4527
  168SOPE   H9X18987   4.320   4.561   7.607  0.5099  1.4915  2.8315
  168SOPE   H9Y18988   4.363   4.733   7.604  1.9534  0.2205  0.9754
  168SOPE  C31018989   4.516   4.617   7.689  0.1549 -0.6706 -0.7767
  168SOPE  H10X18990   4.595   4.687   7.655  1.4506 -2.0730 -0.7667
  168SOPE  H10Y18991   4.543   4.510   7.678 -0.0397 -0.8310  0.1696
  168SOPE  C31118992   4.475   4.643   7.836  0.2447  0.2103  0.1221
  168SOPE  H11X18993   4.561   4.608   7.897 -1.4709 -3.6572  0.6168
  168SOPE  H11Y18994   4.399   4.565   7.860  1.1289 -1.0132 -0.9108
  168SOPE  C31218995   4.437   4.786   7.887 -0.6818  0.7024  0.1513
  168SOPE  H12X18996   4.373   4.834   7.810  1.3978  3.5627  0.0775
  168SOPE  H12Y18997   4.528   4.848   7.890 -1.1535  1.3629  1.1118
  168SOPE  C31318998   4.378   4.802   8.032  0.1331  0.1056  0.1205
  168SOPE  H13X18999   4.428   4.893   8.072 -0.1677  0.5062 -0.3950
  168SOPE  H13Y19000   4.419   4.713   8.084  0.5659  0.4143  0.3150
  168SOPE  C31419001   4.222   4.807   8.032  0.0082 -0.2433  0.0960
  168SOPE  H14X19002   4.201   4.905   7.983 -0.7341 -0.7277 -0.5843
  168SOPE  H14Y19003   4.195   4.819   8.139  2.1668  3.8902  0.3895
  168SOPE  C31519004   4.159   4.684   7.966  0.2804 -0.8742 -0.4669
  168SOPE  H15X19005   4.211   4.594   8.006  1.3565 -0.1491 -0.1671
  168SOPE  H15Y19006   4.175   4.686   7.856 -0.6896 -0.0303 -0.6116
  168SOPE  C31619007   4.007   4.677   7.990 -0.7237  0.5164  0.3954
  168SOPE  H16X19008   3.969   4.584   7.944 -2.3988  0.8954  0.9405
  168SOPE  H16Y19009   3.949   4.759   7.942 -1.6475 -0.3041  0.0785
  168SOPE  C31719010   3.964   4.662   8.138 -0.3813  0.2844  0.7419
  168SOPE  H17X19011   3.990   4.762   8.178  2.8198 -0.0084 -0.3083
  168SOPE  H17Y19012   4.024   4.588   8.196 -0.6741 -0.4043  0.1822
  168SOPE  C31819013   3.818   4.613   8.153 -0.1309  0.2178 -0.6217
  168SOPE  H18X19014   3.751   4.679   8.094 -1.9735 -0.3454  0.7510
  168SOPE  H18Y19015   3.806   4.620   8.263  3.9548  1.3455 -0.0707
  168SOPE  H18Z19016   3.815   4.508   8.117  1.9635 -0.6344  1.4592
  169SOPE     N19017   1.207   2.950   6.141  0.1321 -0.6470  0.3775
  169SOPE   HN119018   1.114   2.993   6.122  0.0057 -1.3332 -0.6614
  169SOPE   HN219019   1.235   2.987   6.234  2.8718  0.1978 -0.7012
  169SOPE   HN319020   1.272   2.974   6.063  1.4395 -0.8400  1.3805
  169SOPE   C1219021   1.214   2.803   6.144  0.2619 -0.4280  0.5805
  169SOPE  H12A19022   1.218   2.774   6.037 -0.4233  1.0778  0.1194
  169SOPE  H12B19023   1.114   2.773   6.182 -1.1333  2.8421 -0.1286
  169SOPE   C1119024   1.330   2.761   6.234 -0.0902  0.7248  0.3035
  169SOPE  H11A19025   1.420   2.796   6.181  0.1203  1.2506  0.9847
  169SOPE  H11B19026   1.344   2.651   6.240 -0.1196  0.6400 -0.9623
  169SOPE     P19027   1.401   2.765   6.483 -0.0901 -0.2538  0.0677
  169SOPE   O1319028   1.396   2.841   6.607  0.1151 -0.2765  0.0102
  169SOPE   O1419029   1.539   2.732   6.435 -0.5233 -0.2496  0.0687
  169SOPE   O1219030   1.318   2.830   6.359 -0.1112  0.4340  0.0831
  169SOPE   O1119031   1.327   2.628   6.504  0.0782 -0.2093 -0.4713
  169SOPE    C119032   1.181   2.642   6.513  0.2912  0.0669 -0.5662
  169SOPE    HA19033   1.135   2.543   6.490  0.4658 -0.0828 -0.2715
  169SOPE    HB19034   1.141   2.722   6.446  1.0668  0.6490 -0.3444
  169SOPE    C219035   1.136   2.676   6.659  1.1027  0.0915 -0.0062
  169SOPE    HS19036   1.156   2.785   6.671  1.4268 -0.1398  1.9287
  169SOPE   O2119037   1.213   2.604   6.754  0.1669  0.0595 -0.3377
  169SOPE   C2119038   1.245   2.672   6.858  0.2994  0.2206 -0.1137
  169SOPE   O2219039   1.190   2.773   6.897  0.1445 -0.1123 -0.1677
  169SOPE   C2219040   1.377   2.621   6.915 -0.3056 -0.1439  0.9358
  169SOPE   H2R19041   1.456   2.628   6.837  1.5626  2.0434  2.9210
  169SOPE   H2S19042   1.365   2.514   6.943 -1.5348 -0.9273 -2.0920
  169SOPE    C319043   0.985   2.646   6.665  0.4349  0.7262  0.0426
  169SOPE    HX19044   0.961   2.542   6.635 -0.7475  1.0514 -0.1972
  169SOPE    HY19045   0.928   2.701   6.586  0.1088 -0.1312 -0.3328
  169SOPE   O3119046   0.938   2.677   6.795 -0.0334 -0.2593 -0.3403
  169SOPE   C3119047   0.920   2.810   6.826 -0.3252 -0.0476  0.1467
  169SOPE   O3219048   0.937   2.891   6.738  0.2142 -0.5213  0.0047
  169SOPE   C3219049   0.873   2.845   6.969 -0.3526 -0.5057  0.5915
  169SOPE   H2X19050   0.762   2.856   6.960 -0.2067  0.1798 -0.5093
  169SOPE   H2Y19051   0.909   2.946   6.998 -1.7326  0.7586 -1.8193
  169SOPE   C2319052   1.421   2.707   7.039 -0.3913 -0.4287 -0.3168
  169SOPE   H3R19053   1.401   2.811   7.008  3.5745  0.1562 -1.5152
  169SOPE   H3S19054   1.532   2.712   7.041 -0.0937 -4.0624  0.1385
  169SOPE   C2419055   1.386   2.662   7.178  0.1776  0.3384  0.5901
  169SOPE   H4R19056   1.277   2.642   7.189  0.6259 -2.7298  0.3098
  169SOPE   H4S19057   1.425   2.558   7.189 -1.1534 -0.3741 -1.0119
  169SOPE   C2519058   1.436   2.740   7.296 -0.6067 -0.0733 -0.0012
  169SOPE   H5R19059   1.546   2.732   7.302 -0.7322 -1.5609  0.7977
  169SOPE   H5S19060   1.410   2.848   7.298  1.5948  0.5166  1.8973
  169SOPE   C2619061   1.383   2.679   7.430  0.5672  0.6346 -1.3053
  169SOPE   H6R19062   1.279   2.640   7.425  1.0314 -1.0125  0.6856
  169SOPE   H6S19063   1.432   2.584   7.459 -3.6474 -1.4682 -0.2668
  169SOPE   C2719064   1.397   2.771   7.550  0.3331 -0.8179 -0.2182
  169SOPE   H7R19065   1.359   2.873   7.529 -0.2196 -0.8837  0.4234
  169SOPE   H7S19066   1.325   2.736   7.628 -1.6299  0.3045 -1.4464
  169SOPE   C2819067   1.538   2.788   7.610  0.6973  0.6073 -0.5594
  169SOPE   H8R19068   1.583   2.687   7.625  0.5229  0.5313 -0.5370
  169SOPE   H8S19069   1.603   2.838   7.536  1.9016  0.7885  0.5810
  169SOPE   C2919070   1.538   2.881   7.729  0.4973 -0.4856  0.4447
  169SOPE   H9119071   1.497   2.983   7.715  0.8525 -0.0575  2.1916
  169SOPE  C21019072   1.583   2.855   7.854 -0.1331 -0.0305  0.6137
  169SOPE  H10119073   1.594   2.938   7.925 -3.8215  0.7996  0.4047
  169SOPE  C21119074   1.656   2.728   7.899  0.1643  0.0179 -0.0784
  169SOPE  H11R19075   1.760   2.748   7.933 -0.6277  0.2430  2.4211
  169SOPE  H11S19076   1.659   2.652   7.818 -1.5592 -1.8616  1.4974
  169SOPE  C21219077   1.584   2.647   8.012  0.1840 -0.2393 -0.4814
  169SOPE  H12R19078   1.577   2.715   8.100  1.3498  1.0106 -1.3057
  169SOPE  H12S19079   1.656   2.576   8.057  0.1443  0.9759  1.6907
  169SOPE  C21319080   1.448   2.582   7.997 -0.7506  0.7332  0.4413
  169SOPE  H13R19081   1.386   2.670   7.970  0.0989  1.5532  1.0668
  169SOPE  H13S19082   1.407   2.545   8.093 -1.2333 -0.0563 -0.0610
  169SOPE  C21419083   1.445   2.471   7.888  0.4652 -0.3825 -0.0257
  169SOPE  H14R19084   1.515   2.391   7.919  2.5854  1.5942  0.5281
  169SOPE  H14S19085   1.476   2.522   7.795 -0.8244 -0.1736 -0.3665
  169SOPE  C21519086   1.303   2.425   7.876  1.0824  0.8043 -0.1434
  169SOPE  H15R19087   1.235   2.505   7.838 -2.2250 -1.9082 -0.4353
  169SOPE  H15S19088   1.269   2.392   7.976  1.4460  2.3082  0.5045
  169SOPE  C21619089   1.270   2.302   7.785 -0.1515 -0.2799 -0.2221
  169SOPE  H16R19090   1.166   2.267   7.801 -0.5209  1.6312  2.0963
  169SOPE  H16S19091   1.334   2.217   7.816  0.1280  0.1088  0.2804
  169SOPE  C21719092   1.280   2.329   7.633 -0.3917 -0.2827  0.4720
  169SOPE  H17R19093   1.375   2.385   7.618 -1.0918  1.0029  0.6247
  169SOPE  H17S19094   1.193   2.388   7.597 -0.5369 -0.2704  0.8418
  169SOPE  C21819095   1.279   2.210   7.545  0.2629  0.0105 -0.9336
  169SOPE  H18R19096   1.263   2.231   7.437  1.2533  0.2284 -1.0417
  169SOPE  H18S19097   1.189   2.150   7.571 -1.1895  3.1615  2.1490
  169SOPE  H18T19098   1.358   2.138   7.575 -0.5762 -0.5471  0.0050
  169SOPE   C3319099   0.906   2.748   7.094  0.5177  0.1454  0.0668
  169SOPE   H3X19100   0.964   2.665   7.049  1.0038  0.7240 -0.3824
  169SOPE   H3Y19101   0.811   2.699   7.126 -0.0262  1.0480 -0.1167
  169SOPE   C3419102   0.996   2.807   7.202 -0.4430 -0.3133  0.1765
  169SOPE   H4X19103   1.100   2.815   7.165 -0.8667  0.9756 -0.7958
  169SOPE   H4Y19104   0.994   2.723   7.274 -0.9182  0.0524  0.5918
  169SOPE   C3519105   0.945   2.931   7.270  0.3055 -0.0680 -0.6687
  169SOPE   H5X19106   0.834   2.933   7.263  0.3006 -0.4096 -0.7212
  169SOPE   H5Y19107   0.977   3.027   7.224  1.1415 -0.5128 -1.0408
  169SOPE   C3619108   0.992   2.941   7.415 -0.3721  1.1202 -0.1070
  169SOPE   H6X19109   1.103   2.932   7.415 -0.2274 -3.2696 -5.8233
  169SOPE   H6Y19110   0.967   2.850   7.472 -1.5985  1.8714  0.5992
  169SOPE   C3719111   0.944   3.058   7.495  0.8970 -0.2396 -0.4818
  169SOPE   H7X19112   0.834   3.071   7.491  0.3292 -1.4703  4.4969
  169SOPE   H7Y19113   0.984   3.149   7.445 -1.5701  0.7547 -0.7782
  169SOPE   C3819114   0.985   3.046   7.647 -0.1425 -0.3019 -0.7351
  169SOPE   H8X19115   0.942   2.952   7.689 -0.3722 -0.1067 -0.5313
  169SOPE   H8Y19116   1.096   3.041   7.644 -0.0809 -0.0463  0.5093
  169SOPE   C3919117   0.953   3.162   7.736 -0.3795 -0.2733  0.3217
  169SOPE   H9X19118   0.844   3.176   7.751 -0.1014  0.7625  1.5009
  169SOPE   H9Y19119   0.985   3.252   7.678 -0.3092 -0.5081 -0.0098
  169SOPE  C31019120   1.014   3.159   7.878  0.2212 -0.3681 -0.2573
  169SOPE  H10X19121   1.122   3.137   7.863  0.3349 -0.9284  1.1829
  169SOPE  H10Y19122   0.986   3.071   7.940 -0.3440  1.7953  2.8172
  169SOPE  C31119123   0.993   3.287   7.956 -0.9154  0.6119 -1.1279
  169SOPE  H11X19124   0.886   3.289   7.985 -0.5560  3.5371  0.3430
  169SOPE  H11Y19125   1.011   3.383   7.903  0.9776  0.5491 -0.6881
  169SOPE  C31219126   1.066   3.288   8.087  0.7480  0.8256 -0.5728
  169SOPE  H12X19127   1.169   3.254   8.063  1.0164  2.2134 -1.4898
  169SOPE  H12Y19128   1.019   3.219   8.160  0.4137  1.9674  0.3145
  169SOPE  C31319129   1.076   3.427   8.148 -0.0381  0.3659 -0.1504
  169SOPE  H13X19130   0.973   3.455   8.180 -0.4955 -1.1758 -0.2186
  169SOPE  H13Y19131   1.110   3.490   8.063 -1.9221 -0.1828 -1.3781
  169SOPE  C31419132   1.163   3.435   8.272 -0.2276  0.4039 -0.7230
  169SOPE  H14X19133   1.270   3.432   8.245  0.0930 -1.9626  0.5647
  169SOPE  H14Y19134   1.137   3.341   8.325  0.7387 -0.8138 -2.3109
  169SOPE  C31519135   1.151   3.550   8.380  0.4700  0.1308  0.5012
  169SOPE  H15X19136   1.224   3.525   8.461  1.6882  0.3264 -0.5035
  169SOPE  H15Y19137   1.048   3.539   8.421  0.0366 -3.2754 -1.1067
  169SOPE  C31619138   1.181   3.684   8.309  0.5995  0.2456 -0.4397
  169SOPE  H16X19139   1.104   3.684   8.229 -0.6121  1.2502  0.6732
  169SOPE  H16Y19140   1.287   3.689   8.277  0.7653  2.2957  0.2439
  169SOPE  C31719141   1.171   3.803   8.405 -0.8620 -0.8583 -0.4171
  169SOPE  H17X19142   1.065   3.825   8.428 -0.6573  1.1340 -1.0979
  169SOPE  H17Y19143   1.221   3.888   8.353 -1.5463 -0.2718 -0.1279
  169SOPE  C31819144   1.246   3.791   8.539 -0.1339 -0.2419  0.1374
  169SOPE  H18X19145   1.206   3.702   8.593  1.9496 -2.5688 -1.9093
  169SOPE  H18Y19146   1.243   3.878   8.608  0.8259  0.2229 -0.3855
  169SOPE  H18Z19147   1.353   3.781   8.512 -0.2134  0.7690 -0.6111
  170SOPE     N19148   2.217   1.234   6.691 -0.5587  0.5036  0.1932
  170SOPE   HN119149   2.236   1.241   6.793 -1.8593  2.3489  0.3500
  170SOPE   HN219150   2.212   1.136   6.656  0.2687  0.1276  1.0765
  170SOPE   HN319151   2.303   1.276   6.649  0.6924 -2.0221  0.0407
  170SOPE   C1219152   2.090   1.303   6.672  0.4070  0.2096 -0.0669
  170SOPE  H12A19153   2.013   1.239   6.720 -0.8469  1.7411  0.0460
  170SOPE  H12B19154   2.069   1.283   6.565  1.0776  0.1845 -0.1980
  170SOPE   C1119155   2.086   1.450   6.712  0.0089  0.0008 -0.3297
  170SOPE  H11A19156   2.119   1.463   6.818 -1.5649 -0.5963  0.2695
  170SOPE  H11B19157   1.982   1.490   6.721 -0.3936 -0.8783 -0.9880
  170SOPE     P19158   2.098   1.586   6.489  0.3940  0.1179 -0.5218
  170SOPE   O1319159   2.116   1.491   6.381  0.1188 -0.4302 -0.1206
  170SOPE   O1419160   2.155   1.721   6.464  0.3186  0.7620 -0.6533
  170SOPE   O1219161   2.165   1.527   6.617 -0.0066  0.3528 -0.1009
  170SOPE   O1119162   1.943   1.609   6.508  0.6816  0.8782 -0.1931
  170SOPE    C119163   1.889   1.733   6.551  0.0015 -0.6793 -0.4466
  170SOPE    HA19164   1.816   1.766   6.474  1.1058 -1.8912 -2.0971
  170SOPE    HB19165   1.966   1.812   6.562 -0.5833 -0.3358  1.3947
  170SOPE    C219166   1.802   1.714   6.680 -0.2686  0.4945  0.1365
  170SOPE    HS19167   1.878   1.687   6.756  0.1076  1.1465 -0.0001
  170SOPE   O2119168   1.721   1.595   6.652 -0.1716 -0.4163  0.2501
  170SOPE   C2119169   1.725   1.503   6.752 -0.2309 -0.1896  0.1422
  170SOPE   O2219170   1.779   1.511   6.860 -0.0666 -0.1822  0.3095
  170SOPE   C2219171   1.661   1.374   6.702  0.1483  0.1212 -0.0094
  170SOPE   H2R19172   1.743   1.301   6.683 -0.3601 -0.3588 -0.3715
  170SOPE   H2S19173   1.616   1.394   6.602 -0.4766  1.0440  0.4422
  170SOPE    C319174   1.722   1.841   6.725  0.0005  0.6883  0.8389
  170SOPE    HX19175   1.657   1.873   6.641 -1.9442 -2.5131  0.9663
  170SOPE    HY19176   1.794   1.924   6.742 -0.3620  1.0669  0.5483
  170SOPE   O3119177   1.640   1.817   6.842  0.6497  0.3467 -0.2618
  170SOPE   C3119178   1.721   1.813   6.954 -0.6079 -0.6843 -0.1394
  170SOPE   O3219179   1.840   1.831   6.952 -0.0235  0.6304  0.1814
  170SOPE   C3219180   1.626   1.784   7.076  0.4742 -0.2462 -0.2190
  170SOPE   H2X19181   1.587   1.681   7.060 -0.6586  0.3760 -1.6144
  170SOPE   H2Y19182   1.538   1.851   7.079  1.0016  0.4387  0.9119
  170SOPE   C2319183   1.555   1.323   6.797  0.7603 -0.0367 -0.8565
  170SOPE   H3R19184   1.482   1.260   6.742 -0.2768 -0.9606  1.4272
  170SOPE   H3S19185   1.504   1.396   6.863 -0.9385 -0.4705 -1.6255
  170SOPE   C2419186   1.597   1.209   6.895 -0.1531  0.2000  0.9181
  170SOPE   H4R19187   1.507   1.158   6.935 -0.4596 -0.8945 -1.0248
  170SOPE   H4S19188   1.660   1.132   6.847  0.9179  0.7707  1.3885
  170SOPE   C2519189   1.679   1.262   7.020 -0.0705 -0.2220  0.1359
  170SOPE   H5R19190   1.758   1.330   6.983 -1.2013 -0.6598 -3.5532
  170SOPE   H5S19191   1.611   1.323   7.083  1.5732 -1.1186  2.9340
  170SOPE   C2619192   1.734   1.147   7.099 -0.1804 -0.1559  0.4253
  170SOPE   H6R19193   1.758   1.067   7.025 -1.4315  1.1395 -1.4531
  170SOPE   H6S19194   1.825   1.171   7.159 -0.5323 -1.9124  1.7476
  170SOPE   C2719195   1.622   1.085   7.186 -1.2553 -0.5024 -0.2162
  170SOPE   H7R19196   1.585   1.151   7.268 -2.5000 -1.1907 -0.1892
  170SOPE   H7S19197   1.536   1.053   7.123 -0.0522 -5.3219  0.1929
  170SOPE   C2819198   1.683   0.959   7.255 -0.4113 -0.0812 -0.7518
  170SOPE   H8R19199   1.724   0.884   7.184  0.0107 -2.6049  1.9800
  170SOPE   H8S19200   1.770   0.986   7.318 -0.4097 -0.1032 -0.7442
  170SOPE   C2919201   1.585   0.890   7.342 -0.4004 -0.5849  1.1752
  170SOPE   H9119202   1.543   0.798   7.301  0.2958 -0.4579  0.1473
  170SOPE  C21019203   1.553   0.936   7.467 -0.0575  0.1959 -0.2308
  170SOPE  H10119204   1.472   0.886   7.523  0.4553  0.0999  0.4373
  170SOPE  C21119205   1.595   1.065   7.534 -0.3333 -0.1354  0.0126
  170SOPE  H11R19206   1.525   1.103   7.612  1.0802  1.1294  0.7064
  170SOPE  H11S19207   1.609   1.145   7.458 -0.7996  0.0303  0.0969
  170SOPE  C21219208   1.730   1.067   7.611 -0.2267 -0.1500  0.9688
  170SOPE  H12R19209   1.813   1.041   7.542 -0.7561 -0.7253  0.5520
  170SOPE  H12S19210   1.728   0.982   7.683 -0.6466  0.6794  1.9698
  170SOPE  C21319211   1.760   1.201   7.673  0.6050  0.6907  0.2746
  170SOPE  H13R19212   1.681   1.233   7.744 -1.3335 -2.2764 -0.3081
  170SOPE  H13S19213   1.763   1.276   7.591 -3.5876  2.8576  1.7678
  170SOPE  C21419214   1.890   1.200   7.751 -0.1989  0.1177  0.4386
  170SOPE  H14R19215   1.967   1.193   7.672  0.2508 -0.2799  0.9113
  170SOPE  H14S19216   1.897   1.116   7.822  0.3911 -0.7514 -0.6233
  170SOPE  C21519217   1.922   1.332   7.829 -0.3117 -0.1188  0.5198
  170SOPE  H15R19218   1.889   1.425   7.778  0.5857 -0.1072 -0.0565
  170SOPE  H15S19219   2.032   1.340   7.838  0.0893 -1.0877 -2.4475
  170SOPE  C21619220   1.860   1.340   7.969 -0.8194 -0.3162  0.2747
  170SOPE  H16R19221   1.893   1.257   8.035  1.7476 -2.5616 -3.4080
  170SOPE  H16S19222   1.750   1.341   7.954 -0.8653 -0.2035  0.6167
  170SOPE  C21719223   1.919   1.468   8.035  0.1592  0.0226  0.3570
  170SOPE  H17R19224   1.929   1.550   7.960  0.6621 -0.9556 -0.6791
  170SOPE  H17S19225   2.023   1.448   8.067 -0.1820 -2.0525  0.2664
  170SOPE  C21819226   1.836   1.509   8.150  0.0414 -0.1793  0.3286
  170SOPE  H18R19227   1.856   1.457   8.246 -1.6569  1.6996  1.7665
  170SOPE  H18S19228   1.732   1.484   8.121  0.4998 -0.1528 -1.4705
  170SOPE  H18T19229   1.854   1.618   8.165 -2.4500  0.8166 -2.8594
  170SOPE   C3319230   1.700   1.785   7.213 -0.1433  0.5358 -0.0450
  170SOPE   H3X19231   1.754   1.882   7.216 -0.0778  0.5180 -0.6018
  170SOPE   H3Y19232   1.776   1.704   7.205 -1.5490 -0.9305  0.8020
  170SOPE   C3419233   1.628   1.764   7.349 -0.1089  0.4872  0.7629
  170SOPE   H4X19234   1.555   1.682   7.335 -1.5609  2.0789 -1.9738
  170SOPE   H4Y19235   1.575   1.860   7.370  0.1931  0.2789  2.5516
  170SOPE   C3519236   1.711   1.714   7.463 -0.2880  0.5290  0.5238
  170SOPE   H5X19237   1.780   1.792   7.503 -0.4710  0.7400  0.4292
  170SOPE   H5Y19238   1.766   1.623   7.433 -0.8831  0.3947 -0.1832
  170SOPE   C3619239   1.618   1.685   7.585  0.6827  0.5541  0.3963
  170SOPE   H6X19240   1.535   1.625   7.542  1.6615 -0.8958  0.4596
  170SOPE   H6Y19241   1.586   1.780   7.631  1.8992  1.5620 -0.7318
  170SOPE   C3719242   1.695   1.616   7.700  0.7589  0.4780 -0.2102
  170SOPE   H7X19243   1.790   1.672   7.714  1.4457 -0.6994 -0.0397
  170SOPE   H7Y19244   1.714   1.513   7.663  1.7430 -0.1670  1.9515
  170SOPE   C3819245   1.606   1.613   7.829  0.3239 -0.0972  0.0946
  170SOPE   H8X19246   1.571   1.716   7.855  0.1617  0.1349 -0.9718
  170SOPE   H8Y19247   1.679   1.584   7.908  2.0322  3.4850  0.0255
  170SOPE   C3919248   1.489   1.511   7.821  0.4647  0.7146 -0.0877
  170SOPE   H9X19249   1.524   1.407   7.837  0.9148  0.7082 -1.0721
  170SOPE   H9Y19250   1.458   1.509   7.714  1.1841 -1.2935 -0.2920
  170SOPE  C31019251   1.373   1.540   7.917 -0.9120 -0.4566 -0.2897
  170SOPE  H10X19252   1.296   1.460   7.907  1.0353 -2.3236 -1.0070
  170SOPE  H10Y19253   1.321   1.633   7.885 -1.0122  0.1537  1.5187
  170SOPE  C31119254   1.418   1.560   8.065  0.3403 -0.7369  0.2973
  170SOPE  H11X19255   1.453   1.665   8.072 -0.3456 -0.4893  0.1588
  170SOPE  H11Y19256   1.494   1.487   8.101  0.0670 -2.2283 -1.8970
  170SOPE  C31219257   1.296   1.564   8.165 -0.1428 -0.0987 -0.3149
  170SOPE  H12X19258   1.254   1.462   8.180  0.4374 -0.1726  0.8872
  170SOPE  H12Y19259   1.215   1.628   8.124 -2.1970 -1.4457  1.4331
  170SOPE  C31319260   1.334   1.606   8.308  0.3286  0.0799 -0.4896
  170SOPE  H13X19261   1.355   1.715   8.295 -2.1417  0.6307 -0.3085
  170SOPE  H13Y19262   1.422   1.551   8.346 -1.0663 -1.1251  1.1212
  170SOPE  C31419263   1.222   1.597   8.417 -0.1564  0.3572 -0.4575
  170SOPE  H14X19264   1.201   1.489   8.435  0.3517  0.0593 -1.5857
  170SOPE  H14Y19265   1.126   1.636   8.378 -1.1768 -0.9600  0.6196
  170SOPE  C31519266   1.245   1.667   8.559 -0.1358 -0.5380  0.1038
  170SOPE  H15X19267   1.248   1.776   8.538  1.8901 -0.7368 -0.8566
  170SOPE  H15Y19268   1.344   1.650   8.607  1.0917  2.7493 -0.9882
  170SOPE  C31619269   1.132   1.640   8.657 -0.0993  0.1435  0.1103
  170SOPE  H16X19270   1.148   1.692   8.754  0.4386  0.3911 -0.1090
  170SOPE  H16Y19271   1.119   1.536   8.693 -1.7046 -0.8763 -3.0846
  170SOPE  C31719272   0.993   1.703   8.613  0.3732  0.3288  0.6488
  170SOPE  H17X19273   0.968   1.659   8.515  1.4577  2.4346 -0.6434
  170SOPE  H17Y19274   1.022   1.808   8.590 -1.8013  1.2923  1.9707
  170SOPE  C31819275   0.880   1.690   8.721 -0.1722 -0.1901 -0.0093
  170SOPE  H18X19276   0.855   1.583   8.737  1.3123 -0.3571  1.5053
  170SOPE  H18Y19277   0.790   1.752   8.704  0.4467  0.7584  0.0618
  170SOPE  H18Z19278   0.917   1.728   8.818  1.1101 -2.2138  0.3644
  171SOPE     N19279   2.175   4.094   6.306 -0.6880 -0.0054  1.0837
  171SOPE   HN119280   2.122   4.057   6.388 -0.2992 -1.0258  0.8891
  171SOPE   HN219281   2.231   4.015   6.268 -3.2730 -1.5352  0.2089
  171SOPE   HN319282   2.239   4.174   6.328 -0.2091  0.4801 -1.6567
  171SOPE   C1219283   2.079   4.159   6.203 -0.0646 -0.0607  0.3663
  171SOPE  H12A19284   1.983   4.104   6.197  0.6927 -1.4198  0.2260
  171SOPE  H12B19285   2.138   4.166   6.109  0.3813 -0.1985  0.6316
  171SOPE   C1119286   2.055   4.299   6.249  0.6467 -0.7605  0.0809
  171SOPE  H11A19287   1.998   4.292   6.343  2.3997  0.8372  1.3440
  171SOPE  H11B19288   1.985   4.346   6.176 -1.8689 -2.0977  1.5127
  171SOPE     P19289   2.168   4.531   6.265 -0.3466 -0.1057 -0.1752
  171SOPE   O1319290   2.076   4.572   6.156 -0.7155 -1.1542 -0.2429
  171SOPE   O1419291   2.308   4.586   6.263  0.1129  0.1162  0.0836
  171SOPE   O1219292   2.179   4.373   6.266 -0.0807  0.4020 -0.0021
  171SOPE   O1119293   2.106   4.549   6.412 -0.6621  0.0465  0.0528
  171SOPE    C119294   2.171   4.477   6.520  0.1134  0.2042  0.4357
  171SOPE    HA19295   2.281   4.468   6.511  0.5620  4.3838 -0.2353
  171SOPE    HB19296   2.126   4.376   6.522 -0.5878  0.5165  1.2470
  171SOPE    C219297   2.149   4.547   6.659  0.1581 -0.1066 -0.2952
  171SOPE    HS19298   2.040   4.561   6.673  0.1233 -1.2424  0.7559
  171SOPE   O2119299   2.222   4.675   6.669  0.9657  0.0172 -0.2603
  171SOPE   C2119300   2.183   4.754   6.760  0.4653 -0.0013 -0.2889
  171SOPE   O2219301   2.078   4.746   6.823 -0.5651 -0.7130  0.2349
  171SOPE   C2219302   2.287   4.866   6.775  0.4231  0.2124 -0.9624
  171SOPE   H2R19303   2.280   4.948   6.701 -1.4558  0.4301 -0.5909
  171SOPE   H2S19304   2.383   4.813   6.756  1.5349  1.8696 -0.2263
  171SOPE    C319305   2.204   4.461   6.773  0.1473  0.4847  0.0415
  171SOPE    HX19306   2.161   4.494   6.870  0.1121 -1.6915  0.8273
  171SOPE    HY19307   2.311   4.484   6.795  0.1560  0.5574 -0.0767
  171SOPE   O3119308   2.198   4.320   6.749 -0.2857 -0.0800 -0.3661
  171SOPE   C3119309   2.091   4.257   6.802 -0.2422 -0.2994 -0.4094
  171SOPE   O3219310   1.983   4.312   6.832 -0.6624  0.2033  0.2492
  171SOPE   C3219311   2.117   4.109   6.825  0.7227  0.1538 -0.2261
  171SOPE   H2X19312   2.222   4.097   6.857  1.0293  2.4498 -0.2153
  171SOPE   H2Y19313   2.107   4.060   6.726 -1.7010  1.1442 -0.5439
  171SOPE   C2319314   2.290   4.935   6.911 -0.1027  0.0627  0.4602
  171SOPE   H3R19315   2.356   4.873   6.976  1.3799  1.6529  0.5398
  171SOPE   H3S19316   2.192   4.944   6.962  0.6876 -3.0042  2.8207
  171SOPE   C2419317   2.346   5.078   6.909 -0.1159  0.7551 -0.2058
  171SOPE   H4R19318   2.444   5.079   6.856  0.1542  2.2923  0.2617
  171SOPE   H4S19319   2.277   5.149   6.859 -0.5100  1.0366  0.7263
  171SOPE   C2519320   2.377   5.133   7.052  0.5432 -0.0574 -0.3835
  171SOPE   H5R19321   2.293   5.106   7.119  0.1269 -1.9618 -1.5821
  171SOPE   H5S19322   2.475   5.100   7.093  0.9490 -0.1046 -1.3594
  171SOPE   C2619323   2.397   5.290   7.056 -0.3969 -0.3155  0.3221
  171SOPE   H6R19324   2.317   5.319   6.985  0.9634  1.2390 -0.6558
  171SOPE   H6S19325   2.373   5.334   7.155 -1.0783 -1.9120  0.9096
  171SOPE   C2719326   2.521   5.341   6.986 -0.1243 -0.5584 -0.2426
  171SOPE   H7R19327   2.556   5.273   6.905 -1.3724 -0.9939 -0.4291
  171SOPE   H7S19328   2.507   5.435   6.929  2.7135  1.4389  2.0208
  171SOPE   C2819329   2.639   5.369   7.080  0.1107  0.3368  0.1656
  171SOPE   H8R19330   2.647   5.290   7.157 -0.9697 -0.7059 -0.7608
  171SOPE   H8S19331   2.732   5.360   7.020 -0.5662 -0.6716 -0.7674
  171SOPE   C2919332   2.630   5.514   7.122  0.2026  0.1669  0.0624
  171SOPE   H9119333   2.662   5.581   7.041 -1.8639 -0.4519 -1.3405
  171SOPE  C21019334   2.567   5.566   7.231 -0.5644  0.5255 -0.5181
  171SOPE  H10119335   2.586   5.674   7.245 -0.8324  0.4694  0.3734
  171SOPE  C21119336   2.487   5.497   7.340 -0.2846 -0.2359  0.3308
  171SOPE  H11R19337   2.479   5.388   7.319  1.9895 -0.7287  1.6633
  171SOPE  H11S19338   2.385   5.541   7.340  0.1910  0.8866 -0.0707
  171SOPE  C21219339   2.543   5.516   7.483  0.0709 -0.4936  0.2188
  171SOPE  H12R19340   2.649   5.481   7.489  0.7242  1.4900  1.3036
  171SOPE  H12S19341   2.477   5.452   7.546 -1.4966  0.8988  0.0504
  171SOPE  C21319342   2.539   5.656   7.545 -0.8056  0.4529 -0.1153
  171SOPE  H13R19343   2.437   5.699   7.547 -0.0508  2.3539 -0.3795
  171SOPE  H13S19344   2.607   5.730   7.498 -0.9917 -0.3913 -1.7707
  171SOPE  C21419345   2.590   5.665   7.693  0.2280 -0.1416 -0.6303
  171SOPE  H14R19346   2.696   5.631   7.699  0.0135 -0.7520 -0.1729
  171SOPE  H14S19347   2.533   5.592   7.754 -1.5281 -0.2834 -2.3567
  171SOPE  C21519348   2.577   5.806   7.747 -0.1298  0.5384  1.2050
  171SOPE  H15R19349   2.474   5.848   7.748 -0.8683 -1.0818 -0.8299
  171SOPE  H15S19350   2.647   5.880   7.702 -1.1319  0.0862 -1.2642
  171SOPE  C21619351   2.618   5.806   7.895 -0.5858 -0.1604 -0.1827
  171SOPE  H16R19352   2.729   5.797   7.895 -0.5516 -0.2794  2.1103
  171SOPE  H16S19353   2.585   5.708   7.937  2.3821 -2.3652 -2.5205
  171SOPE  C21719354   2.582   5.930   7.977  0.2458  0.0890  0.7261
  171SOPE  H17R19355   2.471   5.940   7.983 -0.1160 -2.5637 -0.2666
  171SOPE  H17S19356   2.609   6.021   7.920 -1.6515  1.1604  1.4131
  171SOPE  C21819357   2.644   5.935   8.112 -0.1208 -0.1324  0.6365
  171SOPE  H18R19358   2.754   5.920   8.106  0.2600  2.1004  1.0765
  171SOPE  H18S19359   2.597   5.852   8.169 -1.4976  0.0656 -0.1769
  171SOPE  H18T19360   2.622   6.032   8.163  0.5844  1.0670 -1.2460
  171SOPE   C3319361   2.014   4.045   6.929 -0.1341 -0.4238  0.0476
  171SOPE   H3X19362   2.004   3.939   6.898  1.4889  0.4118 -3.9439
  171SOPE   H3Y19363   1.912   4.089   6.916  0.2904  1.3811  2.2801
  171SOPE   C3419364   2.077   4.059   7.067  0.4898 -0.9754  0.3307
  171SOPE   H4X19365   2.166   3.995   7.082  0.9413  0.1134  2.9372
  171SOPE   H4Y19366   2.002   4.001   7.127 -0.4252  0.1748  0.3392
  171SOPE   C3519367   2.096   4.194   7.130  0.1093 -0.4171  0.9660
  171SOPE   H5X19368   2.005   4.257   7.122  1.7130  1.7856 -1.6099
  171SOPE   H5Y19369   2.170   4.262   7.081 -0.7874  1.0681  1.5874
  171SOPE   C3619370   2.135   4.169   7.273  0.2030 -0.5107 -0.5513
  171SOPE   H6X19371   2.235   4.121   7.271  0.3697 -0.1915 -0.1115
  171SOPE   H6Y19372   2.046   4.107   7.300 -1.4970  1.9965 -0.0303
  171SOPE   C3719373   2.141   4.298   7.366 -0.8579  0.0078  0.2426
  171SOPE   H7X19374   2.043   4.349   7.351 -1.1168 -0.7989 -0.9727
  171SOPE   H7Y19375   2.226   4.350   7.319  0.5057  0.2977  2.8591
  171SOPE   C3819376   2.170   4.274   7.510 -0.1906 -0.4223  0.5067
  171SOPE   H8X19377   2.246   4.193   7.514  0.2166 -0.1818 -1.5465
  171SOPE   H8Y19378   2.073   4.240   7.553  0.4517 -1.4913  1.1638
  171SOPE   C3919379   2.215   4.395   7.592  0.5719 -0.0410  0.2525
  171SOPE   H9X19380   2.130   4.465   7.582 -0.4293 -1.3480 -0.9002
  171SOPE   H9Y19381   2.305   4.445   7.550  0.8417 -0.1614  0.6811
  171SOPE  C31019382   2.236   4.363   7.741  0.4979  0.5180 -0.2993
  171SOPE  H10X19383   2.142   4.318   7.778  0.1975  0.9830 -0.4943
  171SOPE  H10Y19384   2.243   4.456   7.802  3.3149  0.9158 -1.0767
  171SOPE  C31119385   2.351   4.264   7.778  0.0558 -0.4909  0.1749
  171SOPE  H11X19386   2.448   4.316   7.761 -0.1086  0.5662  2.2325
  171SOPE  H11Y19387   2.348   4.166   7.727 -2.3823 -0.0479 -0.7122
  171SOPE  C31219388   2.340   4.230   7.930 -0.3799 -0.1671 -0.4542
  171SOPE  H12X19389   2.243   4.179   7.951 -0.2468  0.0861  0.8879
  171SOPE  H12Y19390   2.353   4.325   7.986  1.7266  0.3742 -1.7601
  171SOPE  C31319391   2.457   4.138   7.978  0.4593 -0.1081  0.8306
  171SOPE  H13X19392   2.554   4.192   7.972  0.8435 -0.7063  1.4992
  171SOPE  H13Y19393   2.461   4.046   7.915 -0.6746  0.4856 -0.1345
  171SOPE  C31419394   2.438   4.077   8.119 -0.4497 -0.2280  0.6633
  171SOPE  H14X19395   2.350   4.011   8.101  0.4028 -1.1267 -0.2910
  171SOPE  H14Y19396   2.416   4.173   8.171  2.3538  1.6395 -1.3097
  171SOPE  C31519397   2.549   3.991   8.183  0.2795 -0.1257  0.3385
  171SOPE  H15X19398   2.586   3.926   8.101  2.1131  1.6500 -0.3297
  171SOPE  H15Y19399   2.501   3.930   8.262  1.1121  2.0896  2.6761
  171SOPE  C31619400   2.660   4.076   8.233  0.0295 -0.3957  0.8118
  171SOPE  H16X19401   2.618   4.173   8.268 -0.0560  0.2911 -1.0710
  171SOPE  H16Y19402   2.738   4.104   8.159 -0.2535 -1.6250  0.0208
  171SOPE  C31719403   2.742   4.007   8.342  0.1988  0.1141 -0.5442
  171SOPE  H17X19404   2.766   3.902   8.315 -1.0458 -0.2810 -0.1416
  171SOPE  H17Y19405   2.677   3.996   8.431  0.5569 -0.3139 -0.3333
  171SOPE  C31819406   2.867   4.090   8.375  0.4796 -0.6954  0.6302
  171SOPE  H18X19407   2.919   4.138   8.289 -0.6056  1.5957  1.1823
  171SOPE  H18Y19408   2.930   4.036   8.449  1.1857 -0.0506  0.5152
  171SOPE  H18Z19409   2.827   4.174   8.436  0.0774 -0.0279 -0.5388
  172SOPE     N19410   4.019   1.868   6.381  0.1862 -0.3302 -0.0446
  172SOPE   HN119411   3.974   1.778   6.354  2.3877 -1.7597  0.8097
  172SOPE   HN219412   4.094   1.894   6.314 -0.9121  2.7201 -0.2116
  172SOPE   HN319413   4.076   1.841   6.464  1.2544  0.0901 -0.6237
  172SOPE   C1219414   3.921   1.981   6.399 -0.2564  0.1893 -0.3702
  172SOPE  H12A19415   3.863   1.996   6.306 -2.0209 -0.6094  0.5463
  172SOPE  H12B19416   3.988   2.067   6.417  0.7756 -0.5764 -0.4864
  172SOPE   C1119417   3.820   1.933   6.507  0.4379  0.5227  0.0306
  172SOPE  H11A19418   3.748   2.017   6.520 -0.7113 -0.5149  0.4497
  172SOPE  H11B19419   3.880   1.923   6.600 -1.1122  1.8253  1.2454
  172SOPE     P19420   3.629   1.757   6.537 -0.7529 -0.3137  0.0251
  172SOPE   O1319421   3.593   1.625   6.476 -0.7278  0.3638 -0.6442
  172SOPE   O1419422   3.526   1.859   6.525 -0.1498  0.1272 -0.3806
  172SOPE   O1219423   3.759   1.810   6.470 -0.4974  0.1404  0.0592
  172SOPE   O1119424   3.671   1.747   6.689 -0.2224 -0.1672 -0.3761
  172SOPE    C119425   3.781   1.656   6.717  0.2724  0.1469  0.2095
  172SOPE    HA19426   3.879   1.693   6.678 -0.4884  0.8219 -1.1383
  172SOPE    HB19427   3.763   1.560   6.664 -0.5339  0.8199 -0.7804
  172SOPE    C219428   3.796   1.631   6.873 -1.2764  0.2298  0.4687
  172SOPE    HS19429   3.834   1.720   6.928  0.9813 -1.1313  1.2732
  172SOPE   O2119430   3.896   1.527   6.897 -0.1569  0.3466 -0.7196
  172SOPE   C2119431   4.023   1.565   6.896  0.3902 -0.1754  0.2239
  172SOPE   O2219432   4.059   1.674   6.858 -0.0439  0.5778  0.4689
  172SOPE   C2219433   4.118   1.446   6.928  0.6064  0.2140 -0.2766
  172SOPE   H2R19434   4.224   1.465   6.903 -0.0061  1.5031 -2.1120
  172SOPE   H2S19435   4.086   1.359   6.868 -2.7849  0.2369  1.2226
  172SOPE    C319436   3.662   1.599   6.944 -0.2919 -0.1306 -0.6910
  172SOPE    HX19437   3.641   1.496   6.908 -0.5954  0.6462 -2.8783
  172SOPE    HY19438   3.589   1.668   6.897 -1.3184  0.1417  1.1928
  172SOPE   O3119439   3.666   1.614   7.089 -0.8718 -0.2410  0.3373
  172SOPE   C3119440   3.675   1.501   7.164  0.5210  0.0101  0.0451
  172SOPE   O3219441   3.663   1.388   7.116  0.1574 -0.8382 -0.3974
  172SOPE   C3219442   3.677   1.530   7.312  0.7277  0.0582 -0.6436
  172SOPE   H2X19443   3.586   1.588   7.336  1.3509  0.3711  1.1034
  172SOPE   H2Y19444   3.778   1.574   7.329  0.4246  0.6163 -0.2841
  172SOPE   C2319445   4.103   1.413   7.084 -0.8305  0.2499  0.5443
  172SOPE   H3R19446   4.163   1.322   7.101 -0.2051  0.5436 -0.0639
  172SOPE   H3S19447   3.998   1.389   7.113 -1.1496  0.8792 -0.0494
  172SOPE   C2419448   4.180   1.513   7.171  0.1187 -0.9195 -0.4552
  172SOPE   H4R19449   4.280   1.537   7.127 -0.3450 -1.3300 -1.7757
  172SOPE   H4S19450   4.131   1.613   7.173 -1.8847 -1.8759  0.3702
  172SOPE   C2519451   4.194   1.447   7.309  0.2440 -0.1975 -0.1161
  172SOPE   H5R19452   4.087   1.426   7.331 -0.4488  2.2649 -0.8729
  172SOPE   H5S19453   4.255   1.355   7.296  0.0072 -0.3790  0.0432
  172SOPE   C2619454   4.240   1.547   7.412 -0.3629  0.0948 -0.5710
  172SOPE   H6R19455   4.262   1.490   7.505 -0.0483 -2.4393 -2.0848
  172SOPE   H6S19456   4.340   1.589   7.386 -0.2074  0.2182  0.2105
  172SOPE   C2719457   4.142   1.659   7.452 -0.3021  0.0574  0.3237
  172SOPE   H7R19458   4.128   1.727   7.366  0.2600 -3.1267 -2.4805
  172SOPE   H7S19459   4.044   1.607   7.466 -1.4385  1.7291 -0.9972
  172SOPE   C2819460   4.188   1.732   7.584 -1.2874  0.9243 -0.4731
  172SOPE   H8R19461   4.275   1.797   7.564  0.3717 -0.8610  0.5740
  172SOPE   H8S19462   4.109   1.805   7.611 -0.4228  0.9915  2.1504
  172SOPE   C2919463   4.209   1.651   7.706 -0.6071 -0.3210  0.3462
  172SOPE   H9119464   4.137   1.567   7.705 -2.9623  1.5497  1.7297
  172SOPE  C21019465   4.296   1.676   7.807 -0.9327  0.1954 -0.0431
  172SOPE  H10119466   4.306   1.598   7.884  0.1545  0.9441  0.6014
  172SOPE  C21119467   4.401   1.782   7.824  0.7168  0.8271 -0.5522
  172SOPE  H11R19468   4.364   1.877   7.781 -0.4733  0.5764 -0.1353
  172SOPE  H11S19469   4.506   1.755   7.801  1.0907  1.0727  0.7693
  172SOPE  C21219470   4.423   1.798   7.972  0.1104 -0.0113 -0.5780
  172SOPE  H12R19471   4.329   1.828   8.023  0.2095  1.5191 -1.2347
  172SOPE  H12S19472   4.486   1.889   7.981 -0.4802  0.3348  0.0866
  172SOPE  C21319473   4.494   1.678   8.052  0.1576 -0.0586 -0.0567
  172SOPE  H13R19474   4.575   1.643   7.985 -0.1597  0.0190 -0.4877
  172SOPE  H13S19475   4.419   1.602   8.082  0.2906 -0.1567  0.0236
  172SOPE  C21419476   4.567   1.724   8.185 -0.1473  0.4693  0.4574
  172SOPE  H14R19477   4.502   1.798   8.236  2.5339  2.4387  1.2155
  172SOPE  H14S19478   4.650   1.785   8.145  1.6484 -0.7406  2.2062
  172SOPE  C21519479   4.612   1.608   8.273 -0.2660 -0.5713  0.4801
  172SOPE  H15R19480   4.663   1.540   8.202 -1.7305  0.5532 -1.7523
  172SOPE  H15S19481   4.518   1.552   8.296  1.0878 -2.2377  2.3006
  172SOPE  C21619482   4.697   1.646   8.394 -0.2982 -0.4595  0.3818
  172SOPE  H16R19483   4.631   1.704   8.462  0.7226 -0.4620  1.4036
  172SOPE  H16S19484   4.785   1.710   8.372  0.1071 -0.9405  0.5773
  172SOPE  C21719485   4.740   1.529   8.482  0.6536 -0.5265  0.1231
  172SOPE  H17R19486   4.835   1.488   8.443 -0.6822 -2.3153 -1.4567
  172SOPE  H17S19487   4.667   1.446   8.473  1.4807 -1.0810 -2.2450
  172SOPE  C21819488   4.779   1.559   8.625  0.1696  0.0209  0.3506
  172SOPE  H18R19489   4.799   1.470   8.689 -2.2575  0.9742  2.6302
  172SOPE  H18S19490   4.693   1.599   8.684 -0.3269 -1.0738  0.4033
  172SOPE  H18T19491   4.864   1.629   8.639 -0.0582  0.5758 -0.9521
  172SOPE   C3319492   3.660   1.398   7.394  0.8112 -0.3592  0.7108
  172SOPE   H3X19493   3.752   1.336   7.385 -0.7282 -3.5193  4.0782
  172SOPE   H3Y19494   3.571   1.343   7.358  0.6222  0.1589  0.3749
  172SOPE   C3419495   3.635   1.429   7.542  0.5679  0.3435 -0.4269
  172SOPE   H4X19496   3.617   1.335   7.598 -0.7065  0.4739 -0.5997
  172SOPE   H4Y19497   3.549   1.498   7.557 -0.0650 -0.8182  1.8046
  172SOPE   C3519498   3.751   1.499   7.616  0.2371 -0.2777 -0.6145
  172SOPE   H5X19499   3.769   1.604   7.585 -1.0615  0.6696  1.5334
  172SOPE   H5Y19500   3.847   1.449   7.594  0.2738 -0.5096  0.0431
  172SOPE   C3619501   3.729   1.503   7.767  0.5655  0.0696  0.0062
  172SOPE   H6X19502   3.714   1.401   7.809  1.0628 -0.8499 -1.9249
  172SOPE   H6Y19503   3.635   1.554   7.794 -0.6821 -0.9814 -2.1052
  172SOPE   C3719504   3.846   1.573   7.841  0.4312  0.0603 -0.7291
  172SOPE   H7X19505   3.854   1.676   7.801 -0.7971  0.4073 -0.1397
  172SOPE   H7Y19506   3.942   1.520   7.825 -1.3022 -3.6892  0.1389
  172SOPE   C3819507   3.822   1.592   7.994  0.0260 -0.5613  0.1550
  172SOPE   H8X19508   3.808   1.491   8.038 -0.8847 -0.4348  0.1691
  172SOPE   H8Y19509   3.725   1.644   8.003 -0.6940 -1.2815 -2.5674
  172SOPE   C3919510   3.930   1.682   8.055 -0.3095 -0.0804  0.7196
  172SOPE   H9X19511   3.885   1.731   8.144  1.9401  1.2942  1.1606
  172SOPE   H9Y19512   3.957   1.763   7.984  2.1264 -0.2578  1.3839
  172SOPE  C31019513   4.058   1.598   8.087 -0.5800  0.4904 -0.1288
  172SOPE  H10X19514   4.136   1.676   8.101 -0.7657  0.5771  0.4464
  172SOPE  H10Y19515   4.079   1.533   7.999  0.8522  0.5682  0.1304
  172SOPE  C31119516   4.042   1.504   8.199 -0.0480  0.1062  0.4367
  172SOPE  H11X19517   4.139   1.450   8.204  0.0938  0.2687 -0.4346
  172SOPE  H11Y19518   3.955   1.437   8.180 -2.6943  3.4855 -0.3207
  172SOPE  C31219519   4.029   1.570   8.337  0.8553 -0.2499  0.1009
  172SOPE  H12X19520   4.007   1.497   8.418 -0.4188  0.9403  0.8587
  172SOPE  H12Y19521   3.937   1.631   8.330  1.8149  1.2833  0.2532
  172SOPE  C31319522   4.148   1.656   8.380  0.5061  0.2356 -0.2371
  172SOPE  H13X19523   4.172   1.731   8.301  1.9219 -2.5942 -2.6853
  172SOPE  H13Y19524   4.237   1.591   8.394  0.4737 -0.0464 -1.2572
  172SOPE  C31419525   4.122   1.725   8.520 -0.8499 -0.1683  0.3478
  172SOPE  H14X19526   4.149   1.647   8.594 -1.8396 -0.9615 -0.1168
  172SOPE  H14Y19527   4.014   1.747   8.533 -0.9126  1.1942 -1.9072
  172SOPE  C31519528   4.203   1.859   8.536  0.2173  0.4337 -0.2225
  172SOPE  H15X19529   4.182   1.906   8.635  3.7704 -0.4174  1.1258
  172SOPE  H15Y19530   4.163   1.921   8.453 -1.4445  1.4179  1.2477
  172SOPE  C31619531   4.353   1.854   8.501  0.7149 -0.1308 -0.4489
  172SOPE  H16X19532   4.378   1.780   8.423 -0.3796 -0.7683 -0.2145
  172SOPE  H16Y19533   4.413   1.836   8.593  2.0209  1.2650 -0.9884
  172SOPE  C31719534   4.395   1.991   8.457 -0.0457 -0.5395 -0.2866
  172SOPE  H17X19535   4.349   2.071   8.520  2.4977  0.2710  0.6713
  172SOPE  H17Y19536   4.362   2.006   8.352 -1.3248  1.4003  0.3305
  172SOPE  C31819537   4.553   2.005   8.463  0.0258 -0.3149 -0.2187
  172SOPE  H18X19538   4.598   2.087   8.402 -2.3783  3.0298  2.1494
  172SOPE  H18Y19539   4.600   1.908   8.436 -2.2538 -2.7219  3.4940
  172SOPE  H18Z19540   4.585   2.028   8.566 -0.2593 -0.7014 -0.0407
  173SAPI   C1219541   4.161   3.228  10.895  0.4170 -0.7566 -0.4971
  173SAPI    H219542   4.210   3.205  10.798 -1.1912 -0.3865 -1.4373
  173SAPI    O219543   4.267   3.215  10.985  0.4492  0.1409 -0.9042
  173SAPI   HO219544   4.250   3.173  11.070  2.4580 -0.0039 -0.5107
  173SAPI   C1319545   4.103   3.374  10.891  0.0713  1.1471  0.2705
  173SAPI    H319546   4.022   3.379  10.815 -0.8210  0.8062  1.1840
  173SAPI    O319547   4.203   3.467  10.870  0.3639  0.2287  0.2305
  173SAPI   HO319548   4.151   3.537  10.830 -0.0237  0.8946  1.8415
  173SAPI   C1419549   4.032   3.395  11.023  0.5929  0.2509 -0.1392
  173SAPI    H419550   4.107   3.387  11.105  0.5823 -0.2462 -0.1783
  173SAPI    O419551   3.978   3.529  11.031  0.4920 -0.2450 -0.2637
  173SAPI   HO419552   3.915   3.535  11.103  1.6126  0.1763  0.7186
  173SAPI   C1519553   3.921   3.286  11.053 -0.1179  0.1054 -0.2713
  173SAPI    H519554   3.856   3.280  10.963  0.9339 -2.3241 -0.9449
  173SAPI    O519555   3.843   3.310  11.163  0.3224  0.0215 -0.6761
  173SAPI   HO519556   3.900   3.302  11.240  0.0028  0.3603 -0.4045
  173SAPI   C1619557   3.984   3.152  11.057  0.2722 -0.3918 -0.0458
  173SAPI    H619558   4.063   3.158  11.135  0.1671  0.2285  0.0177
  173SAPI    O619559   3.893   3.043  11.092 -0.1894  0.6858 -0.1847
  173SAPI   HO619560   3.869   2.988  11.017  0.9725 -0.1113  0.0033
  173SAPI   C1119561   4.054   3.130  10.922 -0.2404  0.1706 -1.2834
  173SAPI    H119562   3.981   3.145  10.840 -2.6435  1.1401  0.8878
  173SAPI     P19563   4.023   2.888  10.833  0.0196  0.0384 -0.0002
  173SAPI   O1319564   3.881   2.915  10.862 -0.5899 -0.1676 -0.4562
  173SAPI   O1419565   4.079   2.755  10.862  0.3448  0.0107 -0.5276
  173SAPI   O1219566   4.119   3.000  10.919 -0.1119 -0.4002 -0.0115
  173SAPI   O1119567   4.047   2.918  10.677  0.0883  0.1864 -0.7576
  173SAPI    C119568   4.162   2.978  10.617  0.2467  0.6824  0.6935
  173SAPI    HA19569   4.156   3.089  10.618  0.3940  0.7504 -1.5846
  173SAPI    HB19570   4.255   2.943  10.667 -0.8513 -2.0673  0.9791
  173SAPI    C219571   4.172   2.941  10.468 -0.7586  0.4751 -0.9602
  173SAPI    HS19572   4.246   3.017  10.434 -2.1418  1.5991 -1.5761
  173SAPI   O2119573   4.051   2.951  10.388 -0.0732 -0.5901 -0.1134
  173SAPI   C2119574   4.004   3.072  10.370 -0.0110  0.3519  0.2477
  173SAPI   O2219575   4.041   3.172  10.425  0.6206  0.5445 -0.6815
  173SAPI   C2219576   3.906   3.062  10.247 -0.4168 -0.0352 -0.2104
  173SAPI   H2R19577   3.833   2.990  10.290 -1.0072  0.6280 -0.0860
  173SAPI   H2S19578   3.853   3.157  10.226  1.4510  1.0800 -0.0868
  173SAPI    C319579   4.229   2.796  10.433  0.0527 -0.5191 -0.8026
  173SAPI    HX19580   4.143   2.725  10.437 -2.6118  2.5114  0.5409
  173SAPI    HY19581   4.311   2.770  10.503  1.5004  2.1821 -1.3643
  173SAPI   O3119582   4.274   2.804  10.297 -0.2788  0.2447 -0.4401
  173SAPI   C3119583   4.381   2.737  10.256  0.6050 -0.0588 -0.5595
  173SAPI   O3219584   4.460   2.686  10.333 -0.0263 -0.7284  0.5374
  173SAPI   C3219585   4.390   2.738  10.116  0.6742 -0.5302 -0.2291
  173SAPI   H2X19586   4.334   2.824  10.075  1.4061 -0.4926 -1.1798
  173SAPI   H2Y19587   4.350   2.644  10.072 -1.3750 -0.2927  0.9957
  173SAPI   C2319588   3.970   2.996  10.121 -0.6732  0.7864 -0.3587
  173SAPI   H3R19589   3.894   2.954  10.052  1.0452 -0.1074 -1.7885
  173SAPI   H3S19590   4.044   2.917  10.149 -2.2964 -0.2762  1.1499
  173SAPI   C2419591   4.043   3.097  10.037 -0.3441 -0.2730  0.0729
  173SAPI   H4R19592   4.120   3.154  10.093  0.9076 -1.6470 -0.1640
  173SAPI   H4S19593   3.959   3.161  10.003 -0.6210 -0.5258  0.2743
  173SAPI   C2519594   4.125   3.032   9.929 -0.6703  0.8296  0.3631
  173SAPI   H5R19595   4.224   2.993   9.958 -0.6495 -1.0893 -2.0012
  173SAPI   C2619596   4.092   2.987   9.805  0.9876 -0.0371 -0.1386
  173SAPI   H6R19597   4.174   2.941   9.747  0.7949  0.1027 -0.5314
  173SAPI   C2719598   3.951   2.995   9.745  0.3980  0.6380 -0.5303
  173SAPI   H7R19599   3.895   3.062   9.814  2.2725  0.4551  1.2713
  173SAPI   H7S19600   3.903   2.895   9.746 -0.3212  0.9747 -0.9094
  173SAPI   C2819601   3.973   3.045   9.604 -0.6580  0.8544 -0.3609
  173SAPI   H8R19602   3.992   3.153   9.602  0.4286  0.6837  0.2883
  173SAPI   C2919603   3.958   2.966   9.492  0.6068 -0.0498  0.6820
  173SAPI   H9R19604   3.984   3.011   9.396  0.3413 -2.0836 -0.3960
  173SAPI  C21019605   3.928   2.818   9.478 -0.1881  0.0115 -0.6310
  173SAPI  H10R19606   3.910   2.770   9.577  0.6962 -0.5589 -0.7353
  173SAPI  H10S19607   4.016   2.760   9.443  0.0395  0.3997 -0.7130
  173SAPI  C21119608   3.815   2.782   9.389  0.4648 -0.5604 -0.1737
  173SAPI  H11R19609   3.722   2.756   9.443 -0.3738 -0.4792 -1.5206
  173SAPI  C21219610   3.822   2.749   9.262 -0.0611  0.8245  1.2762
  173SAPI  H12R19611   3.729   2.710   9.217  0.1325 -0.0434  1.6117
  173SAPI  C21319612   3.938   2.756   9.172 -0.5099 -0.2369 -0.2842
  173SAPI  H13R19613   3.977   2.653   9.176  1.4867  0.5222  1.3322
  173SAPI  H13S19614   4.015   2.828   9.205 -1.4473  0.2673  0.8792
  173SAPI  C21419615   3.898   2.805   9.032  0.4070 -0.3712 -0.8239
  173SAPI  H14R19616   3.830   2.891   9.041  2.2212  1.0937 -0.2864
  173SAPI  C21519617   3.926   2.751   8.915  0.3088  0.5338  1.0692
  173SAPI  H15R19618   3.892   2.809   8.828 -1.8258 -0.9856  0.8069
  173SAPI  C21619619   4.011   2.632   8.885  0.1527 -0.3641 -0.2742
  173SAPI  H16R19620   3.989   2.585   8.787  1.0217 -0.7750 -0.2784
  173SAPI  H16S19621   3.988   2.544   8.950  1.1257  0.9675  1.9900
  173SAPI  C21719622   4.164   2.652   8.895 -0.0629  0.3704 -0.0169
  173SAPI  H17R19623   4.172   2.708   8.991  0.3766 -0.8125  0.6524
  173SAPI  H17S19624   4.200   2.710   8.807  0.0288 -0.7705 -0.7509
  173SAPI  C21819625   4.247   2.528   8.893  0.6489 -0.0020  0.2300
  173SAPI  H18R19626   4.236   2.469   8.799 -1.9711  1.6632 -0.6208
  173SAPI  H18S19627   4.192   2.464   8.965 -2.8306  1.4270 -0.9422
  173SAPI  C21919628   4.394   2.546   8.909 -0.1912 -0.1572  0.5487
  173SAPI  H19R19629   4.412   2.594   9.008  1.0022 -0.0073  0.2684
  173SAPI  H19S19630   4.430   2.613   8.828 -0.8637 -0.9180 -0.4022
  173SAPI  C22019631   4.460   2.410   8.891 -0.3088  0.2529 -0.0820
  173SAPI  H20R19632   4.569   2.416   8.874 -0.1104 -1.7847  0.2394
  173SAPI  H20S19633   4.412   2.351   8.810 -0.9525 -1.3099  1.3590
  173SAPI  H20T19634   4.432   2.362   8.987  0.0372 -3.4373 -1.6597
  173SAPI   C3319635   4.536   2.757  10.067  0.7898  0.4897  0.5130
  173SAPI   H3X19636   4.591   2.669  10.106 -0.1477 -0.3283  0.0235
  173SAPI   H3Y19637   4.582   2.852  10.102 -0.0182  0.4841  1.6475
  173SAPI   C3419638   4.543   2.746   9.913 -0.2544 -0.1499  0.3493
  173SAPI   H4X19639   4.475   2.821   9.865 -0.9018 -0.6020  0.5510
  173SAPI   H4Y19640   4.503   2.652   9.871 -1.7178  1.0239 -1.0340
  173SAPI   C3519641   4.687   2.769   9.855  0.0491  0.8385 -0.1270
  173SAPI   H5X19642   4.755   2.719   9.927  0.5627  1.6259 -0.0508
  173SAPI   H5Y19643   4.707   2.878   9.846 -3.4794  1.6106 -0.0716
  173SAPI   C3619644   4.704   2.702   9.720 -0.4358  0.5097 -0.0885
  173SAPI   H6X19645   4.628   2.744   9.650 -0.7252  0.2379  0.0593
  173SAPI   H6Y19646   4.696   2.592   9.725 -0.0756  0.2754 -2.8816
  173SAPI   C3719647   4.844   2.743   9.668  0.1391 -0.5701  0.0673
  173SAPI   H7X19648   4.917   2.704   9.743  1.0435  0.3853 -0.2910
  173SAPI   H7Y19649   4.848   2.854   9.672 -1.4159 -0.4318 -1.1433
  173SAPI   C3819650   4.893   2.704   9.526  0.9711  0.2219 -0.4327
  173SAPI   H8X19651   4.832   2.740   9.440 -0.1686 -1.2788 -0.3071
  173SAPI   H8Y19652   4.888   2.593   9.512 -0.0907  0.3510 -1.3068
  173SAPI   C3919653   5.031   2.755   9.485 -0.2108 -0.1242  0.1782
  173SAPI   H9X19654   5.112   2.704   9.541 -0.8058  1.1371  2.3247
  173SAPI   H9Y19655   5.037   2.860   9.522 -0.4867 -0.7110  1.9535
  173SAPI  C31019656   5.058   2.747   9.330 -0.1390  0.6927  0.9546
  173SAPI  H10X19657   5.156   2.797   9.320  0.3767 -0.0015  2.3582
  173SAPI  H10Y19658   4.988   2.816   9.278  1.4432 -0.2887 -2.8815
  173SAPI  C31119659   5.061   2.610   9.260  0.2319  0.2529 -0.9675
  173SAPI  H11X19660   5.072   2.630   9.151 -0.0137 -1.8092 -1.4173
  173SAPI  H11Y19661   4.960   2.568   9.278 -1.0097  3.5475  0.6336
  173SAPI  C31219662   5.180   2.510   9.306 -0.3758  0.4719  0.6094
  173SAPI  H12X19663   5.179   2.496   9.416  1.1612 -1.2535  0.4607
  173SAPI  H12Y19664   5.276   2.563   9.292  0.1548 -0.2610  1.3779
  173SAPI  C31319665   5.162   2.371   9.245  0.3388 -0.3266  0.3321
  173SAPI  H13X19666   5.062   2.338   9.279  0.3042 -2.0954 -1.3307
  173SAPI  H13Y19667   5.245   2.303   9.275  0.8020  0.8219  1.7370
  173SAPI  C31419668   5.191   2.377   9.088  0.1209 -0.1053  0.1103
  173SAPI  H14X19669   5.117   2.447   9.044 -1.1750 -1.5226 -0.0271
  173SAPI  H14Y19670   5.171   2.279   9.040  2.8722  0.1990 -1.9536
  173SAPI  C31519671   5.336   2.417   9.055  0.2153  0.5212 -0.3213
  173SAPI  H15X19672   5.396   2.344   9.113 -1.0925 -0.1663  0.2209
  173SAPI  H15Y19673   5.358   2.518   9.095  2.2414  0.3680 -0.9534
  173SAPI  C31619674   5.370   2.427   8.905  0.9589  0.2034  0.8931
  173SAPI  H16X19675   5.301   2.499   8.854 -1.9296 -1.1487  2.5930
  173SAPI  H16Y19676   5.356   2.326   8.862  1.3783  1.5928 -2.8468
  173SAPI  C31719677   5.513   2.467   8.866 -0.1071 -0.3583  0.1852
  173SAPI  H17X19678   5.585   2.400   8.918  0.5620  0.3038  0.1230
  173SAPI  H17Y19679   5.540   2.565   8.911  2.3050 -0.9681  0.2404
  173SAPI  C31819680   5.550   2.453   8.714 -0.9689 -0.3488 -0.8883
  173SAPI  H18X19681   5.658   2.477   8.704 -0.9343  0.5832  1.1309
  173SAPI  H18Y19682   5.490   2.532   8.664 -1.8318 -1.4024 -1.5441
  173SAPI  H18Z19683   5.522   2.354   8.674 -0.5803 -1.7818  2.0731
  174SAPI   C1219684   0.791   5.801  11.025 -0.7063 -0.3343 -0.1497
  174SAPI    H219685   0.867   5.864  11.076 -2.2520  0.9853  0.6340
  174SAPI    O219686   0.792   5.671  11.082 -0.0444 -0.8094 -0.1245
  174SAPI   HO219687   0.879   5.665  11.122  1.4010  0.9546 -2.7192
  174SAPI   C1319688   0.661   5.877  11.062  0.1536 -0.5593  0.4418
  174SAPI    H319689   0.682   5.980  11.025 -0.3762 -0.6128 -0.0119
  174SAPI    O319690   0.650   5.886  11.200  0.1201  0.0336  0.3123
  174SAPI   HO319691   0.679   5.798  11.228 -0.6120 -0.2501  0.2003
  174SAPI   C1419692   0.543   5.810  11.005  0.2776  0.1429 -0.4532
  174SAPI    H419693   0.531   5.709  11.051  1.3327  0.5576  0.7946
  174SAPI    O419694   0.424   5.882  11.041 -0.1651 -0.2154  0.0359
  174SAPI   HO419695   0.433   5.964  10.992  0.4104 -0.0160  0.4735
  174SAPI   C1519696   0.558   5.790  10.851 -1.2860 -0.0025 -0.1546
  174SAPI    H519697   0.553   5.891  10.804 -1.7336  1.0851  2.0664
  174SAPI    O519698   0.453   5.712  10.802  0.1256  0.0501  0.1221
  174SAPI   HO519699   0.387   5.780  10.784  1.5031  1.9635  1.7281
  174SAPI   C1619700   0.692   5.724  10.814 -0.1210  0.1678 -0.3713
  174SAPI    H619701   0.690   5.620  10.853 -2.8377  0.2678 -0.0569
  174SAPI    O619702   0.708   5.729  10.670  0.3243  0.1033  0.3981
  174SAPI   HO619703   0.752   5.648  10.642 -0.7168  0.6231 -3.3698
  174SAPI   C1119704   0.809   5.794  10.874  0.2617  0.6790  0.4960
  174SAPI    H119705   0.806   5.898  10.833 -4.1187  0.3382 -0.5010
  174SAPI     P19706   1.066   5.828  10.814 -0.3153  0.0536 -0.1396
  174SAPI   O1319707   1.188   5.739  10.803 -0.0974 -0.1421 -0.1340
  174SAPI   O1419708   1.066   5.943  10.909  0.1094  0.0103  0.5293
  174SAPI   O1219709   0.934   5.730  10.846 -0.0826  0.4618 -0.4757
  174SAPI   O1119710   1.030   5.880  10.678  0.2720 -0.1125 -0.3060
  174SAPI    C119711   1.009   5.789  10.575  0.0154  0.3506 -0.0819
  174SAPI    HA19712   0.983   5.685  10.606 -1.7590  1.1863  1.3460
  174SAPI    HB19713   0.922   5.822  10.514 -2.3617 -3.2325  1.0452
  174SAPI    C219714   1.128   5.785  10.484  0.1198  1.0829 -0.1401
  174SAPI    HS19715   1.219   5.759  10.542 -0.3178  2.5570  1.2599
  174SAPI   O2119716   1.136   5.911  10.419  0.1069 -0.8574 -0.0014
  174SAPI   C2119717   1.252   5.977  10.403  0.0694 -0.5389  0.9249
  174SAPI   O2219718   1.361   5.937  10.432  0.1182 -0.2497  0.0353
  174SAPI   C2219719   1.235   6.109  10.317 -0.7216 -0.0433 -0.2317
  174SAPI   H2R19720   1.165   6.164  10.384  0.1582 -0.7725  1.3433
  174SAPI   H2S19721   1.340   6.145  10.315 -0.8406  0.4549  1.2704
  174SAPI    C319722   1.117   5.673  10.370 -0.0456  0.3155 -0.1982
  174SAPI    HX19723   1.018   5.698  10.325 -1.6242 -2.3606  1.5340
  174SAPI    HY19724   1.100   5.568  10.401 -2.0769  0.8089  0.5443
  174SAPI   O3119725   1.231   5.680  10.284 -0.2477  0.2420  0.3481
  174SAPI   C3119726   1.341   5.619  10.329  0.1575 -0.2617 -0.3956
  174SAPI   O3219727   1.351   5.565  10.440 -0.4870 -0.5845  0.4341
  174SAPI   C3219728   1.451   5.633  10.232  0.3278  0.0489  0.2287
  174SAPI   H2X19729   1.417   5.598  10.133 -1.1924  1.9738  0.0256
  174SAPI   H2Y19730   1.540   5.568  10.252  0.7522  0.3643 -0.5822
  174SAPI   C2319731   1.159   6.104  10.184 -0.0840 -0.1641  0.3305
  174SAPI   H3R19732   1.133   6.204  10.143 -0.0819 -0.2071  0.2215
  174SAPI   H3S19733   1.061   6.064  10.219  0.4502  0.7943  3.1895
  174SAPI   C2419734   1.222   6.011  10.076 -0.0189 -0.1838 -0.3906
  174SAPI   H4R19735   1.261   5.917  10.122 -0.7912 -1.3142 -1.9513
  174SAPI   H4S19736   1.313   6.062  10.037  0.3285  0.4750  1.2238
  174SAPI   C2519737   1.127   5.974   9.965  0.0209 -0.1390 -0.8922
  174SAPI   H5R19738   1.058   5.896  10.001 -0.5928  1.0119  0.5625
  174SAPI   C2619739   1.138   6.014   9.839  0.9077 -0.1863  0.1875
  174SAPI   H6R19740   1.061   5.977   9.770  0.7193 -1.9052  1.2660
  174SAPI   C2719741   1.242   6.107   9.781  0.0136 -0.2627 -0.3985
  174SAPI   H7R19742   1.329   6.049   9.742  1.8316  0.6537  2.0181
  174SAPI   H7S19743   1.289   6.168   9.860 -1.1904 -1.0475  0.9863
  174SAPI   C2819744   1.198   6.200   9.677 -0.4961 -0.0327 -0.7347
  174SAPI   H8R19745   1.171   6.297   9.721  0.4207  0.8082 -1.9610
  174SAPI   C2919746   1.173   6.183   9.549 -0.0133  0.6301  0.6345
  174SAPI   H9R19747   1.121   6.260   9.490  1.9179  1.7194  0.2682
  174SAPI  C21019748   1.200   6.050   9.473 -0.7082 -0.3212  0.6398
  174SAPI  H10R19749   1.096   6.013   9.462 -1.2361  1.0735  0.6755
  174SAPI  H10S19750   1.247   5.967   9.530 -1.4752 -0.6745  0.7701
  174SAPI  C21119751   1.279   6.054   9.344 -0.2292  0.5263 -0.2890
  174SAPI  H11R19752   1.387   6.063   9.358  0.2310 -3.7983  0.4436
  174SAPI  C21219753   1.234   6.026   9.222  0.4896 -0.7397  0.2758
  174SAPI  H12R19754   1.311   6.011   9.145  0.6267  3.9558 -0.8059
  174SAPI  C21319755   1.088   5.988   9.187 -0.1170  0.0915  0.0180
  174SAPI  H13R19756   1.048   5.912   9.257 -1.7421  1.5541  0.7432
  174SAPI  H13S19757   1.088   5.943   9.085  0.7506  1.1160 -0.4511
  174SAPI  C21419758   0.988   6.099   9.199  0.2998 -0.1674 -0.5190
  174SAPI  H14R19759   0.962   6.120   9.304  0.3182 -0.9941 -0.3435
  174SAPI  C21519760   0.943   6.164   9.089  0.3054  0.3560 -0.1079
  174SAPI  H15R19761   0.882   6.254   9.103  0.7709  0.3723  2.3136
  174SAPI  C21619762   0.981   6.138   8.949 -0.5031  0.9454 -0.5873
  174SAPI  H16R19763   0.958   6.033   8.922  0.3161  0.3583  0.8901
  174SAPI  H16S19764   1.088   6.158   8.925 -0.0177 -1.5140 -0.7835
  174SAPI  C21719765   0.889   6.208   8.853  0.3863  0.1038 -0.4622
  174SAPI  H17R19766   0.900   6.317   8.874  3.1113  0.1279 -1.6214
  174SAPI  H17S19767   0.781   6.184   8.856  0.3742  0.1473 -0.5253
  174SAPI  C21819768   0.936   6.181   8.709 -0.2899  0.2278  0.5401
  174SAPI  H18R19769   0.957   6.071   8.707  1.3593  0.2560  4.9148
  174SAPI  H18S19770   1.027   6.242   8.694 -0.4619  0.0533 -1.6208
  174SAPI  C21919771   0.846   6.224   8.602 -0.2517  0.4386 -0.0377
  174SAPI  H19R19772   0.752   6.166   8.617 -2.0849  3.4598  1.1360
  174SAPI  H19S19773   0.882   6.196   8.501 -0.0690  0.0356  0.1358
  174SAPI  C22019774   0.811   6.368   8.609 -0.0194 -0.1815  0.0281
  174SAPI  H20R19775   0.766   6.389   8.709  0.8988 -2.2643  0.9316
  174SAPI  H20S19776   0.747   6.394   8.522 -0.8518 -1.7427  0.1509
  174SAPI  H20T19777   0.913   6.414   8.612  1.5411 -3.4187  0.7199
  174SAPI   C3319778   1.518   5.770  10.205 -0.4217 -0.5364 -0.4992
  174SAPI   H3X19779   1.586   5.798  10.288  0.4402  1.3475 -1.7510
  174SAPI   H3Y19780   1.435   5.844  10.200  0.0451 -0.0670 -1.4717
  174SAPI   C3419781   1.602   5.790  10.067  0.2578 -0.1321 -0.2718
  174SAPI   H4X19782   1.697   5.733  10.065  0.2121 -0.3911  2.3331
  174SAPI   H4Y19783   1.629   5.897  10.080  0.9472 -0.1777 -1.2223
  174SAPI   C3519784   1.515   5.783   9.942  0.2129  0.2404  0.3636
  174SAPI   H5X19785   1.423   5.845   9.953  0.6035  1.1707 -1.2755
  174SAPI   H5Y19786   1.483   5.677   9.930  1.1368 -0.1182  0.9834
  174SAPI   C3619787   1.592   5.819   9.824 -0.6996 -0.3763  0.0577
  174SAPI   H6X19788   1.681   5.752   9.817  0.0945  0.6746 -0.1627
  174SAPI   H6Y19789   1.623   5.925   9.833 -2.5119  0.2710 -0.9746
  174SAPI   C3719790   1.498   5.787   9.704 -0.3455  0.5880 -0.1029
  174SAPI   H7X19791   1.407   5.851   9.704 -1.2181 -0.4899 -3.0980
  174SAPI   H7Y19792   1.457   5.684   9.706  3.0609 -0.8835  0.5670
  174SAPI   C3819793   1.561   5.812   9.564 -0.9678  0.3877  0.5809
  174SAPI   H8X19794   1.660   5.762   9.559 -0.0690  2.0307  1.1330
  174SAPI   H8Y19795   1.575   5.921   9.551  2.1884  0.1660  1.3730
  174SAPI   C3919796   1.475   5.740   9.454 -0.5298 -0.4078 -0.0844
  174SAPI   H9X19797   1.373   5.785   9.451  0.1225  1.3099  1.3676
  174SAPI   H9Y19798   1.473   5.632   9.479  1.3352 -0.0684  1.8794
  174SAPI  C31019799   1.536   5.744   9.321 -1.2541 -0.6968  0.1526
  174SAPI  H10X19800   1.633   5.689   9.324 -0.7670  0.1929  1.3749
  174SAPI  H10Y19801   1.566   5.849   9.301 -0.2857 -1.0976 -0.6089
  174SAPI  C31119802   1.432   5.685   9.220  0.3725 -0.4693  0.0636
  174SAPI  H11X19803   1.343   5.751   9.221  0.9245  0.2938 -0.5469
  174SAPI  H11Y19804   1.402   5.582   9.248  1.4711 -1.1665 -1.2160
  174SAPI  C31219805   1.495   5.692   9.078  0.1411 -0.0870  0.3704
  174SAPI  H12X19806   1.584   5.628   9.063  0.9486  1.2196 -0.7068
  174SAPI  H12Y19807   1.541   5.793   9.070 -0.8572  0.2524 -2.1225
  174SAPI  C31319808   1.397   5.658   8.960 -0.4210 -0.1654  0.4910
  174SAPI  H13X19809   1.352   5.558   8.974  0.0025 -0.4247  0.0109
  174SAPI  H13Y19810   1.467   5.641   8.876 -1.6063 -0.1812 -0.5278
  174SAPI  C31419811   1.284   5.758   8.927  0.3598 -0.3170 -0.2446
  174SAPI  H14X19812   1.318   5.864   8.931 -1.0428  0.1161  3.1569
  174SAPI  H14Y19813   1.210   5.761   9.010  0.3114  0.3294 -0.3051
  174SAPI  C31519814   1.210   5.725   8.797  0.3675  0.7316  0.3410
  174SAPI  H15X19815   1.195   5.615   8.794 -0.6708  0.8759 -2.0803
  174SAPI  H15Y19816   1.277   5.751   8.712  0.2196 -1.9094 -0.6857
  174SAPI  C31619817   1.083   5.813   8.782  0.1072  0.0090 -0.1792
  174SAPI  H16X19818   1.119   5.915   8.756  1.1408 -0.1237  0.6943
  174SAPI  H16Y19819   1.033   5.831   8.880 -0.3131  0.8206 -0.5262
  174SAPI  C31719820   0.987   5.775   8.671  0.4009  0.5306  0.0806
  174SAPI  H17X19821   1.043   5.769   8.576 -0.3870 -1.2467 -0.3249
  174SAPI  H17Y19822   0.901   5.845   8.666 -0.9404 -0.7002  3.1688
  174SAPI  C31819823   0.940   5.625   8.698 -0.0331 -0.1089  0.0116
  174SAPI  H18X19824   0.874   5.591   8.615  0.5784 -0.3339 -0.3999
  174SAPI  H18Y19825   0.880   5.628   8.790 -0.0002 -0.8762  0.0699
  174SAPI  H18Z19826   1.022   5.549   8.695 -1.3813 -1.5965 -1.3790
  175SAPI   C1219827   4.865   3.518   6.000 -0.2605  0.1428  0.4982
  175SAPI    H219828   4.923   3.562   6.084 -0.2294  0.0881  0.5047
  175SAPI    O219829   4.871   3.617   5.888  0.6231  0.1479  0.3132
  175SAPI   HO219830   4.935   3.683   5.916  0.4665 -0.3164  1.8751
  175SAPI   C1319831   4.939   3.388   5.964 -0.3048 -0.3568 -0.4986
  175SAPI    H319832   4.936   3.310   6.043 -1.3201 -0.2545 -0.4285
  175SAPI    O319833   5.078   3.415   5.931 -0.5080 -0.2044 -0.1026
  175SAPI   HO319834   5.139   3.361   5.982  0.1478  0.3362 -0.2986
  175SAPI   C1419835   4.872   3.329   5.842  0.8491  0.2020 -0.2921
  175SAPI    H419836   4.877   3.405   5.761 -2.5335  1.2541  0.3389
  175SAPI    O419837   4.940   3.205   5.810 -0.0625 -0.2619  0.0262
  175SAPI   HO419838   4.948   3.149   5.889 -2.7484 -1.0024 -0.1354
  175SAPI   C1519839   4.716   3.295   5.866  0.1649  0.1592  0.4625
  175SAPI    H519840   4.708   3.217   5.944  0.0559 -0.1324  0.1618
  175SAPI    O519841   4.648   3.244   5.751  0.2043  0.4716  0.0823
  175SAPI   HO519842   4.633   3.307   5.680 -2.1769  0.0200  0.0930
  175SAPI   C1619843   4.646   3.423   5.919 -0.0568 -0.5714  0.3483
  175SAPI    H619844   4.645   3.503   5.842  0.9971 -1.3950 -0.5520
  175SAPI    O619845   4.510   3.384   5.953  0.1076 -0.2395  0.2655
  175SAPI   HO619846   4.522   3.328   6.029  0.7619 -2.0873 -1.1346
  175SAPI   C1119847   4.722   3.478   6.036 -0.3161 -0.2307 -0.2596
  175SAPI    H119848   4.719   3.387   6.100  1.2561 -0.3829 -0.3650
  175SAPI     P19849   4.651   3.619   6.254  0.0378 -0.3039  0.0016
  175SAPI   O1319850   4.665   3.762   6.287  0.6844  0.0566  0.0662
  175SAPI   O1419851   4.733   3.516   6.318 -0.0269 -0.6457 -0.2520
  175SAPI   O1219852   4.654   3.594   6.087  0.4759 -0.1664 -0.1748
  175SAPI   O1119853   4.500   3.581   6.294  0.8123 -0.2680 -0.4799
  175SAPI    C119854   4.456   3.483   6.391 -0.1326 -0.3139  0.4419
  175SAPI    HA19855   4.355   3.440   6.372 -0.2594 -0.4533  1.3755
  175SAPI    HB19856   4.529   3.403   6.414 -0.6548 -0.5865  1.1984
  175SAPI    C219857   4.416   3.550   6.528  0.0336 -0.1592  0.3807
  175SAPI    HS19858   4.335   3.620   6.500 -0.6001 -0.9447  0.1966
  175SAPI   O2119859   4.535   3.614   6.587  0.0461  0.2546 -0.3835
  175SAPI   C2119860   4.503   3.726   6.652 -0.6989 -0.0142 -0.9723
  175SAPI   O2219861   4.391   3.775   6.657 -0.2899  0.1681 -0.4316
  175SAPI   C2219862   4.632   3.782   6.717 -0.2457 -0.4027  0.0074
  175SAPI   H2R19863   4.710   3.775   6.638  0.6866 -0.4757  0.9127
  175SAPI   H2S19864   4.617   3.890   6.739 -0.4623 -0.5293  0.4841
  175SAPI    C319865   4.358   3.440   6.623  0.2057  0.5650 -0.0287
  175SAPI    HX19866   4.421   3.349   6.639 -2.2484 -0.9333  1.7946
  175SAPI    HY19867   4.266   3.399   6.576  0.9582 -1.0533 -0.1678
  175SAPI   O3119868   4.319   3.492   6.753  0.3323  0.8560 -0.4214
  175SAPI   C3119869   4.195   3.546   6.773 -0.1123  0.5132  0.2722
  175SAPI   O3219870   4.110   3.565   6.683  0.3327 -0.4148 -0.4050
  175SAPI   C3219871   4.195   3.594   6.915 -0.1655 -0.8692  0.5042
  175SAPI   H2X19872   4.257   3.686   6.910  0.3532 -1.1550  1.5396
  175SAPI   H2Y19873   4.241   3.515   6.977 -1.5740 -2.8124 -0.8060
  175SAPI   C2319874   4.668   3.700   6.839 -1.3198 -0.4152  0.1230
  175SAPI   H3R19875   4.764   3.747   6.870 -0.0086 -1.2831 -2.2755
  175SAPI   H3S19876   4.696   3.599   6.801 -0.7683 -0.3254  0.2798
  175SAPI   C2419877   4.565   3.693   6.952  0.2713 -0.0539  0.5948
  175SAPI   H4R19878   4.607   3.625   7.029  0.8912 -1.1094 -0.6379
  175SAPI   H4S19879   4.466   3.654   6.918  0.0391  0.4522  0.6747
  175SAPI   C2519880   4.532   3.833   7.002  0.6115  0.0340  0.3224
  175SAPI   H5R19881   4.483   3.904   6.934  0.4691  1.2102  1.6047
  175SAPI   C2619882   4.552   3.896   7.124 -1.2258  0.3717  0.3855
  175SAPI   H6R19883   4.521   3.998   7.149 -2.8215 -0.6569  3.0478
  175SAPI   C2719884   4.631   3.830   7.239 -0.1650  0.2378 -0.6105
  175SAPI   H7R19885   4.568   3.749   7.283  0.4851  1.1576  2.2195
  175SAPI   H7S19886   4.637   3.916   7.309  0.5826 -0.8469  0.7027
  175SAPI   C2819887   4.768   3.773   7.218 -0.9841 -0.4636 -0.9625
  175SAPI   H8R19888   4.808   3.793   7.118 -0.6639  0.0872 -0.7345
  175SAPI   C2919889   4.847   3.711   7.313  0.2310 -0.2680 -0.2023
  175SAPI   H9R19890   4.949   3.684   7.281  0.0459 -0.6320 -0.5058
  175SAPI  C21019891   4.814   3.698   7.464 -0.5644 -0.7411 -0.3774
  175SAPI  H10R19892   4.838   3.592   7.490  0.8002 -0.7842 -1.6807
  175SAPI  H10S19893   4.709   3.730   7.483 -0.2797  0.1683 -0.2813
  175SAPI  C21119894   4.899   3.791   7.549 -0.4142  0.0554 -0.7728
  175SAPI  H11R19895   4.916   3.888   7.500 -1.0792  0.8734  0.5611
  175SAPI  C21219896   4.945   3.779   7.675  0.3478  0.3184  0.3869
  175SAPI  H12R19897   4.998   3.866   7.715 -0.7384 -0.2369  3.2441
  175SAPI  C21319898   4.918   3.664   7.774 -0.5615 -0.1793 -0.3680
  175SAPI  H13R19899   4.813   3.630   7.758 -0.4630 -1.0446  0.7149
  175SAPI  H13S19900   4.918   3.688   7.882 -0.6876  0.4577 -0.5010
  175SAPI  C21419901   5.002   3.545   7.742  0.2677  0.5383  0.4295
  175SAPI  H14R19902   5.081   3.541   7.665  1.0169 -1.2022  1.2274
  175SAPI  C21519903   4.982   3.424   7.797 -0.1392 -0.4282 -0.0645
  175SAPI  H15R19904   5.047   3.344   7.759  0.9444 -0.0158  0.8794
  175SAPI  C21619905   4.880   3.392   7.902  0.5028 -0.7712  0.0116
  175SAPI  H16R19906   4.822   3.300   7.876  2.1162 -1.5706 -0.8892
  175SAPI  H16S19907   4.803   3.472   7.910  1.4385 -0.0047  1.6935
  175SAPI  C21719908   4.946   3.358   8.038  0.5488 -0.0329  0.3004
  175SAPI  H17R19909   5.008   3.266   8.029 -1.5016 -1.5576  1.0306
  175SAPI  H17S19910   4.864   3.330   8.108  0.3202 -2.0970 -0.7322
  175SAPI  C21819911   5.019   3.469   8.111 -0.0272  0.0456  0.9272
  175SAPI  H18R19912   4.947   3.553   8.109  0.2475  0.2708 -0.4361
  175SAPI  H18S19913   5.093   3.500   8.034 -2.1318 -1.0998 -1.7455
  175SAPI  C21919914   5.079   3.428   8.242  0.2705 -1.2206  0.4591
  175SAPI  H19R19915   5.125   3.328   8.233  2.3496 -0.4425  1.7480
  175SAPI  H19S19916   4.999   3.416   8.318 -1.3349 -1.9568 -1.2928
  175SAPI  C22019917   5.186   3.520   8.296 -0.1261 -0.8307 -0.0101
  175SAPI  H20R19918   5.258   3.535   8.213  2.0219  3.2474  2.2929
  175SAPI  H20S19919   5.236   3.473   8.383  0.9709  1.5818  0.7508
  175SAPI  H20T19920   5.152   3.624   8.315 -1.4566 -0.4982 -3.3754
  175SAPI   C3319921   4.053   3.618   6.976 -0.5030 -0.2202 -0.2558
  175SAPI   H3X19922   3.982   3.537   6.952  0.3242 -1.5049  1.4519
  175SAPI   H3Y19923   4.020   3.719   6.944 -1.2147  0.3654  2.1312
  175SAPI   C3419924   4.064   3.625   7.131  0.6302  0.1009  0.0213
  175SAPI   H4X19925   4.121   3.712   7.168 -0.2133  1.5483 -1.9007
  175SAPI   H4Y19926   4.125   3.542   7.173  0.8586 -0.1173 -0.7135
  175SAPI   C3519927   3.923   3.620   7.188 -0.0943 -0.1887 -0.7130
  175SAPI   H5X19928   3.885   3.523   7.150  1.1922 -1.6308  1.4578
  175SAPI   H5Y19929   3.864   3.704   7.145 -0.1872  0.0181 -0.1796
  175SAPI   C3619930   3.925   3.617   7.338 -0.4575 -1.0657 -0.3988
  175SAPI   H6X19931   4.004   3.550   7.378  2.8674  0.3364 -3.9646
  175SAPI   H6Y19932   3.825   3.581   7.372 -0.6877  0.5502  0.7448
  175SAPI   C3719933   3.955   3.758   7.396  0.5809  0.3622  0.4507
  175SAPI   H7X19934   3.882   3.835   7.364  0.1848  0.0311  0.5577
  175SAPI   H7Y19935   4.058   3.784   7.362  0.3323  0.6098 -0.1149
  175SAPI   C3819936   3.952   3.755   7.547 -0.4338  0.0902 -0.2984
  175SAPI   H8X19937   4.042   3.715   7.599 -0.2664  1.0501  0.1614
  175SAPI   H8Y19938   3.859   3.707   7.586 -0.4357  0.0473 -0.3549
  175SAPI   C3919939   3.947   3.889   7.615  0.1617  0.4081 -0.0500
  175SAPI   H9X19940   3.867   3.950   7.568 -1.3033 -1.1145  0.3720
  175SAPI   H9Y19941   4.044   3.938   7.597 -1.3533  4.1231  0.8852
  175SAPI  C31019942   3.913   3.875   7.761  0.5651 -0.8687 -0.5407
  175SAPI  H10X19943   3.869   3.775   7.780  1.5662 -1.7875 -2.7700
  175SAPI  H10Y19944   3.845   3.958   7.789 -0.3899 -1.4093 -1.2049
  175SAPI  C31119945   4.034   3.907   7.852 -1.1511  0.0237 -0.0117
  175SAPI  H11X19946   4.066   4.008   7.818 -1.2220 -0.1118 -0.4851
  175SAPI  H11Y19947   4.115   3.833   7.832  0.0991  1.8277 -2.0948
  175SAPI  C31219948   4.008   3.903   8.004  0.2708  0.0472 -0.1835
  175SAPI  H12X19949   3.904   3.944   8.009  0.5022  0.8870 -1.6767
  175SAPI  H12Y19950   4.069   3.976   8.061 -1.4192  0.1606  1.6060
  175SAPI  C31319951   4.018   3.765   8.057 -0.5650 -0.4848 -0.7306
  175SAPI  H13X19952   3.935   3.699   8.023 -0.4579 -1.0669  0.0803
  175SAPI  H13Y19953   3.995   3.774   8.166 -0.2470 -1.7140 -0.5467
  175SAPI  C31419954   4.160   3.711   8.049  0.1710  0.2040 -0.0055
  175SAPI  H14X19955   4.230   3.797   8.060  1.0603 -0.6278  1.0052
  175SAPI  H14Y19956   4.182   3.662   7.952 -1.2172  1.0200 -0.7739
  175SAPI  C31519957   4.193   3.601   8.156 -0.0533  0.0276 -0.3182
  175SAPI  H15X19958   4.142   3.503   8.145 -1.6015  0.6514  0.9180
  175SAPI  H15Y19959   4.151   3.641   8.251 -2.4757 -0.7184 -1.0010
  175SAPI  C31619960   4.344   3.577   8.161 -0.9734 -0.1480  0.0377
  175SAPI  H16X19961   4.403   3.671   8.166 -2.9008  1.4191 -3.3806
  175SAPI  H16Y19962   4.384   3.515   8.078  1.1885  1.0925  0.1017
  175SAPI  C31719963   4.390   3.504   8.291 -0.2110 -0.8884 -0.2633
  175SAPI  H17X19964   4.327   3.415   8.315  1.2209 -1.5331  1.2625
  175SAPI  H17Y19965   4.387   3.567   8.383  1.9901  1.2005 -1.5175
  175SAPI  C31819966   4.529   3.453   8.263 -0.1969 -0.6499 -0.3997
  175SAPI  H18X19967   4.565   3.399   8.353 -1.0760  0.2764  0.5263
  175SAPI  H18Y19968   4.612   3.522   8.233 -1.6319  1.0690 -0.5693
  175SAPI  H18Z19969   4.521   3.375   8.184  0.4881 -0.3993 -0.7369
  176SAPI   C1219970   3.165   1.281   6.731  0.2153 -0.3369 -0.2128
  176SAPI    H219971   3.170   1.387   6.765  3.4994  0.2447 -2.0814
  176SAPI    O219972   3.300   1.233   6.716  0.0233 -0.1204 -0.4539
  176SAPI   HO219973   3.345   1.292   6.655 -0.1640  0.2555 -0.2362
  176SAPI   C1319974   3.078   1.216   6.835  0.0194 -0.5508  0.0197
  176SAPI    H319975   2.973   1.254   6.839 -0.6271 -2.1472 -0.7238
  176SAPI    O319976   3.131   1.225   6.969  0.1424 -0.1755  0.4122
  176SAPI   HO319977   3.223   1.196   6.969 -0.3077 -1.6756 -0.1907
  176SAPI   C1419978   3.067   1.074   6.775  0.5691 -0.6113 -0.2964
  176SAPI    H419979   3.169   1.029   6.776  0.1629 -1.5257  0.6421
  176SAPI    O419980   2.994   0.982   6.854  0.5396  0.3501  0.0129
  176SAPI   HO419981   2.903   1.011   6.845  0.5880  0.0254 -1.8354
  176SAPI   C1519982   3.005   1.072   6.637 -0.8658  0.2139 -0.2751
  176SAPI    H519983   2.902   1.114   6.643 -0.0869  2.1070  0.7080
  176SAPI    O519984   2.989   0.936   6.582 -0.3792  0.2768  0.2720
  176SAPI   HO519985   3.076   0.896   6.575  0.1483  1.2692  0.9037
  176SAPI   C1619986   3.086   1.154   6.533  0.0874  0.1600  0.0120
  176SAPI    H619987   3.184   1.106   6.510 -0.4290 -0.5006 -0.8849
  176SAPI    O619988   3.014   1.165   6.416 -0.6126 -0.3886  0.4317
  176SAPI   HO619989   3.032   1.091   6.358 -2.9681  0.0233 -0.9487
  176SAPI   C1119990   3.104   1.300   6.590  0.0516  0.5692 -0.7801
  176SAPI    H119991   2.998   1.329   6.608 -0.3608 -0.6379 -1.1568
  176SAPI     P19992   3.104   1.513   6.420  0.1519  0.1223  0.5243
  176SAPI   O1319993   2.967   1.486   6.378  0.6555  0.1934 -0.5682
  176SAPI   O1419994   3.202   1.538   6.312 -0.0627 -0.7600  0.1262
  176SAPI   O1219995   3.171   1.395   6.507 -1.0222  0.1435 -0.5080
  176SAPI   O1119996   3.098   1.630   6.529 -0.1668 -0.2196  0.6957
  176SAPI    C119997   3.225   1.688   6.558 -0.0657 -0.2522 -0.1504
  176SAPI    HA19998   3.307   1.612   6.566 -1.1670 -1.5031 -0.3915
  176SAPI    HB19999   3.251   1.753   6.471  0.7227 -1.0781 -0.5483
  176SAPI    C220000   3.228   1.773   6.693  0.5806 -0.3510 -0.6207
  176SAPI    HS20001   3.331   1.815   6.700  0.7182 -0.4238 -1.9484
  176SAPI   O2120002   3.200   1.682   6.806  0.1780  0.1316 -0.2749
  176SAPI   C2120003   3.264   1.715   6.916  0.3288  0.1318  0.1044
  176SAPI   O2220004   3.352   1.804   6.924  0.0211  0.0901  0.4210
  176SAPI   C2220005   3.231   1.603   7.024 -0.2612  0.4666  0.4873
  176SAPI   H2R20006   3.122   1.596   7.041 -0.0938  0.9350  1.9176
  176SAPI   H2S20007   3.275   1.515   6.971 -0.1689 -0.2439  1.7096
  176SAPI    C320008   3.118   1.880   6.693  0.6236  0.6794  0.4663
  176SAPI    HX20009   3.019   1.832   6.684  1.7665 -2.0857  1.5838
  176SAPI    HY20010   3.133   1.945   6.604 -1.2321  0.7041  0.1403
  176SAPI   O3120011   3.126   1.962   6.814 -0.4827 -0.1640 -0.3586
  176SAPI   C3120012   3.034   2.052   6.817 -1.0874  0.2160  0.6906
  176SAPI   O3220013   2.947   2.069   6.733 -0.0857 -0.1585  0.1586
  176SAPI   C3220014   3.045   2.143   6.933  0.9305 -0.1789  0.4323
  176SAPI   H2X20015   3.149   2.140   6.973  0.8132 -4.4015  0.9262
  176SAPI   H2Y20016   2.978   2.107   7.014 -1.3243  0.5813 -1.0072
  176SAPI   C2320017   3.295   1.629   7.159  0.4219 -1.1930  0.6884
  176SAPI   H3R20018   3.270   1.728   7.201  0.2321 -1.5028  1.3163
  176SAPI   H3S20019   3.400   1.652   7.130  0.5654 -1.6069  0.8709
  176SAPI   C2420020   3.288   1.510   7.255  0.5292  0.2941  0.4565
  176SAPI   H4R20021   3.375   1.513   7.324  0.0026 -0.1031  1.1497
  176SAPI   H4S20022   3.302   1.416   7.198  1.9848  0.2420  0.8778
  176SAPI   C2520023   3.157   1.509   7.334  0.5356 -0.2677  0.4978
  176SAPI   H5R20024   3.076   1.466   7.274  1.6484 -0.8286 -0.6458
  176SAPI   C2620025   3.148   1.560   7.457 -0.6944 -0.4647  0.0563
  176SAPI   H6R20026   3.049   1.561   7.505 -0.6037 -1.2894  0.2897
  176SAPI   C2720027   3.254   1.608   7.555 -0.0359  1.2159 -0.4225
  176SAPI   H7R20028   3.222   1.710   7.586 -2.3961  0.0958  1.1341
  176SAPI   H7S20029   3.352   1.614   7.504  1.2546  0.1528  1.7982
  176SAPI   C2820030   3.274   1.521   7.678  0.4606 -0.0795 -0.2253
  176SAPI   H8R20031   3.239   1.417   7.674 -1.9366  0.6959 -1.2893
  176SAPI   C2920032   3.307   1.574   7.802  0.3221  0.3300  0.4742
  176SAPI   H9R20033   3.309   1.512   7.893  0.9538  0.3667  0.4907
  176SAPI  C21020034   3.357   1.718   7.821  0.2102  0.4627 -0.6560
  176SAPI  H10R20035   3.271   1.780   7.853 -1.8244 -1.7412 -1.5726
  176SAPI  H10S20036   3.410   1.764   7.735  1.0767  1.2877  0.2960
  176SAPI  C21120037   3.426   1.725   7.954 -0.1337  0.4103 -0.0919
  176SAPI  H11R20038   3.386   1.665   8.037 -0.2513  1.4390  0.6214
  176SAPI  C21220039   3.513   1.824   7.981  0.5665 -0.2729  0.0709
  176SAPI  H12R20040   3.561   1.806   8.079  1.5690 -2.7286 -0.7847
  176SAPI  C21320041   3.558   1.940   7.890  0.2125  0.5275  0.0816
  176SAPI  H13R20042   3.548   2.035   7.947 -0.1061  1.2320 -1.1134
  176SAPI  H13S20043   3.479   1.954   7.813 -0.2907  0.1045  0.5098
  176SAPI  C21420044   3.697   1.927   7.832  0.0588 -0.4397 -0.1987
  176SAPI  H14R20045   3.777   1.898   7.903  1.3003 -0.7720 -1.6773
  176SAPI  C21520046   3.735   1.932   7.703  0.3969 -0.1502 -0.2229
  176SAPI  H15R20047   3.840   1.912   7.680  0.0568  0.1182 -2.1313
  176SAPI  C21620048   3.644   1.962   7.587 -0.0120 -0.0351 -0.7466
  176SAPI  H16R20049   3.678   2.054   7.534  0.6748  0.4945  0.5795
  176SAPI  H16S20050   3.543   1.993   7.621 -0.7640  0.8697 -3.5470
  176SAPI  C21720051   3.620   1.852   7.483 -0.2168 -0.3461 -0.0300
  176SAPI  H17R20052   3.578   1.766   7.540 -0.9200  0.0730  0.0946
  176SAPI  H17S20053   3.714   1.825   7.431 -0.7365  0.5326 -1.4934
  176SAPI  C21820054   3.509   1.891   7.381  0.4365  0.1083 -0.1702
  176SAPI  H18R20055   3.424   1.942   7.432  1.4007 -0.3159  2.0058
  176SAPI  H18S20056   3.475   1.799   7.330 -0.2143  0.9519 -1.2999
  176SAPI  C21920057   3.573   1.970   7.265 -0.0003 -0.3082  0.0231
  176SAPI  H19R20058   3.648   1.902   7.220 -0.7349 -0.7226 -0.5957
  176SAPI  H19S20059   3.629   2.062   7.291 -2.1601  0.7436  1.3201
  176SAPI  C22020060   3.470   2.008   7.165  0.0800 -0.1502 -0.1337
  176SAPI  H20R20061   3.505   2.087   7.095  0.8521 -0.1700  0.2275
  176SAPI  H20S20062   3.372   2.042   7.206  0.0653  0.1346 -0.4007
  176SAPI  H20T20063   3.459   1.919   7.099 -0.2157 -1.8574  2.1042
  176SAPI   C3320064   2.984   2.282   6.895  0.4312  1.3679  0.5310
  176SAPI   H3X20065   2.873   2.276   6.892  0.4966  0.0122 -1.8151
  176SAPI   H3Y20066   3.020   2.311   6.794  0.1383 -0.4131 -0.1303
  176SAPI   C3420067   3.041   2.377   6.991 -0.1978 -0.2174  0.4624
  176SAPI   H4X20068   3.143   2.389   6.950 -0.8582 -1.1288 -1.5831
  176SAPI   H4Y20069   3.030   2.345   7.097  0.7208  0.5062  0.7866
  176SAPI   C3520070   2.968   2.512   6.991  0.5737 -0.5271 -0.0095
  176SAPI   H5X20071   2.873   2.519   7.047  1.9579  3.8792  2.2341
  176SAPI   H5Y20072   2.958   2.532   6.882 -0.5923 -1.4169 -0.0769
  176SAPI   C3620073   3.070   2.618   7.039 -0.2441 -0.2156  0.7749
  176SAPI   H6X20074   3.028   2.717   7.011 -1.6693 -1.0805 -0.3329
  176SAPI   H6Y20075   3.158   2.601   6.973  0.3537  0.1727  1.4642
  176SAPI   C3720076   3.114   2.603   7.184 -0.5523 -0.3836  0.0322
  176SAPI   H7X20077   3.199   2.675   7.192 -1.2755  0.8094 -2.0313
  176SAPI   H7Y20078   3.165   2.505   7.182 -0.9333 -0.5685 -0.9109
  176SAPI   C3820079   3.015   2.609   7.298 -0.8666  0.1517 -0.0727
  176SAPI   H8X20080   2.958   2.515   7.312 -1.3989  0.1030 -2.2827
  176SAPI   H8Y20081   2.936   2.684   7.272 -2.5647 -1.1258  1.1480
  176SAPI   C3920082   3.075   2.641   7.435  0.0236  0.0449 -0.0468
  176SAPI   H9X20083   3.127   2.739   7.426 -1.0838  0.6370 -0.1898
  176SAPI   H9Y20084   3.143   2.557   7.459 -1.1454 -1.0775 -0.5292
  176SAPI  C31020085   2.968   2.639   7.549 -0.3676 -0.6558  0.1016
  176SAPI  H10X20086   2.937   2.534   7.564  1.6646 -1.3805 -0.4668
  176SAPI  H10Y20087   2.880   2.700   7.519 -0.1624  0.0897  0.9592
  176SAPI  C31120088   3.018   2.692   7.682  0.4982  0.1627  0.0616
  176SAPI  H11X20089   2.927   2.713   7.741 -0.5086 -1.1116 -0.9743
  176SAPI  H11Y20090   3.075   2.787   7.681  0.7560  0.0231 -1.3042
  176SAPI  C31220091   3.093   2.592   7.764  0.0863 -0.0740  0.0547
  176SAPI  H12X20092   3.195   2.568   7.725  0.8056 -2.2796  2.9364
  176SAPI  H12Y20093   3.041   2.495   7.779 -0.3138 -0.0355 -1.0392
  176SAPI  C31320094   3.113   2.651   7.899 -0.1620 -0.3337 -0.1516
  176SAPI  H13X20095   3.022   2.706   7.933 -0.4239 -0.0533 -1.2577
  176SAPI  H13Y20096   3.185   2.734   7.879  0.0789 -0.7890 -1.2645
  176SAPI  C31420097   3.161   2.549   8.010 -0.0498 -0.6016  0.0151
  176SAPI  H14X20098   3.266   2.518   7.990  1.2917  1.7945  2.6317
  176SAPI  H14Y20099   3.085   2.469   8.006 -0.4139 -0.2575  0.0162
  176SAPI  C31520100   3.165   2.604   8.151  0.0840  0.0059  0.4451
  176SAPI  H15X20101   3.210   2.706   8.159  0.6623 -0.2148  0.0141
  176SAPI  H15Y20102   3.231   2.535   8.207 -1.7675 -4.2538 -2.1001
  176SAPI  C31620103   3.031   2.607   8.229 -0.2730  0.4177 -0.3421
  176SAPI  H16X20104   2.984   2.509   8.209  0.7223  0.4266 -3.1651
  176SAPI  H16Y20105   2.972   2.690   8.185  0.9905  1.0547 -0.8838
  176SAPI  C31720106   3.051   2.634   8.382  0.1589 -0.0969 -0.2127
  176SAPI  H17X20107   2.953   2.662   8.425  0.5604 -0.2364  0.8158
  176SAPI  H17Y20108   3.130   2.709   8.404 -0.2799  0.1830  0.4032
  176SAPI  C31820109   3.091   2.501   8.454 -0.5726 -0.1945  0.1117
  176SAPI  H18X20110   3.074   2.522   8.562 -3.5288  0.8020 -0.4493
  176SAPI  H18Y20111   3.197   2.479   8.430 -0.5024 -1.2170  1.2745
  176SAPI  H18Z20112   3.021   2.421   8.424  0.5024 -0.8729 -0.6543
  177SLPC     N20113   1.457   5.876  11.148 -0.9941 -0.7368  0.8308
  177SLPC   C1320114   1.610   5.865  11.131  0.9634 -0.0226 -0.2438
  177SLPC  H13A20115   1.656   5.961  11.111 -0.5808  0.3141 -2.6823
  177SLPC  H13B20116   1.640   5.827  11.227 -1.6497  0.3701  0.8047
  177SLPC  H13C20117   1.645   5.799  11.053  0.8108 -1.3075  0.7387
  177SLPC   C1420118   1.429   5.992  11.241 -0.1272 -0.3593 -0.1933
  177SLPC  H14A20119   1.328   5.996  11.277  0.1193 -1.3405  0.6305
  177SLPC  H14B20120   1.492   5.989  11.329  1.6095  0.7168 -1.3185
  177SLPC  H14C20121   1.460   6.084  11.194  1.4810 -0.5367  0.4481
  177SLPC   C1520122   1.406   5.742  11.203  0.5326  0.2402  0.1638
  177SLPC  H15A20123   1.419   5.667  11.126  1.3793 -0.2685  0.7963
  177SLPC  H15B20124   1.462   5.711  11.289 -0.9124 -0.8274  0.7669
  177SLPC  H15C20125   1.301   5.739  11.227  1.1583 -1.6018  3.1656
  177SLPC   C1220126   1.383   5.907  11.007  0.5404  0.2065 -0.2118
  177SLPC  H12A20127   1.280   5.926  11.032  0.6651 -0.7309  1.1244
  177SLPC  H12B20128   1.384   5.812  10.955 -0.0607  0.2425 -0.2997
  177SLPC   C1120129   1.427   6.025  10.919 -0.5696  0.0706  0.2160
  177SLPC  H11A20130   1.375   6.002  10.824 -0.9398 -1.7850  0.8262
  177SLPC  H11B20131   1.538   6.024  10.914 -0.4795  1.3264  1.3330
  177SLPC     P20132   1.323   6.270  10.902  0.1657 -0.0178  0.0484
  177SLPC   O1320133   1.177   6.280  10.928 -0.2502  0.2210 -0.4903
  177SLPC   O1420134   1.401   6.390  10.934  0.4649  0.0403 -1.2186
  177SLPC   O1220135   1.389   6.154  10.977  0.3469 -0.1650  0.2785
  177SLPC   O1120136   1.345   6.230  10.751 -0.3437 -0.1044 -0.0432
  177SLPC    C120137   1.477   6.252  10.691 -0.2585  0.1507  0.1011
  177SLPC    HA20138   1.560   6.241  10.764 -2.2979 -0.1378  2.5099
  177SLPC    HB20139   1.491   6.167  10.620 -0.7531 -0.0389  0.2265
  177SLPC    C220140   1.494   6.392  10.624 -0.2315 -0.8396  0.0847
  177SLPC    HS20141   1.455   6.470  10.693  2.4722  1.4503 -0.8027
  177SLPC   O2120142   1.422   6.386  10.507  0.6884 -0.1950  0.0814
  177SLPC   C2120143   1.369   6.499  10.457 -0.3581  0.0940 -0.7397
  177SLPC   O2220144   1.381   6.607  10.516  0.2462  0.3534  0.2683
  177SLPC   C2220145   1.287   6.478  10.330  0.1118  0.1913 -0.3296
  177SLPC   H2R20146   1.311   6.373  10.301  0.4946 -0.6858  2.7688
  177SLPC   H2S20147   1.180   6.476  10.358  0.3971 -0.1027  0.8090
  177SLPC    C320148   1.645   6.443  10.599 -0.3892 -0.5168  0.2253
  177SLPC    HX20149   1.708   6.447  10.690  1.7515 -2.5648 -1.0552
  177SLPC    HY20150   1.638   6.545  10.557  1.6532 -0.7646 -0.8649
  177SLPC   O3120151   1.712   6.352  10.508 -0.3294  0.3201 -0.3679
  177SLPC   C3120152   1.696   6.365  10.371  1.1158 -1.2957  0.0350
  177SLPC   O3220153   1.631   6.449  10.314 -0.0144 -0.2575 -0.0502
  177SLPC   C3220154   1.774   6.256  10.310 -0.1635  0.0507  0.5030
  177SLPC   H2X20155   1.828   6.188  10.380  0.2966  0.1503  0.2473
  177SLPC   H2Y20156   1.854   6.296  10.244 -2.1084  1.4670 -1.1259
  177SLPC   C2320157   1.331   6.567  10.219  0.1664  0.2204  0.0179
  177SLPC   H3R20158   1.441   6.570  10.213  0.1437  0.3154 -0.4228
  177SLPC   H3S20159   1.301   6.669  10.251  0.2954  0.2354  0.0902
  177SLPC   C2420160   1.270   6.522  10.085  0.4143 -0.0033  1.1725
  177SLPC   H4R20161   1.161   6.502  10.093 -0.1795  0.7833 -3.0134
  177SLPC   H4S20162   1.310   6.424  10.053  1.2902  0.6923  0.0694
  177SLPC   C2520163   1.288   6.623   9.965 -0.5357  0.3807 -0.4941
  177SLPC   H5R20164   1.396   6.648   9.966  0.0208 -1.7389 -1.6827
  177SLPC   H5S20165   1.235   6.719   9.987  1.7818  2.2151 -2.3311
  177SLPC   C2620166   1.260   6.568   9.829  0.6212  0.9977  0.3350
  177SLPC   H6R20167   1.156   6.529   9.827  1.0879 -0.3231 -2.5198
  177SLPC   H6S20168   1.318   6.475   9.812 -1.7613 -0.7695  1.2231
  177SLPC   C2720169   1.277   6.680   9.729 -0.1349  0.4692  0.6855
  177SLPC   H7R20170   1.384   6.711   9.733 -0.0849  0.3374  0.4381
  177SLPC   H7S20171   1.218   6.768   9.762 -0.0756  0.5600  0.5492
  177SLPC   C2820172   1.225   6.644   9.579 -0.3518 -0.1113 -1.3043
  177SLPC   H8R20173   1.221   6.738   9.519  1.4718 -0.0293 -1.3551
  177SLPC   H8S20174   1.123   6.601   9.582  0.0137 -1.0285 -1.5492
  177SLPC   C2920175   1.314   6.544   9.518  0.2783  0.1749  0.2581
  177SLPC   H9R20176   1.416   6.534   9.558  0.0961 -0.7337  0.5131
  177SLPC  C21020177   1.287   6.472   9.409  0.2750 -0.6032 -0.4163
  177SLPC  H10R20178   1.348   6.384   9.384 -1.1991 -1.0085 -2.9760
  177SLPC  C21120179   1.157   6.474   9.326  0.3577  0.2054 -0.2691
  177SLPC  H11R20180   1.163   6.385   9.260  1.0464 -0.5816  0.8143
  177SLPC  H11S20181   1.071   6.450   9.393  2.5192 -2.0691  1.9343
  177SLPC  C21220182   1.134   6.601   9.244  0.6461  0.1136  0.1395
  177SLPC  H12R20183   1.144   6.695   9.302  0.5600  0.3386 -0.2058
  177SLPC  C21320184   1.087   6.611   9.117  0.3700  0.0217 -0.1854
  177SLPC  H13R20185   1.075   6.715   9.082 -0.2817 -0.0616 -0.2043
  177SLPC  C21420186   1.052   6.501   9.014 -0.7622 -0.3553 -0.4206
  177SLPC  H14R20187   0.950   6.522   8.974 -1.4040  1.0497  1.7250
  177SLPC  H14S20188   1.043   6.403   9.066  0.8898 -0.0491  0.5183
  177SLPC  C21520189   1.154   6.493   8.904  0.5442 -0.7571  0.0011
  177SLPC  H15R20190   1.144   6.582   8.838 -0.1556 -0.8329  0.0019
  177SLPC  H15S20191   1.138   6.403   8.841  0.3028  0.9260 -2.4821
  177SLPC  C21620192   1.302   6.491   8.944 -0.5793  0.4520  0.3834
  177SLPC  H16R20193   1.328   6.402   9.006 -0.2183  0.0445 -0.3299
  177SLPC  H16S20194   1.324   6.583   9.001 -0.1341  0.9507 -0.5652
  177SLPC  C21720195   1.392   6.503   8.826 -0.1457  0.4063 -0.3273
  177SLPC  H17R20196   1.496   6.526   8.857 -0.8836  1.3869  1.5926
  177SLPC  H17S20197   1.353   6.594   8.776 -0.2278  0.9441  0.6884
  177SLPC  C21820198   1.403   6.375   8.741 -0.6559  0.1214  0.0205
  177SLPC  H18R20199   1.478   6.309   8.788  2.2552  2.5270 -0.9026
  177SLPC  H18S20200   1.446   6.401   8.642 -1.6705 -0.8392 -0.6941
  177SLPC  H18T20201   1.305   6.326   8.726 -0.8579 -0.6354  3.0639
  177SLPC   C3320202   1.688   6.159  10.223  0.5736 -0.5770 -0.2518
  177SLPC   H3X20203   1.618   6.098  10.285 -0.5887 -0.1859 -1.1376
  177SLPC   H3Y20204   1.750   6.080  10.176  1.7722 -0.8012  1.6318
  177SLPC   C3420205   1.606   6.225  10.115  0.5198  0.0193  0.2583
  177SLPC   H4X20206   1.522   6.285  10.155  0.4146  0.6726 -0.9123
  177SLPC   H4Y20207   1.558   6.143  10.058 -0.2287 -0.2102  1.1950
  177SLPC   C3520208   1.683   6.316  10.012 -0.5934  0.6306  0.1822
  177SLPC   H5X20209   1.735   6.250   9.940 -1.7432 -2.3985  1.9279
  177SLPC   H5Y20210   1.761   6.366  10.074 -0.2495 -0.2935  0.4998
  177SLPC   C3620211   1.594   6.418   9.940  0.3938  0.0553  0.5517
  177SLPC   H6X20212   1.588   6.503  10.011 -2.8902  1.5389 -1.2460
  177SLPC   H6Y20213   1.494   6.373   9.922  0.0278  1.4875 -1.4029
  177SLPC   C3720214   1.642   6.460   9.795  0.5367  1.0429 -0.1602
  177SLPC   H7X20215   1.746   6.499   9.800  0.5220  1.0561  3.8492
  177SLPC   H7Y20216   1.578   6.546   9.767 -0.5791 -0.5712 -2.9436
  177SLPC   C3820217   1.622   6.344   9.692 -0.5942 -0.0311 -0.6341
  177SLPC   H8X20218   1.516   6.313   9.681 -0.9237  1.2101 -1.0893
  177SLPC   H8Y20219   1.675   6.253   9.728 -0.2452 -0.2135 -1.5698
  177SLPC   C3920220   1.673   6.359   9.547  0.7831  0.1461  0.0852
  177SLPC   H9X20221   1.782   6.380   9.544  0.9627 -0.8087 -1.7141
  177SLPC   H9Y20222   1.628   6.456   9.519  1.3859 -0.2646 -2.5789
  177SLPC  C31020223   1.628   6.235   9.455 -0.0690 -0.6798  0.0023
  177SLPC  H10X20224   1.518   6.222   9.460  0.0537 -2.2737 -0.8376
  177SLPC  H10Y20225   1.665   6.143   9.505 -1.1390 -0.7162  0.7478
  177SLPC  C31120226   1.692   6.256   9.323  0.2479 -0.2240 -0.0697
  177SLPC  H11X20227   1.788   6.200   9.323 -0.2911 -1.2542  2.5148
  177SLPC  H11Y20228   1.705   6.360   9.287  0.3902 -0.7134 -1.5221
  177SLPC  C31220229   1.594   6.190   9.220  0.3121  0.2810  0.4390
  177SLPC  H12X20230   1.499   6.246   9.211 -0.6418 -1.0419  1.7999
  177SLPC  H12Y20231   1.563   6.096   9.271 -2.6248  0.0558 -1.5479
  177SLPC  C31320232   1.648   6.161   9.078  0.1036  0.2942  0.3358
  177SLPC  H13X20233   1.619   6.247   9.014  2.0803 -0.9560 -2.4544
  177SLPC  H13Y20234   1.589   6.076   9.038 -1.8837  2.0168 -0.5421
  177SLPC  C31420235   1.799   6.131   9.062  0.2452 -0.5874 -0.0096
  177SLPC  H14X20236   1.820   6.058   9.143 -0.9940 -0.1257  0.7576
  177SLPC  H14Y20237   1.850   6.225   9.094  0.2497 -1.1185  1.6459
  177SLPC  C31520238   1.836   6.084   8.925 -0.7684  0.4737  0.5000
  177SLPC  H15X20239   1.769   6.001   8.893 -0.2132  0.8230 -1.7373
  177SLPC  H15Y20240   1.941   6.049   8.933 -0.1312  1.4209 -2.5058
  177SLPC  C31620241   1.835   6.190   8.822  0.5886  0.5134 -0.0458
  177SLPC  H16X20242   1.909   6.269   8.845  0.4093  0.2005  1.7022
  177SLPC  H16Y20243   1.736   6.241   8.825 -0.5168 -1.5475  0.4892
  177SLPC  C31720244   1.861   6.146   8.675 -0.0797 -0.4249  0.0430
  177SLPC  H17X20245   1.848   6.237   8.614  1.6529 -1.0624 -1.3803
  177SLPC  H17Y20246   1.789   6.063   8.659  0.1470 -0.7079  0.4428
  177SLPC  C31820247   2.001   6.104   8.640  0.0229  0.1896 -0.3656
  177SLPC  H18X20248   2.066   6.184   8.682 -1.6365  0.8270  1.1119
  177SLPC  H18Y20249   2.018   6.095   8.531  3.8655 -1.8621  0.2126
  177SLPC  H18Z20250   2.026   6.007   8.690 -0.4152 -0.1732 -0.8416
  178SLPC     N20251   2.743   2.217  11.293  0.0077  0.4318 -0.3130
  178SLPC   C1320252   2.609   2.288  11.276  0.0025  0.3438  0.2852
  178SLPC  H13A20253   2.548   2.306  11.363 -1.4258 -2.8640  0.0603
  178SLPC  H13B20254   2.624   2.381  11.223  1.6682 -0.0281  0.0456
  178SLPC  H13C20255   2.546   2.232  11.209  0.8337  0.1022 -0.3193
  178SLPC   C1420256   2.719   2.094  11.387  0.0726  0.0778 -0.8057
  178SLPC  H14A20257   2.812   2.049  11.420 -0.7141  0.1697  1.7806
  178SLPC  H14B20258   2.668   2.131  11.474  2.9243  1.6460  0.3527
  178SLPC  H14C20259   2.646   2.033  11.336 -1.5700  0.2000  1.2694
  178SLPC   C1520260   2.838   2.312  11.357 -0.0775  0.5325 -0.7811
  178SLPC  H15A20261   2.927   2.257  11.387 -1.1047 -0.7806 -0.0297
  178SLPC  H15B20262   2.866   2.389  11.286 -0.8694 -0.4105 -2.1773
  178SLPC  H15C20263   2.807   2.353  11.451  2.0218 -1.2384  0.8133
  178SLPC   C1220264   2.800   2.155  11.163  0.2649 -0.4301  0.4468
  178SLPC  H12A20265   2.729   2.075  11.145 -4.1095  2.2144  3.8702
  178SLPC  H12B20266   2.895   2.113  11.190 -0.4993 -1.6533  1.3858
  178SLPC   C1120267   2.793   2.246  11.037  0.0673  0.7568  0.3201
  178SLPC  H11A20268   2.695   2.296  11.025 -1.3818 -2.2311 -1.0783
  178SLPC  H11B20269   2.800   2.182  10.947  0.0076  0.1922  0.7168
  178SLPC     P20270   3.042   2.321  10.987 -0.3471  0.0281 -0.1572
  178SLPC   O1320271   3.120   2.434  11.031 -0.0114  0.0543 -0.2387
  178SLPC   O1420272   3.082   2.185  11.020 -0.1395  0.2232 -0.2649
  178SLPC   O1220273   2.897   2.343  11.041 -0.3982  0.4346 -0.4182
  178SLPC   O1120274   3.016   2.333  10.827  0.3684 -0.7402 -0.0059
  178SLPC    C120275   2.927   2.433  10.781  0.3597 -0.0596  0.2103
  178SLPC    HA20276   2.824   2.390  10.784  0.2895  0.0129 -0.7324
  178SLPC    HB20277   2.910   2.519  10.848 -0.8541 -0.2514  0.1854
  178SLPC    C220278   2.952   2.489  10.642 -0.0665 -0.7558  0.1430
  178SLPC    HS20279   2.870   2.556  10.607  2.6179  2.7106 -0.0233
  178SLPC   O2120280   2.985   2.378  10.556  0.0687  0.0575 -0.6306
  178SLPC   C2120281   2.888   2.309  10.511  0.0543 -0.5952  0.1488
  178SLPC   O2220282   2.769   2.339  10.535  0.3099  0.1296 -0.1472
  178SLPC   C2220283   2.937   2.175  10.443  0.2224  0.1298  0.0910
  178SLPC   H2R20284   2.954   2.097  10.521  0.6415 -0.1036 -0.2341
  178SLPC   H2S20285   2.862   2.134  10.372 -0.0799 -1.2789  1.1619
  178SLPC    C320286   3.064   2.589  10.643 -0.0718  0.9112 -0.0183
  178SLPC    HX20287   3.156   2.538  10.678 -0.0119  1.5423  0.7796
  178SLPC    HY20288   3.055   2.662  10.727 -0.3615 -0.1020  0.8560
  178SLPC   O3120289   3.094   2.635  10.512 -0.0202  0.4633  0.2973
  178SLPC   C3120290   3.050   2.759  10.487 -0.3432 -0.4689 -0.4152
  178SLPC   O3220291   2.978   2.819  10.560 -1.3357  0.0079 -0.8844
  178SLPC   C3220292   3.099   2.812  10.353 -0.2973 -0.1015 -0.6271
  178SLPC   H2X20293   3.033   2.781  10.269 -2.3078  0.0898  0.8136
  178SLPC   H2Y20294   3.203   2.776  10.334  0.3019  1.0841  0.2256
  178SLPC   C2320295   3.081   2.188  10.383 -0.1771  0.1386  0.2067
  178SLPC   H3R20296   3.131   2.089  10.395 -1.7065 -0.7846 -0.6919
  178SLPC   H3S20297   3.140   2.265  10.436  0.1314  0.9610 -1.2841
  178SLPC   C2420298   3.088   2.226  10.230  0.4944 -0.3614  0.4410
  178SLPC   H4R20299   3.013   2.181  10.161 -0.6639  1.4338  0.4437
  178SLPC   H4S20300   3.192   2.201  10.200  1.5350  2.4480  1.3708
  178SLPC   C2520301   3.097   2.383  10.214 -0.3580 -0.1120 -0.8576
  178SLPC   H5R20302   3.182   2.419  10.276  0.2447 -1.7345 -0.6894
  178SLPC   H5S20303   3.002   2.428  10.248 -0.3703 -1.7808  1.5354
  178SLPC   C2620304   3.117   2.432  10.069 -0.0853  0.7634  0.0334
  178SLPC   H6R20305   3.019   2.420  10.018 -0.8794  1.3928  1.3647
  178SLPC   H6S20306   3.201   2.367  10.035  1.5759  2.0542  1.4845
  178SLPC   C2720307   3.145   2.581  10.056  0.5305  0.0424  0.2917
  178SLPC   H7R20308   3.210   2.608  10.142 -0.3131  1.0961  0.6290
  178SLPC   H7S20309   3.044   2.624  10.075 -0.1282 -1.5819  0.5943
  178SLPC   C2820310   3.203   2.630   9.926 -0.8035 -0.2066 -0.1456
  178SLPC   H8R20311   3.311   2.605   9.917 -0.6182  0.9105 -1.3518
  178SLPC   H8S20312   3.195   2.741   9.921  3.2984  0.3282  1.0287
  178SLPC   C2920313   3.141   2.559   9.815 -0.6592  0.1075 -0.1269
  178SLPC   H9R20314   3.101   2.458   9.835  1.3987 -0.4595  1.6287
  178SLPC  C21020315   3.161   2.584   9.686  0.5193 -0.0723 -0.3859
  178SLPC  H10R20316   3.115   2.513   9.615  0.9622 -3.8496  2.7194
  178SLPC  C21120317   3.236   2.696   9.619 -0.3116  0.2879  0.2771
  178SLPC  H11R20318   3.248   2.777   9.695  2.4462  0.9740 -0.7748
  178SLPC  H11S20319   3.184   2.736   9.530 -0.9159  0.7306  0.8216
  178SLPC  C21220320   3.377   2.647   9.577 -0.7628 -0.2693 -0.6629
  178SLPC  H12R20321   3.454   2.665   9.653  1.3196 -1.5307 -2.3163
  178SLPC  C21320322   3.407   2.576   9.464  0.1864 -0.3456 -0.0469
  178SLPC  H13R20323   3.512   2.551   9.441  0.9532  2.4525  0.0705
  178SLPC  C21420324   3.312   2.529   9.360  0.6607  0.0704  0.5479
  178SLPC  H14R20325   3.204   2.546   9.383  0.7985  1.7294  0.0957
  178SLPC  H14S20326   3.337   2.423   9.337 -2.0119 -0.3651 -0.7308
  178SLPC  C21520327   3.335   2.616   9.232  0.4761  0.1201  0.1785
  178SLPC  H15R20328   3.342   2.725   9.252  2.3489  0.1020 -0.2333
  178SLPC  H15S20329   3.248   2.601   9.164  1.8518  0.0117 -1.6203
  178SLPC  C21620330   3.452   2.580   9.141 -0.0750  0.4646 -0.9762
  178SLPC  H16R20331   3.454   2.471   9.123  0.9870  0.1421  0.8706
  178SLPC  H16S20332   3.537   2.601   9.209  0.0982 -1.7777 -0.4430
  178SLPC  C21720333   3.465   2.661   9.014 -0.2775  0.4308  0.2359
  178SLPC  H17R20334   3.483   2.769   9.032 -1.0572  0.7128 -0.6286
  178SLPC  H17S20335   3.371   2.645   8.958  0.4515 -3.1929 -0.1836
  178SLPC  C21820336   3.584   2.603   8.935  0.2953 -0.7512 -0.6059
  178SLPC  H18R20337   3.618   2.657   8.844  2.0122 -0.1724  0.3274
  178SLPC  H18S20338   3.551   2.502   8.905  0.3903 -0.6733 -0.9758
  178SLPC  H18T20339   3.670   2.602   9.006 -2.8208  0.5176  3.6074
  178SLPC   C3320340   3.097   2.969  10.354 -0.4501 -0.0172  0.9879
  178SLPC   H3X20341   3.192   2.985  10.409 -0.8094 -2.1567  2.3497
  178SLPC   H3Y20342   3.013   3.012  10.412 -2.2811 -4.5550  2.1070
  178SLPC   C3420343   3.087   3.020  10.207 -0.1771 -0.3451  0.5450
  178SLPC   H4X20344   3.138   2.947  10.141 -2.9012 -1.6437 -0.2710
  178SLPC   H4Y20345   3.146   3.113  10.195 -1.5232  0.4570 -0.0616
  178SLPC   C3520346   2.942   3.052  10.157 -0.5492 -0.3583 -0.1525
  178SLPC   H5X20347   2.890   3.113  10.233 -0.7880 -0.9308  0.1524
  178SLPC   H5Y20348   2.887   2.957  10.142 -3.3629  1.0496  0.6070
  178SLPC   C3620349   2.941   3.116  10.015 -0.4257 -0.5963  0.0111
  178SLPC   H6X20350   2.980   3.220  10.016 -1.5117 -0.1717  1.2349
  178SLPC   H6Y20351   2.834   3.134   9.989  0.4308  1.1230 -2.7159
  178SLPC   C3720352   3.018   3.039   9.903 -0.6841  0.2232  0.0860
  178SLPC   H7X20353   2.991   2.931   9.904 -0.6352  0.2087  1.0941
  178SLPC   H7Y20354   3.127   3.036   9.926 -0.0758 -0.3180 -2.6195
  178SLPC   C3820355   3.014   3.121   9.775 -0.1337 -0.6985  0.3227
  178SLPC   H8X20356   3.053   3.224   9.780 -1.2176 -0.0204 -2.8656
  178SLPC   H8Y20357   2.908   3.150   9.757  0.7237  3.4309  1.0080
  178SLPC   C3920358   3.083   3.052   9.653 -0.8030 -0.0799  0.2616
  178SLPC   H9X20359   3.041   2.952   9.627  0.4433 -0.9503  1.4562
  178SLPC   H9Y20360   3.186   3.021   9.679 -0.7355 -0.7167 -0.6862
  178SLPC  C31020361   3.077   3.138   9.519 -0.0398 -0.4046 -0.0080
  178SLPC  H10X20362   3.136   3.230   9.543 -0.4246  0.3527 -1.7455
  178SLPC  H10Y20363   2.974   3.169   9.493  0.1810  1.1833  0.8477
  178SLPC  C31120364   3.140   3.063   9.401 -0.3514 -0.0082  0.1768
  178SLPC  H11X20365   3.212   2.983   9.429 -0.5598 -0.2848 -0.0762
  178SLPC  H11Y20366   3.192   3.130   9.329  0.2976  1.5757  2.0279
  178SLPC  C31220367   3.038   2.987   9.331  0.5546 -0.2061  0.4002
  178SLPC  H12X20368   2.963   3.062   9.296  0.4114 -0.3129  0.4747
  178SLPC  H12Y20369   2.989   2.917   9.402  2.9040 -0.6502  1.6601
  178SLPC  C31320370   3.087   2.899   9.210  0.5505  0.1764 -0.7426
  178SLPC  H13X20371   2.994   2.849   9.176  1.7828 -1.5028 -1.7719
  178SLPC  H13Y20372   3.157   2.825   9.252 -0.9603 -1.0983 -0.3626
  178SLPC  C31420373   3.137   2.991   9.091 -0.3390  0.4908  1.0180
  178SLPC  H14X20374   3.232   3.044   9.117 -1.1415  2.7639 -0.3570
  178SLPC  H14Y20375   3.067   3.071   9.057  0.7976  0.0710 -2.6744
  178SLPC  C31520376   3.170   2.910   8.963 -0.6445 -0.5698 -1.2475
  178SLPC  H15X20377   3.249   2.834   8.979  0.3343  0.2127 -2.1412
  178SLPC  H15Y20378   3.078   2.858   8.930  0.1308 -3.0005  0.1707
  178SLPC  C31620379   3.209   3.001   8.845 -0.3000 -0.2665 -0.3735
  178SLPC  H16X20380   3.297   3.046   8.896 -1.9697 -1.4574  4.0467
  178SLPC  H16Y20381   3.125   3.068   8.815  0.3785 -0.2100 -2.2719
  178SLPC  C31720382   3.249   2.925   8.724  0.7603 -0.1597  1.3247
  178SLPC  H17X20383   3.322   2.847   8.755  1.5553  0.3627  0.7911
  178SLPC  H17Y20384   3.291   2.987   8.642  0.3676  0.9089  1.9190
  178SLPC  C31820385   3.122   2.857   8.664 -0.0913 -0.5775  0.0458
  178SLPC  H18X20386   3.106   2.755   8.704  1.6752 -1.7589 -2.0549
  178SLPC  H18Y20387   3.122   2.845   8.554  1.0465 -0.8892  0.0675
  178SLPC  H18Z20388   3.033   2.920   8.688 -0.7245 -0.5028 -2.2744
  179SLPC     N20389   5.715   5.270  10.783 -0.5382 -0.3762  0.0664
  179SLPC   C1320390   5.731   5.122  10.806 -0.8198  0.2522 -0.9449
  179SLPC  H13A20391   5.648   5.066  10.765 -0.4362 -1.0349 -0.0383
  179SLPC  H13B20392   5.816   5.092  10.747  1.0754  2.6498  0.3587
  179SLPC  H13C20393   5.751   5.091  10.907 -0.6360 -1.5898 -1.5224
  179SLPC   C1420394   5.835   5.336  10.836  0.4246  0.4948 -0.1709
  179SLPC  H14A20395   5.847   5.320  10.942 -0.7483  2.6778  0.3371
  179SLPC  H14B20396   5.927   5.298  10.792  0.7636  1.0175  0.0734
  179SLPC  H14C20397   5.831   5.444  10.839 -0.2383  0.4775 -0.3992
  179SLPC   C1520398   5.605   5.329  10.855  0.0005  0.0845  0.1294
  179SLPC  H15A20399   5.621   5.316  10.961 -0.6150 -0.9040  0.1168
  179SLPC  H15B20400   5.592   5.432  10.824  0.1888 -0.2004 -0.9181
  179SLPC  H15C20401   5.507   5.286  10.839 -0.8322  1.2964  1.6565
  179SLPC   C1220402   5.707   5.299  10.633  0.3009 -0.2563 -0.7825
  179SLPC  H12A20403   5.720   5.405  10.619  1.1537 -0.4353 -1.3665
  179SLPC  H12B20404   5.607   5.278  10.597  1.1351 -1.6552 -2.4062
  179SLPC   C1120405   5.798   5.229  10.525  0.5830  0.1006  0.3790
  179SLPC  H11A20406   5.756   5.262  10.428  1.7014 -1.2770 -0.6051
  179SLPC  H11B20407   5.785   5.120  10.513  1.0179 -0.0101  0.8699
  179SLPC     P20408   5.980   5.403  10.477 -0.6333  0.3459  0.5655
  179SLPC   O1320409   5.877   5.505  10.494  0.1202 -0.1702 -0.7212
  179SLPC   O1420410   6.114   5.437  10.533 -0.0701  0.3139 -0.3619
  179SLPC   O1220411   5.934   5.268  10.543 -0.3919 -0.4101  0.3283
  179SLPC   O1120412   5.996   5.369  10.318  0.7589 -0.0465  0.3434
  179SLPC    C120413   6.092   5.264  10.299  0.0558 -0.6884  0.8199
  179SLPC    HA20414   6.191   5.312  10.285 -0.1604 -0.4933 -0.1343
  179SLPC    HB20415   6.100   5.188  10.379 -0.8427 -2.2485 -0.5096
  179SLPC    C220416   6.059   5.172  10.173  0.3197 -0.4874 -0.3011
  179SLPC    HS20417   6.143   5.100  10.162  2.2606  1.4857  0.8168
  179SLPC   O2120418   6.044   5.252  10.057  0.4950 -0.0075 -0.1786
  179SLPC   C2120419   6.149   5.320  10.011  0.5436 -0.1963  0.4567
  179SLPC   O2220420   6.263   5.317  10.051  0.6977  0.4804  0.1333
  179SLPC   C2220421   6.098   5.399   9.895 -0.2189 -0.5573  0.0000
  179SLPC   H2R20422   6.039   5.335   9.826  0.1717  0.0604 -0.9176
  179SLPC   H2S20423   6.024   5.475   9.930  1.4410  2.2524 -2.1391
  179SLPC    C320424   5.931   5.094  10.206  0.0630 -0.3086 -0.1285
  179SLPC    HX20425   5.847   5.166  10.203  0.5985  0.2943 -1.2053
  179SLPC    HY20426   5.935   5.064  10.313 -2.1352 -1.4258 -0.3128
  179SLPC   O3120427   5.915   4.983  10.117  0.4193  0.2629  0.4773
  179SLPC   C3120428   5.841   4.996  10.011  0.1417  0.0707  0.1222
  179SLPC   O3220429   5.770   5.091   9.989 -0.4700 -0.2029 -0.2542
  179SLPC   C3220430   5.869   4.883   9.905 -0.2363 -0.1029 -0.0520
  179SLPC   H2X20431   5.806   4.793   9.920  0.1505 -0.6637 -1.5455
  179SLPC   H2Y20432   5.970   4.842   9.924 -0.9142 -2.0075 -0.4032
  179SLPC   C2320433   6.210   5.450   9.796 -0.3616  0.0784  0.1501
  179SLPC   H3R20434   6.274   5.364   9.768 -0.9656  0.0225 -1.0868
  179SLPC   H3S20435   6.258   5.543   9.836 -1.7659  0.5772  0.7239
  179SLPC   C2420436   6.136   5.485   9.661 -0.1551 -0.0111 -0.5764
  179SLPC   H4R20437   6.090   5.586   9.672 -0.2239 -0.0444 -0.5603
  179SLPC   H4S20438   6.054   5.411   9.644 -0.6672  0.4214 -0.0169
  179SLPC   C2520439   6.228   5.492   9.540  0.3132  0.2030  0.4500
  179SLPC   H5R20440   6.320   5.548   9.569 -1.3898  3.6423 -0.1967
  179SLPC   H5S20441   6.187   5.562   9.464 -0.0405 -0.3908  0.0843
  179SLPC   C2620442   6.251   5.350   9.468 -0.2104  0.0919 -0.4299
  179SLPC   H6R20443   6.149   5.308   9.463 -0.6482  1.1074 -0.2578
  179SLPC   H6S20444   6.320   5.291   9.532  1.8521 -0.2008 -2.7676
  179SLPC   C2720445   6.312   5.354   9.330 -0.6594 -0.4167 -0.7466
  179SLPC   H7R20446   6.397   5.425   9.333 -1.1394  0.1696 -0.7902
  179SLPC   H7S20447   6.258   5.401   9.245 -0.8417  3.6286  1.3618
  179SLPC   C2820448   6.368   5.214   9.285 -0.4330  0.1224 -0.4905
  179SLPC   H8R20449   6.283   5.146   9.266 -0.3540  0.1289 -0.8774
  179SLPC   H8S20450   6.430   5.176   9.369  0.2518  0.3586 -0.8825
  179SLPC   C2920451   6.460   5.236   9.164 -0.2846  0.3211 -0.3627
  179SLPC   H9R20452   6.551   5.298   9.170  0.9313 -1.5466  3.2578
  179SLPC  C21020453   6.436   5.173   9.046  0.0239 -0.0518  0.2799
  179SLPC  H10R20454   6.494   5.206   8.959 -1.4643 -0.8220 -1.0879
  179SLPC  C21120455   6.325   5.080   9.001  0.2457  0.0766  0.5510
  179SLPC  H11R20456   6.270   5.040   9.089 -1.0640  1.1578  0.2654
  179SLPC  H11S20457   6.364   4.984   8.960 -1.6440  0.1369 -1.5916
  179SLPC  C21220458   6.242   5.152   8.894 -0.4742  0.1067 -0.0184
  179SLPC  H12R20459   6.138   5.167   8.926 -1.0833 -2.7412 -0.3666
  179SLPC  C21320460   6.276   5.183   8.765 -0.2525 -0.6088 -0.0457
  179SLPC  H13R20461   6.196   5.227   8.704 -2.1196 -0.0460  2.6458
  179SLPC  C21420462   6.400   5.141   8.691  0.6674  0.1097 -0.0928
  179SLPC  H14R20463   6.428   5.042   8.732 -1.7697 -0.2196  0.9404
  179SLPC  H14S20464   6.488   5.202   8.719 -1.1659  1.7225  2.5575
  179SLPC  C21520465   6.375   5.132   8.540  0.3071  0.3281  0.1878
  179SLPC  H15R20466   6.336   5.222   8.488  0.5064 -0.1706 -0.8552
  179SLPC  H15S20467   6.308   5.050   8.507  1.0765  0.6340 -2.3990
  179SLPC  C21620468   6.500   5.101   8.454 -0.4027  0.2588 -0.2959
  179SLPC  H16R20469   6.554   5.011   8.490  0.6528  0.2633 -1.7596
  179SLPC  H16S20470   6.569   5.184   8.481  0.0345 -0.1085 -0.2675
  179SLPC  C21720471   6.480   5.100   8.305  0.0850 -0.2063  0.0213
  179SLPC  H17R20472   6.469   5.200   8.258 -0.5613 -0.2299  0.1071
  179SLPC  H17S20473   6.383   5.057   8.272 -0.1395  0.9100 -0.8128
  179SLPC  C21820474   6.596   5.044   8.235 -0.7850  0.2791  0.2461
  179SLPC  H18R20475   6.590   5.057   8.125  0.9791  1.8645  0.2761
  179SLPC  H18S20476   6.597   4.935   8.257 -0.0240  1.0191  4.6957
  179SLPC  H18T20477   6.689   5.093   8.271 -0.8386  0.6303 -0.0804
  179SLPC   C3320478   5.856   4.923   9.761 -0.4888 -0.1891  0.4861
  179SLPC   H3X20479   5.772   4.991   9.735  1.4444  1.8967 -0.7304
  179SLPC   H3Y20480   5.857   4.832   9.697  1.6031 -0.1204  0.3586
  179SLPC   C3420481   5.981   5.007   9.719  0.6661 -0.2990  0.4332
  179SLPC   H4X20482   6.069   4.977   9.779  1.6476 -1.9359 -1.6850
  179SLPC   H4Y20483   5.944   5.110   9.737 -2.1337 -1.6669  3.4093
  179SLPC   C3520484   6.017   5.002   9.575  0.3636  0.3739  0.1055
  179SLPC   H5X20485   6.019   4.894   9.545  0.4162  0.7683 -1.3973
  179SLPC   H5Y20486   6.125   5.024   9.562  0.6091 -0.5834  0.4148
  179SLPC   C3620487   5.928   5.087   9.495  0.4232 -0.3006 -0.1788
  179SLPC   H6X20488   5.960   5.190   9.521  0.1555 -0.3325  0.2830
  179SLPC   H6Y20489   5.818   5.078   9.509  0.5993 -0.8485  0.9141
  179SLPC   C3720490   5.952   5.084   9.344  0.5764  0.2001 -1.4086
  179SLPC   H7X20491   6.062   5.087   9.326  0.6126  1.9250 -1.1077
  179SLPC   H7Y20492   5.892   5.170   9.309 -2.8416 -0.9219  1.1210
  179SLPC   C3820493   5.905   4.962   9.267 -0.1232 -0.4199 -0.2385
  179SLPC   H8X20494   5.801   4.935   9.294  1.0540 -2.1800  3.0815
  179SLPC   H8Y20495   5.959   4.877   9.315 -1.8669 -1.4596 -0.0393
  179SLPC   C3920496   5.945   4.978   9.116  0.1624  0.2894 -0.4631
  179SLPC   H9X20497   6.056   4.976   9.118  0.1491 -0.1418  0.6358
  179SLPC   H9Y20498   5.913   5.082   9.094  1.2262  0.4664 -1.2798
  179SLPC  C31020499   5.879   4.872   9.021 -0.9071  0.2568 -0.3390
  179SLPC  H10X20500   5.866   4.780   9.083 -1.4895  0.0867 -0.7040
  179SLPC  H10Y20501   5.962   4.840   8.954  3.1973 -0.2091  4.3489
  179SLPC  C31120502   5.748   4.914   8.958  0.2603  0.0947 -0.2029
  179SLPC  H11X20503   5.753   5.010   8.901 -0.6523 -0.0376 -0.5282
  179SLPC  H11Y20504   5.678   4.930   9.043  0.7438  0.1076  0.1946
  179SLPC  C31220505   5.671   4.804   8.882 -0.4989  0.8538 -0.5247
  179SLPC  H12X20506   5.566   4.840   8.871  0.0373  2.5917 -0.2924
  179SLPC  H12Y20507   5.670   4.705   8.932 -0.9909  1.3756  0.5427
  179SLPC  C31320508   5.710   4.803   8.736  0.1545  0.1800  0.2559
  179SLPC  H13X20509   5.819   4.784   8.732  0.2019  0.5682 -0.4863
  179SLPC  H13Y20510   5.691   4.902   8.690  0.1512 -0.1776 -0.5298
  179SLPC  C31420511   5.631   4.710   8.651 -0.0594  0.8836 -0.1943
  179SLPC  H14X20512   5.640   4.744   8.545 -0.0474 -0.7057 -0.7216
  179SLPC  H14Y20513   5.523   4.694   8.670  0.3981 -2.9432 -0.0909
  179SLPC  C31520514   5.696   4.569   8.652 -0.0413 -0.4999  0.3606
  179SLPC  H15X20515   5.682   4.528   8.754 -0.0770 -0.7094  0.2719
  179SLPC  H15Y20516   5.806   4.574   8.639  0.0422  2.7523  1.4265
  179SLPC  C31620517   5.645   4.469   8.549  0.6317 -0.0329 -0.0320
  179SLPC  H16X20518   5.649   4.510   8.446 -0.9638  1.4536  0.4523
  179SLPC  H16Y20519   5.536   4.464   8.565  0.5895  2.0991  0.7451
  179SLPC  C31720520   5.706   4.331   8.548  0.2603 -0.2942 -0.2835
  179SLPC  H17X20521   5.722   4.296   8.652 -1.0354 -0.9143 -0.2790
  179SLPC  H17Y20522   5.812   4.342   8.515  0.5168 -0.3110  0.5218
  179SLPC  C31820523   5.621   4.221   8.495  0.7062  0.2976 -0.4883
  179SLPC  H18X20524   5.657   4.121   8.530 -1.3030 -0.6111 -0.8959
  179SLPC  H18Y20525   5.624   4.221   8.384  1.9988 -0.5150 -0.4858
  179SLPC  H18Z20526   5.515   4.219   8.528  0.9310 -0.4047  0.2241
  180SLPC     N20527   6.804   3.110  11.200  0.7863 -0.6233  0.4636
  180SLPC   C1320528   6.674   3.087  11.280 -0.5684 -0.0560 -0.6174
  180SLPC  H13A20529   6.584   3.100  11.221 -0.7099  1.5889 -0.0795
  180SLPC  H13B20530   6.670   2.985  11.313  1.6348 -0.5779 -1.7530
  180SLPC  H13C20531   6.664   3.161  11.358 -0.1529 -0.3525 -0.2781
  180SLPC   C1420532   6.926   3.060  11.277  0.2449  0.5814 -0.0186
  180SLPC  H14A20533   6.911   2.954  11.291 -0.5522  0.8955  1.7297
  180SLPC  H14B20534   7.018   3.074  11.222 -0.2332 -1.8938 -1.5728
  180SLPC  H14C20535   6.918   3.105  11.374 -0.7849 -0.0062  0.1745
  180SLPC   C1520536   6.812   3.257  11.192  0.0982 -0.2188 -0.4914
  180SLPC  H15A20537   6.718   3.303  11.162  0.9430  0.0837 -2.8694
  180SLPC  H15B20538   6.840   3.310  11.282  2.0035 -1.5843 -0.2306
  180SLPC  H15C20539   6.882   3.289  11.117 -1.1897  2.6887 -0.5866
  180SLPC   C1220540   6.793   3.048  11.069 -0.4537  0.3689 -0.4942
  180SLPC  H12A20541   6.711   3.097  11.019 -0.9447  0.6959  0.6114
  180SLPC  H12B20542   6.757   2.947  11.084  1.6311 -0.2638  0.6289
  180SLPC   C1120543   6.917   3.061  10.970  0.8927 -0.3067  0.2268
  180SLPC  H11A20544   6.887   2.988  10.893  0.4349 -0.3847  0.4787
  180SLPC  H11B20545   7.017   3.021  11.000  1.8199 -0.0430 -2.2360
  180SLPC     P20546   6.837   3.237  10.802  0.1952 -0.4215 -0.1201
  180SLPC   O1320547   6.713   3.292  10.857  0.1883 -0.0892 -0.1688
  180SLPC   O1420548   6.912   3.326  10.710  0.5549  0.4621  0.0302
  180SLPC   O1220549   6.928   3.196  10.918 -0.4285 -0.3456 -0.2553
  180SLPC   O1120550   6.794   3.104  10.724 -0.1160 -0.0511 -0.1197
  180SLPC    C120551   6.767   3.107  10.587  0.0271 -0.1731  0.4601
  180SLPC    HA20552   6.692   3.030  10.559  1.0863 -0.6241 -1.2668
  180SLPC    HB20553   6.719   3.200  10.551 -1.5047 -1.7661 -1.8954
  180SLPC    C220554   6.888   3.077  10.502  0.5668 -0.5468  0.1059
  180SLPC    HS20555   6.978   3.109  10.558  1.1416 -1.1057 -0.4773
  180SLPC   O2120556   6.875   3.165  10.382  0.1667  0.5074 -0.4893
  180SLPC   C2120557   6.988   3.202  10.328 -0.8739  0.6216 -1.0754
  180SLPC   O2220558   7.100   3.180  10.378  0.2111 -0.3512  0.0117
  180SLPC   C2220559   6.964   3.304  10.209 -0.0920  0.3922 -0.2186
  180SLPC   H2R20560   6.858   3.308  10.176 -0.3678  1.5388  0.7362
  180SLPC   H2S20561   6.970   3.405  10.255 -1.2298  0.6467 -0.5911
  180SLPC    C320562   6.909   2.923  10.477  0.5966  0.1922  0.5647
  180SLPC    HX20563   6.927   2.867  10.571 -0.2712 -0.9048  0.1100
  180SLPC    HY20564   7.002   2.914  10.417  0.8921 -3.5469  1.3296
  180SLPC   O3120565   6.802   2.876  10.393  0.5917 -0.1091  0.0586
  180SLPC   C3120566   6.729   2.780  10.440  1.0597  0.3325  0.3584
  180SLPC   O3220567   6.744   2.725  10.551 -0.4135 -0.3244  0.1818
  180SLPC   C3220568   6.636   2.736  10.330 -0.0882  0.4587 -0.4216
  180SLPC   H2X20569   6.671   2.636  10.297  0.2051  0.5071 -0.2587
  180SLPC   H2Y20570   6.646   2.807  10.245 -0.2535  0.2735 -0.5984
  180SLPC   C2320571   7.063   3.280  10.088  1.0457 -0.0956 -0.9189
  180SLPC   H3R20572   7.170   3.275  10.114  1.2905 -0.8739 -1.9957
  180SLPC   H3S20573   7.059   3.372  10.026 -1.3757  1.2037  0.9621
  180SLPC   C2420574   7.028   3.161  10.005  0.1519  0.0199 -0.2066
  180SLPC   H4R20575   6.926   3.185   9.969  0.5874  1.3311 -0.6676
  180SLPC   H4S20576   7.031   3.074  10.073 -2.2580 -1.3098 -1.6726
  180SLPC   C2520577   7.113   3.124   9.875  0.3877  0.7123 -0.2769
  180SLPC   H5R20578   7.103   3.196   9.791  0.5672  0.8031 -0.2203
  180SLPC   H5S20579   7.068   3.025   9.849 -0.8061  0.8319  1.1915
  180SLPC   C2620580   7.258   3.085   9.914  0.3118 -0.6125  0.1464
  180SLPC   H6R20581   7.260   2.999   9.984  1.7035 -1.1996 -0.5696
  180SLPC   H6S20582   7.307   3.167   9.970  0.8473 -1.9312  1.6925
  180SLPC   C2720583   7.346   3.069   9.789  0.0065  0.8521 -0.3170
  180SLPC   H7R20584   7.447   3.099   9.823 -0.2855  1.6007 -0.0917
  180SLPC   H7S20585   7.321   3.135   9.703  1.1469  2.5714  0.6239
  180SLPC   C2820586   7.357   2.923   9.741 -0.6007 -0.4585  0.8142
  180SLPC   H8R20587   7.431   2.919   9.658 -0.1378  0.7934  1.1368
  180SLPC   H8S20588   7.258   2.897   9.698  0.6336 -1.5219 -1.5554
  180SLPC   C2920589   7.397   2.827   9.851 -0.2902 -0.6344 -0.3571
  180SLPC   H9R20590   7.417   2.872   9.949 -0.2990  0.2942 -0.7693
  180SLPC  C21020591   7.411   2.692   9.835 -0.0474  0.2400  0.3173
  180SLPC  H10R20592   7.440   2.641   9.928 -1.2373  1.3826  1.3508
  180SLPC  C21120593   7.388   2.619   9.702 -0.1732 -0.8735 -0.0758
  180SLPC  H11R20594   7.306   2.666   9.643  0.1846 -0.1874 -0.0403
  180SLPC  H11S20595   7.342   2.522   9.728 -1.2104  0.3585  3.2290
  180SLPC  C21220596   7.520   2.597   9.624  0.6897  1.0181  0.0154
  180SLPC  H12R20597   7.602   2.544   9.674  0.1090 -0.2336 -0.3289
  180SLPC  C21320598   7.538   2.608   9.490  0.4139 -0.2013 -0.1600
  180SLPC  H13R20599   7.634   2.586   9.440  0.0565 -1.0526 -0.4913
  180SLPC  C21420600   7.438   2.634   9.387  0.9782  0.4384  0.0500
  180SLPC  H14R20601   7.333   2.616   9.418  1.2394  1.1587  1.4521
  180SLPC  H14S20602   7.444   2.562   9.303 -1.1888 -0.3644  0.5224
  180SLPC  C21520603   7.443   2.778   9.327 -0.2769  0.6048  0.8687
  180SLPC  H15R20604   7.429   2.849   9.411 -2.0605 -0.6279  1.6910
  180SLPC  H15S20605   7.360   2.771   9.254 -0.4041 -2.2385  1.1596
  180SLPC  C21620606   7.571   2.813   9.251  0.1048 -0.9883 -0.1289
  180SLPC  H16R20607   7.649   2.830   9.328  1.4252  0.4161 -1.6743
  180SLPC  H16S20608   7.552   2.911   9.203 -0.8291 -1.0448  0.1044
  180SLPC  C21720609   7.617   2.715   9.139 -0.3032  0.2673 -0.3518
  180SLPC  H17R20610   7.538   2.666   9.078  0.0546 -2.3280  1.1338
  180SLPC  H17S20611   7.666   2.632   9.193  0.0483  1.8887  1.9898
  180SLPC  C21820612   7.727   2.771   9.049 -0.3929  0.3464  0.1758
  180SLPC  H18R20613   7.685   2.843   8.976 -0.0379 -0.5375 -0.9417
  180SLPC  H18S20614   7.779   2.691   8.991 -0.1909 -0.6296  1.6373
  180SLPC  H18T20615   7.813   2.819   9.100  1.2171  0.9688 -2.8972
  180SLPC   C3320616   6.492   2.741  10.378  0.8166  0.2665  0.2420
  180SLPC   H3X20617   6.464   2.843  10.411  3.1186  1.1745 -0.4156
  180SLPC   H3Y20618   6.485   2.671  10.464 -0.7113  0.0229 -0.0548
  180SLPC   C3420619   6.391   2.695  10.265  0.9815 -0.4775  0.4700
  180SLPC   H4X20620   6.296   2.666  10.314  0.5264  1.4632  0.8209
  180SLPC   H4Y20621   6.432   2.608  10.209 -0.1752  0.3435 -1.8041
  180SLPC   C3520622   6.355   2.811  10.162  0.7312  0.5959 -0.4492
  180SLPC   H5X20623   6.450   2.857  10.128  1.3976 -0.5888 -0.2587
  180SLPC   H5Y20624   6.296   2.891  10.211  0.1085 -0.4723  0.6090
  180SLPC   C3620625   6.273   2.765  10.045 -0.0228 -0.7556 -0.2405
  180SLPC   H6X20626   6.170   2.747  10.082 -0.3015  0.9448 -0.1032
  180SLPC   H6Y20627   6.319   2.674  10.000 -2.6698 -2.0317 -0.5713
  180SLPC   C3720628   6.251   2.876   9.943  0.5155 -0.6003  0.5683
  180SLPC   H7X20629   6.348   2.902   9.897 -0.1993 -1.0392 -1.2749
  180SLPC   H7Y20630   6.207   2.958  10.002 -1.7429  0.4557 -2.3228
  180SLPC   C3820631   6.169   2.849   9.814 -0.2219  0.5193  0.0213
  180SLPC   H8X20632   6.183   2.939   9.750 -2.4572 -1.1034 -3.0699
  180SLPC   H8Y20633   6.063   2.824   9.837 -0.4835 -2.5041 -3.4344
  180SLPC   C3920634   6.213   2.726   9.729  0.5575 -0.2515 -0.1895
  180SLPC   H9X20635   6.198   2.638   9.795 -2.6674 -0.0354 -0.4828
  180SLPC   H9Y20636   6.320   2.734   9.699  0.5484  0.2859 -0.1044
  180SLPC  C31020637   6.128   2.722   9.611  0.0483 -0.2703 -0.2865
  180SLPC  H10X20638   6.154   2.805   9.542 -2.1131  2.2839  1.7572
  180SLPC  H10Y20639   6.020   2.742   9.628 -0.0220 -0.3106 -0.6818
  180SLPC  C31120640   6.136   2.600   9.513  0.3895  0.1903  0.1404
  180SLPC  H11X20641   6.080   2.631   9.422  1.7968  3.5068  0.2648
  180SLPC  H11Y20642   6.079   2.523   9.568  0.6126 -0.2313 -0.2148
  180SLPC  C31220643   6.279   2.558   9.476  0.9280 -0.1920 -0.0038
  180SLPC  H12X20644   6.286   2.469   9.409  1.0301 -0.7825  0.7808
  180SLPC  H12Y20645   6.333   2.539   9.571 -0.6148  0.4031  1.0155
  180SLPC  C31320646   6.354   2.658   9.393  0.8665  0.0195 -0.0444
  180SLPC  H13X20647   6.376   2.741   9.465 -0.8555 -1.6333  2.5676
  180SLPC  H13Y20648   6.280   2.701   9.322 -0.2545  1.2538  1.7620
  180SLPC  C31420649   6.483   2.604   9.329  0.2978 -0.7529  0.1144
  180SLPC  H14X20650   6.486   2.507   9.274  0.4717 -1.8004  1.8807
  180SLPC  H14Y20651   6.563   2.588   9.405  0.0738  0.0011  0.5157
  180SLPC  C31520652   6.553   2.707   9.234  0.1753 -0.3500  0.0787
  180SLPC  H15X20653   6.580   2.801   9.286  1.8043  0.4265 -2.0195
  180SLPC  H15Y20654   6.493   2.732   9.143  1.7333 -0.2053 -0.9495
  180SLPC  C31620655   6.685   2.646   9.180  0.1644 -0.0011  0.1687
  180SLPC  H16X20656   6.653   2.564   9.113  1.6300  1.2468 -2.1752
  180SLPC  H16Y20657   6.739   2.612   9.271 -1.2353  1.8046  1.7553
  180SLPC  C31720658   6.759   2.733   9.080 -0.2075 -0.7435  0.2344
  180SLPC  H17X20659   6.758   2.835   9.126  0.0832 -1.3030  1.5296
  180SLPC  H17Y20660   6.694   2.740   8.990 -0.5896  0.2188  0.5665
  180SLPC  C31820661   6.901   2.678   9.058  0.1019  0.4622 -0.1469
  180SLPC  H18X20662   6.958   2.659   9.151 -0.8354  0.5392  0.4564
  180SLPC  H18Y20663   6.958   2.754   9.001  0.0399 -0.8287 -2.0636
  180SLPC  H18Z20664   6.897   2.589   8.991 -0.9599  0.3687  0.0100
  181SLPC     N20665   2.190   0.142  11.197 -0.0752 -0.6333  0.4442
  181SLPC   C1320666   2.312   0.080  11.262 -0.7709  0.1712 -0.2032
  181SLPC  H13A20667   2.370   0.150  11.321  2.4180 -1.0933 -1.6061
  181SLPC  H13B20668   2.291   0.002  11.333 -0.3266  0.0729 -0.1801
  181SLPC  H13C20669   2.381   0.043  11.188 -0.3146  2.7519 -1.1841
  181SLPC   C1420670   2.113   0.195  11.312  0.2085 -0.0725  0.1360
  181SLPC  H14A20671   2.046   0.115  11.341 -1.3737  1.0139 -0.3554
  181SLPC  H14B20672   2.174   0.222  11.397 -0.7492  0.3550  0.7103
  181SLPC  H14C20673   2.049   0.279  11.289 -0.8174 -0.3511  1.7901
  181SLPC   C1520674   2.110   0.042  11.134 -0.4212  0.6803 -0.9048
  181SLPC  H15A20675   2.008   0.066  11.107 -1.9367 -1.8843  1.8738
  181SLPC  H15B20676   2.155   0.023  11.038  1.9907 -1.8824  0.5776
  181SLPC  H15C20677   2.097  -0.051  11.187 -1.4912  0.9170 -0.7239
  181SLPC   C1220678   2.237   0.256  11.111 -0.1693 -0.4748  0.5102
  181SLPC  H12A20679   2.310   0.316  11.164  1.1475  0.5734 -2.2554
  181SLPC  H12B20680   2.146   0.312  11.099  0.5748  0.8616  0.8319
  181SLPC   C1120681   2.322   0.227  10.980  0.4261  1.0184 -0.1145
  181SLPC  H11A20682   2.301   0.307  10.906 -0.2342 -0.7156 -1.8865
  181SLPC  H11B20683   2.284   0.134  10.933 -0.5973  1.4469 -0.1552
  181SLPC     P20684   2.558   0.308  10.960 -0.1443  0.4868  0.0647
  181SLPC   O1320685   2.528   0.444  11.012  0.1550  0.4637 -0.0126
  181SLPC   O1420686   2.695   0.261  10.990  0.5911  0.2584  0.5526
  181SLPC   O1220687   2.461   0.203  11.021  0.2962 -0.1860  0.0963
  181SLPC   O1120688   2.535   0.305  10.805  0.1615  0.0529  0.0462
  181SLPC    C120689   2.567   0.198  10.722  0.3112 -0.3072  0.1995
  181SLPC    HA20690   2.674   0.218  10.701 -0.7441  2.3058 -3.7213
  181SLPC    HB20691   2.551   0.096  10.762 -1.8116 -0.1621 -0.1649
  181SLPC    C220692   2.483   0.210  10.593  0.1054 -0.3908 -0.4284
  181SLPC    HS20693   2.485   0.123  10.524  0.3726 -0.3771 -0.4395
  181SLPC   O2120694   2.524   0.333  10.514 -0.0724  0.1150  0.6844
  181SLPC   C2120695   2.637   0.308  10.453 -0.7821  0.5460  0.0851
  181SLPC   O2220696   2.695   0.198  10.443 -0.0469 -0.3492  0.0447
  181SLPC   C2220697   2.703   0.439  10.395 -0.1339  0.7365  0.3283
  181SLPC   H2R20698   2.628   0.520  10.406 -2.2286 -1.2134  1.2391
  181SLPC   H2S20699   2.787   0.464  10.464  1.3100 -0.7237 -0.8290
  181SLPC    C320700   2.338   0.231  10.628  0.0582 -0.4813 -0.0358
  181SLPC    HX20701   2.328   0.329  10.679 -0.1799 -0.3567 -0.3197
  181SLPC    HY20702   2.317   0.154  10.705  1.2206 -0.4830  0.2873
  181SLPC   O3120703   2.250   0.206  10.517 -0.2179  0.8430  0.5211
  181SLPC   C3120704   2.142   0.290  10.512 -0.3918  0.1250  0.0610
  181SLPC   O3220705   2.117   0.375  10.593  0.3122 -0.5377 -0.0139
  181SLPC   C3220706   2.063   0.267  10.390  0.1894 -0.2008  0.2420
  181SLPC   H2X20707   1.958   0.241  10.414 -0.2896  1.5932  0.2747
  181SLPC   H2Y20708   2.113   0.198  10.319  1.9285 -1.4837  2.5858
  181SLPC   C2320709   2.739   0.414  10.243 -0.1640  0.3242 -0.7547
  181SLPC   H3R20710   2.780   0.312  10.227 -1.2684 -0.5309  1.3603
  181SLPC   H3S20711   2.814   0.487  10.208  3.6160 -1.9336  1.8767
  181SLPC   C2420712   2.621   0.434  10.150  0.1383 -0.3212 -0.2790
  181SLPC   H4R20713   2.564   0.526  10.178  0.4639  0.0748 -0.8994
  181SLPC   H4S20714   2.558   0.344  10.166 -1.6019  1.0815  1.3266
  181SLPC   C2520715   2.679   0.438  10.005  0.3875 -0.1734  0.2117
  181SLPC   H5R20716   2.741   0.347   9.990  0.4310  0.2702 -3.1232
  181SLPC   H5S20717   2.751   0.522   9.997 -1.6356  1.6266 -0.0272
  181SLPC   C2620718   2.579   0.458   9.890 -0.0153 -0.5211 -0.4813
  181SLPC   H6R20719   2.499   0.527   9.924  0.2578  0.2669 -1.3934
  181SLPC   H6S20720   2.539   0.359   9.858  0.3615 -0.0222 -2.6344
  181SLPC   C2720721   2.658   0.519   9.765 -0.1505 -0.2788 -0.0695
  181SLPC   H7R20722   2.744   0.453   9.740  0.4376  0.5171 -0.1818
  181SLPC   H7S20723   2.707   0.612   9.801 -0.7714 -0.7105  2.0596
  181SLPC   C2820724   2.570   0.545   9.642 -0.5540  0.8239  0.0235
  181SLPC   H8R20725   2.490   0.614   9.678 -1.6851 -0.1042 -0.6260
  181SLPC   H8S20726   2.517   0.455   9.605 -0.6093  1.9541 -2.8765
  181SLPC   C2920727   2.640   0.623   9.536  0.7585 -0.4321  0.4568
  181SLPC   H9R20728   2.641   0.731   9.557  0.6366 -0.3824  0.2078
  181SLPC  C21020729   2.702   0.584   9.426 -0.1180 -0.2308  0.2017
  181SLPC  H10R20730   2.749   0.664   9.367 -0.6648  2.2357  2.8954
  181SLPC  C21120731   2.703   0.448   9.370  0.2841  0.0121 -0.7935
  181SLPC  H11R20732   2.774   0.445   9.284  2.2524  0.4433  0.7345
  181SLPC  H11S20733   2.601   0.430   9.332  0.9555 -2.9986 -1.4169
  181SLPC  C21220734   2.730   0.330   9.465 -0.4441  0.1836 -0.2618
  181SLPC  H12R20735   2.700   0.342   9.570  0.8655  1.5631 -0.0089
  181SLPC  C21320736   2.793   0.211   9.438 -1.4417 -0.2500  0.5149
  181SLPC  H13R20737   2.794   0.137   9.519  0.8997  0.3197  1.1028
  181SLPC  C21420738   2.867   0.174   9.313  0.3582  0.3149 -0.1974
  181SLPC  H14R20739   2.974   0.177   9.341  0.1412 -0.5894  0.7751
  181SLPC  H14S20740   2.846   0.244   9.229 -3.4277 -0.8592 -0.4302
  181SLPC  C21520741   2.811   0.036   9.267  0.1417 -0.2732  0.2929
  181SLPC  H15R20742   2.701   0.039   9.248  0.1835 -1.5061 -0.2307
  181SLPC  H15S20743   2.825  -0.041   9.346 -0.9902 -1.2107 -0.3812
  181SLPC  C21620744   2.879  -0.024   9.142  0.6980  0.2020  0.3997
  181SLPC  H16R20745   2.971  -0.076   9.179 -0.0286 -1.2601  0.2410
  181SLPC  H16S20746   2.917   0.065   9.089  0.9454 -0.3282 -0.3279
  181SLPC  C21720747   2.801  -0.119   9.054 -0.6642 -0.0896  0.2493
  181SLPC  H17R20748   2.702  -0.089   9.014  0.2955  0.0758 -2.1143
  181SLPC  H17S20749   2.790  -0.212   9.114  0.6940 -0.1373  0.4628
  181SLPC  C21820750   2.888  -0.150   8.930  0.1878 -0.3432 -0.6846
  181SLPC  H18R20751   2.984  -0.185   8.973  0.0221 -1.3537 -1.1200
  181SLPC  H18S20752   2.887  -0.061   8.863 -2.5462  1.7908  1.8582
  181SLPC  H18T20753   2.841  -0.228   8.866 -0.4795 -0.6827  0.1921
  181SLPC   C3320754   2.051   0.399  10.309 -0.3799  0.0976 -0.0155
  181SLPC   H3X20755   2.145   0.455  10.286 -1.6459  2.9283  1.1899
  181SLPC   H3Y20756   1.991   0.469  10.371  1.2489  1.8552 -0.3385
  181SLPC   C3420757   1.973   0.367  10.171  0.3315 -0.2601 -0.0313
  181SLPC   H4X20758   1.923   0.464  10.153 -0.6635 -1.1106 -2.1756
  181SLPC   H4Y20759   1.888   0.298  10.193  1.9463 -1.9604  1.2301
  181SLPC   C3520760   2.062   0.333  10.050  0.0870 -0.0035  0.3578
  181SLPC   H5X20761   2.092   0.226  10.057 -0.3897 -0.0376  2.9617
  181SLPC   H5Y20762   2.152   0.397  10.050 -1.2106  1.9056 -0.4038
  181SLPC   C3620763   1.981   0.339   9.923 -0.5516 -0.2730  0.3051
  181SLPC   H6X20764   1.920   0.431   9.921 -0.0677  0.0385 -0.5342
  181SLPC   H6Y20765   1.917   0.248   9.927 -0.1942 -0.5576  4.8247
  181SLPC   C3720766   2.065   0.336   9.796 -0.1297  0.7897 -0.3459
  181SLPC   H7X20767   2.129   0.246   9.793 -0.2663  0.6711  0.1734
  181SLPC   H7Y20768   2.131   0.426   9.790  2.5046 -0.8919  1.3494
  181SLPC   C3820769   1.963   0.334   9.672 -0.2757  0.2193  0.7540
  181SLPC   H8X20770   1.921   0.433   9.646  0.6797  0.0407 -1.7116
  181SLPC   H8Y20771   1.873   0.276   9.701 -1.7731  2.0532 -0.0466
  181SLPC   C3920772   2.023   0.286   9.540 -0.2178 -0.0179 -0.0214
  181SLPC   H9X20773   1.955   0.259   9.457  0.0000 -1.3007  0.1973
  181SLPC   H9Y20774   2.061   0.186   9.570 -0.6059  0.0905  0.8758
  181SLPC  C31020775   2.143   0.372   9.495 -0.2827  0.3551 -0.4959
  181SLPC  H10X20776   2.230   0.381   9.564  0.3265 -1.7964 -0.9122
  181SLPC  H10Y20777   2.104   0.476   9.483 -1.2391 -0.1262 -1.7735
  181SLPC  C31120778   2.203   0.327   9.358  0.3859 -0.1358 -0.1304
  181SLPC  H11X20779   2.114   0.299   9.296 -0.3253  1.9860 -0.1323
  181SLPC  H11Y20780   2.272   0.242   9.375  0.0321 -1.0055 -2.6222
  181SLPC  C31220781   2.279   0.429   9.279  0.0751  0.9438  0.0868
  181SLPC  H12X20782   2.346   0.485   9.349  2.4326  0.6008 -1.7816
  181SLPC  H12Y20783   2.204   0.496   9.232  0.6174  0.6373 -1.2513
  181SLPC  C31320784   2.372   0.359   9.176  0.0851 -0.1554 -0.4100
  181SLPC  H13X20785   2.310   0.290   9.116  0.2078  0.8739 -1.7541
  181SLPC  H13Y20786   2.459   0.310   9.224  1.0193  2.9482  1.3595
  181SLPC  C31420787   2.434   0.462   9.079 -0.2186 -0.1209  0.2921
  181SLPC  H14X20788   2.482   0.553   9.122  0.3180  0.3928 -1.3191
  181SLPC  H14Y20789   2.346   0.497   9.020 -2.0655 -0.9982  2.3905
  181SLPC  C31520790   2.532   0.409   8.972  0.0319  0.6939 -0.0692
  181SLPC  H15X20791   2.478   0.326   8.923 -1.6336  0.6815  1.6668
  181SLPC  H15Y20792   2.630   0.371   9.007 -0.3806  0.8975  1.3570
  181SLPC  C31620793   2.556   0.510   8.861  0.0587  0.0602 -0.1375
  181SLPC  H16X20794   2.625   0.466   8.786 -2.7992 -0.1487 -2.8692
  181SLPC  H16Y20795   2.607   0.596   8.909 -1.6783  1.3610 -0.5075
  181SLPC  C31720796   2.440   0.562   8.778  0.0180  0.8191  0.4792
  181SLPC  H17X20797   2.451   0.657   8.722  0.0961 -0.5450 -1.9355
  181SLPC  H17Y20798   2.346   0.573   8.835 -2.0274 -0.0738 -2.5119
  181SLPC  C31820799   2.400   0.458   8.672 -0.9269  0.0956  0.2633
  181SLPC  H18X20800   2.305   0.485   8.620 -1.6372  0.4715  1.6989
  181SLPC  H18Y20801   2.394   0.354   8.710  0.8089 -0.3592 -0.6024
  181SLPC  H18Z20802   2.485   0.453   8.601 -1.1834  1.1797 -0.1350
  182SLPC     N20803   0.952   2.548  11.064  0.2964 -0.6736  0.5606
  182SLPC   C1320804   0.814   2.509  11.103  0.5356  0.1841  0.3778
  182SLPC  H13A20805   0.746   2.579  11.058  0.0208 -1.9549 -2.4462
  182SLPC  H13B20806   0.794   2.409  11.069 -2.0207 -0.7390  3.9889
  182SLPC  H13C20807   0.801   2.500  11.210 -0.9196 -0.2677  0.1828
  182SLPC   C1420808   1.048   2.444  11.110 -0.0723  0.0053  0.2304
  182SLPC  H14A20809   1.044   2.353  11.052  0.3814 -0.4768  0.9446
  182SLPC  H14B20810   1.143   2.488  11.083 -1.5181  1.0752 -3.7698
  182SLPC  H14C20811   1.039   2.435  11.217  1.8591 -0.0427  0.4323
  182SLPC   C1520812   0.989   2.683  11.119 -0.5044 -0.2016  0.5364
  182SLPC  H15A20813   1.027   2.677  11.220 -0.6018  1.1806  0.6846
  182SLPC  H15B20814   1.068   2.744  11.076  0.1099  0.3485  2.3468
  182SLPC  H15C20815   0.904   2.749  11.124 -2.1682 -2.3655  2.5116
  182SLPC   C1220816   0.953   2.555  10.910 -0.0315  0.6341 -0.4755
  182SLPC  H12A20817   0.928   2.455  10.879 -0.9056  1.0378 -1.0920
  182SLPC  H12B20818   1.052   2.581  10.874  0.2169 -0.8398 -0.9358
  182SLPC   C1120819   0.859   2.657  10.841 -0.0796  0.2616 -0.2663
  182SLPC  H11A20820   0.902   2.687  10.744 -1.5958 -1.0089 -1.3752
  182SLPC  H11B20821   0.864   2.749  10.903 -1.2937  0.6391 -0.7041
  182SLPC     P20822   0.688   2.505  10.713 -0.3097  0.2303  0.0654
  182SLPC   O1320823   0.764   2.379  10.746  0.2572  0.1321 -0.3298
  182SLPC   O1420824   0.540   2.487  10.713  0.2884 -0.0357  0.2279
  182SLPC   O1220825   0.726   2.618  10.824  0.3753  0.6841 -0.4529
  182SLPC   O1120826   0.735   2.557  10.568 -0.3998 -0.5890 -0.6729
  182SLPC    C120827   0.717   2.697  10.533 -0.1674  0.0594  0.4180
  182SLPC    HA20828   0.614   2.733  10.556 -0.7564 -1.0157 -0.4426
  182SLPC    HB20829   0.795   2.761  10.579  0.2448  0.0080 -0.1934
  182SLPC    C220830   0.744   2.709  10.377  0.3490  0.0795 -0.4957
  182SLPC    HS20831   0.741   2.817  10.350 -0.4932 -0.1438 -1.3122
  182SLPC   O2120832   0.649   2.636  10.294 -0.9790  0.0126  0.3887
  182SLPC   C2120833   0.523   2.674  10.310  0.2768  0.1139  0.6485
  182SLPC   O2220834   0.485   2.777  10.371  0.4494 -0.0095 -0.8516
  182SLPC   C2220835   0.445   2.579  10.219  0.4400  0.4630 -0.1061
  182SLPC   H2R20836   0.475   2.575  10.112  0.5039  0.2125 -0.0818
  182SLPC   H2S20837   0.455   2.473  10.250 -0.9287  0.1899 -0.5303
  182SLPC    C320838   0.894   2.670  10.344  0.1328 -0.1435  0.1934
  182SLPC    HX20839   0.911   2.574  10.397 -2.4729 -0.0167  1.3978
  182SLPC    HY20840   0.965   2.752  10.368  0.1843  0.3404 -1.4685
  182SLPC   O3120841   0.917   2.648  10.204  0.0438 -0.4728  0.5681
  182SLPC   C3120842   1.019   2.558  10.186 -0.0632  0.5630  0.3580
  182SLPC   O3220843   1.105   2.532  10.262 -1.3081  0.3981 -0.0856
  182SLPC   C3220844   1.009   2.487  10.052  0.2008 -0.1949 -0.7983
  182SLPC   H2X20845   0.989   2.554   9.965  2.9199  1.2698 -0.4272
  182SLPC   H2Y20846   0.923   2.417  10.064 -0.4203  0.7890  0.7489
  182SLPC   C2320847   0.297   2.630  10.227  0.3202 -0.4101  0.8379
  182SLPC   H3R20848   0.289   2.733  10.185  1.2852 -0.9083 -0.6425
  182SLPC   H3S20849   0.282   2.640  10.337 -0.1966  1.2775  0.6414
  182SLPC   C2420850   0.200   2.550  10.153  0.0878  0.2341 -0.0820
  182SLPC   H4R20851   0.096   2.577  10.179  0.9024  0.9756  2.6953
  182SLPC   H4S20852   0.211   2.443  10.181 -1.4724 -0.5952 -2.3879
  182SLPC   C2520853   0.196   2.565  10.006  0.4270 -0.0119  0.0081
  182SLPC   H5R20854   0.107   2.514   9.964  1.5420 -0.7393 -1.5923
  182SLPC   H5S20855   0.289   2.515   9.970  1.1274  0.1207  1.5715
  182SLPC   C2620856   0.195   2.710   9.950  0.3905  0.2749  0.6058
  182SLPC   H6R20857   0.165   2.700   9.843 -1.1762 -1.5738  1.1498
  182SLPC   H6S20858   0.297   2.753   9.958 -0.6551  2.7555  1.5283
  182SLPC   C2720859   0.094   2.802  10.020 -0.2280 -0.5242 -0.6784
  182SLPC   H7R20860   0.142   2.876  10.088 -1.6858 -0.3956  0.2811
  182SLPC   H7S20861   0.027   2.746  10.090  0.8543 -0.1805  0.6591
  182SLPC   C2820862  -0.011   2.862   9.921  0.3208 -0.4965 -0.7008
  182SLPC   H8R20863   0.055   2.926   9.858  1.4037  0.4299  1.2707
  182SLPC   H8S20864  -0.066   2.936   9.984  2.6772  0.9054 -0.1486
  182SLPC   C2920865  -0.099   2.757   9.867  0.3602  0.2739 -0.0396
  182SLPC   H9R20866  -0.143   2.684   9.937  2.0754 -1.5478 -0.7589
  182SLPC  C21020867  -0.136   2.727   9.738 -0.1020  0.4970  0.0276
  182SLPC  H10R20868  -0.196   2.638   9.712  1.6934  0.0792 -3.1734
  182SLPC  C21120869  -0.097   2.809   9.617  0.1078 -1.0087 -0.3361
  182SLPC  H11R20870  -0.039   2.901   9.642 -0.6003 -0.8818  0.9105
  182SLPC  H11S20871  -0.190   2.858   9.580  0.4069  0.4345  0.6979
  182SLPC  C21220872  -0.021   2.721   9.525 -0.8844  0.0022  0.4418
  182SLPC  H12R20873  -0.089   2.650   9.476 -0.2036  1.2353 -2.4852
  182SLPC  C21320874   0.105   2.742   9.478 -0.3505  0.4882 -0.6575
  182SLPC  H13R20875   0.147   2.661   9.416 -0.1407  0.7921 -0.9103
  182SLPC  C21420876   0.208   2.853   9.507  0.4365  0.2089 -0.0981
  182SLPC  H14R20877   0.290   2.802   9.563  1.2198 -0.0468 -1.4456
  182SLPC  H14S20878   0.164   2.936   9.566 -1.6212 -1.1292  0.3569
  182SLPC  C21520879   0.272   2.915   9.381  0.4662  0.8707 -0.1602
  182SLPC  H15R20880   0.283   2.841   9.299 -1.9550  0.1977  0.0435
  182SLPC  H15S20881   0.379   2.939   9.399  1.3832 -0.9025 -2.6971
  182SLPC  C21620882   0.192   3.025   9.323 -0.4459 -0.9984 -0.5260
  182SLPC  H16R20883   0.178   3.109   9.394 -0.8012  0.0498 -1.8152
  182SLPC  H16S20884   0.088   2.995   9.298 -0.5581 -0.4474 -0.7283
  182SLPC  C21720885   0.257   3.089   9.196 -0.2571 -0.1049 -0.5431
  182SLPC  H17R20886   0.345   3.154   9.219  1.4415 -2.1933 -0.8105
  182SLPC  H17S20887   0.171   3.145   9.153 -1.5787 -1.9047 -0.3641
  182SLPC  C21820888   0.310   2.991   9.089  0.4125 -0.3038  0.1336
  182SLPC  H18R20889   0.405   2.947   9.126  0.2165 -1.4909 -0.7488
  182SLPC  H18S20890   0.344   3.043   8.997 -0.9501 -0.2696 -0.3730
  182SLPC  H18T20891   0.232   2.919   9.059 -0.0173  0.7912 -1.4866
  182SLPC   C3320892   1.142   2.414  10.015 -0.3932 -0.2058  0.7505
  182SLPC   H3X20893   1.137   2.314  10.065 -1.2247 -0.4797  0.1382
  182SLPC   H3Y20894   1.233   2.471  10.043  0.7436 -1.6346  0.0585
  182SLPC   C3420895   1.154   2.399   9.858 -0.3585  1.0915  0.8223
  182SLPC   H4X20896   1.254   2.359   9.832 -0.2446  0.7450  1.7296
  182SLPC   H4Y20897   1.141   2.495   9.803 -0.4376  0.4014 -0.3901
  182SLPC   C3520898   1.046   2.313   9.804 -0.0141 -0.5619 -0.3633
  182SLPC   H5X20899   0.945   2.340   9.842  0.3161  1.1551 -0.6487
  182SLPC   H5Y20900   1.073   2.207   9.827  1.4383  0.0890  1.0738
  182SLPC   C3620901   1.026   2.325   9.651  0.0584  0.4530  0.2683
  182SLPC   H6X20902   1.019   2.433   9.623 -2.6229  0.3332  0.2487
  182SLPC   H6Y20903   0.931   2.272   9.628  1.6887 -2.5888  0.0567
  182SLPC   C3720904   1.130   2.255   9.566 -0.3395 -0.4391 -0.9994
  182SLPC   H7X20905   1.144   2.147   9.587 -1.8529 -0.4370  0.2096
  182SLPC   H7Y20906   1.223   2.309   9.596 -1.3037 -0.1273  1.7187
  182SLPC   C3820907   1.109   2.287   9.419  0.1297 -0.5840 -0.5813
  182SLPC   H8X20908   1.068   2.390   9.422 -1.9922 -1.3738  1.5478
  182SLPC   H8Y20909   1.034   2.213   9.383  0.6712 -1.9403  0.9115
  182SLPC   C3920910   1.234   2.288   9.329  0.1360 -0.6762  0.2052
  182SLPC   H9X20911   1.237   2.189   9.279  1.4426 -0.6798  0.2549
  182SLPC   H9Y20912   1.328   2.305   9.386  1.0574 -0.7337 -1.2378
  182SLPC  C31020913   1.219   2.374   9.202 -0.8541 -0.0045 -0.4824
  182SLPC  H10X20914   1.303   2.346   9.134  1.4775  1.5737  1.5735
  182SLPC  H10Y20915   1.229   2.484   9.215  0.1653 -0.3188  2.0779
  182SLPC  C31120916   1.097   2.358   9.114  0.5961  0.2175 -0.3219
  182SLPC  H11X20917   1.016   2.391   9.183  1.1260  0.6522  0.1023
  182SLPC  H11Y20918   1.081   2.251   9.090 -0.2161  0.0578  0.8198
  182SLPC  C31220919   1.091   2.442   8.984 -0.8670  0.1473 -0.0206
  182SLPC  H12X20920   1.121   2.545   9.012 -0.3401  0.0498 -0.2048
  182SLPC  H12Y20921   0.987   2.435   8.945 -1.0130 -0.0950  0.4107
  182SLPC  C31320922   1.179   2.372   8.884  0.4151 -0.1931  0.8539
  182SLPC  H13X20923   1.144   2.266   8.877 -1.5162  0.4490 -0.0015
  182SLPC  H13Y20924   1.283   2.388   8.918  0.1019 -0.6730  2.0947
  182SLPC  C31420925   1.177   2.432   8.744 -0.1684 -0.1690 -0.2477
  182SLPC  H14X20926   1.186   2.540   8.767  3.0345 -0.0987 -1.3859
  182SLPC  H14Y20927   1.075   2.415   8.702  0.1834 -1.9161 -0.4691
  182SLPC  C31520928   1.293   2.387   8.651 -0.7429 -0.5007  0.0340
  182SLPC  H15X20929   1.311   2.278   8.654 -0.1085 -0.5569 -3.0338
  182SLPC  H15Y20930   1.388   2.440   8.670 -0.6590 -0.8330  0.5870
  182SLPC  C31620931   1.278   2.434   8.509 -0.0590 -0.0158 -0.4722
  182SLPC  H16X20932   1.379   2.425   8.465  1.1596 -0.7833  2.2599
  182SLPC  H16Y20933   1.251   2.541   8.511  2.9850  0.8452 -0.5042
  182SLPC  C31720934   1.178   2.350   8.431  0.1998  0.3705  0.3566
  182SLPC  H17X20935   1.088   2.339   8.495 -1.5623 -0.8846 -2.1936
  182SLPC  H17Y20936   1.231   2.254   8.419  1.4621  1.1088 -0.1974
  182SLPC  C31820937   1.130   2.410   8.299 -0.3975  0.3860 -0.1152
  182SLPC  H18X20938   1.107   2.518   8.312 -0.5266  0.8366 -3.1810
  182SLPC  H18Y20939   1.043   2.357   8.254 -1.8672  2.5576  0.0270
  182SLPC  H18Z20940   1.212   2.396   8.225  2.3452 -2.0897  3.0998
  183SLPC     N20941   3.523   3.002  11.075 -0.4261 -0.3564  0.2990
  183SLPC   C1320942   3.590   2.913  10.973 -0.1726  0.7089  0.0074
  183SLPC  H13A20943   3.691   2.904  11.010 -0.4758  2.8076  1.5377
  183SLPC  H13B20944   3.542   2.817  10.963 -0.7390  1.1334 -1.6415
  183SLPC  H13C20945   3.590   2.953  10.873  2.2044 -2.2463 -1.3210
  183SLPC   C1420946   3.517   2.938  11.212  0.2475 -0.3214 -0.5893
  183SLPC  H14A20947   3.616   2.912  11.247  1.3761  1.0795 -2.5117
  183SLPC  H14B20948   3.472   3.008  11.281 -0.3703  0.3105 -1.6064
  183SLPC  H14C20949   3.458   2.850  11.227 -1.0356  0.8651  1.8482
  183SLPC   C1520950   3.385   3.026  11.030 -0.4659 -0.3433 -0.1500
  183SLPC  H15A20951   3.382   3.053  10.925 -0.8456  2.1746  0.4645
  183SLPC  H15B20952   3.322   2.941  11.052  0.0536 -0.7755 -0.2936
  183SLPC  H15C20953   3.338   3.102  11.090 -1.3144 -0.6818 -0.3707
  183SLPC   C1220954   3.606   3.130  11.086 -0.6438 -0.2848  0.1604
  183SLPC  H12A20955   3.631   3.159  10.985  0.8379 -0.7823  0.3577
  183SLPC  H12B20956   3.703   3.112  11.130 -0.7128 -0.4927  0.2284
  183SLPC   C1120957   3.536   3.263  11.135 -0.8033  0.4520  1.1260
  183SLPC  H11A20958   3.609   3.336  11.176 -0.7251  0.5931  0.7403
  183SLPC  H11B20959   3.477   3.230  11.223  0.0787  0.6095  1.7803
  183SLPC     P20960   3.454   3.335  10.893  0.4010  0.1830 -0.3456
  183SLPC   O1320961   3.366   3.243  10.827 -0.0277  0.1895  0.9556
  183SLPC   O1420962   3.432   3.478  10.870  0.5047  0.2496  0.7716
  183SLPC   O1220963   3.443   3.327  11.043 -0.5172  0.3616  0.0770
  183SLPC   O1120964   3.599   3.305  10.852  0.0519 -0.5243  0.0874
  183SLPC    C120965   3.678   3.361  10.753  0.3098  0.4462 -0.1143
  183SLPC    HA20966   3.649   3.465  10.726 -1.7414  0.1255  0.6858
  183SLPC    HB20967   3.781   3.373  10.795  0.0587  1.2408  0.3048
  183SLPC    C220968   3.698   3.285  10.621 -0.5938  0.0102  0.5260
  183SLPC    HS20969   3.765   3.350  10.561 -1.5077  0.3750 -0.1148
  183SLPC   O2120970   3.567   3.290  10.551  0.7749 -0.3156 -0.3187
  183SLPC   C2120971   3.569   3.269  10.424 -0.5494  0.7902  0.7412
  183SLPC   O2220972   3.667   3.252  10.350 -0.1654 -0.3804  0.1941
  183SLPC   C2220973   3.427   3.275  10.365 -0.2312 -0.8877  0.2480
  183SLPC   H2R20974   3.369   3.210  10.434  0.4846 -0.3127  1.4154
  183SLPC   H2S20975   3.395   3.380  10.378  0.3541 -0.9443  2.5171
  183SLPC    C320976   3.765   3.141  10.646  0.0963 -0.8585  0.4103
  183SLPC    HX20977   3.749   3.114  10.753  0.5004  1.1759  1.0116
  183SLPC    HY20978   3.876   3.143  10.645  0.1083  1.7477 -0.5615
  183SLPC   O3120979   3.731   3.036  10.548 -0.6140 -0.3845 -0.1362
  183SLPC   C3120980   3.649   2.945  10.571 -0.1483 -0.2405  0.3146
  183SLPC   O3220981   3.579   2.935  10.673 -0.0494  0.1478 -0.1776
  183SLPC   C3220982   3.640   2.851  10.456  0.0464 -0.7802  0.2228
  183SLPC   H2X20983   3.737   2.796  10.453  0.4183 -0.1885 -3.4832
  183SLPC   H2Y20984   3.625   2.900  10.358  2.3887  0.4095  0.3795
  183SLPC   C2320985   3.420   3.218  10.221  0.6040 -0.6786 -0.1210
  183SLPC   H3R20986   3.478   3.276  10.145 -1.8834  0.4009 -1.3288
  183SLPC   H3S20987   3.312   3.224  10.198  0.5381 -1.2057  0.0445
  183SLPC   C2420988   3.452   3.070  10.200  0.1628  0.6629 -0.8405
  183SLPC   H4R20989   3.397   3.007  10.273  1.7216 -0.4933 -0.5915
  183SLPC   H4S20990   3.559   3.049  10.223 -0.3233 -1.0575  0.0234
  183SLPC   C2520991   3.411   3.020  10.065 -0.2772  0.2417 -0.2827
  183SLPC   H5R20992   3.459   3.095   9.999 -2.2002 -0.7959 -2.9947
  183SLPC   H5S20993   3.302   3.031  10.047 -0.1507  0.3197 -1.0287
  183SLPC   C2620994   3.453   2.877  10.018 -0.3289  0.5165 -0.6314
  183SLPC   H6R20995   3.405   2.858   9.920 -2.3572 -0.2417  0.4411
  183SLPC   H6S20996   3.402   2.803  10.084  2.3890 -1.1195 -0.2100
  183SLPC   C2720997   3.606   2.856  10.011  0.4672 -0.2761 -0.6383
  183SLPC   H7R20998   3.640   2.840  10.115  0.1532 -0.3589 -0.5455
  183SLPC   H7S20999   3.647   2.953   9.975  0.8831  0.0172  0.5945
  183SLPC   C2821000   3.668   2.742   9.923 -0.3557 -0.7590  0.2182
  183SLPC   H8R21001   3.778   2.757   9.933 -0.0178 -2.9651  0.2480
  183SLPC   H8S21002   3.641   2.773   9.819  0.7582 -1.0010 -0.1574
  183SLPC   C2921003   3.626   2.597   9.942  0.2363  0.4499 -0.3359
  183SLPC   H9R21004   3.553   2.586  10.025 -0.5490 -1.5379 -1.2092
  183SLPC  C21021005   3.654   2.489   9.862 -0.4994  0.2888 -0.1249
  183SLPC  H10R21006   3.623   2.390   9.897 -0.6906  0.3659 -0.0775
  183SLPC  C21121007   3.744   2.482   9.745  0.0213 -0.0655  0.1923
  183SLPC  H11R21008   3.802   2.576   9.727 -0.4574  0.0052 -1.0851
  183SLPC  H11S21009   3.683   2.467   9.653  0.2213 -1.7568  0.3048
  183SLPC  C21221010   3.852   2.376   9.751  0.2669 -0.3248  0.2336
  183SLPC  H12R21011   3.879   2.340   9.851 -0.0903  0.6680  0.7023
  183SLPC  C21321012   3.918   2.323   9.645 -0.7944 -0.1242  0.6322
  183SLPC  H13R21013   4.005   2.260   9.671 -0.7265 -1.2780 -2.0237
  183SLPC  C21421014   3.907   2.358   9.498 -0.4269  0.2451  0.1087
  183SLPC  H14R21015   3.999   2.419   9.482  0.1017 -0.3651  0.7171
  183SLPC  H14S21016   3.813   2.408   9.469 -0.5511  0.2405  0.4954
  183SLPC  C21521017   3.923   2.240   9.405  0.8722 -0.0770  0.3801
  183SLPC  H15R21018   3.849   2.164   9.437 -0.0862  1.9430  3.4838
  183SLPC  H15S21019   4.013   2.175   9.412 -0.6324 -2.3430 -0.3896
  183SLPC  C21621020   3.902   2.283   9.255  0.1713 -0.1823  0.1013
  183SLPC  H16R21021   3.809   2.343   9.252  0.1917 -0.0883  1.1073
  183SLPC  H16S21022   3.877   2.188   9.203  0.2033  0.4197 -1.0420
  183SLPC  C21721023   4.022   2.336   9.187 -0.2832 -1.2324  0.2832
  183SLPC  H17R21024   4.044   2.428   9.246  0.7073  0.9008 -3.0669
  183SLPC  H17S21025   4.012   2.377   9.084 -1.0086  1.2349  1.2605
  183SLPC  C21821026   4.151   2.254   9.186  0.0994  0.5933  0.0935
  183SLPC  H18R21027   4.142   2.153   9.141  1.7865  0.3518  0.2229
  183SLPC  H18S21028   4.180   2.229   9.291 -0.7488 -0.3261  0.1232
  183SLPC  H18T21029   4.237   2.313   9.148 -0.3322  0.7344 -0.6781
  183SLPC   C3321030   3.532   2.745  10.466 -0.0365  0.1874  1.2031
  183SLPC   H3X21031   3.436   2.799  10.450 -1.1142 -2.1638 -1.0521
  183SLPC   H3Y21032   3.549   2.698  10.565  1.7083 -0.2303  0.7396
  183SLPC   C3421033   3.526   2.628  10.367  0.1499 -0.3375 -0.6440
  183SLPC   H4X21034   3.624   2.577  10.363  1.3409  1.9261 -2.6393
  183SLPC   H4Y21035   3.501   2.663  10.265  0.0533 -0.1376 -0.5528
  183SLPC   C3521036   3.419   2.532  10.420  0.1552 -0.2666  0.8648
  183SLPC   H5X21037   3.330   2.566  10.362  1.6146  0.3357 -1.1650
  183SLPC   H5Y21038   3.404   2.556  10.527  0.9942 -0.5550  1.0594
  183SLPC   C3621039   3.463   2.387  10.405  0.0812 -0.1511 -0.1104
  183SLPC   H6X21040   3.379   2.333  10.455 -0.5935  0.1625 -0.8878
  183SLPC   H6Y21041   3.559   2.383  10.460 -0.1542 -0.8939  0.2575
  183SLPC   C3721042   3.469   2.345  10.255  0.5466  0.0119 -0.4241
  183SLPC   H7X21043   3.559   2.400  10.220 -0.1144  3.1520  2.2544
  183SLPC   H7Y21044   3.384   2.393  10.203 -0.5654 -1.6217 -0.1847
  183SLPC   C3821045   3.492   2.198  10.235  0.1864 -0.1345 -0.6964
  183SLPC   H8X21046   3.403   2.151  10.282  0.4880  2.1657  2.5445
  183SLPC   H8Y21047   3.578   2.171  10.300 -0.4292 -0.9712 -0.2093
  183SLPC   C3921048   3.533   2.144  10.097 -0.6322 -0.0305  0.4346
  183SLPC   H9X21049   3.550   2.035  10.110  1.2542  0.4244  2.4946
  183SLPC   H9Y21050   3.632   2.186  10.066  0.0300 -1.8718 -0.0914
  183SLPC  C31021051   3.434   2.183   9.984  0.5272 -0.7161  0.4736
  183SLPC  H10X21052   3.423   2.293   9.974 -1.5548 -0.8158  1.1170
  183SLPC  H10Y21053   3.329   2.149   9.994 -0.5453  2.0033 -0.6167
  183SLPC  C31121054   3.499   2.126   9.851  0.2060  0.3675  0.7017
  183SLPC  H11X21055   3.508   2.016   9.863  0.3324  0.5427  2.3330
  183SLPC  H11Y21056   3.599   2.173   9.837  1.0442 -1.2975  0.7978
  183SLPC  C31221057   3.410   2.158   9.731 -0.3652 -0.3685 -0.0390
  183SLPC  H12X21058   3.401   2.268   9.732  0.8488 -0.2554  1.0525
  183SLPC  H12Y21059   3.307   2.115   9.728 -0.9898  1.0015  1.2075
  183SLPC  C31321060   3.486   2.116   9.596 -0.5093 -0.2233 -1.0446
  183SLPC  H13X21061   3.503   2.007   9.601  2.6529  0.1740 -0.6814
  183SLPC  H13Y21062   3.589   2.157   9.605  0.0228 -1.2167 -2.3367
  183SLPC  C31421063   3.413   2.144   9.468 -0.4056 -0.2620  0.6738
  183SLPC  H14X21064   3.370   2.246   9.476 -1.1577 -0.0703 -3.5573
  183SLPC  H14Y21065   3.328   2.073   9.461  0.7986 -1.6406 -0.6565
  183SLPC  C31521066   3.504   2.139   9.340  1.0251  0.0417  0.1804
  183SLPC  H15X21067   3.558   2.043   9.331  1.6293  0.5969 -3.4654
  183SLPC  H15Y21068   3.588   2.211   9.349  0.5484  0.7133 -0.5955
  183SLPC  C31621069   3.432   2.163   9.208 -0.4540 -0.6452  0.7541
  183SLPC  H16X21070   3.411   2.272   9.201 -0.4888 -0.6163  1.2610
  183SLPC  H16Y21071   3.332   2.116   9.223 -1.6055  1.8681  1.5443
  183SLPC  C31721072   3.515   2.117   9.089  0.6456  0.1853 -0.0188
  183SLPC  H17X21073   3.557   2.017   9.112 -0.0914 -0.4231 -1.1826
  183SLPC  H17Y21074   3.596   2.189   9.064  1.7724 -0.2282  2.1948
  183SLPC  C31821075   3.424   2.096   8.968 -0.6233  0.1094 -0.5661
  183SLPC  H18X21076   3.481   2.050   8.885  1.7667 -1.5999  1.8529
  183SLPC  H18Y21077   3.383   2.194   8.935  1.9390  1.9104  1.2679
  183SLPC  H18Z21078   3.348   2.022   9.003 -0.1927 -0.0655  0.0010
  184SLPC     N21079   2.468   6.273  11.021  0.5314 -0.4854 -0.3543
  184SLPC   C1321080   2.370   6.298  11.132  0.3642  0.3978 -0.3944
  184SLPC  H13A21081   2.343   6.402  11.130  3.8799  1.4159 -1.0592
  184SLPC  H13B21082   2.274   6.250  11.120 -0.0316  1.3263 -0.9885
  184SLPC  H13C21083   2.402   6.269  11.231 -2.0650 -3.1779 -0.4499
  184SLPC   C1421084   2.506   6.129  11.040  0.4792 -0.6595 -0.5261
  184SLPC  H14A21085   2.603   6.112  10.995  1.2384  2.7244 -0.4876
  184SLPC  H14B21086   2.514   6.097  11.142 -0.2510 -0.0708 -0.2746
  184SLPC  H14C21087   2.445   6.058  10.986 -2.6724  0.4290  1.3388
  184SLPC   C1521088   2.584   6.363  11.035 -0.2264 -0.0502  0.0948
  184SLPC  H15A21089   2.665   6.321  10.977  1.4836  2.9086  0.1432
  184SLPC  H15B21090   2.561   6.460  10.994  1.8552  1.3517  2.0105
  184SLPC  H15C21091   2.617   6.381  11.136 -1.3307  1.7126  0.1840
  184SLPC   C1221092   2.406   6.294  10.885 -0.5922  0.4138 -0.2315
  184SLPC  H12A21093   2.365   6.394  10.877 -2.5497 -0.3711 -0.6250
  184SLPC  H12B21094   2.327   6.220  10.883 -0.7158  0.5213  0.3305
  184SLPC   C1121095   2.491   6.276  10.759  0.1179 -0.3456 -0.0895
  184SLPC  H11A21096   2.593   6.319  10.757  0.4546 -1.0935  0.5475
  184SLPC  H11B21097   2.434   6.317  10.673  2.0692  2.5070 -0.1446
  184SLPC     P21098   2.424   6.033  10.670 -0.0143 -0.1604  0.0914
  184SLPC   O1321099   2.512   5.921  10.636 -0.0372 -0.3441 -0.5251
  184SLPC   O1421100   2.300   6.004  10.744  0.2368  0.2523  0.2321
  184SLPC   O1221101   2.508   6.133  10.754  0.1486  0.1020 -0.3553
  184SLPC   O1121102   2.399   6.115  10.543  0.2931 -0.6017 -0.0588
  184SLPC    C121103   2.475   6.089  10.419  0.1632 -0.5332  0.3406
  184SLPC    HA21104   2.572   6.138  10.440 -0.4728  0.8659  0.0842
  184SLPC    HB21105   2.507   5.989  10.383 -0.9176  0.0947 -2.6417
  184SLPC    C221106   2.405   6.168  10.303 -0.4902 -0.2600 -0.5914
  184SLPC    HS21107   2.315   6.107  10.279 -0.2734  0.1347 -2.4860
  184SLPC   O2121108   2.488   6.166  10.188  0.0273 -0.1319  0.4163
  184SLPC   C2121109   2.503   6.057  10.122  0.9114 -0.0213  0.1976
  184SLPC   O2221110   2.455   5.948  10.152 -0.1702 -0.3911  0.1119
  184SLPC   C2221111   2.626   6.069  10.020  0.1295 -0.1610 -0.1198
  184SLPC   H2R21112   2.653   6.176  10.010 -3.7006  0.7362 -3.6843
  184SLPC   H2S21113   2.715   6.016  10.058  0.5318 -0.2523 -1.1669
  184SLPC    C321114   2.367   6.306  10.345  0.0811  0.8372 -0.6881
  184SLPC    HX21115   2.464   6.358  10.365 -0.5807  1.5292  0.8824
  184SLPC    HY21116   2.305   6.309  10.437  1.9162  2.4647  0.5817
  184SLPC   O3121117   2.309   6.372  10.235  0.0926 -0.2136  0.1317
  184SLPC   C3121118   2.174   6.357  10.229 -0.1469 -0.1562  0.0461
  184SLPC   O3221119   2.109   6.288  10.303  0.2787 -0.7378 -0.2598
  184SLPC   C3221120   2.117   6.454  10.129  0.0151 -0.4514 -0.6660
  184SLPC   H2X21121   2.159   6.557  10.121 -0.6775 -0.3226 -3.6604
  184SLPC   H2Y21122   2.014   6.470  10.168  0.6339  0.2632  0.7484
  184SLPC   C2321123   2.582   5.999   9.886  0.2617  0.1474  0.1176
  184SLPC   H3R21124   2.471   6.001   9.875  0.2131  1.1824  0.6550
  184SLPC   H3S21125   2.616   5.894   9.900  0.7377  0.3659  0.6155
  184SLPC   C2421126   2.644   6.070   9.771 -0.3614  0.2309  0.9813
  184SLPC   H4R21127   2.749   6.093   9.798  0.2488  0.3424 -1.2866
  184SLPC   H4S21128   2.604   6.173   9.764  0.8885  0.6063 -1.8817
  184SLPC   C2521129   2.627   5.991   9.643 -0.1797 -0.8149 -0.2646
  184SLPC   H5R21130   2.680   5.893   9.635  1.6949  0.1667 -0.4372
  184SLPC   H5S21131   2.682   6.049   9.565 -0.9192  0.8529  0.4083
  184SLPC   C2621132   2.484   5.993   9.595  0.7977 -0.2089 -0.2630
  184SLPC   H6R21133   2.465   6.085   9.536 -1.7594 -1.5400 -1.7005
  184SLPC   H6S21134   2.414   5.984   9.681  0.9896 -0.8953 -0.1707
  184SLPC   C2721135   2.447   5.882   9.498 -0.3060 -0.4269 -0.4633
  184SLPC   H7R21136   2.339   5.895   9.478 -0.7890 -1.4537  1.3180
  184SLPC   H7S21137   2.453   5.782   9.545 -3.0882 -1.2361 -1.6273
  184SLPC   C2821138   2.551   5.880   9.383  0.9631  0.0195  0.1539
  184SLPC   H8R21139   2.649   5.848   9.426  0.6763 -0.4722  0.4489
  184SLPC   H8S21140   2.565   5.982   9.342 -0.0749 -0.0310 -0.3515
  184SLPC   C2921141   2.505   5.780   9.276  0.0329  0.0388  0.8350
  184SLPC   H9R21142   2.412   5.727   9.300 -0.7286  0.0437 -1.8422
  184SLPC  C21021143   2.574   5.734   9.164  0.1676 -0.3144 -0.0264
  184SLPC  H10R21144   2.525   5.654   9.107  1.2236 -0.8715 -0.1856
  184SLPC  C21121145   2.708   5.783   9.113  0.0556  1.2067 -0.0673
  184SLPC  H11R21146   2.775   5.794   9.201 -0.1602 -0.0141  0.2609
  184SLPC  H11S21147   2.712   5.883   9.064 -0.9484  0.7631 -1.1213
  184SLPC  C21221148   2.775   5.679   9.023 -0.1161  0.0805 -0.2810
  184SLPC  H12R21149   2.782   5.574   9.056  2.7319 -0.0630 -1.0896
  184SLPC  C21321150   2.836   5.693   8.901  0.1787  0.2789 -0.5076
  184SLPC  H13R21151   2.885   5.608   8.850  2.0276 -1.7382  4.0270
  184SLPC  C21421152   2.843   5.827   8.828 -0.3657 -0.2738  0.8626
  184SLPC  H14R21153   2.928   5.892   8.858 -1.0733  0.7078  0.8127
  184SLPC  H14S21154   2.754   5.893   8.841  1.6202  2.5599  1.1766
  184SLPC  C21521155   2.839   5.806   8.676  0.0416  0.2842  0.2025
  184SLPC  H15R21156   2.748   5.744   8.661 -0.4894  1.4474 -1.7842
  184SLPC  H15S21157   2.922   5.740   8.643 -0.1546  0.0742  0.1271
  184SLPC  C21621158   2.813   5.934   8.590  0.3034  0.4476  1.3976
  184SLPC  H16R21159   2.897   6.008   8.594 -1.2235  2.2711  1.3770
  184SLPC  H16S21160   2.728   5.995   8.628  0.3945  1.9583 -0.6525
  184SLPC  C21721161   2.770   5.888   8.451 -0.4276 -0.0249  0.5263
  184SLPC  H17R21162   2.723   5.965   8.386 -2.1065 -0.2145  1.4784
  184SLPC  H17S21163   2.711   5.794   8.448 -0.2925 -0.1103  0.5605
  184SLPC  C21821164   2.900   5.850   8.373  0.7147  0.5662 -0.7999
  184SLPC  H18R21165   2.880   5.828   8.266  0.0793 -1.4814 -0.3048
  184SLPC  H18S21166   2.940   5.764   8.431 -2.2448 -0.5807 -0.2570
  184SLPC  H18T21167   2.969   5.937   8.370 -0.2998  1.4517  0.2216
  184SLPC   C3321168   2.094   6.391   9.988  0.9385 -0.2610 -0.2669
  184SLPC   H3X21169   2.024   6.462   9.940  0.1336  1.2274  2.8362
  184SLPC   H3Y21170   2.035   6.297   9.991 -0.2231  0.4565  0.2816
  184SLPC   C3421171   2.214   6.387   9.900 -0.0054  0.2465 -0.1636
  184SLPC   H4X21172   2.271   6.293   9.916 -0.4132 -0.3453 -1.9696
  184SLPC   H4Y21173   2.282   6.469   9.934 -0.4879 -0.2063  2.0686
  184SLPC   C3521174   2.164   6.390   9.757 -0.4448 -0.2706  0.0034
  184SLPC   H5X21175   2.117   6.487   9.730  0.9561  0.6620  0.8164
  184SLPC   H5Y21176   2.095   6.304   9.748  1.1134 -1.6269  0.4591
  184SLPC   C3621177   2.278   6.380   9.653 -0.8492  0.1489  0.3119
  184SLPC   H6X21178   2.330   6.283   9.664 -1.5251 -0.0810  1.7788
  184SLPC   H6Y21179   2.354   6.457   9.677 -1.9408  0.8227  1.8011
  184SLPC   C3721180   2.233   6.390   9.509 -0.2040 -0.1939  0.4501
  184SLPC   H7X21181   2.328   6.369   9.455 -0.2745  1.6872 -0.4981
  184SLPC   H7Y21182   2.198   6.493   9.484  0.8419  0.6149  2.1253
  184SLPC   C3821183   2.128   6.286   9.459  0.2858 -0.2221  0.0306
  184SLPC   H8X21184   2.037   6.311   9.518  2.0458  1.0294  2.3789
  184SLPC   H8Y21185   2.166   6.186   9.487  0.4425 -0.5478 -1.2954
  184SLPC   C3921186   2.099   6.284   9.305 -0.2377  0.2683 -0.7638
  184SLPC   H9X21187   2.058   6.384   9.279  0.0517  0.2677 -1.2338
  184SLPC   H9Y21188   2.025   6.205   9.281 -3.9565  3.6048 -1.3189
  184SLPC  C31021189   2.231   6.266   9.230 -0.3699 -0.1212 -0.3099
  184SLPC  H10X21190   2.294   6.189   9.279 -0.4325  0.7415  1.2252
  184SLPC  H10Y21191   2.291   6.360   9.226 -1.0329  0.3698  0.6349
  184SLPC  C31121192   2.206   6.217   9.087  0.0104  0.2738 -0.7146
  184SLPC  H11X21193   2.130   6.277   9.032  0.8907  2.2092  0.1057
  184SLPC  H11Y21194   2.161   6.120   9.115  0.1561  0.3390 -0.2384
  184SLPC  C31221195   2.329   6.200   8.992 -0.2610 -0.1557  0.1712
  184SLPC  H12X21196   2.419   6.159   9.042  0.1342 -0.0096 -0.4062
  184SLPC  H12Y21197   2.346   6.300   8.946 -0.7246  0.7881  1.9893
  184SLPC  C31321198   2.291   6.107   8.877 -0.5892 -0.0863 -0.1805
  184SLPC  H13X21199   2.188   6.139   8.851  0.0626  0.3522 -2.4380
  184SLPC  H13Y21200   2.288   6.005   8.921 -0.7714 -0.7694 -1.7091
  184SLPC  C31421201   2.383   6.098   8.753  0.6133 -0.6619  0.0104
  184SLPC  H14X21202   2.484   6.100   8.799  1.0410 -2.1227 -0.7747
  184SLPC  H14Y21203   2.375   6.188   8.689  0.7728 -1.3551 -1.0119
  184SLPC  C31521204   2.361   5.966   8.674  0.4284 -0.2483 -0.0490
  184SLPC  H15X21205   2.425   5.970   8.584 -0.1956 -0.0746 -0.4932
  184SLPC  H15Y21206   2.255   5.962   8.639  0.5787  0.0104 -0.5385
  184SLPC  C31621207   2.400   5.838   8.757  0.4590 -0.5292  0.1047
  184SLPC  H16X21208   2.342   5.828   8.852  1.0245  0.1131  0.5334
  184SLPC  H16Y21209   2.506   5.866   8.776  0.1154  1.4264 -0.6097
  184SLPC  C31721210   2.373   5.716   8.677  0.5479  0.7866  0.0446
  184SLPC  H17X21211   2.418   5.723   8.576 -0.4359 -0.8666 -0.5428
  184SLPC  H17Y21212   2.263   5.699   8.681  0.5917  0.7081  1.1021
  184SLPC  C31821213   2.443   5.598   8.747 -0.1540 -0.5717  0.2243
  184SLPC  H18X21214   2.554   5.609   8.746 -0.1929  0.4604 -2.6714
  184SLPC  H18Y21215   2.417   5.503   8.697 -0.0754 -0.0793 -0.7756
  184SLPC  H18Z21216   2.406   5.584   8.851 -1.5503  0.0750 -0.1648
  185SLPC     N21217   5.078   2.703   6.512  0.3478 -0.1174  0.4228
  185SLPC   C1321218   5.117   2.851   6.527 -0.1288  0.8880 -0.2858
  185SLPC  H13A21219   5.095   2.894   6.623 -1.3734 -2.0049  0.8598
  185SLPC  H13B21220   5.222   2.864   6.511  0.4282 -0.3080  1.9239
  185SLPC  H13C21221   5.053   2.898   6.454 -0.7875 -0.4789 -0.6298
  185SLPC   C1421222   5.166   2.623   6.596 -0.6356  0.1346  0.2671
  185SLPC  H14A21223   5.138   2.520   6.585 -1.1354  0.3214 -0.2556
  185SLPC  H14B21224   5.270   2.635   6.571 -0.8189 -0.4900 -0.8396
  185SLPC  H14C21225   5.154   2.655   6.699 -0.6276 -0.4927  0.4650
  185SLPC   C1521226   5.102   2.666   6.364  0.0399 -0.2769  0.3099
  185SLPC  H15A21227   5.203   2.699   6.349  0.9058 -0.2529  4.7188
  185SLPC  H15B21228   5.093   2.558   6.362 -2.2069 -0.1638  1.3829
  185SLPC  H15C21229   5.028   2.710   6.299 -0.6544 -3.1967 -1.0656
  185SLPC   C1221230   4.931   2.680   6.547  0.0753 -0.6614 -0.4556
  185SLPC  H12A21231   4.878   2.742   6.477  0.9210 -0.0534 -0.5739
  185SLPC  H12B21232   4.914   2.712   6.648  1.0269  1.6993 -0.9833
  185SLPC   C1121233   4.864   2.540   6.535  0.4320 -0.5639  0.2479
  185SLPC  H11A21234   4.755   2.548   6.551  0.3039 -1.8524  0.0916
  185SLPC  H11B21235   4.917   2.489   6.618  0.0870  3.4640  3.2129
  185SLPC     P21236   4.822   2.334   6.395  0.1227 -0.0730  0.2958
  185SLPC   O1321237   4.677   2.334   6.433 -0.2122 -0.7884 -0.1459
  185SLPC   O1421238   4.859   2.285   6.262 -0.4788  0.0927 -0.7638
  185SLPC   O1221239   4.883   2.478   6.412 -0.2335 -0.1381  0.7003
  185SLPC   O1121240   4.914   2.253   6.494 -0.2932  0.1833 -0.2940
  185SLPC    C121241   4.833   2.178   6.593 -0.6305  0.3281 -0.1660
  185SLPC    HA21242   4.750   2.120   6.547  0.2851 -0.4813 -0.8212
  185SLPC    HB21243   4.889   2.089   6.628 -3.1011 -1.7778 -1.2403
  185SLPC    C221244   4.778   2.250   6.718  0.2209 -0.5689  0.5668
  185SLPC    HS21245   4.708   2.328   6.680  1.4553  0.8673  1.1435
  185SLPC   O2121246   4.887   2.316   6.787  0.0495  0.6142 -0.2669
  185SLPC   C2121247   4.853   2.384   6.892  0.0364 -0.4339 -0.8173
  185SLPC   O2221248   4.748   2.443   6.907 -0.2588  0.4722  0.2439
  185SLPC   C2221249   4.961   2.390   7.003  0.6802 -0.0637 -1.5783
  185SLPC   H2R21250   5.053   2.438   6.962  0.1634  0.7490 -1.8112
  185SLPC   H2S21251   4.909   2.460   7.071  1.7301 -0.9219  0.1895
  185SLPC    C321252   4.689   2.150   6.799  0.3158  0.9252  0.5982
  185SLPC    HX21253   4.606   2.116   6.733  0.6369 -0.1566  0.7267
  185SLPC    HY21254   4.651   2.196   6.892  3.7410 -1.3339  3.3917
  185SLPC   O3121255   4.766   2.027   6.828 -0.2468  0.0739 -0.3269
  185SLPC   C3121256   4.700   1.912   6.844 -0.3422 -0.5619  0.3552
  185SLPC   O3221257   4.580   1.896   6.818 -0.6202 -0.5889  0.1965
  185SLPC   C3221258   4.791   1.811   6.916  0.0894  0.0132 -0.5298
  185SLPC   H2X21259   4.877   1.859   6.968 -1.6129  0.3963  2.0962
  185SLPC   H2Y21260   4.825   1.743   6.835 -0.8715 -1.7064  0.4600
  185SLPC   C2321261   4.976   2.249   7.069 -1.1187  0.1387 -0.2997
  185SLPC   H3R21262   5.027   2.171   7.009 -0.7879  0.6744 -0.7200
  185SLPC   H3S21263   4.871   2.213   7.080 -1.2359  0.2317 -1.0324
  185SLPC   C2421264   5.040   2.276   7.205 -0.0432  0.9792  0.2343
  185SLPC   H4R21265   4.988   2.351   7.268 -1.6658 -0.6334  0.8918
  185SLPC   H4S21266   5.143   2.308   7.179  1.0785 -2.6122 -0.3379
  185SLPC   C2521267   5.060   2.144   7.289  0.6938  0.2294 -0.3258
  185SLPC   H5R21268   5.099   2.071   7.215 -0.0240  0.1810 -0.6749
  185SLPC   H5S21269   4.974   2.091   7.335 -0.6505  0.8974 -1.9351
  185SLPC   C2621270   5.157   2.164   7.404 -0.0918  0.2332  0.9904
  185SLPC   H6R21271   5.230   2.233   7.355 -0.9320  0.5995  0.2198
  185SLPC   H6S21272   5.201   2.064   7.420 -2.4845 -1.3642 -1.4296
  185SLPC   C2721273   5.082   2.222   7.529 -0.5251  0.0146  0.6529
  185SLPC   H7R21274   5.028   2.141   7.582 -0.7020 -1.2970 -1.4479
  185SLPC   H7S21275   5.010   2.301   7.499 -1.8210 -1.2327  0.3524
  185SLPC   C2821276   5.189   2.270   7.626 -0.1090 -0.1564 -0.2168
  185SLPC   H8R21277   5.138   2.338   7.697 -0.2664  1.2507 -1.6224
  185SLPC   H8S21278   5.259   2.342   7.577  0.6106 -0.9704 -0.4124
  185SLPC   C2921279   5.263   2.155   7.694 -0.3385 -0.3356 -0.5622
  185SLPC   H9R21280   5.298   2.080   7.621  0.4829  0.6736 -1.2448
  185SLPC  C21021281   5.286   2.142   7.822  0.1975  1.3158  0.7125
  185SLPC  H10R21282   5.350   2.066   7.866  1.5128  2.8102  1.4714
  185SLPC  C21121283   5.242   2.245   7.925  0.5132  0.5755 -0.1988
  185SLPC  H11R21284   5.238   2.207   8.029  0.6799  1.8687  0.3056
  185SLPC  H11S21285   5.143   2.287   7.897  0.2387 -0.9632 -1.7050
  185SLPC  C21221286   5.345   2.354   7.941  0.6458  0.0491 -0.4041
  185SLPC  H12R21287   5.410   2.368   7.853  0.4970  4.5874 -0.0196
  185SLPC  C21321288   5.353   2.450   8.036 -0.0487  0.0528  0.3617
  185SLPC  H13R21289   5.419   2.537   8.024 -1.0582  0.6176 -1.5647
  185SLPC  C21421290   5.259   2.453   8.152  0.3350 -0.2726  0.1227
  185SLPC  H14R21291   5.157   2.425   8.118  0.9534 -0.6990 -1.4364
  185SLPC  H14S21292   5.243   2.561   8.172  1.2623  0.0521 -0.8583
  185SLPC  C21521293   5.303   2.386   8.283  0.6030  0.0584  0.2534
  185SLPC  H15R21294   5.395   2.441   8.313  0.5976  1.2974 -1.7594
  185SLPC  H15S21295   5.321   2.278   8.265  3.0275  0.4443  0.0522
  185SLPC  C21621296   5.196   2.401   8.400 -0.5398 -0.6545  0.0132
  185SLPC  H16R21297   5.107   2.342   8.370 -1.2369  0.4837 -0.1980
  185SLPC  H16S21298   5.152   2.503   8.399 -1.0715 -0.8716 -1.5048
  185SLPC  C21721299   5.257   2.374   8.541  0.4553 -0.5073 -1.1788
  185SLPC  H17R21300   5.310   2.466   8.575 -0.0654 -0.6298  0.0068
  185SLPC  H17S21301   5.334   2.294   8.540  0.6566 -0.3790  0.7866
  185SLPC  C21821302   5.144   2.349   8.646  0.0813 -0.5927 -0.6825
  185SLPC  H18R21303   5.088   2.255   8.629  1.0695 -1.9894  2.7604
  185SLPC  H18S21304   5.065   2.427   8.639 -0.9742 -1.6514 -0.8145
  185SLPC  H18T21305   5.178   2.337   8.752 -0.6644 -3.0016 -0.6672
  185SLPC   C3321306   4.714   1.734   7.024 -0.0717  0.3153  0.6117
  185SLPC   H3X21307   4.777   1.662   7.081  2.0345  1.9025  0.3983
  185SLPC   H3Y21308   4.634   1.671   6.979  1.1538 -1.0946  0.2875
  185SLPC   C3421309   4.646   1.816   7.134 -0.4881 -0.3725 -0.0327
  185SLPC   H4X21310   4.567   1.879   7.087 -1.2239 -1.6786 -0.6242
  185SLPC   H4Y21311   4.722   1.876   7.187 -1.0273 -0.4519  0.8435
  185SLPC   C3521312   4.579   1.724   7.232  0.5037  0.3114  0.1186
  185SLPC   H5X21313   4.653   1.647   7.260  1.3515  0.6519 -1.1171
  185SLPC   H5Y21314   4.488   1.675   7.190 -0.4830 -0.1599  2.6197
  185SLPC   C3621315   4.549   1.794   7.377  0.5865  0.0078  0.3661
  185SLPC   H6X21316   4.509   1.712   7.440 -3.2904  1.2047 -0.3024
  185SLPC   H6Y21317   4.473   1.873   7.362 -0.0529 -0.7315 -0.4563
  185SLPC   C3721318   4.678   1.846   7.445  0.2888 -0.1558 -0.0683
  185SLPC   H7X21319   4.676   1.953   7.413 -5.0978  0.2404  0.5325
  185SLPC   H7Y21320   4.767   1.794   7.405  0.2414 -0.2384 -0.0683
  185SLPC   C3821321   4.680   1.837   7.598  0.0789 -0.7840 -0.0138
  185SLPC   H8X21322   4.673   1.728   7.617  0.9772 -0.4287  2.8143
  185SLPC   H8Y21323   4.595   1.889   7.647  0.2344 -0.5103 -0.0331
  185SLPC   C3921324   4.812   1.886   7.669 -0.0987 -0.1186  0.2318
  185SLPC   H9X21325   4.831   1.989   7.632  0.7311 -0.1928  0.4333
  185SLPC   H9Y21326   4.896   1.822   7.633  0.0022 -1.5394  2.8004
  185SLPC  C31021327   4.815   1.871   7.822  0.1102 -0.2612  0.7114
  185SLPC  H10X21328   4.813   1.763   7.845 -0.4638 -0.6324 -0.9159
  185SLPC  H10Y21329   4.719   1.914   7.860  0.9687  2.7658 -0.2373
  185SLPC  C31121330   4.930   1.947   7.876  0.2270 -0.4782 -0.0958
  185SLPC  H11X21331   4.931   2.051   7.837  1.0060 -0.0907  0.8944
  185SLPC  H11Y21332   5.019   1.889   7.843  2.9405  1.8959  2.4583
  185SLPC  C31221333   4.929   1.949   8.028  0.4799 -0.4424  0.1085
  185SLPC  H12X21334   4.960   1.849   8.064 -1.3860 -1.2763 -0.4826
  185SLPC  H12Y21335   4.829   1.980   8.065 -0.5366 -2.2515 -0.9870
  185SLPC  C31321336   5.038   2.036   8.087 -0.4304 -0.2896  0.4774
  185SLPC  H13X21337   5.014   2.144   8.089 -1.4898 -0.5023  0.0418
  185SLPC  H13Y21338   5.134   2.029   8.032  0.6633 -0.0482  2.2709
  185SLPC  C31421339   5.086   1.988   8.226  0.3817 -0.0597  0.2689
  185SLPC  H14X21340   5.191   2.020   8.242  0.9176 -2.0671  1.1587
  185SLPC  H14Y21341   5.085   1.877   8.231  1.8599 -0.1741 -1.1689
  185SLPC  C31521342   4.992   2.035   8.329  0.2346 -0.4448  0.0745
  185SLPC  H15X21343   4.894   1.986   8.307  0.5157 -0.8660 -0.2355
  185SLPC  H15Y21344   4.975   2.145   8.322  1.1418  0.3674  5.6785
  185SLPC  C31621345   5.042   2.014   8.472 -0.2817 -0.1462  0.5183
  185SLPC  H16X21346   4.974   2.061   8.547 -1.7045 -1.4388  0.0831
  185SLPC  H16Y21347   5.148   2.043   8.486  0.1749 -2.3736  2.1740
  185SLPC  C31721348   5.036   1.865   8.526 -0.2588 -0.1176  0.8591
  185SLPC  H17X21349   5.100   1.795   8.467  0.6803  2.7413 -1.7685
  185SLPC  H17Y21350   4.931   1.834   8.511 -0.1079  0.9015 -3.6409
  185SLPC  C31821351   5.071   1.862   8.675 -0.2610  0.1999 -0.2034
  185SLPC  H18X21352   5.030   1.946   8.735  0.9677  0.6261  0.0704
  185SLPC  H18Y21353   5.179   1.866   8.703 -0.5220 -0.5439  0.9884
  185SLPC  H18Z21354   5.034   1.764   8.713 -0.2902  0.0810 -0.5432
  186SLPC     N21355   5.798   6.495   6.095 -0.0049  0.1075 -0.3349
  186SLPC   C1321356   5.805   6.360   6.028 -0.2407 -0.2749 -0.9293
  186SLPC  H13A21357   5.709   6.343   5.982 -1.3094  1.4654  0.5291
  186SLPC  H13B21358   5.876   6.347   5.948  2.4039  2.5702  0.7274
  186SLPC  H13C21359   5.815   6.277   6.096 -0.3150 -0.8482 -1.6072
  186SLPC   C1421360   5.782   6.596   5.987  0.6264 -0.4528 -0.0636
  186SLPC  H14A21361   5.866   6.595   5.919  0.9047 -0.4399  0.2782
  186SLPC  H14B21362   5.692   6.576   5.931  0.7225 -1.7354  0.2004
  186SLPC  H14C21363   5.776   6.688   6.043  1.1429 -1.9157  2.5138
  186SLPC   C1521364   5.929   6.529   6.166  0.3003  0.2801 -0.3888
  186SLPC  H15A21365   5.962   6.448   6.231  1.1551  0.8562 -0.0863
  186SLPC  H15B21366   6.013   6.538   6.099 -1.5495  0.7435 -2.7577
  186SLPC  H15C21367   5.918   6.621   6.221 -0.7133 -0.5969  0.9607
  186SLPC   C1221368   5.684   6.497   6.200 -1.1184 -0.1163  0.9675
  186SLPC  H12A21369   5.695   6.577   6.271  1.6144 -1.0899  1.7803
  186SLPC  H12B21370   5.695   6.406   6.257 -2.5957 -1.8524 -1.3441
  186SLPC   C1121371   5.540   6.506   6.144 -0.4775 -0.2448 -0.5157
  186SLPC  H11A21372   5.508   6.610   6.124 -0.2294 -0.2442 -0.9291
  186SLPC  H11B21373   5.474   6.484   6.231 -0.1358  0.7488  0.0041
  186SLPC     P21374   5.463   6.280   6.046 -0.2456  0.0514  0.0083
  186SLPC   O1321375   5.320   6.284   6.087 -0.3155  0.5729  0.5805
  186SLPC   O1421376   5.496   6.203   5.922 -0.2018 -0.0398  0.0340
  186SLPC   O1221377   5.515   6.429   6.027 -0.3042 -0.1173  0.0767
  186SLPC   O1121378   5.534   6.220   6.177 -0.5191  0.7206  0.4730
  186SLPC    C121379   5.486   6.104   6.241 -0.6498  0.8667 -0.1258
  186SLPC    HA21380   5.424   6.041   6.173  0.9612 -0.5614 -0.3182
  186SLPC    HB21381   5.569   6.041   6.278 -0.3231  1.7843  0.7380
  186SLPC    C221382   5.398   6.142   6.361 -0.5443  0.0960 -0.4713
  186SLPC    HS21383   5.311   6.202   6.326 -0.8641  1.1511  1.8753
  186SLPC   O2121384   5.476   6.215   6.462 -0.5259  0.3212  0.1476
  186SLPC   C2121385   5.421   6.314   6.531 -0.2975  0.6718  0.6491
  186SLPC   O2221386   5.308   6.349   6.518 -0.3567 -0.2992  0.4030
  186SLPC   C2221387   5.521   6.370   6.633 -0.0982  0.7927  0.0178
  186SLPC   H2R21388   5.594   6.429   6.574  1.9658 -0.3942  1.2493
  186SLPC   H2S21389   5.475   6.431   6.713 -0.0530  0.4861  0.2831
  186SLPC    C321390   5.327   6.014   6.421  0.1212  0.1336  0.4437
  186SLPC    HX21391   5.413   5.947   6.447 -0.2805 -0.7332 -0.4086
  186SLPC    HY21392   5.273   5.958   6.342  1.5432 -1.5415  0.5762
  186SLPC   O3121393   5.241   6.054   6.534 -0.1312  0.3139  0.3271
  186SLPC   C3121394   5.120   6.080   6.488  0.4811 -0.2361  0.6039
  186SLPC   O3221395   5.087   6.085   6.370  0.1982 -0.1915 -0.2235
  186SLPC   C3221396   5.019   6.094   6.603 -0.1336  0.4922 -0.5091
  186SLPC   H2X21397   4.929   6.146   6.564 -0.8021 -0.3570 -0.1275
  186SLPC   H2Y21398   5.078   6.159   6.671 -0.3844  0.6596 -0.4516
  186SLPC   C2321399   5.592   6.256   6.721  0.8151  0.3939  0.6232
  186SLPC   H3R21400   5.624   6.175   6.652  0.7350  1.2975 -0.5046
  186SLPC   H3S21401   5.510   6.227   6.790  0.4508  1.9464  0.8810
  186SLPC   C2421402   5.710   6.287   6.806  0.0796 -0.5074 -0.4945
  186SLPC   H4R21403   5.789   6.346   6.756 -1.1339 -0.4417 -2.4632
  186SLPC   H4S21404   5.759   6.193   6.841  0.5827  0.7307  2.4033
  186SLPC   C2521405   5.675   6.366   6.929 -0.0087 -0.8919  0.2128
  186SLPC   H5R21406   5.600   6.317   6.994  0.7471 -0.2993  1.5756
  186SLPC   H5S21407   5.648   6.471   6.909 -0.5789 -1.1309 -0.2874
  186SLPC   C2621408   5.801   6.390   7.021 -0.1646  0.1684 -0.2768
  186SLPC   H6R21409   5.888   6.424   6.960  0.6717  0.5979  1.1087
  186SLPC   H6S21410   5.825   6.289   7.058  0.2613  0.9110  1.5798
  186SLPC   C2721411   5.776   6.497   7.133  0.3421  0.0222  0.4016
  186SLPC   H7R21412   5.687   6.460   7.189 -1.3892 -0.2310 -2.3372
  186SLPC   H7S21413   5.765   6.589   7.072 -1.9883  0.1400  0.8971
  186SLPC   C2821414   5.889   6.518   7.227  0.1390 -0.7801 -0.7192
  186SLPC   H8R21415   5.980   6.530   7.164  0.4038 -1.6566 -0.5225
  186SLPC   H8S21416   5.909   6.426   7.287  2.0715 -0.2656 -0.5057
  186SLPC   C2921417   5.872   6.637   7.323  0.5659  0.2002  0.1926
  186SLPC   H9R21418   5.932   6.729   7.308 -0.1545  0.5961 -0.3163
  186SLPC  C21021419   5.788   6.638   7.424  0.3339 -0.6450 -0.2110
  186SLPC  H10R21420   5.789   6.729   7.485 -1.9580 -0.1276 -0.8346
  186SLPC  C21121421   5.694   6.535   7.481  0.5172 -0.3042  0.5101
  186SLPC  H11R21422   5.627   6.499   7.399 -1.7595  1.8219  1.2987
  186SLPC  H11S21423   5.621   6.577   7.553  1.2611 -0.2674  1.2529
  186SLPC  C21221424   5.762   6.421   7.546  0.7284  0.3266 -0.0293
  186SLPC  H12R21425   5.802   6.349   7.474 -2.5555 -0.6812 -0.9809
  186SLPC  C21321426   5.771   6.400   7.681 -0.2953 -0.0840  0.3771
  186SLPC  H13R21427   5.822   6.311   7.722 -0.7344 -0.8428 -0.6899
  186SLPC  C21421428   5.707   6.483   7.793 -0.2643  0.2183 -0.0606
  186SLPC  H14R21429   5.676   6.584   7.760 -2.0323 -0.4114 -0.4741
  186SLPC  H14S21430   5.790   6.497   7.865 -2.4062 -0.2679  2.6444
  186SLPC  C21521431   5.589   6.403   7.848  0.0147 -0.5484 -0.3132
  186SLPC  H15R21432   5.604   6.299   7.884 -2.0028 -0.7947 -0.0592
  186SLPC  H15S21433   5.517   6.397   7.763 -1.3540 -1.9684  0.8852
  186SLPC  C21621434   5.528   6.486   7.966 -0.8345 -0.1660  0.4228
  186SLPC  H16R21435   5.485   6.583   7.933 -0.7788 -0.2908 -0.0208
  186SLPC  H16S21436   5.600   6.515   8.046 -0.4990  1.2724 -0.3818
  186SLPC  C21721437   5.416   6.411   8.034  0.2749 -0.4677  0.4446
  186SLPC  H17R21438   5.461   6.313   8.061  1.1353  0.3604  2.1900
  186SLPC  H17S21439   5.334   6.386   7.963  0.0857 -0.4208  0.6437
  186SLPC  C21821440   5.357   6.484   8.153  1.3298  0.5339  0.0590
  186SLPC  H18R21441   5.303   6.578   8.128 -2.3780 -1.2332  0.7668
  186SLPC  H18S21442   5.424   6.496   8.241  2.1831 -0.7144 -0.3999
  186SLPC  H18T21443   5.268   6.423   8.176  2.4241 -0.3640  2.1522
  186SLPC   C3321444   4.974   5.968   6.677  0.0911 -0.4859 -0.2950
  186SLPC   H3X21445   4.943   5.887   6.608 -0.6655 -0.2861 -0.2029
  186SLPC   H3Y21446   4.882   5.990   6.736 -0.2751 -0.9107 -0.7072
  186SLPC   C3421447   5.084   5.922   6.768  1.1118  0.4053  0.4105
  186SLPC   H4X21448   5.124   6.001   6.834  2.7235  0.0554 -0.1057
  186SLPC   H4Y21449   5.172   5.881   6.712  0.9578  1.3188 -0.5362
  186SLPC   C3521450   5.045   5.799   6.856  0.4444 -0.2728 -0.1480
  186SLPC   H5X21451   5.119   5.720   6.832  1.3922 -0.4776  2.9859
  186SLPC   H5Y21452   4.948   5.753   6.826  0.0981 -1.0262  1.9367
  186SLPC   C3621453   5.050   5.834   7.005 -0.0347  0.3196  0.8717
  186SLPC   H6X21454   4.972   5.905   7.038 -1.0715 -1.1736  1.7272
  186SLPC   H6Y21455   5.152   5.876   7.024  0.8832 -0.9516 -0.8950
  186SLPC   C3721456   5.027   5.716   7.105  0.3370  0.4354 -0.5553
  186SLPC   H7X21457   5.119   5.655   7.095  0.5865  1.0860 -2.5793
  186SLPC   H7Y21458   4.950   5.647   7.063  0.1583 -1.2066  2.2413
  186SLPC   C3821459   4.987   5.756   7.247 -0.3991  0.0758  0.0632
  186SLPC   H8X21460   4.878   5.776   7.248 -0.5447 -0.6016 -0.7904
  186SLPC   H8Y21461   5.045   5.849   7.261 -0.5085  0.4009 -1.4374
  186SLPC   C3921462   5.045   5.662   7.352 -0.4370  0.3464 -0.2871
  186SLPC   H9X21463   5.153   5.657   7.328 -0.6054  1.1790 -1.3185
  186SLPC   H9Y21464   4.998   5.563   7.335  0.2354 -0.3152  1.5179
  186SLPC  C31021465   5.029   5.702   7.498  0.1467 -0.6168  0.4806
  186SLPC  H10X21466   4.922   5.732   7.503  0.2047 -0.5103  1.2368
  186SLPC  H10Y21467   5.080   5.798   7.522 -0.2958 -0.1873 -0.2702
  186SLPC  C31121468   5.065   5.601   7.606  0.2039 -0.0359 -0.3443
  186SLPC  H11X21469   5.172   5.573   7.603  0.4227  0.8005 -0.4699
  186SLPC  H11Y21470   5.009   5.509   7.579  0.3007 -0.4146  0.7050
  186SLPC  C31221471   5.012   5.656   7.739 -0.4374  0.5610 -0.6718
  186SLPC  H12X21472   4.912   5.705   7.739 -0.5560  0.3324  0.4745
  186SLPC  H12Y21473   5.083   5.734   7.773 -0.1438  0.5059 -1.1525
  186SLPC  C31321474   5.002   5.548   7.850 -0.5958 -0.1971  0.0060
  186SLPC  H13X21475   5.102   5.501   7.853 -0.4963 -0.0037 -0.2742
  186SLPC  H13Y21476   4.946   5.461   7.811 -0.5543 -0.3776  0.3380
  186SLPC  C31421477   4.953   5.593   7.987 -0.0322  0.6360  0.6323
  186SLPC  H14X21478   5.016   5.679   8.020 -4.0728  4.2427 -0.2277
  186SLPC  H14Y21479   4.962   5.502   8.049 -1.3214  1.4206  2.0274
  186SLPC  C31521480   4.815   5.648   7.985 -0.0288 -0.4663  0.4724
  186SLPC  H15X21481   4.751   5.575   7.932 -2.4526 -0.9471  3.7689
  186SLPC  H15Y21482   4.812   5.747   7.935 -1.3476  0.2644  1.9192
  186SLPC  C31621483   4.751   5.682   8.125 -0.3847 -0.0876 -0.0638
  186SLPC  H16X21484   4.658   5.734   8.092 -0.7402 -1.4270 -1.2553
  186SLPC  H16Y21485   4.814   5.758   8.177  1.8400 -0.5818 -1.8461
  186SLPC  C31721486   4.722   5.563   8.212 -0.0956 -0.1941 -1.0817
  186SLPC  H17X21487   4.816   5.504   8.210  1.0053  1.5296 -1.9628
  186SLPC  H17Y21488   4.642   5.500   8.168  0.4391 -1.3149 -0.5252
  186SLPC  C31821489   4.677   5.608   8.351 -0.3214 -0.1043 -0.0502
  186SLPC  H18X21490   4.679   5.532   8.431 -1.4243 -0.9152 -0.7708
  186SLPC  H18Y21491   4.573   5.643   8.334  0.0359  0.5321 -1.0368
  186SLPC  H18Z21492   4.728   5.702   8.383 -0.8817  0.0279  0.4847
  187SLPC     N21493   3.419   3.456   6.117 -0.4958 -0.3254 -0.0568
  187SLPC   C1321494   3.303   3.476   6.027 -0.1517 -0.4715  0.0278
  187SLPC  H13A21495   3.317   3.427   5.932 -2.1109 -1.1754  0.0450
  187SLPC  H13B21496   3.206   3.439   6.058 -0.3380  1.1508  1.5256
  187SLPC  H13C21497   3.291   3.580   6.004  2.0888 -0.2939 -0.5957
  187SLPC   C1421498   3.531   3.509   6.033  0.0101  0.5017 -0.2801
  187SLPC  H14A21499   3.498   3.596   5.979  0.4729 -0.5161 -2.3018
  187SLPC  H14B21500   3.617   3.529   6.096 -0.1462  0.8408 -0.1743
  187SLPC  H14C21501   3.571   3.439   5.961  0.4375  0.2072  0.2362
  187SLPC   C1521502   3.442   3.314   6.153 -0.2515  0.2851 -0.3413
  187SLPC  H15A21503   3.371   3.282   6.227  1.2783 -0.5973  0.8021
  187SLPC  H15B21504   3.437   3.252   6.065  0.1763 -0.3079  0.0430
  187SLPC  H15C21505   3.540   3.299   6.196 -0.0965 -1.1121 -1.0968
  187SLPC   C1221506   3.403   3.539   6.248  0.1273  0.1499 -0.0877
  187SLPC  H12A21507   3.306   3.513   6.287 -0.2700 -0.5784 -1.4951
  187SLPC  H12B21508   3.410   3.643   6.220  0.1260  0.6878  1.8173
  187SLPC   C1121509   3.506   3.516   6.362  0.6989 -0.5975 -0.1625
  187SLPC  H11A21510   3.493   3.419   6.413  2.3217 -0.6487  0.2171
  187SLPC  H11B21511   3.483   3.587   6.445  3.0258  0.3361 -0.2347
  187SLPC     P21512   3.711   3.667   6.331 -1.0238  0.1513  0.1740
  187SLPC   O1321513   3.859   3.655   6.293  0.7876 -0.0213 -0.1845
  187SLPC   O1421514   3.632   3.764   6.259  0.1251 -0.3338  0.2676
  187SLPC   O1221515   3.649   3.519   6.327 -0.0708  0.0814  0.2042
  187SLPC   O1121516   3.707   3.689   6.493 -0.0505 -0.7999  0.1477
  187SLPC    C121517   3.780   3.605   6.582  0.5337 -0.1687 -0.0023
  187SLPC    HA21518   3.749   3.499   6.570  1.2248 -0.3695 -0.0773
  187SLPC    HB21519   3.888   3.615   6.556  0.0894  4.1892 -0.9937
  187SLPC    C221520   3.751   3.648   6.730  0.0813  0.3868  0.2559
  187SLPC    HS21521   3.799   3.573   6.797 -0.3138  0.4309  0.5936
  187SLPC   O2121522   3.612   3.667   6.762 -0.0817  0.2887 -0.3789
  187SLPC   C2121523   3.537   3.552   6.749 -0.0970 -0.3965 -0.1331
  187SLPC   O2221524   3.580   3.444   6.714 -0.0888  0.6253  0.0802
  187SLPC   C2221525   3.390   3.595   6.757  0.2592 -0.3358  0.2779
  187SLPC   H2R21526   3.353   3.621   6.656  2.2667 -2.6144 -1.1574
  187SLPC   H2S21527   3.338   3.500   6.786  0.7244 -1.4885 -2.4094
  187SLPC    C321528   3.826   3.787   6.752  0.7477  0.0159  0.5201
  187SLPC    HX21529   3.778   3.846   6.671 -0.3857 -1.7808 -0.1845
  187SLPC    HY21530   3.934   3.788   6.725  0.2133 -0.0917 -1.8568
  187SLPC   O3121531   3.807   3.845   6.884  0.2059  0.1072  0.1114
  187SLPC   C3121532   3.700   3.910   6.913  0.0473 -0.5019 -0.1289
  187SLPC   O3221533   3.605   3.933   6.842 -0.0309 -0.1002 -0.5677
  187SLPC   C3221534   3.724   3.954   7.059  0.9778  0.4660  0.4592
  187SLPC   H2X21535   3.804   4.031   7.058  1.4254  0.0034  0.5867
  187SLPC   H2Y21536   3.753   3.860   7.110  1.1937  0.4315  0.2688
  187SLPC   C2321537   3.356   3.711   6.850  0.0183 -0.0770  0.2335
  187SLPC   H3R21538   3.247   3.727   6.831  0.7970  1.6937 -3.7378
  187SLPC   H3S21539   3.408   3.805   6.823 -1.7053  0.7278 -0.4830
  187SLPC   C2421540   3.378   3.673   6.997  0.2248  0.9261 -0.3743
  187SLPC   H4R21541   3.344   3.759   7.058  0.3991  0.6008  0.1915
  187SLPC   H4S21542   3.482   3.645   7.025  0.4644  1.9665 -0.1945
  187SLPC   C2521543   3.290   3.552   7.053 -0.7265  0.3140 -0.2828
  187SLPC   H5R21544   3.329   3.455   7.016 -1.0594 -0.8411  2.1894
  187SLPC   H5S21545   3.185   3.561   7.016 -0.5872  0.9234 -0.5308
  187SLPC   C2621546   3.285   3.541   7.203 -0.2182 -0.2522  0.3889
  187SLPC   H6R21547   3.256   3.645   7.230  2.6180  0.6969  0.1186
  187SLPC   H6S21548   3.381   3.525   7.256 -0.9226 -0.2800  1.6800
  187SLPC   C2721549   3.191   3.436   7.248  0.4736 -0.4721  0.0758
  187SLPC   H7R21550   3.204   3.343   7.189 -2.6803 -0.9058 -0.1380
  187SLPC   H7S21551   3.084   3.463   7.233  0.5883  0.1861  0.4224
  187SLPC   C2821552   3.205   3.396   7.393  0.1568  0.0100 -0.0398
  187SLPC   H8R21553   3.113   3.346   7.430  0.1984 -2.1519 -2.5538
  187SLPC   H8S21554   3.215   3.480   7.464  0.1428 -0.6042  0.7035
  187SLPC   C2921555   3.317   3.293   7.406 -0.4759 -0.1218 -0.5581
  187SLPC   H9R21556   3.328   3.222   7.322 -3.2138 -1.0699 -0.2189
  187SLPC  C21021557   3.409   3.294   7.506  0.4459 -0.1754 -0.0800
  187SLPC  H10R21558   3.498   3.231   7.488  2.2774  2.0581  0.7923
  187SLPC  C21121559   3.417   3.386   7.627  0.0877  0.2418  0.4839
  187SLPC  H11R21560   3.461   3.339   7.718  0.4834  1.2129  0.8119
  187SLPC  H11S21561   3.310   3.406   7.651 -0.1426 -1.9525  1.4602
  187SLPC  C21221562   3.484   3.514   7.583  0.6143 -0.2571 -0.6814
  187SLPC  H12R21563   3.474   3.532   7.475  0.1281  0.2448 -0.5568
  187SLPC  C21321564   3.545   3.599   7.663 -0.1779  0.2509  0.7952
  187SLPC  H13R21565   3.577   3.692   7.615 -3.9414  1.8523  0.9882
  187SLPC  C21421566   3.563   3.588   7.811  0.1704 -0.6869  0.4723
  187SLPC  H14R21567   3.669   3.618   7.822  0.2845 -0.1456 -1.6077
  187SLPC  H14S21568   3.542   3.490   7.859 -0.8964 -0.4220  0.5548
  187SLPC  C21521569   3.478   3.687   7.895 -0.3649  0.2231 -0.1594
  187SLPC  H15R21570   3.368   3.670   7.899 -0.1078 -1.4233  1.8256
  187SLPC  H15S21571   3.488   3.796   7.875  0.7166  0.8067  2.9720
  187SLPC  C21621572   3.511   3.681   8.050 -0.1542  0.2762 -0.6398
  187SLPC  H16R21573   3.502   3.579   8.094  2.2817  0.2793 -0.0301
  187SLPC  H16S21574   3.444   3.749   8.107 -0.9090  0.8538 -2.1563
  187SLPC  C21721575   3.654   3.714   8.083 -0.1214  0.7391 -0.0032
  187SLPC  H17R21576   3.670   3.819   8.051 -0.5530  0.7633 -0.1457
  187SLPC  H17S21577   3.721   3.639   8.036 -0.2871 -0.2527  1.2636
  187SLPC  C21821578   3.678   3.721   8.233  0.0082 -0.1360  0.1551
  187SLPC  H18R21579   3.657   3.619   8.272  0.0474 -1.3590 -2.7947
  187SLPC  H18S21580   3.608   3.796   8.275  0.3303  0.2717 -0.0305
  187SLPC  H18T21581   3.777   3.765   8.258 -1.2522  3.3487 -0.4679
  187SLPC   C3321582   3.586   4.013   7.103  0.3063  0.3123  0.8638
  187SLPC   H3X21583   3.515   3.930   7.123 -2.4890  1.8955 -1.4988
  187SLPC   H3Y21584   3.534   4.080   7.030 -0.8806  1.7210  2.8996
  187SLPC   C3421585   3.615   4.096   7.226  0.0809 -0.6689  0.6365
  187SLPC   H4X21586   3.714   4.070   7.271  0.9148  0.7690 -0.2729
  187SLPC   H4Y21587   3.533   4.063   7.294 -0.0473 -1.1540  0.2517
  187SLPC   C3521588   3.607   4.246   7.188 -0.0902  0.1728 -0.3290
  187SLPC   H5X21589   3.502   4.275   7.169 -0.0596  1.1002  0.7991
  187SLPC   H5Y21590   3.666   4.250   7.094  0.1551 -0.8225 -0.2360
  187SLPC   C3621591   3.678   4.334   7.293  0.5049 -0.1678 -0.1317
  187SLPC   H6X21592   3.616   4.355   7.382 -0.7151  1.5209 -1.3222
  187SLPC   H6Y21593   3.685   4.435   7.247  1.0704  0.4967  1.3454
  187SLPC   C3721594   3.826   4.309   7.326 -1.1766 -0.8228  0.1524
  187SLPC   H7X21595   3.835   4.207   7.369 -0.1265 -0.7059  0.2199
  187SLPC   H7Y21596   3.868   4.303   7.223 -1.0083  0.0834  0.1619
  187SLPC   C3821597   3.900   4.405   7.422 -0.2731  0.2459  0.1290
  187SLPC   H8X21598   3.897   4.513   7.396  0.9710  1.1132  3.1206
  187SLPC   H8Y21599   4.008   4.379   7.421 -0.2699  0.1156  1.6181
  187SLPC   C3921600   3.849   4.397   7.562  0.0799 -0.0982  0.1836
  187SLPC   H9X21601   3.738   4.394   7.564  0.0837 -3.1926  0.3238
  187SLPC   H9Y21602   3.888   4.473   7.633 -0.0429 -0.2776  0.4461
  187SLPC  C31021603   3.883   4.264   7.636 -0.1778  0.8203 -0.2980
  187SLPC  H10X21604   3.983   4.228   7.602 -0.3139 -1.1595  1.2391
  187SLPC  H10Y21605   3.805   4.191   7.607 -0.2524  1.0465 -0.6688
  187SLPC  C31121606   3.883   4.286   7.789  0.3668  0.3205 -0.4322
  187SLPC  H11X21607   3.974   4.340   7.824 -0.2082  0.1078  1.4886
  187SLPC  H11Y21608   3.902   4.189   7.837  1.6978 -0.7217 -2.8676
  187SLPC  C31221609   3.764   4.353   7.849  0.2223 -0.4373 -0.9264
  187SLPC  H12X21610   3.733   4.446   7.796 -1.7358 -0.6704 -0.2934
  187SLPC  H12Y21611   3.790   4.404   7.944 -1.9524 -0.7968 -0.0693
  187SLPC  C31321612   3.647   4.268   7.890 -0.4550  1.2263 -0.2428
  187SLPC  H13X21613   3.690   4.181   7.945 -1.3926  2.1035  1.9742
  187SLPC  H13Y21614   3.602   4.222   7.799  0.4523  0.7882 -0.4794
  187SLPC  C31421615   3.545   4.337   7.988 -0.3180  0.3961 -0.3215
  187SLPC  H14X21616   3.597   4.405   8.058 -0.5884  0.8080 -0.5113
  187SLPC  H14Y21617   3.501   4.256   8.050 -2.2739  1.0186 -0.8238
  187SLPC  C31521618   3.434   4.409   7.920  0.0148 -0.2377 -0.6213
  187SLPC  H15X21619   3.382   4.332   7.859  0.4494 -1.0174 -0.0333
  187SLPC  H15Y21620   3.479   4.481   7.849  1.8688 -0.3041  0.4052
  187SLPC  C31621621   3.357   4.495   8.022 -0.7000 -0.0240  0.4760
  187SLPC  H16X21622   3.424   4.557   8.085  0.1320  0.4458 -0.8357
  187SLPC  H16Y21623   3.311   4.431   8.101  1.9229 -2.2242  0.3686
  187SLPC  C31721624   3.269   4.596   7.956  0.0790  0.2196  0.9985
  187SLPC  H17X21625   3.177   4.610   8.016 -0.6969 -2.4406  0.5716
  187SLPC  H17Y21626   3.234   4.555   7.859  1.0945 -0.0876  0.7503
  187SLPC  C31821627   3.347   4.728   7.934 -0.4267  0.1144 -0.1565
  187SLPC  H18X21628   3.332   4.757   7.828 -0.5950 -1.9901 -0.7578
  187SLPC  H18Y21629   3.455   4.707   7.951 -0.6328 -0.5777  0.3551
  187SLPC  H18Z21630   3.311   4.799   8.012 -3.2366  0.1821 -1.4120
  188SLPC     N21631   5.773   2.765   6.147  0.3217  0.0782 -0.3871
  188SLPC   C1321632   5.688   2.826   6.040  0.1223 -0.1508  0.4069
  188SLPC  H13A21633   5.593   2.859   6.079 -1.4739 -3.1522 -0.6227
  188SLPC  H13B21634   5.740   2.902   5.982  0.3829 -0.4068  0.2994
  188SLPC  H13C21635   5.662   2.748   5.970 -2.9455  2.0508 -1.0972
  188SLPC   C1421636   5.839   2.881   6.218 -0.2319 -0.3380 -0.0825
  188SLPC  H14A21637   5.766   2.950   6.257 -0.5455  0.0628 -1.3234
  188SLPC  H14B21638   5.905   2.848   6.297 -0.0578  0.1549 -0.0187
  188SLPC  H14C21639   5.903   2.942   6.156  0.7179 -0.4449  0.7701
  188SLPC   C1521640   5.884   2.685   6.092  0.2577 -0.6551  0.2799
  188SLPC  H15A21641   5.939   2.650   6.178 -2.9682 -1.2940  2.2541
  188SLPC  H15B21642   5.859   2.598   6.033  5.2961 -0.5709 -2.5587
  188SLPC  H15C21643   5.950   2.733   6.021 -0.3481 -0.6182 -0.2705
  188SLPC   C1221644   5.693   2.683   6.247 -0.3254 -0.4443 -0.4955
  188SLPC  H12A21645   5.758   2.634   6.317  0.2916 -0.4020 -1.0350
  188SLPC  H12B21646   5.635   2.606   6.197 -0.7800 -0.1433 -0.4439
  188SLPC   C1121647   5.586   2.752   6.335 -0.2506  1.1429 -0.4161
  188SLPC  H11A21648   5.525   2.813   6.265  1.4417  2.5896 -0.7136
  188SLPC  H11B21649   5.647   2.814   6.404 -1.5004  1.0524  0.8162
  188SLPC     P21650   5.546   2.604   6.553 -0.2988 -0.2752  0.0662
  188SLPC   O1321651   5.483   2.473   6.566  0.0449  0.3005  0.3356
  188SLPC   O1421652   5.695   2.613   6.568  0.4395  0.3034  0.3498
  188SLPC   O1221653   5.504   2.659   6.415  0.4924  0.1908  0.6345
  188SLPC   O1121654   5.466   2.712   6.637 -0.7141  0.0490  0.2747
  188SLPC    C121655   5.521   2.839   6.680 -0.1013 -0.7603  0.3303
  188SLPC    HA21656   5.621   2.859   6.637  1.3953 -1.4388  3.2667
  188SLPC    HB21657   5.458   2.924   6.647  3.0389  1.5210 -0.1392
  188SLPC    C221658   5.532   2.860   6.834 -0.0099  0.2904 -0.3903
  188SLPC    HS21659   5.560   2.966   6.848  1.6415 -0.3402  1.7046
  188SLPC   O2121660   5.623   2.764   6.883 -0.2416  0.2626  0.2401
  188SLPC   C2121661   5.748   2.782   6.844  0.4439 -0.9981  0.1875
  188SLPC   O2221662   5.792   2.873   6.780 -0.3205 -0.1189  0.5575
  188SLPC   C2221663   5.828   2.680   6.912 -0.2779 -0.0566  0.2735
  188SLPC   H2R21664   5.772   2.610   6.977  0.3472 -1.3160 -0.5174
  188SLPC   H2S21665   5.879   2.636   6.824  0.1454  0.7722  0.0963
  188SLPC    C321666   5.395   2.837   6.908  0.2661 -0.2838 -0.0100
  188SLPC    HX21667   5.362   2.731   6.904  1.3646 -0.9464  3.7811
  188SLPC    HY21668   5.319   2.888   6.845  1.9256 -0.1639 -2.0227
  188SLPC   O3121669   5.399   2.877   7.042 -0.4731 -0.5003  0.8577
  188SLPC   C3121670   5.303   2.961   7.082  0.1237  0.1818  0.3627
  188SLPC   O3221671   5.208   2.998   7.013  0.1098 -0.5247  0.2093
  188SLPC   C3221672   5.323   3.018   7.223  0.1223  0.1414  0.0904
  188SLPC   H2X21673   5.335   3.128   7.221  1.5003  0.0037 -0.1994
  188SLPC   H2Y21674   5.420   2.977   7.258  0.7519  0.0192 -1.7140
  188SLPC   C2321675   5.942   2.744   7.000  0.1978  0.5721  0.2956
  188SLPC   H3R21676   6.008   2.798   6.929  0.7294 -1.6865 -1.0488
  188SLPC   H3S21677   5.992   2.657   7.049 -0.8308  0.0142  0.3789
  188SLPC   C2421678   5.887   2.843   7.105 -0.1847 -0.4735 -0.1777
  188SLPC   H4R21679   5.828   2.918   7.048 -0.1835  1.2853  2.0007
  188SLPC   H4S21680   5.978   2.888   7.150 -0.0837 -1.1910  0.3471
  188SLPC   C2521681   5.799   2.793   7.222 -0.9962  0.4501 -0.0348
  188SLPC   H5R21682   5.701   2.757   7.184 -0.1591 -1.1820 -0.7370
  188SLPC   H5S21683   5.782   2.890   7.274 -1.3492 -0.4868  1.6774
  188SLPC   C2621684   5.868   2.692   7.329 -0.1245 -0.3966  0.3087
  188SLPC   H6R21685   5.967   2.678   7.281  0.0097 -0.8283  0.7083
  188SLPC   H6S21686   5.819   2.592   7.320  0.4452 -0.7919  1.4351
  188SLPC   C2721687   5.873   2.744   7.472 -0.3594  0.1355  0.4657
  188SLPC   H7R21688   5.772   2.763   7.513 -0.2119  1.7939  0.1313
  188SLPC   H7S21689   5.923   2.843   7.475  0.6371 -0.3735  1.3112
  188SLPC   C2821690   5.952   2.655   7.566  0.0457  0.4538  0.1944
  188SLPC   H8R21691   6.059   2.641   7.542  0.6641  1.5921  2.1096
  188SLPC   H8S21692   5.905   2.555   7.554  0.5953  0.0756  1.1219
  188SLPC   C2921693   5.967   2.715   7.702 -0.3352 -0.1519 -0.1645
  188SLPC   H9R21694   6.051   2.786   7.705 -0.9349  0.7247 -2.3826
  188SLPC  C21021695   5.910   2.674   7.814 -0.2545 -0.8275 -0.2196
  188SLPC  H10R21696   5.957   2.697   7.911  2.3071 -0.8169 -1.3901
  188SLPC  C21121697   5.806   2.567   7.827  0.2154 -0.8238  0.1106
  188SLPC  H11R21698   5.839   2.497   7.906  2.9448 -1.3959 -1.4046
  188SLPC  H11S21699   5.807   2.502   7.737  0.9274  0.6614 -0.9899
  188SLPC  C21221700   5.674   2.637   7.839 -0.0184  0.6959 -0.3946
  188SLPC  H12R21701   5.665   2.706   7.925 -0.9832  2.1649 -1.6229
  188SLPC  C21321702   5.560   2.615   7.768 -0.2287 -0.0955  0.0081
  188SLPC  H13R21703   5.467   2.666   7.800 -0.6031 -1.3929  1.0870
  188SLPC  C21421704   5.555   2.524   7.646  0.3543 -0.0225  0.0045
  188SLPC  H14R21705   5.515   2.430   7.689  0.5936 -0.0415  0.1829
  188SLPC  H14S21706   5.650   2.496   7.596  0.2178 -0.9342  0.2361
  188SLPC  C21521707   5.440   2.570   7.547 -0.0961 -0.1111  0.3497
  188SLPC  H15R21708   5.453   2.680   7.541  0.7488 -0.2549 -0.6884
  188SLPC  H15S21709   5.339   2.547   7.587  0.0696  1.9193  2.1335
  188SLPC  C21621710   5.447   2.510   7.403 -0.1245 -0.3822 -0.0708
  188SLPC  H16R21711   5.391   2.415   7.393 -1.9494  0.8479 -3.4049
  188SLPC  H16S21712   5.551   2.487   7.372 -0.5408 -1.3193 -0.8124
  188SLPC  C21721713   5.387   2.610   7.305 -0.3905 -0.0794  0.1494
  188SLPC  H17R21714   5.428   2.710   7.328 -0.2143 -0.2379  0.5244
  188SLPC  H17S21715   5.279   2.618   7.330 -0.2312 -1.9572  1.6821
  188SLPC  C21821716   5.398   2.564   7.157  0.9155 -0.8027  0.1903
  188SLPC  H18R21717   5.498   2.595   7.120  0.0198  0.1029 -1.6052
  188SLPC  H18S21718   5.328   2.618   7.090 -3.1800 -3.0075  2.2681
  188SLPC  H18T21719   5.373   2.457   7.138 -1.7481  0.0414 -1.7087
  188SLPC   C3321720   5.212   2.973   7.325  0.5042  0.4408 -0.0924
  188SLPC   H3X21721   5.223   2.867   7.355 -1.4983 -0.1761 -1.3131
  188SLPC   H3Y21722   5.118   2.956   7.269  0.5274 -0.3870  0.1122
  188SLPC   C3421723   5.177   3.065   7.436 -0.1354 -0.7687 -0.3273
  188SLPC   H4X21724   5.103   3.033   7.513 -1.4553  1.2997 -0.6592
  188SLPC   H4Y21725   5.145   3.167   7.405  1.2169 -0.4749 -0.8304
  188SLPC   C3521726   5.296   3.090   7.529 -0.4159 -0.2684  0.1609
  188SLPC   H5X21727   5.371   3.139   7.463 -2.0824 -1.0700 -2.5129
  188SLPC   H5Y21728   5.346   2.993   7.547  3.2311  0.8042 -2.9220
  188SLPC   C3621729   5.272   3.181   7.657 -0.8899 -0.3398  0.8551
  188SLPC   H6X21730   5.182   3.137   7.704 -1.6349 -0.5296 -0.6888
  188SLPC   H6Y21731   5.260   3.287   7.627  0.6865 -0.5747 -0.7431
  188SLPC   C3721732   5.386   3.164   7.759  0.0286 -0.8211 -0.0922
  188SLPC   H7X21733   5.484   3.208   7.729 -0.4222 -0.2658 -0.7994
  188SLPC   H7Y21734   5.401   3.055   7.774 -0.0509 -0.8188  0.0050
  188SLPC   C3821735   5.330   3.224   7.886 -0.3859 -0.6745  0.3056
  188SLPC   H8X21736   5.224   3.198   7.905 -0.4727 -0.6832 -0.1674
  188SLPC   H8Y21737   5.342   3.334   7.879  1.9209 -0.6512  2.9963
  188SLPC   C3921738   5.413   3.188   8.012 -0.7741  0.2052  0.6616
  188SLPC   H9X21739   5.395   3.270   8.085  0.7874  0.4780  0.7564
  188SLPC   H9Y21740   5.520   3.190   7.983 -0.6858  0.3510  0.9975
  188SLPC  C31021741   5.379   3.057   8.080 -1.1096  0.3292  0.0114
  188SLPC  H10X21742   5.414   2.967   8.024  3.4571  1.8368  0.0349
  188SLPC  H10Y21743   5.269   3.041   8.077 -0.9455 -1.2146  1.0254
  188SLPC  C31121744   5.434   3.051   8.220 -0.4128 -1.0968 -0.1371
  188SLPC  H11X21745   5.541   3.080   8.208 -1.1559  0.8249 -3.3461
  188SLPC  H11Y21746   5.424   2.947   8.257 -0.8901 -0.5844  1.2086
  188SLPC  C31221747   5.353   3.135   8.323  0.3204  0.5485  0.5503
  188SLPC  H12X21748   5.245   3.112   8.324  0.2263  0.9562  0.1151
  188SLPC  H12Y21749   5.368   3.243   8.302  0.2109  0.3135 -0.8735
  188SLPC  C31321750   5.402   3.116   8.473  0.3510  0.6419  0.1747
  188SLPC  H13X21751   5.513   3.117   8.484  0.2079 -0.8255  2.4045
  188SLPC  H13Y21752   5.351   3.029   8.520  0.5426 -0.0240 -0.8091
  188SLPC  C31421753   5.353   3.230   8.566  0.6581 -0.1210  0.9245
  188SLPC  H14X21754   5.241   3.230   8.566  0.6459 -1.1404 -0.1484
  188SLPC  H14Y21755   5.379   3.332   8.531  2.4264  0.7504  4.3043
  188SLPC  C31521756   5.399   3.218   8.712 -0.2776 -0.0090  0.1877
  188SLPC  H15X21757   5.508   3.231   8.728 -0.5795 -0.0083  2.7429
  188SLPC  H15Y21758   5.377   3.118   8.754 -0.3137  0.2596  0.8263
  188SLPC  C31621759   5.329   3.310   8.807  0.0161  0.0808 -0.6887
  188SLPC  H16X21760   5.219   3.292   8.813 -0.3978  1.8934 -1.8721
  188SLPC  H16Y21761   5.340   3.413   8.767 -2.0899 -0.0334 -1.7220
  188SLPC  C31721762   5.370   3.298   8.959  0.7151  0.3335 -0.1130
  188SLPC  H17X21763   5.480   3.311   8.959  0.8187 -0.3783 -1.4109
  188SLPC  H17Y21764   5.359   3.191   8.985  0.1524  0.1489 -1.0434
  188SLPC  C31821765   5.302   3.395   9.055 -1.1629  0.1572  0.0838
  188SLPC  H18X21766   5.362   3.487   9.075  0.5289 -1.0487  0.9012
  188SLPC  H18Y21767   5.268   3.344   9.148 -0.8869 -2.2805 -1.0705
  188SLPC  H18Z21768   5.214   3.441   9.005 -0.4044  0.4390 -1.0288
  189SLPC     N21769   0.009   3.233   6.347  0.0104  0.6989 -0.0561
  189SLPC   C1321770  -0.123   3.232   6.281 -0.5793  0.0654 -0.8019
  189SLPC  H13A21771  -0.130   3.319   6.219  0.1350  0.0913 -0.8538
  189SLPC  H13B21772  -0.127   3.138   6.227 -2.4018 -0.3125 -0.0947
  189SLPC  H13C21773  -0.202   3.246   6.354  0.2935 -1.7230  0.5785
  189SLPC   C1421774   0.011   3.338   6.454  0.0730  0.4917 -0.5965
  189SLPC  H14A21775   0.017   3.441   6.423  0.5950  0.7704  0.3951
  189SLPC  H14B21776  -0.075   3.336   6.519 -0.8577 -0.1492 -1.7997
  189SLPC  H14C21777   0.091   3.325   6.525 -2.3620  0.4188  2.3830
  189SLPC   C1521778   0.112   3.250   6.237 -0.3581 -0.8973  0.3404
  189SLPC  H15A21779   0.093   3.346   6.190  0.8737  0.1357  1.8509
  189SLPC  H15B21780   0.211   3.250   6.279  0.4578  1.0677 -1.4188
  189SLPC  H15C21781   0.103   3.171   6.164  2.0869 -0.5358 -0.4242
  189SLPC   C1221782   0.021   3.102   6.423  0.6441 -0.0756  0.1857
  189SLPC  H12A21783  -0.055   3.099   6.500 -3.8552 -0.4333 -3.7637
  189SLPC  H12B21784   0.118   3.087   6.468  1.4284 -1.1105 -1.7089
  189SLPC   C1121785  -0.016   2.972   6.335  0.3598 -0.0629  0.1997
  189SLPC  H11A21786  -0.126   2.979   6.325  0.5750  1.2716 -1.7715
  189SLPC  H11B21787  -0.009   2.876   6.392 -0.1410 -0.9112 -1.1284
  189SLPC     P21788   0.198   2.900   6.213 -0.3365 -0.1859 -0.0456
  189SLPC   O1321789   0.184   2.768   6.138 -0.1127  0.1382 -0.2502
  189SLPC   O1421790   0.306   2.999   6.172  0.3593  0.6121 -0.1472
  189SLPC   O1221791   0.057   2.964   6.212  0.8367  0.5307  0.5903
  189SLPC   O1121792   0.219   2.872   6.367 -0.8036 -0.2234 -0.3104
  189SLPC    C121793   0.308   2.962   6.439 -0.3559  0.3232 -0.2339
  189SLPC    HA21794   0.417   2.947   6.425  0.3285  1.5873  2.8999
  189SLPC    HB21795   0.271   3.066   6.428 -2.0637 -0.3771 -1.6995
  189SLPC    C221796   0.301   2.924   6.589  0.0525 -0.1993  0.0459
  189SLPC    HS21797   0.203   2.945   6.637 -0.6945 -1.3616 -0.9166
  189SLPC   O2121798   0.399   3.004   6.653  0.8067  0.2533 -0.0410
  189SLPC   C2121799   0.369   3.136   6.664 -0.1108  0.4990  0.5224
  189SLPC   O2221800   0.261   3.186   6.652 -0.0426 -0.5668  1.0702
  189SLPC   C2221801   0.509   3.214   6.679  0.9395 -0.3745  0.0907
  189SLPC   H2R21802   0.574   3.139   6.728 -1.2284 -1.6110  1.2343
  189SLPC   H2S21803   0.551   3.247   6.582 -0.2483  1.5714  0.1878
  189SLPC    C321804   0.323   2.775   6.622 -0.8820  0.0336 -0.6203
  189SLPC    HX21805   0.428   2.751   6.592 -0.7758  1.9378 -1.9026
  189SLPC    HY21806   0.250   2.716   6.563 -0.7570 -2.3984  1.4978
  189SLPC   O3121807   0.299   2.749   6.765  0.2061  0.2456  0.4891
  189SLPC   C3121808   0.409   2.751   6.843 -0.3532  0.7649  0.3402
  189SLPC   O3221809   0.524   2.760   6.807 -0.5667  0.3841  0.4769
  189SLPC   C3221810   0.372   2.733   6.984 -0.1029 -0.0998  0.2117
  189SLPC   H2X21811   0.341   2.629   7.006 -0.7866  0.1652  0.5429
  189SLPC   H2Y21812   0.289   2.800   7.017  0.8162  0.3133  1.8327
  189SLPC   C2321813   0.510   3.335   6.785  0.2110 -0.1089 -0.5757
  189SLPC   H3R21814   0.445   3.408   6.733 -0.2035 -1.3326 -1.8346
  189SLPC   H3S21815   0.607   3.386   6.804 -0.0358 -0.0232  0.5787
  189SLPC   C2421816   0.461   3.286   6.928 -0.3720  0.5922 -0.0002
  189SLPC   H4R21817   0.353   3.261   6.921 -0.0665 -0.8349  0.1819
  189SLPC   H4S21818   0.478   3.371   6.998  0.3477 -1.7623  2.8764
  189SLPC   C2521819   0.544   3.173   6.992 -0.3342  0.2731  0.6652
  189SLPC   H5R21820   0.650   3.201   7.006 -0.6736  1.0965  1.6996
  189SLPC   H5S21821   0.531   3.081   6.931  0.3092 -0.2331  1.2730
  189SLPC   C2621822   0.484   3.140   7.134  1.1568 -0.4529  1.0567
  189SLPC   H6R21823   0.540   3.054   7.175  0.0785 -0.8189  1.7875
  189SLPC   H6S21824   0.377   3.112   7.142 -0.3975  4.5048  0.9410
  189SLPC   C2721825   0.504   3.253   7.237  0.4482  0.0294 -0.0376
  189SLPC   H7R21826   0.429   3.334   7.221 -0.3599 -0.6998 -0.0561
  189SLPC   H7S21827   0.604   3.287   7.206  1.2922 -2.2613 -0.0235
  189SLPC   C2821828   0.515   3.200   7.382  0.6773 -0.6061 -0.0159
  189SLPC   H8R21829   0.584   3.115   7.400  0.5017 -0.6369  0.5381
  189SLPC   H8S21830   0.416   3.153   7.402  0.7108 -0.7112 -0.0950
  189SLPC   C2921831   0.539   3.315   7.477  0.0749 -0.0131  0.9036
  189SLPC   H9R21832   0.564   3.409   7.426 -1.8211  0.7115  1.2382
  189SLPC  C21021833   0.526   3.320   7.608  0.5829 -0.1733 -0.1669
  189SLPC  H10R21834   0.549   3.409   7.669  2.9247 -3.2818  3.9055
  189SLPC  C21121835   0.492   3.204   7.700 -0.3887 -0.6561  0.0176
  189SLPC  H11R21836   0.573   3.162   7.764  0.4945  0.4954 -0.3051
  189SLPC  H11S21837   0.464   3.115   7.640  1.6041  0.0873 -2.1896
  189SLPC  C21221838   0.378   3.247   7.785  0.2746  0.1669  0.5237
  189SLPC  H12R21839   0.281   3.249   7.735  0.7111 -0.1968 -0.3581
  189SLPC  C21321840   0.383   3.280   7.913 -0.8892 -0.2774 -0.2533
  189SLPC  H13R21841   0.284   3.293   7.959 -2.1201 -2.6316 -2.0523
  189SLPC  C21421842   0.506   3.274   8.001 -0.4669  0.0298 -0.0182
  189SLPC  H14R21843   0.599   3.247   7.948  0.0561  1.7834 -0.0494
  189SLPC  H14S21844   0.494   3.197   8.080  0.4484 -0.5696 -0.4452
  189SLPC  C21521845   0.529   3.411   8.070  0.1170  0.2593 -0.0446
  189SLPC  H15R21846   0.427   3.439   8.104 -0.1104  1.1677 -1.3959
  189SLPC  H15S21847   0.561   3.488   7.997 -1.3335  0.0693 -0.9328
  189SLPC  C21621848   0.643   3.399   8.175 -0.1180  0.9342 -0.0387
  189SLPC  H16R21849   0.746   3.402   8.133 -0.1780 -0.6160 -0.3523
  189SLPC  H16S21850   0.637   3.302   8.229  1.4937  0.1564 -1.1868
  189SLPC  C21721851   0.632   3.521   8.263  0.4132 -0.4902 -0.6843
  189SLPC  H17R21852   0.525   3.522   8.295  0.3183  1.5337 -0.9202
  189SLPC  H17S21853   0.654   3.616   8.210 -2.0582  1.1100  0.9167
  189SLPC  C21821854   0.721   3.512   8.388  0.7569  0.0071 -0.3282
  189SLPC  H18R21855   0.726   3.610   8.441 -0.3730 -0.6464  1.0187
  189SLPC  H18S21856   0.820   3.475   8.354  0.7884  1.6756 -2.2615
  189SLPC  H18T21857   0.684   3.440   8.464 -0.7145  0.1843 -0.8405
  189SLPC   C3321858   0.486   2.761   7.088  0.5028  0.3066  0.3041
  189SLPC   H3X21859   0.547   2.845   7.048  1.0702 -1.1253 -2.0109
  189SLPC   H3Y21860   0.553   2.673   7.101 -1.6172 -1.5341 -0.5310
  189SLPC   C3421861   0.437   2.804   7.229 -0.8224  0.4246  0.2713
  189SLPC   H4X21862   0.368   2.721   7.256  0.9155 -1.4594 -0.7709
  189SLPC   H4Y21863   0.383   2.900   7.217 -0.3402  0.5252 -1.2238
  189SLPC   C3521864   0.545   2.806   7.340 -0.7750 -0.0450  0.1314
  189SLPC   H5X21865   0.613   2.892   7.328  0.3752 -1.0200 -0.4937
  189SLPC   H5Y21866   0.611   2.717   7.331 -0.0217  0.1034  3.1030
  189SLPC   C3621867   0.495   2.829   7.481 -0.4982  0.2157 -0.4306
  189SLPC   H6X21868   0.452   2.731   7.511 -0.0789 -0.1228 -0.9294
  189SLPC   H6Y21869   0.409   2.900   7.477 -0.3139  0.5349  0.8978
  189SLPC   C3721870   0.596   2.878   7.583 -0.6186 -0.2125 -0.5017
  189SLPC   H7X21871   0.634   2.981   7.568 -0.4030 -0.0323  1.0927
  189SLPC   H7Y21872   0.684   2.812   7.567 -0.1357  0.4397 -0.5865
  189SLPC   C3821873   0.546   2.856   7.725  0.1684 -0.5023 -0.4386
  189SLPC   H8X21874   0.496   2.760   7.750 -1.3688 -0.2801 -2.3847
  189SLPC   H8Y21875   0.468   2.935   7.737  3.1492  3.0184 -1.9798
  189SLPC   C3921876   0.663   2.885   7.823 -0.5222 -0.4110 -0.0119
  189SLPC   H9X21877   0.704   2.987   7.812  3.2668 -1.3724  3.0445
  189SLPC   H9Y21878   0.738   2.804   7.808  1.2822  1.2319 -0.2841
  189SLPC  C31021879   0.608   2.876   7.972  0.7972  0.6037  0.3343
  189SLPC  H10X21880   0.563   2.779   8.001 -0.3160  1.3351  1.1815
  189SLPC  H10Y21881   0.525   2.950   7.978  0.9390  0.8600 -0.6704
  189SLPC  C31121882   0.724   2.901   8.068 -0.2870  0.7373 -0.4825
  189SLPC  H11X21883   0.779   2.992   8.034  1.4067 -0.6048 -1.4869
  189SLPC  H11Y21884   0.795   2.817   8.049 -0.3312  0.5309  0.2421
  189SLPC  C31221885   0.687   2.914   8.220  0.0591  0.6840  0.1774
  189SLPC  H12X21886   0.648   2.818   8.261 -0.4792 -0.0706 -1.9481
  189SLPC  H12Y21887   0.616   2.997   8.240 -2.2242 -0.7447 -1.4137
  189SLPC  C31321888   0.810   2.939   8.310 -0.4711 -0.2759 -0.5862
  189SLPC  H13X21889   0.856   3.031   8.268 -1.7585  0.8421  0.3897
  189SLPC  H13Y21890   0.885   2.857   8.307 -0.8965 -0.6818 -0.1500
  189SLPC  C31421891   0.769   2.964   8.456 -0.1389  0.1591  0.2484
  189SLPC  H14X21892   0.808   2.877   8.513 -1.2138 -0.3005  0.2937
  189SLPC  H14Y21893   0.659   2.968   8.467 -0.1093  1.5401  0.2194
  189SLPC  C31521894   0.811   3.102   8.521  0.4514  0.2917  0.2731
  189SLPC  H15X21895   0.793   3.179   8.443 -1.7952  3.8235  3.8465
  189SLPC  H15Y21896   0.918   3.088   8.547  0.7281  2.6041  0.5488
  189SLPC  C31621897   0.724   3.144   8.652 -0.5744 -0.7065 -0.4589
  189SLPC  H16X21898   0.618   3.163   8.624 -0.0475 -1.0851 -2.8684
  189SLPC  H16Y21899   0.761   3.243   8.686 -0.3013 -0.4100 -1.5824
  189SLPC  C31721900   0.752   3.047   8.771 -0.1749  0.4143  0.3222
  189SLPC  H17X21901   0.862   3.031   8.781  0.0655  0.1463 -2.1982
  189SLPC  H17Y21902   0.727   2.946   8.731  0.9579  0.5204 -0.7373
  189SLPC  C31821903   0.672   3.081   8.898 -0.4537  0.2199  0.3579
  189SLPC  H18X21904   0.721   3.165   8.952 -0.4729 -0.6350  1.7685
  189SLPC  H18Y21905   0.672   2.996   8.971 -1.1313  0.3100  0.4694
  189SLPC  H18Z21906   0.563   3.102   8.889 -0.5115  0.3672  1.2605
  190SLPC     N21907   4.431   5.677   6.064  0.2392 -0.2458  0.0777
  190SLPC   C1321908   4.491   5.612   5.944 -0.1633 -0.2537  0.7902
  190SLPC  H13A21909   4.413   5.577   5.878  0.6802  0.2064 -0.5000
  190SLPC  H13B21910   4.558   5.678   5.891 -2.0668  0.3317 -1.0059
  190SLPC  H13C21911   4.538   5.521   5.979 -1.6514 -0.5148  2.2242
  190SLPC   C1421912   4.349   5.791   6.001  0.5040 -0.4699  0.5576
  190SLPC  H14A21913   4.400   5.884   5.985  0.7300 -0.7998 -0.7231
  190SLPC  H14B21914   4.286   5.765   5.918 -1.6289  0.2421  1.8723
  190SLPC  H14C21915   4.272   5.805   6.076  0.9114  1.7932  0.6084
  190SLPC   C1521916   4.532   5.736   6.149 -0.1914 -0.0320 -0.1550
  190SLPC  H15A21917   4.513   5.739   6.255  1.5540 -2.1127  0.2879
  190SLPC  H15B21918   4.625   5.684   6.130 -0.0823 -0.6698  1.9516
  190SLPC  H15C21919   4.560   5.833   6.109 -0.1784 -0.1928 -0.5447
  190SLPC   C1221920   4.353   5.573   6.137  0.1018 -0.2186  0.2711
  190SLPC  H12A21921   4.418   5.499   6.182  2.3706  2.0684  0.9856
  190SLPC  H12B21922   4.286   5.517   6.073 -0.1208  0.7436 -0.3481
  190SLPC   C1121923   4.251   5.628   6.244  0.3752  0.3806  0.0599
  190SLPC  H11A21924   4.304   5.713   6.294 -0.7308  1.6651 -0.8826
  190SLPC  H11B21925   4.237   5.547   6.319 -0.3183 -0.6888 -1.1818
  190SLPC     P21926   4.006   5.565   6.147  0.1823  0.8542  0.0606
  190SLPC   O1321927   3.910   5.626   6.053  0.0975  0.0402 -0.7993
  190SLPC   O1421928   4.068   5.435   6.105 -0.4862  0.1071  0.5846
  190SLPC   O1221929   4.127   5.664   6.178  0.3031 -0.4496  0.0802
  190SLPC   O1121930   3.947   5.539   6.287 -0.3491 -0.2897  0.2238
  190SLPC    C121931   3.925   5.644   6.377  0.4150  0.2524 -0.1165
  190SLPC    HA21932   4.017   5.707   6.376  2.2871 -2.2973  0.8235
  190SLPC    HB21933   3.840   5.695   6.326  1.1142 -1.4574 -3.2600
  190SLPC    C221934   3.888   5.583   6.514  0.0047  0.6121  0.2374
  190SLPC    HS21935   3.842   5.659   6.580 -1.7660 -0.6258  0.4978
  190SLPC   O2121936   4.002   5.508   6.565  0.3403  0.2475 -0.2152
  190SLPC   C2121937   4.108   5.579   6.598  0.6719  0.7778  0.5404
  190SLPC   O2221938   4.107   5.700   6.625  0.2667  0.2968  0.2585
  190SLPC   C2221939   4.234   5.494   6.597  0.2633  0.2911 -0.2456
  190SLPC   H2R21940   4.226   5.415   6.675  1.4105  0.1412 -0.2718
  190SLPC   H2S21941   4.230   5.447   6.496  0.2912  0.1326 -0.1736
  190SLPC    C321942   3.775   5.483   6.507  1.0369  0.1641 -0.4670
  190SLPC    HX21943   3.808   5.390   6.456 -0.8147 -1.7676  1.6119
  190SLPC    HY21944   3.686   5.516   6.449 -1.0716 -1.5841  1.5612
  190SLPC   O3121945   3.716   5.461   6.641  0.0778  0.1304 -0.4195
  190SLPC   C3121946   3.764   5.356   6.700 -0.5071 -0.4353 -0.0871
  190SLPC   O3221947   3.824   5.267   6.642  0.0647 -0.1262 -0.1014
  190SLPC   C3221948   3.739   5.358   6.850  0.1358  0.5680  0.3791
  190SLPC   H2X21949   3.702   5.256   6.872 -1.0101  0.6296 -1.1455
  190SLPC   H2Y21950   3.664   5.434   6.883  2.0738  1.1747  3.8683
  190SLPC   C2321951   4.372   5.569   6.612 -0.0459 -0.3307  0.3777
  190SLPC   H3R21952   4.366   5.674   6.576  2.6112  0.1616  1.1384
  190SLPC   H3S21953   4.448   5.514   6.552 -0.1168 -0.4474  0.3946
  190SLPC   C2421954   4.419   5.592   6.755 -0.9984 -0.5529  0.9517
  190SLPC   H4R21955   4.449   5.498   6.806  2.6269 -0.2158 -0.2776
  190SLPC   H4S21956   4.359   5.660   6.819  1.1289  2.1533  0.3020
  190SLPC   C2521957   4.560   5.657   6.744  0.7170 -0.2114 -0.7375
  190SLPC   H5R21958   4.547   5.763   6.713 -1.4396 -0.3707 -0.5312
  190SLPC   H5S21959   4.609   5.598   6.665 -1.2609 -3.7050  0.4036
  190SLPC   C2621960   4.638   5.654   6.868 -0.1253 -0.3537 -0.2951
  190SLPC   H6R21961   4.713   5.736   6.860  0.0723 -0.2894  1.7144
  190SLPC   H6S21962   4.694   5.560   6.892  1.1659  0.7076  1.0381
  190SLPC   C2721963   4.542   5.679   6.994  0.2376 -0.2824 -0.2186
  190SLPC   H7R21964   4.483   5.585   7.003 -2.5446  1.2667 -0.8231
  190SLPC   H7S21965   4.472   5.760   6.966  2.6177  1.4547 -1.4534
  190SLPC   C2821966   4.599   5.707   7.135 -0.1053 -0.2434  0.8218
  190SLPC   H8R21967   4.674   5.788   7.123  0.7261 -1.0239  0.5765
  190SLPC   H8S21968   4.651   5.617   7.174  0.8294  0.9286  2.4162
  190SLPC   C2921969   4.499   5.759   7.230 -0.7951  0.0755 -0.1881
  190SLPC   H9R21970   4.435   5.842   7.199 -0.9165 -0.1460 -0.5285
  190SLPC  C21021971   4.485   5.724   7.357  0.3154 -0.1717 -0.4493
  190SLPC  H10R21972   4.414   5.781   7.419  1.4063  1.9857 -1.1016
  190SLPC  C21121973   4.566   5.611   7.428 -0.4121  0.5669 -0.7793
  190SLPC  H11R21974   4.650   5.570   7.369  0.2862  0.1238  0.5021
  190SLPC  H11S21975   4.496   5.528   7.451  0.0091  0.1628 -0.9341
  190SLPC  C21221976   4.611   5.668   7.562  0.2583 -0.3494  0.1126
  190SLPC  H12R21977   4.685   5.748   7.548 -0.1486 -0.3817 -2.8457
  190SLPC  C21321978   4.581   5.633   7.689  0.2616  0.5355 -0.6262
  190SLPC  H13R21979   4.649   5.665   7.770 -0.4296  1.0752 -0.2506
  190SLPC  C21421980   4.494   5.510   7.718  0.3216 -0.7342  0.2806
  190SLPC  H14R21981   4.544   5.417   7.686 -1.9963 -1.8991 -0.2140
  190SLPC  H14S21982   4.393   5.514   7.671 -0.4228  0.9532  1.8691
  190SLPC  C21521983   4.462   5.493   7.866 -0.2552 -0.0922 -0.3120
  190SLPC  H15R21984   4.547   5.464   7.931 -0.6945 -0.0824  0.2737
  190SLPC  H15S21985   4.390   5.409   7.867 -1.3410  0.8148 -0.6682
  190SLPC  C21621986   4.405   5.624   7.937  0.2323 -0.1861 -0.1132
  190SLPC  H16R21987   4.323   5.657   7.869 -0.3010 -0.9276  0.1515
  190SLPC  H16S21988   4.482   5.702   7.955  1.3683 -1.7040  2.0839
  190SLPC  C21721989   4.355   5.589   8.074 -0.1244  0.7482 -1.2923
  190SLPC  H17R21990   4.434   5.618   8.147 -0.0038  1.6646 -1.7791
  190SLPC  H17S21991   4.337   5.479   8.082  1.2275  0.6332  1.3182
  190SLPC  C21821992   4.223   5.666   8.113 -0.6572 -0.3169  0.6473
  190SLPC  H18R21993   4.235   5.769   8.073  1.6118 -0.8724 -0.2738
  190SLPC  H18S21994   4.210   5.670   8.224 -3.0663  1.9038  0.3861
  190SLPC  H18T21995   4.128   5.625   8.073 -0.2384 -0.0918 -0.6190
  190SLPC   C3321996   3.869   5.366   6.937  0.0062 -0.4072  1.0814
  190SLPC   H3X21997   3.953   5.315   6.885  0.7044  2.0429 -0.3392
  190SLPC   H3Y21998   3.853   5.311   7.032 -1.1765 -0.4597  0.8688
  190SLPC   C3421999   3.913   5.508   6.965  0.1739  0.5364 -0.1930
  190SLPC   H4X22000   3.855   5.547   7.052  0.4474  1.0271 -0.2247
  190SLPC   H4Y22001   3.887   5.575   6.880 -0.6003 -1.9284 -2.0116
  190SLPC   C3522002   4.058   5.536   7.000  0.1952 -0.3507 -0.6912
  190SLPC   H5X22003   4.127   5.504   6.919  1.8426  1.2129  0.0258
  190SLPC   H5Y22004   4.087   5.488   7.096  1.5999 -0.0093 -0.9127
  190SLPC   C3622005   4.079   5.689   7.033  0.0063  0.7250  0.4212
  190SLPC   H6X22006   4.035   5.739   6.944 -0.5060  1.2779  0.9742
  190SLPC   H6Y22007   4.189   5.708   7.031  0.0503  0.5308  0.9032
  190SLPC   C3722008   4.021   5.729   7.166  0.1515  0.3386 -0.4003
  190SLPC   H7X22009   3.911   5.717   7.164 -0.3301  3.6829 -0.7244
  190SLPC   H7Y22010   4.029   5.839   7.180  0.8676  0.0092  2.3269
  190SLPC   C3822011   4.083   5.671   7.293  0.2746  0.4079 -0.3269
  190SLPC   H8X22012   4.189   5.703   7.302  0.7530 -1.1006 -0.3916
  190SLPC   H8Y22013   4.078   5.560   7.290 -0.2137  0.4443 -2.0830
  190SLPC   C3922014   4.017   5.724   7.428  0.3531  0.1899 -0.0261
  190SLPC   H9X22015   3.907   5.707   7.416  0.5386  0.0924 -1.8489
  190SLPC   H9Y22016   4.039   5.833   7.427 -0.4500  0.3572 -0.5657
  190SLPC  C31022017   4.084   5.650   7.551  0.2177  0.0002 -0.2040
  190SLPC  H10X22018   4.195   5.659   7.549  0.4860 -2.4749 -3.1447
  190SLPC  H10Y22019   4.072   5.543   7.528 -0.5439 -0.4033  1.8466
  190SLPC  C31122020   4.024   5.677   7.689  0.3358  0.2574 -0.9443
  190SLPC  H11X22021   4.008   5.783   7.715  1.0883 -0.2021  1.7283
  190SLPC  H11Y22022   4.103   5.641   7.759 -0.9429 -1.6859 -0.4324
  190SLPC  C31222023   3.894   5.593   7.710 -0.0247 -0.3968  0.5561
  190SLPC  H12X22024   3.922   5.490   7.681  2.8812  0.1383  1.1756
  190SLPC  H12Y22025   3.810   5.611   7.639  2.2347 -0.5494 -2.3452
  190SLPC  C31322026   3.839   5.590   7.850 -0.4804  0.3544  0.2294
  190SLPC  H13X22027   3.928   5.577   7.915  0.1293  0.4292 -0.5699
  190SLPC  H13Y22028   3.763   5.511   7.866 -0.7069  0.8243  1.6215
  190SLPC  C31422029   3.777   5.726   7.896 -0.1452 -0.3059  0.3535
  190SLPC  H14X22030   3.687   5.740   7.832  0.8101 -0.7070 -1.1300
  190SLPC  H14Y22031   3.857   5.799   7.872 -0.2388 -1.1576 -2.9803
  190SLPC  C31522032   3.718   5.729   8.034  0.2334 -0.8607 -0.3785
  190SLPC  H15X22033   3.800   5.699   8.102  0.2326  0.4778  0.2624
  190SLPC  H15Y22034   3.644   5.647   8.038 -0.9687  0.1616 -0.7735
  190SLPC  C31622035   3.647   5.864   8.067  0.2912 -0.4602  0.2425
  190SLPC  H16X22036   3.563   5.888   7.997 -1.1514  0.7621  2.2599
  190SLPC  H16Y22037   3.718   5.949   8.072  1.8875 -1.6999 -0.7134
  190SLPC  C31722038   3.585   5.855   8.207 -0.6163  0.1788  0.7479
  190SLPC  H17X22039   3.671   5.814   8.264 -0.3949  1.1667  1.1469
  190SLPC  H17Y22040   3.508   5.775   8.208 -1.9394  1.3681  3.6355
  190SLPC  C31822041   3.530   5.979   8.275  0.2505 -0.4315 -0.3493
  190SLPC  H18X22042   3.614   6.052   8.277  0.0244 -0.1729 -0.2225
  190SLPC  H18Y22043   3.480   5.961   8.372  0.3886 -0.2907 -0.2511
  190SLPC  H18Z22044   3.449   6.017   8.209  0.7872 -0.5409 -1.0814
  191SLPC     N22045   2.155   5.039   6.061 -0.2589  0.0174 -0.1878
  191SLPC   C1322046   2.066   4.918   6.078 -0.0817  0.2274 -0.0855
  191SLPC  H13A22047   2.008   4.913   6.169  0.6620 -1.2878  0.3467
  191SLPC  H13B22048   1.999   4.907   5.995  2.1142  0.4376 -1.9887
  191SLPC  H13C22049   2.136   4.836   6.071  0.2883  0.5238  0.1190
  191SLPC   C1422050   2.054   5.150   6.060  0.4648  0.0340 -0.1994
  191SLPC  H14A22051   1.989   5.151   6.147 -0.0967  2.0796 -0.5769
  191SLPC  H14B22052   2.095   5.250   6.054  0.8046  0.0523  1.6989
  191SLPC  H14C22053   1.983   5.139   5.979  2.4289 -1.8144 -1.7520
  191SLPC   C1522054   2.208   5.032   5.923 -0.3636  0.4248 -0.1455
  191SLPC  H15A22055   2.260   5.117   5.883  0.8061 -0.4714 -0.5904
  191SLPC  H15B22056   2.276   4.948   5.917 -0.4776  0.4433 -2.7033
  191SLPC  H15C22057   2.126   5.007   5.856 -1.2973  2.0093  0.3496
  191SLPC   C1222058   2.264   5.053   6.163 -0.2013 -0.5655  0.0281
  191SLPC  H12A22059   2.328   4.969   6.139 -1.7597 -1.1729 -2.2920
  191SLPC  H12B22060   2.242   5.041   6.268  2.0628 -0.2202  0.5988
  191SLPC   C1122061   2.347   5.193   6.141  0.1300  0.2500  1.5614
  191SLPC  H11A22062   2.434   5.181   6.208  0.8631 -1.7519  0.3430
  191SLPC  H11B22063   2.281   5.275   6.177  0.4279  2.8256 -2.9934
  191SLPC     P22064   2.396   5.356   5.942 -0.1581 -0.0934 -0.2078
  191SLPC   O1322065   2.449   5.358   5.801 -0.3387 -0.2249 -0.5860
  191SLPC   O1422066   2.269   5.435   5.971 -0.3706  0.2763 -0.0182
  191SLPC   O1222067   2.402   5.208   6.003  0.4129 -0.4153 -0.0122
  191SLPC   O1122068   2.499   5.430   6.036 -0.0438 -0.3493 -0.0127
  191SLPC    C122069   2.640   5.436   6.031 -0.5027  0.0933 -0.3252
  191SLPC    HA22070   2.684   5.338   6.003 -2.1010 -0.7851  0.1421
  191SLPC    HB22071   2.668   5.519   5.962 -2.5202  0.9722 -0.1461
  191SLPC    C222072   2.701   5.467   6.171 -0.1980 -0.4319 -0.1347
  191SLPC    HS22073   2.807   5.500   6.164  0.3623 -1.6255  1.8202
  191SLPC   O2122074   2.690   5.348   6.260 -0.7511 -0.9155 -0.0100
  191SLPC   C2122075   2.784   5.259   6.237 -0.1462  0.1483 -0.0472
  191SLPC   O2222076   2.888   5.277   6.178 -0.1051 -0.4987 -0.0609
  191SLPC   C2222077   2.724   5.126   6.276 -0.3753 -0.2971 -0.3999
  191SLPC   H2R22078   2.614   5.136   6.270 -0.2045  1.3020 -1.3017
  191SLPC   H2S22079   2.772   5.063   6.199  2.4797  1.7255 -0.4424
  191SLPC    C322080   2.634   5.591   6.242 -0.2336 -0.1614 -0.0185
  191SLPC    HX22081   2.527   5.571   6.222  0.4168 -1.8356 -2.3234
  191SLPC    HY22082   2.664   5.680   6.182  3.9715 -0.0698  1.8429
  191SLPC   O3122083   2.674   5.606   6.383  0.1800  0.3222 -0.0817
  191SLPC   C3122084   2.586   5.564   6.473 -0.3847  1.1548 -0.1008
  191SLPC   O3222085   2.480   5.513   6.455 -0.0284  0.4102  0.2930
  191SLPC   C3222086   2.654   5.574   6.604 -0.7100  0.2374 -0.0649
  191SLPC   H2X22087   2.763   5.553   6.595 -0.3432  1.5550  0.9569
  191SLPC   H2Y22088   2.612   5.488   6.660 -0.9258  1.6969  2.1677
  191SLPC   C2322089   2.753   5.064   6.414 -0.5451 -0.3308 -0.3778
  191SLPC   H3R22090   2.858   5.087   6.440 -0.1630  0.9819 -2.7480
  191SLPC   H3S22091   2.731   4.956   6.403  1.2929 -0.7187 -0.5998
  191SLPC   C2422092   2.665   5.131   6.525  0.6726  0.1402 -0.7890
  191SLPC   H4R22093   2.556   5.115   6.508  0.9286  0.4465 -2.9481
  191SLPC   H4S22094   2.681   5.240   6.506  0.4858 -0.1217 -2.5702
  191SLPC   C2522095   2.718   5.088   6.664 -0.0606  0.3313  0.2012
  191SLPC   H5R22096   2.657   5.146   6.737 -0.8988 -1.4067  0.9353
  191SLPC   H5S22097   2.828   5.103   6.670  0.1183 -0.9037  0.2327
  191SLPC   C2622098   2.680   4.949   6.699  0.1261  0.4328  0.3886
  191SLPC   H6R22099   2.710   4.889   6.610 -0.8966  0.0090  0.3183
  191SLPC   H6S22100   2.569   4.946   6.701  0.0750  0.7321 -1.0599
  191SLPC   C2722101   2.751   4.880   6.826  0.3486  0.0275  0.2939
  191SLPC   H7R22102   2.849   4.842   6.791  0.5688  1.7476 -1.0865
  191SLPC   H7S22103   2.681   4.799   6.856 -0.5482  0.1595 -1.3280
  191SLPC   C2822104   2.759   4.978   6.948 -0.3060 -0.1035 -0.0214
  191SLPC   H8R22105   2.743   4.914   7.038  1.4540  0.1875  0.5211
  191SLPC   H8S22106   2.686   5.062   6.940 -0.4887 -0.2710 -0.1280
  191SLPC   C2922107   2.889   5.045   6.971 -0.1691  0.9692  0.5126
  191SLPC   H9R22108   2.938   5.061   6.873 -0.4050  2.8393  0.6588
  191SLPC  C21022109   2.951   5.064   7.091 -0.4254 -0.6198  0.5860
  191SLPC  H10R22110   3.058   5.088   7.100 -0.7247  0.7852  0.6255
  191SLPC  C21122111   2.894   5.032   7.228 -0.3051 -0.3155 -0.2691
  191SLPC  H11R22112   2.967   4.972   7.287 -0.8899 -2.1585 -1.3206
  191SLPC  H11S22113   2.808   4.962   7.226  0.0490 -0.8350  1.1811
  191SLPC  C21222114   2.860   5.162   7.303  0.1995  0.4356 -0.2527
  191SLPC  H12R22115   2.935   5.242   7.302 -0.2549  1.0251  2.7933
  191SLPC  C21322116   2.752   5.188   7.381 -0.3852 -0.1376 -0.4648
  191SLPC  H13R22117   2.739   5.285   7.430 -1.1796  0.3565 -1.6048
  191SLPC  C21422118   2.641   5.087   7.403  1.0532 -0.7581  1.1170
  191SLPC  H14R22119   2.675   4.983   7.419 -2.4556 -2.7585 -2.5819
  191SLPC  H14S22120   2.583   5.100   7.309  2.6195  1.0585  0.3375
  191SLPC  C21522121   2.551   5.103   7.520  0.0095 -0.0800  0.2248
  191SLPC  H15R22122   2.452   5.068   7.486 -0.0782 -0.4459  0.8416
  191SLPC  H15S22123   2.527   5.202   7.564 -1.8019 -0.6778  0.6669
  191SLPC  C21622124   2.613   5.029   7.642  0.1214 -0.8935  0.2343
  191SLPC  H16R22125   2.716   5.063   7.668  0.0388  0.2838 -0.8557
  191SLPC  H16S22126   2.611   4.919   7.626 -0.8855 -1.2258  2.3820
  191SLPC  C21722127   2.534   5.059   7.770 -0.3015 -0.6240 -0.5607
  191SLPC  H17R22128   2.434   5.009   7.767 -0.5731 -0.2872  1.5209
  191SLPC  H17S22129   2.513   5.168   7.780 -1.2308 -0.9019  0.7827
  191SLPC  C21822130   2.593   5.009   7.900 -0.4397  0.2780  0.3883
  191SLPC  H18R22131   2.702   5.030   7.903 -0.1747 -0.6483 -1.3966
  191SLPC  H18S22132   2.579   4.899   7.909  0.8934 -0.0343 -0.8812
  191SLPC  H18T22133   2.547   5.050   7.992  0.3006 -0.2439  1.0014
  191SLPC   C3322134   2.642   5.716   6.671 -0.1320 -0.2644  0.1987
  191SLPC   H3X22135   2.545   5.766   6.652  0.0344 -0.4371 -1.1947
  191SLPC   H3Y22136   2.718   5.784   6.627 -0.2774 -0.0770  0.2339
  191SLPC   C3422137   2.675   5.721   6.819 -0.0370  0.5475 -1.0229
  191SLPC   H4X22138   2.758   5.651   6.841  0.3612  1.2652 -0.1832
  191SLPC   H4Y22139   2.586   5.671   6.863  0.5282  1.2577  1.0421
  191SLPC   C3522140   2.693   5.860   6.877  0.1017  0.6170 -0.2575
  191SLPC   H5X22141   2.605   5.918   6.844 -1.5173 -0.7492  1.4651
  191SLPC   H5Y22142   2.790   5.910   6.855 -1.0406  1.9221 -2.8652
  191SLPC   C3622143   2.685   5.866   7.030 -0.9579 -0.3175  0.6915
  191SLPC   H6X22144   2.755   5.792   7.074 -0.8386 -0.7261 -0.1672
  191SLPC   H6Y22145   2.587   5.829   7.067 -0.4092 -1.3465  1.1329
  191SLPC   C3722146   2.706   6.007   7.085  0.0389  0.3457  0.2357
  191SLPC   H7X22147   2.634   6.076   7.035 -0.9590  0.5570  1.9061
  191SLPC   H7Y22148   2.806   6.041   7.050  0.7008 -0.6285  1.1237
  191SLPC   C3822149   2.687   6.008   7.242  0.3253 -0.2028  0.3146
  191SLPC   H8X22150   2.613   5.928   7.260 -0.2769 -0.0416 -1.2932
  191SLPC   H8Y22151   2.636   6.100   7.277  0.5625 -0.0776  0.3400
  191SLPC   C3922152   2.823   6.009   7.318 -0.9503 -0.3589 -0.3139
  191SLPC   H9X22153   2.867   6.107   7.292 -1.5724  1.0656  3.3934
  191SLPC   H9Y22154   2.878   5.919   7.282 -0.3797  0.0115 -0.3816
  191SLPC  C31022155   2.806   6.003   7.476  0.3526  0.2814 -0.1129
  191SLPC  H10X22156   2.750   5.907   7.488  2.5508 -1.0729 -0.1320
  191SLPC  H10Y22157   2.731   6.082   7.498  0.1000  0.3485 -1.1331
  191SLPC  C31122158   2.943   5.994   7.540  0.0902  0.4350  0.2834
  191SLPC  H11X22159   3.019   6.044   7.478  0.1894  0.4750  0.4377
  191SLPC  H11Y22160   2.986   5.892   7.530  0.4566  0.4503  1.5516
  191SLPC  C31222161   2.948   6.042   7.681 -0.0024 -0.2672  0.3527
  191SLPC  H12X22162   2.864   6.002   7.741 -1.1088  0.3164 -0.7561
  191SLPC  H12Y22163   2.940   6.153   7.670 -0.0893 -0.3326 -0.2547
  191SLPC  C31322164   3.079   6.003   7.753  0.3204 -0.2257 -0.2428
  191SLPC  H13X22165   3.169   6.035   7.696 -2.0703  2.8218 -2.6985
  191SLPC  H13Y22166   3.082   5.892   7.761  1.7576 -0.1247  1.1333
  191SLPC  C31422167   3.085   6.062   7.894 -0.0559  0.1633  0.4079
  191SLPC  H14X22168   2.989   6.047   7.949 -0.7732  0.7137 -0.6549
  191SLPC  H14Y22169   3.087   6.173   7.884 -2.6778  0.2994  0.7630
  191SLPC  C31522170   3.199   5.995   7.978  1.1235  0.1062 -0.8153
  191SLPC  H15X22171   3.200   6.064   8.065  0.5377 -1.0316  0.1253
  191SLPC  H15Y22172   3.301   5.999   7.934  1.1325  1.7693 -0.6977
  191SLPC  C31622173   3.150   5.860   8.039  0.2703 -0.1791 -0.6062
  191SLPC  H16X22174   3.142   5.780   7.962  0.1049 -1.2431  0.4684
  191SLPC  H16Y22175   3.048   5.878   8.077  0.2259  1.6033 -1.4870
  191SLPC  C31722176   3.239   5.804   8.154 -0.0654 -0.2667  0.6944
  191SLPC  H17X22177   3.234   5.879   8.236 -0.3345  2.0222 -1.2853
  191SLPC  H17Y22178   3.342   5.802   8.114 -0.2906 -0.4848  0.1159
  191SLPC  C31822179   3.198   5.665   8.208 -0.3639 -0.6038 -0.2480
  191SLPC  H18X22180   3.281   5.617   8.265 -1.8997 -1.7210  1.1359
  191SLPC  H18Y22181   3.164   5.601   8.124 -1.0966  0.9355 -1.1758
  191SLPC  H18Z22182   3.113   5.678   8.279  0.1791 -1.0810  0.5044
  192SLPC     N22183   1.833   1.463   6.139 -0.2367  0.4566  0.0594
  192SLPC   C1322184   1.766   1.357   6.061  0.7856  0.0039 -0.1908
  192SLPC  H13A22185   1.660   1.373   6.078  0.5178  0.2151 -1.8873
  192SLPC  H13B22186   1.785   1.370   5.956 -2.2433 -2.1455 -1.1519
  192SLPC  H13C22187   1.778   1.255   6.094 -1.8565 -0.2861  0.1246
  192SLPC   C1422188   1.786   1.596   6.088 -0.4281  0.3292  0.4315
  192SLPC  H14A22189   1.678   1.595   6.088 -0.4287 -0.2525  0.1224
  192SLPC  H14B22190   1.819   1.669   6.161  2.5472 -1.0117  0.5657
  192SLPC  H14C22191   1.815   1.603   5.984 -1.6019  0.3676  0.0955
  192SLPC   C1522192   1.982   1.455   6.106 -0.0684  0.2163 -0.2133
  192SLPC  H15A22193   2.023   1.355   6.116 -0.0171  0.4127  1.9979
  192SLPC  H15B22194   2.014   1.500   6.013  0.4418 -0.2876 -0.2935
  192SLPC  H15C22195   2.031   1.514   6.181  0.6494  0.4067 -0.8176
  192SLPC   C1222196   1.821   1.445   6.289 -0.7714 -0.4643  0.6923
  192SLPC  H12A22197   1.724   1.465   6.332 -1.4299 -0.2293 -0.8495
  192SLPC  H12B22198   1.886   1.520   6.331 -1.7412  0.8531 -0.0781
  192SLPC   C1122199   1.863   1.302   6.347  0.6969 -0.0458  0.4583
  192SLPC  H11A22200   1.875   1.311   6.457  1.3857 -0.6105  0.4315
  192SLPC  H11B22201   1.964   1.276   6.310  0.3596 -0.3216 -0.2760
  192SLPC     P22202   1.752   1.060   6.354 -0.0183  0.0908 -0.0389
  192SLPC   O1322203   1.612   1.013   6.371 -0.3049  0.4705 -0.2850
  192SLPC   O1422204   1.831   0.980   6.257 -0.1525 -0.0692 -0.5215
  192SLPC   O1222205   1.766   1.203   6.303 -0.5973  0.3025 -0.8316
  192SLPC   O1122206   1.838   1.058   6.489  0.2561  0.3479  0.1219
  192SLPC    C122207   1.777   1.040   6.616  0.8479  0.1976 -0.2371
  192SLPC    HA22208   1.822   1.103   6.695 -2.1409 -0.0405  1.8105
  192SLPC    HB22209   1.677   1.089   6.613  0.8748  0.2936  0.3812
  192SLPC    C222210   1.766   0.891   6.656 -0.2590  0.6461 -0.2436
  192SLPC    HS22211   1.732   0.836   6.566 -0.6806  2.1056 -1.0226
  192SLPC   O2122212   1.670   0.881   6.761 -0.1357 -0.0533  0.2599
  192SLPC   C2122213   1.636   0.757   6.793 -0.3848 -0.2168 -0.0710
  192SLPC   O2222214   1.668   0.656   6.740 -0.0211 -0.0565 -0.1798
  192SLPC   C2222215   1.531   0.766   6.907  0.3390 -0.4932  0.2846
  192SLPC   H2R22216   1.582   0.775   7.005 -0.0102  0.0622  0.4138
  192SLPC   H2S22217   1.474   0.860   6.891 -1.7353 -1.5451  1.2035
  192SLPC    C322218   1.905   0.831   6.687 -0.1020  0.4447 -1.0169
  192SLPC    HX22219   1.957   0.841   6.590  0.3158 -2.4803 -1.2062
  192SLPC    HY22220   1.897   0.721   6.701 -0.7993  0.5814 -0.2243
  192SLPC   O3122221   1.980   0.903   6.789  0.4409 -0.3475  0.2355
  192SLPC   C3122222   1.977   0.855   6.914 -0.0999  0.1144 -0.0046
  192SLPC   O3222223   1.907   0.765   6.953  0.1039 -0.5769  0.2861
  192SLPC   C3222224   2.067   0.939   7.004 -0.3957 -0.4200  0.0788
  192SLPC   H2X22225   2.027   1.043   6.999  0.5755 -0.0838 -1.0236
  192SLPC   H2Y22226   2.169   0.936   6.961 -0.1679  0.8919  0.4760
  192SLPC   C2322227   1.448   0.643   6.905  0.2428 -0.6302 -0.4311
  192SLPC   H3R22228   1.494   0.547   6.872  2.0303 -0.3982  1.1858
  192SLPC   H3S22229   1.361   0.661   6.838 -0.2489  0.5735  0.4833
  192SLPC   C2422230   1.399   0.622   7.051  0.3323 -0.3420 -0.1832
  192SLPC   H4R22231   1.341   0.716   7.065  1.6686  0.2561  1.6294
  192SLPC   H4S22232   1.487   0.618   7.118  0.6696 -0.4708 -0.6272
  192SLPC   C2522233   1.307   0.494   7.050  0.2517 -0.0113 -0.9414
  192SLPC   H5R22234   1.365   0.402   7.029  1.3334  0.6556 -0.9461
  192SLPC   H5S22235   1.221   0.505   6.981 -1.2845 -2.0743  0.5209
  192SLPC   C2622236   1.238   0.477   7.189 -0.3443 -0.3303  0.3906
  192SLPC   H6R22237   1.160   0.400   7.174  1.8644 -2.2884 -2.1330
  192SLPC   H6S22238   1.201   0.571   7.235  0.5425  0.1800  0.1029
  192SLPC   C2722239   1.337   0.406   7.289  0.2689 -0.1777 -0.1647
  192SLPC   H7R22240   1.422   0.473   7.312  0.9256 -0.7820 -0.7741
  192SLPC   H7S22241   1.371   0.314   7.236 -1.2329 -0.1401 -1.2846
  192SLPC   C2822242   1.272   0.387   7.430  0.4458  0.1926  0.6087
  192SLPC   H8R22243   1.199   0.305   7.411 -0.4676  1.0910  0.1559
  192SLPC   H8S22244   1.206   0.474   7.451  0.0474 -0.0138  0.2213
  192SLPC   C2922245   1.361   0.349   7.547  0.0313 -0.1009 -0.0306
  192SLPC   H9R22246   1.369   0.240   7.556 -0.8522 -0.1503  0.1489
  192SLPC  C21022247   1.427   0.427   7.632 -0.2154 -0.1245 -0.1314
  192SLPC  H10R22248   1.507   0.380   7.691  1.9694 -0.4543 -3.0934
  192SLPC  C21122249   1.400   0.574   7.642 -0.0638 -0.2477  0.1210
  192SLPC  H11R22250   1.304   0.583   7.698  1.2128  0.1710  2.3949
  192SLPC  H11S22251   1.379   0.608   7.539 -0.9741 -0.7780  0.1233
  192SLPC  C21222252   1.512   0.646   7.714 -0.4973 -0.3955 -0.6950
  192SLPC  H12R22253   1.606   0.611   7.668 -0.3659  0.2306 -0.9036
  192SLPC  C21322254   1.514   0.745   7.805 -0.8465  0.0491  0.0154
  192SLPC  H13R22255   1.614   0.767   7.845 -0.4085 -0.9435 -0.5005
  192SLPC  C21422256   1.395   0.818   7.861  0.2171  0.3958  0.6069
  192SLPC  H14R22257   1.348   0.760   7.943  1.8342 -0.3745  1.0225
  192SLPC  H14S22258   1.326   0.825   7.774  0.7012 -0.9836  0.0752
  192SLPC  C21522259   1.431   0.955   7.908  0.2846 -0.2523 -0.3153
  192SLPC  H15R22260   1.335   1.007   7.927 -0.1547 -0.7841 -1.0459
  192SLPC  H15S22261   1.482   1.022   7.835 -1.0761  1.1759 -0.0044
  192SLPC  C21622262   1.531   0.954   8.031 -0.0490  0.2688 -0.7619
  192SLPC  H16R22263   1.617   0.888   8.007 -0.8131 -0.8771 -0.4104
  192SLPC  H16S22264   1.472   0.912   8.115 -1.3435 -0.2119 -1.8760
  192SLPC  C21722265   1.584   1.096   8.064 -0.4075 -0.3954  0.0617
  192SLPC  H17R22266   1.675   1.078   8.126  0.8713  0.3675 -1.5079
  192SLPC  H17S22267   1.617   1.145   7.970 -2.1748 -0.0916 -0.4307
  192SLPC  C21822268   1.487   1.174   8.150  0.0651  0.2718  0.3811
  192SLPC  H18R22269   1.397   1.186   8.086  1.0450  1.7183 -0.7760
  192SLPC  H18S22270   1.514   1.279   8.172 -1.7163  0.7803  0.2696
  192SLPC  H18T22271   1.462   1.103   8.232  2.7814 -2.1470 -0.7133
  192SLPC   C3322272   2.057   0.873   7.147 -0.7293 -0.1543 -0.2408
  192SLPC   H3X22273   2.066   0.762   7.141 -0.4784 -0.3054  1.9975
  192SLPC   H3Y22274   1.968   0.905   7.205  2.0124  2.4236  3.0361
  192SLPC   C3422275   2.182   0.918   7.222 -0.2744  0.4741 -0.1276
  192SLPC   H4X22276   2.197   1.026   7.204 -3.3429  0.6008 -2.7539
  192SLPC   H4Y22277   2.270   0.858   7.188 -0.6051 -0.2921  0.3343
  192SLPC   C3522278   2.183   0.883   7.369  1.0031 -0.8946 -0.5358
  192SLPC   H5X22279   2.207   0.775   7.384  0.4932 -1.1493 -1.4577
  192SLPC   H5Y22280   2.082   0.888   7.416  0.9584  0.6369 -0.7673
  192SLPC   C3622281   2.286   0.973   7.435  0.1352 -0.0804 -0.4813
  192SLPC   H6X22282   2.267   1.081   7.416 -3.0388 -0.3511  0.5248
  192SLPC   H6Y22283   2.389   0.945   7.404 -0.0639 -1.1058 -0.2466
  192SLPC   C3722284   2.287   0.943   7.587  0.7568 -0.3609 -0.0190
  192SLPC   H7X22285   2.335   0.844   7.599  1.3770 -0.2031 -1.0549
  192SLPC   H7Y22286   2.183   0.948   7.625  0.8969  3.3305  0.2695
  192SLPC   C3822287   2.379   1.046   7.666  1.0838  0.1200 -0.0737
  192SLPC   H8X22288   2.348   1.151   7.646 -1.3378 -0.0913  2.0933
  192SLPC   H8Y22289   2.481   1.030   7.625 -0.0152 -2.3279 -2.2166
  192SLPC   C3922290   2.368   1.028   7.823 -0.3443  0.3679  0.1290
  192SLPC   H9X22291   2.409   0.930   7.856 -2.3087 -0.0454  1.4924
  192SLPC   H9Y22292   2.262   1.034   7.856 -0.6469 -1.0434 -0.4941
  192SLPC  C31022293   2.438   1.136   7.898  0.3540  0.5412 -0.2612
  192SLPC  H10X22294   2.406   1.236   7.862  2.8199  1.7919  0.7562
  192SLPC  H10Y22295   2.547   1.140   7.875  0.3694 -2.1581 -0.9568
  192SLPC  C31122296   2.416   1.132   8.052 -0.4737 -0.1036  0.3474
  192SLPC  H11X22297   2.309   1.155   8.072 -0.8092 -0.6916 -0.7193
  192SLPC  H11Y22298   2.471   1.218   8.095  0.5640  0.5879 -2.1837
  192SLPC  C31222299   2.455   1.004   8.117 -0.0453 -0.2940 -0.1452
  192SLPC  H12X22300   2.562   0.981   8.097 -0.6255 -2.8298 -0.6781
  192SLPC  H12Y22301   2.392   0.927   8.067  1.5750 -0.4227 -2.1112
  192SLPC  C31322302   2.438   0.998   8.271  0.1702 -0.0890  0.4333
  192SLPC  H13X22303   2.385   0.902   8.289  3.2197 -1.7209  1.4033
  192SLPC  H13Y22304   2.372   1.080   8.306  2.3312  2.1510 -0.3780
  192SLPC  C31422305   2.565   1.010   8.349 -0.1129  0.1754 -0.2782
  192SLPC  H14X22306   2.626   1.102   8.336 -1.2081  0.8625 -0.7128
  192SLPC  H14Y22307   2.629   0.922   8.327  0.6516  0.8987 -1.0426
  192SLPC  C31522308   2.537   1.004   8.504  0.0038  0.1275  0.3500
  192SLPC  H15X22309   2.470   0.918   8.527  0.5462 -0.1944  0.7643
  192SLPC  H15Y22310   2.478   1.096   8.528 -0.8946  0.3658 -2.4171
  192SLPC  C31622311   2.660   0.990   8.601  0.9635  0.9309 -0.4237
  192SLPC  H16X22312   2.699   0.886   8.599  0.1791  0.6369 -0.4826
  192SLPC  H16Y22313   2.611   1.006   8.699  0.8274 -0.1515 -0.3031
  192SLPC  C31722314   2.777   1.083   8.582 -0.3812 -1.0511  0.2313
  192SLPC  H17X22315   2.736   1.176   8.538  0.7852 -0.1407  0.9870
  192SLPC  H17Y22316   2.846   1.043   8.505  0.9027  1.0377  0.2162
  192SLPC  C31822317   2.846   1.119   8.717 -0.1702 -0.2288  0.4689
  192SLPC  H18X22318   2.905   1.209   8.690 -0.2276 -0.9624 -2.4141
  192SLPC  H18Y22319   2.912   1.036   8.749 -1.1561 -0.3909  2.1905
  192SLPC  H18Z22320   2.776   1.158   8.794 -1.9610 -0.0246 -1.1788
  193SOD    SOD22321   0.976   0.045   0.340  0.2090  0.0105 -0.1863
  194SOD    SOD22322   5.218   0.558   2.195  0.1764 -0.7171  0.0471
  195SOD    SOD22323   3.130   5.289  11.287  0.3897  0.4052 -0.0889
  196SOD    SOD22324   6.823   2.095  10.861 -0.0444  0.0355 -0.4083
  197SOD    SOD22325   6.668   5.766  13.242 -0.5560  0.6489 -0.1214
  198SOD    SOD22326   4.990   4.272   0.367 -0.0252  0.2585 -0.0402
  199SOD    SOD22327   4.458   4.477   3.719 -0.2982  0.3217  0.4081
  200SOD    SOD22328   1.092   5.019  13.753  0.4643 -0.6794  0.2449
  201SOD    SOD22329   1.567   6.249  16.576 -0.7387 -0.6317  0.6423
  202SOD    SOD22330   6.535   3.305  15.290  0.0088 -0.4964 -0.2599
  203SOD    SOD22331   2.559   6.217  14.319 -0.2364  0.4292 -0.6391
  204SOD    SOD22332   2.292   4.127  13.582 -0.1911 -0.0207 -0.5619
  205SOD    SOD22333   5.750   5.820   5.829 -0.2267  0.5057  0.0000
  206SOD    SOD22334   3.609   5.885   3.434 -0.0389 -0.2770  1.0564
  207SOD    SOD22335   4.564   2.965  15.098 -0.2024 -0.1917  0.1981
  208SOD    SOD22336   3.020   5.800  15.822 -0.1009 -0.2763  0.0779
  209SOD    SOD22337   4.395   1.387  13.636 -0.0749 -0.2541 -0.2112
  210SOD    SOD22338   6.587   4.414   5.649  0.0511 -0.5445 -0.1654
  211SOD    SOD22339   1.124   3.836  15.548  0.2958  0.2194  0.0027
  212SOD    SOD22340   3.323   1.712   3.310  0.2448  0.1107 -0.0150
  213SOD    SOD22341   0.789   0.267  14.554  0.1008 -0.4457  0.4636
  214SOD    SOD22342   1.770   4.433  10.631 -0.1798 -0.0474 -0.3867
  215SOD    SOD22343   3.633   4.445   5.812  0.3852  0.2647 -0.4113
  216SOD    SOD22344   1.687   4.913  15.210 -0.2945 -0.1704  0.0001
  217SOD    SOD22345   5.166   5.379  11.087 -0.5077  0.0513  0.2286
  218SOD    SOD22346   3.421   6.460   3.198  0.3764 -0.5024 -0.0483
  219SOD    SOD22347   3.731   6.813   2.652 -0.1395 -0.1032 -0.3413
  220SOD    SOD22348   6.395   4.158   3.780 -0.4931  0.3872 -0.1604
  221SOD    SOD22349   3.130   4.158  15.815  0.0558  0.2484  0.2038
  222SOD    SOD22350   2.008   1.455  16.505  0.2784 -0.3250 -0.3788
  223SOD    SOD22351   0.738   5.983  15.832  0.0138  0.1072 -0.3817
  224SOD    SOD22352   4.654   3.234  16.339  0.1405  0.0140 -0.2483
  225SOD    SOD22353   1.220   0.088   1.707  0.4470  0.0455 -0.0450
  226SOD    SOD22354   0.516   0.557   2.913 -0.0026  0.3658  0.0934
  227SOD    SOD22355   6.526   2.523  15.376  0.4712 -0.0124  0.2252
  228SOD    SOD22356   5.867   6.337   4.716 -0.0035 -0.1597  0.3778
  229SOD    SOD22357   0.727   0.866  17.078  0.1675  0.3805 -0.0712
  230SOD    SOD22358   1.667   1.876   4.093  0.0596  0.2549  0.1967
  231SOD    SOD22359   2.744   2.959   4.003 -0.1376 -0.0145  0.1215
  232SOD    SOD22360   2.843   4.321   0.916 -0.2963 -0.2462  0.1074
  233SOD    SOD22361   2.142   3.109  11.614 -0.2509  0.1170 -0.2238
  234SOD    SOD22362   2.667   3.859   2.347 -0.1729 -0.4018  0.4122
  235SOD    SOD22363   5.445   4.735   6.414 -0.0059 -0.1249 -0.4311
  236SOD    SOD22364   4.545   1.420  14.377  0.5697 -0.2208 -0.3966
  237SOD    SOD22365   6.430   6.340  12.406 -0.2953  0.1929  0.0896
  238SOD    SOD22366   2.704   4.232  17.170  0.5978 -0.2764 -0.0059
  239SOD    SOD22367   0.112   3.871   2.067 -0.2293 -0.3015  0.4089
  240SOD    SOD22368   3.330   2.106   1.133  0.2817 -0.4331 -0.3260
  241SOD    SOD22369   6.222   3.446  17.097 -0.2317 -0.0099 -0.2484
  242SOD    SOD22370   6.617   5.437   0.223 -0.3618 -0.2528  0.1702
  243SOD    SOD22371   2.846   1.295   6.326  0.1456 -0.3346  0.0850
  244SOD    SOD22372   4.983   1.299  10.660 -0.1291 -0.2375 -0.1270
  245SOD    SOD22373   0.150   1.737   2.879 -0.1673  0.4478 -0.3113
  246SOD    SOD22374   1.893   4.477  13.262  0.0854 -0.3221  0.0318
  247SOD    SOD22375   3.780   6.595   4.388  0.0318  0.1557  0.2908
  248SOD    SOD22376   4.562   3.998  13.681 -0.1236 -0.1470 -0.4084
  249SOD    SOD22377   4.340   2.469  12.014  0.0067  1.0285  0.2826
  250SOD    SOD22378   4.019   3.836  13.188  0.4630  0.5235  0.4544
  251SOD    SOD22379   5.362   2.467   5.479 -0.9447 -0.3904 -0.5840
  252SOD    SOD22380   4.202   2.798   0.074 -0.4584 -0.2469 -0.4813
  253SOD    SOD22381   3.015   1.497  15.005  0.0050 -0.1534  0.1444
  254SOD    SOD22382   0.011   3.246  12.283  0.1858  0.2619  0.0917
  255SOD    SOD22383   5.278   4.368   6.008 -0.0410 -0.7265 -0.3007
  256SOD    SOD22384   6.315   6.324  11.042 -0.2340  0.0812  0.5482
  257SOD    SOD22385   0.230   6.610  11.300  0.1002 -0.3380  0.0286
  258SOD    SOD22386   3.936   4.692   6.472 -0.5733 -0.3477 -0.0202
  259SOD    SOD22387   5.123   5.706   3.438  0.6594 -0.5308  0.0780
  260SOD    SOD22388   4.668   2.367  16.484 -0.1732 -0.1757 -0.0264
  261SOD    SOD22389   3.215   3.757  11.478  0.2375  0.0158 -0.3350
  262SOD    SOD22390   5.478   1.052  16.864  0.0250 -0.3636 -0.1206
  263SOD    SOD22391   2.293   4.741   1.767 -0.3668  0.0161  0.2293
  264SOD    SOD22392   1.019   5.769  11.417 -0.0129 -0.0548 -0.4130
  265SOD    SOD22393   2.286   0.378   4.697  0.4159 -0.1594  0.0929
  266CLA    CLA22394   2.379   3.612  13.948 -0.1251 -0.1654 -0.1434
  267CLA    CLA22395   1.539   5.828   0.625  0.2568  0.1748  0.0780
  268CLA    CLA22396   3.587   0.725   0.847 -0.0808 -0.1658 -0.0349
  269CLA    CLA22397   3.438   1.396   3.981  0.0461  0.4210 -0.3457
  270CLA    CLA22398   5.838   4.467   4.232  0.2269  0.2799  0.1073
  271CLA    CLA22399   4.150   1.118  15.555 -0.1155 -0.0343  0.0283
  272CLA    CLA22400   1.248   5.032  12.519 -0.2409 -0.1141  0.1660
  273CLA    CLA22401   2.991   3.136  11.373  0.0786 -0.5301  0.0160
  274CLA    CLA22402   1.541   5.466  13.240  0.1189  0.1313 -0.1061
  275CLA    CLA22403   5.920   2.582   0.940 -0.0261 -0.1975 -0.5304
  276CLA    CLA22404   0.637   2.281   3.195  0.1491  0.1113 -0.0065
  277CLA    CLA22405   6.739   5.416  13.855  0.4095 -0.1026  0.2952
  278CLA    CLA22406   1.763   0.632   4.173 -0.0402  0.1388 -0.1048
  279CLA    CLA22407   0.484   2.821  15.685  0.2617  0.3421 -0.2891
  280CLA    CLA22408   1.854   4.328  16.452 -0.0009 -0.2082 -0.2560
  281CLA    CLA22409   6.729   3.453  14.276  0.0816 -0.1391 -0.0203
  282CLA    CLA22410   6.628   3.176  15.749 -0.0443 -0.5037 -0.5259
  283CLA    CLA22411   4.879   0.011   2.332  0.0269  0.0773 -0.3687
  284CLA    CLA22412   1.996   1.292  16.983 -0.2398 -0.3153  0.3333
  285CLA    CLA22413   3.411   1.240   2.827  0.0108 -0.0159  0.1052
  286CLA    CLA22414   1.234   1.708   4.663 -0.0101 -0.0935  0.0755
  287CLA    CLA22415   0.752   1.315   0.610 -0.2916 -0.0878 -0.1220
  288CLA    CLA22416   4.747   3.927   0.170 -0.6385 -0.1216 -0.1042
  289CLA    CLA22417   2.863   2.134  15.138  0.3024  0.4066  0.1346
  290CLA    CLA22418   4.790   1.682   4.174 -0.0894 -0.3175  0.1849
  291CLA    CLA22419   5.828   5.902  16.684 -0.2390 -0.1011 -0.1845
  292CLA    CLA22420   6.627   6.562   3.897 -0.1215  0.1021  0.4410
  293CLA    CLA22421   4.244   2.377  16.680  0.0551 -0.0160  0.3793
  294CLA    CLA22422   4.617   3.718  14.103  0.1402 -0.7430  0.1794
  295CLA    CLA22423   1.610   5.812   3.196  0.1948  0.1129 -0.2449
  296CLA    CLA22424   5.907   6.231   0.688  0.3735  0.0293  0.2474
  297CLA    CLA22425   5.895   4.569   2.714 -0.1211  0.1781  0.3173
  298CLA    CLA22426   0.531   0.182   2.395  0.1040  0.2219  0.4160
  299CLA    CLA22427   3.488   4.781  12.681 -0.3584  0.3106 -0.3833
  300CLA    CLA22428   3.642   4.880   5.246  0.4283  0.0385 -0.4683
  301CLA    CLA22429   3.050   5.056   0.392  0.0593 -0.2666 -0.2460
  302CLA    CLA22430   1.058   2.510   3.893 -0.5475  0.0594  0.0101
  303CLA    CLA22431   2.068   3.201   2.617  0.0372  0.0277  0.1053
  304CLA    CLA22432   1.594   3.186   0.280  0.0807 -0.1504 -0.1718
  305CLA    CLA22433   4.227   3.886  14.649 -0.3009  0.3011  0.0016
  306CLA    CLA22434   6.043   4.932  13.528 -0.2227 -0.1870  0.3546
  307CLA    CLA22435   2.868   0.974  14.019 -0.0500 -0.2501  0.1793
  308CLA    CLA22436   1.841   6.583  16.159  0.1173  0.0377  0.5807
  309CLA    CLA22437   0.821   6.201  14.602  0.0516 -0.0828  0.1774
  310CLA    CLA22438   2.611   4.656  13.565  0.0893  0.1157  0.5717
  311CLA    CLA22439   5.330   3.167   0.344 -0.1829  0.2469 -0.2558
  312CLA    CLA22440   0.947   1.707  12.648 -0.0117  0.3640  0.2325
  313CLA    CLA22441   4.668   1.148  11.590  0.0460 -0.4443 -0.1506
  314CLA    CLA22442   0.893   5.071  11.645  0.4747  0.1828  0.2112
  315CLA    CLA22443   3.499   3.137   2.718  0.1704 -0.1923 -0.2520
  316CLA    CLA22444   2.985   1.999  16.930 -0.4153  0.1430 -0.2163
  317CLA    CLA22445   5.492   3.603   4.152 -0.1933  0.0399  0.3669
  318CLA    CLA22446   3.285   4.199  16.865 -0.0178  0.3464  0.3680
  319TIP3   OH222447   0.806   1.095   4.045  0.3078  0.9849  0.3778
  319TIP3    H122448   0.786   1.164   4.109 -0.3284  2.0564 -0.9150
  319TIP3    H222449   0.788   1.013   4.092 -0.7725  1.7393  1.3716
  320TIP3   OH222450   4.884   0.418  16.415 -0.0838  0.1770  0.2980
  320TIP3    H122451   4.822   0.466  16.359 -0.8448 -0.0137  0.9686
  320TIP3    H222452   4.889   0.470  16.495 -2.3781 -1.7548  1.8135
  321TIP3   OH222453   3.996   0.980  11.256  0.4531  0.7422 -0.8074
  321TIP3    H122454   3.931   1.047  11.280 -0.1765 -0.0954 -0.1350
  321TIP3    H222455   3.971   0.954  11.167 -1.3726 -0.9407  0.1136
  322TIP3   OH222456   6.709   2.631   2.094  0.4019 -0.1134 -0.7031
  322TIP3    H122457   6.766   2.559   2.120  0.9966  0.9289  1.0322
  322TIP3    H222458   6.706   2.688   2.171 -1.8426  0.5879 -1.2379
  323TIP3   OH222459   1.525   1.100  12.239  0.0247 -0.5275 -0.1502
  323TIP3    H122460   1.442   1.061  12.211 -0.7648  1.6962 -1.1957
  323TIP3    H222461   1.504   1.143  12.322  0.3230 -0.5683 -0.0550
  324TIP3   OH222462   1.175   5.515   6.489  0.1023  0.4292  0.0332
  324TIP3    H122463   1.093   5.561   6.507  0.0819  0.4239 -0.0462
  324TIP3    H222464   1.244   5.578   6.511  0.0713  1.1645 -1.7673
  325TIP3   OH222465   2.702   6.218  11.493 -0.5086  0.4448  0.1528
  325TIP3    H122466   2.631   6.273  11.460 -0.2375  0.3703 -0.5814
  325TIP3    H222467   2.775   6.234  11.432  0.5960  1.6278  1.6969
  326TIP3   OH222468   2.984   5.627   2.645 -0.0370 -0.1136  0.0868
  326TIP3    H122469   3.026   5.693   2.589 -1.7879  1.1276  0.1231
  326TIP3    H222470   2.890   5.640   2.629 -0.4579 -1.8492  0.9886
  327TIP3   OH222471   3.195   5.605   1.317 -0.2731  0.4491  0.5696
  327TIP3    H122472   3.238   5.648   1.391 -1.4910  2.7390  0.0355
  327TIP3    H222473   3.131   5.669   1.286 -1.4518 -1.3747 -0.9950
  328TIP3   OH222474   4.150   4.033  13.551 -0.1792 -0.1317  0.7024
  328TIP3    H122475   4.056   4.035  13.568 -0.2702  0.1895  0.1673
  328TIP3    H222476   4.182   4.118  13.580  0.1277 -0.6132  1.8521
  329TIP3   OH222477   5.520   6.557  13.724  0.1894 -0.7905 -0.5731
  329TIP3    H122478   5.480   6.486  13.673  0.7064  0.1497 -2.3702
  329TIP3    H222479   5.614   6.544  13.714  0.2935  0.3960 -1.3306
  330TIP3   OH222480   3.896   1.426   2.744 -0.0066 -0.2053  0.4516
  330TIP3    H122481   3.808   1.425   2.782 -0.7295 -1.3498 -1.1775
  330TIP3    H222482   3.906   1.340   2.705  1.8383 -0.0627  0.5514
  331TIP3   OH222483   3.002   1.384   2.689  0.1239  0.0998 -0.3542
  331TIP3    H122484   3.023   1.421   2.603 -0.6824  0.7210 -0.2963
  331TIP3    H222485   3.034   1.294   2.685  1.0411  0.4356 -0.9306
  332TIP3   OH222486   5.559   6.826   1.974  0.3283 -0.1396  0.2262
  332TIP3    H122487   5.603   6.909   1.995 -0.1425 -0.0936  1.0315
  332TIP3    H222488   5.631   6.767   1.952  0.6448  0.6200 -0.8939
  333TIP3   OH222489   5.011   1.221   3.629  0.4084 -0.4544  0.2742
  333TIP3    H122490   4.971   1.139   3.660  0.3831 -1.2085 -1.6186
  333TIP3    H222491   4.937   1.278   3.609  0.3785 -0.5379  0.1449
  334TIP3   OH222492   0.752   2.186  12.082 -0.1919 -0.0828 -0.2724
  334TIP3    H122493   0.664   2.206  12.113 -0.2253 -0.3231 -0.2141
  334TIP3    H222494   0.808   2.203  12.157 -0.2523 -0.4861 -0.1338
  335TIP3   OH222495   1.101   6.782   2.819 -0.2256  0.3498 -0.2991
  335TIP3    H122496   1.104   6.811   2.910  0.1052 -0.3260 -0.0852
  335TIP3    H222497   1.014   6.807   2.788 -1.2680 -1.5609  0.9318
  336TIP3   OH222498   2.404   4.498   4.028 -0.3501  0.2765 -0.5644
  336TIP3    H122499   2.386   4.428   3.965 -0.8038  1.2258 -1.5217
  336TIP3    H222500   2.491   4.531   4.004 -0.7231  0.9593 -1.0341
  337TIP3   OH222501   6.797   4.553   3.914 -0.6782  0.2135 -0.1769
  337TIP3    H122502   6.756   4.493   3.850 -1.8003  0.5292  0.2172
  337TIP3    H222503   6.725   4.577   3.972  0.6192 -1.3326  2.2185
  338TIP3   OH222504   6.606   0.109   0.661  0.1544 -0.2867 -0.0677
  338TIP3    H122505   6.624   0.194   0.621  2.1990 -0.6416  0.0192
  338TIP3    H222506   6.590   0.129   0.753  3.1917 -0.1698  0.5172
  339TIP3   OH222507   2.594   2.088  11.815  0.1745 -0.3844 -0.0113
  339TIP3    H122508   2.551   2.086  11.900 -0.4278 -0.4994 -0.3080
  339TIP3    H222509   2.679   2.047  11.829  0.0989 -0.3527  0.5424
  340TIP3   OH222510   4.218   5.939  10.839 -0.4268 -0.4294 -0.1365
  340TIP3    H122511   4.313   5.931  10.837 -0.5181 -1.7675  0.1965
  340TIP3    H222512   4.186   5.850  10.827 -1.6282 -0.1428  0.7856
  341TIP3   OH222513   2.018   5.331   5.725 -0.1937 -0.6161  0.3779
  341TIP3    H122514   1.927   5.310   5.745 -1.9858  4.1129 -1.3739
  341TIP3    H222515   2.031   5.420   5.757  2.8511 -0.0019 -1.9762
  342TIP3   OH222516   1.826   2.093   1.444  0.6149 -0.4154 -0.1450
  342TIP3    H122517   1.840   2.082   1.350 -3.5451  1.4431 -1.1892
  342TIP3    H222518   1.792   2.009   1.473  0.7689 -0.6303 -0.5705
  343TIP3   OH222519   0.571   1.087   1.465  0.1449  0.2201 -0.4281
  343TIP3    H122520   0.656   1.098   1.423  0.0924  0.6197 -0.4388
  343TIP3    H222521   0.588   1.034   1.542  0.1181 -1.1896 -1.3625
  344TIP3   OH222522   6.713   6.099  14.920  0.5946 -0.1515 -0.0898
  344TIP3    H122523   6.648   6.120  14.987  0.8664 -0.0273  0.1407
  344TIP3    H222524   6.780   6.167  14.930 -0.9769  1.9714 -2.7562
  345TIP3   OH222525   2.365   3.492   0.496  0.3818 -0.1109  0.1288
  345TIP3    H122526   2.349   3.509   0.589 -0.4233  0.5787 -0.1296
  345TIP3    H222527   2.279   3.501   0.455  0.8282  0.1218 -0.7671
  346TIP3   OH222528   2.732   1.564  16.166 -0.3011  0.1499 -0.3621
  346TIP3    H122529   2.775   1.608  16.239 -0.2351 -0.4134 -0.0517
  346TIP3    H222530   2.756   1.472  16.177  0.2175  0.1481 -1.4479
  347TIP3   OH222531   2.642   2.795   1.896 -0.1955 -0.0547 -0.3721
  347TIP3    H122532   2.709   2.753   1.950 -0.8350 -0.7343 -0.1004
  347TIP3    H222533   2.659   2.889   1.905  1.1677 -0.2310 -0.8824
  348TIP3   OH222534   3.766   1.886  14.762  0.1154 -0.3856 -0.7539
  348TIP3    H122535   3.837   1.931  14.718  0.5585  1.9539  1.9984
  348TIP3    H222536   3.700   1.955  14.777 -0.0223 -0.9968  1.9988
  349TIP3   OH222537   3.239   3.695  12.846  0.1196  0.1101  0.3769
  349TIP3    H122538   3.217   3.605  12.821  0.3828 -0.3005  1.5973
  349TIP3    H222539   3.209   3.748  12.771  1.1485 -1.0981 -0.9551
  350TIP3   OH222540   0.008   2.191  14.149  0.0553 -0.2957  0.1072
  350TIP3    H122541   0.094   2.225  14.124 -0.1475  0.6188  0.5939
  350TIP3    H222542   0.003   2.205  14.244 -0.8508  0.1880 -0.0010
  351TIP3   OH222543   1.608   0.293  13.289  0.4504  0.1306 -0.1472
  351TIP3    H122544   1.685   0.307  13.234  0.5152  1.6406  0.2757
  351TIP3    H222545   1.620   0.354  13.362 -1.4961  0.9846 -0.4807
  352TIP3   OH222546   5.114   0.081   2.592 -0.6390  0.1578  0.1228
  352TIP3    H122547   5.067   0.021   2.535 -1.0507 -0.0883  0.7195
  352TIP3    H222548   5.048   0.143   2.623 -0.4615  0.1480  0.5248
  353TIP3   OH222549   0.002   5.732  12.593  0.8376  0.8617  0.2833
  353TIP3    H122550   0.051   5.659  12.555 -1.0358  0.0666 -0.7411
  353TIP3    H222551  -0.019   5.789  12.519  0.3619  1.2670  0.7228
  354TIP3   OH222552   4.713   2.386   2.862  0.2472 -0.6611  0.4737
  354TIP3    H122553   4.659   2.316   2.825 -0.2300  0.5684 -1.2721
  354TIP3    H222554   4.672   2.404   2.947 -3.3502  1.4048 -1.4490
  355TIP3   OH222555   4.910   0.956  13.064  0.2516  0.2499  0.0034
  355TIP3    H122556   4.815   0.945  13.056 -0.1560  2.9561  0.2817
  355TIP3    H222557   4.933   0.913  13.146 -1.2993  2.1211  1.5110
  356TIP3   OH222558   5.989   5.095   5.308 -0.6561 -0.1965  0.2705
  356TIP3    H122559   6.013   5.186   5.292 -0.0568 -0.4216 -0.1227
  356TIP3    H222560   6.014   5.078   5.399 -0.7461  0.0241  0.3354
  357TIP3   OH222561   1.653   6.495   0.516 -0.2146  0.0461  0.2157
  357TIP3    H122562   1.634   6.491   0.422 -2.4091  1.8718  0.5110
  357TIP3    H222563   1.732   6.442   0.526  2.0955  2.3942 -3.1838
  358TIP3   OH222564   3.418   3.948   6.320  0.2564 -0.1439 -0.5147
  358TIP3    H122565   3.344   4.004   6.344 -0.2594 -0.3930 -1.4659
  358TIP3    H222566   3.472   3.944   6.399 -0.3586  0.6501 -0.0396
  359TIP3   OH222567   6.524   3.960  13.533  0.2461 -0.2542 -0.4243
  359TIP3    H122568   6.598   3.920  13.579 -0.6283 -0.5878  0.7412
  359TIP3    H222569   6.542   4.054  13.535  0.6651 -0.3391 -0.1981
  360TIP3   OH222570   6.117   3.132  15.781 -0.3439 -0.1820 -0.5365
  360TIP3    H122571   6.165   3.056  15.747 -1.4223 -0.9941 -0.2905
  360TIP3    H222572   6.036   3.096  15.816 -0.7078  1.0454 -0.0525
  361TIP3   OH222573   4.741   6.805   3.047 -0.4100 -1.2591  0.1823
  361TIP3    H122574   4.813   6.849   3.093 -0.9937 -0.5220  0.4198
  361TIP3    H222575   4.681   6.779   3.116 -1.2865 -0.1601 -0.1318
  362TIP3   OH222576   0.471   5.060  12.657 -0.7599 -0.0251  0.2984
  362TIP3    H122577   0.412   5.034  12.586  1.0059 -0.5424 -1.0774
  362TIP3    H222578   0.449   5.001  12.729 -1.8091 -0.3103 -0.2246
  363TIP3   OH222579   4.736   2.321  13.031 -0.1895  0.2757  0.1237
  363TIP3    H122580   4.712   2.259  12.962  0.3297 -0.7814  0.8563
  363TIP3    H222581   4.831   2.311  13.040  0.5051  3.4774 -1.8830
  364TIP3   OH222582   2.148   6.776   3.040  0.0007 -0.2192  0.2320
  364TIP3    H122583   2.098   6.702   3.005  2.4693 -0.9656 -2.0287
  364TIP3    H222584   2.162   6.833   2.965 -0.4735  1.8296  1.5979
  365TIP3   OH222585   2.496   2.211   3.343 -0.2593 -0.1115 -0.4372
  365TIP3    H122586   2.408   2.173   3.344  0.5397 -2.0875  0.0968
  365TIP3    H222587   2.496   2.274   3.415 -1.2615  0.0387 -0.5459
  366TIP3   OH222588   3.518   2.668   3.340  0.0889  0.1525  0.0019
  366TIP3    H122589   3.426   2.639   3.339  0.6293 -1.6393 -0.8524
  366TIP3    H222590   3.514   2.760   3.314 -1.4046 -0.1017 -0.7623
  367TIP3   OH222591   5.447   4.520   6.060  0.1270  0.2343 -0.1453
  367TIP3    H122592   5.530   4.484   6.027  0.6983  1.6907 -0.3711
  367TIP3    H222593   5.453   4.614   6.042 -1.1394  0.5165  0.7959
  368TIP3   OH222594   5.309   0.174  11.885 -0.0045  0.0579  0.2065
  368TIP3    H122595   5.326   0.235  11.957 -2.0438 -0.0546  0.8633
  368TIP3    H222596   5.228   0.129  11.911  0.4746 -1.6597 -1.0961
  369TIP3   OH222597   0.880   2.499   0.540  0.1239 -0.3362  0.2884
  369TIP3    H122598   0.882   2.568   0.606 -0.0539 -1.3835  1.4194
  369TIP3    H222599   0.921   2.423   0.583  1.6497 -0.5514 -1.4020
  370TIP3   OH222600   3.021   5.074  10.297  0.2509 -1.1910 -0.1896
  370TIP3    H122601   3.092   5.010  10.290  1.8304  0.4737 -0.0659
  370TIP3    H222602   3.057   5.154  10.260 -0.7743  0.3221  1.9034
  371TIP3   OH222603   5.416   5.970   2.683  0.2694  0.3863 -0.0020
  371TIP3    H122604   5.428   5.875   2.683 -3.8270 -0.3205  1.5299
  371TIP3    H222605   5.421   5.995   2.591  1.0580 -1.3236 -0.4641
  372TIP3   OH222606   2.702   2.176   6.610  0.2070 -0.1114 -0.5349
  372TIP3    H122607   2.629   2.180   6.548 -0.6610 -2.7926  0.1863
  372TIP3    H222608   2.662   2.146   6.692  1.8821 -0.1378  0.3154
  373TIP3   OH222609   4.051   5.178   4.075  0.2782  0.1656 -0.1110
  373TIP3    H122610   3.983   5.215   4.018 -0.7505 -2.2094 -0.5590
  373TIP3    H222611   4.068   5.246   4.139 -1.0355  1.6287 -1.2212
  374TIP3   OH222612   0.101   1.179  12.295 -0.4044 -0.0557  0.2807
  374TIP3    H122613   0.112   1.272  12.318 -0.4136  0.1464 -0.4900
  374TIP3    H222614   0.038   1.180  12.223  0.6331 -0.5246 -0.6803
  375TIP3   OH222615   1.661   5.554  14.274  0.1550  0.1694 -0.1873
  375TIP3    H122616   1.686   5.646  14.262  0.5296  0.0417 -0.3903
  375TIP3    H222617   1.671   5.538  14.368 -2.2944  1.0318  0.3068
  376TIP3   OH222618   4.024   1.316  14.536  0.4664  0.3302  0.1161
  376TIP3    H122619   4.033   1.318  14.632  0.2783 -1.0506  0.1921
  376TIP3    H222620   3.947   1.260  14.521  0.6062  0.3797 -0.8447
  377TIP3   OH222621   4.303   5.706  12.752  0.0316 -0.3375  0.0728
  377TIP3    H122622   4.372   5.773  12.755 -1.7107  1.5528  0.6362
  377TIP3    H222623   4.228   5.752  12.715 -1.5207 -1.7216  1.3692
  378TIP3   OH222624   3.325   0.142  12.734 -0.3038  0.3249 -0.2996
  378TIP3    H122625   3.233   0.169  12.734 -0.6129 -0.6215 -1.6325
  378TIP3    H222626   3.373   0.222  12.712 -0.9500  0.4716 -1.2406
  379TIP3   OH222627   5.213   5.280   3.495  0.1684  0.1344 -0.0816
  379TIP3    H122628   5.179   5.265   3.407 -1.0355  0.4493  0.3180
  379TIP3    H222629   5.215   5.193   3.535 -0.0660  0.1044 -0.1357
  380TIP3   OH222630   1.406   3.044  12.414  0.7934  0.3423  0.2221
  380TIP3    H122631   1.439   3.027  12.502 -1.4651  0.2686  1.1274
  380TIP3    H222632   1.424   2.964  12.365  1.2498  0.0368  0.8777
  381TIP3   OH222633   1.615   3.105   2.779 -0.3442 -0.3628  0.2830
  381TIP3    H122634   1.570   3.020   2.774 -3.0995  1.0726 -2.9179
  381TIP3    H222635   1.545   3.170   2.773  1.6756  2.2597  2.5134
  382TIP3   OH222636   5.801   6.521  15.446  0.1208  0.4346 -0.1004
  382TIP3    H122637   5.729   6.473  15.404  1.3295  0.1805 -1.9917
  382TIP3    H222638   5.791   6.611  15.415  0.0820  0.5911  0.3682
  383TIP3   OH222639   2.720   3.101  14.965  0.3806 -0.8552  0.4643
  383TIP3    H122640   2.642   3.141  14.928  0.5369 -0.2960  0.7155
  383TIP3    H222641   2.759   3.052  14.893  0.8119  0.4102 -0.2045
  384TIP3   OH222642   2.155   3.944   4.647 -0.2224  0.2547 -0.4749
  384TIP3    H122643   2.210   3.925   4.570  0.0280 -0.6226 -0.0906
  384TIP3    H222644   2.216   3.981   4.711 -0.0525 -0.7072 -0.0531
  385TIP3   OH222645   5.070   5.277  13.140  0.0310  0.1403 -0.0929
  385TIP3    H122646   5.035   5.208  13.196 -1.9550  0.9185 -0.2953
  385TIP3    H222647   5.047   5.249  13.051 -0.2524  0.7510 -0.2183
  386TIP3   OH222648   4.722   6.421   1.703 -0.3228  0.2078  0.2602
  386TIP3    H122649   4.758   6.332   1.699  0.3009  0.4518  0.3698
  386TIP3    H222650   4.649   6.414   1.764  1.0221  0.2001  1.9666
  387TIP3   OH222651   5.870   5.833  14.984  0.3793  0.5219  0.3694
  387TIP3    H122652   5.783   5.844  15.022 -1.2238 -1.9560 -2.1872
  387TIP3    H222653   5.870   5.888  14.906  0.4419 -0.6734 -0.5077
  388TIP3   OH222654   3.945   1.684   1.687  0.4796 -0.3380  0.0909
  388TIP3    H122655   3.871   1.702   1.629  0.4887  1.5087  0.5910
  388TIP3    H222656   3.925   1.598   1.724 -1.3632  0.0299  0.0952
  389TIP3   OH222657   1.616   1.915   3.498 -0.0498  1.0222  0.0039
  389TIP3    H122658   1.527   1.886   3.481  0.3544  0.3184 -1.0334
  389TIP3    H222659   1.628   1.990   3.440  0.4874  0.2131 -0.9722
  390TIP3   OH222660   4.159   0.449  10.782 -0.1235 -0.3727 -0.2132
  390TIP3    H122661   4.235   0.487  10.739  0.4469 -0.9509  0.2495
  390TIP3    H222662   4.175   0.354  10.778 -0.8211 -0.4950 -0.1226
  391TIP3   OH222663   3.055   0.952  15.677  0.1284 -0.5616  0.5245
  391TIP3    H122664   3.143   0.927  15.648 -0.0551 -0.4978 -0.1090
  391TIP3    H222665   2.996   0.906  15.617 -0.2106  2.3617 -1.5852
  392TIP3   OH222666   4.191   1.950   0.505  0.2962 -0.0079 -0.5383
  392TIP3    H122667   4.205   1.909   0.419 -0.4430  0.8600 -1.0908
  392TIP3    H222668   4.245   1.898   0.565  1.0442 -0.4621 -1.5640
  393TIP3   OH222669   6.693   5.439  17.044  0.0161  0.2338 -0.0888
  393TIP3    H122670   6.753   5.506  17.010  0.5768 -0.1816  0.0684
  393TIP3    H222671   6.613   5.449  16.992 -0.1097  1.3807  0.2914
  394TIP3   OH222672   1.342   0.873  11.891  0.3734  0.4973  0.1948
  394TIP3    H122673   1.251   0.857  11.864  0.9355  1.5231 -2.5685
  394TIP3    H222674   1.367   0.793  11.937 -1.3483 -0.5694 -0.6007
  395TIP3   OH222675   2.820   1.057   1.490  0.0536 -0.4225  0.4181
  395TIP3    H122676   2.802   1.149   1.512 -1.4757 -1.0318  1.8782
  395TIP3    H222677   2.912   1.045   1.513 -0.0471  0.4509  1.3498
  396TIP3   OH222678   3.023   6.249  13.330 -0.4712  0.2517 -0.6244
  396TIP3    H122679   2.991   6.223  13.244  0.0055 -0.2457 -0.6554
  396TIP3    H222680   3.048   6.167  13.372  1.4930  0.6403 -0.9057
  397TIP3   OH222681   0.518   1.196   3.762 -0.9250  0.4265 -0.0602
  397TIP3    H122682   0.574   1.240   3.827 -1.8314 -0.4534  1.3756
  397TIP3    H222683   0.436   1.245   3.764 -0.9646  0.3786 -0.5302
  398TIP3   OH222684   4.911   5.756  11.522  0.5620 -0.6148 -0.7779
  398TIP3    H122685   4.822   5.787  11.505  0.9480  1.9636  1.2663
  398TIP3    H222686   4.941   5.723  11.438 -1.8904 -0.4557 -1.8062
  399TIP3   OH222687   3.208   1.942  15.300 -0.0775  0.4489  0.2308
  399TIP3    H122688   3.267   1.890  15.355 -1.4061 -1.4675 -0.0728
  399TIP3    H222689   3.138   1.969  15.359 -1.4010 -1.4409 -0.3894
  400TIP3   OH222690   6.158   4.339  16.685  0.5713  0.1786  0.1537
  400TIP3    H122691   6.165   4.386  16.769  1.9652 -0.5494  0.4788
  400TIP3    H222692   6.133   4.250  16.710 -2.3632  0.7005 -0.4738
  401TIP3   OH222693   6.009   5.562  12.888 -0.1161  0.2438  0.4901
  401TIP3    H122694   5.943   5.493  12.889  0.2028 -0.0648  0.4247
  401TIP3    H222695   5.982   5.622  12.957 -0.7569  0.4008  0.1110
  402TIP3   OH222696   5.367   2.519   2.506  0.2613 -0.1560 -0.4753
  402TIP3    H122697   5.327   2.578   2.570  0.8972  0.5480 -0.6996
  402TIP3    H222698   5.357   2.565   2.423  1.3915 -0.0220 -0.5507
  403TIP3   OH222699   5.089   4.998  11.931 -0.3247  0.0997 -0.4825
  403TIP3    H122700   5.060   5.067  11.989 -0.2985 -1.9074  2.1007
  403TIP3    H222701   5.012   4.976  11.878 -0.4176  1.7787 -1.0985
  404TIP3   OH222702   2.512   2.263  10.387  0.7234 -0.1815 -0.6519
  404TIP3    H122703   2.514   2.205  10.463  0.6155  0.8598  0.1667
  404TIP3    H222704   2.597   2.307  10.389  0.6114  0.0537 -0.9729
  405TIP3   OH222705   5.766   1.547  11.735  0.1279 -0.1830  0.0054
  405TIP3    H122706   5.785   1.581  11.822  0.3128 -0.9522  0.2728
  405TIP3    H222707   5.702   1.607  11.699  1.8903  1.6085 -0.3110
  406TIP3   OH222708   0.658   4.355   2.583  0.2492  0.5542 -0.5521
  406TIP3    H122709   0.595   4.284   2.572  1.4569 -0.5849 -0.3739
  406TIP3    H222710   0.649   4.408   2.503  0.7485 -0.9853 -1.6695
  407TIP3   OH222711   6.309   2.683  10.852  0.2510 -0.1228 -0.2297
  407TIP3    H122712   6.382   2.635  10.813  0.1948  0.4371 -1.0549
  407TIP3    H222713   6.232   2.651  10.805 -0.1290 -1.1155  1.0103
  408TIP3   OH222714   6.368   5.968  15.592 -0.1193  0.1897 -0.2229
  408TIP3    H122715   6.428   5.898  15.564 -1.5687 -0.7260 -1.1345
  408TIP3    H222716   6.341   5.942  15.680 -0.3359 -0.1801 -0.3968
  409TIP3   OH222717   1.641   5.924   1.925  0.2964 -0.4092  0.4044
  409TIP3    H122718   1.555   5.959   1.899  1.5919  1.5266 -1.6338
  409TIP3    H222719   1.624   5.877   2.006 -2.7117 -0.1850  0.0130
  410TIP3   OH222720   2.839   1.766   1.558 -0.4948  0.4694  0.2443
  410TIP3    H122721   2.907   1.736   1.619 -1.6991 -0.0461  1.3608
  410TIP3    H222722   2.766   1.791   1.613 -0.4990  3.0697 -0.8204
  411TIP3   OH222723   0.531   4.891   1.107 -0.3565 -0.2220  0.1193
  411TIP3    H122724   0.541   4.839   1.187 -1.0935 -0.1640  0.2622
  411TIP3    H222725   0.620   4.913   1.081 -0.1091  1.1903  1.8828
  412TIP3   OH222726   2.797   2.956  10.710  0.3391  0.0074 -0.0182
  412TIP3    H122727   2.858   2.942  10.638 -0.4950  1.0198 -0.9561
  412TIP3    H222728   2.816   3.044  10.742 -0.3714  0.1843 -0.0698
  413TIP3   OH222729   0.556   4.272  13.408 -0.1418 -0.5897  0.4716
  413TIP3    H122730   0.467   4.300  13.430 -0.5683 -1.8798  0.4900
  413TIP3    H222731   0.573   4.311  13.323 -2.0441 -2.9608 -1.1369
  414TIP3   OH222732   3.160   3.790  16.111 -0.1959 -0.1331 -0.3630
  414TIP3    H122733   3.107   3.740  16.050  0.5050 -1.4630  0.0717
  414TIP3    H222734   3.228   3.729  16.140  2.0376  1.6501 -1.4337
  415TIP3   OH222735   0.222   1.759  14.148  0.1752 -0.4250 -0.5486
  415TIP3    H122736   0.250   1.847  14.174 -0.4337 -0.3672 -0.0511
  415TIP3    H222737   0.278   1.701  14.200 -0.9337 -0.3089  0.8357
  416TIP3   OH222738   4.443   0.807  17.184  0.7259 -0.0511 -0.0679
  416TIP3    H122739   4.476   0.816  17.273  0.7199  0.7386 -0.1363
  416TIP3    H222740   4.494   0.870  17.133  0.5817 -0.3420 -0.5812
  417TIP3   OH222741   3.546   1.714   5.921 -0.3928 -0.4475  0.0728
  417TIP3    H122742   3.541   1.780   5.990  1.3606 -0.3992  0.1983
  417TIP3    H222743   3.468   1.729   5.868 -0.6289  0.9700  0.7646
  418TIP3   OH222744   5.350   3.352   1.355  0.2791  0.1525 -0.5842
  418TIP3    H122745   5.278   3.373   1.295 -0.8591  0.5790  0.8588
  418TIP3    H222746   5.418   3.416   1.335 -0.5411  1.0138 -0.6681
  419TIP3   OH222747   5.279   0.833  14.192  0.3066  0.1101 -0.2944
  419TIP3    H122748   5.244   0.922  14.178 -0.8344 -0.7850 -4.3353
  419TIP3    H222749   5.371   0.839  14.167  0.4214  0.2983  0.1671
  420TIP3   OH222750   5.433   2.752  13.696  0.0926 -0.2299  0.1692
  420TIP3    H122751   5.447   2.778  13.788  0.7327 -0.4965  0.1460
  420TIP3    H222752   5.509   2.699  13.674 -0.6674 -1.2242 -0.1363
  421TIP3   OH222753   4.015   1.500   4.804 -0.0094 -0.1257 -0.6829
  421TIP3    H122754   4.081   1.472   4.866 -0.7145 -0.5371 -0.1132
  421TIP3    H222755   3.946   1.435   4.810 -0.5973  0.4448 -1.0661
  422TIP3   OH222756   3.124   0.408  13.186  0.3672  0.0910  0.3528
  422TIP3    H122757   3.156   0.498  13.174  0.8114  0.0528  1.1788
  422TIP3    H222758   3.122   0.396  13.281 -0.2780 -0.5706  0.2640
  423TIP3   OH222759   6.757   4.638  11.768 -0.3359 -0.7074  0.3551
  423TIP3    H122760   6.702   4.573  11.812  0.5363 -2.9326 -1.5586
  423TIP3    H222761   6.846   4.602  11.773  0.0911 -0.0247 -1.3250
  424TIP3   OH222762   1.270   0.829   5.833 -0.1640 -0.3842  0.1278
  424TIP3    H122763   1.190   0.876   5.811  0.3801  0.1416 -0.8121
  424TIP3    H222764   1.272   0.755   5.772  1.1503  0.8533 -1.4237
  425TIP3   OH222765   6.479   0.974  12.353  1.0124 -0.0914  0.0961
  425TIP3    H122766   6.474   0.977  12.258  0.0090 -0.9293  0.1095
  425TIP3    H222767   6.530   1.052  12.377 -0.1193  1.0275 -1.0199
  426TIP3   OH222768   0.933   4.135   4.151  0.0783 -0.9531  0.2536
  426TIP3    H122769   0.968   4.049   4.128 -0.6585 -1.4990  1.1094
  426TIP3    H222770   0.839   4.129   4.132 -0.0457 -0.4697  0.6884
  427TIP3   OH222771   6.097   1.727   2.836 -0.4739  0.3443 -0.7409
  427TIP3    H122772   6.048   1.655   2.797 -1.0906 -0.7174  1.8013
  427TIP3    H222773   6.065   1.805   2.791 -3.8206 -0.4144  0.0901
  428TIP3   OH222774   4.564   1.007  14.536 -0.2414  0.1983  0.1364
  428TIP3    H122775   4.646   0.982  14.578 -0.6682 -0.9070  0.3583
  428TIP3    H222776   4.501   0.941  14.565 -0.9554  0.4098 -0.8559
  429TIP3   OH222777   2.146   3.903   5.738 -0.4876  1.1119  0.1961
  429TIP3    H122778   2.118   3.888   5.647  1.6835 -1.1384 -0.2158
  429TIP3    H222779   2.241   3.905   5.733 -0.2952  0.2185  2.5314
  430TIP3   OH222780   6.398   4.555   5.685 -0.5077 -0.2867  0.0675
  430TIP3    H122781   6.377   4.614   5.612  0.1846  0.6764  0.6306
  430TIP3    H222782   6.398   4.611   5.762  0.8643 -0.8875  0.5317
  431TIP3   OH222783   3.846   2.804   1.556 -0.0925  0.0409  0.1759
  431TIP3    H122784   3.909   2.835   1.492 -0.1399  0.0907  0.1531
  431TIP3    H222785   3.794   2.881   1.578  0.5784  0.2614  1.0393
  432TIP3   OH222786   3.787   0.200  16.884  0.9267 -0.3592  0.1916
  432TIP3    H122787   3.836   0.129  16.927  2.1102  0.7819  0.7851
  432TIP3    H222788   3.825   0.280  16.919 -1.0891  0.5997  0.3316
  433TIP3   OH222789   4.460   2.214   4.663  0.3333  0.0870 -0.4452
  433TIP3    H122790   4.469   2.127   4.703 -1.8533 -1.0357 -2.2030
  433TIP3    H222791   4.535   2.221   4.604 -0.1510 -1.1871 -1.2474
  434TIP3   OH222792   4.552   5.055   1.888 -0.5084 -0.2696 -0.0225
  434TIP3    H122793   4.482   5.090   1.833 -0.2024 -0.6822 -0.6801
  434TIP3    H222794   4.528   5.082   1.977 -1.1939  0.0912 -0.3093
  435TIP3   OH222795   1.666   0.939   1.142  0.1823  0.0674 -0.2476
  435TIP3    H122796   1.684   0.850   1.110 -1.4039  0.4471 -2.3767
  435TIP3    H222797   1.604   0.926   1.214  1.1853 -0.6074  0.5331
  436TIP3   OH222798   5.026   0.732  15.251  0.3368  0.5693  0.2624
  436TIP3    H122799   5.017   0.751  15.157  0.0195 -0.2737  0.1114
  436TIP3    H222800   5.001   0.813  15.295  0.0180  0.8198 -0.3723
  437TIP3   OH222801   1.568   1.131  16.072 -0.1012 -0.6703 -0.5912
  437TIP3    H122802   1.529   1.111  16.157  0.3698  0.7129 -0.0312
  437TIP3    H222803   1.631   1.201  16.089 -1.3769  1.0469 -2.3667
  438TIP3   OH222804   5.311   5.565   6.027  0.3991 -0.6987 -0.1067
  438TIP3    H122805   5.403   5.540   6.015  0.4464 -1.5514  1.7911
  438TIP3    H222806   5.295   5.628   5.957  2.1274 -1.2972 -1.1111
  439TIP3   OH222807   6.361   5.733  12.046 -0.0482  0.1225  0.1513
  439TIP3    H122808   6.306   5.782  12.107 -0.6025 -2.1443  1.6217
  439TIP3    H222809   6.300   5.698  11.981 -0.3004 -1.5653  1.2168
  440TIP3   OH222810   6.820   3.568   4.657  0.2031 -0.8177  0.2632
  440TIP3    H122811   6.825   3.474   4.676 -1.7134 -0.5964  2.2283
  440TIP3    H222812   6.841   3.610   4.740 -0.4037  0.4575 -0.2093
  441TIP3   OH222813   4.078   4.670  11.598  0.2780  0.6223  0.4336
  441TIP3    H122814   4.053   4.580  11.580  0.8523  0.5210  0.1385
  441TIP3    H222815   4.174   4.670  11.597  0.3107  0.9903  1.6116
  442TIP3   OH222816   1.600   0.455  11.900 -0.4548  0.0432  0.1988
  442TIP3    H122817   1.589   0.377  11.846 -0.2513 -1.6460  2.4483
  442TIP3    H222818   1.675   0.500  11.861 -0.0288 -1.3382 -0.6612
  443TIP3   OH222819   3.045   6.735  11.007  0.2325 -0.0674  0.6496
  443TIP3    H122820   3.028   6.644  10.984 -0.9311  0.0749  0.8631
  443TIP3    H222821   3.140   6.739  11.019  0.2314 -1.4289  1.3834
  444TIP3   OH222822   3.090   6.400   1.412 -0.0993 -0.1397 -0.3116
  444TIP3    H122823   3.067   6.407   1.320  1.6867  1.4190 -0.6956
  444TIP3    H222824   3.169   6.346   1.413 -0.4870 -0.7015  0.3733
  445TIP3   OH222825   3.373   2.279   6.194  0.3856  0.0005 -0.0830
  445TIP3    H122826   3.325   2.255   6.273  0.5432 -1.1043 -0.3133
  445TIP3    H222827   3.459   2.309   6.225  0.9387 -1.7103  0.1005
  446TIP3   OH222828   3.037   5.334  15.253  0.4467  0.8404  0.1330
  446TIP3    H122829   3.020   5.370  15.166  1.1639  0.7594 -0.0459
  446TIP3    H222830   3.056   5.241  15.238 -0.6518  0.5375  0.5134
  447TIP3   OH222831   2.810   4.795  11.914  0.0752  0.3474  0.3889
  447TIP3    H122832   2.770   4.713  11.939  1.0811 -0.6715 -1.1614
  447TIP3    H222833   2.865   4.819  11.989  0.6105 -0.9698  0.4373
  448TIP3   OH222834   5.098   2.992  16.421 -0.5176  0.4196 -0.0196
  448TIP3    H122835   5.005   2.978  16.403 -0.9666  0.5466  1.9977
  448TIP3    H222836   5.102   3.080  16.459  0.7783  1.3960 -2.1826
  449TIP3   OH222837   2.657   3.357  15.762  0.2838  0.0824  0.0580
  449TIP3    H122838   2.668   3.274  15.809 -0.9557 -0.1422 -0.0117
  449TIP3    H222839   2.570   3.351  15.724  0.1075  1.4905  0.1945
  450TIP3   OH222840   1.999   3.204  14.880 -0.0566 -0.0726 -0.0689
  450TIP3    H122841   1.925   3.206  14.819  0.8109  1.9929 -1.1378
  450TIP3    H222842   2.068   3.159  14.833 -0.5154 -1.8999  0.8900
  451TIP3   OH222843   6.347   6.640  12.937  0.1670  0.0084 -0.3164
  451TIP3    H122844   6.423   6.696  12.923  0.6295 -0.4917  0.2103
  451TIP3    H222845   6.309   6.670  13.019  1.7736 -1.9428  1.2393
  452TIP3   OH222846   2.320   1.110  14.058 -0.3732 -0.4918 -0.8492
  452TIP3    H122847   2.253   1.042  14.048 -0.2492 -0.7072 -0.2571
  452TIP3    H222848   2.282   1.171  14.122  0.0657 -0.6987 -0.3928
  453TIP3   OH222849   2.611   2.032   2.609  0.4295  0.1545  0.9929
  453TIP3    H122850   2.584   1.955   2.658  0.3563 -0.4937 -0.0323
  453TIP3    H222851   2.592   2.010   2.518  0.5289  1.3381  0.6741
  454TIP3   OH222852   6.427   2.094  11.675 -0.5966  0.3602  0.5923
  454TIP3    H122853   6.432   2.163  11.609 -2.1427  0.5169  0.6022
  454TIP3    H222854   6.493   2.030  11.649  0.2088  1.3938  0.0598
  455TIP3   OH222855   3.970   1.567   3.896 -0.0366 -0.3775  0.4169
  455TIP3    H122856   4.064   1.573   3.913  0.3252 -1.5281 -0.9376
  455TIP3    H222857   3.964   1.532   3.807 -1.7642  1.1709 -0.1429
  456TIP3   OH222858   2.291   1.899   1.984 -0.1457 -0.1253 -0.4146
  456TIP3    H122859   2.279   1.807   2.007 -1.4963  0.5367  1.8340
  456TIP3    H222860   2.253   1.907   1.896 -2.3750 -1.2375  0.3735
  457TIP3   OH222861   4.599   6.415   6.161 -0.1644 -0.0098 -0.2065
  457TIP3    H122862   4.672   6.405   6.222  0.7051 -0.3615 -1.2772
  457TIP3    H222863   4.529   6.362   6.200  0.3332 -0.1395  0.5449
  458TIP3   OH222864   2.048   5.800   6.521  0.4032  0.3984  0.7273
  458TIP3    H122865   2.001   5.754   6.591 -0.4913 -0.7385 -0.5628
  458TIP3    H222866   2.062   5.888   6.556 -2.0530  0.5692  1.4820
  459TIP3   OH222867   1.820   0.044   5.528 -0.2861  0.1736  0.0023
  459TIP3    H122868   1.738   0.026   5.573 -0.4885 -1.1607 -0.8350
  459TIP3    H222869   1.878   0.079   5.597 -1.1885  0.0526  0.8457
  460TIP3   OH222870   3.311   6.547   0.915  0.1073  0.5667  0.2153
  460TIP3    H122871   3.343   6.627   0.956 -0.4825  0.9695 -0.1042
  460TIP3    H222872   3.375   6.527   0.847  0.3758  0.6360  0.4442
  461TIP3   OH222873   5.969   5.723   5.204 -0.3006  0.0675  0.2492
  461TIP3    H122874   6.019   5.663   5.149 -0.2715 -1.2094  1.5978
  461TIP3    H222875   6.015   5.723   5.288 -1.5958  0.1923  0.9874
  462TIP3   OH222876   5.237   1.166  13.047  0.3795  0.3531 -0.1150
  462TIP3    H122877   5.191   1.243  13.080  2.2837  2.2137 -1.4493
  462TIP3    H222878   5.305   1.149  13.112 -0.4644 -0.6916  0.5222
  463TIP3   OH222879   2.603   5.384  11.256  0.4625  0.2229  0.1054
  463TIP3    H122880   2.586   5.312  11.318  0.4975  0.2560  0.1537
  463TIP3    H222881   2.669   5.348  11.196  0.7486  0.3349  0.3479
  464TIP3   OH222882   5.546   6.350  11.206  0.7730  0.4670 -0.1299
  464TIP3    H122883   5.524   6.273  11.154  0.4681  1.5580 -1.6763
  464TIP3    H222884   5.558   6.316  11.294  0.1666 -1.2765 -0.6723
  465TIP3   OH222885   1.928   6.323  13.892  0.4639 -0.2451  0.1265
  465TIP3    H122886   1.914   6.249  13.950 -0.7740 -0.7929 -0.8296
  465TIP3    H222887   1.845   6.334  13.846  0.2366  2.4404  0.9983
  466TIP3   OH222888   6.566   6.267  11.983 -0.1179 -0.5219  0.5100
  466TIP3    H122889   6.559   6.236  11.893 -1.6912  0.8531  0.1093
  466TIP3    H222890   6.536   6.358  11.980 -0.8643 -0.6460  2.5279
  467TIP3   OH222891   2.722   4.000  12.429 -0.0779 -0.1052  0.7355
  467TIP3    H122892   2.732   4.046  12.512 -0.0687 -0.3125  0.8483
  467TIP3    H222893   2.740   4.067  12.363  0.5045 -0.0885  0.9078
  468TIP3   OH222894   4.008   2.584  13.078  0.2058 -0.6882  0.2914
  468TIP3    H122895   3.984   2.668  13.040  0.4317 -0.4856  0.5955
  468TIP3    H222896   3.928   2.531  13.071  0.2733 -0.6858 -0.5470
  469TIP3   OH222897   3.940   6.707   4.808 -0.2555  0.1639  0.4760
  469TIP3    H122898   3.861   6.751   4.840 -1.0790 -1.3559  0.6439
  469TIP3    H222899   3.989   6.684   4.887 -1.2542 -1.7119  0.6185
  470TIP3   OH222900   4.826   3.638  16.475 -0.2192  0.3015  0.0561
  470TIP3    H122901   4.833   3.603  16.564  1.2926 -0.9742 -0.5123
  470TIP3    H222902   4.876   3.719  16.478 -2.7515  1.9348  1.0869
  471TIP3   OH222903   1.254   0.419  16.785  0.2732 -0.4163  0.0629
  471TIP3    H122904   1.209   0.384  16.862 -1.5998  0.4221 -0.5846
  471TIP3    H222905   1.250   0.349  16.720 -0.1745 -0.3179 -0.0170
  472TIP3   OH222906   3.977   6.045  14.021 -0.0098  0.8011 -0.4280
  472TIP3    H122907   3.966   5.975  13.957  0.9356  1.0920 -0.9187
  472TIP3    H222908   3.896   6.097  14.014 -0.0330  0.6738 -1.1869
  473TIP3   OH222909   2.620   4.291   5.360 -0.0869  0.0583 -0.3215
  473TIP3    H122910   2.659   4.377   5.376 -1.7991  0.6933  0.7019
  473TIP3    H222911   2.593   4.261   5.447 -0.2113 -1.1590 -0.7704
  474TIP3   OH222912   1.741   5.925  12.746  0.0758 -0.1952  0.6957
  474TIP3    H122913   1.646   5.930  12.743  0.1485  1.2483 -1.0053
  474TIP3    H222914   1.764   5.950  12.836 -1.1482 -1.3660  1.3693
  475TIP3   OH222915   6.256   3.851  15.211 -0.1271  0.3560  0.2503
  475TIP3    H122916   6.307   3.823  15.287 -1.0117  0.4852  0.9011
  475TIP3    H222917   6.206   3.927  15.243 -0.9627  0.0385 -0.2836
  476TIP3   OH222918   6.529   4.762   1.427  0.1684 -0.6159  0.1094
  476TIP3    H122919   6.443   4.785   1.463  0.4783 -0.7047  0.9127
  476TIP3    H222920   6.572   4.846   1.413 -0.3857 -0.5221 -1.1653
  477TIP3   OH222921   0.857   0.529  10.724 -0.3304  0.1728  0.2409
  477TIP3    H122922   0.856   0.447  10.772 -1.0457  1.2912  2.2651
  477TIP3    H222923   0.943   0.532  10.683  0.5679 -0.5742  1.9871
  478TIP3   OH222924   2.241   0.253   5.872  0.3775 -0.1572  0.0647
  478TIP3    H122925   2.160   0.258   5.921  1.1743  0.2967  1.3821
  478TIP3    H222926   2.213   0.249   5.780 -1.1062  0.2848  0.4703
  479TIP3   OH222927   2.342   1.519  12.230 -0.1145 -0.2143  0.3622
  479TIP3    H122928   2.302   1.466  12.299 -2.3715  2.4798  1.3346
  479TIP3    H222929   2.273   1.529  12.164 -0.4373  2.7083  0.9924
  480TIP3   OH222930   4.255   1.274  12.199 -0.0214  0.1575 -0.5976
  480TIP3    H122931   4.293   1.339  12.140 -0.9391  0.6904 -0.6169
  480TIP3    H222932   4.196   1.324  12.255  1.2770 -0.2220  1.2274
  481TIP3   OH222933   4.318   3.981  17.137 -0.4169  0.2017 -0.2999
  481TIP3    H122934   4.367   4.022  17.208  0.6889 -1.5548  0.0165
  481TIP3    H222935   4.236   4.030  17.132  0.9389  2.6247 -0.2048
  482TIP3   OH222936   6.680   3.644   2.692  0.1759 -0.5191  0.1882
  482TIP3    H122937   6.772   3.617   2.686  0.4030 -0.5268  2.6389
  482TIP3    H222938   6.633   3.582   2.636  1.6528 -0.4588 -1.1742
  483TIP3   OH222939   6.002   2.661  14.533 -0.8618 -0.2793 -0.3452
  483TIP3    H122940   6.067   2.592  14.542 -0.6362  0.0316  0.5580
  483TIP3    H222941   6.023   2.703  14.450 -0.7829 -1.0602 -0.7334
  484TIP3   OH222942   4.885   2.054   1.598 -0.1939  0.3539  0.2256
  484TIP3    H122943   4.928   1.972   1.622 -0.7189  0.6593  2.3666
  484TIP3    H222944   4.907   2.115   1.668 -0.2915  1.9107 -1.0270
  485TIP3   OH222945   6.538   5.356  15.204  0.1130 -0.1158 -0.6009
  485TIP3    H122946   6.593   5.316  15.137 -1.5252 -0.0234 -2.0973
  485TIP3    H222947   6.522   5.287  15.268  0.4676 -0.6674 -1.1077
  486TIP3   OH222948   4.751   5.465  14.925 -0.2972  0.4833 -0.2503
  486TIP3    H122949   4.824   5.417  14.885 -0.7719 -0.6067  0.1419
  486TIP3    H222950   4.677   5.405  14.918 -0.7045  0.8105  1.0672
  487TIP3   OH222951   5.597   2.285   6.424 -0.3045  0.3965 -0.3990
  487TIP3    H122952   5.558   2.199   6.441 -3.4668  1.5656 -1.1800
  487TIP3    H222953   5.564   2.341   6.494  1.9079  1.0202  0.2392
  488TIP3   OH222954   2.556   1.064  14.456 -0.8068 -0.1380  0.5379
  488TIP3    H122955   2.521   1.110  14.380  1.4925  0.4416 -0.2665
  488TIP3    H222956   2.577   1.134  14.518  1.5422 -0.1038 -0.1895
  489TIP3   OH222957   0.981   0.129  11.395  0.2085 -0.4527  0.3671
  489TIP3    H122958   1.062   0.091  11.360 -0.0243 -1.5435  0.9852
  489TIP3    H222959   0.959   0.199  11.333  2.3982  0.8414  0.9390
  490TIP3   OH222960   2.895   1.142  14.802 -0.3488 -0.1581  0.6385
  490TIP3    H122961   2.882   1.194  14.723 -1.5437 -1.9272 -0.4034
  490TIP3    H222962   2.966   1.186  14.849  0.7096  0.6900 -1.6404
  491TIP3   OH222963   4.734   6.202   4.533 -0.2530  0.4302  0.3339
  491TIP3    H122964   4.676   6.217   4.607 -1.6507  0.2092 -0.6791
  491TIP3    H222965   4.680   6.155   4.469  0.8660  0.7363 -0.8814
  492TIP3   OH222966   5.426   2.934  13.091 -0.1908 -0.1149 -0.1832
  492TIP3    H122967   5.460   2.917  13.003 -0.0657  1.3630 -0.4399
  492TIP3    H222968   5.441   3.027  13.105  0.0602 -0.3905  1.5341
  493TIP3   OH222969   2.353   3.123   5.178  0.1075 -0.5165  0.0256
  493TIP3    H122970   2.317   3.038   5.153  1.4851 -0.7128 -1.4534
  493TIP3    H222971   2.335   3.180   5.103 -1.7149  0.8458  1.4023
  494TIP3   OH222972   1.929   4.807  15.523 -0.0738 -0.4717 -0.1343
  494TIP3    H122973   1.890   4.850  15.447 -0.1893  0.5485  0.4906
  494TIP3    H222974   1.861   4.746  15.553 -1.3699  1.4526  1.0858
  495TIP3   OH222975   5.080   6.490  11.842  0.3556 -0.1428 -0.3401
  495TIP3    H122976   5.072   6.583  11.822 -0.5629  0.1423  1.2129
  495TIP3    H222977   5.088   6.448  11.756 -0.1134  1.2735 -1.1174
  496TIP3   OH222978   1.596   6.060  16.730  0.2450 -0.1580 -0.5261
  496TIP3    H122979   1.585   6.058  16.825  1.8117  0.2883 -0.2980
  496TIP3    H222980   1.531   5.999  16.696  0.1849 -0.9155  0.8919
  497TIP3   OH222981   5.569   1.219  14.331  0.2553  0.3005  0.0280
  497TIP3    H122982   5.602   1.298  14.288  1.3298  0.4678  1.1148
  497TIP3    H222983   5.493   1.249  14.381  0.3013  0.5197 -0.0320
  498TIP3   OH222984   3.183   1.063   2.898 -0.2047  0.1895 -0.0516
  498TIP3    H122985   3.276   1.079   2.914 -0.2307 -1.1084  1.7554
  498TIP3    H222986   3.176   1.056   2.803  1.0756  2.7402 -0.4057
  499TIP3   OH222987   0.046   0.171  14.100 -0.1023  0.0016  0.4381
  499TIP3    H122988   0.112   0.240  14.096 -0.4958  0.3983  0.6743
  499TIP3    H222989   0.046   0.144  14.192 -0.8096  0.5420  0.6023
  500TIP3   OH222990   4.479   0.207   0.103 -0.2770 -0.2644  0.4081
  500TIP3    H122991   4.547   0.139   0.103  2.1539  2.0034  0.4714
  500TIP3    H222992   4.419   0.181   0.172  1.9182 -1.1196  2.1032
  501TIP3   OH222993   2.944   4.729   4.023 -0.0041 -0.1215  0.2318
  501TIP3    H122994   3.006   4.658   4.040  1.0151  0.4117 -1.1682
  501TIP3    H222995   2.877   4.718   4.091  1.9796 -0.2516  2.3114
  502TIP3   OH222996   6.046   0.660   2.601  0.2248 -0.7223  0.0624
  502TIP3    H122997   5.955   0.677   2.577  1.0304  2.4976 -1.1753
  502TIP3    H222998   6.063   0.572   2.568 -1.1332  0.3294 -4.0561
  503TIP3   OH222999   1.011   1.105   1.073 -0.1646  0.4082  0.9284
  503TIP3    H123000   0.947   1.174   1.056 -0.3810 -0.4133 -2.1859
  503TIP3    H223001   1.077   1.116   1.005  0.1623 -1.9698  0.7711
  504TIP3   OH223002   5.019   0.486   5.918  0.2107 -0.2341  0.5296
  504TIP3    H123003   5.013   0.501   6.013 -0.1159  0.8085  0.3480
  504TIP3    H223004   4.946   0.427   5.899 -1.6504  1.9458  0.4683
  505TIP3   OH223005   4.017   6.222  15.091  0.4327 -0.2593 -0.2308
  505TIP3    H123006   3.932   6.242  15.051  0.0301 -0.7664  0.3322
  505TIP3    H223007   3.995   6.204  15.183  1.2183  0.0658  0.0264
  506TIP3   OH223008   0.898   5.133   0.680 -0.0560  0.1854  0.2415
  506TIP3    H123009   0.917   5.203   0.617  2.6916 -0.9650 -0.3291
  506TIP3    H223010   0.901   5.177   0.766  1.5461  0.8438 -0.1103
  507TIP3   OH223011   4.297   2.450   0.444 -0.1894  0.2437  0.0195
  507TIP3    H123012   4.376   2.399   0.426  0.4024  1.5740 -1.3680
  507TIP3    H223013   4.229   2.384   0.459  0.8356 -0.9285 -0.3064
  508TIP3   OH223014   3.699   0.435   0.178 -0.3033 -0.1655  0.0968
  508TIP3    H123015   3.744   0.519   0.166 -0.9660  0.0555 -0.9041
  508TIP3    H223016   3.673   0.409   0.090 -3.2805  0.3438  0.7315
  509TIP3   OH223017   5.424   3.749   2.710  0.5187 -0.2230 -0.4605
  509TIP3    H123018   5.448   3.821   2.651 -0.7896  1.0881  0.5141
  509TIP3    H223019   5.369   3.691   2.656 -0.7918  1.0354 -0.5428
  510TIP3   OH223020   4.758   6.062   0.671  0.0701  0.2349  0.2007
  510TIP3    H123021   4.810   6.015   0.606 -1.5438  1.6032 -2.2144
  510TIP3    H223022   4.789   6.153   0.665 -1.5366  0.7834 -0.2191
  511TIP3   OH223023   0.559   2.585   3.965  0.5359 -0.3115  0.3824
  511TIP3    H123024   0.508   2.664   3.947 -1.2928 -1.0323  1.9869
  511TIP3    H223025   0.586   2.594   4.057  3.4030  0.0303 -0.3966
  512TIP3   OH223026   1.028   6.440  11.536  0.2097  0.0905  0.3609
  512TIP3    H123027   1.003   6.372  11.598 -1.2695  0.0411 -0.2473
  512TIP3    H223028   1.065   6.392  11.461  4.5129  0.2355  2.1314
  513TIP3   OH223029   4.234   6.422  15.025 -0.0084 -0.0628 -0.1866
  513TIP3    H123030   4.156   6.456  15.069 -0.2383  0.8062 -1.1940
  513TIP3    H223031   4.200   6.355  14.965  0.3373 -1.4662  1.1276
  514TIP3   OH223032   2.436   1.825  12.888  0.0411 -0.1033 -0.6168
  514TIP3    H123033   2.410   1.762  12.821 -0.9492 -0.5176  0.1371
  514TIP3    H223034   2.441   1.774  12.969  0.8892  0.4557 -0.2976
  515TIP3   OH223035   5.889   5.857   4.031  0.4341  0.2509 -0.4083
  515TIP3    H123036   5.820   5.799   4.064  1.7743 -1.2450 -0.1332
  515TIP3    H223037   5.849   5.944   4.032 -0.9090 -0.3234  1.3235
  516TIP3   OH223038   5.140   0.897  11.204 -0.0731  0.3896 -0.1529
  516TIP3    H123039   5.072   0.884  11.270  1.5763 -1.7213  1.3063
  516TIP3    H223040   5.112   0.844  11.129  0.5155 -1.6500  0.9759
  517TIP3   OH223041   1.295   3.715  16.385 -0.5916  0.3979 -0.2018
  517TIP3    H123042   1.347   3.752  16.314  0.2983  0.7920  0.6308
  517TIP3    H223043   1.348   3.643  16.419 -0.4064  1.0347  0.8960
  518TIP3   OH223044   5.490   6.639   5.843 -0.6180 -0.3970 -0.4645
  518TIP3    H123045   5.502   6.622   5.937  0.5562 -2.8137 -0.9712
  518TIP3    H223046   5.398   6.621   5.827 -0.6093 -0.9549  0.0705
  519TIP3   OH223047   2.330   2.018  12.584  0.2360  0.1931  0.0606
  519TIP3    H123048   2.417   1.989  12.557  0.5676  1.1392  0.0693
  519TIP3    H223049   2.271   1.981  12.519  0.6302 -0.5763  0.1335
  520TIP3   OH223050   2.639   5.040  10.752  0.1871  0.0794 -0.4506
  520TIP3    H123051   2.704   5.090  10.802  1.0092 -0.4343 -0.9798
  520TIP3    H223052   2.589   4.992  10.818 -0.3964  1.3349  0.0375
  521TIP3   OH223053   0.446   6.793   3.746 -0.1642 -0.4134  0.2985
  521TIP3    H123054   0.387   6.747   3.806 -0.1179 -1.2566 -0.2897
  521TIP3    H223055   0.418   6.884   3.750  0.5260 -0.2358  2.4307
  522TIP3   OH223056   5.752   6.285  16.281 -0.1549 -0.2861 -0.2716
  522TIP3    H123057   5.751   6.237  16.364  1.2209 -2.1658 -1.2527
  522TIP3    H223058   5.845   6.295  16.261 -0.4614  0.2280 -1.5357
  523TIP3   OH223059   1.184   2.242   4.735  0.0221 -0.8377 -0.3480
  523TIP3    H123060   1.128   2.276   4.665  1.2036 -0.0973 -0.9688
  523TIP3    H223061   1.123   2.221   4.805 -0.9463  1.2570 -0.4631
  524TIP3   OH223062   5.873   0.506  12.849 -0.5021  0.2187  0.1720
  524TIP3    H123063   5.954   0.535  12.808 -0.5419 -1.1979 -0.9928
  524TIP3    H223064   5.884   0.528  12.942  1.7771 -1.0143  0.2869
  525TIP3   OH223065   5.993   2.490   3.892  0.4912  0.2408  0.4329
  525TIP3    H123066   6.012   2.399   3.870 -1.1749  0.4333 -2.2859
  525TIP3    H223067   6.065   2.539   3.854  0.0717  0.2141 -0.4185
  526TIP3   OH223068   4.739   0.113  11.578  0.3462  0.3797  0.0526
  526TIP3    H123069   4.712   0.128  11.668 -0.6858  0.1613 -0.2000
  526TIP3    H223070   4.785   0.030  11.579  0.6219  0.5351  0.4262
  527TIP3   OH223071   1.894   3.417   5.892  0.6527  0.2031  0.1283
  527TIP3    H123072   1.943   3.349   5.845  0.2111  0.5232 -0.8069
  527TIP3    H223073   1.803   3.400   5.871  0.6633  3.4096 -3.4536
  528TIP3   OH223074   0.824   0.854   3.319  0.6049 -0.0210  0.0100
  528TIP3    H123075   0.855   0.893   3.400  1.2787 -2.7710  1.1868
  528TIP3    H223076   0.882   0.888   3.251  0.1509  2.1623  0.6522
  529TIP3   OH223077   4.104   4.478   5.845  0.0094  0.3864 -1.2047
  529TIP3    H123078   4.116   4.572   5.834 -1.6386  1.2258  2.5646
  529TIP3    H223079   4.168   4.454   5.913  0.9094 -1.4372 -2.6230
  530TIP3   OH223080   3.795   5.242   3.458  0.2034 -0.3035 -0.5226
  530TIP3    H123081   3.844   5.161   3.473 -0.0402 -0.1528  1.3146
  530TIP3    H223082   3.862   5.308   3.446  0.4337 -0.4704 -0.1844
  531TIP3   OH223083   6.449   2.749  15.364 -0.1987  0.4085  0.0503
  531TIP3    H123084   6.455   2.808  15.438 -1.8587  1.2072 -0.3959
  531TIP3    H223085   6.399   2.798  15.298 -0.2229 -0.8924 -0.9501
  532TIP3   OH223086   3.623   2.720   0.618 -0.5678 -0.1018  0.0547
  532TIP3    H123087   3.533   2.752   0.621  0.2810  2.4560  0.6199
  532TIP3    H223088   3.636   2.694   0.527 -1.7387 -0.1062 -0.1344
  533TIP3   OH223089   1.400   2.185  16.853  0.0841  0.1846  0.2761
  533TIP3    H123090   1.415   2.123  16.782  3.7680  0.3380  0.7158
  533TIP3    H223091   1.428   2.139  16.932  2.1066  2.0206  0.7215
  534TIP3   OH223092   0.457   4.472  16.959 -0.7448  0.5759  0.3026
  534TIP3    H123093   0.508   4.391  16.962 -3.2775 -1.2920 -2.0915
  534TIP3    H223094   0.394   4.464  17.030 -1.3161  0.2022 -0.2446
  535TIP3   OH223095   1.431   1.909   6.060  0.2522  0.0342 -0.3749
  535TIP3    H123096   1.436   1.880   5.969 -0.3710 -5.0585  0.9347
  535TIP3    H223097   1.341   1.938   6.071  0.1929  0.2190 -1.2454
  536TIP3   OH223098   6.485   4.614  15.145  0.0644  0.6272 -0.4408
  536TIP3    H123099   6.576   4.591  15.128 -0.5679 -1.8982 -0.9662
  536TIP3    H223100   6.444   4.613  15.058 -1.3335 -3.1288  0.0624
  537TIP3   OH223101   1.493   2.760   0.679  0.6980 -0.2580 -0.2987
  537TIP3    H123102   1.585   2.734   0.682  0.9642  0.6432 -0.2417
  537TIP3    H223103   1.445   2.679   0.695  1.4470 -0.9186 -1.2934
  538TIP3   OH223104   2.654   0.150   1.424 -0.2064  0.2331 -0.2887
  538TIP3    H123105   2.686   0.208   1.494  0.0591  0.5066 -0.6358
  538TIP3    H223106   2.676   0.196   1.343  0.2254 -0.4733 -0.5736
  539TIP3   OH223107   4.371   4.859   1.448  0.7209 -0.4416 -0.5456
  539TIP3    H123108   4.304   4.868   1.517  0.8729 -0.4364 -0.3970
  539TIP3    H223109   4.399   4.768   1.454 -0.5836 -0.9652 -1.8345
  540TIP3   OH223110   6.379   2.035  17.144 -0.7472 -0.3414 -0.1866
  540TIP3    H123111   6.447   2.091  17.182  0.1279 -2.2916  1.3015
  540TIP3    H223112   6.299   2.088  17.149  0.0930  0.8901  0.8475
  541TIP3   OH223113   5.545   2.685  12.414 -0.2550 -0.0697  0.2271
  541TIP3    H123114   5.495   2.738  12.476  0.6653 -2.2377  3.0212
  541TIP3    H223115   5.515   2.595  12.430  2.4255 -1.0948 -0.0007
  542TIP3   OH223116   5.317   0.285  15.223 -0.2760  0.6272 -0.0787
  542TIP3    H123117   5.242   0.314  15.275 -2.2094 -0.4808 -2.1093
  542TIP3    H223118   5.363   0.367  15.200 -3.0292  1.7803 -1.9245
  543TIP3   OH223119   0.501   0.394   3.858  0.1560 -0.3300 -0.3516
  543TIP3    H123120   0.512   0.480   3.817  1.1378 -0.0354  0.4855
  543TIP3    H223121   0.499   0.412   3.952 -0.3876 -1.1540 -0.1916
  544TIP3   OH223122   4.906   3.333  16.102 -0.0902  0.5821 -0.1997
  544TIP3    H123123   4.896   3.363  16.012  3.1349 -0.0704 -0.9192
  544TIP3    H223124   4.880   3.408  16.155 -2.3537  0.8783 -1.5990
  545TIP3   OH223125   4.360   3.926  15.544 -0.2056  0.2603  0.5733
  545TIP3    H123126   4.372   3.847  15.597  3.0149 -1.0080 -1.7513
  545TIP3    H223127   4.449   3.959  15.529 -1.3839  4.7265  1.7940
  546TIP3   OH223128   6.031   4.958   3.483  0.3558 -0.4456  0.0495
  546TIP3    H123129   6.097   5.003   3.431  0.7487 -1.9131 -0.7685
  546TIP3    H223130   6.014   4.877   3.436 -0.7252 -0.9185  1.1928
  547TIP3   OH223131   5.182   6.013  11.829 -0.2425  0.6128  0.0970
  547TIP3    H123132   5.202   6.056  11.746 -1.1300  0.6707 -0.0970
  547TIP3    H223133   5.263   5.969  11.854  1.1777  3.4813  0.9717
  548TIP3   OH223134   2.315   0.796   4.627  0.0681  0.1228  0.1735
  548TIP3    H123135   2.298   0.705   4.654 -0.8147  0.5920  1.3003
  548TIP3    H223136   2.233   0.842   4.646  0.2837  1.0329 -1.0060
  549TIP3   OH223137   2.870   5.032   4.397  0.1041 -0.2334 -0.5935
  549TIP3    H123138   2.821   5.064   4.321 -0.7532 -1.2539 -0.5007
  549TIP3    H223139   2.922   5.106   4.425 -1.1544  0.8047 -0.9020
  550TIP3   OH223140   1.547   5.383   3.953  0.2225 -0.0574  0.0804
  550TIP3    H123141   1.584   5.471   3.943  1.4008 -0.7347 -2.5383
  550TIP3    H223142   1.453   5.398   3.964  0.3814  1.5367 -0.4412
  551TIP3   OH223143   1.337   1.060  13.021 -0.0487  0.0185 -0.2667
  551TIP3    H123144   1.308   1.144  13.055  2.8321  0.7348  0.6947
  551TIP3    H223145   1.425   1.048  13.056  0.6473 -2.2116 -2.4181
  552TIP3   OH223146   3.992   0.442   3.254 -0.0209  0.5308 -0.5220
  552TIP3    H123147   4.055   0.508   3.283  1.5430 -0.8668 -0.5596
  552TIP3    H223148   3.927   0.491   3.203  0.3971  2.1838  0.4699
  553TIP3   OH223149   4.083   2.170  15.957 -0.2245 -0.4625 -0.0263
  553TIP3    H123150   4.100   2.076  15.956 -0.2561 -0.5821  2.6423
  553TIP3    H223151   4.040   2.186  16.041 -0.2345  1.9378 -0.4103
  554TIP3   OH223152   5.407   2.601   4.676 -0.2065  0.1155  0.5966
  554TIP3    H123153   5.414   2.668   4.608  0.2713  1.1379  1.6151
  554TIP3    H223154   5.392   2.520   4.628  1.1654  0.6276 -0.8089
  555TIP3   OH223155   0.656   4.925  11.501  0.1752 -0.7581  0.4106
  555TIP3    H123156   0.719   4.967  11.559 -1.3532  0.5794  1.1700
  555TIP3    H223157   0.624   4.849  11.550  0.2705 -0.7116  0.5449
  556TIP3   OH223158   1.817   3.832  13.051 -0.2676 -1.0837 -0.2108
  556TIP3    H123159   1.835   3.884  13.129 -0.6491 -1.5571  0.1979
  556TIP3    H223160   1.878   3.865  12.985 -1.0492  0.4367 -0.2105
  557TIP3   OH223161   3.265   5.368   2.554 -0.1078 -0.1544 -0.3909
  557TIP3    H123162   3.253   5.275   2.532  0.4638 -0.1386 -0.7927
  557TIP3    H223163   3.192   5.388   2.612  0.6713 -1.3055  1.0655
  558TIP3   OH223164   0.736   5.708  14.837 -0.0127 -0.1374 -0.2215
  558TIP3    H123165   0.652   5.754  14.842 -0.5711 -1.1574 -0.1359
  558TIP3    H223166   0.763   5.717  14.746  1.3906  2.9593  0.3708
  559TIP3   OH223167   1.879   5.657   5.641  0.0100  0.1838  0.7497
  559TIP3    H123168   1.830   5.717   5.697 -0.3457  0.8569 -0.2521
  559TIP3    H223169   1.951   5.626   5.696 -1.0772 -0.2280  2.0043
  560TIP3   OH223170   2.663   6.296  12.765  0.1318  0.2315 -0.0461
  560TIP3    H123171   2.731   6.328  12.824  0.1908  1.8165 -0.9118
  560TIP3    H223172   2.581   6.330  12.801  0.2978  2.6254 -1.6222
  561TIP3   OH223173   6.005   1.358  15.573  0.1347  0.5967  0.1684
  561TIP3    H123174   5.963   1.366  15.487 -1.8600  0.9560  1.1235
  561TIP3    H223175   6.072   1.426  15.574  1.0873 -0.2429 -1.5544
  562TIP3   OH223176   1.579   0.788  17.032  0.1636  1.0321 -0.1009
  562TIP3    H123177   1.514   0.776  17.101  2.5175  0.4798  2.1862
  562TIP3    H223178   1.572   0.708  16.978 -0.4086  0.5548  0.6599
  563TIP3   OH223179   0.304   1.973  15.442  0.1817  0.4867 -0.1314
  563TIP3    H123180   0.369   2.033  15.478  0.1914  0.5211 -0.2070
  563TIP3    H223181   0.274   2.016  15.362 -0.8186  1.0683  0.5246
  564TIP3   OH223182   5.710   5.861   1.236  0.5046  0.4699 -0.2888
  564TIP3    H123183   5.667   5.842   1.153 -0.4989 -0.5314  0.4196
  564TIP3    H223184   5.799   5.829   1.225  0.2086 -0.2076 -0.7958
  565TIP3   OH223185   6.062   2.432  14.151  0.0878 -0.3152 -0.1152
  565TIP3    H123186   6.035   2.373  14.221 -0.5056  0.6081  0.4572
  565TIP3    H223187   6.106   2.504  14.196  0.4559 -0.1257 -0.7669
  566TIP3   OH223188   5.278   2.741   3.720  0.3267 -0.1029 -0.1684
  566TIP3    H123189   5.337   2.812   3.746 -0.0971  0.1140  0.2076
  566TIP3    H223190   5.315   2.708   3.638  0.2435  0.8892 -0.6199
  567TIP3   OH223191   2.853   1.081   5.946  0.4090  0.0884 -0.0286
  567TIP3    H123192   2.793   1.041   6.010  0.6592 -0.6759 -0.2554
  567TIP3    H223193   2.796   1.129   5.886  0.1211  0.2990  0.4059
  568TIP3   OH223194   3.339   2.312   1.209 -0.2692 -0.0271 -0.0132
  568TIP3    H123195   3.270   2.378   1.219  0.1312  0.4675 -0.4607
  568TIP3    H223196   3.411   2.344   1.264 -0.9183 -1.3075  1.6718
  569TIP3   OH223197   6.598   6.361   2.088 -0.4012 -0.0590 -0.2125
  569TIP3    H123198   6.533   6.428   2.066  0.9375  0.8350 -1.5714
  569TIP3    H223199   6.682   6.406   2.085  0.4984 -1.6830 -0.6581
  570TIP3   OH223200   2.630   5.661  11.369 -0.1842  0.1770  0.1572
  570TIP3    H123201   2.722   5.651  11.392  0.0655  1.7821 -0.0384
  570TIP3    H223202   2.606   5.577  11.329  0.8255 -0.7183  1.3477
  571TIP3   OH223203   2.035   3.409   1.182 -0.3953 -0.4436 -0.1599
  571TIP3    H123204   1.976   3.349   1.135  0.2176 -0.6999 -0.6224
  571TIP3    H223205   2.115   3.409   1.130  0.2272 -0.5564  0.7700
  572TIP3   OH223206   5.531   6.741   5.601 -0.7108  0.1536  0.3946
  572TIP3    H123207   5.488   6.825   5.617  0.8534  0.9201  0.8260
  572TIP3    H223208   5.533   6.698   5.686  0.5887  0.7439  0.6803
  573TIP3   OH223209   5.546   5.633  16.430 -0.0212 -0.1623  0.5241
  573TIP3    H123210   5.548   5.706  16.491  0.8678 -0.6776  1.1392
  573TIP3    H223211   5.455   5.604  16.430 -0.3240  0.7584  0.4815
  574TIP3   OH223212   0.212   6.720  16.042 -0.5689  0.0350 -0.5015
  574TIP3    H123213   0.180   6.638  16.078  0.3021 -0.1166 -0.0259
  574TIP3    H223214   0.232   6.701  15.951 -2.0400  0.2069 -0.8786
  575TIP3   OH223215   6.176   0.143   1.641 -0.2136  0.2676 -0.5217
  575TIP3    H123216   6.165   0.083   1.715  1.2813  0.4490 -0.1185
  575TIP3    H223217   6.096   0.194   1.639 -0.6776 -0.4004  0.3727
  576TIP3   OH223218   4.093   2.230  11.699 -0.5495  0.0372 -0.0183
  576TIP3    H123219   4.051   2.302  11.745  0.1001  1.0333 -0.9505
  576TIP3    H223220   4.175   2.216  11.746 -0.9282 -0.5009  0.5080
  577TIP3   OH223221   3.856   5.715  14.507 -0.3608  0.1676  0.0872
  577TIP3    H123222   3.814   5.645  14.558 -1.0586  0.6249  0.1578
  577TIP3    H223223   3.933   5.739  14.559 -0.5515 -0.0135  0.4587
  578TIP3   OH223224   4.938   5.109   2.606  0.4906  0.0075 -0.2017
  578TIP3    H123225   5.016   5.064   2.636  0.0516 -1.1569 -0.7596
  578TIP3    H223226   4.890   5.130   2.687 -0.5440 -2.8462  0.0567
  579TIP3   OH223227   1.339   2.016   5.133  0.1753  0.0952  0.1627
  579TIP3    H123228   1.415   1.970   5.168 -0.1262 -1.6845 -1.3640
  579TIP3    H223229   1.296   1.952   5.076 -2.6059  0.9503  1.1238
  580TIP3   OH223230   0.993   4.958  10.853  0.5330 -0.6019 -0.0477
  580TIP3    H123231   1.015   4.870  10.884  1.2063 -0.6641 -0.6742
  580TIP3    H223232   1.002   4.952  10.758  2.0653  0.5237 -0.0097
  581TIP3   OH223233   4.614   3.449  11.502 -0.0402 -0.2106 -0.3563
  581TIP3    H123234   4.673   3.373  11.495 -0.1754 -0.1610 -4.2769
  581TIP3    H223235   4.538   3.424  11.449 -1.5131  1.4918  0.8750
  582TIP3   OH223236   4.537   6.760   2.496  0.0605 -0.4607 -0.2239
  582TIP3    H123237   4.462   6.814   2.519 -1.1780 -1.7661 -1.0326
  582TIP3    H223238   4.574   6.802   2.418  0.6128  0.5747  0.5833
  583TIP3   OH223239   3.369   4.650   4.134 -0.3156 -0.2969  0.0804
  583TIP3    H123240   3.344   4.588   4.066  1.1512  0.0038 -0.7552
  583TIP3    H223241   3.463   4.660   4.125 -0.4197  1.5554  0.6328
  584TIP3   OH223242   3.728   6.050  13.266 -0.9407 -0.4038 -0.2006
  584TIP3    H123243   3.723   6.088  13.178 -1.2984 -0.5329 -0.2351
  584TIP3    H223244   3.813   6.005  13.268 -0.4253  0.5432 -0.0992
  585TIP3   OH223245   5.982   3.809  10.788  0.1635 -0.4011 -0.0548
  585TIP3    H123246   5.952   3.777  10.703 -0.2495  0.1604 -0.1196
  585TIP3    H223247   6.033   3.887  10.768 -1.5299  0.8444  0.3503
  586TIP3   OH223248   2.420   4.368  16.852  0.2625  0.5053 -0.4490
  586TIP3    H123249   2.413   4.409  16.766 -1.4986  1.3735  0.0598
  586TIP3    H223250   2.478   4.425  16.902 -1.0108  1.6508 -0.2063
  587TIP3   OH223251   3.816   2.691   4.940 -0.2685 -0.3856  0.3613
  587TIP3    H123252   3.752   2.621   4.955 -0.4631 -0.1118  0.8092
  587TIP3    H223253   3.783   2.765   4.991  0.5211 -0.3054  0.7540
  588TIP3   OH223254   0.194   1.010  14.881  0.0709 -0.0255 -0.0932
  588TIP3    H123255   0.173   1.002  14.974 -0.2632  0.7599 -0.0909
  588TIP3    H223256   0.138   1.082  14.850 -0.3390 -0.7292 -1.0565
  589TIP3   OH223257   6.818   5.503  16.449 -0.2780  0.3027 -0.0595
  589TIP3    H123258   6.802   5.541  16.362 -0.0344  0.0609 -0.2103
  589TIP3    H223259   6.730   5.495  16.487 -0.2125  2.9328  0.7989
  590TIP3   OH223260   3.254   5.176  10.498  0.2392 -0.1651 -0.0327
  590TIP3    H123261   3.260   5.090  10.456 -0.1208 -0.6512  0.8893
  590TIP3    H223262   3.345   5.206  10.503  0.3742 -0.5108 -0.3117
  591TIP3   OH223263   4.698   1.280  15.439 -0.1035  0.6695  0.2505
  591TIP3    H123264   4.750   1.252  15.364 -0.8665  1.0302 -0.4222
  591TIP3    H223265   4.726   1.370  15.455 -1.3748  1.2998 -0.8980
  592TIP3   OH223266   5.733   6.030  11.093 -0.1458 -0.2897 -0.3443
  592TIP3    H123267   5.795   6.103  11.099 -2.4425  1.7626 -0.0454
  592TIP3    H223268   5.788   5.952  11.094  2.4598  1.4070 -0.8028
  593TIP3   OH223269   2.512   2.100  10.628 -0.5353  0.2079 -0.0721
  593TIP3    H123270   2.462   2.018  10.627  0.7011 -0.6296 -2.7568
  593TIP3    H223271   2.602   2.072  10.643 -0.0524  1.0044 -1.3275
  594TIP3   OH223272   2.949   4.854   1.690 -1.0832 -0.4253 -0.1247
  594TIP3    H123273   2.870   4.809   1.659 -1.4494  0.1640 -0.0698
  594TIP3    H223274   2.948   4.938   1.644 -0.6454 -0.2954  0.1006
  595TIP3   OH223275   5.001   5.209  14.913  0.5545 -1.0020  0.4542
  595TIP3    H123276   5.086   5.232  14.949 -0.7531  4.2652  1.0297
  595TIP3    H223277   5.018   5.187  14.822  2.6339 -1.8863  1.0003
  596TIP3   OH223278   0.663   3.640  12.405 -0.0087  0.2092 -0.0479
  596TIP3    H123279   0.676   3.546  12.421  0.7685  0.4630  0.9323
  596TIP3    H223280   0.601   3.667  12.474 -0.0163  0.4742 -0.1573
  597TIP3   OH223281   6.428   3.731  14.071  0.0607 -0.2113 -0.0376
  597TIP3    H123282   6.395   3.643  14.056  0.0644 -0.2695  0.2995
  597TIP3    H223283   6.449   3.734  14.164  1.0586 -0.1986 -0.2530
  598TIP3   OH223284   2.920   6.309   3.030  0.1459 -0.1890  0.7567
  598TIP3    H123285   2.825   6.309   3.022  0.2007  1.9594 -0.9725
  598TIP3    H223286   2.938   6.362   3.108 -0.1083  1.1011 -0.0207
  599TIP3   OH223287   2.715   4.692  14.111 -0.5121  0.1665 -0.0676
  599TIP3    H123288   2.796   4.742  14.115  0.1465 -0.9548  2.9316
  599TIP3    H223289   2.646   4.759  14.110  0.3612  1.1179 -1.9027
  600TIP3   OH223290   4.863   4.729  12.047 -0.2353 -0.0357 -0.1593
  600TIP3    H123291   4.818   4.728  12.132 -1.8142 -2.2499 -0.9324
  600TIP3    H223292   4.809   4.786  11.993  0.3749  0.8004  0.0891
  601TIP3   OH223293   1.900   5.825   0.422 -0.7357  0.2303  0.1336
  601TIP3    H123294   1.870   5.787   0.505 -0.7265 -0.6880 -0.2696
  601TIP3    H223295   1.995   5.830   0.431 -0.2937 -3.2855 -1.1345
  602TIP3   OH223296   4.582   1.704  15.590 -0.9866  0.4185 -0.2490
  602TIP3    H123297   4.562   1.708  15.684  1.0496 -2.2534  0.4331
  602TIP3    H223298   4.533   1.628  15.558 -1.7113  1.3454 -1.3927
  603TIP3   OH223299   6.019   1.889   3.727 -0.2389 -0.6628  0.1816
  603TIP3    H123300   6.001   1.866   3.636  0.9302 -1.2017  0.0674
  603TIP3    H223301   5.938   1.866   3.773 -0.2962 -1.8879 -0.4775
  604TIP3   OH223302   0.357   1.917  12.891 -0.0977 -0.2250  0.0233
  604TIP3    H123303   0.345   2.001  12.846  1.1092 -0.5681 -0.9820
  604TIP3    H223304   0.321   1.852  12.830 -0.8479 -0.4748  0.7157
  605TIP3   OH223305   3.809   5.846   4.472  0.4397  0.2898  0.6560
  605TIP3    H123306   3.861   5.812   4.545  1.6395 -0.1298 -0.3563
  605TIP3    H223307   3.840   5.797   4.396 -1.4149  0.0797 -0.0067
  606TIP3   OH223308   1.598   6.602  13.770 -0.6010 -0.0074  0.0112
  606TIP3    H123309   1.650   6.622  13.847 -1.7850 -0.6422  1.0200
  606TIP3    H223310   1.553   6.685  13.750  0.9254  0.6205 -1.0314
  607TIP3   OH223311   5.671   0.192   5.953 -0.0250 -0.5513 -0.3705
  607TIP3    H123312   5.707   0.121   6.005  0.2563  1.3480  2.2531
  607TIP3    H223313   5.742   0.256   5.948 -1.6682  1.5850  1.5697
  608TIP3   OH223314   5.897   3.424   5.566  0.1758  0.5144  0.1049
  608TIP3    H123315   5.977   3.437   5.515  0.3483  1.1839  0.5323
  608TIP3    H223316   5.924   3.371   5.640 -0.1691 -0.8613 -0.7129
  609TIP3   OH223317   1.786   2.765   2.801 -0.3832  0.4095 -0.2622
  609TIP3    H123318   1.767   2.671   2.790  1.9337 -0.2716  0.9076
  609TIP3    H223319   1.758   2.784   2.891  0.4873  0.4166  0.0239
  610TIP3   OH223320   3.251   0.944   3.853  0.0955  0.0381 -0.1447
  610TIP3    H123321   3.318   0.918   3.916  0.0494 -1.1954 -0.5958
  610TIP3    H223322   3.263   0.887   3.778 -0.4911  0.8286 -0.8683
  611TIP3   OH223323   1.153   5.408   5.754  0.0930 -0.3184  0.1849
  611TIP3    H123324   1.224   5.351   5.725  0.0990 -1.0110  1.5071
  611TIP3    H223325   1.167   5.489   5.705  1.5087 -0.6117  0.0492
  612TIP3   OH223326   4.403   4.216  15.173  0.1943  0.3046 -0.3820
  612TIP3    H123327   4.413   4.282  15.104  0.9227  0.7167  0.0882
  612TIP3    H223328   4.471   4.152  15.155  0.1201  0.1992 -0.2863
  613TIP3   OH223329   0.244   6.036   5.268  0.4081 -0.3047  0.6881
  613TIP3    H123330   0.291   6.066   5.346  0.4601 -0.5671  0.7564
  613TIP3    H223331   0.305   5.977   5.224  0.4231 -0.0705  0.3870
  614TIP3   OH223332   1.380   2.001  11.624  0.8303 -0.1155  0.2073
  614TIP3    H123333   1.304   1.942  11.617  1.9190 -1.6566  0.7828
  614TIP3    H223334   1.413   2.008  11.535  1.2888 -1.2503  0.2681
  615TIP3   OH223335   2.102   6.746  15.541 -0.4796 -0.4039 -0.2394
  615TIP3    H123336   2.084   6.705  15.457  1.0820 -0.1906 -0.7095
  615TIP3    H223337   2.017   6.750  15.584 -1.4597  0.1550 -2.1046
  616TIP3   OH223338   0.397   4.374   3.898  0.0029 -0.3825 -0.4140
  616TIP3    H123339   0.473   4.377   3.957  0.7094  0.4106 -1.3345
  616TIP3    H223340   0.333   4.433   3.938  0.1244 -0.5406  0.0197
  617TIP3   OH223341   1.438   4.556   4.987 -0.1799  0.5913  0.2242
  617TIP3    H123342   1.377   4.504   4.935 -1.3157  2.6296 -0.5794
  617TIP3    H223343   1.504   4.493   5.016 -0.9054 -1.0925 -1.5523
  618TIP3   OH223344   0.008   4.949  12.935  0.1363  0.0399  0.2817
  618TIP3    H123345  -0.058   5.003  12.978  0.7647  0.6592  0.4878
  618TIP3    H223346   0.030   4.998  12.856 -0.2157 -0.5563 -0.1984
  619TIP3   OH223347   4.395   5.825   5.318  0.2951  0.2459 -0.5518
  619TIP3    H123348   4.412   5.918   5.334  2.0955 -0.2250  0.5548
  619TIP3    H223349   4.363   5.791   5.402  2.5470 -0.7035  0.0001
  620TIP3   OH223350   3.949   4.465   3.031  0.0387 -0.0859  0.2995
  620TIP3    H123351   3.854   4.475   3.035 -0.0627 -0.0634 -1.6086
  620TIP3    H223352   3.964   4.393   2.971  1.2474  0.8057 -0.5320
  621TIP3   OH223353   3.186   1.303  13.177  0.1731 -0.0484  0.0217
  621TIP3    H123354   3.166   1.210  13.165 -2.6772  0.4989 -0.1923
  621TIP3    H223355   3.190   1.338  13.088 -0.5751  0.3248  0.1254
  622TIP3   OH223356   4.440   0.505  14.205  0.1550 -0.0024  0.0211
  622TIP3    H123357   4.385   0.546  14.272 -1.8117 -1.4371 -0.6107
  622TIP3    H223358   4.389   0.429  14.177  2.0860 -0.8579 -1.3099
  623TIP3   OH223359   6.794   5.317   4.461 -0.2435 -0.2394  0.4943
  623TIP3    H123360   6.810   5.228   4.429 -1.3592 -0.8356  1.4840
  623TIP3    H223361   6.814   5.312   4.555  0.4265  0.7664  0.4123
  624TIP3   OH223362   2.303   3.978  16.893  0.2799  0.2131  0.4951
  624TIP3    H123363   2.332   3.920  16.823  0.2518  1.3185 -0.4665
  624TIP3    H223364   2.299   3.922  16.971  2.6276 -0.5516  0.1596
  625TIP3   OH223365   3.776   2.640   0.866 -0.7520 -0.0357  0.4197
  625TIP3    H123366   3.840   2.578   0.828 -1.5861  0.1598 -1.4217
  625TIP3    H223367   3.750   2.695   0.792 -1.8608  0.9279  1.4950
  626TIP3   OH223368   6.428   4.486   1.336  0.0539  0.2985 -0.8999
  626TIP3    H123369   6.406   4.486   1.429 -0.8517  0.3751 -1.1077
  626TIP3    H223370   6.489   4.559   1.325 -0.7423  1.0254 -0.5713
  627TIP3   OH223371   2.982   6.324  11.614 -0.2988 -0.9375 -0.5970
  627TIP3    H123372   3.027   6.240  11.610 -0.3882 -0.9644 -1.3682
  627TIP3    H223373   2.889   6.302  11.605 -0.2354 -0.6912 -2.3678
  628TIP3   OH223374   0.582   2.827   4.813  0.9623 -0.2812  0.1363
  628TIP3    H123375   0.612   2.745   4.853 -0.2320 -0.4360  0.7661
  628TIP3    H223376   0.656   2.856   4.761  2.8828  0.2400  2.9209
  629TIP3   OH223377   2.272   2.441  11.478  0.2070 -0.0279 -0.2327
  629TIP3    H123378   2.333   2.440  11.405 -0.8698  1.4108 -1.2055
  629TIP3    H223379   2.242   2.350  11.487  2.1491 -0.6854  0.0278
  630TIP3   OH223380   4.210   3.086   2.826 -0.2764 -0.4956  0.0696
  630TIP3    H123381   4.163   3.055   2.749 -0.6007 -2.2541  0.9305
  630TIP3    H223382   4.302   3.082   2.802 -0.4218  0.6827 -0.8001
  631TIP3   OH223383   3.218   1.497  13.640 -0.2104  0.0867  0.2310
  631TIP3    H123384   3.271   1.554  13.585  0.8156  0.8708  1.9470
  631TIP3    H223385   3.132   1.495  13.597 -0.0170  2.1979 -0.3575
  632TIP3   OH223386   1.735   5.062  15.958 -0.3140  0.3360 -0.4712
  632TIP3    H123387   1.683   4.985  15.934 -0.3072  0.5315 -1.1263
  632TIP3    H223388   1.674   5.117  16.008 -0.3547 -0.0309 -0.1047
  633TIP3   OH223389   5.365   4.407  16.120 -0.3847 -0.6854  0.0414
  633TIP3    H123390   5.390   4.499  16.131  0.9906 -0.7475 -2.0460
  633TIP3    H223391   5.418   4.359  16.183  2.4054 -0.4450 -1.9412
  634TIP3   OH223392   4.218   1.400  11.915 -0.3749 -0.3183  0.4909
  634TIP3    H123393   4.149   1.459  11.945 -0.4805 -0.3129  0.2321
  634TIP3    H223394   4.174   1.341  11.854 -0.1947 -0.4494  0.4884
  635TIP3   OH223395   0.433   2.670  11.737  0.5910  0.6830  0.3480
  635TIP3    H123396   0.390   2.632  11.661 -2.3160 -0.7294  2.4952
  635TIP3    H223397   0.508   2.613  11.754 -1.3677 -1.8340  1.1115
  636TIP3   OH223398   5.570   3.610   1.050 -0.0281 -0.2736  0.4054
  636TIP3    H123399   5.642   3.646   0.998  1.2806 -0.5915  1.9291
  636TIP3    H223400   5.500   3.595   0.986  0.0323  3.0840 -0.6077
  637TIP3   OH223401   5.531   4.798  13.275 -0.7155 -0.7182  0.7136
  637TIP3    H123402   5.555   4.741  13.348 -0.4928 -0.6831  0.6693
  637TIP3    H223403   5.581   4.765  13.201  0.6739  0.5087  1.0506
  638TIP3   OH223404   3.520   1.458   5.970 -0.4460 -0.6577  0.5135
  638TIP3    H123405   3.542   1.544   5.934  0.1771 -1.3145 -0.7414
  638TIP3    H223406   3.483   1.477   6.056  0.4813  0.8090  0.6279
  639TIP3   OH223407   0.483   5.919   1.765 -0.9410  0.1255  0.3970
  639TIP3    H123408   0.449   5.880   1.685  1.0474  0.3078 -0.5735
  639TIP3    H223409   0.432   5.999   1.776 -0.3092  0.8352 -1.4915
  640TIP3   OH223410   5.059   5.592  14.403 -0.3303  0.7522  0.1527
  640TIP3    H123411   5.032   5.513  14.449 -1.9065  2.9475  3.4409
  640TIP3    H223412   5.135   5.566  14.352 -0.2940 -2.6627  1.6840
  641TIP3   OH223413   1.794   5.699  15.926 -0.0423  0.1802  0.1040
  641TIP3    H123414   1.868   5.678  15.983  0.7174  0.1029 -0.8822
  641TIP3    H223415   1.829   5.693  15.838 -1.8792 -2.5978 -0.5606
  642TIP3   OH223416   4.742   3.091   3.318 -0.0608  0.3616 -0.4999
  642TIP3    H123417   4.751   2.997   3.331  1.7811  0.6826  1.0794
  642TIP3    H223418   4.813   3.113   3.257 -0.9657  0.6499 -1.4815
  643TIP3   OH223419   3.418   6.488   6.009  0.1191  0.3485 -0.3447
  643TIP3    H123420   3.325   6.467   6.015  0.0911  0.4561 -0.3925
  643TIP3    H223421   3.459   6.437   6.079  0.2161 -0.7959 -1.2030
  644TIP3   OH223422   3.428   5.569   2.451 -0.5142 -0.9151 -0.3868
  644TIP3    H123423   3.495   5.578   2.519  0.6786 -1.8893 -1.3779
  644TIP3    H223424   3.378   5.491   2.476 -0.5004 -0.8853 -0.2685
  645TIP3   OH223425   5.567   0.999   0.755 -0.2225 -0.0948 -0.5485
  645TIP3    H123426   5.658   1.009   0.726  0.1113  0.2220  0.5785
  645TIP3    H223427   5.555   1.065   0.823 -0.4598 -1.8641  1.2201
  646TIP3   OH223428   0.812   0.743  11.339 -0.1421  0.1647  0.2105
  646TIP3    H123429   0.798   0.649  11.347  1.0744  0.0224  1.0687
  646TIP3    H223430   0.731   0.777  11.303 -1.5935 -0.8908  2.2697
  647TIP3   OH223431   3.576   3.491  14.577  0.7425 -0.2500 -0.0770
  647TIP3    H123432   3.597   3.582  14.596  0.3961 -0.1084 -0.3580
  647TIP3    H223433   3.487   3.479  14.610  0.2862 -0.1098 -1.2120
  648TIP3   OH223434   6.272   3.596   3.424 -0.2390  0.2404 -0.2992
  648TIP3    H123435   6.288   3.682   3.386 -1.8373  0.4952 -0.4405
  648TIP3    H223436   6.322   3.536   3.369  1.9939  1.1731  0.5913
  649TIP3   OH223437   6.660   5.385  11.037  0.0456 -0.3258  0.0941
  649TIP3    H123438   6.604   5.401  11.113  0.2601 -0.7683  0.3526
  649TIP3    H223439   6.746   5.419  11.064  0.4303 -1.5784  0.5321
  650TIP3   OH223440   2.456   1.416   5.660  0.0963  0.1417  0.2968
  650TIP3    H123441   2.427   1.451   5.744 -0.6546  0.0463  0.0847
  650TIP3    H223442   2.550   1.401   5.672 -0.0516 -0.1542  1.2162
  651TIP3   OH223443   2.012   1.505  12.487  0.2186  0.1731 -0.6164
  651TIP3    H123444   1.983   1.436  12.547 -0.1368  1.5319  0.8623
  651TIP3    H223445   2.093   1.537  12.526 -0.0431  1.1199 -0.8333
  652TIP3   OH223446   1.944   5.171   4.832  0.2220 -0.0730 -0.2850
  652TIP3    H123447   1.852   5.157   4.853  0.4187 -0.0283  0.6457
  652TIP3    H223448   1.988   5.175   4.917  0.9531  0.8405 -0.6857
  653TIP3   OH223449   0.202   6.561  12.206 -0.5440 -0.1506  0.4259
  653TIP3    H123450   0.212   6.537  12.114 -1.4447  0.1342  0.2389
  653TIP3    H223451   0.272   6.624  12.222 -0.1248 -0.5211  0.0478
  654TIP3   OH223452   6.535   3.185   5.338 -0.4344 -0.0176 -0.5920
  654TIP3    H123453   6.615   3.142   5.310  0.0684  0.2875  0.3517
  654TIP3    H223454   6.472   3.167   5.267 -0.7436 -3.6072  0.4219
  655TIP3   OH223455   0.527   6.323   6.010 -0.3580  0.3758  0.7823
  655TIP3    H123456   0.456   6.259   6.014  0.9038 -1.1880 -0.4167
  655TIP3    H223457   0.505   6.379   5.935 -1.4292  1.3732  1.7927
  656TIP3   OH223458   5.567   6.610   3.098 -0.4919  0.2079  0.2305
  656TIP3    H123459   5.482   6.579   3.067 -0.1428 -0.3594 -0.1618
  656TIP3    H223460   5.568   6.588   3.191  0.1222 -1.8275 -0.2220
  657TIP3   OH223461   6.441   6.715  16.420  0.8735 -0.7142  0.1498
  657TIP3    H123462   6.536   6.705  16.414  0.7580 -3.1545  0.9529
  657TIP3    H223463   6.413   6.640  16.472 -1.7076 -1.3575 -1.9333
  658TIP3   OH223464   3.612   1.001   2.544  0.3798  0.6638  0.0360
  658TIP3    H123465   3.571   0.998   2.457  1.5382  0.6802 -0.5357
  658TIP3    H223466   3.624   0.909   2.568 -0.1680  0.6573  0.2994
  659TIP3   OH223467   1.506   2.228   2.721 -0.1809 -0.6869 -0.2786
  659TIP3    H123468   1.458   2.279   2.786  0.5081 -0.2741 -0.0917
  659TIP3    H223469   1.519   2.289   2.648  1.1457 -0.3969  0.1758
  660TIP3   OH223470   1.608   6.035  11.921 -0.4921  0.1327  0.7053
  660TIP3    H123471   1.673   5.993  11.977 -1.3527 -1.4082  0.5894
  660TIP3    H223472   1.525   5.998  11.950 -0.9127 -1.2150 -1.9620
  661TIP3   OH223473   3.139   2.856  10.889  0.7779  0.1415 -0.2798
  661TIP3    H123474   3.195   2.904  10.827 -0.1469 -0.2566 -1.4696
  661TIP3    H223475   3.098   2.924  10.942 -1.0017  0.7889 -2.3548
  662TIP3   OH223476   6.023   5.578   4.663  0.2490 -0.3121 -0.8399
  662TIP3    H123477   6.069   5.662   4.655  0.2101  0.0192  1.5683
  662TIP3    H223478   5.988   5.561   4.576  0.3678  2.1114 -1.4344
  663TIP3   OH223479   6.155   6.490  11.140  0.2878 -0.7261 -0.1504
  663TIP3    H123480   6.085   6.522  11.083  1.5417 -0.6306 -1.7048
  663TIP3    H223481   6.123   6.506  11.228 -0.4191  2.1109 -0.8067
  664TIP3   OH223482   2.015   1.861  16.618  0.2104  0.5815 -0.0571
  664TIP3    H123483   2.083   1.869  16.685 -1.4179 -0.8891  1.9144
  664TIP3    H223484   1.940   1.908  16.654  0.2738  2.7220 -2.4671
  665TIP3   OH223485   6.585   1.052  12.719 -0.6583 -0.1268  0.4150
  665TIP3    H123486   6.594   1.128  12.661  0.2242 -0.9050 -0.5171
  665TIP3    H223487   6.596   0.977  12.661 -0.3203 -0.9479  1.5108
  666TIP3   OH223488   0.800   2.043   5.020  0.2974  0.1303 -0.0333
  666TIP3    H123489   0.828   2.123   5.064 -1.0159  0.8127 -0.4029
  666TIP3    H223490   0.863   2.032   4.948 -0.6717  1.9787 -1.2358
  667TIP3   OH223491   5.632   0.027  13.342 -0.1495  1.2146 -0.5288
  667TIP3    H123492   5.676   0.084  13.404  0.3745  0.2179  0.0363
  667TIP3    H223493   5.629   0.078  13.261  1.8679  1.4008 -0.5342
  668TIP3   OH223494   3.183   4.551  16.640  0.2704  0.2334 -0.0777
  668TIP3    H123495   3.271   4.513  16.641  0.7632  1.3450  0.2273
  668TIP3    H223496   3.195   4.641  16.670 -1.0388  0.2667  0.4430
  669TIP3   OH223497   0.993   3.996   2.968  0.0579  0.2947 -0.0622
  669TIP3    H123498   0.930   3.930   2.938  0.2883  0.4568 -0.9478
  669TIP3    H223499   0.973   4.073   2.915  0.7577  0.4600 -0.0968
  670TIP3   OH223500   3.180   4.928  14.856 -0.4774 -0.0189  0.2484
  670TIP3    H123501   3.088   4.937  14.882 -0.7617 -1.3326 -0.2090
  670TIP3    H223502   3.183   4.845  14.808  1.1349 -0.4984  1.0988
  671TIP3   OH223503   1.842   3.261   2.819 -0.4640  0.7312 -0.5179
  671TIP3    H123504   1.902   3.222   2.755  0.6160 -0.1921  0.9910
  671TIP3    H223505   1.769   3.198   2.825  0.6678 -0.5055  0.9852
  672TIP3   OH223506   6.295   2.953   1.819 -0.0969 -0.6047  0.4535
  672TIP3    H123507   6.330   2.921   1.902 -1.6892 -2.7480  0.3883
  672TIP3    H223508   6.276   3.046   1.835  1.9586 -0.3162  1.6278
  673TIP3   OH223509   2.584   1.191  14.710 -0.3080 -0.0604 -0.9245
  673TIP3    H123510   2.603   1.151  14.795 -0.7050 -0.2852 -0.9390
  673TIP3    H223511   2.549   1.278  14.731 -3.8720 -1.3981 -0.6513
  674TIP3   OH223512   6.681   3.279   0.993  0.8373  0.6307  0.1535
  674TIP3    H123513   6.731   3.327   0.927  0.2694  0.1911 -0.6074
  674TIP3    H223514   6.607   3.336   1.013  1.2261  0.9473  0.7289
  675TIP3   OH223515   0.690   1.660  14.658  0.1978 -0.6514 -0.1078
  675TIP3    H123516   0.725   1.749  14.660  1.4453 -1.0732 -1.3337
  675TIP3    H223517   0.729   1.617  14.734 -0.6045 -0.1126  0.6303
  676TIP3   OH223518   3.445   5.932   5.856  0.2450 -0.8872 -0.1761
  676TIP3    H123519   3.381   6.001   5.877 -0.2374 -1.5974  0.8027
  676TIP3    H223520   3.530   5.975   5.866 -0.0310  0.2952 -2.2784
  677TIP3   OH223521   0.223   4.538   1.224  0.2976  0.1350 -0.0472
  677TIP3    H123522   0.260   4.566   1.140  0.7266 -0.9129 -0.2113
  677TIP3    H223523   0.189   4.619   1.263 -0.0833  0.5965 -1.3111
  678TIP3   OH223524   0.804   0.910   1.024 -0.6623  0.6472  0.8719
  678TIP3    H123525   0.886   0.953   1.045  0.0686  0.1794 -0.8366
  678TIP3    H223526   0.828   0.839   0.964 -2.1994 -0.0753  1.0505
  679TIP3   OH223527   4.798   6.439   0.133 -0.5548 -0.3693  0.6366
  679TIP3    H123528   4.822   6.522   0.092 -1.7532 -0.7912 -1.0900
  679TIP3    H223529   4.703   6.444   0.144 -0.4279 -0.8268  2.1934
  680TIP3   OH223530   2.029   6.021  15.657 -0.6245  0.3882 -0.1829
  680TIP3    H123531   2.032   6.047  15.749 -0.7247  1.1740 -0.3945
  680TIP3    H223532   1.975   6.088  15.615  0.7897  0.9845 -1.1117
  681TIP3   OH223533   3.129   5.849   2.065 -0.3843  0.5247 -0.1239
  681TIP3    H123534   3.088   5.772   2.105  0.9228  1.1926  2.8400
  681TIP3    H223535   3.217   5.819   2.040  0.4389  1.1493  1.8188
  682TIP3   OH223536   3.673   3.910   2.641 -0.3246  0.0743 -0.1558
  682TIP3    H123537   3.590   3.953   2.621 -0.5327  0.3364  1.1313
  682TIP3    H223538   3.648   3.821   2.665 -0.0866 -0.2396 -1.0622
  683TIP3   OH223539   3.275   2.632   1.786 -0.1692 -0.2671  0.1315
  683TIP3    H123540   3.239   2.557   1.832  1.8775 -1.7984 -0.5752
  683TIP3    H223541   3.361   2.647   1.827  0.6608 -0.1370 -1.5580
  684TIP3   OH223542   4.372   4.868  12.511  0.1872  0.5081 -0.0075
  684TIP3    H123543   4.458   4.909  12.513 -0.2206  1.5901 -2.1026
  684TIP3    H223544   4.331   4.894  12.594  1.4384  0.9345  0.4976
  685TIP3   OH223545   5.474   2.201  13.432 -0.3223  0.2477 -0.0326
  685TIP3    H123546   5.418   2.177  13.506 -0.9555 -1.8669 -1.1156
  685TIP3    H223547   5.547   2.248  13.471  0.1342 -2.0962  2.1518
  686TIP3   OH223548   6.693   5.538   4.155  0.2374 -0.4531 -0.2977
  686TIP3    H123549   6.785   5.530   4.179 -0.1251 -0.9248  1.0184
  686TIP3    H223550   6.676   5.632   4.154  0.9424 -0.3092 -1.4887
  687TIP3   OH223551   2.214   1.585  11.723  0.1991  0.3423  0.6532
  687TIP3    H123552   2.292   1.585  11.777  0.8357 -1.9982 -0.1445
  687TIP3    H223553   2.247   1.576  11.633 -0.9449 -0.5354  0.2951
  688TIP3   OH223554   5.475   6.526   5.412 -0.2115  0.3526  0.2313
  688TIP3    H123555   5.415   6.461   5.448 -2.5021  1.9619 -0.4210
  688TIP3    H223556   5.476   6.597   5.476  1.3454  0.2186  0.4001
  689TIP3   OH223557   5.697   6.296   3.925 -0.0232 -0.2549  0.2805
  689TIP3    H123558   5.643   6.366   3.962 -0.8190 -1.4090  1.3878
  689TIP3    H223559   5.639   6.248   3.867 -0.1164 -1.2719  1.1788
  690TIP3   OH223560   6.752   0.212  14.935 -0.4910  0.5364  0.2247
  690TIP3    H123561   6.714   0.256  14.859  1.3328  1.9916  0.0847
  690TIP3    H223562   6.739   0.274  15.007 -1.5506 -0.5204  0.9764
  691TIP3   OH223563   5.046   1.082  11.847  0.1892  0.2200 -0.1471
  691TIP3    H123564   4.963   1.126  11.835  0.1465  0.0589 -0.4695
  691TIP3    H223565   5.083   1.120  11.927 -1.5858 -1.8403  1.8275
  692TIP3   OH223566   3.630   6.302  16.206 -0.1277 -0.1243  0.3766
  692TIP3    H123567   3.596   6.391  16.206 -1.5434 -0.6428 -0.7366
  692TIP3    H223568   3.586   6.259  16.133  0.4360 -1.7717  0.9679
  693TIP3   OH223569   2.717   0.331  12.141  0.2664 -0.5868  0.3697
  693TIP3    H123570   2.670   0.381  12.076 -1.2719 -1.8739  0.4355
  693TIP3    H223571   2.801   0.309  12.099 -0.1815 -0.3280 -0.6860
  694TIP3   OH223572   0.911   5.329   0.469 -0.2797  0.2759  0.0484
  694TIP3    H123573   0.874   5.361   0.386  0.2847  0.4443 -0.1436
  694TIP3    H223574   0.908   5.405   0.527 -2.3590 -0.3071  0.7856
  695TIP3   OH223575   2.895   1.898   3.172  0.1327 -0.2985 -0.1448
  695TIP3    H123576   2.931   1.983   3.147 -0.9470  0.2672  0.1557
  695TIP3    H223577   2.922   1.839   3.102  0.4342  0.4081 -0.6386
  696TIP3   OH223578   4.050   1.831  12.821  0.1065  0.0381 -0.4463
  696TIP3    H123579   4.145   1.828  12.827  0.1179  0.8220 -0.0879
  696TIP3    H223580   4.022   1.743  12.844  0.6311  0.5132  2.5123
  697TIP3   OH223581   2.121   0.960  13.973 -0.3762 -0.1427 -0.1229
  697TIP3    H123582   2.041   0.907  13.968 -1.6011  1.5960  0.0214
  697TIP3    H223583   2.095   1.046  13.940  1.1438  0.8024  0.9749
  698TIP3   OH223584   6.609   4.537  16.693 -0.1381 -0.3447 -0.3111
  698TIP3    H123585   6.688   4.497  16.727 -0.1414  0.6444  0.9028
  698TIP3    H223586   6.545   4.466  16.691  0.1880 -0.6831  0.6857
  699TIP3   OH223587   5.867   6.610  13.903 -0.6160 -0.7383 -0.5880
  699TIP3    H123588   5.951   6.578  13.871 -1.2328 -2.0339 -0.9517
  699TIP3    H223589   5.890   6.664  13.980  0.5777 -0.5637 -1.0409
  700TIP3   OH223590   6.760   1.889  10.703  0.2136 -0.4391  0.1966
  700TIP3    H123591   6.762   1.808  10.653 -1.1424 -0.1358 -0.4102
  700TIP3    H223592   6.835   1.939  10.672 -0.6783 -0.2035 -1.6838
  701TIP3   OH223593   1.849   3.824  12.254  0.6100  0.6170  0.0470
  701TIP3    H123594   1.914   3.788  12.195 -0.7503 -2.2726  0.1386
  701TIP3    H223595   1.846   3.762  12.327 -1.4492  1.2374  0.5586
  702TIP3   OH223596   4.389   2.550  12.799  0.6128  0.3029  0.5048
  702TIP3    H123597   4.363   2.458  12.790 -0.1407  0.5538  0.0385
  702TIP3    H223598   4.448   2.550  12.873  0.5126 -0.5447  0.6027
  703TIP3   OH223599   2.146   1.653   2.713  0.1458  0.2821 -0.7276
  703TIP3    H123600   2.138   1.575   2.658 -1.0312 -2.1885  2.6108
  703TIP3    H223601   2.220   1.634   2.771  0.7431  2.3441 -0.7128
  704TIP3   OH223602   2.926   4.609   1.517  0.2089  0.4058 -0.5825
  704TIP3    H123603   2.913   4.530   1.569 -1.5036  2.2317  1.9917
  704TIP3    H223604   3.018   4.633   1.532 -0.1376  0.6579  1.3613
  705TIP3   OH223605   2.545   2.294   6.025  0.5395  0.0389 -0.2795
  705TIP3    H123606   2.543   2.226   6.092 -0.6753 -0.9400 -1.2875
  705TIP3    H223607   2.553   2.376   6.075  3.2072 -0.8387  0.9075
  706TIP3   OH223608   6.302   3.150   0.585 -0.9916  0.6880  0.0488
  706TIP3    H123609   6.353   3.079   0.624  1.7157  1.9062 -1.0440
  706TIP3    H223610   6.285   3.210   0.658 -2.6245 -0.6027  0.8112
  707TIP3   OH223611   5.536   1.984   1.126 -0.3940 -0.5782  0.0348
  707TIP3    H123612   5.478   2.044   1.172 -0.3800 -0.4650 -0.0944
  707TIP3    H223613   5.539   2.017   1.036 -1.5339 -1.5873 -0.4128
  708TIP3   OH223614   1.201   4.133   0.822  0.1257  0.6241 -0.8378
  708TIP3    H123615   1.265   4.068   0.852  1.2581  1.0912 -2.1130
  708TIP3    H223616   1.117   4.090   0.831  0.6691 -0.2593  0.2695
  709TIP3   OH223617   4.318   5.526  13.518 -0.3966 -0.2027 -0.4212
  709TIP3    H123618   4.313   5.569  13.604  1.5244  0.2551 -0.5018
  709TIP3    H223619   4.411   5.506  13.506 -0.8008 -1.3911 -1.8632
  710TIP3   OH223620   3.077   5.400   3.941  0.0177  0.0455 -0.3237
  710TIP3    H123621   3.095   5.315   3.980 -1.2780  0.2907  0.8871
  710TIP3    H223622   3.106   5.463   4.007 -4.0146  0.4641  1.3266
  711TIP3   OH223623   3.644   5.101   0.282 -0.3837  0.6329  0.1871
  711TIP3    H123624   3.699   5.052   0.343  1.0769  1.5974 -0.2854
  711TIP3    H223625   3.634   5.187   0.322 -1.7455  0.4132  0.3529
  712TIP3   OH223626   1.690   2.307   5.219 -0.2083 -0.9667  0.6825
  712TIP3    H123627   1.661   2.219   5.244 -1.4348 -0.4034  1.2870
  712TIP3    H223628   1.611   2.360   5.221  0.2637 -0.1221 -1.0211
  713TIP3   OH223629   4.872   3.518   2.017 -0.3636 -0.6276  0.3482
  713TIP3    H123630   4.890   3.612   2.015  2.1215 -1.0588 -0.2905
  713TIP3    H223631   4.790   3.508   1.969 -0.0764  1.0903 -0.5464
  714TIP3   OH223632   1.303   6.629   3.555  0.4792 -0.7829  0.1013
  714TIP3    H123633   1.265   6.571   3.622 -1.1618  0.1566  0.0281
  714TIP3    H223634   1.270   6.594   3.472  0.5484 -0.5289 -0.0332
  715TIP3   OH223635   6.415   5.527  11.575  0.0889 -0.0438  0.3254
  715TIP3    H123636   6.353   5.503  11.506  0.0047 -0.8890  0.6761
  715TIP3    H223637   6.495   5.479  11.553 -0.2121 -1.0178  1.2719
  716TIP3   OH223638   5.660   3.016  12.606 -0.2536  0.2894 -0.3886
  716TIP3    H123639   5.736   3.073  12.599  1.6764 -2.1437 -0.9375
  716TIP3    H223640   5.607   3.036  12.529  1.5616 -0.2133 -1.8228
  717TIP3   OH223641   1.694   0.119   3.208  0.2643 -0.4801  0.4070
  717TIP3    H123642   1.638   0.064   3.262  0.3320 -0.3408  0.6177
  717TIP3    H223643   1.643   0.199   3.195 -0.1418 -0.8695 -0.5039
  718TIP3   OH223644   6.545   5.825  14.084 -0.1694  0.4269 -0.2892
  718TIP3    H123645   6.530   5.793  13.996  0.5689  0.4385 -0.4294
  718TIP3    H223646   6.638   5.847  14.086 -0.6772  2.8761 -0.3134
  719TIP3   OH223647   6.097   2.909   1.216 -0.0372 -0.4572 -0.1502
  719TIP3    H123648   6.010   2.870   1.205  0.3953 -1.6540  0.4125
  719TIP3    H223649   6.100   2.981   1.154 -1.6671  0.0129  0.2812
  720TIP3   OH223650   6.359   6.597  15.633 -0.1351  0.2008  0.1394
  720TIP3    H123651   6.289   6.605  15.697 -0.5584  2.9795 -0.5333
  720TIP3    H223652   6.411   6.677  15.644  0.2634  0.3799 -2.3770
  721TIP3   OH223653   4.013   5.516  11.531  0.0081 -0.2805 -0.1828
  721TIP3    H123654   3.953   5.552  11.465  1.6683  1.2528 -0.9449
  721TIP3    H223655   4.036   5.429  11.497 -0.2342 -0.0657 -0.9164
  722TIP3   OH223656   0.601   0.250   5.847  0.1904 -0.0845  0.0402
  722TIP3    H123657   0.623   0.236   5.755 -0.3359  0.1765 -0.1272
  722TIP3    H223658   0.622   0.342   5.863  1.1290 -0.3524  0.4276
  723TIP3   OH223659   6.731   1.143   0.977 -0.2928  0.5085  0.5240
  723TIP3    H123660   6.718   1.067   1.033 -0.0092  0.2886  0.2955
  723TIP3    H223661   6.750   1.106   0.891  1.0624  0.8100  0.6640
  724TIP3   OH223662   3.232   3.105   3.685 -0.4170  0.3351  0.2834
  724TIP3    H123663   3.203   3.046   3.755 -0.9386  0.1655 -0.0674
  724TIP3    H223664   3.314   3.067   3.655 -0.5819 -0.0308  0.2845
  725TIP3   OH223665   1.732   6.215   3.653  0.2480 -0.1094  0.6481
  725TIP3    H123666   1.660   6.154   3.637  1.4602 -1.7356  1.1406
  725TIP3    H223667   1.690   6.294   3.687 -1.3744 -0.6479 -0.0198
  726TIP3   OH223668   6.818   1.594  10.342  0.2614 -0.1801 -0.4312
  726TIP3    H123669   6.852   1.668  10.292  0.8873  0.2089  0.5537
  726TIP3    H223670   6.861   1.518  10.304 -0.3547 -0.0488 -1.4258
  727TIP3   OH223671   3.126   4.600   0.630 -0.1093 -0.5831  0.4790
  727TIP3    H123672   3.075   4.576   0.552  0.0498 -1.5377  0.6549
  727TIP3    H223673   3.080   4.675   0.666 -0.9590 -0.9579  0.2063
  728TIP3   OH223674   2.465   2.900  16.265  0.1993  0.0284 -0.4622
  728TIP3    H123675   2.436   2.823  16.215 -0.9415 -0.5600  1.0246
  728TIP3    H223676   2.423   2.890  16.350  0.9298  1.7497  0.1378
  729TIP3   OH223677   5.932   0.368  12.201  0.2628  0.6990 -0.1269
  729TIP3    H123678   5.916   0.336  12.113 -0.2321 -0.2240  0.2815
  729TIP3    H223679   5.888   0.453  12.205  0.9600  1.1054 -1.0060
  730TIP3   OH223680   4.972   5.870   3.399 -0.1124 -0.2848  0.0383
  730TIP3    H123681   4.886   5.845   3.366 -0.1498 -0.7061  0.4544
  730TIP3    H223682   4.996   5.947   3.347 -1.5127  0.9274  1.0646
  731TIP3   OH223683   4.213   0.002   4.372  0.4598 -0.1461  0.1837
  731TIP3    H123684   4.288   0.062   4.374  0.5759 -0.2895  0.2029
  731TIP3    H223685   4.156   0.037   4.305 -0.8479  1.6226  2.0969
  732TIP3   OH223686   4.942   1.225  13.091  0.0128  0.0892  0.4475
  732TIP3    H123687   4.901   1.139  13.087 -1.6643  0.8406  0.4370
  732TIP3    H223688   4.874   1.285  13.060  1.0767  1.4392  0.6322
  733TIP3   OH223689   3.875   4.275   3.969  0.0258  0.5973 -0.5793
  733TIP3    H123690   3.905   4.232   3.889 -0.5677  0.6729 -0.8500
  733TIP3    H223691   3.847   4.362   3.940 -3.9800 -0.6598 -1.0956
  734TIP3   OH223692   3.160   4.585   1.999  0.4718 -0.2453 -0.2859
  734TIP3    H123693   3.174   4.674   2.030  0.6251  0.1206 -1.3650
  734TIP3    H223694   3.207   4.530   2.061 -0.3446  0.3429  0.9039
  735TIP3   OH223695   1.120   5.569  11.471  0.2246  0.0966 -0.3232
  735TIP3    H123696   1.165   5.527  11.397 -1.9672 -1.7858 -0.7002
  735TIP3    H223697   1.109   5.499  11.536 -1.5610  0.6071 -0.0088
  736TIP3   OH223698   6.196   2.758  16.620  0.0322  0.3601 -0.4101
  736TIP3    H123699   6.166   2.681  16.571 -0.8478  0.0030  0.6506
  736TIP3    H223700   6.122   2.781  16.676  0.8167  1.0852  0.3608
  737TIP3   OH223701   4.461   0.840   2.805  0.3709 -0.4935 -0.3307
  737TIP3    H123702   4.544   0.827   2.850  0.0859  0.5310  0.5376
  737TIP3    H223703   4.467   0.927   2.766 -0.5361 -0.1111  0.3326
  738TIP3   OH223704   5.387   5.577  17.096  0.3738 -0.1750  0.1936
  738TIP3    H123705   5.360   5.644  17.033 -0.4406 -0.8590 -0.2059
  738TIP3    H223706   5.308   5.525  17.111  1.1335 -1.4230  0.0126
  739TIP3   OH223707   5.403   4.411  14.532 -0.1978 -0.2139  0.1760
  739TIP3    H123708   5.454   4.403  14.613 -0.2874 -1.3679  0.1386
  739TIP3    H223709   5.404   4.323  14.494  1.4153  0.6628 -2.0483
  740TIP3   OH223710   5.138   6.653   6.533  0.1519 -0.4770 -0.6766
  740TIP3    H123711   5.094   6.738   6.538 -0.0462 -0.6075 -0.0167
  740TIP3    H223712   5.229   6.674   6.512 -0.0780 -0.1580 -1.3633
  741TIP3   OH223713   2.251   5.315  10.629  0.1640 -0.3592 -0.1426
  741TIP3    H123714   2.179   5.321  10.691 -0.0488  0.2510 -0.4393
  741TIP3    H223715   2.302   5.395  10.644  0.4895 -0.5335 -0.2940
  742TIP3   OH223716   0.630   4.992  15.034  0.2564  0.5332 -0.1907
  742TIP3    H123717   0.635   4.933  14.959  0.2344 -0.4648  0.5603
  742TIP3    H223718   0.540   4.983  15.065  0.8225 -0.7531  1.2264
  743TIP3   OH223719   1.528   1.943  13.255  0.1662 -0.3827  0.5131
  743TIP3    H123720   1.557   1.982  13.172 -0.8862 -0.1675  0.2193
  743TIP3    H223721   1.599   1.960  13.316  0.4153  0.6004 -0.0233
  744TIP3   OH223722   4.868   0.045  14.918  0.5440 -0.1009 -0.5002
  744TIP3    H123723   4.859   0.124  14.865 -0.3696  0.8669  1.0003
  744TIP3    H223724   4.781   0.005  14.916  0.8388 -0.7450 -0.7425
  745TIP3   OH223725   0.008   1.873  12.535 -0.4703  0.1918  0.2242
  745TIP3    H123726   0.061   1.862  12.614 -0.0697 -0.1408 -0.0905
  745TIP3    H223727  -0.033   1.959  12.546 -1.2135 -0.2676  1.2587
  746TIP3   OH223728   6.659   5.865  13.016  0.2878 -0.0298 -0.1992
  746TIP3    H123729   6.753   5.883  13.014  0.0303  1.3896 -1.6363
  746TIP3    H223730   6.619   5.948  12.990 -1.5569  0.4428  3.5306
  747TIP3   OH223731   6.218   4.646   0.220  0.0583 -0.2656 -0.1364
  747TIP3    H123732   6.225   4.732   0.261  0.7816 -0.1112 -0.5698
  747TIP3    H223733   6.192   4.664   0.130  1.3969 -0.4091 -0.5741
  748TIP3   OH223734   0.978   1.344   3.707 -0.8163  0.4321 -0.1675
  748TIP3    H123735   0.897   1.393   3.693 -1.3304 -1.1475 -4.1204
  748TIP3    H223736   0.948   1.256   3.732 -0.0428  0.8102  2.4329
  749TIP3   OH223737   4.603   0.633  11.508  0.2964  0.3412  0.0316
  749TIP3    H123738   4.631   0.609  11.419  0.1626 -0.6030  0.2319
  749TIP3    H223739   4.515   0.669  11.496 -0.0412 -0.5124 -0.1436
  750TIP3   OH223740   1.386   4.878  16.239 -0.1384 -0.5071  0.1394
  750TIP3    H123741   1.383   4.923  16.154 -2.5447 -0.3696  0.2292
  750TIP3    H223742   1.322   4.808  16.231  0.4273 -1.2119  1.4938
  751TIP3   OH223743   5.058   1.959  12.676 -0.1601 -0.0611 -0.0287
  751TIP3    H123744   5.039   1.994  12.589 -2.4485  0.6834  0.6957
  751TIP3    H223745   5.142   1.999  12.701  0.9434 -0.9004 -2.1376
  752TIP3   OH223746   2.436   2.558  16.957 -0.3492  0.1660 -0.5625
  752TIP3    H123747   2.353   2.583  16.918 -1.2235 -1.6811  0.0139
  752TIP3    H223748   2.493   2.633  16.942 -2.7028  2.3960  0.8979
  753TIP3   OH223749   1.999   4.688  14.387 -0.3166  0.1056 -0.4447
  753TIP3    H123750   1.963   4.601  14.366 -0.8641  0.4889 -1.1357
  753TIP3    H223751   1.951   4.748  14.330 -0.9910  1.0564  1.0546
  754TIP3   OH223752   2.103   4.038   1.583  0.2884 -0.1443 -0.0361
  754TIP3    H123753   2.169   3.970   1.591 -0.0683 -0.4441  0.4043
  754TIP3    H223754   2.147   4.109   1.536  0.3523 -1.0909 -1.4540
  755TIP3   OH223755   3.714   3.555   2.463 -0.1610 -0.0530  0.0440
  755TIP3    H123756   3.710   3.576   2.556 -0.0338 -2.7427  0.7620
  755TIP3    H223757   3.623   3.537   2.439 -0.0309 -0.7528  0.0488
  756TIP3   OH223758   0.403   0.220   3.240 -0.3476 -0.1266  0.5706
  756TIP3    H123759   0.402   0.184   3.329  0.2020  0.8702  0.9853
  756TIP3    H223760   0.495   0.238   3.222 -0.4535 -0.3294 -0.2181
  757TIP3   OH223761   4.019   4.262  14.170 -0.2453  0.4397 -0.0237
  757TIP3    H123762   4.051   4.251  14.260  1.1222  0.2100 -0.5069
  757TIP3    H223763   4.098   4.256  14.117 -1.1984 -0.9429 -1.3698
  758TIP3   OH223764   4.233   1.658   3.941  0.0212 -0.1737  0.7079
  758TIP3    H123765   4.328   1.664   3.946  0.1454 -0.0504 -1.0070
  758TIP3    H223766   4.201   1.744   3.967  0.0927 -1.1959  4.8832
  759TIP3   OH223767   5.994   3.879   0.731 -0.7804  0.8874 -0.0166
  759TIP3    H123768   6.030   3.958   0.691  0.3449  1.1625  1.4359
  759TIP3    H223769   5.929   3.848   0.668  1.4982  0.7557 -2.4971
  760TIP3   OH223770   2.753   5.895   6.049 -0.3926 -0.1818  0.6223
  760TIP3    H123771   2.683   5.877   5.987  2.4304 -0.2399 -2.8757
  760TIP3    H223772   2.734   5.983   6.083 -1.5542  0.2780 -1.1097
  761TIP3   OH223773   4.201   3.723   0.850 -0.0226 -0.6718  0.0878
  761TIP3    H123774   4.115   3.763   0.838  0.7981  0.8692 -1.0349
  761TIP3    H223775   4.213   3.669   0.772  0.3410 -0.2476 -0.1543
  762TIP3   OH223776   0.190   0.143   1.966  0.4930 -0.0453 -0.0679
  762TIP3    H123777   0.229   0.168   2.049  0.1719 -0.4953  0.2274
  762TIP3    H223778   0.263   0.142   1.904  0.7498  0.2029  0.2309
  763TIP3   OH223779   4.802   4.741   0.990 -0.1493  0.1718 -0.3361
  763TIP3    H123780   4.755   4.716   0.911 -0.3996 -0.9181  0.1254
  763TIP3    H223781   4.885   4.694   0.984 -0.0001  0.4120 -0.1539
  764TIP3   OH223782   6.479   1.149   2.799  0.0151  0.3889 -0.6343
  764TIP3    H123783   6.527   1.100   2.866  1.0816 -2.7867 -3.4415
  764TIP3    H223784   6.387   1.139   2.825  0.4332  0.1674  0.8932
  765TIP3   OH223785   1.671   2.809   1.834  0.2984 -0.5489 -0.3102
  765TIP3    H123786   1.589   2.850   1.865  0.4484  0.6332 -1.3808
  765TIP3    H223787   1.674   2.831   1.741  0.7432 -2.4935 -0.7817
  766TIP3   OH223788   3.177   3.928   1.262 -0.2471  0.1989  0.5255
  766TIP3    H123789   3.192   3.903   1.354 -0.1972  0.2322  0.5262
  766TIP3    H223790   3.103   3.988   1.265 -1.4956 -1.2485  0.3613
  767TIP3   OH223791   1.935   4.437  13.029  0.6888  0.3914  0.2564
  767TIP3    H123792   1.973   4.386  12.957  1.3041 -0.7878  1.3774
  767TIP3    H223793   1.968   4.526  13.015  2.9768 -0.3578  0.5257
  768TIP3   OH223794   4.676   6.762   0.294 -0.0333 -0.1792 -0.0768
  768TIP3    H123795   4.657   6.793   0.205 -0.2927  0.4920  0.2106
  768TIP3    H223796   4.766   6.791   0.310  0.0652 -0.4292 -0.1743
  769TIP3   OH223797   2.472   2.593  11.015 -0.1673 -0.0083 -0.7234
  769TIP3    H123798   2.560   2.581  11.049  0.0498 -1.5643 -1.7430
  769TIP3    H223799   2.423   2.632  11.087  0.5691 -2.0668  0.9805
  770TIP3   OH223800   2.569   5.774   3.232  0.2273  0.0029 -0.0137
  770TIP3    H123801   2.547   5.802   3.321  1.4225 -0.9735  0.6200
  770TIP3    H223802   2.497   5.807   3.178 -0.4793  0.6811  1.2977
  771TIP3   OH223803   5.880   0.761  16.153 -0.1308 -0.3724 -0.1389
  771TIP3    H123804   5.833   0.787  16.232  0.4052 -0.1107  0.1011
  771TIP3    H223805   5.883   0.666  16.157 -0.7630 -0.3987 -0.2307
  772TIP3   OH223806   4.506   2.345   3.176 -0.0935  0.3179  0.2942
  772TIP3    H123807   4.518   2.251   3.165  2.5762  0.7243 -1.0284
  772TIP3    H223808   4.591   2.377   3.207 -0.7527  2.3711  0.1626
  773TIP3   OH223809   5.913   4.485   1.409 -0.2846  0.0446 -0.6389
  773TIP3    H123810   5.833   4.440   1.381  1.3971 -2.8498 -1.2275
  773TIP3    H223811   5.981   4.418   1.405  2.0182  2.0973  0.8430
  774TIP3   OH223812   0.889   3.161   0.484 -0.3528  0.0960 -0.2228
  774TIP3    H123813   0.910   3.252   0.461 -0.8620  0.7172  1.6326
  774TIP3    H223814   0.970   3.127   0.522 -0.1713 -0.2483 -0.8901
  775TIP3   OH223815   5.007   4.968   2.360 -0.6469  0.0934 -0.2926
  775TIP3    H123816   4.924   4.947   2.318 -0.1033  0.4940 -1.6091
  775TIP3    H223817   4.984   4.984   2.452 -1.4655 -3.7282  0.3245
  776TIP3   OH223818   5.574   3.294   1.964 -0.0229  0.2280 -0.4641
  776TIP3    H123819   5.542   3.376   2.002 -0.9259 -0.6306  0.7007
  776TIP3    H223820   5.560   3.229   2.032 -1.4785 -1.3429 -2.1506
  777TIP3   OH223821   4.389   2.094  14.822  0.0773 -0.4869 -0.2348
  777TIP3    H123822   4.313   2.088  14.764 -0.4664  1.5123  0.2090
  777TIP3    H223823   4.381   2.180  14.864  1.3377 -1.1977  1.5828
  778TIP3   OH223824   0.399   3.640   5.569 -0.1495  0.3003  0.3021
  778TIP3    H123825   0.439   3.572   5.514  3.1854  1.5359  0.9377
  778TIP3    H223826   0.402   3.603   5.657  0.3246  0.6750  0.4486
  779TIP3   OH223827   3.939   3.741  12.672  0.4704 -0.0139  0.0846
  779TIP3    H123828   3.974   3.652  12.663  1.3336  0.1227  1.6325
  779TIP3    H223829   3.891   3.756  12.591 -3.2754 -3.3867  1.3150
  780TIP3   OH223830   4.729   5.698   3.628  0.4899  0.6127 -0.0855
  780TIP3    H123831   4.644   5.724   3.592  0.2184  0.3929  0.3914
  780TIP3    H223832   4.769   5.780   3.656 -0.6584  0.4903  2.0632
  781TIP3   OH223833   4.339   0.365  15.615 -0.3615  0.0449 -0.6582
  781TIP3    H123834   4.279   0.434  15.643  1.0071  0.5583  1.1222
  781TIP3    H223835   4.388   0.404  15.542  1.5263  1.6622  1.3334
  782TIP3   OH223836   4.641   3.889   1.517 -0.2412  0.0774  0.3574
  782TIP3    H123837   4.678   3.941   1.588 -0.1689  0.6709 -0.1121
  782TIP3    H223838   4.703   3.900   1.444  0.2744 -1.3983  0.5213
  783TIP3   OH223839   5.523   3.503  16.897  0.4123 -0.3591  0.2134
  783TIP3    H123840   5.614   3.475  16.902  0.7228  0.8390  2.3258
  783TIP3    H223841   5.518   3.553  16.816  2.6049  2.5683  1.7141
  784TIP3   OH223842   4.180   2.055  11.194  0.1083 -0.3324  0.7246
  784TIP3    H123843   4.199   2.101  11.276 -0.8157  2.2721 -0.4341
  784TIP3    H223844   4.088   2.028  11.203  0.1739 -0.5447  0.7618
  785TIP3   OH223845   2.971   6.459   0.090  0.3013 -0.0306 -0.4467
  785TIP3    H123846   2.889   6.508   0.099 -0.5411 -1.2660 -1.0379
  785TIP3    H223847   3.037   6.514   0.132 -0.4746  1.8835 -1.5969
  786TIP3   OH223848   5.346   2.106  13.647  0.3594  0.0660 -0.5272
  786TIP3    H123849   5.433   2.105  13.686  0.0002  0.4486  0.3283
  786TIP3    H223850   5.287   2.093  13.722 -0.2960 -0.6867 -1.1590
  787TIP3   OH223851   3.393   2.795  16.560 -0.1194  0.1244  0.0086
  787TIP3    H123852   3.375   2.857  16.490  1.7251  1.4947  0.6696
  787TIP3    H223853   3.391   2.709  16.516 -0.9698  0.7641 -1.2812
  788TIP3   OH223854   4.212   4.116  11.449 -0.2351 -0.0571 -0.2261
  788TIP3    H123855   4.202   4.153  11.536  1.1011 -0.4316  0.1121
  788TIP3    H223856   4.254   4.032  11.463  0.8657  0.2865 -1.2777
  789TIP3   OH223857   4.422   1.063  13.349  0.4627 -0.1714  0.6095
  789TIP3    H123858   4.356   1.014  13.399  0.2408  0.5408  1.0187
  789TIP3    H223859   4.501   1.057  13.402  0.2630  0.4659  0.9922
  790TIP3   OH223860   5.448   4.775  12.627 -0.6124 -0.2444  0.3621
  790TIP3    H123861   5.535   4.748  12.598 -1.5567 -2.7908 -0.3432
  790TIP3    H223862   5.404   4.693  12.651 -2.4953  1.0638  1.6739
  791TIP3   OH223863   3.054   5.006   3.396  0.0571  0.5396 -0.2832
  791TIP3    H123864   2.998   4.945   3.349  1.3977  0.6901 -2.2032
  791TIP3    H223865   3.020   5.007   3.486 -0.8156 -1.9827 -0.5159
  792TIP3   OH223866   3.603   5.575   2.946  0.0033 -0.4352 -0.2576
  792TIP3    H123867   3.613   5.546   3.037 -1.5029  1.2367  0.5012
  792TIP3    H223868   3.510   5.562   2.927 -0.2161  1.5179 -0.6956
  793TIP3   OH223869   6.631   1.273   2.618 -0.2871 -0.0527 -0.3526
  793TIP3    H123870   6.621   1.214   2.543  2.4026 -0.1384 -0.7415
  793TIP3    H223871   6.602   1.222   2.693 -1.0562 -0.7070 -1.0770
  794TIP3   OH223872   4.894   0.899  11.679 -0.4235 -0.0131 -0.1281
  794TIP3    H123873   4.859   0.973  11.630 -0.0007  0.6803  0.6029
  794TIP3    H223874   4.953   0.938  11.744  2.6593 -1.1701 -1.9979
  795TIP3   OH223875   4.750   2.577   2.080  0.2434 -0.4634 -0.0953
  795TIP3    H123876   4.683   2.536   2.024 -0.3847  1.4415 -0.8108
  795TIP3    H223877   4.716   2.566   2.169 -0.0581 -1.1874 -0.2841
  796TIP3   OH223878   1.774   3.467  12.199  0.6372 -0.6774 -0.0295
  796TIP3    H123879   1.708   3.535  12.207 -0.8859 -2.0451 -0.4844
  796TIP3    H223880   1.822   3.469  12.282  0.0570  0.3602  0.2851
  797TIP3   OH223881   5.216   2.631  16.860 -0.1887  0.4594  0.2014
  797TIP3    H123882   5.238   2.637  16.952  1.3722 -0.8509 -0.0331
  797TIP3    H223883   5.187   2.719  16.836  0.1763  1.0295  1.7428
  798TIP3   OH223884   3.935   2.421   0.131  0.8060 -0.0238 -0.3254
  798TIP3    H123885   3.861   2.426   0.191  1.2618  2.4241  0.1421
  798TIP3    H223886   3.899   2.442   0.046  0.2637 -2.9658 -0.9365
  799TIP3   OH223887   3.313   5.093   3.407  0.5332 -1.0010  0.0424
  799TIP3    H123888   3.325   5.130   3.494  0.0272  0.3019 -0.4106
  799TIP3    H223889   3.230   5.046   3.412  0.2365 -0.4788  0.1352
  800TIP3   OH223890   0.418   5.402  11.988  0.5307  0.4182  0.0274
  800TIP3    H123891   0.414   5.391  11.893  2.4193  0.2237 -0.0543
  800TIP3    H223892   0.364   5.479  12.006  0.3891  0.6226 -1.2277
  801TIP3   OH223893   3.586   4.490  15.839 -0.1281 -0.0419  0.3495
  801TIP3    H123894   3.653   4.523  15.899 -1.7058 -0.2270  2.3485
  801TIP3    H223895   3.507   4.539  15.864 -1.0388 -0.7572 -1.0279
  802TIP3   OH223896   2.601   4.963  14.149 -0.4210  0.2839 -0.4190
  802TIP3    H123897   2.558   5.022  14.211 -0.4309 -1.3710  1.2439
  802TIP3    H223898   2.542   4.959  14.074 -0.5099  2.1808 -0.4971
  803TIP3   OH223899   5.276   2.578   1.528  0.0529  0.7550  0.2492
  803TIP3    H123900   5.365   2.601   1.501  0.2361 -0.4669 -0.2536
  803TIP3    H223901   5.222   2.650   1.495  0.3744 -0.2847 -2.8267
  804TIP3   OH223902   2.526   1.564   5.309 -0.0079  0.5062  0.2205
  804TIP3    H123903   2.491   1.488   5.355  0.6753  1.6018  2.7176
  804TIP3    H223904   2.450   1.605   5.268 -0.5536 -0.8467 -0.1804
  805TIP3   OH223905   5.412   5.962   4.910 -0.3706  0.1987 -0.1268
  805TIP3    H123906   5.369   5.915   4.982  1.5059  0.0040  0.9335
  805TIP3    H223907   5.465   6.030   4.953  1.2577 -0.2969 -1.2290
  806TIP3   OH223908   3.503   2.468  10.888  0.8754  0.3171  0.3566
  806TIP3    H123909   3.576   2.530  10.891  1.0292  0.1089  1.0587
  806TIP3    H223910   3.426   2.523  10.879  1.1826  0.4905 -1.9267
  807TIP3   OH223911   1.190   1.255   3.853 -0.1424  0.3022  0.1856
  807TIP3    H123912   1.126   1.288   3.791  0.6364  2.7351  0.5783
  807TIP3    H223913   1.155   1.278   3.939  0.0401 -0.6899  0.5423
  808TIP3   OH223914   6.700   2.902  14.398 -0.4242 -0.5097 -0.5594
  808TIP3    H123915   6.677   2.846  14.472  3.2616  0.4998  1.6096
  808TIP3    H223916   6.632   2.969  14.396  1.2028  1.8474  4.7818
  809TIP3   OH223917   5.094   0.560   0.815  0.0461  0.4652 -0.0914
  809TIP3    H123918   5.067   0.630   0.874  1.7495  0.9576  0.1828
  809TIP3    H223919   5.020   0.500   0.813 -2.4390  3.2817 -2.0666
  810TIP3   OH223920   5.154   0.061   4.765  0.5718 -0.0104  0.0242
  810TIP3    H123921   5.129   0.088   4.853  0.5937  1.0981 -0.2872
  810TIP3    H223922   5.140  -0.033   4.763  1.2719 -0.1720  1.4475
  811TIP3   OH223923   1.880   2.273   5.421 -0.1414 -0.3723 -0.3714
  811TIP3    H123924   1.806   2.263   5.481  1.0124  0.1831  1.2269
  811TIP3    H223925   1.840   2.290   5.336 -1.8619 -1.7559  0.1024
  812TIP3   OH223926   5.399   0.716  13.948  0.3359 -0.3968 -0.6381
  812TIP3    H123927   5.476   0.770  13.967  0.6600 -1.2003  0.4464
  812TIP3    H223928   5.346   0.769  13.889  1.4564  0.3991 -0.9645
  813TIP3   OH223929   1.855   0.032   2.392 -0.1725  0.2639 -0.2943
  813TIP3    H123930   1.903   0.011   2.472 -1.3949  1.5739  0.8439
  813TIP3    H223931   1.853   0.128   2.390 -1.4980  0.2401 -1.0725
  814TIP3   OH223932   5.027   5.144  12.888  0.6787  0.2699  0.5153
  814TIP3    H123933   4.939   5.106  12.894  1.9493 -2.8615  1.5592
  814TIP3    H223934   5.073   5.089  12.824  1.6522  2.4763 -0.8007
  815TIP3   OH223935   0.129   4.545   5.919 -0.5829 -0.2100 -0.1989
  815TIP3    H123936   0.090   4.458   5.916 -1.3164  0.0660  0.7887
  815TIP3    H223937   0.207   4.534   5.973 -0.1434 -0.4360 -0.8630
  816TIP3   OH223938   1.485   2.347  13.043 -0.3615 -0.0654  0.3379
  816TIP3    H123939   1.448   2.263  13.071 -1.5424  0.4635  0.4122
  816TIP3    H223940   1.472   2.406  13.117 -0.4348  0.4405 -0.0706
  817TIP3   OH223941   5.047   4.642   0.931  0.2429  0.0374 -0.4089
  817TIP3    H123942   5.100   4.715   0.962  0.3790  1.3419 -3.3102
  817TIP3    H223943   5.089   4.564   0.967  0.5854  1.2835  2.1038
  818TIP3   OH223944   6.042   5.832   2.573  0.1463 -0.5638  0.2849
  818TIP3    H123945   5.964   5.822   2.518  2.4699 -1.5205 -3.1834
  818TIP3    H223946   6.083   5.746   2.571  1.3837 -0.0495  1.9361
  819TIP3   OH223947   6.379   2.727  16.170  0.3212  0.1195  0.0362
  819TIP3    H123948   6.308   2.780  16.135  1.7006  1.8713 -0.2516
  819TIP3    H223949   6.439   2.790  16.210  1.4114 -1.3485  0.8373
  820TIP3   OH223950   4.801   6.821   4.932 -0.0656 -0.3374 -0.2008
  820TIP3    H123951   4.892   6.845   4.952 -0.4883  2.4812 -1.1618
  820TIP3    H223952   4.755   6.905   4.928 -2.0674 -1.4333 -2.8255
  821TIP3   OH223953   4.337   4.546  13.748 -0.3957  1.1629 -0.0720
  821TIP3    H123954   4.399   4.503  13.807 -1.4637 -0.7016 -0.2015
  821TIP3    H223955   4.255   4.549  13.798 -1.0589  0.4579 -1.0691
  822TIP3   OH223956   6.686   3.656   5.600 -0.1099  0.4553 -0.0284
  822TIP3    H123957   6.758   3.706   5.640 -0.1301  0.1933  0.3379
  822TIP3    H223958   6.724   3.570   5.582  0.0176  0.6941 -0.9539
  823TIP3   OH223959   5.566   1.127   3.577 -0.3520 -0.0483  0.5581
  823TIP3    H123960   5.532   1.065   3.512 -0.4753 -2.3236  2.6179
  823TIP3    H223961   5.511   1.113   3.654  1.2614  0.7877  1.9177
  824TIP3   OH223962   3.824   1.268   3.002 -0.4564  0.0867  0.0799
  824TIP3    H123963   3.820   1.273   3.097 -2.5682 -2.4062  0.2542
  824TIP3    H223964   3.916   1.250   2.982  0.0052  0.6362  1.6402
  825TIP3   OH223965   3.507   2.220   4.114 -0.6781 -0.3065 -0.7223
  825TIP3    H123966   3.492   2.152   4.180  0.3022  1.6727  1.6983
  825TIP3    H223967   3.599   2.210   4.090 -1.0639 -1.1081 -1.9931
  826TIP3   OH223968   6.818   6.531  12.359 -0.1895  0.1866 -0.2651
  826TIP3    H123969   6.774   6.607  12.322 -0.5081 -0.4355 -1.1946
  826TIP3    H223970   6.897   6.521  12.306  0.1826  0.2548  0.2710
  827TIP3   OH223971   4.001   5.782  10.691  0.2538  0.2741  0.4763
  827TIP3    H123972   3.959   5.857  10.732 -2.6778  0.0805 -1.8750
  827TIP3    H223973   3.932   5.717  10.682  1.7113 -1.1606 -1.1708
  828TIP3   OH223974   4.369   2.597  16.477 -0.6407 -0.1239  0.0509
  828TIP3    H123975   4.325   2.532  16.533  0.9690 -1.8761 -0.5899
  828TIP3    H223976   4.358   2.563  16.389  0.8135  0.0950 -0.2389
  829TIP3   OH223977   3.152   6.604   2.213  0.4578 -0.0757  0.3594
  829TIP3    H123978   3.151   6.698   2.194  0.5645 -0.2406 -0.5106
  829TIP3    H223979   3.124   6.563   2.131  0.4637 -0.8045  0.7193
  830TIP3   OH223980   5.369   5.925  13.368  0.1872 -0.3276 -0.0175
  830TIP3    H123981   5.421   5.894  13.294 -0.5901 -1.5559 -0.0676
  830TIP3    H223982   5.279   5.904  13.345 -0.1329 -0.1432  1.0064
  831TIP3   OH223983   6.030   0.333  10.843 -0.3099 -0.1720 -0.0589
  831TIP3    H123984   6.002   0.246  10.815 -0.7393  0.0447 -0.3009
  831TIP3    H223985   6.069   0.372  10.765  2.9212 -1.3476  0.7898
  832TIP3   OH223986   5.760   5.029  15.648 -0.3604 -0.2348  0.4009
  832TIP3    H123987   5.740   4.936  15.646  2.0653 -0.7944 -0.4229
  832TIP3    H223988   5.789   5.046  15.738 -1.7409 -0.0006  0.8354
  833TIP3   OH223989   2.227   3.923  10.909 -0.6723  0.4543 -0.1288
  833TIP3    H123990   2.210   4.004  10.860 -1.0277 -0.5881 -1.8223
  833TIP3    H223991   2.252   3.952  10.996 -0.5381  2.3987 -0.7731
  834TIP3   OH223992   5.898   3.783   1.123 -0.1954 -0.1969  0.1616
  834TIP3    H123993   5.866   3.730   1.196  2.2272 -2.1192 -0.0086
  834TIP3    H223994   5.841   3.761   1.050 -1.0149 -0.2977  0.8176
  835TIP3   OH223995   3.997   1.285  12.924 -0.4351  0.0749  0.3491
  835TIP3    H123996   4.086   1.276  12.957 -0.1293  0.6260 -0.3022
  835TIP3    H223997   3.942   1.251  12.994  0.2204  0.8783  1.2777
  836TIP3   OH223998   5.146   2.793   3.953  0.1479 -0.2107  0.2498
  836TIP3    H123999   5.076   2.845   3.913 -2.7137 -2.6027  1.7990
  836TIP3    H224000   5.193   2.755   3.879 -1.3011  0.0609 -0.8516
  837TIP3   OH224001   5.154   5.688  15.887 -0.6838 -0.3736  0.2099
  837TIP3    H124002   5.196   5.769  15.917  1.3053 -0.3012 -2.3808
  837TIP3    H224003   5.102   5.714  15.811 -0.0275 -1.4825 -0.6574
  838TIP3   OH224004   6.359   6.414   1.941  0.0845  0.4469  0.1443
  838TIP3    H124005   6.277   6.459   1.962 -0.3247 -0.5795  0.8632
  838TIP3    H224006   6.350   6.390   1.849 -1.1404 -1.0246  0.6058
  839TIP3   OH224007   3.945   1.362   5.480  0.0428  0.3244  0.5069
  839TIP3    H124008   4.040   1.375   5.480  0.1471 -0.0387  2.6908
  839TIP3    H224009   3.922   1.352   5.572 -2.1968  0.8493  0.0778
  840TIP3   OH224010   3.169   2.881   3.537  0.2066 -0.1021 -0.0008
  840TIP3    H124011   3.259   2.855   3.557  1.6622  2.4733 -2.3477
  840TIP3    H224012   3.157   2.963   3.585 -1.2335 -0.8042  0.9011
  841TIP3   OH224013   6.195   3.256   3.973 -0.3188 -0.3976  0.2175
  841TIP3    H124014   6.101   3.243   3.956 -0.3195 -1.7756  1.1376
  841TIP3    H224015   6.203   3.246   4.068  0.7848 -0.4671  0.1207
  842TIP3   OH224016   1.776   1.497   0.276 -0.7915  0.0992 -0.2406
  842TIP3    H124017   1.810   1.461   0.194  0.7589  0.9457 -0.0205
  842TIP3    H224018   1.681   1.491   0.268 -0.6364 -1.2265 -1.4451
  843TIP3   OH224019   5.061   1.983   0.956  0.2321  0.6936 -0.1075
  843TIP3    H124020   5.017   1.922   1.015  1.9856  0.4693  1.0494
  843TIP3    H224021   5.131   1.932   0.915  1.1460  1.6534  0.1776
  844TIP3   OH224022   5.171   6.369  15.535 -0.2075 -0.3371  0.2052
  844TIP3    H124023   5.109   6.298  15.515  0.3512 -0.5603 -0.8118
  844TIP3    H224024   5.118   6.448  15.537 -0.5491 -0.5377 -0.5925
  845TIP3   OH224025   2.356   4.450  14.261 -0.1246  0.2077 -0.4126
  845TIP3    H124026   2.362   4.540  14.291  1.2187  1.2280 -3.3705
  845TIP3    H224027   2.442   4.413  14.279 -0.0529  0.1158 -0.9433
  846TIP3   OH224028   3.664   2.958  14.578  0.3201 -0.5306  0.2614
  846TIP3    H124029   3.598   2.941  14.510  0.3620 -1.9741  0.5465
  846TIP3    H224030   3.619   3.016  14.640 -0.8262 -1.7665  0.6267
  847TIP3   OH224031   0.973   1.429  10.934 -0.0676 -0.1858  0.3111
  847TIP3    H124032   1.021   1.356  10.895 -1.1598 -1.5420  1.3760
  847TIP3    H224033   0.899   1.444  10.874 -1.0345 -1.4231  1.1362
  848TIP3   OH224034   0.178   3.173  17.060  0.6348 -0.3009  0.2810
  848TIP3    H124035   0.202   3.244  17.119  0.2192 -1.3552  1.7842
  848TIP3    H224036   0.084   3.187  17.044  0.5380 -0.5496  0.6308
  849TIP3   OH224037   6.503   5.609   2.033 -0.5123  0.0990 -0.1257
  849TIP3    H124038   6.495   5.566   2.118  1.8068  0.0365  0.1070
  849TIP3    H224039   6.497   5.537   1.969  0.6680 -0.2546  0.1425
  850TIP3   OH224040   3.381   4.481   0.176  0.0220  0.2558  0.3712
  850TIP3    H124041   3.381   4.492   0.081  1.3041  0.7182  0.4015
  850TIP3    H224042   3.405   4.389   0.190 -0.5960  0.0725  0.2519
  851TIP3   OH224043   0.492   5.215  16.414 -0.6581  0.0702 -0.0613
  851TIP3    H124044   0.400   5.189  16.421 -0.3730 -1.0990 -0.4451
  851TIP3    H224045   0.521   5.225  16.504 -0.7769 -1.0068  0.1133
  852TIP3   OH224046   0.899   1.479   2.924 -0.0458 -0.0130 -0.4397
  852TIP3    H124047   0.868   1.570   2.927 -0.7645 -0.2459 -0.7048
  852TIP3    H224048   0.882   1.452   2.834 -0.6882 -0.7123 -0.1127
  853TIP3   OH224049   4.069   2.202   1.126  0.0492  0.5015 -0.3339
  853TIP3    H124050   3.994   2.147   1.145 -1.3013  1.1911 -3.1754
  853TIP3    H224051   4.140   2.141   1.107 -1.3711 -0.4159 -3.2754
  854TIP3   OH224052   0.397   2.552  15.820 -1.0828  0.1692  0.1855
  854TIP3    H124053   0.429   2.627  15.768 -1.8714  0.2233 -0.2321
  854TIP3    H224054   0.378   2.485  15.755 -0.6485 -0.3072  0.5390
  855TIP3   OH224055   5.255   1.019  15.538  0.0995  0.1441 -0.1901
  855TIP3    H124056   5.249   0.923  15.536  0.7162  0.1069 -0.4924
  855TIP3    H224057   5.266   1.044  15.446 -1.2471  0.5964 -0.2451
  856TIP3   OH224058   6.475   0.135   6.444 -0.0301  0.9392  1.0768
  856TIP3    H124059   6.514   0.164   6.362 -0.9149  0.1422  0.3528
  856TIP3    H224060   6.390   0.179   6.447  0.2469  1.4414  1.8781
  857TIP3   OH224061   2.155   2.248  13.858  0.8653 -0.5224 -0.3035
  857TIP3    H124062   2.068   2.223  13.887  1.1398 -0.4189  0.6429
  857TIP3    H224063   2.183   2.177  13.800  0.3245 -0.7621 -0.2713
  858TIP3   OH224064   1.840   2.519   3.906  0.3078 -0.1905 -0.4882
  858TIP3    H124065   1.871   2.429   3.918  0.0302 -0.6071 -2.5064
  858TIP3    H224066   1.745   2.513   3.918  0.4227  0.1015  0.6511
  859TIP3   OH224067   2.636   4.941  17.019 -0.1719 -0.2193  0.2351
  859TIP3    H124068   2.706   4.880  16.996 -0.8537 -1.7729  2.0578
  859TIP3    H224069   2.642   5.010  16.952  1.3148 -1.6963 -1.2615
  860TIP3   OH224070   1.977   0.428   1.842  0.8166 -0.0939 -0.3070
  860TIP3    H124071   2.004   0.416   1.751  1.4344  1.0853 -0.2929
  860TIP3    H224072   1.935   0.345   1.866  0.9112 -0.5194 -1.5669
  861TIP3   OH224073   1.030   5.792  11.659 -0.0273  0.3132  0.0444
  861TIP3    H124074   1.072   5.713  11.694  1.4315  0.5751 -0.9741
  861TIP3    H224075   1.085   5.864  11.691 -1.7481  1.0140  1.5492
  862TIP3   OH224076   4.927   6.026  13.425  0.1688  0.2158 -0.4689
  862TIP3    H124077   4.848   6.011  13.477  0.6213  0.8623  0.4319
  862TIP3    H224078   4.895   6.061  13.342 -0.6252 -1.6388 -0.9993
  863TIP3   OH224079   6.017   4.516  15.896 -0.3233 -0.0982  0.2688
  863TIP3    H124080   5.991   4.531  15.805 -0.6637  0.3939  0.4456
  863TIP3    H224081   6.113   4.508  15.892 -0.1245  1.8226  0.0937
  864TIP3   OH224082   5.069   0.134   2.119  0.1383 -0.4232 -0.1662
  864TIP3    H124083   5.006   0.104   2.185  0.4525  0.3705  0.5043
  864TIP3    H224084   5.142   0.072   2.126 -0.6512 -1.5090 -1.1299
  865TIP3   OH224085   0.837   2.774   2.514 -0.4761  0.6375 -0.1001
  865TIP3    H124086   0.747   2.806   2.517 -0.4746  0.5998  0.5621
  865TIP3    H224087   0.850   2.732   2.599  0.6572  1.9700  0.4127
  866TIP3   OH224088   4.886   5.429  13.760  0.1496  0.0009  0.4230
  866TIP3    H124089   4.847   5.348  13.728 -0.3052  0.4796 -0.2492
  866TIP3    H224090   4.908   5.478  13.681 -0.1825  0.8176  0.8257
  867TIP3   OH224091   4.164   6.805   5.364  0.1237  0.1700  0.3012
  867TIP3    H124092   4.121   6.844   5.289 -1.8522 -2.6278 -0.1979
  867TIP3    H224093   4.131   6.854   5.439  0.9955  2.0562 -0.4837
  868TIP3   OH224094   5.788   4.863  10.706 -0.2093 -0.1684  0.2371
  868TIP3    H124095   5.738   4.873  10.625 -1.4308  0.9479  1.0830
  868TIP3    H224096   5.865   4.812  10.681  0.5121  1.8662 -2.0662
  869TIP3   OH224097   1.046   0.766   6.570  0.1945  0.3167 -0.2373
  869TIP3    H124098   1.055   0.852   6.611 -1.6192  0.9459 -1.0694
  869TIP3    H224099   1.136   0.738   6.552  0.8366  1.7696  0.5552
  870TIP3   OH224100   6.221   6.193  16.870  0.0300  0.1644 -0.3513
  870TIP3    H124101   6.150   6.140  16.834  0.0624  1.3566 -2.3511
  870TIP3    H224102   6.300   6.154  16.835  0.4072 -1.0166  1.6830
  871TIP3   OH224103   4.715   2.617   2.686 -0.0898  0.4913 -0.0802
  871TIP3    H124104   4.732   2.535   2.732  0.5453 -0.3161 -1.6871
  871TIP3    H224105   4.740   2.685   2.748 -2.2799 -0.4318  1.9695
  872TIP3   OH224106   0.061   6.076   1.595 -0.4587 -0.0304  0.8831
  872TIP3    H124107   0.072   5.986   1.627  1.3598 -0.1405  0.0386
  872TIP3    H224108  -0.033   6.093   1.606 -1.3170 -2.8088 -0.9025
  873TIP3   OH224109   6.229   0.512   0.585  0.0309 -0.4658 -0.4337
  873TIP3    H124110   6.173   0.512   0.507 -0.8777 -1.6253  0.1863
  873TIP3    H224111   6.307   0.463   0.558  0.9270  1.3923 -1.3852
  874TIP3   OH224112   2.976   5.665  11.661 -0.6127 -0.3903 -0.5771
  874TIP3    H124113   2.947   5.714  11.738  0.5274 -1.2086  0.3973
  874TIP3    H224114   2.895   5.638  11.619 -1.4405 -3.2589  2.4776
  875TIP3   OH224115   0.612   6.632   1.255  0.4121  0.1265  0.4715
  875TIP3    H124116   0.566   6.587   1.327  1.4555 -1.3285  0.2472
  875TIP3    H224117   0.590   6.582   1.177  2.6828 -0.8957  0.4118
  876TIP3   OH224118   2.297   1.619   1.375  0.1331 -0.4778 -0.0482
  876TIP3    H124119   2.293   1.628   1.280 -2.2214 -2.7505 -0.2798
  876TIP3    H224120   2.269   1.704   1.409 -0.3765 -0.0753 -1.4045
  877TIP3   OH224121   1.431   3.741  16.157  0.2058 -0.2384  0.0997
  877TIP3    H124122   1.486   3.818  16.139 -1.5762  1.3150  0.9524
  877TIP3    H224123   1.468   3.672  16.102  2.1466  1.0854 -0.3789
  878TIP3   OH224124   2.224   0.469   0.564  0.3158 -0.3272  0.1171
  878TIP3    H124125   2.282   0.496   0.635  1.7609  0.2229 -1.2011
  878TIP3    H224126   2.178   0.549   0.538 -0.1662 -0.5128  0.3920
  879TIP3   OH224127   6.465   1.583   4.419  0.1771  0.0532 -0.3856
  879TIP3    H124128   6.536   1.609   4.478  2.1184 -0.7886 -2.2384
  879TIP3    H224129   6.449   1.660   4.365  2.0747 -0.7000 -2.1642
  880TIP3   OH224130   1.478   2.142   0.263 -0.0638 -0.2067  0.5768
  880TIP3    H124131   1.494   2.153   0.356  1.8294  0.9910  0.1595
  880TIP3    H224132   1.459   2.230   0.231 -1.4025 -0.6997 -0.0825
  881TIP3   OH224133   6.210   6.457  16.296  0.4581 -0.2165  0.3342
  881TIP3    H124134   6.234   6.367  16.275  0.4499  0.0365 -0.8368
  881TIP3    H224135   6.274   6.511  16.249 -0.6383  0.4052 -0.5060
  882TIP3   OH224136   0.625   5.645  13.372 -0.0128  0.2585 -0.3337
  882TIP3    H124137   0.652   5.737  13.377  1.5719 -0.1344 -1.0389
  882TIP3    H224138   0.693   5.597  13.418 -1.1645 -0.5349  0.5967
  883TIP3   OH224139   2.697   0.832  15.119 -0.4145  0.3680  0.3296
  883TIP3    H124140   2.756   0.885  15.172  1.4195 -1.1579 -0.0584
  883TIP3    H224141   2.745   0.817  15.038  0.8185 -4.5577  1.6096
  884TIP3   OH224142   2.607   0.115  16.217  0.1520 -0.3867  0.6041
  884TIP3    H124143   2.533   0.174  16.202 -0.4126 -1.1758  0.2262
  884TIP3    H224144   2.585   0.036  16.168  0.9431 -0.8816  1.0259
  885TIP3   OH224145   3.350   2.424   5.263 -0.6820  0.3023 -0.1680
  885TIP3    H124146   3.285   2.362   5.233 -1.0059  1.5723 -2.3476
  885TIP3    H224147   3.353   2.491   5.194  3.7578 -0.2731 -0.8928
  886TIP3   OH224148   4.369   2.031   6.483  0.0764  0.3450  0.0120
  886TIP3    H124149   4.329   1.953   6.447  0.7790 -0.2068  0.3956
  886TIP3    H224150   4.300   2.097   6.481 -0.5302 -0.2905 -0.2903
  887TIP3   OH224151   2.482   4.011  14.986  0.1985 -0.0165  0.5664
  887TIP3    H124152   2.576   4.024  14.992  0.3552  1.7208 -3.3049
  887TIP3    H224153   2.472   3.923  14.949  0.2689 -0.1210  0.7899
  888TIP3   OH224154   1.129   6.673  11.636  0.2895 -0.6493 -0.2278
  888TIP3    H124155   1.183   6.727  11.577  0.4608  1.3829  1.6439
  888TIP3    H224156   1.104   6.597  11.584  2.1074  0.0473 -2.2485
  889TIP3   OH224157   5.169   4.950  12.709  0.0288 -0.2807 -0.2598
  889TIP3    H124158   5.243   4.973  12.765  1.2032 -2.8810 -0.5988
  889TIP3    H224159   5.167   5.019  12.642  1.9731  0.0067 -0.0831
  890TIP3   OH224160   1.515   4.727  13.818 -0.4211  0.6645 -0.1143
  890TIP3    H124161   1.484   4.678  13.741  0.5967 -1.8246  0.9617
  890TIP3    H224162   1.506   4.665  13.891  1.6824  1.8147  1.2130
  891TIP3   OH224163   6.607   1.129   3.332 -0.5118  0.0766 -0.0083
  891TIP3    H124164   6.684   1.181   3.355 -1.6012  1.1575  1.4167
  891TIP3    H224165   6.640   1.041   3.319  0.9117  0.4309  0.9942
  892TIP3   OH224166   4.152   4.497  13.475  0.4082  0.0032 -0.2401
  892TIP3    H124167   4.233   4.474  13.520  0.8192  1.9087  0.0831
  892TIP3    H224168   4.083   4.454  13.525  1.2151 -1.9006 -0.6977
  893TIP3   OH224169   5.473   0.591  11.349 -0.9245  0.2256 -0.4582
  893TIP3    H124170   5.492   0.589  11.442  1.3760  1.0767 -0.8477
  893TIP3    H224171   5.474   0.683  11.325  0.9613 -0.0636 -1.7199
  894TIP3   OH224172   0.634   4.730  13.547 -0.1949 -0.0808  0.7156
  894TIP3    H124173   0.618   4.744  13.454  2.9972 -0.5247 -0.0062
  894TIP3    H224174   0.577   4.657  13.571 -0.9088 -0.0915 -0.9076
  895TIP3   OH224175   0.179   5.757   1.370 -0.3247 -0.0934  0.2172
  895TIP3    H124176   0.188   5.785   1.279 -0.5886  0.6352  0.4066
  895TIP3    H224177   0.088   5.728   1.379 -0.7670  1.3391  0.6336
  896TIP3   OH224178   1.206   5.159  14.121  0.5859  0.0244  0.2832
  896TIP3    H124179   1.228   5.202  14.038  1.6242 -0.1980  0.4284
  896TIP3    H224180   1.250   5.074  14.116 -0.8644 -0.7561  0.2955
  897TIP3   OH224181   5.245   5.353   3.882 -0.1667 -0.3222  0.5936
  897TIP3    H124182   5.312   5.289   3.905 -0.1093 -0.3487  0.3646
  897TIP3    H224183   5.208   5.320   3.800 -0.1438 -0.0677  0.4801
  898TIP3   OH224184   1.328   4.908   0.204 -0.1215 -0.1115  0.2385
  898TIP3    H124185   1.372   4.854   0.139  0.6325  2.2671 -1.3832
  898TIP3    H224186   1.384   4.985   0.214 -1.6552  0.9199  1.5534
  899TIP3   OH224187   0.540   4.413  11.101  0.4836  0.0421  0.1018
  899TIP3    H124188   0.586   4.344  11.147  1.7330 -0.3022 -1.5681
  899TIP3    H224189   0.464   4.369  11.062 -0.0606  0.1415  1.0312
  900TIP3   OH224190   6.186   3.375  16.867  0.1391  0.2300 -0.0021
  900TIP3    H124191   6.127   3.407  16.798 -2.7682 -2.1380  1.1555
  900TIP3    H224192   6.258   3.333  16.819 -1.6892 -1.1856 -1.7172
  901TIP3   OH224193   3.170   5.525  16.438  0.4566  0.0901 -0.3723
  901TIP3    H124194   3.141   5.526  16.347 -0.6651 -1.3659 -0.0614
  901TIP3    H224195   3.103   5.575  16.485  0.2628 -0.3710 -0.1504
  902TIP3   OH224196   3.794   6.083   1.265  0.0599  0.1683 -0.5151
  902TIP3    H124197   3.762   6.065   1.353 -1.0434 -0.1380 -0.9591
  902TIP3    H224198   3.889   6.075   1.271  0.0791  1.1565  0.8670
  903TIP3   OH224199   0.972   3.092   4.129  0.1327  0.0814 -0.1273
  903TIP3    H124200   0.997   3.046   4.209 -0.3767  1.7169  1.0183
  903TIP3    H224201   0.892   3.049   4.101 -0.9505  0.9135  1.5475
  904TIP3   OH224202   6.818   0.521  13.058  0.7168 -0.1423  0.2473
  904TIP3    H124203   6.900   0.570  13.063  0.9306 -0.4372 -0.3068
  904TIP3    H224204   6.803   0.491  13.148  1.5533 -0.6188  0.2400
  905TIP3   OH224205   2.616   3.270  13.383 -0.1243 -0.2044 -0.3024
  905TIP3    H124206   2.539   3.296  13.434 -1.0669 -1.0446 -1.2451
  905TIP3    H224207   2.611   3.322  13.303  0.2867 -0.2592 -0.3668
  906TIP3   OH224208   1.669   4.266   0.320  0.1687  0.5356  0.1799
  906TIP3    H124209   1.646   4.314   0.399 -0.5098 -0.6058  0.7032
  906TIP3    H224210   1.651   4.328   0.249 -1.1192  0.9235  0.8026
  907TIP3   OH224211   4.969   5.790  10.335  0.3030 -0.9048  0.5414
  907TIP3    H124212   4.924   5.723  10.283 -1.9113  0.1506  1.0240
  907TIP3    H224213   5.011   5.740  10.406  0.9628 -2.0328 -0.5947
  908TIP3   OH224214   4.258   3.713   1.666 -0.3148 -0.7129  0.1547
  908TIP3    H124215   4.168   3.701   1.696 -0.2381 -0.4751  0.4862
  908TIP3    H224216   4.253   3.786   1.605 -0.2390 -0.2505  0.6942
  909TIP3   OH224217   2.582   4.042   6.351  0.6163 -0.1517  0.3429
  909TIP3    H124218   2.511   3.988   6.387  0.0981  2.1663  3.1736
  909TIP3    H224219   2.660   4.012   6.399  0.7657  0.0282  0.2093
  910TIP3   OH224220   6.301   0.351  11.210  0.2154  0.1292 -0.2415
  910TIP3    H124221   6.270   0.289  11.143 -0.7076 -0.1492  0.4253
  910TIP3    H224222   6.223   0.399  11.236  0.6208  0.4317  0.4360
  911TIP3   OH224223   4.728   1.953  12.501 -0.7333 -0.0476 -0.3748
  911TIP3    H124224   4.784   2.031  12.510 -0.4218 -0.1526 -1.2707
  911TIP3    H224225   4.648   1.986  12.460 -1.3865  0.1162  0.9851
  912TIP3   OH224226   2.863   3.494  17.001  0.0599  0.3081  0.4672
  912TIP3    H124227   2.883   3.562  17.065 -0.5667  0.8584  0.0991
  912TIP3    H224228   2.899   3.527  16.919 -0.4009  0.2844  0.2505
  913TIP3   OH224229   3.988   0.123   2.246 -0.1641 -0.2151  0.3173
  913TIP3    H124230   4.015   0.214   2.234 -1.1629  0.0010 -0.4318
  913TIP3    H224231   4.060   0.071   2.210  0.4524  0.2642  0.8287
  914TIP3   OH224232   1.776   5.070   1.122  0.2855  0.0755 -0.1231
  914TIP3    H124233   1.684   5.067   1.147  0.8029 -1.5042  1.8508
  914TIP3    H224234   1.795   4.982   1.088  1.5127 -0.2937  1.4085
  915TIP3   OH224235   6.291   3.599  12.934  0.0627 -0.7215  0.3523
  915TIP3    H124236   6.259   3.669  12.877  0.4244 -0.6722  0.2048
  915TIP3    H224237   6.214   3.570  12.982 -0.3106 -0.9835 -0.3984
  916TIP3   OH224238   3.886   4.936  11.080  1.1657  1.1978 -0.1592
  916TIP3    H124239   3.956   4.881  11.045 -0.0646 -1.2482  0.9878
  916TIP3    H224240   3.909   5.025  11.051  3.8689  0.2967 -1.1243
  917TIP3   OH224241   0.372   3.183  14.987 -0.6742 -0.0832 -0.0214
  917TIP3    H124242   0.313   3.140  15.049  1.9726 -0.6522  2.2912
  917TIP3    H224243   0.393   3.115  14.923 -1.8243 -0.1122 -0.3898
  918TIP3   OH224244   0.046   0.682   5.325  0.2312 -0.6685 -0.0175
  918TIP3    H124245  -0.014   0.700   5.397  1.5385  0.4418  0.8414
  918TIP3    H224246  -0.010   0.654   5.253 -1.3679  0.7981  0.5919
  919TIP3   OH224247   1.447   0.641  11.684 -0.6106 -0.1917  0.5990
  919TIP3    H124248   1.531   0.595  11.692  0.0173  1.0988  1.9102
  919TIP3    H224249   1.464   0.708  11.618 -2.0390 -2.7533 -2.6868
  920TIP3   OH224250   5.438   5.980  10.457 -0.0357 -0.6639 -0.4100
  920TIP3    H124251   5.438   5.893  10.498 -2.3213 -0.4486  0.1979
  920TIP3    H224252   5.376   5.971  10.384 -1.6193  0.8627  0.6875
  921TIP3   OH224253   3.211   2.428  12.671 -0.0595  0.2143  0.1629
  921TIP3    H124254   3.180   2.503  12.621 -0.1064  0.3331  0.3712
  921TIP3    H224255   3.299   2.452  12.699 -0.2414  0.3729  0.6043
  922TIP3   OH224256   2.939   0.485   3.566 -0.4296  0.1151  0.2536
  922TIP3    H124257   3.031   0.486   3.541 -0.0004  0.0854  1.7716
  922TIP3    H224258   2.927   0.404   3.615 -1.7139 -0.7721 -1.4221
  923TIP3   OH224259   0.578   1.420   4.473  0.5836  0.7697  0.3735
  923TIP3    H124260   0.544   1.506   4.494 -1.3538 -0.1985  1.4619
  923TIP3    H224261   0.652   1.408   4.533 -0.6422  0.7502  1.9413
  924TIP3   OH224262   5.710   1.325   4.210 -0.1089 -0.1910 -0.0133
  924TIP3    H124263   5.660   1.319   4.129 -1.0100 -0.5910  0.5622
  924TIP3    H224264   5.758   1.242   4.214  0.2856  0.0182 -0.3590
  925TIP3   OH224265   3.306   0.710  16.726 -0.0426 -0.0439 -0.2274
  925TIP3    H124266   3.326   0.767  16.799  0.8472 -1.0919  0.3770
  925TIP3    H224267   3.310   0.767  16.649 -1.3351  1.1453  0.5329
  926TIP3   OH224268   2.847   4.476   2.670 -0.0182 -0.3986 -0.1406
  926TIP3    H124269   2.895   4.507   2.747  0.4013 -0.0542 -0.5366
  926TIP3    H224270   2.817   4.388   2.694 -1.6791  0.4794  1.1943
  927TIP3   OH224271   1.493   4.542   5.346  0.1812  0.3403 -0.0177
  927TIP3    H124272   1.437   4.617   5.329 -0.4493 -0.4475 -1.6324
  927TIP3    H224273   1.567   4.553   5.286 -0.1239 -0.5158 -0.5720
  928TIP3   OH224274   6.455   0.150  12.168  0.3120  0.1544 -0.2416
  928TIP3    H124275   6.384   0.158  12.104  0.6172 -0.3460 -0.6551
  928TIP3    H224276   6.411   0.153  12.253 -0.6191 -3.0099 -0.4483
  929TIP3   OH224277   2.521   4.606   1.149 -0.3641  0.3580 -0.0168
  929TIP3    H124278   2.484   4.692   1.130  0.5097  0.9837  1.0118
  929TIP3    H224279   2.610   4.624   1.179  0.6472 -1.0517 -1.9491
  930TIP3   OH224280   0.230   0.269  13.847  0.5865  0.0572 -0.4181
  930TIP3    H124281   0.260   0.271  13.756  2.4233 -1.5732  0.0655
  930TIP3    H224282   0.142   0.231  13.843  0.2202  0.9765 -1.5678
  931TIP3   OH224283   6.634   5.350  13.381 -0.2511 -0.6151  0.0393
  931TIP3    H124284   6.620   5.385  13.294  1.0839 -1.0993 -0.3834
  931TIP3    H224285   6.621   5.255  13.371 -1.0124 -0.5844  0.5789
  932TIP3   OH224286   3.622   3.009  16.230  0.4600  0.1475  0.0491
  932TIP3    H124287   3.535   3.047  16.234 -0.0473 -1.1130  2.3346
  932TIP3    H224288   3.657   3.017  16.318  1.9802 -0.8964 -0.4009
  933TIP3   OH224289   0.716   5.141   0.057 -0.0301  0.3748 -0.1797
  933TIP3    H124290   0.777   5.215   0.052 -0.3644  0.6307 -0.5456
  933TIP3    H224291   0.635   5.174   0.018 -1.3852  0.9712  2.8690
  934TIP3   OH224292   1.293   4.765  12.386  0.2911 -0.0605 -0.1929
  934TIP3    H124293   1.276   4.801  12.299  0.0442  0.3038  0.0017
  934TIP3    H224294   1.285   4.840  12.445  1.7537 -0.0493  0.0095
  935TIP3   OH224295   3.456   2.801   4.288  0.1382  0.0743  0.4300
  935TIP3    H124296   3.485   2.826   4.376  1.9206  0.4291 -0.2173
  935TIP3    H224297   3.499   2.717   4.271  2.3736  1.4150 -1.2086
  936TIP3   OH224298   1.925   0.459  13.970 -0.3544 -0.1693 -0.1161
  936TIP3    H124299   1.895   0.509  13.895 -0.7283 -0.5222 -0.2044
  936TIP3    H224300   2.005   0.416  13.940 -0.7511 -0.6726 -0.4605
  937TIP3   OH224301   6.221   1.973   2.271  0.3481 -0.2085  0.1873
  937TIP3    H124302   6.272   1.965   2.351 -2.4605 -0.1329  2.1270
  937TIP3    H224303   6.160   1.899   2.274  0.0015 -0.0613 -1.7725
  938TIP3   OH224304   2.807   4.555   0.955  0.1822 -0.0565 -0.1118
  938TIP3    H124305   2.815   4.640   0.999 -0.1008 -0.1504  0.1240
  938TIP3    H224306   2.718   4.556   0.919 -0.4960 -0.9763  1.4252
  939TIP3   OH224307   0.922   4.192  15.428 -0.1389  0.0646 -0.0279
  939TIP3    H124308   0.852   4.180  15.363  0.3183 -2.9881 -0.1433
  939TIP3    H224309   0.877   4.222  15.507 -1.9309 -2.9959  0.2917
  940TIP3   OH224310   5.168   1.421   0.206 -0.0253 -0.0474  0.7020
  940TIP3    H124311   5.186   1.348   0.266 -0.6939 -0.5903  0.2635
  940TIP3    H224312   5.237   1.485   0.224  0.0618 -0.4089  1.7157
  941TIP3   OH224313   0.032   3.191   4.932 -0.4409 -0.4871  0.3983
  941TIP3    H124314  -0.030   3.118   4.931  0.5360 -1.3296  0.1397
  941TIP3    H224315   0.113   3.154   4.896 -0.4460  1.1822 -1.4951
  942TIP3   OH224316   0.149   1.772  10.989 -0.4586  0.0305 -0.3071
  942TIP3    H124317   0.196   1.689  10.982 -0.2096  0.0509  0.8217
  942TIP3    H224318   0.218   1.838  10.987 -0.2886  0.0304  2.0832
  943TIP3   OH224319   0.224   6.373   1.417 -0.0142 -0.2076 -0.0810
  943TIP3    H124320   0.154   6.432   1.388  0.2149  0.1597  0.1081
  943TIP3    H224321   0.193   6.337   1.500  0.2881  0.4385  0.3217
  944TIP3   OH224322   1.456   4.333  11.639  0.2919 -0.1912  0.0998
  944TIP3    H124323   1.489   4.417  11.609  0.4514  0.2092  1.3485
  944TIP3    H224324   1.476   4.331  11.732 -0.2109 -1.3773  0.2046
  945TIP3   OH224325   0.464   2.124  15.073 -0.1983  0.3929  0.2051
  945TIP3    H124326   0.433   2.069  15.001 -0.7551  0.4656  0.3800
  945TIP3    H224327   0.386   2.137  15.127 -0.2927  2.0802 -0.2979
  946TIP3   OH224328   4.953   1.294   4.816  0.2301 -0.1691 -0.2538
  946TIP3    H124329   4.899   1.373   4.810 -1.8506 -1.4718  0.3696
  946TIP3    H224330   4.945   1.266   4.907  0.8425 -1.1882 -0.4981
  947TIP3   OH224331   2.204   5.053  13.620 -0.6962  0.2751  0.1316
  947TIP3    H124332   2.253   4.972  13.611 -2.7290 -1.1798  1.3788
  947TIP3    H224333   2.194   5.084  13.530  2.3679  0.6611 -0.1903
  948TIP3   OH224334   4.599   3.105   3.999  0.0840 -0.1243 -0.1465
  948TIP3    H124335   4.625   3.024   3.955  0.4306  0.3485 -0.8175
  948TIP3    H224336   4.504   3.107   3.989  0.1991  0.1941 -1.2595
  949TIP3   OH224337   6.327   5.240   4.455  0.0587 -0.7155 -0.3715
  949TIP3    H124338   6.329   5.165   4.396 -0.8906  0.5432 -2.0621
  949TIP3    H224339   6.405   5.291   4.432 -0.2360 -0.2878 -0.4116
  950TIP3   OH224340   4.289   1.295   5.197  0.3732 -0.2268  0.4071
  950TIP3    H124341   4.289   1.304   5.102  1.4592 -1.8735  0.1945
  950TIP3    H224342   4.289   1.385   5.230 -0.2186  0.3710 -1.1365
  951TIP3   OH224343   6.725   4.577  13.270  0.1177  0.6314  0.0160
  951TIP3    H124344   6.755   4.491  13.300 -0.4398  0.7331  0.9031
  951TIP3    H224345   6.632   4.580  13.295  0.4417  1.9935  1.1609
  952TIP3   OH224346   0.446   4.384  16.369  0.0047  0.5224  0.1771
  952TIP3    H124347   0.389   4.415  16.440 -2.5002  1.2072 -1.9703
  952TIP3    H224348   0.491   4.463  16.339  0.7285  0.3056  0.6354
  953TIP3   OH224349   0.790   6.281  16.501 -0.2454 -0.2702 -0.5776
  953TIP3    H124350   0.793   6.186  16.503  0.7675 -0.2510  1.2580
  953TIP3    H224351   0.876   6.307  16.467 -1.0170  0.0180 -2.4210
  954TIP3   OH224352   6.618   5.922   0.947 -0.0985 -0.5082  0.7084
  954TIP3    H124353   6.615   5.975   0.868  1.2263 -1.8207 -0.2873
  954TIP3    H224354   6.670   5.974   1.009  0.5166 -0.2912  0.0273
  955TIP3   OH224355   3.119   5.531  10.876 -0.1936  0.2687 -0.7119
  955TIP3    H124356   3.041   5.533  10.821 -0.1296  0.6652 -0.7853
  955TIP3    H224357   3.182   5.479  10.826 -0.3616  0.0589 -0.7103
  956TIP3   OH224358   4.791   0.359  13.397  0.5068 -0.4655 -0.7053
  956TIP3    H124359   4.841   0.304  13.457 -0.6906 -0.2642  0.5107
  956TIP3    H224360   4.721   0.302  13.365 -0.0555  0.0072 -0.3313
  957TIP3   OH224361   3.813   3.700  16.672  0.6549  0.1942 -0.1448
  957TIP3    H124362   3.720   3.712  16.691  0.0205 -1.8761 -1.6522
  957TIP3    H224363   3.825   3.737  16.584  0.3161 -2.8213 -1.5951
  958TIP3   OH224364   3.320   0.172  15.152 -0.0533  0.0604 -0.0936
  958TIP3    H124365   3.383   0.124  15.099 -1.8051 -1.6340 -0.7254
  958TIP3    H224366   3.339   0.264  15.134  1.6212 -0.4180 -0.9651
  959TIP3   OH224367   2.766   1.187  12.456 -0.3756  0.9333  0.2380
  959TIP3    H124368   2.787   1.190  12.549 -0.4036 -0.3824  0.3038
  959TIP3    H224369   2.795   1.272  12.422  0.2258  1.1740  1.3118
  960TIP3   OH224370   4.710   2.509  13.381 -0.3658 -0.0679  0.5543
  960TIP3    H124371   4.685   2.601  13.379 -0.2212 -0.0355 -0.7826
  960TIP3    H224372   4.799   2.508  13.346  0.1316 -0.5944  1.7509
  961TIP3   OH224373   0.731   5.377   5.556 -0.0761 -0.3195  0.2797
  961TIP3    H124374   0.769   5.462   5.532  1.4340 -1.4355 -1.5204
  961TIP3    H224375   0.803   5.328   5.594 -0.8077 -0.9967  0.8310
  962TIP3   OH224376   1.214   2.216   5.998 -0.1471 -0.6351  0.0726
  962TIP3    H124377   1.289   2.226   6.057 -1.4742 -0.8637  1.9072
  962TIP3    H224378   1.207   2.122   5.983 -0.7172 -0.7281  0.8479
  963TIP3   OH224379   4.521   6.149   0.143 -0.1870  0.9145 -0.0168
  963TIP3    H124380   4.567   6.160   0.226  0.1845  0.6885 -0.1897
  963TIP3    H224381   4.432   6.122   0.168  0.3110 -0.5696  0.2936
  964TIP3   OH224382   5.906   5.409   0.769  0.2523 -0.1621  0.2222
  964TIP3    H124383   5.997   5.381   0.757  0.8547  1.9454 -0.4273
  964TIP3    H224384   5.888   5.394   0.862  0.6684 -2.1749  0.0211
  965TIP3   OH224385   6.275   1.135  15.376 -0.5149  0.7717 -0.3326
  965TIP3    H124386   6.330   1.207  15.346 -0.2019  0.3831 -0.6932
  965TIP3    H224387   6.336   1.065  15.399 -0.8560  0.2914 -0.8560
  966TIP3   OH224388   0.320   3.535   1.738  0.1509 -0.2087  0.1360
  966TIP3    H124389   0.353   3.574   1.657 -0.3021 -1.1197 -0.5039
  966TIP3    H224390   0.386   3.556   1.803 -0.0572  1.5967 -0.1751
  967TIP3   OH224391   3.019   1.124   5.379  0.0500  0.4376 -0.0479
  967TIP3    H124392   2.941   1.094   5.332 -1.1022  1.6683  0.9919
  967TIP3    H224393   3.092   1.087   5.330 -1.1895 -2.6453  0.2402
  968TIP3   OH224394   4.020   1.499  15.470  0.1029 -0.0037 -0.2691
  968TIP3    H124395   4.019   1.588  15.506  1.0683 -0.5449  1.1782
  968TIP3    H224396   4.110   1.485  15.443  0.0199 -0.6355 -0.2366
  969TIP3   OH224397   2.211   5.299  13.976 -0.5888  0.3916  0.4888
  969TIP3    H124398   2.173   5.270  13.893 -1.0293  0.2267  0.7429
  969TIP3    H224399   2.144   5.278  14.041  0.1620 -0.4070  1.0293
  970TIP3   OH224400   3.738   1.436  15.820  0.1772  0.7632  0.0037
  970TIP3    H124401   3.655   1.401  15.853  0.0002  1.0952 -0.0833
  970TIP3    H224402   3.769   1.369  15.759 -1.0980  1.5663 -1.6215
  971TIP3   OH224403   1.608   6.260   6.000 -0.1117 -0.6132  0.1617
  971TIP3    H124404   1.581   6.235   6.088 -1.6741 -0.5524 -0.2705
  971TIP3    H224405   1.544   6.219   5.942 -2.1494  3.2229 -0.6615
  972TIP3   OH224406   4.859   3.280   0.705  0.2657  0.4528 -0.1468
  972TIP3    H124407   4.904   3.212   0.756 -1.4586  0.5125  1.5975
  972TIP3    H224408   4.868   3.252   0.614  0.4930 -1.5719  0.4455
  973TIP3   OH224409   5.022   1.659   0.774 -0.2530 -0.2194  0.2713
  973TIP3    H124410   5.039   1.739   0.725 -0.2121 -0.2347  0.2606
  973TIP3    H224411   5.098   1.603   0.756 -0.9119 -0.7935 -0.8091
  974TIP3   OH224412   6.737   2.742   4.918  0.1712 -0.0207 -0.0964
  974TIP3    H124413   6.791   2.727   4.840  2.6164  0.4954  1.3702
  974TIP3    H224414   6.686   2.662   4.928  1.2899 -0.9116 -1.1499
  975TIP3   OH224415   3.658   5.887   2.663  0.4603 -0.1057 -0.0238
  975TIP3    H124416   3.568   5.858   2.679  0.5929  0.3331  1.6107
  975TIP3    H224417   3.711   5.808   2.675  0.4104 -0.1027  0.2182
  976TIP3   OH224418   6.307   0.798   1.974  0.4813  0.7290  0.6362
  976TIP3    H124419   6.394   0.833   1.955  0.8309  0.9008  2.4053
  976TIP3    H224420   6.318   0.703   1.967  0.7849  0.7569  0.7029
  977TIP3   OH224421   4.001   1.931  12.563 -0.0477  0.0803 -0.2564
  977TIP3    H124422   4.020   1.846  12.602 -1.4539 -0.9556 -1.7236
  977TIP3    H224423   3.938   1.971  12.623  0.7243  0.1820  0.5096
  978TIP3   OH224424   4.603   2.394  11.108  0.0147  0.2381  0.2614
  978TIP3    H124425   4.554   2.312  11.121  1.6184 -0.8112 -0.0794
  978TIP3    H224426   4.581   2.421  11.019 -1.3179  0.7705  0.7175
  979TIP3   OH224427   0.155   0.785  11.137  0.6553 -0.3965  0.1555
  979TIP3    H124428   0.090   0.855  11.131  0.2722 -0.6493  1.1736
  979TIP3    H224429   0.106   0.706  11.114  0.3633 -0.7108  1.7887
  980TIP3   OH224430   1.389   1.290  11.291  0.7820 -0.5732 -0.1238
  980TIP3    H124431   1.358   1.286  11.201  0.1935  1.2839 -0.0567
  980TIP3    H224432   1.310   1.311  11.342  1.5465  1.0244  0.4613
  981TIP3   OH224433   0.238   6.490   4.899  0.0091  0.2326  0.0909
  981TIP3    H124434   0.216   6.484   4.806 -1.4996 -0.3918  0.4526
  981TIP3    H224435   0.187   6.565   4.931 -0.6985 -0.4951  0.7154
  982TIP3   OH224436   4.172   0.199  11.490 -0.1780  0.0031 -0.0223
  982TIP3    H124437   4.247   0.140  11.494  0.5165  0.8704  0.1956
  982TIP3    H224438   4.190   0.256  11.415  0.5208  1.6555  1.3221
  983TIP3   OH224439   1.850   0.245   4.569 -0.2198  0.3256 -0.1753
  983TIP3    H124440   1.820   0.335   4.557 -1.5248 -0.1294 -0.5119
  983TIP3    H224441   1.778   0.202   4.616  0.4576 -0.4980  0.1388
  984TIP3   OH224442   0.883   1.680   1.866  0.3125 -0.6302 -0.0555
  984TIP3    H124443   0.940   1.673   1.789  0.3871 -1.9296  0.0890
  984TIP3    H224444   0.837   1.596   1.868  0.9188 -0.9614  1.7847
  985TIP3   OH224445   0.575   0.960   3.951 -0.1250  0.2710  0.2157
  985TIP3    H124446   0.535   1.003   3.876  0.1512  1.6001  0.8000
  985TIP3    H224447   0.643   1.021   3.980  1.6788 -1.4547 -0.1486
  986TIP3   OH224448   4.538   1.185  15.983  0.4350 -0.3149 -0.0395
  986TIP3    H124449   4.629   1.156  15.983  0.6727  0.2533 -1.8885
  986TIP3    H224450   4.498   1.137  15.911 -0.0416  1.2962 -0.9001
  987TIP3   OH224451   0.256   0.733  12.681 -0.1975  0.1091  0.0497
  987TIP3    H124452   0.247   0.823  12.649 -1.1102 -0.3547 -1.0939
  987TIP3    H224453   0.166   0.705  12.697  0.1028 -0.4894  0.7520
  988TIP3   OH224454   6.469   3.491  15.893  0.1210  0.4173  0.5422
  988TIP3    H124455   6.428   3.518  15.811 -0.7579 -1.0975  0.4301
  988TIP3    H224456   6.526   3.418  15.868  0.9223  0.8483  1.0868
  989TIP3   OH224457   5.497   4.941  10.926  0.2264  0.1638  0.0435
  989TIP3    H124458   5.493   4.933  10.831 -0.8799 -1.7171  0.2010
  989TIP3    H224459   5.406   4.947  10.954  0.5557  1.2427  0.9706
  990TIP3   OH224460   2.633   3.737  17.000 -0.1987  0.3781 -0.0065
  990TIP3    H124461   2.655   3.645  16.983 -0.4838  0.4327 -0.7004
  990TIP3    H224462   2.538   3.736  17.014 -0.3499  0.6902 -0.9413
  991TIP3   OH224463   5.322   6.045   4.032 -0.0752  0.1154 -0.7198
  991TIP3    H124464   5.289   6.118   4.085  0.5649 -0.7346  0.8884
  991TIP3    H224465   5.247   5.988   4.019 -0.1120  0.0563 -0.2533
  992TIP3   OH224466   0.064   4.713   2.504 -0.0543  0.4172 -0.4777
  992TIP3    H124467   0.139   4.689   2.558 -0.5421 -0.5958 -0.2218
  992TIP3    H224468   0.033   4.630   2.468 -2.4096  0.4949  1.2027
  993TIP3   OH224469   5.288   2.288   2.666 -0.7183  0.3166  0.2843
  993TIP3    H124470   5.289   2.200   2.703 -1.3762  0.1222 -0.1524
  993TIP3    H224471   5.381   2.308   2.650 -0.6288 -0.8113 -0.7872
  994TIP3   OH224472   5.953   2.303   3.215 -0.5803  0.1255  0.2327
  994TIP3    H124473   5.980   2.302   3.123 -0.1272 -0.5657  0.3638
  994TIP3    H224474   5.937   2.211   3.236 -1.1472  0.3257  0.7143
  995TIP3   OH224475   3.335   4.593  15.889  0.5247 -0.2446 -0.4270
  995TIP3    H124476   3.345   4.602  15.984 -1.1023 -2.2396 -0.0014
  995TIP3    H224477   3.260   4.648  15.868  1.7835  1.4038 -0.8801
  996TIP3   OH224478   6.140   1.031   2.236  0.1440 -0.0303  0.1118
  996TIP3    H124479   6.048   1.038   2.264 -0.1386 -1.0691 -0.5250
  996TIP3    H224480   6.151   0.940   2.210  1.1859  0.2350 -0.4477
  997TIP3   OH224481   2.921   2.543   2.309  0.3186  0.5874  0.2863
  997TIP3    H124482   2.972   2.563   2.387  2.3495 -0.2648 -0.7364
  997TIP3    H224483   2.840   2.592   2.320  0.0747 -0.3103  3.3883
  998TIP3   OH224484   3.216   3.105  13.355  0.1411  0.3894  0.2313
  998TIP3    H124485   3.251   3.135  13.439  1.5987  0.1057 -0.2348
  998TIP3    H224486   3.283   3.132  13.291  1.4942 -3.5355 -0.2632
  999TIP3   OH224487   6.302   1.781  11.618  0.4391  0.1812 -0.3677
  999TIP3    H124488   6.395   1.785  11.643 -0.0376 -0.2850  1.6425
  999TIP3    H224489   6.267   1.867  11.641 -0.1157 -0.4107  1.0892
 1000TIP3   OH224490   4.767   1.448   2.440 -0.1544 -0.0538  0.2273
 1000TIP3    H124491   4.773   1.519   2.504  2.0695 -0.3319  0.4091
 1000TIP3    H224492   4.787   1.369   2.490  0.6112 -0.3970 -0.5949
 1001TIP3   OH224493   5.779   3.606  12.762 -0.2238 -0.1026 -0.0486
 1001TIP3    H124494   5.769   3.601  12.667 -0.0725 -0.4291 -0.0478
 1001TIP3    H224495   5.697   3.570  12.796  0.4198 -1.6503 -0.0514
 1002TIP3   OH224496   4.476   5.856   2.319 -0.3223 -0.1935  0.0660
 1002TIP3    H124497   4.504   5.764   2.318 -2.4160 -0.9014  1.3943
 1002TIP3    H224498   4.521   5.894   2.394  0.9769  0.0605 -0.8036
 1003TIP3   OH224499   1.102   4.935   0.626  0.5351  0.5527 -0.5372
 1003TIP3    H124500   1.066   4.914   0.540  0.5559  1.2836 -0.7314
 1003TIP3    H224501   1.033   4.984   0.670  0.0549 -0.8555  0.3416
 1004TIP3   OH224502   0.588   0.670  17.181  0.2834  0.6105  0.2411
 1004TIP3    H124503   0.605   0.577  17.192  0.5003  0.6511  0.2668
 1004TIP3    H224504   0.533   0.694  17.256 -2.9816 -0.2647 -1.6717
 1005TIP3   OH224505   3.916   0.767   5.739 -0.4429 -0.3617  0.1249
 1005TIP3    H124506   3.977   0.738   5.670  1.4634  0.3666  1.4279
 1005TIP3    H224507   3.966   0.759   5.820 -2.1586  0.1663  1.2840
 1006TIP3   OH224508   2.607   3.230   2.615 -0.0485  0.3322  0.2399
 1006TIP3    H124509   2.530   3.279   2.585 -0.9098 -1.5029 -0.7128
 1006TIP3    H224510   2.655   3.292   2.670 -2.9313  1.1449  2.0754
 1007TIP3   OH224511   4.241   5.511  13.230  0.0489  0.3596 -0.0345
 1007TIP3    H124512   4.278   5.599  13.217 -1.4774  0.9699 -0.4857
 1007TIP3    H224513   4.237   5.501  13.326 -0.4098  1.0724  0.0270
 1008TIP3   OH224514   3.566   0.633  15.120  0.2870 -0.2603 -0.3854
 1008TIP3    H124515   3.637   0.673  15.069 -0.2016  1.8109  0.4721
 1008TIP3    H224516   3.592   0.646  15.211 -1.5266  1.3055 -0.0274
 1009TIP3   OH224517   4.084   1.041   4.650 -0.3985 -0.0150 -0.0839
 1009TIP3    H124518   4.108   1.132   4.671  0.4871 -0.1441 -0.4747
 1009TIP3    H224519   4.029   1.049   4.572 -0.6558  0.2074  0.1154
 1010TIP3   OH224520   0.236   1.250  14.082 -0.0840  0.4820 -0.0243
 1010TIP3    H124521   0.179   1.189  14.035 -0.2154  1.3545 -1.0243
 1010TIP3    H224522   0.204   1.337  14.057  1.2433  0.9782 -0.0352
 1011TIP3   OH224523   2.804   1.858  15.225 -0.2103 -0.6197  0.4893
 1011TIP3    H124524   2.770   1.881  15.312 -0.4160  1.1282 -0.0127
 1011TIP3    H224525   2.824   1.942  15.184  2.9955 -1.4587  0.0304
 1012TIP3   OH224526   5.206   5.782   2.537  0.3531  0.0802  0.4331
 1012TIP3    H124527   5.175   5.867   2.504 -0.9804 -1.0631 -1.4016
 1012TIP3    H224528   5.297   5.778   2.509  0.8889  1.5011  1.8247
 1013TIP3   OH224529   0.018   3.449   2.446 -0.4236 -0.4840 -0.4569
 1013TIP3    H124530   0.057   3.465   2.532 -0.2548  0.6359 -0.7269
 1013TIP3    H224531   0.053   3.364   2.420  0.3212 -0.3775  0.1461
 1014TIP3   OH224532   6.742   0.499   5.899 -0.3661 -0.6962 -0.3392
 1014TIP3    H124533   6.692   0.534   5.973  1.7252 -0.2695  0.9369
 1014TIP3    H224534   6.783   0.420   5.932 -0.5295 -1.2977 -1.5088
 1015TIP3   OH224535   1.697   2.249  12.841 -0.1002  0.1880  0.2557
 1015TIP3    H124536   1.655   2.311  12.782 -2.0308 -1.3536 -0.0844
 1015TIP3    H224537   1.649   2.258  12.923 -0.6747 -1.1018  0.0795
 1016TIP3   OH224538   6.627   5.042   6.077 -0.7150  0.3327  0.0013
 1016TIP3    H124539   6.557   5.075   6.133  0.3212  0.1760  1.4662
 1016TIP3    H224540   6.685   5.117   6.063 -2.2142  1.0972 -3.0976
 1017TIP3   OH224541   0.711   4.479   0.303  0.0555 -0.1245 -0.2754
 1017TIP3    H124542   0.684   4.439   0.386  0.1531 -0.1838 -0.2721
 1017TIP3    H224543   0.675   4.567   0.305 -0.7916 -0.4478 -0.5950
 1018TIP3   OH224544   5.934   0.431   5.694 -0.0277  0.1906  0.0218
 1018TIP3    H124545   6.012   0.480   5.723 -0.1970  0.0839  0.6804
 1018TIP3    H224546   5.882   0.421   5.774  0.1340 -1.3008 -0.0395
 1019TIP3   OH224547   6.317   5.097   0.626  0.0302 -0.1703 -0.2963
 1019TIP3    H124548   6.408   5.091   0.596 -0.0722 -0.0528 -0.6422
 1019TIP3    H224549   6.306   5.022   0.684  0.0864 -0.7001 -0.9593
 1020TIP3   OH224550   2.275   6.130   6.303  0.1107 -0.6683  0.1246
 1020TIP3    H124551   2.212   6.164   6.239 -0.8703 -0.5862  1.0936
 1020TIP3    H224552   2.350   6.188   6.297 -0.9601  0.8332  0.7412
 1021TIP3   OH224553   4.969   0.826   1.557 -0.0365 -0.3874 -0.3270
 1021TIP3    H124554   4.969   0.808   1.463  3.2979 -1.7650 -0.2145
 1021TIP3    H224555   4.981   0.921   1.563  3.5949 -0.5954 -1.5329
 1022TIP3   OH224556   0.795   1.160   2.031  0.2999  0.4468 -0.4839
 1022TIP3    H124557   0.760   1.122   2.112  0.4754 -0.1220 -0.6683
 1022TIP3    H224558   0.876   1.204   2.057 -0.8846  2.4184  0.0837
 1023TIP3   OH224559   2.579   0.770  13.367  0.3016 -0.7253 -0.2028
 1023TIP3    H124560   2.562   0.833  13.297 -2.2317 -0.9250  0.1318
 1023TIP3    H224561   2.657   0.804  13.411  1.6110 -0.2621 -2.6877
 1024TIP3   OH224562   1.353   5.789   3.657 -0.8276 -0.1749  0.1010
 1024TIP3    H124563   1.375   5.823   3.570 -1.1080  0.7282  0.3672
 1024TIP3    H224564   1.331   5.867   3.708  0.3366 -0.5943  1.2877
 1025TIP3   OH224565   2.097   4.372  12.826  0.0373  0.1715  0.2018
 1025TIP3    H124566   2.127   4.437  12.764  1.1174 -1.5035 -1.1345
 1025TIP3    H224567   2.053   4.305  12.773 -1.2283 -0.1257  1.5318
 1026TIP3   OH224568   6.257   2.864  15.717  0.2187 -0.4112  0.7191
 1026TIP3    H124569   6.196   2.827  15.653 -0.7058 -0.5253  1.6406
 1026TIP3    H224570   6.328   2.901  15.664  0.2755 -1.9040 -0.3002
 1027TIP3   OH224571   1.596   2.408  11.416  0.1979  0.4210 -0.5034
 1027TIP3    H124572   1.627   2.378  11.331 -0.9764 -1.4161 -0.3389
 1027TIP3    H224573   1.635   2.495  11.427  0.8860  0.4245 -2.6146
 1028TIP3   OH224574   3.234   0.586   0.171  0.2185 -0.1811 -0.2805
 1028TIP3    H124575   3.229   0.646   0.246  1.0541 -0.2368 -0.1708
 1028TIP3    H224576   3.287   0.633   0.106 -0.4525 -0.1549 -0.8244
 1029TIP3   OH224577   2.112   5.002   3.651  0.6289  0.0875  0.0574
 1029TIP3    H124578   2.140   4.955   3.730  0.4329  2.3583  1.5706
 1029TIP3    H224579   2.187   5.057   3.628  0.8403 -0.8456 -1.6470
 1030TIP3   OH224580   6.449   1.736   0.877  0.0375  0.3752  0.1418
 1030TIP3    H124581   6.369   1.734   0.825  1.8197  0.5297 -2.8596
 1030TIP3    H224582   6.519   1.721   0.813  2.2994 -2.7713  2.9974
 1031TIP3   OH224583   1.921   4.094   3.495 -0.0273 -0.0826 -0.5693
 1031TIP3    H124584   1.847   4.038   3.519  1.0893 -1.4592 -0.1673
 1031TIP3    H224585   1.885   4.155   3.431 -1.4396 -0.8925 -0.5973
 1032TIP3   OH224586   6.774   4.998  13.830  0.1417  0.0790  0.6799
 1032TIP3    H124587   6.866   4.974  13.828  0.8953  2.7005  0.1598
 1032TIP3    H224588   6.732   4.940  13.766  1.6040 -0.4830  0.1970
 1033TIP3   OH224589   4.038   1.578  12.087 -0.1554 -0.2090  0.2349
 1033TIP3    H124590   4.033   1.619  12.174 -2.5113  1.3550 -0.5631
 1033TIP3    H224591   4.099   1.633  12.038 -0.9227  0.5360  0.1004
 1034TIP3   OH224592   3.640   0.271  15.090  0.4859 -0.6048 -0.4000
 1034TIP3    H124593   3.641   0.357  15.048  0.8801  0.8606  2.3766
 1034TIP3    H224594   3.721   0.268  15.140 -0.4798 -1.6856  1.1952
 1035TIP3   OH224595   4.751   0.221  16.583 -0.0033 -0.0453  0.5919
 1035TIP3    H124596   4.664   0.258  16.597  0.6058  1.3784  0.7869
 1035TIP3    H224597   4.801   0.292  16.542  1.4407 -0.3692  1.6992
 1036TIP3   OH224598   1.555   3.570   0.943 -0.0430  0.3356 -0.0012
 1036TIP3    H124599   1.484   3.510   0.964 -0.2585  0.5182 -0.2093
 1036TIP3    H224600   1.587   3.599   1.029  1.1566 -1.3294  0.1568
 1037TIP3   OH224601   4.528   3.712  11.374  0.4575  0.5350 -0.2841
 1037TIP3    H124602   4.608   3.664  11.394 -0.1161 -0.0529  0.6842
 1037TIP3    H224603   4.477   3.653  11.319 -0.3510 -0.1130  1.0978
 1038TIP3   OH224604   6.095   2.531   6.279 -0.3861  0.6121  0.4605
 1038TIP3    H124605   6.045   2.518   6.359  0.2248 -1.8628  0.5248
 1038TIP3    H224606   6.151   2.453   6.272 -1.3258  0.0595 -3.0041
 1039TIP3   OH224607   4.427   0.353  16.548  0.3164  0.4069  0.0777
 1039TIP3    H124608   4.344   0.358  16.500 -0.0361  0.1808  0.6668
 1039TIP3    H224609   4.422   0.424  16.612 -0.3434 -0.9234  1.5627
 1040TIP3   OH224610   2.532   5.489  13.439  0.1940 -1.0459 -0.0195
 1040TIP3    H124611   2.526   5.583  13.425 -0.9920 -1.1692 -0.4899
 1040TIP3    H224612   2.626   5.471  13.444  0.4311  0.3670  1.6074
 1041TIP3   OH224613   3.196   1.800   3.489  0.2725  0.4824  0.1678
 1041TIP3    H124614   3.149   1.727   3.529  0.8975  0.1342  0.2814
 1041TIP3    H224615   3.212   1.861   3.560  1.3006 -0.0929  0.4531
 1042TIP3   OH224616   0.491   5.439  10.939 -0.4357  0.0101  0.1150
 1042TIP3    H124617   0.467   5.383  10.865  0.3090  0.9586 -0.8830
 1042TIP3    H224618   0.477   5.528  10.906 -3.0334  0.4663  2.1384
 1043TIP3   OH224619   1.682   6.156  13.500  0.3682  0.0572 -0.3028
 1043TIP3    H124620   1.759   6.181  13.448 -0.1683  1.4203 -0.4676
 1043TIP3    H224621   1.679   6.221  13.571  1.3172 -1.9787  1.7596
 1044TIP3   OH224622   2.363   5.566   5.224 -0.2483 -0.6453 -0.1607
 1044TIP3    H124623   2.431   5.553   5.158  0.6657  1.9029  0.1837
 1044TIP3    H224624   2.395   5.520   5.302 -0.2467 -1.7285 -0.7798
 1045TIP3   OH224625   5.898   1.206  12.020 -0.0099  0.0879 -0.6498
 1045TIP3    H124626   5.833   1.220  11.952 -1.1606 -0.4122  0.3170
 1045TIP3    H224627   5.856   1.236  12.100  0.8238 -0.5464  0.0474
 1046TIP3   OH224628   6.435   0.321  10.737 -0.4182  0.3136  0.3036
 1046TIP3    H124629   6.498   0.380  10.694  1.4944 -0.3739  1.9939
 1046TIP3    H224630   6.489   0.252  10.774 -2.5275 -2.1050 -0.8725
 1047TIP3   OH224631   0.806   2.341   5.128  0.1382  0.7628  0.2259
 1047TIP3    H124632   0.862   2.323   5.204 -0.1244 -1.1799  0.0022
 1047TIP3    H224633   0.717   2.329   5.162  0.0469 -1.4672 -0.6448
 1048TIP3   OH224634   6.746   0.972   1.226  0.4023 -0.2846 -0.1437
 1048TIP3    H124635   6.797   0.905   1.270 -0.3983 -0.7962  0.0356
 1048TIP3    H224636   6.800   1.051   1.230  0.5526 -0.4436  1.3128
 1049TIP3   OH224637   1.777   6.373   5.620  0.7141  0.5483 -0.3644
 1049TIP3    H124638   1.807   6.283   5.631 -1.6136 -0.0556  1.9002
 1049TIP3    H224639   1.847   6.427   5.657  1.7642 -0.3231 -1.0157
 1050TIP3   OH224640   5.677   5.289   0.637  0.5372  0.2590  0.0493
 1050TIP3    H124641   5.700   5.201   0.668  0.1620 -0.5948 -1.9553
 1050TIP3    H224642   5.752   5.343   0.661  2.5673 -1.4445 -2.0216
 1051TIP3   OH224643   3.138   4.190   4.737  0.2245 -0.0312  0.1771
 1051TIP3    H124644   3.224   4.207   4.697 -0.7927 -1.6414 -3.0633
 1051TIP3    H224645   3.120   4.098   4.717 -2.3539  0.3203  0.5312
 1052TIP3   OH224646   3.121   3.527  16.285 -0.1094  0.1502 -0.0381
 1052TIP3    H124647   3.077   3.500  16.205  1.7168 -2.0727 -0.3861
 1052TIP3    H224648   3.178   3.454  16.307  1.2271  1.6934  1.9792
 1053TIP3   OH224649   5.932   5.785   2.906  0.0938 -0.1220  0.1529
 1053TIP3    H124650   6.027   5.774   2.910 -0.0213 -1.0028  0.8319
 1053TIP3    H224651   5.919   5.864   2.854  1.2594  1.3124  1.9428
 1054TIP3   OH224652   2.977   1.932   0.505  0.3981  0.4164  0.3345
 1054TIP3    H124653   3.010   1.902   0.420  0.1165  0.9764  0.0252
 1054TIP3    H224654   2.919   2.005   0.484 -2.1605 -1.3457  0.7097
 1055TIP3   OH224655   4.130   6.052  11.397  0.2553  0.4675 -0.7642
 1055TIP3    H124656   4.192   6.100  11.451 -0.8036  0.4973  0.4615
 1055TIP3    H224657   4.137   5.961  11.427 -1.3779  0.7242  0.4677
 1056TIP3   OH224658   0.787   5.558  10.056  0.6653  0.0278 -0.3158
 1056TIP3    H124659   0.763   5.648  10.036  0.8727 -0.2218 -1.7748
 1056TIP3    H224660   0.754   5.543  10.145  1.1966  1.7356  0.2139
 1057TIP3   OH224661   2.351   4.141  15.674  0.1781 -0.4683  0.2397
 1057TIP3    H124662   2.265   4.164  15.638  1.2937 -1.0477 -3.0998
 1057TIP3    H224663   2.405   4.219  15.658  0.7972 -0.8525  0.4133
 1058TIP3   OH224664   2.778   2.239   5.471 -0.1178 -0.1921 -0.1265
 1058TIP3    H124665   2.743   2.181   5.403 -0.4005  0.4778 -0.5621
 1058TIP3    H224666   2.826   2.181   5.530  1.4280 -0.6006 -1.7092
 1059TIP3   OH224667   0.010   5.182  15.153  0.2401  0.2390 -0.0404
 1059TIP3    H124668   0.050   5.098  15.131  1.6944  0.3803  1.7526
 1059TIP3    H224669   0.075   5.225  15.209 -1.4708  1.5224  1.0733
 1060TIP3   OH224670   3.914   4.572  15.765 -0.7879  0.2327 -0.1131
 1060TIP3    H124671   3.880   4.572  15.855 -2.2806  0.9641 -0.6583
 1060TIP3    H224672   4.009   4.585  15.776 -1.1175  1.8945  1.3320
 1061TIP3   OH224673   2.610   4.422  16.283  0.0227 -0.8461 -0.0263
 1061TIP3    H124674   2.552   4.470  16.342 -0.5465 -1.4162 -0.1040
 1061TIP3    H224675   2.563   4.340  16.266  0.9346 -1.3999  0.0506
 1062TIP3   OH224676   1.071   6.125  16.225 -0.2106 -0.2768 -0.0200
 1062TIP3    H124677   1.150   6.105  16.175 -1.1824 -0.6127 -1.4931
 1062TIP3    H224678   1.086   6.087  16.311  0.6370 -1.6066 -0.7261
 1063TIP3   OH224679   4.599   4.565  15.306 -0.0474  0.5881 -0.3263
 1063TIP3    H124680   4.585   4.474  15.333 -0.6152  0.2704 -1.6245
 1063TIP3    H224681   4.553   4.617  15.372  1.6624  0.0554  1.3635
 1064TIP3   OH224682   0.124   2.326  12.116 -0.3305 -0.5505  0.2556
 1064TIP3    H124683   0.158   2.331  12.027  1.2063 -1.2824  0.7653
 1064TIP3    H224684   0.097   2.415  12.136  0.1670 -0.1881 -0.6246
 1065TIP3   OH224685   1.568   4.388   4.668 -0.2887  0.7365  0.9214
 1065TIP3    H124686   1.482   4.385   4.626  0.3212 -0.9232 -0.2953
 1065TIP3    H224687   1.596   4.480   4.659 -1.1260  0.8821 -0.3334
 1066TIP3   OH224688   6.667   1.337   2.983 -0.3220 -0.2107  0.6458
 1066TIP3    H124689   6.603   1.285   3.031  1.6625  0.5298  4.4595
 1066TIP3    H224690   6.745   1.282   2.977 -0.3374 -0.1132 -1.5344
 1067TIP3   OH224691   4.888   4.332  13.060 -0.3302  0.1572 -0.0402
 1067TIP3    H124692   4.910   4.327  13.153  1.6840 -0.7582 -0.5170
 1067TIP3    H224693   4.829   4.258  13.046  0.2885 -0.4116  0.2887
 1068TIP3   OH224694   5.811   0.201   3.843 -0.2790  0.3089  0.2418
 1068TIP3    H124695   5.900   0.165   3.851 -0.9500 -1.9383 -1.2980
 1068TIP3    H224696   5.815   0.255   3.764 -0.2012  0.4986  0.3746
 1069TIP3   OH224697   6.715   6.569  16.978  0.3973  0.2675 -0.2051
 1069TIP3    H124698   6.684   6.600  17.064  0.7036 -0.8354  0.3189
 1069TIP3    H224699   6.648   6.506  16.950  1.0606 -0.5168 -0.0584
 1070TIP3   OH224700   6.303   2.313  12.972 -0.0612  0.7200 -0.0494
 1070TIP3    H124701   6.238   2.345  13.035 -0.6295  0.4036 -0.4596
 1070TIP3    H224702   6.256   2.245  12.923 -0.1092  1.9523 -1.8100
 1071TIP3   OH224703   1.410   3.060   4.986 -0.1304  0.0311 -0.3891
 1071TIP3    H124704   1.388   3.137   5.040  1.7438 -0.4519  1.1841
 1071TIP3    H224705   1.435   3.097   4.901  2.2229  1.4084  0.7816
 1072TIP3   OH224706   3.218   2.265  13.288  0.7867 -0.8975 -0.3701
 1072TIP3    H124707   3.136   2.217  13.278  0.7154 -1.3781  1.9923
 1072TIP3    H224708   3.196   2.341  13.341  1.7038 -0.4883 -0.5428
 1073TIP3   OH224709   4.115   2.552  15.171  0.3706  0.5619  0.0633
 1073TIP3    H124710   4.079   2.576  15.086  1.5788  1.4209 -0.2275
 1073TIP3    H224711   4.042   2.559  15.232 -0.6913 -0.7465 -0.9907
 1074TIP3   OH224712   4.604   6.734   5.109 -0.0557 -0.6716 -0.2027
 1074TIP3    H124713   4.654   6.678   5.169 -1.3245 -1.1097  0.4829
 1074TIP3    H224714   4.663   6.750   5.036  1.6093 -0.0088  1.2184
 1075TIP3   OH224715   5.596   5.644   5.875 -0.1428 -0.0158 -0.6452
 1075TIP3    H124716   5.511   5.659   5.833 -0.6954 -0.0928  0.3866
 1075TIP3    H224717   5.626   5.560   5.839 -0.9165 -0.4100 -0.4123
 1076TIP3   OH224718   3.208   4.568   3.510 -0.0990 -0.3606  0.1747
 1076TIP3    H124719   3.253   4.483   3.511  0.5673 -0.0280 -0.6726
 1076TIP3    H224720   3.182   4.580   3.419 -0.7648  0.0560  0.4144
 1077TIP3   OH224721   0.471   0.746   5.160 -0.0000  0.0226 -0.0504
 1077TIP3    H124722   0.540   0.745   5.093 -2.8312 -1.0554 -3.2209
 1077TIP3    H224723   0.423   0.665   5.146 -1.6355  0.4424  2.4392
 1078TIP3   OH224724   4.433   2.619   5.287 -0.6379 -0.5474 -0.2336
 1078TIP3    H124725   4.384   2.700   5.272 -1.6730 -0.9972  0.6233
 1078TIP3    H224726   4.398   2.557   5.222  0.2985 -0.2684 -1.0290
 1079TIP3   OH224727   5.793   0.759   3.158  0.1327 -0.5823 -0.6558
 1079TIP3    H124728   5.806   0.734   3.066 -0.9715  1.3110 -1.3732
 1079TIP3    H224729   5.798   0.854   3.158 -2.8185 -0.3132  0.7084
 1080TIP3   OH224730   4.166   3.000   2.225  1.0585  0.2978 -0.1027
 1080TIP3    H124731   4.257   2.999   2.195  0.9354  0.8334 -0.5330
 1080TIP3    H224732   4.119   2.945   2.162  1.3047 -1.1071  0.9195
 1081TIP3   OH224733   2.149   0.336  12.972 -0.3421 -0.5214 -0.5586
 1081TIP3    H124734   2.080   0.312  13.035  0.5104 -0.1215  0.5662
 1081TIP3    H224735   2.228   0.344  13.026  0.0712  1.5626 -1.4063
 1082TIP3   OH224736   1.115   6.039  11.807  0.1278  0.6314 -0.1566
 1082TIP3    H124737   1.020   6.045  11.819  0.2412  1.7861  0.2790
 1082TIP3    H224738   1.135   6.104  11.739  0.5802  0.2570 -0.3840
 1083TIP3   OH224739   3.457   5.559  12.570 -0.6154  0.8037 -0.2048
 1083TIP3    H124740   3.449   5.565  12.475  0.0616 -1.8216 -0.5026
 1083TIP3    H224741   3.374   5.521  12.599 -0.0417 -0.3325 -0.0142
 1084TIP3   OH224742   6.003   6.027  15.758  0.0223  0.1211  0.2985
 1084TIP3    H124743   5.944   6.025  15.682  0.7877 -0.0468 -0.3065
 1084TIP3    H224744   5.966   5.962  15.818 -1.8594  1.8148  1.0727
 1085TIP3   OH224745   2.149   6.726   5.777  0.1444 -0.2917  0.1496
 1085TIP3    H124746   2.217   6.717   5.843  0.3250 -1.3048 -0.1625
 1085TIP3    H224747   2.131   6.820   5.774 -0.3443 -0.2829  2.1031
 1086TIP3   OH224748   5.247   1.617  11.672  0.3247  0.1682  0.1100
 1086TIP3    H124749   5.184   1.657  11.733  0.4421  0.2425  0.1832
 1086TIP3    H224750   5.213   1.529  11.657  1.0414 -0.3288  1.3566
 1087TIP3   OH224751   5.487   4.585   0.269  0.0697  0.2241  0.5398
 1087TIP3    H124752   5.545   4.642   0.319  0.6389  1.1306 -1.0527
 1087TIP3    H224753   5.399   4.620   0.284  0.0981 -0.1494  1.6725
 1088TIP3   OH224754   3.978   4.919  16.269  0.5813 -0.0332 -0.7583
 1088TIP3    H124755   4.034   4.861  16.322 -0.2180  0.0443  0.2082
 1088TIP3    H224756   3.954   4.989  16.329  2.2529  1.8307 -2.1621
 1089TIP3   OH224757   4.346   3.161  13.745  0.4429  0.1844 -0.6054
 1089TIP3    H124758   4.312   3.079  13.779 -0.2160 -0.0803 -1.8383
 1089TIP3    H224759   4.397   3.198  13.817 -0.1324 -0.7818  0.3255
 1090TIP3   OH224760   3.117   4.708  12.466 -0.0312  0.1048 -0.4790
 1090TIP3    H124761   3.112   4.800  12.492  1.3727  0.0183  0.1678
 1090TIP3    H224762   3.193   4.704  12.409  0.2149 -0.7380 -0.0987
 1091TIP3   OH224763   1.543   0.222   2.338  0.6101  0.0388  0.1955
 1091TIP3    H124764   1.588   0.306   2.326  0.8377 -0.0393  0.4863
 1091TIP3    H224765   1.454   0.245   2.363  0.8520  0.1973  0.9415
 1092TIP3   OH224766   6.307   3.969  11.743  0.5711 -0.3439  0.1126
 1092TIP3    H124767   6.323   3.877  11.764 -0.1571 -0.6497 -0.5901
 1092TIP3    H224768   6.211   3.976  11.739  0.6362  0.1775 -0.9100
 1093TIP3   OH224769   0.172   3.849  11.890 -0.1928 -0.0925  0.1546
 1093TIP3    H124770   0.110   3.826  11.958 -0.9559 -1.2529 -0.8929
 1093TIP3    H224771   0.249   3.881  11.937 -0.7788 -0.6481  1.5306
 1094TIP3   OH224772   3.809   3.495   4.805 -0.2395 -0.1119  0.4666
 1094TIP3    H124773   3.742   3.505   4.872  0.9749  0.8324  1.5776
 1094TIP3    H224774   3.881   3.551   4.834  0.5890 -0.2136 -1.2784
 1095TIP3   OH224775   0.832   5.658  16.065 -0.0076 -0.2727 -0.0803
 1095TIP3    H124776   0.828   5.582  16.123  0.8859 -0.9784 -0.9131
 1095TIP3    H224777   0.885   5.722  16.113 -2.0981  0.5146  1.3381
 1096TIP3   OH224778   6.553   0.374   1.251  0.0899  0.8146 -0.0072
 1096TIP3    H124779   6.560   0.365   1.156  2.4780  0.1759  0.1581
 1096TIP3    H224780   6.473   0.325   1.274 -0.4135  0.8144 -1.6416
 1097TIP3   OH224781   0.911   1.464  11.218 -0.2934  0.2927  0.5927
 1097TIP3    H124782   0.859   1.385  11.203  0.5485 -0.1901  0.1607
 1097TIP3    H224783   0.971   1.467  11.144  1.3225  0.0160  1.8539
 1098TIP3   OH224784   1.632   3.714   1.205 -0.0817 -0.5621 -0.4078
 1098TIP3    H124785   1.629   3.810   1.202 -0.0641 -0.5815 -1.3365
 1098TIP3    H224786   1.711   3.695   1.255 -1.6627 -0.1195  2.4860
 1099TIP3   OH224787   6.117   0.903   1.804  0.6787 -0.0927  0.0782
 1099TIP3    H124788   6.169   0.906   1.724 -1.0230 -0.1932 -1.0816
 1099TIP3    H224789   6.163   0.841   1.861  2.1284  0.2823 -0.6414
 1100TIP3   OH224790   6.060   2.344  11.764 -0.2282  0.2012  0.0361
 1100TIP3    H124791   6.053   2.301  11.679  0.5659  0.4360 -0.1530
 1100TIP3    H224792   6.046   2.274  11.827  2.3122 -0.6393 -0.2367
 1101TIP3   OH224793   5.106   5.741  13.749 -0.4102 -0.6866  0.0405
 1101TIP3    H124794   5.042   5.678  13.716 -0.6892 -1.4917  1.9809
 1101TIP3    H224795   5.184   5.689  13.766  0.3133  0.0346 -0.9451
 1102TIP3   OH224796   1.249   1.293   3.457 -0.1406  0.1373 -0.5441
 1102TIP3    H124797   1.202   1.326   3.380 -0.0310 -0.8649 -1.0723
 1102TIP3    H224798   1.191   1.226   3.493 -0.7098  1.3962  0.9562
 1103TIP3   OH224799   4.265   6.103   0.218 -0.0568 -0.3526 -0.0380
 1103TIP3    H124800   4.221   6.073   0.298 -0.9657 -0.6366 -0.6317
 1103TIP3    H224801   4.196   6.107   0.152  0.8165 -0.8282 -1.0158
 1104TIP3   OH224802   1.637   3.497  11.429 -0.0216 -0.3660 -0.4375
 1104TIP3    H124803   1.641   3.476  11.522 -0.6125 -1.3823 -0.6311
 1104TIP3    H224804   1.616   3.414  11.386 -1.6671  0.4534 -1.3094
 1105TIP3   OH224805   0.102   1.535   5.990  0.1986  0.2810  0.8442
 1105TIP3    H124806   0.114   1.622   6.028 -1.6030  0.6420  0.6308
 1105TIP3    H224807   0.030   1.496   6.040 -0.2358 -0.3791 -0.2700
 1106TIP3   OH224808   6.472   4.137   3.336 -0.2103 -0.0958  0.0661
 1106TIP3    H124809   6.544   4.152   3.275 -0.7804 -0.4424 -0.7231
 1106TIP3    H224810   6.402   4.099   3.281  0.3272 -3.4336  1.4315
 1107TIP3   OH224811   1.850   5.208   5.160 -0.4220  0.0755 -0.2526
 1107TIP3    H124812   1.942   5.180   5.164 -0.9971 -1.9230  0.2969
 1107TIP3    H224813   1.854   5.300   5.134  1.7876  0.4427  1.1091
 1108TIP3   OH224814   4.358   6.255   4.542  0.1729  0.6915 -0.3634
 1108TIP3    H124815   4.313   6.317   4.600 -1.4267 -0.3359 -0.4448
 1108TIP3    H224816   4.344   6.170   4.582  2.4827  0.3333 -0.1670
 1109TIP3   OH224817   3.598   4.338  11.883  0.1506 -0.7704  0.1502
 1109TIP3    H124818   3.552   4.313  11.802  0.0572 -0.6288  0.1596
 1109TIP3    H224819   3.690   4.331  11.861  0.1377  0.2006 -0.2671
 1110TIP3   OH224820   0.087   5.038  11.527 -0.4626  0.4190  0.7869
 1110TIP3    H124821   0.071   5.111  11.587  2.2015  1.5710  0.2406
 1110TIP3    H224822   0.171   5.059  11.486  0.5484 -3.0734  0.7888
 1111TIP3   OH224823   3.137   5.072  17.004  0.3952 -0.1237 -0.1154
 1111TIP3    H124824   3.146   5.054  17.097 -1.8834 -2.0719 -0.1856
 1111TIP3    H224825   3.061   5.131  16.998  0.5537  0.0270 -0.7373
 1112TIP3   OH224826   0.555   5.841  15.801  0.0159 -0.6534 -0.3358
 1112TIP3    H124827   0.566   5.750  15.772 -1.0536 -0.9300  0.0951
 1112TIP3    H224828   0.462   5.859  15.791  0.4713  1.0409 -2.2145
 1113TIP3   OH224829   2.136   3.160  16.462 -0.8589  0.2758 -0.2709
 1113TIP3    H124830   2.043   3.144  16.479 -1.0246  1.1887 -0.2689
 1113TIP3    H224831   2.180   3.082  16.494 -1.5511  0.2033  0.5404
 1114TIP3   OH224832   6.694   5.035  14.472  0.5943 -0.4057 -0.1919
 1114TIP3    H124833   6.758   5.079  14.416 -0.7897  2.0178 -0.0541
 1114TIP3    H224834   6.658   4.965  14.417  1.6197 -0.2258 -1.1340
 1115TIP3   OH224835   1.681   4.570  12.921 -0.5494 -0.3458 -0.2730
 1115TIP3    H124836   1.713   4.560  12.832 -1.4216 -1.8932 -0.4354
 1115TIP3    H224837   1.745   4.523  12.975 -0.4832 -0.1354 -0.1642
 1116TIP3   OH224838   3.235   2.541   0.999 -0.5298  0.5978  0.4605
 1116TIP3    H124839   3.182   2.609   1.040 -0.5253  0.7900  0.1515
 1116TIP3    H224840   3.177   2.465   0.992 -0.8405  0.8749 -0.0765
 1117TIP3   OH224841   0.270   0.983   4.563  0.5089  0.3907 -0.8274
 1117TIP3    H124842   0.310   1.068   4.547  1.0893  0.2512 -0.1794
 1117TIP3    H224843   0.289   0.964   4.655 -0.4407 -0.0098 -0.6979
 1118TIP3   OH224844   4.327   2.973   5.696  0.4073 -0.4258  0.1928
 1118TIP3    H124845   4.316   2.944   5.787  0.7799 -1.6008 -0.1282
 1118TIP3    H224846   4.330   3.068   5.702 -1.7042 -0.3607  1.1925
 1119TIP3   OH224847   6.034   5.065   2.279  0.4097  0.6818 -0.0367
 1119TIP3    H124848   5.966   5.044   2.216  0.8030  0.2917 -0.3368
 1119TIP3    H224849   6.048   5.160   2.269 -1.8497  1.3052  1.7995
 1120TIP3   OH224850   6.809   5.143  11.278  0.2550  0.1818  0.0106
 1120TIP3    H124851   6.725   5.186  11.294  0.5902  0.7467  0.2670
 1120TIP3    H224852   6.819   5.082  11.351  0.9011  1.4112  0.9806
 1121TIP3   OH224853   5.009   3.325   3.885 -0.3373 -0.3627 -0.5645
 1121TIP3    H124854   5.094   3.370   3.884 -0.4504 -0.1474 -0.5593
 1121TIP3    H224855   4.990   3.307   3.793  0.8435 -2.5674 -0.4511
 1122TIP3   OH224856   3.905   5.828  15.903 -0.1486 -0.0437 -0.3811
 1122TIP3    H124857   3.956   5.867  15.974  0.9890 -2.3479  0.1491
 1122TIP3    H224858   3.950   5.855  15.823  1.5283 -1.3772  0.0441
 1123TIP3   OH224859   5.300   1.914   3.042 -0.0712  0.1095  0.2235
 1123TIP3    H124860   5.374   1.870   3.083 -0.3354  0.7906  1.4696
 1123TIP3    H224861   5.229   1.850   3.044 -0.2846  0.3671  1.4909
 1124TIP3   OH224862   3.359   4.109   1.789 -0.3741  0.2793  0.0898
 1124TIP3    H124863   3.453   4.099   1.771 -0.3551  0.8445 -0.1210
 1124TIP3    H224864   3.331   4.021   1.814  0.4664  0.3510  1.3860
 1125TIP3   OH224865   4.674   4.897   2.733 -0.0873  0.1195 -0.2536
 1125TIP3    H124866   4.679   4.803   2.719  1.2106  0.2016 -0.4900
 1125TIP3    H224867   4.638   4.906   2.821  0.6594 -0.6295  0.1411
 1126TIP3   OH224868   3.178   6.163   0.372  0.7067 -0.2309 -0.4163
 1126TIP3    H124869   3.271   6.183   0.367  1.3141 -1.7748  2.5854
 1126TIP3    H224870   3.139   6.240   0.414  0.9526 -0.3386  0.0134
 1127TIP3   OH224871   6.736   4.010   3.759 -0.3052 -0.3303  0.4802
 1127TIP3    H124872   6.682   3.931   3.763 -0.5463 -0.1708  0.3609
 1127TIP3    H224873   6.816   3.982   3.714 -1.0113 -0.1519 -0.9080
 1128TIP3   OH224874   1.586   2.906   5.161 -0.4025 -0.0950 -0.1737
 1128TIP3    H124875   1.527   2.973   5.126 -1.6141 -1.7888 -1.5217
 1128TIP3    H224876   1.605   2.936   5.250 -1.1956  1.8376 -0.6066
 1129TIP3   OH224877   1.806   2.459  14.713 -0.3084 -0.7082 -0.0144
 1129TIP3    H124878   1.778   2.456  14.621  1.4718 -0.6331 -0.5886
 1129TIP3    H224879   1.895   2.426  14.712  1.2946  3.1004  1.0309
 1130TIP3   OH224880   5.929   2.946  13.331 -0.2795  0.1564  0.2571
 1130TIP3    H124881   5.921   2.876  13.267  0.3193 -0.5066  0.9020
 1130TIP3    H224882   5.867   2.922  13.400  1.3520 -0.8107  1.4368
 1131TIP3   OH224883   6.286   5.559   0.510  0.4940  0.4895 -0.6314
 1131TIP3    H124884   6.321   5.542   0.597  1.5735  0.6646 -1.0193
 1131TIP3    H224885   6.196   5.526   0.514  1.1244 -1.2986 -0.0396
 1132TIP3   OH224886   3.130   2.610   4.396 -0.0514  0.3256 -0.3388
 1132TIP3    H124887   3.069   2.547   4.358  0.4152  1.0739 -2.4349
 1132TIP3    H224888   3.164   2.660   4.322  3.0560  0.0282  0.7265
 1133TIP3   OH224889   3.464   1.841  15.446  0.0703 -0.2482 -0.7156
 1133TIP3    H124890   3.485   1.889  15.527 -2.1728  0.1093 -0.2889
 1133TIP3    H224891   3.473   1.749  15.470 -1.0096 -0.1577  0.1006
 1134TIP3   OH224892   3.856   2.130  16.131  0.4818 -0.4316 -0.3039
 1134TIP3    H124893   3.796   2.081  16.188  1.1506 -0.7076  0.1773
 1134TIP3    H224894   3.820   2.119  16.043  0.2515 -1.2334 -0.1156
 1135TIP3   OH224895   6.416   6.189   4.795 -0.0997 -0.5691 -0.6211
 1135TIP3    H124896   6.413   6.248   4.720  1.8173  0.5475  0.0859
 1135TIP3    H224897   6.404   6.247   4.871  1.6580 -1.0565  0.0892
 1136TIP3   OH224898   2.669   5.157   0.373  0.1795 -0.1646  0.1804
 1136TIP3    H124899   2.666   5.061   0.369  0.6221 -0.2528  1.4299
 1136TIP3    H224900   2.763   5.177   0.379  0.0240  0.2497  1.4618
 1137TIP3   OH224901   2.013   0.338   5.998  0.3798  0.5560  0.5942
 1137TIP3    H124902   1.938   0.302   6.045  0.0722  0.7273  0.2418
 1137TIP3    H224903   1.989   0.429   5.979 -0.0379  0.1594 -0.9535
 1138TIP3   OH224904   4.166   3.167  12.260 -0.5761 -0.0748  0.2457
 1138TIP3    H124905   4.253   3.184  12.297 -0.9030 -0.7585  1.3933
 1138TIP3    H224906   4.105   3.188  12.331 -1.4145  1.0690 -0.7715
 1139TIP3   OH224907   2.454   3.141   0.381  0.3326 -0.0543  0.0889
 1139TIP3    H124908   2.444   3.110   0.472 -0.5330 -0.6637 -0.1950
 1139TIP3    H224909   2.383   3.097   0.334 -1.4371  2.8672 -0.2280
 1140TIP3   OH224910   0.919   5.178  12.765  0.1386  0.3088  0.4945
 1140TIP3    H124911   0.900   5.117  12.693 -0.0149  0.8956  0.0312
 1140TIP3    H224912   0.868   5.256  12.744  0.2983  0.5822  1.1125
 1141TIP3   OH224913   5.843   4.461  11.446 -1.0283  0.1528 -0.1606
 1141TIP3    H124914   5.861   4.488  11.356 -0.8600  0.8487  0.0757
 1141TIP3    H224915   5.787   4.530  11.482 -0.8153  0.0561  0.3706
 1142TIP3   OH224916   0.926   0.472  11.483 -0.6994 -0.0183  0.0906
 1142TIP3    H124917   1.021   0.456  11.480 -0.8024 -1.3420  2.0747
 1142TIP3    H224918   0.916   0.542  11.549 -1.0259  1.3260 -1.3256
 1143TIP3   OH224919   0.916   2.013  15.436 -0.3408  0.3929 -0.5124
 1143TIP3    H124920   0.843   1.956  15.413  0.3584 -1.0933  0.8257
 1143TIP3    H224921   0.965   1.965  15.502  1.8903  1.3406 -1.3817
 1144TIP3   OH224922   0.033   0.160  12.154  0.2223  0.1508  0.0550
 1144TIP3    H124923   0.127   0.174  12.158  0.0517  1.1498  3.0165
 1144TIP3    H224924  -0.005   0.247  12.172 -1.3258 -0.1493 -1.4011
 1145TIP3   OH224925   6.557   2.516  10.803 -0.1506  0.5511  0.3761
 1145TIP3    H124926   6.584   2.457  10.733 -1.5458 -0.1805  0.4029
 1145TIP3    H224927   6.629   2.514  10.866 -0.3672 -1.5488  0.6194
 1146TIP3   OH224928   5.398   6.369  15.185  0.3617 -0.4348  0.1596
 1146TIP3    H124929   5.456   6.297  15.163  1.2663 -0.4415  2.2944
 1146TIP3    H224930   5.455   6.436  15.222 -0.7867  0.1981  0.8597
 1147TIP3   OH224931   6.394   0.758  16.853 -0.0727  0.0066  0.0692
 1147TIP3    H124932   6.424   0.668  16.860 -0.2484  0.0797  2.7988
 1147TIP3    H224933   6.445   0.806  16.919 -1.4898  1.4525  0.1793
 1148TIP3   OH224934   0.478   3.894  13.941  0.6755  0.1930 -0.2401
 1148TIP3    H124935   0.487   3.882  13.847  1.0364 -0.8077 -0.0899
 1148TIP3    H224936   0.386   3.917  13.955  0.0409 -1.9379 -0.6256
 1149TIP3   OH224937   3.091   0.711  16.264 -0.5667  0.0527 -0.5140
 1149TIP3    H124938   3.146   0.639  16.296 -1.6684 -0.2294  0.9053
 1149TIP3    H224939   3.026   0.668  16.208  0.3106  0.3174 -1.7740
 1150TIP3   OH224940   2.099   6.151  12.324  0.2219 -0.4385  0.4638
 1150TIP3    H124941   2.183   6.180  12.287 -0.6679  0.1047 -1.2289
 1150TIP3    H224942   2.123   6.110  12.407  2.3333 -1.5099 -0.5659
 1151TIP3   OH224943   0.736   4.255   0.127  0.1385 -0.0870 -0.2075
 1151TIP3    H124944   0.690   4.275   0.045 -0.0687  0.2380 -0.0130
 1151TIP3    H224945   0.733   4.337   0.176 -1.5175 -0.8108  0.9837
 1152TIP3   OH224946   0.712   1.147  16.430 -0.0924 -0.3868 -0.1003
 1152TIP3    H124947   0.690   1.076  16.370  1.7111 -1.0074 -0.0961
 1152TIP3    H224948   0.718   1.106  16.516 -1.5831  0.2935  0.3678
 1153TIP3   OH224949   3.106   4.858   4.395  0.2444 -0.6061 -0.0398
 1153TIP3    H124950   3.044   4.914   4.347 -0.8290 -1.0588  0.7631
 1153TIP3    H224951   3.083   4.872   4.487  1.0727 -1.1179  0.2471
 1154TIP3   OH224952   5.295   6.691  14.186 -0.4227 -0.1916 -0.0457
 1154TIP3    H124953   5.294   6.709  14.280 -1.8358  0.0556 -0.0850
 1154TIP3    H224954   5.228   6.624  14.174 -1.4244  0.9530 -1.0766
 1155TIP3   OH224955   0.693   5.335  17.019  0.2767 -0.4415  0.0531
 1155TIP3    H124956   0.683   5.246  16.985  1.0177 -0.4579 -0.1276
 1155TIP3    H224957   0.772   5.369  16.978  0.1912  0.1851  0.3814
 1156TIP3   OH224958   3.273   6.369  16.721 -0.3400  0.5156 -0.1762
 1156TIP3    H124959   3.179   6.359  16.731 -0.7312  1.5703 -2.2287
 1156TIP3    H224960   3.298   6.297  16.662 -0.3681  1.7477 -1.7646
 1157TIP3   OH224961   2.689   5.154  11.447 -0.1907  0.1273 -0.8500
 1157TIP3    H124962   2.686   5.060  11.433 -1.5798 -0.0264  0.3280
 1157TIP3    H224963   2.777   5.179  11.417  0.3852 -1.5996 -0.7343
 1158TIP3   OH224964   5.385   4.574  15.336 -0.1152  0.3458  1.2100
 1158TIP3    H124965   5.469   4.562  15.380  0.5757  0.3995 -0.0520
 1158TIP3    H224966   5.385   4.666  15.309  0.9464 -0.3674 -1.6765
 1159TIP3   OH224967   2.520   1.664   1.729  0.4864  0.2811  0.2811
 1159TIP3    H124968   2.454   1.598   1.707  1.0005 -0.6972  1.5833
 1159TIP3    H224969   2.550   1.640   1.816  2.0242  1.1599  0.0276
 1160TIP3   OH224970   3.030   6.728   2.561 -0.2522 -0.3761 -0.3495
 1160TIP3    H124971   3.067   6.671   2.493 -0.7948 -0.9530 -0.1715
 1160TIP3    H224972   2.972   6.671   2.611 -0.5584  0.2619  0.0344
 1161TIP3   OH224973   5.348   3.077  14.513  0.5159 -0.0417 -0.3360
 1161TIP3    H124974   5.417   3.013  14.498 -0.4206 -1.3893  0.8631
 1161TIP3    H224975   5.319   3.102  14.425 -0.4259 -2.7528 -0.8731
 1162TIP3   OH224976   2.523   4.015  11.989  0.3732  0.0082 -0.4843
 1162TIP3    H124977   2.615   3.990  11.977  0.2092 -0.3107 -1.1527
 1162TIP3    H224978   2.511   4.091  11.932  0.8003  1.5193  1.3366
 1163TIP3   OH224979   1.271   0.062   6.357  0.0695 -0.4904 -0.1788
 1163TIP3    H124980   1.346   0.115   6.330  0.4466 -0.4247  0.9517
 1163TIP3    H224981   1.262   0.080   6.450 -0.2817 -1.8267  0.0615
 1164TIP3   OH224982   2.933   1.886  13.484 -0.7085 -0.2520 -0.0939
 1164TIP3    H124983   3.004   1.950  13.487 -1.0039  0.1411 -1.1266
 1164TIP3    H224984   2.934   1.845  13.571 -1.2488  1.9582  1.0448
 1165TIP3   OH224985   6.381   2.441  17.017  0.0959  0.2435 -0.6026
 1165TIP3    H124986   6.394   2.445  16.922 -0.5021 -1.4213 -0.7824
 1165TIP3    H224987   6.332   2.521  17.037  1.3769  1.2885 -1.4666
 1166TIP3   OH224988   2.978   6.616  16.550 -0.2413 -0.6717  0.2014
 1166TIP3    H124989   3.043   6.612  16.480  1.2969 -0.1083  1.5377
 1166TIP3    H224990   2.893   6.616  16.505  0.7047  1.6784 -1.7430
 1167TIP3   OH224991   2.315   1.518  15.065 -0.4483  0.5578  0.2429
 1167TIP3    H124992   2.240   1.518  15.124  0.6793 -0.3332  1.7558
 1167TIP3    H224993   2.385   1.559  15.115  1.0270 -1.7757  0.2562
 1168TIP3   OH224994   2.754   5.527   1.893 -0.1143  0.3867  0.7867
 1168TIP3    H124995   2.827   5.466   1.889 -1.1028 -0.7835 -1.9323
 1168TIP3    H224996   2.701   5.497   1.966  0.5006 -0.7118  0.7920
 1169TIP3   OH224997   1.718   3.850   6.380  0.5371 -0.2813  0.5438
 1169TIP3    H124998   1.786   3.900   6.334  0.3744 -1.8107 -1.4871
 1169TIP3    H224999   1.682   3.912   6.443  2.4505  1.1837  0.3105
 1170TIP3   OH225000   6.717   5.434  15.888  0.7532  0.5804  0.1526
 1170TIP3    H125001   6.733   5.362  15.827  1.0054  0.3426  0.5000
 1170TIP3    H225002   6.681   5.504  15.833 -0.9090 -0.3059  0.0385
 1171TIP3   OH225003   1.866   3.871   3.266  0.6385  0.2242  0.0506
 1171TIP3    H125004   1.844   3.876   3.358 -0.1775 -0.1869 -0.1165
 1171TIP3    H225005   1.808   3.934   3.223 -0.8053 -1.4086 -0.4873
 1172TIP3   OH225006   6.660   6.287   0.454 -0.6568  0.1580  0.1255
 1172TIP3    H125007   6.745   6.330   0.457 -0.1866 -0.7800  1.5361
 1172TIP3    H225008   6.605   6.339   0.512 -1.5463  1.6426 -1.9194
 1173TIP3   OH225009   3.080   2.562  15.059  0.0764 -0.0722  0.1982
 1173TIP3    H125010   3.058   2.522  14.975 -1.4706 -2.7658  1.7311
 1173TIP3    H225011   3.001   2.611  15.083  0.5369  0.7366  0.0866
 1174TIP3   OH225012   2.630   0.448  12.402  0.3422  0.0412  0.1672
 1174TIP3    H125013   2.667   0.427  12.316 -1.1063  0.4551 -0.5902
 1174TIP3    H225014   2.584   0.531  12.388  1.9766  1.3274  1.9299
 1175TIP3   OH225015   3.218   3.958  12.695  0.4203 -0.5270  0.0569
 1175TIP3    H125016   3.265   3.997  12.768  0.2576 -0.6881  0.2510
 1175TIP3    H225017   3.245   4.008  12.619 -1.0135  1.0622  0.5275
 1176TIP3   OH225018   4.096   4.650   5.219 -0.3992  0.0560  0.3318
 1176TIP3    H125019   4.173   4.647   5.161 -0.0303  1.1042  0.7493
 1176TIP3    H225020   4.026   4.684   5.164 -0.3854 -0.2052  0.1488
 1177TIP3   OH225021   4.219   3.685   2.713 -0.1318 -0.0155  0.2313
 1177TIP3    H125022   4.234   3.596   2.746  0.1258  0.9116  2.8526
 1177TIP3    H225023   4.125   3.690   2.702 -0.1449 -0.6422 -0.0008
 1178TIP3   OH225024   0.511   0.749  13.905 -0.2367  0.1696 -0.0315
 1178TIP3    H125025   0.460   0.820  13.945 -1.0810 -0.8511  0.7495
 1178TIP3    H225026   0.586   0.738  13.963 -0.5651 -0.1641  0.3301
 1179TIP3   OH225027   5.398   2.068   2.829  1.1966 -0.2477  0.0296
 1179TIP3    H125028   5.473   2.087   2.885  1.2315 -2.4102  0.8129
 1179TIP3    H225029   5.339   2.017   2.885 -0.8446  1.2759 -0.6006
 1180TIP3   OH225030   3.153   6.357   6.275  0.5624 -0.1990  0.5078
 1180TIP3    H125031   3.099   6.283   6.303 -0.9039  1.5566  2.6650
 1180TIP3    H225032   3.128   6.371   6.184  0.0083 -1.6059  0.4121
 1181TIP3   OH225033   0.085   5.109  12.729 -0.6192 -0.0022  0.0837
 1181TIP3    H125034   0.165   5.084  12.682 -0.5516  1.2007 -0.4783
 1181TIP3    H225035   0.086   5.204  12.728 -1.5269  0.0250  1.0155
 1182TIP3   OH225036   3.146   5.913   4.898 -0.1260 -0.0930 -0.2120
 1182TIP3    H125037   3.231   5.881   4.868  0.9817  2.0519  0.4560
 1182TIP3    H225038   3.146   5.898   4.993 -1.5889 -2.3400 -0.4753
 1183TIP3   OH225039   6.816   2.132  11.720 -0.2385 -0.3937 -0.0198
 1183TIP3    H125040   6.869   2.209  11.699 -0.8978 -0.7000 -3.2577
 1183TIP3    H225041   6.783   2.150  11.809  1.8146  1.7374  0.4071
 1184TIP3   OH225042   2.270   3.690   0.074  0.4242  0.2024 -0.2909
 1184TIP3    H125043   2.232   3.727   0.153 -0.3004  0.9591 -0.9768
 1184TIP3    H225044   2.210   3.621   0.048  0.8285 -0.2601 -0.0136
 1185TIP3   OH225045   2.709   0.907   6.505  0.5968 -0.2664  0.1233
 1185TIP3    H125046   2.799   0.915   6.535  0.8704 -0.0014 -0.7348
 1185TIP3    H225047   2.683   0.819   6.532  0.7507  0.0407  1.3023
 1186TIP3   OH225048   6.207   1.270   4.822  0.4877  0.1566  0.1722
 1186TIP3    H125049   6.115   1.287   4.801  0.0031 -2.6107 -0.3865
 1186TIP3    H225050   6.213   1.281   4.917 -0.5166 -0.0192  0.2639
 1187TIP3   OH225051   2.316   1.785   5.841  0.1266 -0.1090 -0.6554
 1187TIP3    H125052   2.249   1.849   5.817  0.0330  0.4322  0.9420
 1187TIP3    H225053   2.373   1.831   5.902  0.6804 -1.2333 -0.2870
 1188TIP3   OH225054   0.361   4.455   2.404 -0.0940  0.2419 -0.0330
 1188TIP3    H125055   0.324   4.534   2.365  3.0234  1.7786 -0.2501
 1188TIP3    H225056   0.321   4.382   2.357 -0.0073  1.8647 -2.7802
 1189TIP3   OH225057   1.206   6.448   3.371 -0.2397  0.1846 -0.1073
 1189TIP3    H125058   1.179   6.369   3.324 -2.3146  0.0172  1.2164
 1189TIP3    H225059   1.124   6.487   3.401  0.8534  1.7316  1.0259
 1190TIP3   OH225060   5.500   2.918   3.584  0.5208 -0.2130 -0.4137
 1190TIP3    H125061   5.506   2.977   3.510  2.1177  1.2818  0.8319
 1190TIP3    H225062   5.479   2.975   3.659  1.9727 -1.2041  0.8068
 1191TIP3   OH225063   1.806   0.180   3.932  0.3032 -0.2827  0.3261
 1191TIP3    H125064   1.798   0.175   4.027 -0.2416  1.3992  0.3943
 1191TIP3    H225065   1.879   0.240   3.917 -1.0596  1.2942 -0.2829
 1192TIP3   OH225066   0.188   4.594   3.699 -0.3910  0.4551  0.1831
 1192TIP3    H125067   0.267   4.557   3.737 -0.4474 -0.8386 -0.8620
 1192TIP3    H225068   0.126   4.520   3.696 -1.0285  0.9968 -0.5942
 1193TIP3   OH225069   5.603   5.880   0.956 -0.1856  0.4017  0.5631
 1193TIP3    H125070   5.538   5.938   0.918  0.1199 -0.2738 -1.0822
 1193TIP3    H225071   5.564   5.792   0.949  0.4972  0.0988  0.4520
 1194TIP3   OH225072   4.178   3.567  16.707 -0.0303  0.1834  0.3103
 1194TIP3    H125073   4.185   3.660  16.728 -1.2315  1.0361 -2.7022
 1194TIP3    H225074   4.220   3.558  16.621 -1.4618 -1.7227 -0.2537
 1195TIP3   OH225075   5.112   2.668  14.450  0.1779 -0.6214  1.0292
 1195TIP3    H125076   5.121   2.735  14.382  3.2329 -0.5783  1.3263
 1195TIP3    H225077   5.018   2.651  14.455 -0.3496  0.9019 -1.6905
 1196TIP3   OH225078   1.149   5.031  13.518 -0.5104  0.0279  0.5645
 1196TIP3    H125079   1.127   5.088  13.444 -0.1112 -0.0851  0.3516
 1196TIP3    H225080   1.115   4.945  13.492 -1.9730  0.3610  1.3098
 1197TIP3   OH225081   1.521   6.441  12.028 -0.1243  0.8135  0.0215
 1197TIP3    H125082   1.577   6.399  11.963  0.0098  1.5515 -0.3467
 1197TIP3    H225083   1.563   6.525  12.045 -1.1859  1.4337 -0.3477
 1198TIP3   OH225084   3.124   0.361  15.481  0.6370  0.0810 -0.4188
 1198TIP3    H125085   3.161   0.342  15.567  2.4032 -0.5755 -1.2981
 1198TIP3    H225086   3.173   0.438  15.450  0.1836  0.1665 -0.9447
 1199TIP3   OH225087   3.467   3.713  15.816  0.4328  0.1862 -0.2791
 1199TIP3    H125088   3.411   3.775  15.769  0.8767  0.6518 -0.2137
 1199TIP3    H225089   3.530   3.683  15.750  0.4897  0.1430 -0.2058
 1200TIP3   OH225090   4.184   3.717   0.174 -0.8982  0.5772 -0.1469
 1200TIP3    H125091   4.235   3.698   0.095 -0.6890  1.8603 -0.3418
 1200TIP3    H225092   4.130   3.639   0.188  0.2277 -0.3161 -0.6360
 1201TIP3   OH225093   2.849   1.949  12.214 -0.2458  0.2615  0.0827
 1201TIP3    H125094   2.883   1.859  12.211  1.0465  0.7347 -0.0706
 1201TIP3    H225095   2.905   1.993  12.278 -0.6752  1.0426 -0.0720
 1202TIP3   OH225096   4.113   1.576   6.013  0.1973 -0.1083  0.2749
 1202TIP3    H125097   4.062   1.657   6.018  0.8823  0.3203  0.5278
 1202TIP3    H225098   4.203   1.604   6.031  0.4513 -0.9178  0.2824
 1203TIP3   OH225099   3.516   4.396   4.793  0.2489  0.0004 -0.3031
 1203TIP3    H125100   3.563   4.479   4.798  0.9720 -0.4567  2.4038
 1203TIP3    H225101   3.426   4.419   4.816  0.4162  0.0897  0.2917
 1204TIP3   OH225102   0.349   5.979  16.363 -0.0431  0.5959 -0.1157
 1204TIP3    H125103   0.406   6.056  16.361  1.2625 -0.2732  1.1817
 1204TIP3    H225104   0.387   5.923  16.432 -0.4315 -1.5824 -1.5654
 1205TIP3   OH225105   5.591   1.927   2.026 -0.4892 -0.8423 -0.4542
 1205TIP3    H125106   5.607   1.841   2.065 -0.9899 -0.7584 -0.0587
 1205TIP3    H225107   5.496   1.933   2.019 -0.5322  0.1481  0.6161
 1206TIP3   OH225108   2.008   4.893   0.182  0.4745 -0.0066 -0.1161
 1206TIP3    H125109   2.043   4.945   0.254  1.4599 -0.5894 -0.1555
 1206TIP3    H225110   2.085   4.855   0.140 -0.1923 -3.1455  1.1596
 1207TIP3   OH225111   1.402   0.022  15.229 -0.5405 -0.3775  0.4845
 1207TIP3    H125112   1.309   0.004  15.242 -0.2298 -0.4353  3.0338
 1207TIP3    H225113   1.414   0.110  15.265  0.3145 -0.1817 -0.2517
 1208TIP3   OH225114   3.224   1.460  14.284  0.1249  0.1732 -0.9253
 1208TIP3    H125115   3.207   1.372  14.316  0.0613  0.6231  0.3483
 1208TIP3    H225116   3.312   1.455  14.246 -0.2246 -0.6262 -1.6523
 1209TIP3   OH225117   4.867   0.394   0.742  0.1871  0.1876  0.4753
 1209TIP3    H125118   4.800   0.357   0.799 -0.4348  1.6712  0.7553
 1209TIP3    H225119   4.890   0.323   0.682 -0.2514 -0.9270  1.5941
 1210TIP3   OH225120   6.114   5.247   3.431  0.4868  0.0419  0.1742
 1210TIP3    H125121   6.026   5.253   3.469  0.2448  0.6969 -0.4755
 1210TIP3    H225122   6.166   5.203   3.498 -0.3284 -0.3223  0.5807
 1211TIP3   OH225123   1.804   4.838  16.669  0.3314  0.7517 -0.1255
 1211TIP3    H125124   1.849   4.761  16.634 -2.8157 -1.6363  0.6799
 1211TIP3    H225125   1.824   4.836  16.763 -1.4794 -0.4938  0.2903
 1212TIP3   OH225126   0.269   6.434  16.884 -0.3331 -0.0041 -0.4362
 1212TIP3    H125127   0.322   6.361  16.851  1.1158  0.7579  0.1263
 1212TIP3    H225128   0.231   6.402  16.966  2.0832  0.5365  0.9832
 1213TIP3   OH225129   2.007   6.629  13.476 -0.3529 -0.1406 -0.3364
 1213TIP3    H125130   2.094   6.661  13.452 -0.1467 -0.9431 -0.6856
 1213TIP3    H225131   2.023   6.565  13.546 -0.8220  1.0434  0.8981
 1214TIP3   OH225132   2.112   0.342  16.883  0.4306  0.2093  0.6618
 1214TIP3    H125133   2.105   0.427  16.841  1.8450  0.1256  0.1921
 1214TIP3    H225134   2.156   0.286  16.818 -1.5590 -1.2421  0.4774
 1215TIP3   OH225135   2.569   1.965   5.080 -0.2760 -0.0985 -0.6300
 1215TIP3    H125136   2.492   1.909   5.077  0.2564 -0.7948 -1.9287
 1215TIP3    H225137   2.539   2.050   5.047 -0.0769 -0.9296 -3.1609
 1216TIP3   OH225138   1.851   4.567  16.238 -0.0131 -0.0700  0.0107
 1216TIP3    H125139   1.890   4.505  16.299 -0.5573  1.1132  1.6768
 1216TIP3    H225140   1.763   4.532  16.221 -0.2181  0.0594  0.7259
 1217TIP3   OH225141   4.510   6.756   1.506 -0.4696  0.5320 -0.1615
 1217TIP3    H125142   4.460   6.837   1.494 -1.1418 -0.0028 -1.1020
 1217TIP3    H225143   4.484   6.701   1.432  1.4795  0.2040 -0.6447
 1218TIP3   OH225144   6.629   5.777  12.109  0.5674 -0.0964 -0.5312
 1218TIP3    H125145   6.628   5.870  12.131 -1.7487 -0.3536  0.7650
 1218TIP3    H225146   6.537   5.753  12.105  1.0477 -2.9454  1.9669
 1219TIP3   OH225147   2.684   6.789  15.869  0.8848 -0.5747  0.0504
 1219TIP3    H125148   2.725   6.875  15.883 -1.7096  0.8042 -0.2059
 1219TIP3    H225149   2.714   6.763  15.782  1.2286  0.3560 -0.1287
 1220TIP3   OH225150   5.897   0.760  11.396 -0.2793  0.4533 -0.0343
 1220TIP3    H125151   5.972   0.752  11.338  1.2277  1.2153  1.7157
 1220TIP3    H225152   5.860   0.846  11.376  0.5361  0.9256  0.4456
 1221TIP3   OH225153   1.645   1.386   3.899 -0.2458  0.0232 -0.7570
 1221TIP3    H125154   1.681   1.349   3.979 -1.0591 -0.2719 -0.5171
 1221TIP3    H225155   1.663   1.321   3.832 -0.3518 -0.1334 -0.6333
 1222TIP3   OH225156   3.389   2.798   1.183  0.5275 -0.0574 -0.1430
 1222TIP3    H125157   3.297   2.814   1.160  0.3725  1.7791  1.5401
 1222TIP3    H225158   3.391   2.706   1.209 -0.6645 -0.3300 -0.9375
 1223TIP3   OH225159   5.252   2.044   2.310  0.7431 -0.0048 -0.0151
 1223TIP3    H125160   5.304   2.124   2.307  0.1526  0.3725 -3.1268
 1223TIP3    H225161   5.162   2.073   2.293  0.4948 -1.2699 -1.0487
 1224TIP3   OH225162   1.644   1.714   2.543  0.2191 -0.7864  0.1684
 1224TIP3    H125163   1.729   1.714   2.586  0.0834  0.4237  0.4822
 1224TIP3    H225164   1.605   1.798   2.567 -1.9650 -2.1329  1.8189
 1225TIP3   OH225165   0.568   1.686   4.149 -0.1639  0.7223  0.6747
 1225TIP3    H125166   0.662   1.669   4.151 -0.3864 -0.7466 -0.0753
 1225TIP3    H225167   0.557   1.766   4.201  1.4566  0.7700  0.9960
 1226TIP3   OH225168   0.464   4.463  15.653 -0.3503 -0.1104  0.1082
 1226TIP3    H125169   0.456   4.367  15.648 -3.3465  0.0283  0.4396
 1226TIP3    H225170   0.412   4.495  15.579  2.5444  1.3476 -1.4836
 1227TIP3   OH225171   6.060   3.399   2.834  0.0543  0.1425 -0.3674
 1227TIP3    H125172   6.000   3.433   2.768 -1.6490 -0.3436  0.8388
 1227TIP3    H225173   6.074   3.308   2.809 -2.4649 -0.7468  1.0911
 1228TIP3   OH225174   4.700   1.257   1.183 -0.1253  0.8683 -0.4990
 1228TIP3    H125175   4.665   1.329   1.131  2.7388  2.2237 -0.7317
 1228TIP3    H225176   4.742   1.199   1.120 -0.1131  0.3798 -0.0512
 1229TIP3   OH225177   3.974   0.230  12.022 -0.9420  0.1777 -0.2304
 1229TIP3    H125178   3.880   0.230  12.036 -1.1076 -1.1074 -1.1552
 1229TIP3    H225179   3.994   0.321  11.999 -2.1425  0.2457 -1.1222
 1230TIP3   OH225180   4.239   6.458  15.427  0.2095 -0.7777  0.1073
 1230TIP3    H125181   4.291   6.406  15.488 -0.0697 -0.2862  0.7807
 1230TIP3    H225182   4.233   6.545  15.468  1.2951  0.0225 -1.3462
 1231TIP3   OH225183   4.403   5.137   1.695 -0.7996  0.1318 -0.3204
 1231TIP3    H125184   4.426   5.137   1.602  0.6088  2.5551 -0.0599
 1231TIP3    H225185   4.310   5.161   1.697  0.0332  4.0797 -1.1133
 1232TIP3   OH225186   0.092   1.844   3.078 -0.2287  0.3320 -0.4316
 1232TIP3    H125187   0.151   1.910   3.115  0.1864  0.1380 -0.7358
 1232TIP3    H225188   0.029   1.827   3.148 -0.2836  0.9786 -0.3189
 1233TIP3   OH225189   3.963   0.477  11.900 -0.1574  0.3760  0.2786
 1233TIP3    H125190   3.887   0.492  11.844  0.5782  0.2690 -0.7958
 1233TIP3    H225191   4.038   0.495  11.842  0.6260  1.0016  1.4512
 1234TIP3   OH225192   0.978   2.073   4.540 -0.7323  1.0019 -0.1755
 1234TIP3    H125193   0.977   2.036   4.451 -0.5590  0.9027 -0.1360
 1234TIP3    H225194   1.021   2.158   4.531  0.6426  0.3614  0.0597
 1235TIP3   OH225195   6.626   6.585   1.207 -0.2788  0.0588  0.2106
 1235TIP3    H125196   6.601   6.590   1.115 -0.9815  1.6431  0.4447
 1235TIP3    H225197   6.543   6.598   1.254  0.4787  2.3556  1.0310
 1236TIP3   OH225198   5.471   5.457  14.208 -0.6360 -0.6011  0.4106
 1236TIP3    H125199   5.386   5.490  14.177 -0.3500 -0.4280 -0.1861
 1236TIP3    H225200   5.463   5.460  14.303 -0.7215  0.9454  0.3814
 1237TIP3   OH225201   3.551   1.587  14.900 -0.5360  0.6454 -0.1257
 1237TIP3    H125202   3.520   1.515  14.845 -1.9175 -0.6754  2.2374
 1237TIP3    H225203   3.620   1.548  14.953 -1.6229  0.8771  1.5191
 1238TIP3   OH225204   5.710   5.880  10.577 -0.5529  0.5093 -0.5612
 1238TIP3    H125205   5.690   5.800  10.529 -0.3959 -0.1880  0.4943
 1238TIP3    H225206   5.733   5.944  10.510 -0.3454 -0.4272 -1.4004
 1239TIP3   OH225207   5.260   1.943  14.715 -0.2649 -0.4529  0.2944
 1239TIP3    H125208   5.228   1.853  14.707 -2.7710  0.4051 -0.4585
 1239TIP3    H225209   5.240   1.968  14.805  3.1470 -1.4717  1.5014
 1240TIP3   OH225210   1.982   4.229   4.737 -0.1034  0.2183  0.0137
 1240TIP3    H125211   1.965   4.321   4.756 -0.2595  0.1627  0.1526
 1240TIP3    H225212   2.056   4.229   4.676 -0.8237  0.4816 -0.8766
 1241TIP3   OH225213   1.574   6.113  13.880 -0.2093 -0.2124 -0.3944
 1241TIP3    H125214   1.596   6.203  13.904 -0.4522 -0.5898  1.3693
 1241TIP3    H225215   1.658   6.071  13.863 -0.0058  0.0466 -0.0526
 1242TIP3   OH225216   0.707   5.189  12.531  0.0272  0.4162  0.3764
 1242TIP3    H125217   0.765   5.114  12.519  1.5020  1.5139  0.4265
 1242TIP3    H225218   0.630   5.153  12.574  0.6238 -1.0954  0.2428
 1243TIP3   OH225219   0.248   2.990   4.145 -0.0632 -0.5448 -0.8733
 1243TIP3    H125220   0.247   3.007   4.051  0.0649  0.7386 -0.6591
 1243TIP3    H225221   0.192   3.058   4.182  0.6603 -0.4483  0.0688
 1244TIP3   OH225222   6.502   5.480  10.518 -0.2617 -0.2786  0.1646
 1244TIP3    H125223   6.495   5.435  10.434 -1.2433  0.0114  0.0732
 1244TIP3    H225224   6.538   5.566  10.497 -3.1644  0.9287 -0.4423
 1245TIP3   OH225225   4.366   1.767  14.014 -0.4130 -0.4954  0.1564
 1245TIP3    H125226   4.436   1.704  13.999 -0.8956 -1.1495  0.5814
 1245TIP3    H225227   4.410   1.852  14.016  0.6116 -1.0091  1.9028
 1246TIP3   OH225228   3.575   4.456   0.847  0.1793  0.0681  0.0365
 1246TIP3    H125229   3.482   4.473   0.831  0.5338 -0.0229 -2.6918
 1246TIP3    H225230   3.594   4.379   0.793  1.9573  0.4351  0.0890
 1247TIP3   OH225231   3.321   2.242   3.502  0.3861  0.3866  0.6678
 1247TIP3    H125232   3.399   2.262   3.450  2.2945 -3.0671  1.9048
 1247TIP3    H225233   3.263   2.196   3.442  0.0169  1.4420  0.1916
 1248TIP3   OH225234   0.221   4.245   5.504 -0.6924 -0.1277 -0.2264
 1248TIP3    H125235   0.194   4.168   5.454  0.5815  0.8038 -2.5025
 1248TIP3    H225236   0.278   4.210   5.573 -3.1892 -1.5374  1.2522
 1249TIP3   OH225237   3.770   2.165   4.041 -0.0031 -0.1583  0.3728
 1249TIP3    H125238   3.819   2.103   3.987 -0.4690 -0.6803  0.5437
 1249TIP3    H225239   3.809   2.250   4.020  1.2708 -0.6002  0.8390
 1250TIP3   OH225240   1.584   2.899   6.818  0.2495  0.2470  0.0731
 1250TIP3    H125241   1.523   2.893   6.744  0.0393 -0.9086  0.3148
 1250TIP3    H225242   1.669   2.879   6.781 -0.2387 -3.5956  0.5864
 1251TIP3   OH225243   0.200   3.351   3.941 -0.1388 -0.0930 -0.4152
 1251TIP3    H125244   0.196   3.404   4.021 -1.2837  0.1081 -0.6030
 1251TIP3    H225245   0.150   3.400   3.876 -0.0492 -0.7414 -0.9864
 1252TIP3   OH225246   4.056   6.384  12.323 -0.3467  0.4256 -0.3679
 1252TIP3    H125247   4.078   6.461  12.271 -2.7502  0.3210 -1.7009
 1252TIP3    H225248   3.991   6.415  12.386 -0.2509 -0.2265  0.0653
 1253TIP3   OH225249   4.809   2.155  16.653  0.6367 -1.3750 -0.5393
 1253TIP3    H125250   4.788   2.215  16.725 -1.2059  0.2258 -2.2672
 1253TIP3    H225251   4.900   2.130  16.668  1.8419  2.5998 -0.1603
 1254TIP3   OH225252   3.263   5.372  16.894  0.5165 -0.6493  0.1802
 1254TIP3    H125253   3.210   5.330  16.962  1.2064  0.5470  1.5127
 1254TIP3    H225254   3.202   5.390  16.824 -0.2988 -1.5974  0.6149
 1255TIP3   OH225255   0.282   4.593  11.892 -1.0043 -0.1461  0.6407
 1255TIP3    H125256   0.375   4.576  11.902 -1.0666 -1.1872 -0.4119
 1255TIP3    H225257   0.244   4.572  11.978 -0.5152 -1.5737  0.5375
 1256TIP3   OH225258   1.739   1.895  13.998  0.4112 -0.5717 -0.2285
 1256TIP3    H125259   1.708   1.811  14.031  1.9525 -1.0020  0.1984
 1256TIP3    H225260   1.825   1.906  14.038  0.3356  1.1062 -0.4637
 1257TIP3   OH225261   1.418   3.422   1.654  0.5030  0.0271  0.0619
 1257TIP3    H125262   1.382   3.509   1.668 -0.5832 -0.4007 -0.0327
 1257TIP3    H225263   1.421   3.411   1.559  1.5507  0.3238  0.0495
 1258TIP3   OH225264   1.549   1.680  14.961  0.5600 -0.1309 -0.1085
 1258TIP3    H125265   1.487   1.670  14.889  0.1990  0.0360  0.1809
 1258TIP3    H225266   1.622   1.730  14.923  0.5909 -0.4576 -0.4874
 1259TIP3   OH225267   6.430   0.242  15.091 -0.0698 -0.2973 -0.0518
 1259TIP3    H125268   6.371   0.182  15.046 -1.6449  0.1259  1.3753
 1259TIP3    H225269   6.427   0.322  15.038  0.1388 -0.6453 -0.6075
 1260TIP3   OH225270   4.286   0.098   1.943 -0.1855  0.3109 -0.3181
 1260TIP3    H125271   4.348   0.088   1.871 -0.6588  2.9346 -1.2089
 1260TIP3    H225272   4.257   0.189   1.938 -1.0107  0.3381  2.6062
 1261TIP3   OH225273   2.196   5.052  16.185  0.4729  0.4399  0.4185
 1261TIP3    H125274   2.103   5.037  16.168  0.2050 -0.7721  2.6311
 1261TIP3    H225275   2.198   5.111  16.260  1.4584 -0.0438  0.7960
 1262TIP3   OH225276   1.320   2.261   2.493  0.0537  0.3565  0.1998
 1262TIP3    H125277   1.338   2.197   2.423 -1.9509  0.3520 -0.3684
 1262TIP3    H225278   1.360   2.342   2.462  1.5284 -0.2932  0.3338
 1263TIP3   OH225279   0.920   5.394  11.231 -0.0317  0.4455 -0.5478
 1263TIP3    H125280   0.830   5.404  11.199  0.1499  1.6531 -0.7249
 1263TIP3    H225281   0.957   5.326  11.175 -0.7431  0.1536 -0.6797
 1264TIP3   OH225282   3.539   6.564  13.924  0.1571 -0.4827 -0.2001
 1264TIP3    H125283   3.445   6.549  13.919 -0.1754  0.1133  2.5871
 1264TIP3    H225284   3.554   6.598  14.013  2.6709  2.0142 -1.4262
 1265TIP3   OH225285   2.132   3.706  14.223  0.1159  0.4527 -0.1728
 1265TIP3    H125286   2.170   3.648  14.158  0.7511 -1.1053  1.4933
 1265TIP3    H225287   2.038   3.702  14.208  0.1049 -1.4146  0.1577
 1266TIP3   OH225288   1.356   3.755  12.786  0.6377 -0.5680 -0.2340
 1266TIP3    H125289   1.331   3.708  12.707 -3.2380 -0.1559  0.5644
 1266TIP3    H225290   1.334   3.695  12.857  0.3410  0.5445  0.6377
 1267TIP3   OH225291   6.245   6.334   1.202 -0.2415 -0.1717  0.3152
 1267TIP3    H125292   6.331   6.294   1.210 -0.3051 -0.7782 -1.6659
 1267TIP3    H225293   6.262   6.422   1.169 -0.3113  0.3647  1.6221
 1268TIP3   OH225294   3.773   4.697   4.248 -0.4135 -0.3551 -0.6309
 1268TIP3    H125295   3.738   4.786   4.235  0.5989  0.2123  0.3676
 1268TIP3    H225296   3.753   4.677   4.339  0.5026 -0.6293 -0.4819
 1269TIP3   OH225297   2.324   1.783   6.264 -0.0412  0.0106 -0.6309
 1269TIP3    H125298   2.337   1.878   6.275  1.8235  0.0787 -2.7128
 1269TIP3    H225299   2.261   1.760   6.332  0.7088  2.4346  1.0443
 1270TIP3   OH225300   0.701   5.195   3.958  0.1979 -0.3552  0.4314
 1270TIP3    H125301   0.613   5.165   3.982  0.1373 -0.3156  0.2639
 1270TIP3    H225302   0.759   5.150   4.019 -0.1128  1.5506  2.2093
 1271TIP3   OH225303   1.135   3.326  16.498 -0.0848 -0.2951  0.4536
 1271TIP3    H125304   1.119   3.352  16.589 -2.2372 -0.1333  0.0906
 1271TIP3    H225305   1.106   3.235  16.493  0.5805 -0.4941  0.0472
 1272TIP3   OH225306   1.935   0.436   5.705 -0.2376  0.2100 -0.2147
 1272TIP3    H125307   1.905   0.494   5.775  0.3474 -1.0852  1.1720
 1272TIP3    H225308   2.028   0.458   5.693 -0.5973  1.1675 -1.3672
 1273TIP3   OH225309   1.474   4.411  14.652  0.3570 -0.4224 -0.0149
 1273TIP3    H125310   1.444   4.499  14.677  1.3539 -0.0990  0.0749
 1273TIP3    H225311   1.531   4.384  14.724 -0.0316 -1.1895  0.0045
 1274TIP3   OH225312   1.104   2.219  15.249 -0.4048  0.3593  0.5131
 1274TIP3    H125313   1.071   2.138  15.209 -2.2712  1.1308  0.3664
 1274TIP3    H225314   1.035   2.244  15.311  0.3862  1.5649  0.9293
 1275TIP3   OH225315   0.582   5.606  11.362  0.5722 -0.2425  0.3495
 1275TIP3    H125316   0.583   5.563  11.277 -0.5517  1.4263 -0.5626
 1275TIP3    H225317   0.548   5.540  11.422 -1.6202 -0.5109 -1.0984
 1276TIP3   OH225318   6.650   6.093   3.957  0.3775  0.0798 -0.2459
 1276TIP3    H125319   6.666   6.123   3.867 -0.8865 -0.1535 -0.5599
 1276TIP3    H225320   6.600   6.164   3.997  0.7757  0.0993  0.2247
 1277TIP3   OH225321   1.178   6.801  11.961 -0.0257  0.4181 -0.4418
 1277TIP3    H125322   1.211   6.719  11.997  0.0013  0.4832 -0.3167
 1277TIP3    H225323   1.160   6.781  11.869  1.5758  0.7205 -0.8553
 1278TIP3   OH225324   3.612   4.425  12.272  0.0662  0.0320 -0.0592
 1278TIP3    H125325   3.569   4.404  12.189  0.0514  0.7855 -0.2534
 1278TIP3    H225326   3.547   4.477  12.320  0.0879 -0.3756  0.4125
 1279TIP3   OH225327   2.139   4.273  14.205  0.1369  0.1761 -0.1175
 1279TIP3    H125328   2.158   4.180  14.200  0.2012  0.2501 -1.8607
 1279TIP3    H225329   2.225   4.315  14.212  0.1616  0.1539 -0.2950
 1280TIP3   OH225330   5.200   5.706   6.240 -0.4589  0.1252  0.3248
 1280TIP3    H125331   5.248   5.671   6.166 -1.5897  1.1550 -0.9764
 1280TIP3    H225332   5.225   5.652   6.314  0.2868 -1.3123 -0.9264
 1281TIP3   OH225333   0.391   4.643  13.011 -0.3666  0.2123 -0.4885
 1281TIP3    H125334   0.460   4.701  13.043  0.6578 -1.9525  1.5793
 1281TIP3    H225335   0.317   4.659  13.069 -0.4121  0.1187 -0.5201
 1282TIP3   OH225336   3.983   1.334   6.602 -0.5358  0.4065 -0.0691
 1282TIP3    H125337   3.926   1.315   6.677 -1.4168  0.8063 -0.6119
 1282TIP3    H225338   3.923   1.341   6.528  0.2760  0.4380 -0.7412
 1283TIP3   OH225339   5.136   3.966  11.135 -0.0433  0.2798 -0.4369
 1283TIP3    H125340   5.197   3.975  11.209 -0.1647 -1.5661 -0.0453
 1283TIP3    H225341   5.149   4.044  11.082  0.9635  1.0383  0.8844
 1284TIP3   OH225342   3.865   2.973   4.248 -0.1475  0.4730 -0.3223
 1284TIP3    H125343   3.778   3.007   4.269 -0.8220 -2.0053  1.2686
 1284TIP3    H225344   3.920   3.001   4.322 -0.2105 -0.1078 -0.0531
 1285TIP3   OH225345   2.661   2.621  12.445  0.1672 -0.0876  0.4755
 1285TIP3    H125346   2.734   2.683  12.443  2.2811 -2.3848 -0.0698
 1285TIP3    H225347   2.613   2.639  12.364 -1.2822  2.8719  1.8423
 1286TIP3   OH225348   6.093   5.652   0.841  0.2866 -0.7714 -0.3122
 1286TIP3    H125349   6.032   5.725   0.856  0.4333 -0.6755 -0.1778
 1286TIP3    H225350   6.076   5.625   0.751  0.9918  0.1453 -0.7328
 1287TIP3   OH225351   2.379   0.553  11.223  0.4501  0.0598  0.3321
 1287TIP3    H125352   2.341   0.638  11.204  0.7719  0.1240 -0.0399
 1287TIP3    H225353   2.410   0.521  11.138  0.7401 -0.2221  0.5395
 1288TIP3   OH225354   5.019   3.420  11.588  0.4037 -0.5296  0.2613
 1288TIP3    H125355   5.015   3.450  11.498  2.7514 -0.2909  0.1965
 1288TIP3    H225356   5.012   3.325  11.583 -1.5875 -0.4177  0.0477
 1289TIP3   OH225357   6.249   6.534  15.039 -0.1898 -0.5028 -0.5774
 1289TIP3    H125358   6.340   6.561  15.024 -0.5693  0.7593 -0.7259
 1289TIP3    H225359   6.197   6.597  14.989 -1.1775 -0.7883  0.0658
 1290TIP3   OH225360   3.386   5.776  16.415  0.1792  0.2728 -0.4068
 1290TIP3    H125361   3.396   5.861  16.458  1.4726  0.2134 -0.5509
 1290TIP3    H225362   3.391   5.712  16.487  1.2011  0.2303 -0.5048
 1291TIP3   OH225363   0.668   6.626   0.707 -0.9052  0.2289  0.4129
 1291TIP3    H125364   0.645   6.718   0.720 -0.3242  0.6109 -1.0980
 1291TIP3    H225365   0.587   6.585   0.677 -0.8219  0.5617 -0.2861
 1292TIP3   OH225366   4.125   2.851   3.128  0.0683 -0.0649 -0.3807
 1292TIP3    H125367   4.177   2.904   3.190 -0.6877  0.4734 -0.1831
 1292TIP3    H225368   4.126   2.763   3.165  0.0776  0.1403  0.1237
 1293TIP3   OH225369   5.864   1.976  14.884  0.1749  0.3381 -0.2418
 1293TIP3    H125370   5.777   1.938  14.869  0.5561 -2.1947  2.6752
 1293TIP3    H225371   5.850   2.041  14.953  0.7232 -1.6789  1.9152
 1294TIP3   OH225372   6.394   3.401   3.605 -0.0610 -0.2776  0.2884
 1294TIP3    H125373   6.467   3.462   3.611  0.2024 -0.4912 -0.5232
 1294TIP3    H225374   6.319   3.456   3.581 -0.1543 -0.0709  1.0356
 1295TIP3   OH225375   1.472   3.423   1.398 -0.4545 -0.5565  0.0738
 1295TIP3    H125376   1.381   3.451   1.388 -0.3208  0.0138  0.3979
 1295TIP3    H225377   1.513   3.446   1.314 -0.4581 -0.2034  0.1649
 1296TIP3   OH225378   5.472   0.814  16.876  0.3735  0.1632 -0.1801
 1296TIP3    H125379   5.479   0.764  16.957  1.5541 -0.7614 -0.8312
 1296TIP3    H225380   5.485   0.750  16.807 -2.0552  0.6477 -1.2094
 1297TIP3   OH225381   3.608   6.157   0.574  0.3167 -0.1939  0.6044
 1297TIP3    H125382   3.544   6.172   0.643 -2.6148  1.6817 -2.2270
 1297TIP3    H225383   3.557   6.162   0.493  3.8805  0.0722 -1.8388
 1298TIP3   OH225384   0.331   2.787   1.392  0.0992 -0.1279 -0.3739
 1298TIP3    H125385   0.393   2.714   1.399 -0.7899 -0.9221 -0.4860
 1298TIP3    H225386   0.245   2.747   1.409 -0.2087  1.3402  2.1570
 1299TIP3   OH225387   6.071   0.126  12.199 -0.2894  0.2090  0.0520
 1299TIP3    H125388   6.032   0.214  12.193  0.6288  0.7628  1.4193
 1299TIP3    H225389   6.151   0.140  12.250  0.3640 -1.2906 -0.5187
 1300TIP3   OH225390   0.422   0.522   5.736  0.5679  0.2536  0.2251
 1300TIP3    H125391   0.408   0.614   5.713 -1.7197  0.2217  1.3048
 1300TIP3    H225392   0.343   0.477   5.706 -0.4360 -0.5732  3.6986
 1301TIP3   OH225393   5.617   6.197   0.575 -0.1748 -0.2216  0.4431
 1301TIP3    H125394   5.709   6.211   0.597  0.2685 -0.6764 -0.9928
 1301TIP3    H225395   5.594   6.271   0.519 -0.4361 -0.5206  0.1468
 1302TIP3   OH225396   4.005   2.301   1.833  0.2179 -0.2294 -0.0921
 1302TIP3    H125397   4.028   2.391   1.811 -1.5881  0.2952  0.0798
 1302TIP3    H225398   4.076   2.249   1.794  1.2147  1.2295 -0.3130
 1303TIP3   OH225399   5.466   5.906  11.124 -0.3360 -0.3450 -0.0335
 1303TIP3    H125400   5.485   5.814  11.144  0.0503  0.1294  2.0045
 1303TIP3    H225401   5.551   5.944  11.104 -0.2130 -0.0265  1.0379
 1304TIP3   OH225402   2.538   4.237  14.269  0.2134  0.0027 -0.4021
 1304TIP3    H125403   2.531   4.189  14.351 -0.0357 -0.6524 -0.7925
 1304TIP3    H225404   2.601   4.306  14.286 -0.2027  0.1732  0.4785
 1305TIP3   OH225405   6.653   2.087   4.826  0.0073  0.2799  0.0340
 1305TIP3    H125406   6.661   2.004   4.872  0.0090  0.1990 -0.1111
 1305TIP3    H225407   6.615   2.147   4.890 -0.2088  0.1086  0.0661
 1306TIP3   OH225408   3.484   4.601  14.160 -0.0724  0.2785 -0.3670
 1306TIP3    H125409   3.548   4.636  14.098 -0.8670  0.6117 -1.0159
 1306TIP3    H225410   3.500   4.650  14.240 -0.1056  0.9974 -0.7913
 1307TIP3   OH225411   2.434   6.217  14.546 -0.0738 -0.5673 -0.0257
 1307TIP3    H125412   2.373   6.157  14.503  1.5744 -1.7721 -0.8105
 1307TIP3    H225413   2.457   6.173  14.628  1.0525 -0.9897 -0.5490
 1308TIP3   OH225414   0.063   2.404  11.768 -0.3799  0.1516 -0.0175
 1308TIP3    H125415   0.147   2.363  11.789  0.9436  1.8642 -1.6500
 1308TIP3    H225416   0.055   2.475  11.832 -1.0170 -0.4975  0.6456
 1309TIP3   OH225417   1.952   2.804   2.150  0.0213 -0.0620 -0.0260
 1309TIP3    H125418   1.971   2.801   2.056 -1.3808 -2.3090 -0.3059
 1309TIP3    H225419   1.933   2.714   2.174  1.0674  0.3357  2.6228
 1310TIP3   OH225420   3.465   1.369   4.942  0.0547  0.3324 -0.0579
 1310TIP3    H125421   3.452   1.449   4.890  1.2807 -0.0879 -1.0874
 1310TIP3    H225422   3.467   1.299   4.877 -0.2770 -0.4544  0.7690
 1311TIP3   OH225423   6.620   3.874  12.353  0.2536 -0.6776  0.2790
 1311TIP3    H125424   6.586   3.893  12.266 -1.5703 -1.2295  0.8060
 1311TIP3    H225425   6.665   3.790  12.344 -3.3905 -2.8763  0.5338
 1312TIP3   OH225426   0.264   2.316  14.073 -0.0207 -0.3191  0.3307
 1312TIP3    H125427   0.291   2.397  14.116  0.9347  0.2122 -1.2057
 1312TIP3    H225428   0.346   2.272  14.051 -0.4577 -0.4076 -1.2215
 1313TIP3   OH225429   0.479   2.861   3.910 -0.2054  0.4930 -0.3964
 1313TIP3    H125430   0.469   2.823   3.998  0.0598  0.4848 -0.3716
 1313TIP3    H225431   0.412   2.930   3.907 -2.4818 -1.5742 -1.3306
 1314TIP3   OH225432   0.760   1.571  13.198 -0.6281  0.2616 -0.2339
 1314TIP3    H125433   0.704   1.572  13.120  0.4506 -0.8937 -1.0566
 1314TIP3    H225434   0.731   1.494  13.247  0.1740 -0.2964 -0.6246
 1315TIP3   OH225435   5.255   1.265  16.397  0.3330 -0.1139 -0.8976
 1315TIP3    H125436   5.204   1.295  16.472  1.9170 -2.2614  1.1745
 1315TIP3    H225437   5.207   1.189  16.364  0.8091 -0.5548 -0.5913
 1316TIP3   OH225438   6.758   4.974  11.036  0.0321 -0.0737  0.0766
 1316TIP3    H125439   6.850   4.957  11.020 -0.0048 -0.2096  0.0120
 1316TIP3    H225440   6.758   5.038  11.107  0.1551 -0.8108  0.7562
 1317TIP3   OH225441   3.336   4.679  13.290  0.6240 -0.3750 -0.0359
 1317TIP3    H125442   3.336   4.661  13.196 -2.0115 -0.0651 -0.1570
 1317TIP3    H225443   3.395   4.613  13.326  3.5222  0.8977 -2.0625
 1318TIP3   OH225444   5.550   5.600   0.944  0.5751 -0.4688 -0.2151
 1318TIP3    H125445   5.518   5.523   0.897 -1.8980 -1.2386  2.4015
 1318TIP3    H225446   5.480   5.622   1.005  2.7884  1.4839  1.8674
 1319TIP3   OH225447   3.138   2.590   1.308 -0.1557 -0.3344  0.3607
 1319TIP3    H125448   3.202   2.628   1.369 -0.1245 -0.3518  0.3392
 1319TIP3    H225449   3.086   2.530   1.361  0.0824 -0.5955  0.3023
 1320TIP3   OH225450   2.230   6.420   1.429 -0.1659 -0.5209 -0.0271
 1320TIP3    H125451   2.175   6.345   1.452 -1.7826  0.7413  0.4649
 1320TIP3    H225452   2.225   6.478   1.506  0.7082  0.2830 -0.5510
 1321TIP3   OH225453   0.654   6.141  11.910 -0.0501  0.2482 -0.3788
 1321TIP3    H125454   0.564   6.142  11.940  0.0402 -0.5244 -0.0618
 1321TIP3    H225455   0.658   6.069  11.848  0.2702  0.4988 -0.6560
 1322TIP3   OH225456   3.279   4.534  11.540 -0.9297  0.0365  0.0782
 1322TIP3    H125457   3.360   4.553  11.492 -0.4724 -1.4652  0.2155
 1322TIP3    H225458   3.209   4.552  11.478 -0.4299 -0.0507 -0.5170
 1323TIP3   OH225459   2.641   6.645   0.908 -0.0022 -0.1215 -0.0023
 1323TIP3    H125460   2.615   6.731   0.877  0.7477  0.5260  1.0947
 1323TIP3    H225461   2.563   6.609   0.951 -0.1412  0.2547  0.0579
 1324TIP3   OH225462   0.172   1.825  12.245  0.3888 -0.0053 -0.1150
 1324TIP3    H125463   0.158   1.827  12.339 -2.2197 -2.2131 -0.3280
 1324TIP3    H225464   0.097   1.871  12.208  1.7320  1.4727 -1.1876
 1325TIP3   OH225465   1.217   3.023  15.747  0.1497  0.8019 -0.3447
 1325TIP3    H125466   1.148   2.975  15.793  1.5375 -0.6951  0.2820
 1325TIP3    H225467   1.191   3.019  15.655 -1.5675  1.9908  0.0392
 1326TIP3   OH225468   4.298   3.440   2.813  0.8008 -0.5703  0.0083
 1326TIP3    H125469   4.229   3.386   2.774  1.0908 -0.1589 -1.0873
 1326TIP3    H225470   4.282   3.434   2.907 -2.0704  1.1673 -0.2183
 1327TIP3   OH225471   6.738   6.611   5.256  0.3828  0.1101 -0.2104
 1327TIP3    H125472   6.674   6.541   5.244 -0.0379  0.2186  1.2477
 1327TIP3    H225473   6.814   6.568   5.294  1.6348 -0.1952 -2.7861
 1328TIP3   OH225474   5.612   5.524  13.251  0.0970  0.2087 -0.2945
 1328TIP3    H125475   5.587   5.606  13.293 -1.9307 -0.3956 -0.2408
 1328TIP3    H225476   5.660   5.476  13.318  2.7698  1.9224 -0.7986
 1329TIP3   OH225477   5.784   2.737   4.052 -0.2342  0.3170 -0.2657
 1329TIP3    H125478   5.804   2.646   4.072 -0.1921  0.3946  0.0475
 1329TIP3    H225479   5.822   2.752   3.965  1.6656  0.6405  0.5706
 1330TIP3   OH225480   4.855   6.679  16.014  0.4672 -0.1004  0.6722
 1330TIP3    H125481   4.832   6.662  15.922  0.1365 -1.1441  0.9330
 1330TIP3    H225482   4.772   6.671  16.060  0.4587  1.3978  0.9499
 1331TIP3   OH225483   3.505   1.107  11.263  0.3981  0.4978 -0.2817
 1331TIP3    H125484   3.453   1.078  11.188  1.5270  1.6863 -1.5872
 1331TIP3    H225485   3.495   1.038  11.328 -1.5344 -0.0233 -1.0854
 1332TIP3   OH225486   4.569   6.064  10.488  0.6370  0.0696 -0.5831
 1332TIP3    H125487   4.515   5.999  10.444 -0.3823  1.0150 -0.7718
 1332TIP3    H225488   4.657   6.049  10.454  0.1467 -0.2269 -1.7754
 1333TIP3   OH225489   0.560   1.453  13.419  0.0613  0.4272 -0.2555
 1333TIP3    H125490   0.548   1.499  13.502 -0.7995  0.2494 -0.2746
 1333TIP3    H225491   0.473   1.453  13.378  0.0971 -0.9282 -0.3897
 1334TIP3   OH225492   1.447   3.883  13.035  0.1716 -0.1694 -0.1105
 1334TIP3    H125493   1.431   3.811  12.974 -1.1573 -0.4808  0.5813
 1334TIP3    H225494   1.368   3.936  13.031  0.6549  0.5949  0.2872
 1335TIP3   OH225495   0.461   0.031  13.519 -0.2477  0.0346  0.0881
 1335TIP3    H125496   0.547   0.068  13.499 -0.0448 -0.3321  0.2717
 1335TIP3    H225497   0.479  -0.045  13.575 -0.6860 -0.0767  0.0871
 1336TIP3   OH225498   5.131   3.180   2.208 -0.5549  0.2557  0.1452
 1336TIP3    H125499   5.204   3.238   2.228  1.2744 -2.0190  0.3673
 1336TIP3    H225500   5.133   3.114   2.277 -1.2551 -1.2546 -1.2213
 1337TIP3   OH225501   0.567   3.799   4.001 -0.1735 -0.0012 -0.0600
 1337TIP3    H125502   0.593   3.858   3.931 -1.9520  0.4963 -0.3541
 1337TIP3    H225503   0.612   3.717   3.981  0.8926  0.7008 -0.6614
 1338TIP3   OH225504   4.627   4.440   5.748  0.4271  0.5011 -0.0634
 1338TIP3    H125505   4.643   4.367   5.688  0.6807  0.9299 -0.5262
 1338TIP3    H225506   4.565   4.405   5.812  0.8451 -0.2359 -0.0491
 1339TIP3   OH225507   1.960   6.461   1.284 -0.4776  0.5192  0.5882
 1339TIP3    H125508   2.025   6.435   1.349 -0.5093  1.6144  1.0792
 1339TIP3    H225509   1.882   6.411   1.307 -0.3957  0.6684  1.2044
 1340TIP3   OH225510   3.951   0.966   0.668  0.0980  0.2616  0.0383
 1340TIP3    H125511   3.922   0.879   0.641  1.8887  0.1192 -1.6728
 1340TIP3    H225512   4.045   0.967   0.650  0.8380  1.4339  3.1868
 1341TIP3   OH225513   1.474   4.017  14.634  0.5865  0.4703  0.2971
 1341TIP3    H125514   1.483   3.926  14.661  1.3171  0.5049  0.2008
 1341TIP3    H225515   1.470   4.065  14.717 -0.9080  0.2671  0.3573
 1342TIP3   OH225516   0.926   4.227  16.645 -0.5410  0.3997 -0.8509
 1342TIP3    H125517   0.949   4.152  16.700 -0.2250  0.8273 -0.3928
 1342TIP3    H225518   1.000   4.237  16.585 -1.1323 -0.4196 -1.7673
 1343TIP3   OH225519   6.764   1.363  11.293  0.5995  0.2135 -0.6540
 1343TIP3    H125520   6.700   1.402  11.233  1.2090  0.8999 -0.8815
 1343TIP3    H225521   6.727   1.377  11.380  0.1040 -0.0368 -0.8205
 1344TIP3   OH225522   6.466   1.694  12.579  0.1916  0.4965 -0.1109
 1344TIP3    H125523   6.372   1.712  12.579 -0.2292 -1.4399  0.8666
 1344TIP3    H225524   6.488   1.681  12.672  1.6395  1.8058 -0.2309
 1345TIP3   OH225525   5.157   2.950   4.525  1.3574  0.6372 -0.2943
 1345TIP3    H125526   5.209   2.996   4.591 -2.5418  1.2266  2.7499
 1345TIP3    H225527   5.171   2.857   4.545  1.7062  0.7746  0.1154
 1346TIP3   OH225528   0.863   2.313  15.950  0.5197 -0.2683  0.2545
 1346TIP3    H125529   0.834   2.386  15.895  0.4732 -0.1790  0.3985
 1346TIP3    H225530   0.810   2.320  16.029  0.6433 -0.3512  0.3445
 1347TIP3   OH225531   2.458   0.527   4.587 -0.1897 -0.0555 -0.2995
 1347TIP3    H125532   2.446   0.529   4.492  0.9176 -0.0684 -0.4544
 1347TIP3    H225533   2.529   0.589   4.604 -1.2336  0.9261  0.6757
 1348TIP3   OH225534   4.050   4.977   1.849  0.3739  0.0343  0.5157
 1348TIP3    H125535   4.108   5.024   1.909  0.1870 -0.6412  1.2392
 1348TIP3    H225536   3.962   5.008   1.872  0.2473 -0.6729  1.0132
 1349TIP3   OH225537   1.165   1.954   6.012  0.2180  0.2731 -0.5960
 1349TIP3    H125538   1.134   1.914   5.931  0.9612  0.7446 -1.1307
 1349TIP3    H225539   1.085   1.976   6.060 -0.2223 -0.7261 -0.8310
 1350TIP3   OH225540   5.782   3.459  14.103  0.1476  0.2386 -0.3162
 1350TIP3    H125541   5.723   3.423  14.037  0.3007  0.0408 -0.3478
 1350TIP3    H225542   5.838   3.385  14.127 -0.3653  0.1208  0.5477
 1351TIP3   OH225543   3.010   1.670  14.511 -0.5389  0.3052 -0.0322
 1351TIP3    H125544   3.068   1.695  14.438  1.3679 -1.5038  0.7635
 1351TIP3    H225545   2.940   1.620  14.469 -0.1627  0.3600 -0.7515
 1352TIP3   OH225546   2.482   1.020   1.951  0.2062  0.2199 -0.3632
 1352TIP3    H125547   2.446   1.042   2.037 -1.6047  0.5361 -1.1537
 1352TIP3    H225548   2.532   1.098   1.926 -0.1539  0.5593 -0.0472
 1353TIP3   OH225549   1.484   3.026  15.824 -0.3490 -0.0364  0.4983
 1353TIP3    H125550   1.492   2.952  15.764  0.2964  0.6669 -0.3001
 1353TIP3    H225551   1.391   3.051  15.818 -0.3102 -0.0253 -0.1536
 1354TIP3   OH225552   6.021   4.479   1.032  0.1191  0.3228 -0.5280
 1354TIP3    H125553   6.100   4.510   1.076 -0.2550 -0.0073  0.3901
 1354TIP3    H225554   6.043   4.392   1.001  0.3800  0.5533 -1.0076
 1355TIP3   OH225555   0.975   0.291   3.831  0.4409 -0.2351 -0.2344
 1355TIP3    H125556   1.045   0.340   3.789 -0.6526 -0.4057 -2.3710
 1355TIP3    H225557   0.985   0.202   3.798 -0.7467 -0.2753 -0.5227
 1356TIP3   OH225558   1.481   0.380   4.833  0.4493 -0.0081  0.2130
 1356TIP3    H125559   1.474   0.402   4.926 -0.8903 -1.4618  0.4983
 1356TIP3    H225560   1.511   0.461   4.791 -1.6420  1.5776  1.5328
 1357TIP3   OH225561   3.212   1.242  16.045 -0.6722  0.6621 -0.4713
 1357TIP3    H125562   3.127   1.286  16.051 -0.9425 -0.0934  2.9993
 1357TIP3    H225563   3.276   1.309  16.066 -0.6641  0.5895 -0.2592
 1358TIP3   OH225564   2.062   5.158   1.648 -0.7641 -0.4402  0.5165
 1358TIP3    H125565   2.102   5.231   1.696 -1.3189 -0.6507  1.3394
 1358TIP3    H225566   2.022   5.199   1.572  3.2369 -0.5360 -1.8944
 1359TIP3   OH225567   6.345   5.405  15.532  0.0458  0.1285  0.0688
 1359TIP3    H125568   6.311   5.444  15.451  1.1853  1.3733  0.1536
 1359TIP3    H225569   6.312   5.462  15.601 -0.0081 -0.2818  0.3791
 1360TIP3   OH225570   4.868   3.984  14.947 -0.3052  0.1064 -0.1212
 1360TIP3    H125571   4.913   3.928  14.885 -2.2017 -0.7981 -0.7495
 1360TIP3    H225572   4.892   4.073  14.921  2.0220 -0.3292  0.3357
 1361TIP3   OH225573   5.840   0.153  16.235 -0.2957  0.1862 -0.1174
 1361TIP3    H125574   5.779   0.128  16.166 -0.7532  0.9093  0.0134
 1361TIP3    H225575   5.909   0.201  16.190  0.0212 -0.3626 -0.2220
 1362TIP3   OH225576   6.814   5.039   1.272 -0.1035  0.0470 -0.6736
 1362TIP3    H125577   6.750   5.089   1.324  0.9825 -0.3109  1.0873
 1362TIP3    H225578   6.767   4.960   1.246 -0.3569 -0.3333  0.8158
 1363TIP3   OH225579   0.472   4.040  14.852  0.4425 -0.0431 -0.1489
 1363TIP3    H125580   0.496   4.132  14.842 -0.9050  0.2206 -1.2890
 1363TIP3    H225581   0.423   4.037  14.934  1.4286  0.0332  0.4566
 1364TIP3   OH225582   4.206   4.687   0.289 -0.3163  0.4822 -0.2233
 1364TIP3    H125583   4.268   4.692   0.216  1.4671 -2.0046  0.9691
 1364TIP3    H225584   4.139   4.625   0.259 -1.2491  1.7273 -0.7989
 1365TIP3   OH225585   3.022   0.421   2.665 -0.4063 -1.0258 -0.6098
 1365TIP3    H125586   2.970   0.347   2.634 -0.6715 -1.0040 -0.2075
 1365TIP3    H225587   3.038   0.473   2.586  0.0574 -1.6749 -0.9596
 1366TIP3   OH225588   6.542   6.130   3.487  0.0764  0.6430 -0.2058
 1366TIP3    H125589   6.473   6.084   3.438 -2.4447  2.8594  1.0219
 1366TIP3    H225590   6.596   6.170   3.419 -1.3421  0.8627 -1.2611
 1367TIP3   OH225591   6.654   4.320  11.600 -0.5159  0.0351 -0.4688
 1367TIP3    H125592   6.661   4.400  11.652 -0.1202  1.7953 -3.0231
 1367TIP3    H225593   6.564   4.290  11.614 -1.0605  1.6220 -0.3744
 1368TIP3   OH225594   1.665   6.523   5.938 -0.2866  0.2614 -0.4766
 1368TIP3    H125595   1.646   6.429   5.932  0.1732  0.1940 -1.0450
 1368TIP3    H225596   1.582   6.565   5.920 -0.6793 -0.0394  0.5985
 1369TIP3   OH225597   0.712   4.648   2.624 -0.0137  0.4466  0.5387
 1369TIP3    H125598   0.656   4.724   2.641  2.0987  2.1561  0.3655
 1369TIP3    H225599   0.679   4.611   2.542 -1.8820  0.3375  1.2827
 1370TIP3   OH225600   1.930   0.429   0.727  0.5048 -0.0588 -0.2469
 1370TIP3    H125601   1.999   0.363   0.724 -0.4272 -1.1085  0.4501
 1370TIP3    H225602   1.870   0.398   0.795 -1.0896  0.3676 -1.3944
 1371TIP3   OH225603   4.246   4.094   3.385 -0.1252  0.0637  0.3820
 1371TIP3    H125604   4.283   4.182   3.377 -0.6910  0.3179  0.4666
 1371TIP3    H225605   4.207   4.077   3.300 -2.1795  0.9220  1.0720
 1372TIP3   OH225606   0.261   1.007   3.828  0.2330 -0.1125 -0.7372
 1372TIP3    H125607   0.187   1.067   3.823  1.1354  1.4014  1.7729
 1372TIP3    H225608   0.222   0.920   3.828 -1.3839  0.5809 -1.2050
 1373TIP3   OH225609   6.647   2.429  12.090  0.2735 -0.3542  0.1297
 1373TIP3    H125610   6.633   2.512  12.136  2.1392  1.6749 -2.6163
 1373TIP3    H225611   6.567   2.415  12.040 -1.4183 -2.1346  3.0133
 1374TIP3   OH225612   6.758   6.082   1.104 -0.0121 -0.4573  0.7167
 1374TIP3    H125613   6.810   6.096   1.183  1.4478 -0.1748 -0.2510
 1374TIP3    H225614   6.713   6.165   1.090  0.9849  0.0435  0.3830
 1375TIP3   OH225615   6.436   3.667   4.839  0.3040  0.1843 -0.3620
 1375TIP3    H125616   6.385   3.594   4.804 -0.1105 -0.6125  1.7743
 1375TIP3    H225617   6.382   3.704   4.908  1.5913  0.8741  0.3163
 1376TIP3   OH225618   4.108   1.395   3.111 -0.6887 -0.6338  0.6401
 1376TIP3    H125619   4.117   1.464   3.177  2.3138 -0.0867 -0.1821
 1376TIP3    H225620   4.077   1.440   3.033 -1.4422 -0.7428  0.8749
 1377TIP3   OH225621   4.684   4.593   4.087  0.1986 -0.1175  0.4701
 1377TIP3    H125622   4.717   4.532   4.153  1.9511  1.8545  1.5401
 1377TIP3    H225623   4.694   4.680   4.128  1.7915  1.2390 -2.4866
 1378TIP3   OH225624   6.008   3.131   2.085 -0.5176 -0.6122  0.2571
 1378TIP3    H125625   6.022   3.219   2.050 -1.8344 -0.3111  0.4382
 1378TIP3    H225626   6.094   3.104   2.119  0.2551 -0.0212 -1.1606
 1379TIP3   OH225627   2.943   2.428   5.746  0.3743  0.2578  0.3273
 1379TIP3    H125628   3.008   2.452   5.680 -1.1450 -1.0101 -1.7363
 1379TIP3    H225629   2.981   2.352   5.791 -0.0694 -1.1982 -1.6343
 1380TIP3   OH225630   5.262   1.042  12.470 -0.1981 -0.0020  1.0267
 1380TIP3    H125631   5.239   1.127  12.433 -1.9664 -0.7294  0.2986
 1380TIP3    H225632   5.255   0.981  12.396 -0.4130 -0.9889  1.8292
 1381TIP3   OH225633   2.863   4.204  13.150  0.7914 -0.1634  0.6528
 1381TIP3    H125634   2.810   4.179  13.226 -0.8241 -0.7315 -0.5935
 1381TIP3    H225635   2.837   4.295  13.132 -0.1780 -0.6021 -0.2567
 1382TIP3   OH225636   3.600   6.493  11.484  0.5084  0.0928 -0.2294
 1382TIP3    H125637   3.690   6.512  11.513  0.4037  1.8414 -0.8954
 1382TIP3    H225638   3.607   6.489  11.388 -0.2470  1.1697 -0.3488
 1383TIP3   OH225639   2.313   1.466   3.485  0.5699  0.3919  0.3611
 1383TIP3    H125640   2.230   1.500   3.451  0.5340 -0.2683 -0.2345
 1383TIP3    H225641   2.372   1.464   3.410  1.3162  1.3981  0.9046
 1384TIP3   OH225642   5.792   3.668   1.374 -0.0637 -0.1471 -0.5310
 1384TIP3    H125643   5.802   3.739   1.438  0.9774 -1.3647  0.7134
 1384TIP3    H225644   5.855   3.602   1.401  1.1693 -0.3116 -3.4663
 1385TIP3   OH225645   1.458   0.391  15.563 -0.1225 -0.1294 -0.3520
 1385TIP3    H125646   1.377   0.442  15.565 -0.1551 -0.1803  1.6930
 1385TIP3    H225647   1.526   0.455  15.586 -0.1237 -0.8882  1.9144
 1386TIP3   OH225648   4.821   0.371   2.732 -0.3916 -0.0718  0.3220
 1386TIP3    H125649   4.795   0.286   2.768  0.0552  0.0106  0.8603
 1386TIP3    H225650   4.842   0.352   2.640 -0.3017 -0.5468  0.4345
 1387TIP3   OH225651   0.422   1.610   5.019  0.1586 -0.0028 -0.4110
 1387TIP3    H125652   0.391   1.699   5.000 -0.8448  0.0356  1.2023
 1387TIP3    H225653   0.379   1.555   4.953 -2.0846  0.2794  0.7253
 1388TIP3   OH225654   2.250   2.335   0.403 -0.4290  0.2010  0.2322
 1388TIP3    H125655   2.252   2.262   0.466  1.1336 -0.9818 -1.0918
 1388TIP3    H225656   2.203   2.405   0.449 -0.5663 -1.0796  2.1704
 1389TIP3   OH225657   0.417   6.766  11.363 -0.7435 -0.3157 -0.4244
 1389TIP3    H125658   0.473   6.812  11.425 -1.0672  0.8226 -0.9504
 1389TIP3    H225659   0.457   6.782  11.277 -0.3678 -1.7649 -0.5445
 1390TIP3   OH225660   4.097   5.872   5.460 -0.3958 -0.4392 -0.2744
 1390TIP3    H125661   4.070   5.961   5.483 -4.4646 -1.1990 -1.3338
 1390TIP3    H225662   4.125   5.834   5.543 -0.5574  1.1908  0.5859
 1391TIP3   OH225663   6.766   5.492   0.599  0.1173 -0.4823 -0.3360
 1391TIP3    H125664   6.821   5.505   0.676  0.9233 -2.0425 -0.6078
 1391TIP3    H225665   6.677   5.487   0.633  0.3440  0.0336  0.3475
 1392TIP3   OH225666   0.342   0.434   1.684 -0.1623 -0.1611 -0.3075
 1392TIP3    H125667   0.292   0.452   1.763  1.5051  1.4235  0.4532
 1392TIP3    H225668   0.398   0.360   1.707 -0.2218 -0.1947 -0.2700
 1393TIP3   OH225669   0.286   6.065   0.249 -0.1875  0.3080  0.0561
 1393TIP3    H125670   0.316   6.144   0.294  3.3773  0.0167 -1.4376
 1393TIP3    H225671   0.334   5.994   0.290  0.4183 -0.3990 -1.7587
 1394TIP3   OH225672   5.428   1.523  13.463 -0.3708  0.6193 -0.8996
 1394TIP3    H125673   5.381   1.606  13.472  2.2938  2.0272  1.3621
 1394TIP3    H225674   5.515   1.547  13.433  0.4029 -1.3948 -0.4401
 1395TIP3   OH225675   1.114   1.850   2.803  0.0268 -0.1226 -0.1120
 1395TIP3    H125676   1.068   1.862   2.719  2.0151  0.3699 -1.1832
 1395TIP3    H225677   1.203   1.880   2.786  0.0160  1.9112  2.7697
 1396TIP3   OH225678   3.801   0.806  15.215 -0.1230 -0.6695 -0.3572
 1396TIP3    H125679   3.864   0.858  15.265 -0.2929 -1.2563  0.4898
 1396TIP3    H225680   3.854   0.739  15.173 -0.1697 -1.1908  0.3904
 1397TIP3   OH225681   3.935   3.725  17.078 -0.5730 -0.0949 -0.5687
 1397TIP3    H125682   4.019   3.692  17.110 -0.2551  0.2028 -1.0799
 1397TIP3    H225683   3.955   3.812  17.044 -2.0456  2.4237  4.1019
 1398TIP3   OH225684   3.034   5.406  14.032 -0.5321 -0.8485  0.3615
 1398TIP3    H125685   3.126   5.388  14.013  0.6837  2.9779  1.5826
 1398TIP3    H225686   2.999   5.441  13.950 -0.5940 -1.3459  0.1760
 1399TIP3   OH225687   6.222   5.323   2.457 -0.0289  0.6227  0.3576
 1399TIP3    H125688   6.290   5.260   2.433 -1.5814 -0.4656 -1.5830
 1399TIP3    H225689   6.180   5.285   2.534  0.1863  0.1742  0.2594
 1400TIP3   OH225690   0.506   0.899  14.571  0.0683  0.0852 -0.8523
 1400TIP3    H125691   0.501   0.803  14.569 -0.2357 -0.0989  2.4719
 1400TIP3    H225692   0.589   0.919  14.527  0.3001 -1.7139 -1.3311
 1401TIP3   OH225693   0.082   3.760   1.629  0.1971  0.0050  0.4258
 1401TIP3    H125694   0.152   3.747   1.564 -0.7871 -2.0149 -0.3185
 1401TIP3    H225695   0.093   3.688   1.691 -2.1075 -1.4007 -0.6262
 1402TIP3   OH225696   4.698   1.700  16.037  0.0381 -0.2263 -0.2425
 1402TIP3    H125697   4.727   1.665  16.121  1.1532  0.7487 -0.1988
 1402TIP3    H225698   4.605   1.721  16.051  0.4422  0.8380  1.0796
 1403TIP3   OH225699   0.750   6.020  14.130 -0.2362  0.2963 -0.0443
 1403TIP3    H125700   0.769   5.932  14.098 -1.7840 -0.6184  1.4059
 1403TIP3    H225701   0.699   6.061  14.060 -2.2367 -1.1244  0.5106
 1404TIP3   OH225702   4.442   5.365  14.188 -0.0561 -0.3954  0.1355
 1404TIP3    H125703   4.506   5.416  14.237 -1.3144 -0.2803  1.7712
 1404TIP3    H225704   4.391   5.430  14.140  0.1963 -0.3720 -0.1021
 1405TIP3   OH225705   0.258   1.603   2.720  0.0402 -0.3719 -0.3868
 1405TIP3    H125706   0.257   1.509   2.741 -1.4891 -0.2640  0.1132
 1405TIP3    H225707   0.268   1.606   2.625  1.3757 -1.0021 -0.2859
 1406TIP3   OH225708   1.172   3.318   1.809 -0.3646  0.2736  0.2556
 1406TIP3    H125709   1.132   3.404   1.814 -0.8562 -0.0092  2.0401
 1406TIP3    H225710   1.107   3.259   1.847  0.0537 -0.8659 -0.7311
 1407TIP3   OH225711   3.269   0.258   5.389 -0.3670 -0.7091  0.2113
 1407TIP3    H125712   3.346   0.222   5.432  0.1989 -0.3188 -0.4481
 1407TIP3    H225713   3.279   0.232   5.297 -0.7269 -0.1853  0.0180
 1408TIP3   OH225714   3.581   1.070   1.325  0.0471  0.0887  0.6657
 1408TIP3    H125715   3.525   1.132   1.278 -0.1646 -0.2870  0.4185
 1408TIP3    H225716   3.524   0.997   1.345  0.5395 -0.4778  0.0546
 1409TIP3   OH225717   3.848   6.648   1.122  0.0972  0.1726  0.3090
 1409TIP3    H125718   3.783   6.675   1.057  1.0595 -1.1468 -1.2652
 1409TIP3    H225719   3.918   6.608   1.071  1.1386 -0.4494  2.1355
 1410TIP3   OH225720   5.904   6.830  13.005  0.1418  0.6415 -0.3976
 1410TIP3    H125721   5.916   6.882  12.926 -0.5517 -1.4025 -1.9460
 1410TIP3    H225722   5.826   6.777  12.987  0.2718 -0.2625  1.4513
 1411TIP3   OH225723   0.937   5.013  13.957 -0.2175  0.6426  0.5962
 1411TIP3    H125724   0.879   5.089  13.963  1.1458  1.6401  2.0751
 1411TIP3    H225725   0.972   5.003  14.045 -0.3547 -1.7495  0.4325
 1412TIP3   OH225726   3.777   2.436   2.461 -0.0196 -1.0463 -0.1398
 1412TIP3    H125727   3.729   2.517   2.475 -0.2769 -1.2328  0.0859
 1412TIP3    H225728   3.826   2.423   2.543  1.6285 -0.0608 -0.9408
 1413TIP3   OH225729   2.787   5.253  11.716  0.0422 -0.3013  0.7156
 1413TIP3    H125730   2.746   5.230  11.633  0.9382  2.3771 -0.5679
 1413TIP3    H225731   2.848   5.181  11.733  1.5673  0.1611 -2.2129
 1414TIP3   OH225732   6.265   5.419  16.981 -0.2432  0.1258  0.5240
 1414TIP3    H125733   6.205   5.452  17.047 -0.8035  0.4407 -0.1380
 1414TIP3    H225734   6.210   5.398  16.905  0.3054 -0.8345  0.3713
 1415TIP3   OH225735   0.534   4.092   1.417  0.1141  0.3376 -0.0286
 1415TIP3    H125736   0.439   4.087   1.424 -0.1065  0.2142 -2.3326
 1415TIP3    H225737   0.550   4.170   1.363  1.3037  0.2363  0.1513
 1416TIP3   OH225738   1.686   5.882   2.598 -0.2796 -0.1753  0.2559
 1416TIP3    H125739   1.709   5.805   2.547  1.5207 -0.0074  0.7371
 1416TIP3    H225740   1.649   5.943   2.533 -1.0483 -1.1441 -0.2486
 1417TIP3   OH225741   5.319   3.090  10.373 -0.4562 -0.3610  0.1254
 1417TIP3    H125742   5.390   3.095  10.310  0.0487 -0.5308  0.6744
 1417TIP3    H225743   5.289   2.999  10.369 -0.5342 -0.3303  0.0115
 1418TIP3   OH225744   4.540   5.495   4.513 -0.0288 -0.2059  0.4794
 1418TIP3    H125745   4.566   5.411   4.475  0.9243  1.0105 -1.7897
 1418TIP3    H225746   4.609   5.515   4.576  1.1928  0.0158 -0.8591
 1419TIP3   OH225747   3.803   5.401  12.136  0.4902  0.1242  0.1996
 1419TIP3    H125748   3.793   5.411  12.231  0.0720  0.5485  0.1140
 1419TIP3    H225749   3.713   5.399  12.103  0.5292 -2.5579  0.0520
 1420TIP3   OH225750   6.261   4.653  12.912 -0.3674 -0.6165 -0.0308
 1420TIP3    H125751   6.172   4.658  12.877 -0.2484  0.2488 -0.2242
 1420TIP3    H225752   6.267   4.724  12.975 -0.2280 -1.4941  0.9664
 1421TIP3   OH225753   0.811   5.463  11.589  0.5599  0.0011  0.5925
 1421TIP3    H125754   0.893   5.413  11.597  0.8419  0.2303 -0.6110
 1421TIP3    H225755   0.749   5.400  11.553  0.4128  0.0360  0.7834
 1422TIP3   OH225756   2.059   4.047   1.220 -0.0905  0.2710  0.0077
 1422TIP3    H125757   1.984   4.009   1.266  0.3500  0.4667  0.9188
 1422TIP3    H225758   2.026   4.067   1.132 -1.5223  1.6923  0.8060
 1423TIP3   OH225759   2.298   6.551   5.406  0.0460 -0.0197 -0.3232
 1423TIP3    H125760   2.213   6.585   5.432  0.5139  0.5865  0.4565
 1423TIP3    H225761   2.279   6.491   5.334 -0.9176  1.0434 -0.9956
 1424TIP3   OH225762   6.737   1.163   1.503  0.5813  0.2566  0.3292
 1424TIP3    H125763   6.647   1.195   1.492  0.3973 -0.1286  0.6731
 1424TIP3    H225764   6.792   1.236   1.478  0.2100 -0.3262 -2.4494
 1425TIP3   OH225765   5.100   1.940   0.036 -0.0176  0.6037 -0.1941
 1425TIP3    H125766   5.100   1.851   0.001 -0.6408  1.2712 -1.9933
 1425TIP3    H225767   5.052   1.992  -0.029 -0.1505  2.1648  1.0755
 1426TIP3   OH225768   5.198   3.076   0.609  0.5479  0.0488 -0.1328
 1426TIP3    H125769   5.236   3.091   0.522 -0.4264  1.7269 -0.3147
 1426TIP3    H225770   5.115   3.123   0.607  0.7644  0.5924  1.9081
 1427TIP3   OH225771   5.948   0.131   1.109  0.4678  0.0460  0.4909
 1427TIP3    H125772   6.009   0.187   1.061  3.0947 -0.6599  2.6886
 1427TIP3    H225773   5.863   0.173   1.099  1.4367  1.6530 -1.9638
 1428TIP3   OH225774   3.075   2.735  16.780 -0.0219  0.7499  0.2592
 1428TIP3    H125775   3.025   2.816  16.787  0.1153  1.0652 -1.7635
 1428TIP3    H225776   3.128   2.733  16.859 -0.5226  2.2780  0.6783
 1429TIP3   OH225777   3.728   0.361   6.853 -0.4254 -0.4920 -0.4545
 1429TIP3    H125778   3.692   0.436   6.900 -1.5274 -1.5191  0.3885
 1429TIP3    H225779   3.754   0.397   6.768  0.5597  1.1560  0.5000
 1430TIP3   OH225780   1.497   4.342   1.793  0.1761  0.2148 -0.1861
 1430TIP3    H125781   1.519   4.415   1.850 -1.3703  1.0894 -0.6781
 1430TIP3    H225782   1.436   4.289   1.843  1.0365 -0.6001  0.0430
 1431TIP3   OH225783   4.282   5.439  11.263 -0.5935 -0.0672 -0.8373
 1431TIP3    H125784   4.195   5.479  11.253 -0.3979 -0.0384 -2.6865
 1431TIP3    H225785   4.286   5.373  11.194  0.0017 -1.7008  0.6641
 1432TIP3   OH225786   4.612   1.035  17.149  0.1025  0.2302 -0.4009
 1432TIP3    H125787   4.630   1.122  17.114  2.1759 -0.3892 -1.0308
 1432TIP3    H225788   4.617   1.045  17.244  2.0874  0.5007 -0.5054
 1433TIP3   OH225789   3.352   3.677   4.932  0.0730  0.1801  0.4338
 1433TIP3    H125790   3.369   3.588   4.963  3.1823  1.4540  2.8928
 1433TIP3    H225791   3.295   3.715   4.998 -0.2899  0.4041  0.0004
 1434TIP3   OH225792   2.336   3.932  17.163 -0.1588  0.9450 -0.3908
 1434TIP3    H125793   2.301   3.849  17.196 -0.6055  1.1651 -0.3010
 1434TIP3    H225794   2.291   3.999  17.215  1.2055  1.2092  0.4866
 1435TIP3   OH225795   6.672   4.860  13.225  0.0124  0.2249  0.3609
 1435TIP3    H125796   6.582   4.857  13.192  0.4998  2.5948 -1.4110
 1435TIP3    H225797   6.694   4.768  13.240 -1.9387 -0.6142 -1.3540
 1436TIP3   OH225798   1.407   4.104  14.109  0.4769  0.2010 -0.1843
 1436TIP3    H125799   1.321   4.094  14.149  0.4354 -0.5165 -0.4494
 1436TIP3    H225800   1.404   4.049  14.031  1.0177  0.5360 -0.4466
 1437TIP3   OH225801   3.364   5.516  13.501  0.4261 -0.6422 -0.8041
 1437TIP3    H125802   3.457   5.499  13.486  0.3518 -2.1804  0.1865
 1437TIP3    H225803   3.329   5.431  13.530 -0.9280  0.2966  0.4537
 1438TIP3   OH225804   6.675   3.376   5.482  0.1169  0.3953 -0.0180
 1438TIP3    H125805   6.622   3.336   5.414  1.2967  1.0654 -1.3995
 1438TIP3    H225806   6.668   3.317   5.557  1.1678 -2.0039 -1.6975
 1439TIP3   OH225807   3.301   1.502   4.728 -0.9323 -0.0715 -0.0948
 1439TIP3    H125808   3.234   1.499   4.660 -0.7290 -0.4781 -0.2840
 1439TIP3    H225809   3.278   1.578   4.782 -0.2259  1.2184 -1.5347
 1440TIP3   OH225810   2.648   2.796  12.205  0.1197  0.7490 -0.1893
 1440TIP3    H125811   2.732   2.797  12.160 -0.0183 -0.8464 -0.5238
 1440TIP3    H225812   2.591   2.851  12.151  0.2803 -0.1871 -1.3461
 1441TIP3   OH225813   5.502   3.472  10.809  0.3589 -0.0546  0.0589
 1441TIP3    H125814   5.416   3.482  10.767 -1.7925 -0.4215  3.8633
 1441TIP3    H225815   5.560   3.445  10.738 -1.3596  4.8378 -3.8202
 1442TIP3   OH225816   3.952   4.744  13.556  0.2981  0.0649  0.2922
 1442TIP3    H125817   3.901   4.780  13.484  0.9187  1.8946  0.7133
 1442TIP3    H225818   4.034   4.714  13.516  0.8826  1.6052  0.2865
 1443TIP3   OH225819   4.908   4.427   5.644  0.2020 -0.3013 -0.6952
 1443TIP3    H125820   5.001   4.434   5.666  0.0074 -0.6213  0.2342
 1443TIP3    H225821   4.878   4.348   5.690 -0.8156  0.4869  0.0223
 1444TIP3   OH225822   0.946   3.266  16.906 -0.0684 -0.0027 -0.5943
 1444TIP3    H125823   0.949   3.346  16.957  1.0290  0.7413 -1.7647
 1444TIP3    H225824   0.973   3.197  16.967  5.7652  1.4044 -1.0514
 1445TIP3   OH225825   0.381   0.518   5.069  0.3755  0.6397 -1.0872
 1445TIP3    H125826   0.471   0.495   5.093 -0.3560  1.0211  2.7712
 1445TIP3    H225827   0.348   0.441   5.022  1.6682 -1.1359  0.7194
 1446TIP3   OH225828   5.048   3.235  16.588 -0.3644 -0.2781 -0.3282
 1446TIP3    H125829   5.137   3.268  16.576  0.2695 -2.0433 -0.8653
 1446TIP3    H225830   5.038   3.226  16.682  0.5023 -1.2045 -0.3045
 1447TIP3   OH225831   3.502   0.346   1.518 -0.0956 -0.1103 -0.2113
 1447TIP3    H125832   3.571   0.383   1.572 -2.5320  2.0119  1.7470
 1447TIP3    H225833   3.505   0.396   1.436  1.8812 -1.4639 -1.0370
 1448TIP3   OH225834   4.772   1.801   0.344 -0.3270 -0.3369 -0.2519
 1448TIP3    H125835   4.781   1.896   0.345  2.9719 -0.5079  0.6834
 1448TIP3    H225836   4.858   1.770   0.316 -0.4576 -3.0566  1.9384
 1449TIP3   OH225837   4.260   6.695   2.875  0.2728 -0.0537 -0.2471
 1449TIP3    H125838   4.185   6.697   2.935  0.9474  2.8612  0.6781
 1449TIP3    H225839   4.318   6.629   2.912 -1.4086 -1.7678 -0.5093
 1450TIP3   OH225840   4.288   4.157   1.326 -0.2747 -0.1561 -0.0318
 1450TIP3    H125841   4.346   4.234   1.319 -2.0265  1.3217  0.9444
 1450TIP3    H225842   4.317   4.113   1.406 -0.2985  0.3945  0.2851
 1451TIP3   OH225843   1.749   0.802   0.051  0.0639  0.2362 -0.8611
 1451TIP3    H125844   1.694   0.787  -0.026  0.2776  1.1127 -1.1972
 1451TIP3    H225845   1.807   0.874   0.025  0.4001  0.2763 -0.0184
 1452TIP3   OH225846   0.777   5.664  15.151  0.4979  0.3762 -0.2422
 1452TIP3    H125847   0.815   5.675  15.064  1.2294 -1.0225 -0.1222
 1452TIP3    H225848   0.682   5.669  15.137  0.5746 -0.8393 -1.2803
 1453TIP3   OH225849   2.783   5.998  13.393  0.2489  0.6293 -0.4234
 1453TIP3    H125850   2.822   5.941  13.327 -1.1844  0.3325 -1.0485
 1453TIP3    H225851   2.734   6.063  13.342  0.0139  1.0655  0.3406
 1454TIP3   OH225852   1.630   3.150  17.158  0.1872  0.1656 -0.0042
 1454TIP3    H125853   1.620   3.159  17.252 -0.6519 -0.0020 -0.0703
 1454TIP3    H225854   1.641   3.056  17.143 -0.9446  0.0456 -0.1722
 1455TIP3   OH225855   6.376   6.258   2.367  0.4950 -0.2447 -0.1281
 1455TIP3    H125856   6.467   6.239   2.342  0.6334 -0.1464  0.2897
 1455TIP3    H225857   6.330   6.268   2.284  1.1808  1.2544 -0.3597
 1456TIP3   OH225858   4.631   1.617   6.261  0.0918  0.4347  0.5039
 1456TIP3    H125859   4.545   1.577   6.250 -0.1274  0.9815  0.1916
 1456TIP3    H225860   4.692   1.554   6.224 -0.0078 -0.6391  2.0707
 1457TIP3   OH225861   2.122   3.065   5.364 -1.0628 -0.7251  0.2170
 1457TIP3    H125862   2.187   3.053   5.295 -0.5411  1.1959  0.3087
 1457TIP3    H225863   2.045   3.100   5.319 -1.1119 -0.5436  0.4390
 1458TIP3   OH225864   2.312   2.426  11.206 -0.7472 -0.1129 -0.0888
 1458TIP3    H125865   2.354   2.405  11.123  0.7132  0.6744  0.4025
 1458TIP3    H225866   2.220   2.438  11.184 -0.4369 -0.1841 -1.5475
 1459TIP3   OH225867   2.935   5.909   4.689 -0.6329 -0.2575  0.4204
 1459TIP3    H125868   2.902   5.821   4.710 -0.5175 -0.3402  0.2576
 1459TIP3    H225869   3.017   5.916   4.738  0.0922 -0.7894 -0.6851
 1460TIP3   OH225870   2.715   2.239   4.225 -0.3988  0.5385 -0.1328
 1460TIP3    H125871   2.635   2.269   4.269 -1.4024  0.3877 -1.7355
 1460TIP3    H225872   2.707   2.144   4.222 -0.4887  0.5588 -0.8376
 1461TIP3   OH225873   5.742   6.274  14.883  0.7233 -0.6317  0.1473
 1461TIP3    H125874   5.820   6.322  14.909  0.2248  0.4931 -0.3780
 1461TIP3    H225875   5.749   6.265  14.788 -0.1450  0.1601 -0.0092
 1462TIP3   OH225876   5.580   0.479  17.179 -0.3313 -0.1066  0.1352
 1462TIP3    H125877   5.567   0.391  17.143 -0.9845 -0.2573  0.6921
 1462TIP3    H225878   5.491   0.512  17.192 -0.0884  0.6113  0.0015
 1463TIP3   OH225879   4.058   6.647   1.832 -0.4320  0.1504  0.3764
 1463TIP3    H125880   4.023   6.710   1.895  1.5575  1.5752  0.1431
 1463TIP3    H225881   4.141   6.618   1.871 -0.2043 -0.5805 -0.6159
 1464TIP3   OH225882   1.357   1.425   4.019  0.1839  0.0144  0.0152
 1464TIP3    H125883   1.396   1.462   3.939 -3.5283  1.3366 -1.4089
 1464TIP3    H225884   1.304   1.352   3.987 -0.2970 -0.2916  1.4755
 1465TIP3   OH225885   0.614   4.806   1.997 -0.2667  0.0915 -0.3815
 1465TIP3    H125886   0.530   4.850   2.008 -0.0058  0.8554 -1.3023
 1465TIP3    H225887   0.623   4.751   2.075 -2.1878 -0.9880 -0.8446
 1466TIP3   OH225888   0.012   1.824   2.716 -0.0687  0.2150  0.0854
 1466TIP3    H125889  -0.081   1.802   2.724 -0.0569 -0.4380 -1.3036
 1466TIP3    H225890   0.013   1.917   2.693 -0.2024  1.2271  3.5964
 1467TIP3   OH225891   2.969   6.082  13.605 -0.2510  0.1137  0.4434
 1467TIP3    H125892   2.900   6.103  13.542  0.3160 -0.7177 -0.4786
 1467TIP3    H225893   3.014   6.166  13.618 -0.7942  0.4405  0.2755
 1468TIP3   OH225894   6.611   4.026  11.843 -0.3908  0.2553 -0.1044
 1468TIP3    H125895   6.650   4.087  11.780  0.2356 -0.1901 -0.1572
 1468TIP3    H225896   6.520   4.016  11.814  0.5900 -2.2358 -2.7870
 1469TIP3   OH225897   2.811   0.781   6.750 -0.1188  0.3568  0.7732
 1469TIP3    H125898   2.886   0.833   6.779 -1.4138  1.2080  2.7969
 1469TIP3    H225899   2.786   0.730   6.827 -1.4105 -0.1882  0.0234
 1470TIP3   OH225900   5.914   4.346  13.038 -0.2959  0.2249 -0.6010
 1470TIP3    H125901   5.848   4.298  13.088 -1.4349  2.2944  0.0013
 1470TIP3    H225902   5.996   4.330  13.085 -1.0047  0.4782  0.7814
 1471TIP3   OH225903   1.312   6.703   4.722  0.2257  0.7039  0.2637
 1471TIP3    H125904   1.260   6.675   4.798  0.2752  1.3019  0.5205
 1471TIP3    H225905   1.327   6.622   4.673 -0.2244  0.3874  0.6326
 1472TIP3   OH225906   0.175   2.450  15.564  0.2494 -0.1882  0.3346
 1472TIP3    H125907   0.139   2.506  15.633 -0.8351  0.6443 -0.8580
 1472TIP3    H225908   0.142   2.363  15.585 -1.6336  0.3770 -0.1175
 1473TIP3   OH225909   3.059   5.573   4.634  0.5070  0.1112 -0.1732
 1473TIP3    H125910   3.127   5.529   4.685 -0.8730  0.1089  1.7770
 1473TIP3    H225911   3.107   5.621   4.566  2.6528  1.5665  2.1897
 1474TIP3   OH225912   2.287   6.141   0.573  0.2949  0.4176 -0.0490
 1474TIP3    H125913   2.303   6.049   0.594 -1.4620 -0.5168 -2.3374
 1474TIP3    H225914   2.374   6.181   0.572  1.2408 -1.5340 -0.2451
 1475TIP3   OH225915   2.170   0.903  14.775 -0.5126  0.8287 -0.4970
 1475TIP3    H125916   2.196   0.891  14.684  0.8860  1.0667 -0.1437
 1475TIP3    H225917   2.247   0.878  14.826 -1.3442  0.4986  0.6352
 1476TIP3   OH225918   3.750   0.352   6.276  0.1671 -0.0679  0.1624
 1476TIP3    H125919   3.835   0.327   6.314  1.2590  0.4322 -1.8177
 1476TIP3    H225920   3.692   0.363   6.352  1.2206 -2.6691  1.4411
 1477TIP3   OH225921   0.272   6.107   2.009  0.5042 -0.3536 -0.3276
 1477TIP3    H125922   0.204   6.174   2.012  0.2048 -0.6502 -0.3966
 1477TIP3    H225923   0.316   6.113   2.094  1.2638  0.7326 -0.7783
 1478TIP3   OH225924   2.136   6.802  15.961  0.0062 -0.0923  0.5564
 1478TIP3    H125925   2.218   6.784  15.914  0.6408  0.7522  1.2888
 1478TIP3    H225926   2.116   6.720  16.006 -0.6372 -0.9295 -1.1754
 1479TIP3   OH225927   5.773   1.536  14.995 -1.2311 -0.1246  0.3758
 1479TIP3    H125928   5.740   1.590  14.924 -0.0529 -0.5665 -0.5487
 1479TIP3    H225929   5.869   1.542  14.987 -1.0733 -0.1631  1.9431
 1480TIP3   OH225930   4.444   0.088   6.490 -0.6516 -0.1658 -0.1733
 1480TIP3    H125931   4.536   0.101   6.515 -1.1384  1.3313  0.9442
 1480TIP3    H225932   4.409   0.029   6.557 -1.2492  1.6658  1.1856
 1481TIP3   OH225933   3.272   4.903  10.405 -0.5489  0.1073 -0.3586
 1481TIP3    H125934   3.343   4.846  10.376 -0.8687 -1.2329  1.2849
 1481TIP3    H225935   3.196   4.846  10.408 -0.7765  0.4438  1.8366
 1482TIP3   OH225936   5.513   6.550  15.653 -0.0713 -0.1854 -0.0040
 1482TIP3    H125937   5.529   6.473  15.597  0.8216 -0.8764  1.1620
 1482TIP3    H225938   5.596   6.564  15.698 -1.0390 -0.2560  1.8814
 1483TIP3   OH225939   1.811   2.786   3.433  0.0939  0.3506 -0.5482
 1483TIP3    H125940   1.896   2.747   3.411 -0.2398 -1.7222  1.3806
 1483TIP3    H225941   1.805   2.775   3.528 -1.6269  2.0075 -0.4355
 1484TIP3   OH225942   3.780   5.812   1.212  1.0200  0.5591  0.3949
 1484TIP3    H125943   3.810   5.902   1.202  0.5549  0.5977 -0.9581
 1484TIP3    H225944   3.698   5.808   1.162  0.3062 -0.2724  1.5833
 1485TIP3   OH225945   3.387   0.782   0.035 -0.4747 -0.1998 -0.3453
 1485TIP3    H125946   3.436   0.752  -0.042  0.3747  0.8872 -0.2515
 1485TIP3    H225947   3.448   0.839   0.081 -2.1281  1.9889 -0.7222
 1486TIP3   OH225948   1.810   6.182  10.685 -0.5017  0.3970 -0.2548
 1486TIP3    H125949   1.751   6.229  10.625  0.4846 -0.0983 -1.6626
 1486TIP3    H225950   1.887   6.163  10.632 -0.5745 -2.2204  0.4731
 1487TIP3   OH225951   6.638   2.568  12.942 -0.1924 -0.4366 -0.8841
 1487TIP3    H125952   6.544   2.585  12.934 -0.5458 -1.6653  0.3317
 1487TIP3    H225953   6.666   2.623  13.015 -0.0056 -0.2531 -1.0904
 1488TIP3   OH225954   4.627   4.426   4.926 -0.0291  0.4795  0.2151
 1488TIP3    H125955   4.554   4.412   4.986 -1.3942  0.4314 -1.3805
 1488TIP3    H225956   4.704   4.401   4.976 -1.1436  0.0659  1.8063
 1489TIP3   OH225957   4.330   6.103   0.921  0.1138 -1.0436  1.1884
 1489TIP3    H125958   4.400   6.068   0.866  0.8074  0.7525  0.8570
 1489TIP3    H225959   4.369   6.177   0.967 -2.1212  1.7912 -1.0325
 1490TIP3   OH225960   6.728   2.782  12.019  0.4009 -0.7563 -0.3819
 1490TIP3    H125961   6.647   2.753  11.976  0.8498  1.0577 -2.7331
 1490TIP3    H225962   6.748   2.865  11.975  2.4190 -0.1042  1.6229
 1491TIP3   OH225963   1.451   3.910  10.843  0.0154 -0.3011  0.8587
 1491TIP3    H125964   1.518   3.882  10.781  0.0328  0.8844  0.3229
 1491TIP3    H225965   1.369   3.875  10.807  0.1402 -0.3738  0.6447
 1492TIP3   OH225966   4.033   3.363  17.112 -0.3050 -0.0201  0.1633
 1492TIP3    H125967   4.096   3.293  17.095  0.5812  0.6796  0.4826
 1492TIP3    H225968   3.982   3.370  17.031  1.0698  0.4485 -0.6979
 1493TIP3   OH225969   4.370   0.418   4.401 -0.2614 -0.2491 -0.0897
 1493TIP3    H125970   4.319   0.486   4.444 -1.8598 -1.4427  0.0079
 1493TIP3    H225971   4.460   0.450   4.403 -1.2000  2.9603 -2.1772
 1494TIP3   OH225972   0.330   1.315  11.511  0.0288  0.1574 -0.5728
 1494TIP3    H125973   0.308   1.359  11.429  1.9767  1.7612 -0.2986
 1494TIP3    H225974   0.425   1.306  11.508 -0.0323 -1.2854  0.7871
 1495TIP3   OH225975   0.971   1.391   5.817  0.2538  0.1443 -0.7670
 1495TIP3    H125976   0.993   1.476   5.854 -1.2329  0.7828 -1.2449
 1495TIP3    H225977   0.971   1.331   5.892 -3.5534  1.5711  0.6568
 1496TIP3   OH225978   0.019   0.506   4.394 -0.3330  0.1460  0.0849
 1496TIP3    H125979   0.100   0.557   4.385 -0.0820 -0.4605 -1.4388
 1496TIP3    H225980  -0.037   0.559   4.450  0.6163  1.2034  0.0699
 1497TIP3   OH225981   1.390   6.198  12.674  0.2921  0.9189 -0.0839
 1497TIP3    H125982   1.406   6.104  12.689 -1.1722  0.4973 -0.9499
 1497TIP3    H225983   1.456   6.223  12.610 -1.0869 -0.2996 -2.1169
 1498TIP3   OH225984   4.188   6.615  11.801  0.2060  0.0937  0.2969
 1498TIP3    H125985   4.162   6.546  11.740  1.2993 -0.7955  0.8041
 1498TIP3    H225986   4.261   6.659  11.758  0.9207 -0.4780  0.9097
 1499TIP3   OH225987   3.386   5.435  16.297  0.6848 -0.2819  0.3033
 1499TIP3    H125988   3.340   5.505  16.342  0.2147 -1.1719  1.2687
 1499TIP3    H225989   3.456   5.478  16.249 -1.4895  1.1982 -1.7594
 1500TIP3   OH225990   0.259   5.191   0.306 -0.1753 -0.0578  0.4363
 1500TIP3    H125991   0.166   5.168   0.309 -0.0189 -0.7581  0.2557
 1500TIP3    H225992   0.279   5.199   0.213 -0.1544  0.5395  0.4896
 1501TIP3   OH225993   3.164   0.171  11.087  0.5643  0.0845 -0.0858
 1501TIP3    H125994   3.124   0.177  11.174  0.0070 -0.7190 -0.2764
 1501TIP3    H225995   3.189   0.079  11.078  0.3892  0.1055 -0.8750
 1502TIP3   OH225996   4.434   1.492  16.011  0.0511 -0.2494 -0.1521
 1502TIP3    H125997   4.381   1.486  16.091 -1.1655 -0.1968 -0.9371
 1502TIP3    H225998   4.493   1.416  16.016 -2.0384 -2.0033 -0.6155
 1503TIP3   OH225999   2.326   6.044   2.147  0.3646  1.0181  0.4658
 1503TIP3    H126000   2.416   6.062   2.119  1.3751 -0.9108  2.2401
 1503TIP3    H226001   2.315   5.950   2.133 -0.7001  0.8633  2.0586
 1504TIP3   OH226002   3.750   1.184   6.781 -0.2650 -0.1466  0.0605
 1504TIP3    H126003   3.671   1.210   6.828  0.1878  0.8231  0.3183
 1504TIP3    H226004   3.722   1.114   6.722 -0.7597 -1.7074  2.0800
 1505TIP3   OH226005   0.377   2.551  15.397  0.3951  0.0520 -0.0131
 1505TIP3    H126006   0.330   2.489  15.452 -1.1243  1.4225  0.3015
 1505TIP3    H226007   0.381   2.631  15.449  1.7326  0.4475 -0.6701
 1506TIP3   OH226008   4.898   0.156  15.472 -0.2477  0.6617  0.1922
 1506TIP3    H126009   4.977   0.102  15.466 -1.4382 -1.0646 -0.8957
 1506TIP3    H226010   4.865   0.140  15.560  0.7887  1.6954  0.7903
 1507TIP3   OH226011   2.192   2.414   4.134 -0.1587  0.5052 -0.1699
 1507TIP3    H126012   2.164   2.429   4.225 -1.5019  0.8706 -0.6165
 1507TIP3    H226013   2.221   2.323   4.133 -2.1792 -0.1835  0.1641
 1508TIP3   OH226014   2.498   6.166   5.975 -0.6077  0.3642 -0.1377
 1508TIP3    H126015   2.574   6.200   6.023  0.1225 -0.1660 -0.8791
 1508TIP3    H226016   2.437   6.137   6.043  0.8377 -1.3392  0.5049
 1509TIP3   OH226017   5.355   1.981  17.020 -0.9059 -0.4302 -0.1745
 1509TIP3    H126018   5.365   2.002  16.927  0.0396  0.8692  0.1905
 1509TIP3    H226019   5.272   2.021  17.045 -1.3158 -1.0467 -0.5101
 1510TIP3   OH226020   2.757   0.647   2.483  0.2679 -0.2267 -0.4796
 1510TIP3    H126021   2.709   0.683   2.409  0.0279 -0.4184 -0.4175
 1510TIP3    H226022   2.697   0.655   2.557  0.4449 -0.1891 -0.3370
 1511TIP3   OH226023   0.589   4.081   2.863  0.2479  0.2221  0.2478
 1511TIP3    H126024   0.575   4.013   2.929  0.2006 -0.1881 -0.1767
 1511TIP3    H226025   0.580   4.163   2.911 -3.2327  0.0622  0.1528
 1512TIP3   OH226026   4.272   1.310   2.406  0.2068 -0.0012  0.4413
 1512TIP3    H126027   4.278   1.282   2.497 -0.7350  1.9761  1.1643
 1512TIP3    H226028   4.219   1.242   2.363  0.5707 -0.8975  1.3674
 1513TIP3   OH226029   5.282   1.675  12.496  0.3999 -0.0290 -0.4185
 1513TIP3    H126030   5.350   1.707  12.556 -0.0627  0.6343 -0.2362
 1513TIP3    H226031   5.215   1.743  12.497 -1.6475 -1.9231  1.6255
 1514TIP3   OH226032   4.346   2.420   3.644  0.6199 -0.1882 -0.2216
 1514TIP3    H126033   4.266   2.463   3.613  0.3002 -0.7779 -0.2424
 1514TIP3    H226034   4.325   2.326   3.640  0.2304 -0.3060  2.6389
 1515TIP3   OH226035   0.107   0.255  11.453 -0.1440 -0.1703  1.0977
 1515TIP3    H126036   0.158   0.324  11.497  0.1488  0.7019 -0.5225
 1515TIP3    H226037   0.124   0.269  11.360 -1.3516 -1.4712  0.6545
 1516TIP3   OH226038   2.459   2.874   6.498  0.5814  0.2126 -0.1378
 1516TIP3    H126039   2.390   2.831   6.548  1.8518 -0.5478  1.0262
 1516TIP3    H226040   2.458   2.830   6.413  1.1441 -1.4176  0.6654
 1517TIP3   OH226041   2.180   6.557   2.706  0.7945  0.2373 -0.0775
 1517TIP3    H126042   2.123   6.513   2.769  0.8374  0.0178 -0.1907
 1517TIP3    H226043   2.237   6.487   2.673  0.7533  0.3459 -0.3792
 1518TIP3   OH226044   5.896   0.880  12.704  0.0840  0.7403 -0.3792
 1518TIP3    H126045   5.943   0.797  12.715  0.3317  1.0362  0.9710
 1518TIP3    H226046   5.904   0.900  12.611  2.0970  0.4447 -0.3153
 1519TIP3   OH226047   3.715   6.487  13.626 -0.4061 -0.3798  0.4172
 1519TIP3    H126048   3.677   6.401  13.646  0.6937 -1.1118 -0.5601
 1519TIP3    H226049   3.661   6.522  13.555 -0.3986 -0.5919  0.3072
 1520TIP3   OH226050   0.572   2.837  15.239 -0.0704  0.7330  0.2053
 1520TIP3    H126051   0.583   2.871  15.150  0.9199  0.2195  0.1273
 1520TIP3    H226052   0.579   2.915  15.295 -0.0423  0.9650 -0.1189
 1521TIP3   OH226053   5.057   0.786   0.994  0.1869 -0.3751 -0.4000
 1521TIP3    H126054   5.030   0.795   1.085  0.4688 -2.5080 -0.0666
 1521TIP3    H226055   5.021   0.864   0.951 -2.1342 -0.5395  1.0395
 1522TIP3   OH226056   3.967   1.110   6.028  0.7079 -0.3045 -0.5270
 1522TIP3    H126057   3.948   1.146   5.941 -0.1431 -0.1727 -0.2963
 1522TIP3    H226058   3.917   1.029   6.031 -0.9555  0.7140  0.5968
 1523TIP3   OH226059   1.489   6.425   2.999  0.3475  0.3760  0.0189
 1523TIP3    H126060   1.456   6.337   2.980  1.0073 -0.1178  1.1087
 1523TIP3    H226061   1.411   6.481   2.993 -0.3276 -0.4787  0.5777
 1524TIP3   OH226062   5.473   2.117   1.811 -0.1710 -0.5852  0.5417
 1524TIP3    H126063   5.540   2.083   1.871  0.7039 -1.2661 -0.7919
 1524TIP3    H226064   5.489   2.211   1.808  2.0464 -0.9496 -1.2679
 1525TIP3   OH226065   3.772   6.371   2.526 -0.2295  0.6745  1.0575
 1525TIP3    H126066   3.787   6.281   2.557 -1.9033  1.0304  3.1201
 1525TIP3    H226067   3.681   6.371   2.497 -0.7325  2.0741  2.5448
 1526TIP3   OH226068   2.192   3.432  13.379 -0.1658 -0.6797 -0.0029
 1526TIP3    H126069   2.180   3.447  13.285  0.6080  0.5321  0.0558
 1526TIP3    H226070   2.133   3.495  13.420  1.6775  0.9559  0.2824
 1527TIP3   OH226071   4.017   2.633  14.135 -0.2473 -0.3400 -0.4354
 1527TIP3    H126072   3.986   2.557  14.086 -1.3063 -0.2180  0.0078
 1527TIP3    H226073   3.940   2.690  14.142  0.0177 -0.1035  0.8706
 1528TIP3   OH226074   3.556   5.788   3.811  0.5318 -0.1910  0.7314
 1528TIP3    H126075   3.472   5.762   3.774  0.5916 -1.9588  1.7007
 1528TIP3    H226076   3.621   5.759   3.746  0.5476 -1.9339  1.4587
 1529TIP3   OH226077   1.880   1.856   2.422  0.2963  0.6879 -0.6242
 1529TIP3    H126078   1.912   1.816   2.341 -1.1753  0.4493 -1.1132
 1529TIP3    H226079   1.908   1.797   2.491  1.8936  1.0812 -0.8995
 1530TIP3   OH226080   4.396   4.512  14.474  0.1374  0.0952 -0.0346
 1530TIP3    H126081   4.312   4.520  14.519  0.7839  0.1953  1.1886
 1530TIP3    H226082   4.422   4.421  14.486 -0.3321 -0.2502 -1.4370
 1531TIP3   OH226083   6.685   5.632   2.275 -0.0275 -0.0078 -0.1550
 1531TIP3    H126084   6.680   5.640   2.370  0.6000 -0.8835 -0.0397
 1531TIP3    H226085   6.620   5.565   2.253  0.2186 -0.2035 -0.2858
 1532TIP3   OH226086   0.475   1.834   6.252 -0.7678  0.2177  0.5031
 1532TIP3    H126087   0.562   1.873   6.250 -1.8919  2.9557  0.7160
 1532TIP3    H226088   0.428   1.883   6.320 -2.7957 -0.4619 -0.3119
 1533TIP3   OH226089   0.654   5.282   2.984 -0.3821 -0.1508  0.1372
 1533TIP3    H126090   0.691   5.365   2.954  0.0142 -0.0151  0.9829
 1533TIP3    H226091   0.673   5.220   2.913  0.4679  0.1790  0.0711
 1534TIP3   OH226092   5.929   5.444   3.778 -0.2490 -0.5559 -0.9236
 1534TIP3    H126093   5.870   5.511   3.742 -1.0132 -0.1834  0.8937
 1534TIP3    H226094   6.000   5.439   3.715 -0.7418  1.1642 -1.6917
 1535TIP3   OH226095   4.059   4.568   6.608 -0.1597 -0.0435 -0.0281
 1535TIP3    H126096   4.129   4.533   6.553 -0.6738 -0.2576 -0.5615
 1535TIP3    H226097   4.005   4.492   6.629 -1.7108  0.4964 -1.8131
 1536TIP3   OH226098   0.963   2.441   3.277 -0.1803  0.0305  0.0820
 1536TIP3    H126099   1.000   2.427   3.364  0.7567 -1.0435 -0.4794
 1536TIP3    H226100   0.868   2.442   3.292 -0.0380 -0.2677  1.0918
 1537TIP3   OH226101   5.518   0.116  12.850  0.3812 -0.3246 -0.5186
 1537TIP3    H126102   5.553   0.080  12.768  0.2654 -1.8471  0.0781
 1537TIP3    H226103   5.590   0.169  12.885 -0.1055  1.7205 -2.3724
 1538TIP3   OH226104   3.755   4.811  15.891 -0.1190 -0.6456  0.0319
 1538TIP3    H126105   3.753   4.763  15.808 -0.8386  0.5458 -0.6673
 1538TIP3    H226106   3.806   4.756  15.950  0.1423 -1.6572 -1.1172
 1539TIP3   OH226107   5.466   0.400  10.700  0.2836 -0.1628 -0.2753
 1539TIP3    H126108   5.468   0.325  10.760 -1.2709  0.8461  1.1044
 1539TIP3    H226109   5.432   0.472  10.752 -0.0742  1.0494 -2.0875
 1540TIP3   OH226110   6.344   0.207   5.860 -0.0185  0.1790 -0.3604
 1540TIP3    H126111   6.256   0.176   5.838 -0.0935  0.4676 -0.4733
 1540TIP3    H226112   6.394   0.127   5.874 -0.5622  0.0190  0.7746
 1541TIP3   OH226113   0.889   1.700   3.441  0.0464 -0.3798  0.2029
 1541TIP3    H126114   0.840   1.764   3.390 -0.1068 -0.2561  0.5035
 1541TIP3    H226115   0.934   1.752   3.508  1.1409 -0.4051 -0.4861
 1542TIP3   OH226116   6.603   1.742   2.812  0.3793  0.0753  0.8526
 1542TIP3    H126117   6.521   1.700   2.784  0.2337  1.0305 -0.1973
 1542TIP3    H226118   6.629   1.692   2.889 -1.3123 -0.1148  1.3558
 1543TIP3   OH226119   4.067   3.799  10.831 -0.0567  0.8656 -0.4029
 1543TIP3    H126120   4.053   3.833  10.743  3.1077  0.8484 -1.0384
 1543TIP3    H226121   4.142   3.849  10.864 -1.9010  1.7143  2.8256
 1544TIP3   OH226122   2.199   3.949   2.114  0.1780 -0.4469 -0.1593
 1544TIP3    H126123   2.216   3.949   2.019  0.4855 -1.7266 -0.1305
 1544TIP3    H226124   2.157   3.864   2.130  1.7723 -1.0499  1.1065
 1545TIP3   OH226125   1.453   3.030   1.485 -0.2428  0.0839  0.2780
 1545TIP3    H126126   1.406   3.071   1.558 -0.3415  1.1162 -0.3510
 1545TIP3    H226127   1.537   3.076   1.482 -0.6200  0.7146 -0.8605
 1546TIP3   OH226128   1.153   1.509  14.940 -0.4498  0.3344 -0.0698
 1546TIP3    H126129   1.083   1.455  14.977 -0.5717  0.9525  0.6064
 1546TIP3    H226130   1.184   1.562  15.013 -2.3945  3.4425 -1.3189
 1547TIP3   OH226131   6.301   6.467   0.260 -0.4017  0.0868 -0.1346
 1547TIP3    H126132   6.254   6.517   0.194  1.1366  0.3734 -1.0650
 1547TIP3    H226133   6.245   6.470   0.337 -1.0310  2.0045 -0.6224
 1548TIP3   OH226134   3.847   4.835   6.312 -0.2847  0.0947  0.3167
 1548TIP3    H126135   3.760   4.869   6.292 -0.9220 -0.3745  2.1009
 1548TIP3    H226136   3.904   4.874   6.246 -1.7600  0.7944 -0.5924
 1549TIP3   OH226137   0.595   1.046   4.887  0.3211 -0.0250 -0.6024
 1549TIP3    H126138   0.514   1.001   4.865  0.7119 -0.4634 -1.1839
 1549TIP3    H226139   0.582   1.136   4.857 -1.1678  0.8090  2.2140
 1550TIP3   OH226140   0.838   4.065  13.911 -0.0805  0.2873 -0.1714
 1550TIP3    H126141   0.921   4.111  13.925  0.2832  0.1132 -1.6205
 1550TIP3    H226142   0.796   4.065  13.997  1.1893  0.8254  0.4762
 1551TIP3   OH226143   1.141   2.304  12.333  0.1305 -0.3849  0.2250
 1551TIP3    H126144   1.179   2.296  12.246 -0.7595 -1.1440 -0.1127
 1551TIP3    H226145   1.107   2.394  12.336  0.3147 -0.2998 -0.1428
 1552TIP3   OH226146   0.824   4.244   1.160  0.3735 -0.7825  0.2843
 1552TIP3    H126147   0.890   4.260   1.228  1.6569 -0.8777 -0.8886
 1552TIP3    H226148   0.853   4.297   1.086 -2.3836  1.3459  0.5835
 1553TIP3   OH226149   1.346   0.921   4.150  0.2344 -0.2834  0.1894
 1553TIP3    H126150   1.324   0.880   4.066  1.1178  0.5125 -0.4504
 1553TIP3    H226151   1.314   0.860   4.216 -0.8024 -0.7550 -0.7211
 1554TIP3   OH226152   5.473   0.631  10.831 -0.4048 -0.5765 -0.7644
 1554TIP3    H126153   5.495   0.724  10.836 -0.4500 -0.5952 -0.1394
 1554TIP3    H226154   5.557   0.587  10.820 -0.3293 -0.5037 -0.4750
 1555TIP3   OH226155   2.464   6.419   3.495 -0.3153  0.4798 -0.2011
 1555TIP3    H126156   2.455   6.477   3.570  0.8169  1.0193 -0.4596
 1555TIP3    H226157   2.377   6.382   3.483 -0.3808 -0.0682  1.7250
 1556TIP3   OH226158   0.144   4.901  14.385 -0.1148 -0.3732 -0.8351
 1556TIP3    H126159   0.197   4.870  14.458  1.3304 -1.4678 -2.2775
 1556TIP3    H226160   0.069   4.842  14.383  0.3780 -1.0077 -0.8689
 1557TIP3   OH226161   0.758   5.043   3.707 -0.8135  0.0465  0.0270
 1557TIP3    H126162   0.851   5.054   3.724 -0.4546 -0.7094 -1.2880
 1557TIP3    H226163   0.715   5.100   3.771  0.5258  0.1577  0.8642
 1558TIP3   OH226164   3.263   0.877  16.965  0.0482  0.1939  0.3855
 1558TIP3    H126165   3.289   0.887  17.057 -0.7618  0.6703  0.5669
 1558TIP3    H226166   3.276   0.964  16.927  2.2380 -0.4239 -0.4667
 1559TIP3   OH226167   3.445   4.307   1.651  0.1736 -0.1493  0.7906
 1559TIP3    H126168   3.451   4.376   1.717  0.8534 -0.2649  0.8635
 1559TIP3    H226169   3.412   4.231   1.699 -2.2669  0.5638  0.3474
 1560TIP3   OH226170   6.299   4.349   1.638 -0.1388  0.6198 -0.2771
 1560TIP3    H126171   6.346   4.416   1.687  2.0108  0.3038 -1.7675
 1560TIP3    H226172   6.337   4.266   1.667 -2.2927  0.0206  1.0434
 1561TIP3   OH226173   1.504   2.449   4.331  0.2208  0.4522 -0.0499
 1561TIP3    H126174   1.494   2.400   4.249  0.8766 -1.5262  0.9659
 1561TIP3    H226175   1.476   2.387   4.399  1.4437  1.3546  1.3552
 1562TIP3   OH226176   3.381   6.666  13.265  0.4411  0.2004 -0.8619
 1562TIP3    H126177   3.317   6.643  13.197  0.1974  0.7783 -0.8362
 1562TIP3    H226178   3.386   6.587  13.320  1.8893 -0.8986 -2.4708
 1563TIP3   OH226179   5.646   1.690   4.579 -0.3549  0.5300 -0.0061
 1563TIP3    H126180   5.596   1.643   4.514  0.4555  1.3690 -1.2813
 1563TIP3    H226181   5.729   1.710   4.536  0.0569  1.4362  1.1450
 1564TIP3   OH226182   5.066   0.900   0.406 -0.3336  0.1961  0.3670
 1564TIP3    H126183   5.115   0.966   0.455  1.3212 -0.7507  0.0505
 1564TIP3    H226184   5.063   0.824   0.464  0.5385 -0.5019 -0.4716
 1565TIP3   OH226185   0.737   6.163  13.234  0.4092 -0.6851  0.4279
 1565TIP3    H126186   0.731   6.179  13.140  1.1181 -0.6115  0.3869
 1565TIP3    H226187   0.695   6.238  13.275  0.1165 -0.7092  0.1682
 1566TIP3   OH226188   2.901   2.453   4.355 -0.1991  0.2920 -0.5686
 1566TIP3    H126189   2.832   2.503   4.399 -0.1805  0.3876 -0.6489
 1566TIP3    H226190   2.855   2.399   4.291 -0.1517  0.7430 -0.9893
 1567TIP3   OH226191   6.691   4.260   2.921 -0.3664 -0.4324 -0.5381
 1567TIP3    H126192   6.688   4.185   2.979 -1.7593 -1.4119 -1.7963
 1567TIP3    H226193   6.621   4.318   2.953 -0.2063 -0.3104 -0.4051
 1568TIP3   OH226194   6.095   5.632   4.952  0.5049 -0.1437  0.7225
 1568TIP3    H126195   6.024   5.652   4.891  1.3287 -0.7536 -0.4684
 1568TIP3    H226196   6.117   5.541   4.934  1.9122  0.1769  0.7285
 1569TIP3   OH226197   6.571   3.310  14.560  0.1577  0.3210  0.3949
 1569TIP3    H126198   6.536   3.396  14.582 -0.1268  0.5722 -0.9422
 1569TIP3    H226199   6.645   3.328  14.502  0.5884 -0.3092  0.7434
 1570TIP3   OH226200   3.715   4.461   6.040  0.5293 -0.3611 -0.0617
 1570TIP3    H126201   3.777   4.433   6.107  2.5334  0.1556 -1.5943
 1570TIP3    H226202   3.693   4.551   6.062  1.4499 -0.0806 -0.2732
 1571TIP3   OH226203   3.233   3.461   0.953  0.0746  0.1826  0.4656
 1571TIP3    H126204   3.195   3.522   1.016 -2.6913 -1.8684  0.9895
 1571TIP3    H226205   3.182   3.474   0.873 -0.5538 -1.3613  0.5799
 1572TIP3   OH226206   4.949   2.425   5.039 -0.0204  0.0290 -0.4689
 1572TIP3    H126207   4.884   2.373   5.086 -1.5507  2.7014  0.6143
 1572TIP3    H226208   4.897   2.481   4.981  1.2317  2.3746  0.5333
 1573TIP3   OH226209   5.965   1.532   3.270  0.4113  0.0080 -0.0364
 1573TIP3    H126210   5.900   1.489   3.214  0.3787  0.0516 -0.0322
 1573TIP3    H226211   5.972   1.475   3.347  2.5213 -1.6090 -1.2855
 1574TIP3   OH226212   3.733   6.172  13.978 -0.2913 -0.1818  0.3447
 1574TIP3    H126213   3.722   6.237  14.047  2.2916  0.1328  0.5520
 1574TIP3    H226214   3.667   6.195  13.913 -0.4479  1.6996  1.1075
 1575TIP3   OH226215   6.325   3.972   0.542  0.3250 -0.4575  0.3029
 1575TIP3    H126216   6.237   3.954   0.508 -0.3344  1.2073  1.0286
 1575TIP3    H226217   6.362   4.036   0.480  2.0731 -2.9686 -1.4419
 1576TIP3   OH226218   3.059   0.953  11.715  0.4795 -0.7842  0.0637
 1576TIP3    H126219   3.087   0.926  11.627  0.6986  1.4813 -0.6367
 1576TIP3    H226220   3.012   1.035  11.701  1.2394  0.0750  2.1473
 1577TIP3   OH226221   3.633   3.343   5.093  0.4637 -0.1071  0.3715
 1577TIP3    H126222   3.598   3.361   5.181 -0.0724  0.3582  0.0704
 1577TIP3    H226223   3.598   3.414   5.039  3.6855  1.7629  0.4805
 1578TIP3   OH226224   2.830   0.517  15.419  0.1191 -0.1597  0.4196
 1578TIP3    H126225   2.739   0.534  15.391 -0.4336 -1.7179  1.1962
 1578TIP3    H226226   2.827   0.525  15.514  1.1275  1.1243  0.3689
 1579TIP3   OH226227   6.281   4.147   2.012 -0.1424 -0.4130 -0.2190
 1579TIP3    H126228   6.188   4.132   1.994 -0.5177 -1.0050  1.9426
 1579TIP3    H226229   6.288   4.241   2.026 -0.1754 -0.2070 -1.4362
 1580TIP3   OH226230   6.211   3.357  15.956  0.2981  0.4252  0.3494
 1580TIP3    H126231   6.285   3.413  15.935 -0.2797  0.7146 -1.0278
 1580TIP3    H226232   6.136   3.398  15.913 -0.2944 -0.9644 -0.0138
 1581TIP3   OH226233   0.717   5.201   4.293  0.1121 -0.1249  0.0470
 1581TIP3    H126234   0.663   5.124   4.309 -0.0235 -0.5668 -2.1767
 1581TIP3    H226235   0.785   5.169   4.233  1.1560  1.0819  0.5563
 1582TIP3   OH226236   5.659   0.472  11.038 -0.7639 -0.1043 -0.8787
 1582TIP3    H126237   5.576   0.425  11.044 -0.5302 -0.6368 -1.7169
 1582TIP3    H226238   5.677   0.500  11.128 -1.6749 -0.2716 -0.6305
 1583TIP3   OH226239   5.034   0.793  16.467  0.3496  0.0280  0.0158
 1583TIP3    H126240   4.942   0.820  16.459  0.8620  1.8997 -0.1161
 1583TIP3    H226241   5.031   0.709  16.513 -1.4002  0.2576  0.3849
 1584TIP3   OH226242   6.177   2.126  13.842 -0.8341 -0.4380  0.0019
 1584TIP3    H126243   6.239   2.063  13.878 -1.1518 -0.3998  0.6330
 1584TIP3    H226244   6.144   2.085  13.763  1.9648  0.6544 -1.8796
 1585TIP3   OH226245   1.933   4.506   2.459  0.1782 -0.2140 -0.1488
 1585TIP3    H126246   1.861   4.524   2.520  0.6199  0.0346  0.3053
 1585TIP3    H226247   1.903   4.543   2.376  0.9435  2.4771  0.6818
 1586TIP3   OH226248   1.109   4.734   1.728 -0.1629 -0.3640  0.3770
 1586TIP3    H126249   1.140   4.824   1.741 -0.4501 -0.2507  0.2858
 1586TIP3    H226250   1.157   4.704   1.650  2.2260 -1.3542  2.1140
 1587TIP3   OH226251   0.128   2.638   4.746 -0.0787  0.0539  0.1731
 1587TIP3    H126252   0.183   2.595   4.811 -0.0357  0.2471  0.2637
 1587TIP3    H226253   0.189   2.679   4.684 -0.1109 -0.8531 -0.4782
 1588TIP3   OH226254   0.462   1.819  16.913 -0.1354 -0.1962  0.2408
 1588TIP3    H126255   0.502   1.876  16.847  0.9915 -0.0615  1.0060
 1588TIP3    H226256   0.368   1.830  16.900  0.0552  1.0987 -0.2749
 1589TIP3   OH226257   5.115   1.033  16.338 -0.1253  0.1282 -0.4891
 1589TIP3    H126258   5.156   1.015  16.254  0.7663  0.4512 -0.1288
 1589TIP3    H226259   5.077   0.949  16.364 -1.0637  0.1959 -1.5414
 1590TIP3   OH226260   5.745   2.917   0.080  0.2310  0.3481  0.1271
 1590TIP3    H126261   5.653   2.902   0.102 -0.1096  1.2672 -0.5823
 1590TIP3    H226262   5.788   2.834   0.098 -0.7464 -0.1025  0.4449
 1591TIP3   OH226263   0.379   1.167  16.445  0.6541 -0.1061 -0.0014
 1591TIP3    H126264   0.404   1.204  16.530  1.5186 -0.7162  0.0181
 1591TIP3    H226265   0.422   1.224  16.381 -0.1300  0.4513 -0.0467
 1592TIP3   OH226266   5.512   3.201  11.026 -0.4194 -0.4348  0.5811
 1592TIP3    H126267   5.478   3.252  10.953  0.3121  1.3682  1.4543
 1592TIP3    H226268   5.594   3.164  10.994  0.3690  1.1107  0.7579
 1593TIP3   OH226269   0.296   0.579  13.757  0.8811 -0.9057 -0.4220
 1593TIP3    H126270   0.370   0.534  13.716 -0.0831 -0.8397 -2.3429
 1593TIP3    H226271   0.297   0.667  13.719  1.0120 -0.2129  1.1033
 1594TIP3   OH226272   1.594   5.302  14.535 -0.3318  0.1949 -0.1360
 1594TIP3    H126273   1.635   5.387  14.550 -1.5307  0.6550  0.7143
 1594TIP3    H226274   1.538   5.316  14.458 -1.1003  0.4046  0.4490
 1595TIP3   OH226275   1.916   3.500  12.407  0.1907  0.0721 -0.0914
 1595TIP3    H126276   1.992   3.443  12.396  0.5630  0.3757  0.8203
 1595TIP3    H226277   1.937   3.553  12.483 -1.5589 -0.8352  1.0749
 1596TIP3   OH226278   5.159   5.495  12.086 -0.4973  0.4964  0.2888
 1596TIP3    H126279   5.082   5.463  12.133 -0.2446 -0.7890 -0.1257
 1596TIP3    H226280   5.125   5.562  12.027 -1.0133  1.2034  1.3539
 1597TIP3   OH226281   5.285   5.000  15.900  0.6450 -0.3550  0.4313
 1597TIP3    H126282   5.221   4.931  15.880 -0.3658  0.2932  1.3477
 1597TIP3    H226283   5.352   4.956  15.952  2.5794 -1.7452 -2.8959
 1598TIP3   OH226284   5.057   2.248  16.219  0.2224  0.0431  0.1820
 1598TIP3    H126285   5.030   2.219  16.133  1.7571  0.7484 -0.5932
 1598TIP3    H226286   5.141   2.292  16.204 -0.6615  2.4297  1.6421
 1599TIP3   OH226287   1.441   4.595  14.333 -0.1197 -0.1322  0.2721
 1599TIP3    H126288   1.381   4.669  14.344 -0.1161 -0.1045  0.1004
 1599TIP3    H226289   1.498   4.598  14.411 -0.3366 -0.1561  0.4333
 1600TIP3   OH226290   6.654   3.578   1.957 -0.3921 -0.7514 -0.5417
 1600TIP3    H126291   6.699   3.526   2.023 -1.3145 -1.7667 -0.6888
 1600TIP3    H226292   6.676   3.535   1.874 -0.1377 -0.1431 -0.7969
 1601TIP3   OH226293   3.335   4.925   5.378 -0.2056  0.1984 -0.9143
 1601TIP3    H126294   3.378   4.890   5.456 -1.6383  1.5164  0.5505
 1601TIP3    H226295   3.402   4.920   5.309  1.7175  0.6182  0.8175
 1602TIP3   OH226296   1.669   1.897   1.564 -0.0805  0.2324  0.3444
 1602TIP3    H126297   1.614   1.820   1.570  0.9078 -0.4181  1.5258
 1602TIP3    H226298   1.615   1.968   1.599 -0.2306 -0.3721  1.3842
 1603TIP3   OH226299   1.042   5.554  14.967  0.1267 -0.0465  0.0068
 1603TIP3    H126300   1.022   5.574  14.875 -0.6359  0.4554  0.2718
 1603TIP3    H226301   1.078   5.636  15.001  1.2545 -0.5045 -0.0751
 1604TIP3   OH226302   6.561   0.444  12.475 -0.5812 -0.1693  0.0046
 1604TIP3    H126303   6.493   0.384  12.506 -0.0251  0.7201  3.4713
 1604TIP3    H226304   6.512   0.515  12.432 -1.8194 -0.1167  1.3857
 1605TIP3   OH226305   0.612   1.584  11.123 -0.3843 -0.2470 -0.5082
 1605TIP3    H126306   0.619   1.510  11.183 -1.8576 -1.5878 -1.8922
 1605TIP3    H226307   0.675   1.648  11.156  0.3408 -1.7679  1.2141
 1606TIP3   OH226308   3.671   6.733   2.439  0.2550 -0.4264 -0.5417
 1606TIP3    H126309   3.595   6.677   2.426  1.2504 -1.8667 -0.4085
 1606TIP3    H226310   3.735   6.700   2.376  0.7475  0.8151 -0.7124
 1607TIP3   OH226311   4.053   1.970  14.696 -0.1041 -0.3540  0.3660
 1607TIP3    H126312   4.053   2.001  14.787 -0.3640 -1.7658  0.8800
 1607TIP3    H226313   4.129   1.912  14.691  0.3964  0.3637 -0.5705
 1608TIP3   OH226314   4.480   4.375   5.954 -0.5069 -0.5090 -0.0244
 1608TIP3    H126315   4.386   4.368   5.971 -0.8455 -1.9736 -2.0851
 1608TIP3    H226316   4.514   4.428   6.026 -2.8190 -0.3788  1.0510
 1609TIP3   OH226317   0.367   6.261   4.827  0.3467  0.3468 -0.4233
 1609TIP3    H126318   0.320   6.344   4.834  0.2274  0.2161  0.4936
 1609TIP3    H226319   0.324   6.204   4.891 -1.1253 -1.1864 -2.6325
 1610TIP3   OH226320   5.324   2.609   2.243  0.2849  0.0633  0.2296
 1610TIP3    H126321   5.398   2.648   2.196 -0.1163  0.1388 -0.3506
 1610TIP3    H226322   5.256   2.676   2.240 -0.3340 -0.5784 -0.5849
 1611TIP3   OH226323   5.345   4.514  11.302 -0.8220  0.0333 -0.7392
 1611TIP3    H126324   5.399   4.508  11.381 -1.8464 -0.4216 -0.0470
 1611TIP3    H226325   5.375   4.442  11.247 -0.4121  0.0612 -0.5553
 1612TIP3   OH226326   3.907   6.211  15.351 -0.8461 -0.0583  0.1843
 1612TIP3    H126327   3.919   6.117  15.342  2.1230  0.2996 -0.6476
 1612TIP3    H226328   3.918   6.228  15.445  3.4018 -0.1556 -0.1351
 1613TIP3   OH226329   6.180   3.809   1.907 -0.2228  0.1214  0.5681
 1613TIP3    H126330   6.241   3.782   1.839 -0.3298 -0.6520  0.7712
 1613TIP3    H226331   6.169   3.903   1.894  0.1793  0.0727 -0.1390
 1614TIP3   OH226332   6.773   2.372   3.375 -0.2642 -0.4916  0.1121
 1614TIP3    H126333   6.860   2.340   3.402  0.2902  1.6458  1.0941
 1614TIP3    H226334   6.732   2.400   3.457  0.2155  3.3197 -0.7947
 1615TIP3   OH226335   1.075   4.506  11.652  0.8907  0.1364  0.3619
 1615TIP3    H126336   1.118   4.582  11.612 -1.4505  1.6520  0.4786
 1615TIP3    H226337   1.136   4.475  11.718  2.7226  0.7329 -0.9752
 1616TIP3   OH226338   5.390   1.553  16.518  0.3593  0.3771 -0.0544
 1616TIP3    H126339   5.439   1.610  16.578  0.1418 -0.6032  1.0922
 1616TIP3    H226340   5.443   1.552  16.438  1.0348  1.1273  0.3631
 1617TIP3   OH226341   1.498   1.467   0.328 -0.2762 -0.2096 -0.1742
 1617TIP3    H126342   1.514   1.384   0.372  0.6091  0.1359  0.1969
 1617TIP3    H226343   1.450   1.519   0.392  1.2045  0.3727  0.5334
 1618TIP3   OH226344   6.624   5.455  12.740  0.1296  0.1008 -0.1112
 1618TIP3    H126345   6.559   5.490  12.801  0.8227 -0.1605  0.7931
 1618TIP3    H226346   6.708   5.484  12.774  0.5001  0.6569 -1.4160
 1619TIP3   OH226347   6.786   5.042  16.097  0.4890  0.8385 -0.0137
 1619TIP3    H126348   6.827   5.100  16.160  3.3104  0.7612 -1.6307
 1619TIP3    H226349   6.723   5.098  16.051  1.6342  2.0899 -0.1193
 1620TIP3   OH226350   5.584   6.377  12.473  0.5495 -0.3338  0.2983
 1620TIP3    H126351   5.589   6.384  12.378  0.0848  1.1583  0.3510
 1620TIP3    H226352   5.568   6.284  12.490  1.8771 -0.8356 -0.9967
 1621TIP3   OH226353   0.701   2.662   1.564  0.3878  0.2029 -0.0578
 1621TIP3    H126354   0.762   2.701   1.501 -0.2530  2.2993  0.5091
 1621TIP3    H226355   0.646   2.604   1.512  1.9483 -0.6567 -0.8181
 1622TIP3   OH226356   2.049   2.260  12.973  0.3017  0.4101  0.1257
 1622TIP3    H126357   2.125   2.306  12.938 -0.3220  1.6343  0.3238
 1622TIP3    H226358   2.077   2.168  12.980  1.3241  0.6146 -0.9927
 1623TIP3   OH226359   0.171   2.626  14.662 -0.3272  0.0566  0.5684
 1623TIP3    H126360   0.152   2.699  14.602  1.9579 -0.2367 -0.6299
 1623TIP3    H226361   0.147   2.548  14.613 -1.6420 -0.0868  1.3962
 1624TIP3   OH226362   4.677   0.573   5.728  0.2098 -0.0571  0.2760
 1624TIP3    H126363   4.754   0.612   5.686 -0.7437  0.5578 -0.9677
 1624TIP3    H226364   4.674   0.614   5.815 -0.3545  2.2073 -0.7247
 1625TIP3   OH226365   2.777   5.207   1.861  0.1679  0.6206  0.5668
 1625TIP3    H126366   2.736   5.122   1.847  0.4162  0.3679  1.2706
 1625TIP3    H226367   2.811   5.232   1.776  2.3444 -1.1986  0.8037
 1626TIP3   OH226368   0.162   3.001  16.841  0.4430 -0.0658  0.1110
 1626TIP3    H126369   0.177   3.076  16.898 -0.3874  0.4547 -0.3378
 1626TIP3    H226370   0.250   2.969  16.820  0.7897  0.5199  0.6413
 1627TIP3   OH226371   1.279   0.539  16.488  0.2722 -0.5286 -0.4565
 1627TIP3    H126372   1.187   0.536  16.514  0.2549  1.7477 -0.0488
 1627TIP3    H226373   1.289   0.624  16.446  1.7486 -1.5809 -2.3964
 1628TIP3   OH226374   5.943   1.523  11.516 -0.2891 -0.3680 -0.1323
 1628TIP3    H126375   5.918   1.437  11.484 -0.8985 -0.2320 -0.0452
 1628TIP3    H226376   5.875   1.545  11.581  0.2108 -0.0993  0.3110
 1629TIP3   OH226377   5.003   6.624  15.545  0.0869  1.0523  0.2937
 1629TIP3    H126378   4.928   6.602  15.599 -1.3996  3.4554 -0.6353
 1629TIP3    H226379   4.978   6.596  15.457 -0.5484  3.4482 -0.3436
 1630TIP3   OH226380   0.204   1.404  11.286 -0.3274  0.2844 -0.4970
 1630TIP3    H126381   0.259   1.342  11.238 -0.7001 -0.0015 -0.5624
 1630TIP3    H226382   0.115   1.370  11.275 -0.7035  1.5785 -1.6979
 1631TIP3   OH226383   6.407   0.452   6.028 -0.5107 -0.3323  0.1286
 1631TIP3    H126384   6.399   0.363   5.992 -3.5935 -0.6024  1.1586
 1631TIP3    H226385   6.431   0.439   6.120 -0.6849 -0.0865  0.2091
 1632TIP3   OH226386   4.508   2.064   5.064  0.0009  0.6581  0.0501
 1632TIP3    H126387   4.500   2.139   5.123  1.0892  0.2717  0.7259
 1632TIP3    H226388   4.570   2.006   5.108  0.9318  0.3988 -1.5220
 1633TIP3   OH226389   6.398   5.182  14.522  0.3543  0.3672 -0.5879
 1633TIP3    H126390   6.410   5.158  14.614 -0.2320 -1.1299 -0.8668
 1633TIP3    H226391   6.481   5.159  14.480 -0.4602 -2.1912 -1.0072
 1634TIP3   OH226392   3.118   6.283  13.693  0.5357 -0.2959  0.1351
 1634TIP3    H126393   3.073   6.363  13.721  0.1777 -0.9243  1.4802
 1634TIP3    H226394   3.207   6.311  13.674  0.2074  0.5554 -0.2113
 1635TIP3   OH226395   4.677   1.518   1.903  0.2047  0.2548  0.1994
 1635TIP3    H126396   4.765   1.495   1.874  0.2298  2.9986 -2.3751
 1635TIP3    H226397   4.620   1.456   1.857  0.6484 -0.5570  0.7032
 1636TIP3   OH226398   2.438   2.875  15.949  0.2611 -0.2960 -0.4227
 1636TIP3    H126399   2.437   2.779  15.949 -1.6787 -0.3696 -2.9402
 1636TIP3    H226400   2.505   2.898  16.014  0.2458 -3.3113  0.8249
 1637TIP3   OH226401   1.718   0.445  12.729  0.0218  0.0458 -0.2169
 1637TIP3    H126402   1.799   0.394  12.732  0.5867  0.9530  1.0866
 1637TIP3    H226403   1.649   0.384  12.755  0.2615 -0.7451 -1.3783
 1638TIP3   OH226404   6.460   1.144  17.102 -0.0717 -0.6012  0.5271
 1638TIP3    H126405   6.498   1.144  17.190 -0.3899  1.0322  0.6961
 1638TIP3    H226406   6.535   1.132  17.043  0.2385 -0.9560  0.9898
 1639TIP3   OH226407   0.642   1.354  15.061  0.6348  0.3276 -0.1849
 1639TIP3    H126408   0.691   1.279  15.094  0.2429 -0.3578 -1.1022
 1639TIP3    H226409   0.552   1.324  15.055  0.5191  0.7624 -0.8377
 1640TIP3   OH226410   6.708   5.809   1.931 -0.2647 -0.4312 -0.1231
 1640TIP3    H126411   6.771   5.767   1.873 -0.0988  0.5240 -0.6567
 1640TIP3    H226412   6.642   5.742   1.948  0.9076 -1.4669  0.4840
 1641TIP3   OH226413   3.844   0.755  14.912 -0.5771  0.2397  0.5734
 1641TIP3    H126414   3.831   0.714  14.826 -1.1533 -0.9347  1.1922
 1641TIP3    H226415   3.783   0.829  14.912  0.2098  0.9129 -0.4270
 1642TIP3   OH226416   0.170   3.136   0.925 -0.2073  0.4342  0.0706
 1642TIP3    H126417   0.228   3.181   0.987 -0.8572  1.1861  0.1406
 1642TIP3    H226418   0.117   3.206   0.886  0.7003  0.0921 -1.9157
 1643TIP3   OH226419   2.859   2.872   0.646  0.0780  0.1072  0.0492
 1643TIP3    H126420   2.937   2.926   0.638 -0.7775  1.3089 -0.6251
 1643TIP3    H226421   2.891   2.782   0.650  1.4468  0.4183 -2.1089
 1644TIP3   OH226422   2.779   3.204  14.003 -0.0001  0.9145 -0.2630
 1644TIP3    H126423   2.746   3.204  14.093  0.2565 -0.6123 -0.1397
 1644TIP3    H226424   2.722   3.264  13.956 -1.3970  0.2213  0.4922
 1645TIP3   OH226425   3.799   5.093   5.092  0.7777 -0.1280 -0.6211
 1645TIP3    H126426   3.743   5.021   5.121 -0.3130  1.1773  0.6502
 1645TIP3    H226427   3.859   5.053   5.029  0.1699 -2.1196  0.0029
 1646TIP3   OH226428   1.015   4.437   3.844 -0.1734  0.0777  0.3050
 1646TIP3    H126429   1.033   4.523   3.807  0.5253 -0.2885 -0.2299
 1646TIP3    H226430   0.939   4.450   3.900  0.1163  1.1115  0.4791
 1647TIP3   OH226431   4.951   6.511   1.853  0.0439 -1.0894  0.4050
 1647TIP3    H126432   4.861   6.518   1.823 -0.0461 -2.3156  0.3421
 1647TIP3    H226433   4.944   6.478   1.943  0.3998 -0.0612  0.8265
 1648TIP3   OH226434   6.758   2.681  15.019  0.2552  0.4063 -0.0335
 1648TIP3    H126435   6.838   2.696  14.969  0.1101  0.9961 -0.0885
 1648TIP3    H226436   6.775   2.719  15.105 -0.8039  2.7490 -0.7642
 1649TIP3   OH226437   2.296   0.681   4.336  0.0325 -0.2918 -0.2547
 1649TIP3    H126438   2.318   0.755   4.392  0.9509  0.1212 -1.1170
 1649TIP3    H226439   2.206   0.699   4.307  1.1217  1.9973 -2.6461
 1650TIP3   OH226440   4.312   1.406  12.927 -0.1402 -1.4120  0.0412
 1650TIP3    H126441   4.356   1.479  12.971 -0.2480 -0.0261 -2.0383
 1650TIP3    H226442   4.376   1.375  12.862 -0.4788 -2.5297  0.2233
 1651TIP3   OH226443   5.918   0.296  16.017 -0.7663  0.1361 -0.3633
 1651TIP3    H126444   5.841   0.328  15.970 -0.6399  0.4451 -0.3618
 1651TIP3    H226445   5.957   0.232  15.958  0.3921  1.8044 -1.4709
 1652TIP3   OH226446   4.825   1.861   6.338  0.6173 -0.4037 -0.5936
 1652TIP3    H126447   4.742   1.867   6.385  0.3860  0.6337 -1.0979
 1652TIP3    H226448   4.839   1.767   6.325 -1.8049 -0.5566 -2.8069
 1653TIP3   OH226449   2.190   3.775   3.819 -0.0556  0.1299 -0.4955
 1653TIP3    H126450   2.173   3.796   3.728 -2.7985  0.5576  0.0014
 1653TIP3    H226451   2.209   3.681   3.819  0.3978  0.2149 -1.5493
 1654TIP3   OH226452   1.059   2.424   2.072  0.3833  0.0051  0.3636
 1654TIP3    H126453   1.143   2.432   2.119 -0.3134 -0.8493  1.8451
 1654TIP3    H226454   0.996   2.468   2.128 -0.5889 -1.5659  0.5789
 1655TIP3   OH226455   4.327   0.345  11.884  0.5342  0.8283  0.0574
 1655TIP3    H126456   4.348   0.411  11.950 -2.8324  0.9514  1.2014
 1655TIP3    H226457   4.322   0.263  11.934 -0.5263  0.6678 -0.2828
 1656TIP3   OH226458   2.856   4.846   5.399  0.1543  0.4384 -0.4687
 1656TIP3    H126459   2.821   4.934   5.413  0.6718  0.7564 -1.0807
 1656TIP3    H226460   2.942   4.861   5.359  0.1248 -0.3496 -0.8462
 1657TIP3   OH226461   0.265   4.828  16.388 -0.5471  0.0843  0.0302
 1657TIP3    H126462   0.263   4.915  16.427  0.9132 -0.1094  0.6210
 1657TIP3    H226463   0.173   4.805  16.375 -1.0074  1.0887  1.2819
 1658TIP3   OH226464   4.853   1.528  15.444  0.0991  0.1075 -0.1912
 1658TIP3    H126465   4.831   1.620  15.461 -1.1500  0.2985 -2.4343
 1658TIP3    H226466   4.911   1.532  15.368  2.0624 -0.8829  1.1564
 1659TIP3   OH226467   3.764   5.147   5.680 -0.7558 -0.3826  0.1481
 1659TIP3    H126468   3.829   5.083   5.652 -0.4054  0.0196  0.0369
 1659TIP3    H226469   3.689   5.132   5.622 -0.8526 -0.9855  0.4146
 1660TIP3   OH226470   6.061   5.877  14.508  0.4507  0.1478  0.3612
 1660TIP3    H126471   6.091   5.821  14.436  0.6153 -0.8189  1.1496
 1660TIP3    H226472   6.017   5.950  14.465 -1.0956 -1.3273 -0.6869
 1661TIP3   OH226473   5.172   1.468  13.061  0.2928 -0.1356  0.2187
 1661TIP3    H126474   5.113   1.522  13.113  0.1080  0.5687 -0.7094
 1661TIP3    H226475   5.259   1.488  13.095  0.2600  1.0194 -0.3445
 1662TIP3   OH226476   6.683   6.784  10.641 -0.2252 -0.5024 -0.2047
 1662TIP3    H126477   6.699   6.737  10.559 -1.4872 -2.8086  0.7795
 1662TIP3    H226478   6.618   6.851  10.618  1.3015  0.6112 -1.5456
 1663TIP3   OH226479   4.974   5.801   5.615 -0.2729 -0.9251 -0.5352
 1663TIP3    H126480   5.040   5.735   5.594  0.6895 -0.6832  1.4261
 1663TIP3    H226481   4.921   5.760   5.684 -0.7822 -0.3026 -0.5479
 1664TIP3   OH226482   6.733   2.329  12.883 -0.0347  0.5104 -0.7472
 1664TIP3    H126483   6.706   2.411  12.926  1.9422  0.9752 -0.2877
 1664TIP3    H226484   6.740   2.352  12.790 -0.8784  0.4627 -0.8273
 1665TIP3   OH226485   4.100   5.432   0.644  0.2984  0.6906 -0.1379
 1665TIP3    H126486   4.043   5.366   0.683  0.2544  0.1110 -1.1327
 1665TIP3    H226487   4.171   5.443   0.707  0.3997 -0.4522 -0.0264
 1666TIP3   OH226488   5.141   3.974  14.825  0.4942  0.8058  0.0758
 1666TIP3    H126489   5.209   3.908  14.815  0.5800  0.9267 -0.1388
 1666TIP3    H226490   5.177   4.037  14.888 -0.5930 -0.6908  2.3692
 1667TIP3   OH226491   2.798   5.419  15.895 -0.2902 -0.4711  0.3238
 1667TIP3    H126492   2.874   5.362  15.889 -0.4915 -0.6014 -1.9408
 1667TIP3    H226493   2.727   5.368  15.856 -0.7869  0.8020 -0.5064
 1668TIP3   OH226494   2.026   0.190  15.829  0.0380  0.3427  0.0412
 1668TIP3    H126495   2.081   0.127  15.875  0.2865  0.9455  0.5824
 1668TIP3    H226496   2.076   0.271  15.830 -1.1898  1.1421  1.2803
 1669TIP3   OH226497   6.235   5.746  13.975  0.1887 -0.1512  1.1960
 1669TIP3    H126498   6.310   5.688  13.962 -0.4164 -1.2794  2.4120
 1669TIP3    H226499   6.162   5.701  13.932  0.0065  0.4744  0.8327
 1670TIP3   OH226500   2.546   0.221  11.446  0.2644  0.1244  0.2362
 1670TIP3    H126501   2.550   0.252  11.536 -2.5942  1.8298 -0.1174
 1670TIP3    H226502   2.601   0.281  11.396 -0.4182  0.9455  0.4569
 1671TIP3   OH226503   2.078   3.719   2.414  0.2313  0.9633 -0.0699
 1671TIP3    H126504   2.083   3.704   2.509  2.4742  1.6445 -0.0334
 1671TIP3    H226505   2.000   3.772   2.403  0.0594  1.0840  1.4329
 1672TIP3   OH226506   2.054   2.683  13.745 -0.8784 -0.0964 -0.1315
 1672TIP3    H126507   2.126   2.629  13.711  1.2270  0.9290  2.3451
 1672TIP3    H226508   2.048   2.756  13.683 -0.0186 -0.3583 -0.5471
 1673TIP3   OH226509   1.390   1.378  15.895  0.5236  0.4623 -0.0439
 1673TIP3    H126510   1.432   1.318  15.956  0.1644 -1.5853 -1.6959
 1673TIP3    H226511   1.297   1.377  15.920  0.4586  0.0229 -0.2967
 1674TIP3   OH226512   3.620   0.259  16.394 -0.1426 -0.0302 -0.5308
 1674TIP3    H126513   3.667   0.216  16.465 -1.3175  0.1466  0.3874
 1674TIP3    H226514   3.682   0.261  16.321  1.3979  0.5723  0.7609
 1675TIP3   OH226515   3.041   1.509   3.565 -0.4285 -1.0148 -0.1011
 1675TIP3    H126516   3.069   1.575   3.629 -1.8480 -0.1290 -0.3361
 1675TIP3    H226517   3.064   1.425   3.605  0.7148 -0.4073  0.5611
 1676TIP3   OH226518   4.447   5.469   1.069 -0.0169 -0.2172 -0.0098
 1676TIP3    H126519   4.374   5.424   1.026  0.4537 -0.9392 -0.0776
 1676TIP3    H226520   4.447   5.557   1.031 -0.5689 -0.3557 -0.3417
 1677TIP3   OH226521   6.395   0.868   3.566 -0.1367 -0.0513  0.1821
 1677TIP3    H126522   6.345   0.893   3.488 -0.1029 -2.1809 -0.5918
 1677TIP3    H226523   6.480   0.842   3.532  0.1771 -0.1802  1.0513
 1678TIP3   OH226524   1.888   0.579  15.818 -0.2127  0.2529 -0.0077
 1678TIP3    H126525   1.949   0.541  15.882  0.6913 -1.1745 -1.6425
 1678TIP3    H226526   1.839   0.505  15.784  0.4585  0.7001 -2.1246
 1679TIP3   OH226527   4.720   3.747   3.822 -0.5970  0.4681  0.3297
 1679TIP3    H126528   4.701   3.709   3.908  1.3513 -0.9877  0.1844
 1679TIP3    H226529   4.815   3.748   3.817 -0.5581 -2.3069 -2.9251
 1680TIP3   OH226530   4.715   6.634   4.205  0.0995  0.2461 -0.1938
 1680TIP3    H126531   4.810   6.635   4.203  0.1924  2.7098  1.3474
 1680TIP3    H226532   4.693   6.605   4.293 -0.5933 -0.0198 -0.4434
 1681TIP3   OH226533   0.709   5.102   0.347 -0.3050  1.0611  0.5065
 1681TIP3    H126534   0.698   5.089   0.253 -2.5899  0.8862  0.7391
 1681TIP3    H226535   0.655   5.178   0.368 -2.2172 -0.5819  2.0511
 1682TIP3   OH226536   0.829   2.128  15.767  0.0130  0.2148 -0.3257
 1682TIP3    H126537   0.866   2.179  15.838  0.2113 -0.6902  0.2355
 1682TIP3    H226538   0.783   2.192  15.713 -1.1740  0.7712  1.2726
 1683TIP3   OH226539   1.013   4.774  14.438  0.0272  0.1125 -0.5592
 1683TIP3    H126540   0.962   4.694  14.426  1.6868 -0.6626 -3.4140
 1683TIP3    H226541   1.034   4.802  14.349  3.0178  1.4057  0.4354
 1684TIP3   OH226542   0.491   0.225  17.015  0.3405  0.0500 -0.0843
 1684TIP3    H126543   0.526   0.166  16.949 -0.1714  0.3282 -0.6172
 1684TIP3    H226544   0.398   0.235  16.991  0.3681  0.8875  0.1287
 1685TIP3   OH226545   1.458   0.522  12.456 -0.1812  0.3495 -0.0871
 1685TIP3    H126546   1.506   0.498  12.377 -0.6781  0.3799 -0.4029
 1685TIP3    H226547   1.369   0.537  12.426 -0.6724 -0.9137  0.6898
 1686TIP3   OH226548   3.439   3.380  15.113  0.2213  0.1588 -0.0560
 1686TIP3    H126549   3.367   3.385  15.176  1.3383 -0.5848  1.3285
 1686TIP3    H226550   3.423   3.452  15.052 -2.4994 -0.8758 -0.6875
 1687TIP3   OH226551   5.489   6.159   4.473  0.1672  0.2223 -0.3148
 1687TIP3    H126552   5.568   6.208   4.496 -0.2477  0.7584  0.0042
 1687TIP3    H226553   5.427   6.226   4.444  0.1541 -0.2816 -1.5343
 1688TIP3   OH226554   4.888   2.568  16.099  0.0391 -0.3459  0.2355
 1688TIP3    H126555   4.881   2.473  16.085  0.0198  0.1099 -4.3982
 1688TIP3    H226556   4.968   2.579  16.150  0.8175 -2.8361 -0.2917
 1689TIP3   OH226557   6.207   4.414   4.563  0.2333  0.1560  0.4861
 1689TIP3    H126558   6.239   4.441   4.477 -3.2727 -1.2085 -1.4387
 1689TIP3    H226559   6.160   4.490   4.597  0.1894  0.1577  0.4211
 1690TIP3   OH226560   4.683   5.824   4.256  0.3167  0.7438  0.6377
 1690TIP3    H126561   4.752   5.771   4.296 -0.2113 -1.3198 -1.0346
 1690TIP3    H226562   4.601   5.785   4.287 -0.1072  1.6530  0.6993
 1691TIP3   OH226563   1.211   3.523  12.738  0.0113  0.3954  0.6365
 1691TIP3    H126564   1.179   3.456  12.798 -0.3543 -1.4971 -1.4931
 1691TIP3    H226565   1.171   3.500  12.654  2.1677  1.5854 -0.8098
 1692TIP3   OH226566   6.026   2.084  15.684 -0.5747  0.1127  0.1041
 1692TIP3    H126567   5.961   2.020  15.656  1.1902 -1.6110 -0.2566
 1692TIP3    H226568   5.984   2.133  15.754 -1.6909 -2.0584  1.0221
 1693TIP3   OH226569   2.019   3.960  12.873  0.6415 -0.4849 -0.1997
 1693TIP3    H126570   2.106   3.932  12.900  0.7591  1.5253  1.7025
 1693TIP3    H226571   2.030   3.986  12.781  1.5829 -1.9859 -0.5480
 1694TIP3   OH226572   4.287   2.230   4.878  0.0654 -0.3400 -0.5862
 1694TIP3    H126573   4.208   2.283   4.873  0.5077  0.3882 -0.1500
 1694TIP3    H226574   4.329   2.242   4.793  1.3707  2.0071  0.2896
 1695TIP3   OH226575   2.861   1.385   2.143  0.0266  0.0407  0.1173
 1695TIP3    H126576   2.870   1.465   2.195 -1.1983  0.7463 -0.7076
 1695TIP3    H226577   2.835   1.318   2.206 -1.6929  0.9393  0.4229
 1696TIP3   OH226578   4.551   1.384   1.001  0.5033 -0.0732  0.0559
 1696TIP3    H126579   4.465   1.343   0.995  0.6491 -0.1986 -3.1503
 1696TIP3    H226580   4.532   1.476   1.021 -0.6599  0.3858 -2.6280
 1697TIP3   OH226581   4.815   3.235  14.418  0.6521 -0.7834 -0.2018
 1697TIP3    H126582   4.894   3.199  14.459  0.4391 -2.3132 -1.0356
 1697TIP3    H226583   4.807   3.186  14.336  0.9987  2.0764 -2.0458
 1698TIP3   OH226584   3.161   0.392   0.008  0.2390 -0.2901 -0.4746
 1698TIP3    H126585   3.197   0.467   0.055 -1.8340  0.2904  0.3185
 1698TIP3    H226586   3.131   0.332   0.076  0.2032 -0.9804 -1.0826
 1699TIP3   OH226587   1.909   2.036  12.050 -0.2976  0.6026 -0.1898
 1699TIP3    H126588   1.856   2.064  12.125  0.1547  2.0115 -0.3653
 1699TIP3    H226589   2.000   2.045  12.080 -0.1219  0.0093 -0.5182
 1700TIP3   OH226590   5.357   3.145   5.247 -0.0146 -0.3516  0.0995
 1700TIP3    H126591   5.311   3.121   5.166 -0.2890 -0.1569  0.1995
 1700TIP3    H226592   5.288   3.167   5.309  0.1096 -2.1268  0.9285
 1701TIP3   OH226593   3.329   4.300  13.194  0.0120  0.0730 -0.0763
 1701TIP3    H126594   3.376   4.220  13.170  0.8951  0.7811 -0.7901
 1701TIP3    H226595   3.329   4.300  13.289 -0.7777 -1.2178 -0.0598
 1702TIP3   OH226596   0.457   5.587  12.613  0.1589 -0.3833  0.0211
 1702TIP3    H126597   0.478   5.497  12.636 -0.7617 -1.0128 -1.4508
 1702TIP3    H226598   0.424   5.582  12.523 -1.6471  1.1543  0.5250
 1703TIP3   OH226599   4.517   4.100   5.065 -0.0335 -0.7213  0.4852
 1703TIP3    H126600   4.479   4.186   5.084  0.8816 -0.3701  0.7683
 1703TIP3    H226601   4.551   4.070   5.149 -0.1813 -1.2879  0.3494
 1704TIP3   OH226602   6.031   5.691   3.215 -0.2785  0.0252  0.0499
 1704TIP3    H126603   6.091   5.732   3.277  0.1651 -1.9716  1.0233
 1704TIP3    H226604   5.971   5.762   3.189 -0.4668  0.9463  2.7297
 1705TIP3   OH226605   4.750   2.321  10.550  0.2151 -0.1828  0.3011
 1705TIP3    H126606   4.699   2.399  10.529 -0.2394  0.6400  3.7529
 1705TIP3    H226607   4.687   2.260  10.588  1.1364 -0.7662  0.9647
 1706TIP3   OH226608   3.470   1.532   6.253 -0.1467  0.0979  0.1639
 1706TIP3    H126609   3.515   1.572   6.328 -0.6351 -2.1566  1.7782
 1706TIP3    H226610   3.379   1.523   6.282 -0.3435 -0.8404 -0.7037
 1707TIP3   OH226611   5.411   5.961   4.646 -0.2766 -0.0257 -0.1395
 1707TIP3    H126612   5.388   5.980   4.737  0.4160 -0.1471  0.0618
 1707TIP3    H226613   5.446   6.044   4.613 -2.2978  0.6115 -0.8929
 1708TIP3   OH226614   3.460   2.621   3.890 -0.4270  0.3884  0.4946
 1708TIP3    H126615   3.467   2.583   3.802 -1.4882  2.8109 -0.7479
 1708TIP3    H226616   3.424   2.551   3.943 -2.6328 -0.3392 -1.7358
 1709TIP3   OH226617   3.779   1.688  15.688 -0.0549  0.0345 -0.2052
 1709TIP3    H126618   3.751   1.617  15.746 -0.5343 -0.7307 -1.3302
 1709TIP3    H226619   3.776   1.767  15.742 -0.7678 -0.6092  0.7167
 1710TIP3   OH226620   5.455   1.012   6.237 -0.4078  0.8095  0.3860
 1710TIP3    H126621   5.441   1.058   6.319 -2.3229 -0.8099  1.0431
 1710TIP3    H226622   5.425   0.923   6.254 -0.6484  0.3694 -2.0105
 1711TIP3   OH226623   0.029   1.728   4.437  0.1714 -0.2932  0.1667
 1711TIP3    H126624   0.018   1.646   4.388  2.4079  0.2642 -1.4141
 1711TIP3    H226625  -0.011   1.795   4.382  0.0909 -0.0440  0.5215
 1712TIP3   OH226626   5.407   2.533  12.164 -0.0940 -0.4758 -0.1236
 1712TIP3    H126627   5.360   2.541  12.247  1.0840  0.1516  0.5017
 1712TIP3    H226628   5.338   2.532  12.097 -1.1072 -1.8357  0.8981
 1713TIP3   OH226629   2.237   5.470  14.928 -0.9262  0.3352  0.1908
 1713TIP3    H126630   2.146   5.458  14.954 -0.5483  1.0224  1.9553
 1713TIP3    H226631   2.258   5.560  14.953  0.0067  0.4831 -1.0012
 1714TIP3   OH226632   0.137   1.063   2.750 -0.0126  0.0398  0.3413
 1714TIP3    H126633   0.085   1.020   2.817 -2.4566 -1.2269 -2.2009
 1714TIP3    H226634   0.196   0.995   2.717 -0.3598  0.0323 -0.2736
 1715TIP3   OH226635   5.408   6.375  10.648  0.8019  0.7358  0.3187
 1715TIP3    H126636   5.467   6.429  10.700  0.5309  0.1270  1.2816
 1715TIP3    H226637   5.324   6.379  10.695  0.9194 -0.9389  0.7332
 1716TIP3   OH226638   3.383   6.230   5.680 -0.2111  0.2816  0.4654
 1716TIP3    H126639   3.427   6.177   5.613 -0.8656  0.2477  0.0477
 1716TIP3    H226640   3.448   6.296   5.705  0.1433  0.1203 -0.0042
 1717TIP3   OH226641   6.173   6.145   5.592  0.2979  0.1989  0.1613
 1717TIP3    H126642   6.130   6.230   5.596  1.4740  0.7792  1.0927
 1717TIP3    H226643   6.194   6.124   5.683 -0.2805 -1.2700 -0.0029
 1718TIP3   OH226644   1.858   4.920   0.736 -0.3967  0.0271 -0.1556
 1718TIP3    H126645   1.770   4.956   0.732 -0.5212 -0.3152 -0.5536
 1718TIP3    H226646   1.890   4.925   0.646 -0.0784 -0.0247 -0.0467
 1719TIP3   OH226647   4.689   6.312   5.306  0.3950  0.1293 -0.0826
 1719TIP3    H126648   4.713   6.243   5.245  1.3854  0.1519  0.2481
 1719TIP3    H226649   4.601   6.289   5.336  0.6040 -0.8338 -0.1837
 1720TIP3   OH226650   3.878   6.123   0.533 -0.0468 -0.6294 -0.4627
 1720TIP3    H126651   3.900   6.126   0.626  2.4247 -2.1779 -0.9213
 1720TIP3    H226652   3.782   6.127   0.531 -0.1090  1.4819  1.9855
 1721TIP3   OH226653   4.273   6.576   0.257  0.0501 -0.1984  0.1001
 1721TIP3    H126654   4.252   6.522   0.334 -0.5377  0.2747  0.2799
 1721TIP3    H226655   4.318   6.516   0.198 -1.9265 -1.3309 -0.3639
 1722TIP3   OH226656   3.933   2.959  14.419  0.4427 -0.2699 -0.8375
 1722TIP3    H126657   3.843   2.947  14.450  0.1246 -2.4564 -2.3741
 1722TIP3    H226658   3.938   3.052  14.395 -1.3912 -0.0992 -0.7212
 1723TIP3   OH226659   0.938   3.261   3.220 -0.2903 -0.1305  0.5964
 1723TIP3    H126660   0.964   3.184   3.168 -2.6667  0.4571 -1.6999
 1723TIP3    H226661   0.986   3.333   3.180 -1.3711  0.1778 -0.1842
 1724TIP3   OH226662   0.791   0.270  11.624 -0.3884  0.0447 -0.1350
 1724TIP3    H126663   0.852   0.197  11.620  0.5202  0.6654  1.3282
 1724TIP3    H226664   0.833   0.340  11.574 -1.1454 -0.3399 -1.3350
 1725TIP3   OH226665   6.569   4.691  17.122  0.2096 -0.5026  0.0362
 1725TIP3    H126666   6.527   4.696  17.209  0.8725  0.5182  0.3108
 1725TIP3    H226667   6.526   4.760  17.071 -0.4009 -1.3080 -0.5612
 1726TIP3   OH226668   0.671   0.443  12.091  0.3441  0.5877 -1.0253
 1726TIP3    H126669   0.671   0.463  11.997 -0.4929 -1.3364 -1.4855
 1726TIP3    H226670   0.580   0.454  12.118  0.3428 -0.0850 -0.7357
 1727TIP3   OH226671   4.109   1.234  11.501  0.5157 -0.1477  0.4769
 1727TIP3    H126672   4.061   1.168  11.550  1.2215 -0.0137  1.3871
 1727TIP3    H226673   4.179   1.261  11.560  1.2821  0.1674 -0.5381
 1728TIP3   OH226674   2.848   4.295  13.527  0.3424  0.2868  0.2910
 1728TIP3    H126675   2.830   4.206  13.498 -0.0592  0.1184  1.0264
 1728TIP3    H226676   2.877   4.285  13.618  0.4465  0.8918  0.3295
 1729TIP3   OH226677   1.981   1.111   6.053 -0.9748  0.1875 -0.4536
 1729TIP3    H126678   2.059   1.143   6.100 -0.5002 -0.2161 -0.9615
 1729TIP3    H226679   1.927   1.071   6.122  0.5430 -2.0256 -0.4699
 1730TIP3   OH226680   2.116   4.409   1.528  0.1872  0.4681 -0.0814
 1730TIP3    H126681   2.185   4.444   1.583  0.6606  0.1451 -0.4646
 1730TIP3    H226682   2.158   4.339   1.478 -0.8059 -0.9359  0.9456
 1731TIP3   OH226683   1.658   2.871   0.255  0.0936  0.2188 -0.1627
 1731TIP3    H126684   1.647   2.964   0.271  0.3595  0.1054  0.7492
 1731TIP3    H226685   1.735   2.865   0.198  0.3098  0.5325  0.0936
 1732TIP3   OH226686   4.678   6.112   5.682 -0.0897 -0.0434  0.1377
 1732TIP3    H126687   4.768   6.083   5.699  0.0786  0.2519 -0.2340
 1732TIP3    H226688   4.679   6.205   5.701  0.6200  0.7692 -3.2237
 1733TIP3   OH226689   2.972   6.489   1.182  0.1104 -0.7459  0.2195
 1733TIP3    H126690   2.896   6.477   1.127 -0.7704 -1.9317  1.6085
 1733TIP3    H226691   3.036   6.534   1.127 -1.9664  1.3238 -0.6396
 1734TIP3   OH226692   5.699   4.242   4.394  0.1092  0.1833  0.0514
 1734TIP3    H126693   5.729   4.171   4.337  0.4376  0.2928  0.0876
 1734TIP3    H226694   5.734   4.321   4.355 -0.9354  0.4165 -0.4410
 1735TIP3   OH226695   3.940   3.153  16.628 -0.6079 -0.9030  0.5404
 1735TIP3    H126696   3.968   3.244  16.614 -0.9108 -0.9676 -0.5431
 1735TIP3    H226697   3.903   3.153  16.716  0.0864 -0.1511  0.8479
 1736TIP3   OH226698   1.870   1.531   1.437 -0.1409 -0.0253 -0.1627
 1736TIP3    H126699   1.939   1.562   1.377  0.6602  0.5536  1.0117
 1736TIP3    H226700   1.789   1.560   1.397  0.3079 -0.4624 -1.4407
 1737TIP3   OH226701   3.165   2.314  16.187 -0.1422  0.7980  0.3134
 1737TIP3    H126702   3.200   2.323  16.275  0.9058  1.1843 -0.1326
 1737TIP3    H226703   3.181   2.398  16.145 -2.3420  1.2927  0.3202
 1738TIP3   OH226704   6.213   2.715  13.008  0.1093 -0.2135 -0.0009
 1738TIP3    H126705   6.238   2.686  12.920  1.0563  1.0855 -0.1984
 1738TIP3    H226706   6.290   2.762  13.039 -1.1428  1.6378  0.4677
 1739TIP3   OH226707   6.352   0.868  15.021 -0.3266 -1.0075 -0.5477
 1739TIP3    H126708   6.443   0.891  15.039 -0.3650 -0.5308 -0.9638
 1739TIP3    H226709   6.305   0.951  15.025 -0.8003 -1.2919 -0.0298
 1740TIP3   OH226710   5.899   4.614  15.659 -0.2151  0.1518 -0.6160
 1740TIP3    H126711   5.967   4.675  15.632  0.5008 -1.4878 -2.7845
 1740TIP3    H226712   5.821   4.669  15.670  1.1332  1.8917  0.8208
 1741TIP3   OH226713   2.319   3.458   3.094  0.5039 -0.2377 -0.6370
 1741TIP3    H126714   2.281   3.386   3.144  0.5566  0.0061 -0.2362
 1741TIP3    H226715   2.270   3.535   3.123  0.7886 -0.0370 -0.6823
 1742TIP3   OH226716   2.959   4.872  16.789  0.9987 -0.2504  0.2452
 1742TIP3    H126717   2.919   4.918  16.715  0.5380  2.2248  1.9108
 1742TIP3    H226718   3.053   4.884  16.775  0.9105  0.3562  0.1275
 1743TIP3   OH226719   2.770   5.498  11.589  0.2382  0.4518  0.4721
 1743TIP3    H126720   2.684   5.511  11.629 -0.8286 -0.2557 -1.4622
 1743TIP3    H226721   2.799   5.413  11.620 -1.5353 -1.0729 -1.7292
 1744TIP3   OH226722   4.159   2.737   6.507  0.1852  0.4519  0.6133
 1744TIP3    H126723   4.073   2.779   6.508  0.5863  1.2813  0.9971
 1744TIP3    H226724   4.218   2.803   6.472  0.4012 -0.7131 -1.3541
 1745TIP3   OH226725   3.887   1.338  16.783 -0.2515 -0.3039 -0.6799
 1745TIP3    H126726   3.838   1.407  16.737  0.2904 -0.2510 -1.1886
 1745TIP3    H226727   3.905   1.272  16.716  1.5624  0.3084 -0.8652
 1746TIP3   OH226728   3.239   1.610   5.864 -0.0868  0.2684  0.2167
 1746TIP3    H126729   3.252   1.649   5.950 -0.2453  0.2825  0.2354
 1746TIP3    H226730   3.216   1.684   5.807  3.5826  0.8856 -0.6990
 1747TIP3   OH226731   6.212   1.189  12.230 -0.7273 -0.0313  0.0677
 1747TIP3    H126732   6.171   1.274  12.215 -1.1516  0.0192  1.4587
 1747TIP3    H226733   6.297   1.196  12.187  0.0229  1.7588  1.7170
 1748TIP3   OH226734   2.293   6.304  16.637 -0.3170 -0.3822  0.5320
 1748TIP3    H126735   2.205   6.341  16.629 -0.1532  0.1882  1.2149
 1748TIP3    H226736   2.321   6.289  16.547  0.4975  3.3240  0.0297
 1749TIP3   OH226737   6.613   4.525   2.100 -0.0438  0.0132  0.1427
 1749TIP3    H126738   6.691   4.558   2.055 -1.2023 -0.7768 -2.6765
 1749TIP3    H226739   6.590   4.594   2.162  1.4399  1.3899 -0.7475
 1750TIP3   OH226740   4.067   4.921   3.267 -0.6829  0.2493 -0.1861
 1750TIP3    H126741   4.044   4.887   3.181  0.0855  1.6712 -0.9889
 1750TIP3    H226742   4.159   4.898   3.278 -1.3548 -2.0787  1.3701
 1751TIP3   OH226743   4.701   6.012   5.362 -0.0081 -0.5249  0.0279
 1751TIP3    H126744   4.773   6.048   5.414 -0.3799  0.7105 -0.2775
 1751TIP3    H226745   4.674   5.933   5.409 -0.4567  0.6435  1.8323
 1752TIP3   OH226746   5.885   1.298  13.128 -0.1306  0.2623 -0.6443
 1752TIP3    H126747   5.803   1.312  13.176 -0.4007  0.0580 -1.0408
 1752TIP3    H226748   5.871   1.216  13.080  0.8797 -0.6307  0.5009
 1753TIP3   OH226749   0.181   2.595   0.822 -0.2096  0.0671 -0.0004
 1753TIP3    H126750   0.152   2.686   0.824 -0.3319  0.0274 -0.0077
 1753TIP3    H226751   0.238   2.590   0.745 -0.5552  0.0283 -0.2561
 1754TIP3   OH226752   3.876   0.228   3.334 -0.2043  0.4514 -0.3602
 1754TIP3    H126753   3.807   0.245   3.398  0.5786  0.3938  0.5304
 1754TIP3    H226754   3.908   0.315   3.310  0.4113  0.4411  0.3748
 1755TIP3   OH226755   3.736   3.801   1.414 -0.1679  0.6191  0.3446
 1755TIP3    H126756   3.810   3.741   1.427  0.7307  1.7928  0.8558
 1755TIP3    H226757   3.665   3.745   1.384  0.6990 -0.6704  0.6041
 1756TIP3   OH226758   0.944   2.327   5.370 -0.1660 -0.6996 -0.3920
 1756TIP3    H126759   0.886   2.282   5.432 -2.1028  2.3787  0.2724
 1756TIP3    H226760   1.002   2.379   5.425 -0.0005 -0.0748 -1.1499
 1757TIP3   OH226761   0.438   0.292   1.055 -0.3140 -0.2165 -0.4393
 1757TIP3    H126762   0.474   0.248   1.132 -2.0218  0.3385  0.7358
 1757TIP3    H226763   0.442   0.385   1.076 -1.6499 -0.1057 -0.5994
 1758TIP3   OH226764   2.626   3.400   4.538 -0.2986 -0.7571 -0.7366
 1758TIP3    H126765   2.710   3.442   4.556 -0.4661 -0.1264 -1.3950
 1758TIP3    H226766   2.580   3.403   4.622  0.5369 -1.5938 -0.2340
 1759TIP3   OH226767   2.531   1.084  13.802 -0.6969  0.0816  0.2601
 1759TIP3    H126768   2.448   1.050  13.769 -0.7389 -1.1184  1.5120
 1759TIP3    H226769   2.587   1.007  13.812 -0.5656  0.4167  2.5865
 1760TIP3   OH226770   4.161   4.519  12.425  0.1659 -0.1423 -0.2700
 1760TIP3    H126771   4.122   4.600  12.459  0.9127  1.6847 -3.3946
 1760TIP3    H226772   4.207   4.482  12.500 -1.9710  1.1468  1.8158
 1761TIP3   OH226773   6.483   6.023  15.111 -0.5200  0.6039  0.8201
 1761TIP3    H126774   6.522   6.104  15.143 -1.6599  0.3659  3.0925
 1761TIP3    H226775   6.534   5.953  15.152 -0.0909  0.1601 -0.4184
 1762TIP3   OH226776   0.593   3.864   1.699 -0.1500 -0.3951 -0.2010
 1762TIP3    H126777   0.631   3.797   1.756  0.9019  0.6003  0.3232
 1762TIP3    H226778   0.663   3.885   1.637 -0.7486 -0.3496 -0.8757
 1763TIP3   OH226779   6.370   2.632  15.852  0.0673  0.2044  0.2590
 1763TIP3    H126780   6.458   2.652  15.884  1.2333 -0.4437 -2.3002
 1763TIP3    H226781   6.339   2.714  15.814  1.0403 -0.3576 -1.8981
 1764TIP3   OH226782   1.544   6.234  14.289 -0.1873  0.7208  0.1977
 1764TIP3    H126783   1.460   6.269  14.318 -0.9337  0.6265 -1.6766
 1764TIP3    H226784   1.605   6.307  14.298 -0.6799  1.0743  0.7267
 1765TIP3   OH226785   2.382   2.364   0.789  0.0222 -0.2615  1.0475
 1765TIP3    H126786   2.320   2.356   0.862 -0.4522 -2.6581  0.4573
 1765TIP3    H226787   2.337   2.322   0.716  0.0499  2.9121 -1.0085
 1766TIP3   OH226788   0.750   0.784   1.381  0.0088  0.0041 -0.8327
 1766TIP3    H126789   0.744   0.822   1.293 -1.1523  0.6821 -0.4905
 1766TIP3    H226790   0.714   0.696   1.372 -0.1617  0.0928 -1.0364
 1767TIP3   OH226791   3.373   5.420   3.430 -0.0157  0.0772  0.2424
 1767TIP3    H126792   3.355   5.328   3.416 -1.3868  0.4574 -0.5914
 1767TIP3    H226793   3.299   5.452   3.482  0.2161  0.8183  0.1352
 1768TIP3   OH226794   6.421   6.456  16.564 -0.0417  0.2485 -0.1401
 1768TIP3    H126795   6.338   6.415  16.589  0.3650 -0.0844  0.6919
 1768TIP3    H226796   6.486   6.415  16.621  0.4500  1.7158  0.3915
 1769TIP3   OH226797   4.733   2.513   3.222 -0.0892  0.5736  0.0716
 1769TIP3    H126798   4.810   2.474   3.265 -0.4251 -2.8034 -2.0224
 1769TIP3    H226799   4.763   2.599   3.192  1.6918  0.8681  2.4203
 1770TIP3   OH226800   6.521   2.335  13.569 -0.3260  0.1624  0.1983
 1770TIP3    H126801   6.487   2.420  13.598  2.0027  1.0754  0.4544
 1770TIP3    H226802   6.444   2.278  13.567 -1.7149  1.8817  1.4714
 1771TIP3   OH226803   3.980   0.254   4.594 -0.1440  0.4240 -0.5312
 1771TIP3    H126804   4.054   0.253   4.655 -1.9110 -0.4813  1.7560
 1771TIP3    H226805   3.986   0.338   4.549  3.1638 -0.3068 -1.6827
 1772TIP3   OH226806   4.631   2.983   5.811 -0.0066 -0.2713  0.4075
 1772TIP3    H126807   4.674   3.062   5.779  1.4195 -1.3542 -0.4846
 1772TIP3    H226808   4.537   3.000   5.797  0.3429  0.7383 -1.0170
 1773TIP3   OH226809   3.628   6.024  15.280 -0.0118  0.2337 -0.4760
 1773TIP3    H126810   3.722   6.039  15.273  0.0402 -0.4121 -1.3943
 1773TIP3    H226811   3.607   5.972  15.202 -1.6308  2.7660 -1.8493
 1774TIP3   OH226812   6.249   6.019   4.018  0.1530  0.5217 -0.0169
 1774TIP3    H126813   6.160   5.989   3.998  0.7275 -1.3638  0.0477
 1774TIP3    H226814   6.304   5.972   3.956  1.0073  2.9551 -1.2137
 1775TIP3   OH226815   4.208   5.831  15.637  0.3511 -0.3464 -0.2246
 1775TIP3    H126816   4.125   5.872  15.664 -0.1372  0.0355 -2.1265
 1775TIP3    H226817   4.183   5.744  15.607  0.2441  0.4493 -2.6818
 1776TIP3   OH226818   5.450   5.288  12.344 -0.0003 -0.2592 -0.0585
 1776TIP3    H126819   5.384   5.343  12.387  0.7201 -0.0868  0.8831
 1776TIP3    H226820   5.475   5.225  12.412  0.3091 -0.7583 -0.6305
 1777TIP3   OH226821   5.916   0.642  14.073 -0.1751 -0.3625  0.2079
 1777TIP3    H126822   5.998   0.599  14.098  0.7034  1.7436  1.1540
 1777TIP3    H226823   5.918   0.643  13.977  0.3227 -1.3959  0.1947
 1778TIP3   OH226824   2.630   1.153   4.312  0.5327 -0.6467  0.0204
 1778TIP3    H126825   2.694   1.205   4.262 -0.8701 -0.9135 -2.2067
 1778TIP3    H226826   2.588   1.217   4.369  0.5099  0.2231 -0.9220
 1779TIP3   OH226827   6.305   3.394   4.422  0.3846 -0.1694  0.0556
 1779TIP3    H126828   6.386   3.371   4.467  0.2816 -0.6277  0.0067
 1779TIP3    H226829   6.332   3.445   4.346  0.7137 -1.3198 -0.6252
 1780TIP3   OH226830   1.606   3.496  17.096 -0.5122  0.4431 -0.0380
 1780TIP3    H126831   1.564   3.559  17.038 -0.2603  1.1360  0.5189
 1780TIP3    H226832   1.537   3.434  17.119 -0.4595 -0.2229 -1.5699
 1781TIP3   OH226833   0.976   3.241   6.296 -0.2092  0.0446  0.6127
 1781TIP3    H126834   1.059   3.273   6.261 -0.6124 -0.6349 -1.0347
 1781TIP3    H226835   0.985   3.146   6.297 -1.0878 -0.0538  0.0914
 1782TIP3   OH226836   3.798   0.561   6.084  0.1998 -0.0709 -0.3208
 1782TIP3    H126837   3.786   0.485   6.141  3.1068 -0.3472  0.0872
 1782TIP3    H226838   3.826   0.631   6.143  4.9465 -0.7880 -1.2489
 1783TIP3   OH226839   5.836   6.313  11.578  0.4693 -0.3567 -0.2268
 1783TIP3    H126840   5.857   6.231  11.533  0.8406  0.5187 -1.7235
 1783TIP3    H226841   5.746   6.333  11.551  0.9542  0.5607 -1.2598
 1784TIP3   OH226842   1.993   6.728   0.848 -0.1775  0.5076  0.0514
 1784TIP3    H126843   2.023   6.664   0.913 -2.8156  1.2078  2.1620
 1784TIP3    H226844   1.987   6.678   0.767  0.7687 -1.1212  0.9263
 1785TIP3   OH226845   2.473   6.619   3.056 -0.4066  0.2068 -0.3992
 1785TIP3    H126846   2.404   6.678   3.087 -0.9458 -0.3843 -0.4350
 1785TIP3    H226847   2.433   6.574   2.981  0.2587  0.3386 -0.8396
 1786TIP3   OH226848   3.166   1.574  13.257 -0.0214  0.3400 -0.3536
 1786TIP3    H126849   3.187   1.482  13.240 -0.9846  0.1149 -0.4054
 1786TIP3    H226850   3.192   1.620  13.176  0.8112  0.1788 -0.1813
 1787TIP3   OH226851   4.798   2.790   5.728  0.1454  0.1745 -0.1089
 1787TIP3    H126852   4.736   2.844   5.776 -0.5619 -0.0890 -0.7079
 1787TIP3    H226853   4.797   2.826   5.639 -0.2862 -0.7681 -0.4992
 1788TIP3   OH226854   1.512   6.005  15.543  0.2340  0.4494  0.3104
 1788TIP3    H126855   1.551   6.011  15.630  1.2425  2.5111 -0.2326
 1788TIP3    H226856   1.571   6.055  15.486 -0.1216 -1.2687 -1.6845
 1789TIP3   OH226857   1.570   2.667  12.208 -0.5051 -0.5303 -0.2617
 1789TIP3    H126858   1.532   2.685  12.121  0.4385 -0.1928 -0.6096
 1789TIP3    H226859   1.504   2.699  12.269 -0.2289  1.3231 -0.8648
 1790TIP3   OH226860   5.874   6.713   4.056 -0.8992 -0.0871  0.1602
 1790TIP3    H126861   5.792   6.717   4.006  0.1563  0.1462 -1.6341
 1790TIP3    H226862   5.888   6.619   4.071 -0.4952 -0.2698 -1.2776
 1791TIP3   OH226863   1.138   1.958  13.863  0.2042  0.4327  0.6903
 1791TIP3    H126864   1.128   2.013  13.785 -0.9889 -1.0596 -0.2533
 1791TIP3    H226865   1.232   1.942  13.869  0.2286 -0.1168 -0.9392
 1792TIP3   OH226866   6.135   2.946   2.329  0.8632 -0.0251 -0.3556
 1792TIP3    H126867   6.173   2.897   2.401  0.6134  2.4859  1.6148
 1792TIP3    H226868   6.207   2.999   2.295  0.8292 -0.7386 -1.6157
 1793TIP3   OH226869   1.799   5.643  14.819  0.5566 -0.4085  0.1305
 1793TIP3    H126870   1.832   5.719  14.865  2.5651 -1.8775  1.2528
 1793TIP3    H226871   1.709   5.632  14.850  0.8651  0.4192  1.3400
 1794TIP3   OH226872   4.856   1.603  12.997  0.3235 -0.4468 -0.2521
 1794TIP3    H126873   4.765   1.625  12.979  0.3721 -0.3476 -0.3792
 1794TIP3    H226874   4.872   1.639  13.084  0.5548  0.4954 -0.6690
 1795TIP3   OH226875   2.518   5.565   4.676 -0.3252 -0.8818 -0.1475
 1795TIP3    H126876   2.485   5.601   4.759 -1.3411  0.5344 -1.1203
 1795TIP3    H226877   2.440   5.527   4.634 -0.7715  2.0807 -2.2751
 1796TIP3   OH226878   3.935   6.792  14.224 -0.3196 -0.4802  0.2629
 1796TIP3    H126879   3.976   6.858  14.280 -1.0063  0.1771  0.0078
 1796TIP3    H226880   3.841   6.807  14.234 -0.5164 -1.8327  0.6856
 1797TIP3   OH226881   1.512   5.216  12.456  0.2730 -0.3695 -0.0622
 1797TIP3    H126882   1.534   5.212  12.363  1.7768  0.9914  0.1868
 1797TIP3    H226883   1.420   5.191  12.461 -0.8102  2.6236 -2.3303
 1798TIP3   OH226884   0.697   4.893  10.885 -0.5111  0.6679  0.2798
 1798TIP3    H126885   0.710   4.801  10.907  0.5803  0.2933 -1.6945
 1798TIP3    H226886   0.762   4.940  10.936  1.4940 -0.0965 -1.4307
 1799TIP3   OH226887   0.289   2.246  11.844 -0.5033  0.3591  0.0233
 1799TIP3    H126888   0.343   2.241  11.766  0.3912 -0.1561  0.6576
 1799TIP3    H226889   0.300   2.161  11.886 -1.3985  0.4343  0.4409
 1800TIP3   OH226890   2.050   2.509   4.942 -0.3388 -0.1505  0.1020
 1800TIP3    H126891   2.089   2.493   5.028  0.3048 -2.4106 -0.5591
 1800TIP3    H226892   1.957   2.489   4.953 -0.3156 -0.1308  0.3429
 1801TIP3   OH226893   3.945   1.789   6.021 -0.5391  0.2522  0.1175
 1801TIP3    H126894   3.862   1.777   6.067 -1.3377  0.5979 -1.1954
 1801TIP3    H226895   3.969   1.880   6.038  0.5755 -0.3394  2.0521
 1802TIP3   OH226896   4.027   1.589   3.297 -0.4566  0.1951  0.5424
 1802TIP3    H126897   3.967   1.614   3.367  0.1759 -1.0411  1.5499
 1802TIP3    H226898   4.111   1.627   3.323 -0.0922 -0.7361  0.7543
 1803TIP3   OH226899   6.342   5.669  11.030 -0.0456  0.9729  0.6869
 1803TIP3    H126900   6.295   5.590  11.055  0.6962 -0.3796 -1.8583
 1803TIP3    H226901   6.276   5.723  10.985  0.1097  0.4551 -0.1764
 1804TIP3   OH226902   4.365   1.968   1.875  0.3186 -0.0374  0.3546
 1804TIP3    H126903   4.375   1.875   1.895 -0.0727  0.0442  0.9635
 1804TIP3    H226904   4.432   1.986   1.809  0.6395 -0.6649  0.5028
 1805TIP3   OH226905   1.216   6.416   1.689  0.1184 -0.1033 -0.4826
 1805TIP3    H126906   1.149   6.366   1.642  1.9355 -1.3172 -1.9261
 1805TIP3    H226907   1.274   6.448   1.620  1.3748  0.3604  0.7594
 1806TIP3   OH226908   3.479   1.685   4.983 -0.2641 -0.4623  0.1567
 1806TIP3    H126909   3.542   1.638   5.037 -0.2609  0.8981  1.3825
 1806TIP3    H226910   3.527   1.705   4.902 -0.5000 -3.1495 -0.7250
 1807TIP3   OH226911   0.524   4.089   0.197  0.4732  1.1440 -0.1000
 1807TIP3    H126912   0.476   4.119   0.273  0.1614  0.1873  0.0999
 1807TIP3    H226913   0.610   4.130   0.205  0.7370  0.4041  1.2339
 1808TIP3   OH226914   3.758   6.085   2.179 -0.3787  0.0004 -0.3423
 1808TIP3    H126915   3.741   6.022   2.109 -0.9639 -1.6494  1.2187
 1808TIP3    H226916   3.671   6.110   2.211 -0.1003 -0.2533  0.6323
 1809TIP3   OH226917   4.437   4.599   3.928 -0.4768 -0.3000 -0.0918
 1809TIP3    H126918   4.368   4.648   3.974  2.1171  3.2360  0.4687
 1809TIP3    H226919   4.511   4.601   3.989  0.8399 -1.9609 -1.5649
 1810TIP3   OH226920   1.191   6.164  11.522  0.0617 -0.0906 -0.0386
 1810TIP3    H126921   1.271   6.182  11.572 -0.2158  1.2503 -0.0369
 1810TIP3    H226922   1.212   6.195  11.433  0.0347 -1.0834 -0.4079
 1811TIP3   OH226923   4.295   5.201   0.190  0.2908  0.5300 -0.2057
 1811TIP3    H126924   4.203   5.226   0.195 -0.4418 -1.0900 -3.2804
 1811TIP3    H226925   4.343   5.284   0.184 -1.2352  1.3567 -1.4094
 1812TIP3   OH226926   1.245   3.250  11.997 -0.4740  0.0853 -0.8612
 1812TIP3    H126927   1.276   3.197  12.070  2.4273 -0.1454 -2.1186
 1812TIP3    H226928   1.189   3.192  11.946 -2.1263  0.1024  0.8612
 1813TIP3   OH226929   2.410   3.616   0.741 -0.3183  0.1649  0.0765
 1813TIP3    H126930   2.413   3.698   0.791 -0.5991  0.4737 -0.4105
 1813TIP3    H226931   2.332   3.571   0.774  0.1243 -0.1522  0.7152
 1814TIP3   OH226932   0.145   2.199   3.380  0.5754 -0.5587 -0.1315
 1814TIP3    H126933   0.235   2.166   3.375  0.5562 -1.1011  2.1569
 1814TIP3    H226934   0.099   2.138   3.436 -1.8643 -1.4345 -2.8099
 1815TIP3   OH226935   2.759   0.992  11.974  0.0765 -0.2243  0.4819
 1815TIP3    H126936   2.739   1.043  12.052  1.5020  3.2029 -1.1729
 1815TIP3    H226937   2.690   1.015  11.912  1.8200  1.4913 -0.9616
 1816TIP3   OH226938   5.640   6.768   3.719 -0.1573  0.6751  0.1183
 1816TIP3    H126939   5.674   6.832   3.657  0.9818  0.6392  0.6878
 1816TIP3    H226940   5.716   6.717   3.745 -0.6594  0.5087  1.3312
 1817TIP3   OH226941   5.564   6.808   3.990  0.3209 -0.0492  0.3105
 1817TIP3    H126942   5.567   6.798   3.895  1.5445  2.5565  0.0035
 1817TIP3    H226943   5.472   6.827   4.010 -0.7736 -4.2060  0.2300
 1818TIP3   OH226944   1.612   2.737   4.935  0.0200 -0.4197  0.3392
 1818TIP3    H126945   1.607   2.784   5.018 -1.2796  1.1243 -0.5294
 1818TIP3    H226946   1.594   2.805   4.869 -2.0166 -2.1295 -1.0067
 1819TIP3   OH226947   0.599   6.546   0.995  0.1412  0.3209 -0.1051
 1819TIP3    H126948   0.514   6.578   0.964 -0.7978 -1.1195  0.8654
 1819TIP3    H226949   0.581   6.458   1.029  1.5831  0.8138  2.1375
 1820TIP3   OH226950   5.895   1.111  13.403 -0.2856  0.1514 -0.5785
 1820TIP3    H126951   5.977   1.081  13.443 -1.5266 -1.3416  0.9680
 1820TIP3    H226952   5.911   1.105  13.309  0.5949 -2.5163 -0.3314
 1821TIP3   OH226953   6.342   0.166   3.842  0.3420  0.5611  0.2420
 1821TIP3    H126954   6.387   0.083   3.832 -3.5327 -1.9012  1.0496
 1821TIP3    H226955   6.359   0.193   3.932  1.2358  0.3944  0.1254
 1822TIP3   OH226956   5.840   2.065  13.250  0.0011 -0.5514 -0.1745
 1822TIP3    H126957   5.870   2.150  13.284 -2.0124 -0.0397  0.4598
 1822TIP3    H226958   5.916   2.008  13.259  0.5915  0.4600  2.0656
 1823TIP3   OH226959   4.179   5.243  14.350  0.6010 -0.2427 -0.4838
 1823TIP3    H126960   4.136   5.327  14.330  1.3181 -0.1082 -1.5406
 1823TIP3    H226961   4.272   5.264  14.351  0.7143 -0.4474  2.1737
 1824TIP3   OH226962   5.134   3.404   4.706  0.9112 -0.0870  0.0387
 1824TIP3    H126963   5.100   3.337   4.765 -1.8747 -0.2016 -1.4906
 1824TIP3    H226964   5.140   3.483   4.761 -1.7272 -0.1469  0.5640
 1825TIP3   OH226965   6.580   2.060   3.708  0.3563 -0.1849 -0.0527
 1825TIP3    H126966   6.555   2.107   3.788 -0.3794  2.3831 -1.6601
 1825TIP3    H226967   6.667   2.094   3.686  0.4683 -0.7087 -0.4459
 1826TIP3   OH226968   3.777   5.421   0.571  0.3708  0.4423 -0.5902
 1826TIP3    H126969   3.809   5.373   0.647  0.7357  2.4924  0.6430
 1826TIP3    H226970   3.715   5.362   0.529  0.7308 -1.0337  0.8721
 1827TIP3   OH226971   3.079   2.502   3.949 -0.3389  0.1305 -0.1354
 1827TIP3    H126972   3.056   2.456   3.868 -0.1050 -0.8592  0.3447
 1827TIP3    H226973   3.151   2.451   3.986 -1.7134 -0.5983  1.6999
 1828TIP3   OH226974   6.798   5.437  11.842  0.0629 -0.0513  0.1821
 1828TIP3    H126975   6.814   5.475  11.929  1.3051  1.4160 -0.6295
 1828TIP3    H226976   6.716   5.476  11.814 -1.1618 -1.7016  1.2584
 1829TIP3   OH226977   3.543   0.591  13.176  0.0296  0.1838 -0.1422
 1829TIP3    H126978   3.456   0.631  13.174  0.1579  0.4730 -0.0682
 1829TIP3    H226979   3.597   0.647  13.120 -0.5590 -1.8033 -2.8848
 1830TIP3   OH226980   1.621   3.864   0.903 -0.1688  0.0454 -0.8620
 1830TIP3    H126981   1.589   3.801   0.839 -0.2521  0.6312 -1.3997
 1830TIP3    H226982   1.543   3.912   0.931 -0.1409 -0.2308 -0.2850
 1831TIP3   OH226983   0.451   4.559  12.188  0.1398  0.1413 -0.6885
 1831TIP3    H126984   0.415   4.476  12.221  1.5859 -0.8133 -1.4041
 1831TIP3    H226985   0.544   4.554  12.209  0.2490  1.6034 -0.7627
 1832TIP3   OH226986   6.159   6.475  11.701 -0.0209 -0.0439  0.5153
 1832TIP3    H126987   6.237   6.419  11.702 -0.4724 -0.6793  1.0332
 1832TIP3    H226988   6.132   6.478  11.609  1.7103  1.7698 -0.0150
 1833TIP3   OH226989   4.407   1.034  15.677  0.1099  0.8167 -0.2661
 1833TIP3    H126990   4.325   1.049  15.632 -0.1877 -1.5208 -0.6063
 1833TIP3    H226991   4.382   0.994  15.760  0.8801  0.2942 -0.2728
 1834TIP3   OH226992   6.490   2.641   1.736  0.1602 -0.5662  0.0735
 1834TIP3    H126993   6.461   2.643   1.827  3.1042 -0.1161  1.1027
 1834TIP3    H226994   6.488   2.549   1.712 -0.4089 -0.7129  0.6634
 1835TIP3   OH226995   0.608   0.854  13.568  0.4179 -0.0879  0.4289
 1835TIP3    H126996   0.594   0.921  13.635 -1.2904 -0.4079  0.4333
 1835TIP3    H226997   0.628   0.903  13.488  1.3662  0.3307  0.9033
 1836TIP3   OH226998   6.802   3.371   5.845  0.2376 -0.1207 -0.2994
 1836TIP3    H126999   6.890   3.359   5.808  0.9127 -0.2224  1.2512
 1836TIP3    H227000   6.818   3.413   5.930 -1.3003  0.8251 -0.4460
 1837TIP3   OH227001   4.519   0.017   5.977  0.0786 -0.3091  0.3234
 1837TIP3    H127002   4.432  -0.001   6.013 -0.4029  0.0054 -0.6419
 1837TIP3    H227003   4.578  -0.042   6.025 -0.6331 -0.3895  1.1179
 1838TIP3   OH227004   2.988   3.979   2.958 -0.8969 -0.0607 -0.5903
 1838TIP3    H127005   2.906   3.985   3.006  0.0134 -1.5810  1.3260
 1838TIP3    H227006   3.055   3.996   3.024  0.3600  0.2983 -1.9089
 1839TIP3   OH227007   5.662   5.039   4.075  0.1498  0.2734 -0.1477
 1839TIP3    H127008   5.665   5.074   3.986 -0.8942 -2.2686 -1.2597
 1839TIP3    H227009   5.713   4.958   4.071  0.0341  0.0808  1.5811
 1840TIP3   OH227010   2.446   5.234  10.877 -0.0960  0.0339 -0.4571
 1840TIP3    H127011   2.461   5.250  10.784 -1.5601 -1.0064 -0.9059
 1840TIP3    H227012   2.470   5.317  10.919  0.6511  0.5016 -1.7322
 1841TIP3   OH227013   5.622   0.806   4.895  0.2175 -0.0911  0.1432
 1841TIP3    H127014   5.633   0.713   4.917 -1.2124 -0.3727 -0.2031
 1841TIP3    H227015   5.545   0.833   4.944 -0.8374  0.2323 -1.5985
 1842TIP3   OH227016   6.252   5.585   2.768 -0.9397  0.2761 -0.0590
 1842TIP3    H127017   6.269   5.606   2.677 -0.0606 -0.5926 -0.1069
 1842TIP3    H227018   6.277   5.664   2.816  0.9664 -0.0947 -0.3593
 1843TIP3   OH227019   5.488   2.142  16.402  0.3888  0.2453 -0.4935
 1843TIP3    H127020   5.418   2.171  16.461  0.6060  0.1442 -0.1821
 1843TIP3    H227021   5.494   2.210  16.336  1.6360  1.5057  0.8326
 1844TIP3   OH227022   2.236   1.594   2.030 -0.0890 -0.2150 -0.3235
 1844TIP3    H127023   2.153   1.586   1.984 -0.1953  0.0812 -0.1903
 1844TIP3    H227024   2.234   1.525   2.096 -0.5713  0.2701  0.1875
 1845TIP3   OH227025   3.908   0.188   3.843  0.0198 -0.3954  0.3390
 1845TIP3    H127026   3.954   0.243   3.779  1.6973 -0.8016  1.1356
 1845TIP3    H227027   3.943   0.215   3.928 -1.0000 -0.9608  0.9644
 1846TIP3   OH227028   6.073   3.802  10.327  0.2919 -0.0719 -0.9352
 1846TIP3    H127029   6.135   3.809  10.254  3.2514  0.0708  1.3639
 1846TIP3    H227030   6.090   3.880  10.379 -0.6587 -0.8828  0.6448
 1847TIP3   OH227031   1.179   6.087   5.429  0.2370 -0.6345  0.0686
 1847TIP3    H127032   1.176   6.177   5.395 -0.3439 -0.7104 -0.0967
 1847TIP3    H227033   1.161   6.033   5.352 -0.2197 -0.8519  0.3288
 1848TIP3   OH227034   5.537   1.153  17.069  0.8417  0.2823  0.3762
 1848TIP3    H127035   5.626   1.183  17.052 -0.1143  1.4855 -3.3435
 1848TIP3    H227036   5.488   1.232  17.090  0.1391 -0.0189 -0.0989
 1849TIP3   OH227037   6.418   6.795   4.692  0.5685  0.0354 -0.4855
 1849TIP3    H127038   6.380   6.838   4.615 -0.1474  0.0478 -0.1328
 1849TIP3    H227039   6.439   6.867   4.752 -0.2764 -0.0696 -0.0525
 1850TIP3   OH227040   0.070   0.424  10.743 -0.1678  0.4641  0.0632
 1850TIP3    H127041  -0.013   0.461  10.713 -0.9434 -0.6589  0.7580
 1850TIP3    H227042   0.097   0.367  10.671 -0.1148  0.6417 -0.0599
 1851TIP3   OH227043   1.108   0.934  14.191  0.2121 -0.3566  0.1073
 1851TIP3    H127044   1.041   0.909  14.128 -1.4623  1.7409  0.9562
 1851TIP3    H227045   1.189   0.935  14.140 -1.0440  1.1780 -2.0402
 1852TIP3   OH227046   5.669   4.647   6.298  0.1545 -0.4045 -0.1274
 1852TIP3    H127047   5.692   4.720   6.240  0.8774  0.1164  0.7989
 1852TIP3    H227048   5.736   4.580   6.281 -0.7682 -1.0764 -1.3117
 1853TIP3   OH227049   6.770   4.649  15.381 -0.2034 -0.3675  0.3987
 1853TIP3    H127050   6.853   4.660  15.427  0.8113 -0.0853 -1.3756
 1853TIP3    H227051   6.735   4.567  15.413  0.6441 -0.3785  1.3586
 1854TIP3   OH227052   2.769   0.319   3.269  0.0273 -0.3168  0.1266
 1854TIP3    H127053   2.785   0.280   3.354  0.4907  0.2538  0.3054
 1854TIP3    H227054   2.706   0.260   3.227  1.1618 -1.5961  0.1416
 1855TIP3   OH227055   5.200   4.789   3.036 -0.1860 -0.2973 -0.4047
 1855TIP3    H127056   5.223   4.775   2.944 -1.7273 -1.0701 -0.7025
 1855TIP3    H227057   5.227   4.709   3.081 -1.3539 -0.8064 -0.5836
 1856TIP3   OH227058   5.138   6.623  16.007 -0.2982 -0.1527  0.3368
 1856TIP3    H127059   5.044   6.614  16.025 -0.1499 -1.1711  0.6711
 1856TIP3    H227060   5.148   6.594  15.916 -0.2840 -0.1641  0.3418
 1857TIP3   OH227061   6.218   6.058   1.327  0.4896  0.2411 -0.3061
 1857TIP3    H127062   6.137   6.096   1.362 -0.1951 -0.7501 -0.7777
 1857TIP3    H227063   6.248   6.122   1.262 -0.7298 -0.0493 -1.1929
 1858TIP3   OH227064   5.135   4.336  16.350 -0.4065  0.0544 -0.4522
 1858TIP3    H127065   5.186   4.412  16.322 -1.9400  1.6129  0.7176
 1858TIP3    H227066   5.047   4.371  16.366 -0.9451 -1.7783  1.0351
 1859TIP3   OH227067   1.776   3.655   6.188 -0.0653 -0.1347  0.1625
 1859TIP3    H127068   1.733   3.576   6.222  0.1840  0.1129  1.0695
 1859TIP3    H227069   1.735   3.727   6.235  0.3259  0.2144 -0.0257
 1860TIP3   OH227070   5.814   2.363  11.291  0.2080 -0.3018  1.0527
 1860TIP3    H127071   5.833   2.457  11.298 -0.5294 -0.1022  0.5470
 1860TIP3    H227072   5.722   2.360  11.263  1.0934 -1.0952 -2.1868
 1861TIP3   OH227073   2.052   2.346  14.770 -0.4336  0.1768  0.9051
 1861TIP3    H127074   2.112   2.419  14.786  0.2611 -0.3528  0.7811
 1861TIP3    H227075   2.109   2.271  14.752 -1.0858  0.1689 -1.6009
 1862TIP3   OH227076   5.897   1.690   4.491  0.2241  0.6772  0.1848
 1862TIP3    H127077   5.946   1.658   4.567 -0.3818  0.4869  0.4991
 1862TIP3    H227078   5.964   1.717   4.429  0.8174 -1.9752 -0.4594
 1863TIP3   OH227079   2.968   0.460  15.927  0.1222 -0.2587  0.4948
 1863TIP3    H127080   2.957   0.554  15.935  0.2230  0.0548 -2.2483
 1863TIP3    H227081   3.000   0.432  16.013 -2.9902  1.6489  2.4261
 1864TIP3   OH227082   3.498   6.343   2.520  0.6078  0.2960 -0.4270
 1864TIP3    H127083   3.423   6.307   2.567  0.0522  0.5347 -1.1102
 1864TIP3    H227084   3.467   6.427   2.486  1.2684  0.5162 -0.4965
 1865TIP3   OH227085   1.895   0.647   2.157  0.0783 -0.2452 -0.3978
 1865TIP3    H127086   1.826   0.708   2.184 -1.2598 -0.7869 -2.4233
 1865TIP3    H227087   1.940   0.625   2.239 -1.5316  0.8567  0.8532
 1866TIP3   OH227088   4.142   0.762   4.362  0.1294 -0.1947  0.0485
 1866TIP3    H127089   4.211   0.762   4.295  0.4124  0.7540  0.3185
 1866TIP3    H227090   4.189   0.780   4.444 -0.6385  2.8965 -0.0548
 1867TIP3   OH227091   3.170   5.154  11.096 -0.1952 -0.2298 -0.4408
 1867TIP3    H127092   3.146   5.065  11.073 -1.6532  0.2915 -1.1044
 1867TIP3    H227093   3.208   5.190  11.016 -1.4097  0.3070 -0.8087
 1868TIP3   OH227094   0.207   1.919  16.871 -0.0659 -0.1248 -0.3976
 1868TIP3    H127095   0.163   1.835  16.856  1.6668 -0.7582 -2.4052
 1868TIP3    H227096   0.171   1.977  16.804 -1.6113  0.9879  1.2733
 1869TIP3   OH227097   2.628   0.622   5.305 -0.8297  0.5068  0.0473
 1869TIP3    H127098   2.716   0.657   5.294  0.0893 -2.0846 -2.0147
 1869TIP3    H227099   2.639   0.546   5.361 -0.9143 -2.0270 -3.0474
 1870TIP3   OH227100   0.762   3.278   3.887  0.1804  0.2266 -0.1907
 1870TIP3    H127101   0.720   3.290   3.802  0.5463 -0.5827 -0.5061
 1870TIP3    H227102   0.691   3.250   3.945 -0.0950  0.9124 -0.1985
 1871TIP3   OH227103   0.036   3.574  16.505 -0.2683  0.2076  0.3144
 1871TIP3    H127104   0.096   3.647  16.516 -0.8287  0.6474  0.5567
 1871TIP3    H227105  -0.035   3.609  16.450 -0.8390  0.0347  0.9266
 1872TIP3   OH227106   1.629   6.634  12.365 -0.1091  0.7042  0.4639
 1872TIP3    H127107   1.534   6.636  12.367 -0.0872  2.5740  1.4169
 1872TIP3    H227108   1.654   6.612  12.455  0.3874 -1.4222 -0.1376
 1873TIP3   OH227109   5.538   4.414   4.130 -0.0610  0.1777 -0.3403
 1873TIP3    H127110   5.595   4.456   4.194  0.1930 -0.2588 -0.2753
 1873TIP3    H227111   5.591   4.344   4.093  0.3719  1.4173 -2.2232
 1874TIP3   OH227112   0.265   0.279   5.295 -0.1367 -0.2083 -0.5717
 1874TIP3    H127113   0.274   0.244   5.206 -0.8762 -0.9685 -0.3551
 1874TIP3    H227114   0.202   0.350   5.286 -1.4718 -1.3398 -0.3953
 1875TIP3   OH227115   1.295   5.426  16.583 -0.1725  0.3408 -0.3402
 1875TIP3    H127116   1.278   5.359  16.516  2.7278  0.2829 -1.1460
 1875TIP3    H227117   1.387   5.451  16.569 -0.0257  1.6824  2.4617
 1876TIP3   OH227118   0.373   6.609  15.287 -0.2848 -0.0876 -0.0337
 1876TIP3    H127119   0.436   6.590  15.356 -0.5721  0.4479  0.3853
 1876TIP3    H227120   0.293   6.636  15.333 -0.0285  1.7466 -0.5529
 1877TIP3   OH227121   1.283   2.813   5.012 -0.1008  0.4219  0.7370
 1877TIP3    H127122   1.340   2.758   4.959  0.1431 -0.2809  1.6942
 1877TIP3    H227123   1.321   2.901   5.006 -0.4771  0.4962 -0.7784
 1878TIP3   OH227124   0.242   0.126  16.416  0.2561 -0.4496  0.5403
 1878TIP3    H127125   0.334   0.118  16.391 -0.5300  0.6308 -3.2913
 1878TIP3    H227126   0.227   0.221  16.421 -0.7547 -0.6056  0.6662
 1879TIP3   OH227127   2.145   2.850  10.936 -0.5793  0.0107 -0.3020
 1879TIP3    H127128   2.239   2.849  10.919 -0.5080 -0.9164  0.0751
 1879TIP3    H227129   2.136   2.902  11.016 -0.3518 -0.1167 -0.1906
 1880TIP3   OH227130   4.231   0.731  16.393  0.0211  0.1382 -0.4653
 1880TIP3    H127131   4.228   0.782  16.473 -1.5631  0.0191 -0.4122
 1880TIP3    H227132   4.210   0.642  16.421 -1.6826  0.2936 -1.1148
 1881TIP3   OH227133   6.480   4.225  17.201  0.4505  0.2560  0.0731
 1881TIP3    H127134   6.457   4.142  17.159  0.6192  0.5110 -0.5381
 1881TIP3    H227135   6.466   4.210  17.295  2.6635 -1.1922  0.2313
 1882TIP3   OH227136   5.959   2.242   2.353 -0.5148  0.4373  0.0720
 1882TIP3    H127137   5.999   2.157   2.333 -1.5382  0.1574 -0.8904
 1882TIP3    H227138   5.907   2.225   2.432  2.4455  1.2101  2.4018
 1883TIP3   OH227139   2.268   3.833   1.632 -0.2580  0.0732 -0.9272
 1883TIP3    H127140   2.257   3.739   1.619  1.6920 -0.7942  2.4914
 1883TIP3    H227141   2.362   3.848   1.625 -0.3206  1.3794  0.4717
 1884TIP3   OH227142   2.037   5.535   1.911 -0.5749  0.2301 -0.3853
 1884TIP3    H127143   2.108   5.547   1.848  1.1160 -0.5175  1.2916
 1884TIP3    H227144   2.060   5.592   1.984 -1.7875  0.0627  0.1520
 1885TIP3   OH227145   1.052   4.741  11.014  0.5818  0.2493 -0.7914
 1885TIP3    H127146   1.069   4.782  11.099 -1.2921 -1.8185  0.6882
 1885TIP3    H227147   1.106   4.662  11.014 -1.7081 -1.3974 -0.0939
 1886TIP3   OH227148   6.352   0.922  13.324 -0.1346  0.1035  0.0657
 1886TIP3    H127149   6.432   0.923  13.272 -0.0440  1.8635  0.1849
 1886TIP3    H227150   6.293   0.862  13.277  0.9031 -0.4735 -0.5251
 1887TIP3   OH227151   0.352   3.799  17.087  0.2823  0.2205 -0.5462
 1887TIP3    H127152   0.433   3.807  17.036 -0.2926 -1.7623 -1.8741
 1887TIP3    H227153   0.282   3.801  17.022 -0.7213  1.2039  0.5219
 1888TIP3   OH227154   2.061   1.457  15.218 -0.3381  0.5568  0.6896
 1888TIP3    H127155   2.014   1.484  15.297 -1.2044  1.0371  0.0200
 1888TIP3    H227156   2.005   1.391  15.178  0.0228  0.4325  0.3865
 1889TIP3   OH227157   1.754   5.552   6.249  0.3885 -0.1358  0.2902
 1889TIP3    H127158   1.672   5.507   6.229  0.5233 -0.6824  0.9011
 1889TIP3    H227159   1.775   5.525   6.339  1.2332 -0.0067  0.1460
 1890TIP3   OH227160   4.927   5.901  11.796  0.3855 -0.2095  0.3308
 1890TIP3    H127161   4.894   5.981  11.755  1.5744 -0.9143 -2.1765
 1890TIP3    H227162   5.020   5.919  11.812  0.3002 -0.5458  1.2829
 1891TIP3   OH227163   0.729   3.591   1.140 -0.0818 -0.0253  0.3673
 1891TIP3    H127164   0.809   3.587   1.193  0.2709 -1.1919 -0.1963
 1891TIP3    H227165   0.691   3.676   1.159  0.7416  0.1210  1.4620
 1892TIP3   OH227166   1.419   1.040  16.926  0.8025  0.1826  0.6064
 1892TIP3    H127167   1.337   1.060  16.971  0.2738 -0.1429 -0.1787
 1892TIP3    H227168   1.465   0.981  16.985 -0.1544 -0.7286  0.4733
 1893TIP3   OH227169   2.476   5.803   0.413  0.3091  0.2316  0.3827
 1893TIP3    H127170   2.418   5.815   0.488  0.2498 -1.6175  0.6753
 1893TIP3    H227171   2.524   5.722   0.431  0.5581 -0.0728 -1.3994
 1894TIP3   OH227172   6.433   6.102   1.117 -0.0757  0.3304 -0.4146
 1894TIP3    H127173   6.482   6.027   1.151 -2.1297  0.5960  3.6492
 1894TIP3    H227174   6.362   6.063   1.065  0.4429 -0.3453 -0.6309
 1895TIP3   OH227175   3.160   1.767  15.943 -0.6727 -0.1208 -0.2817
 1895TIP3    H127176   3.126   1.764  15.853  0.5599 -1.2359 -0.7373
 1895TIP3    H227177   3.209   1.850  15.947  2.1329 -1.5347 -1.8010
 1896TIP3   OH227178   5.455   5.747  14.939 -0.5645 -0.4604  0.3412
 1896TIP3    H127179   5.476   5.654  14.950 -0.4056 -0.5585 -0.6808
 1896TIP3    H227180   5.463   5.762  14.845  1.8629  1.1934  0.7333
 1897TIP3   OH227181   2.575   2.956  14.181 -0.0937 -0.3256  0.6997
 1897TIP3    H127182   2.536   2.943  14.095 -0.1190 -1.4551  0.8664
 1897TIP3    H227183   2.501   2.948  14.242 -0.3936  2.1579  0.7675
 1898TIP3   OH227184   3.379   1.685  11.439  0.5149 -0.3446  0.0606
 1898TIP3    H127185   3.467   1.682  11.401  0.6235  1.0201  0.1547
 1898TIP3    H227186   3.365   1.777  11.461 -1.4476 -0.2788 -1.1666
 1899TIP3   OH227187   2.452   3.604   4.464 -0.2865 -0.1619 -0.2572
 1899TIP3    H127188   2.399   3.600   4.384 -0.8426 -0.9095  0.1352
 1899TIP3    H227189   2.500   3.521   4.465  0.2963  0.1718 -0.1963
 1900TIP3   OH227190   5.729   5.657  14.361  0.0167  0.0464  0.0533
 1900TIP3    H127191   5.771   5.590  14.308 -0.2417 -0.5233  0.5646
 1900TIP3    H227192   5.638   5.658  14.332  0.3014  1.1361 -0.9074
 1901TIP3   OH227193   0.066   2.386   3.734  0.0770  0.1780 -0.2400
 1901TIP3    H127194   0.044   2.294   3.748  3.0386 -1.0843 -2.6722
 1901TIP3    H227195   0.013   2.412   3.658 -0.8661  0.5708  0.5352
 1902TIP3   OH227196   1.060   5.243   1.467 -0.2389 -0.3417 -0.6514
 1902TIP3    H127197   1.057   5.317   1.406  1.0012 -2.0242 -2.9174
 1902TIP3    H227198   1.114   5.274   1.539 -0.3697  1.2080 -1.1866
 1903TIP3   OH227199   0.698   2.209   4.549  0.3625  0.1353 -0.2956
 1903TIP3    H127200   0.764   2.140   4.539  1.1190  0.6521  0.9037
 1903TIP3    H227201   0.680   2.211   4.643 -2.6139 -1.0942 -0.7375
 1904TIP3   OH227202   3.750   4.957  12.787 -0.5207  0.3233 -0.0834
 1904TIP3    H127203   3.685   4.895  12.754  0.4218 -0.6233 -0.2340
 1904TIP3    H227204   3.801   4.983  12.709 -0.5623  0.8677  0.0667
 1905TIP3   OH227205   1.873   0.893  11.546 -0.6097 -0.0494  0.5629
 1905TIP3    H127206   1.869   0.987  11.562 -1.1005  0.0018  0.1757
 1905TIP3    H227207   1.847   0.884  11.454 -2.6311 -0.7422  1.1703
 1906TIP3   OH227208   5.668   0.984  14.473  0.7899  0.4357  0.7662
 1906TIP3    H127209   5.675   1.046  14.400  1.0579  1.2757  1.4924
 1906TIP3    H227210   5.661   1.039  14.551  2.3732 -0.4170  1.5659
 1907TIP3   OH227211   1.694   2.889  17.052 -0.6398 -0.5309 -0.6632
 1907TIP3    H127212   1.785   2.860  17.046 -0.4114 -0.6583  2.2200
 1907TIP3    H227213   1.647   2.814  17.086 -1.6931 -0.1789 -1.3081
 1908TIP3   OH227214   4.272   2.040  14.324  0.1070 -0.3996  0.0797
 1908TIP3    H127215   4.228   2.018  14.242  1.0978 -0.2268 -0.5199
 1908TIP3    H227216   4.362   2.060  14.298  0.4430 -0.3610  1.2145
 1909TIP3   OH227217   5.569   5.253   5.378 -0.0479  0.1662  0.3173
 1909TIP3    H127218   5.571   5.159   5.364  1.7334  0.1522  0.3431
 1909TIP3    H227219   5.484   5.281   5.346 -0.3562 -1.3698 -0.2705
 1910TIP3   OH227220   5.186   2.111   3.179 -0.0047 -0.2697 -0.1812
 1910TIP3    H127221   5.254   2.176   3.193 -1.1520  1.2753 -1.3637
 1910TIP3    H227222   5.233   2.031   3.155  1.3767  0.8625 -1.4065
 1911TIP3   OH227223   3.754   5.017  13.904  0.1340  0.0492  0.2879
 1911TIP3    H127224   3.844   4.995  13.881  0.0239 -1.8859  1.4351
 1911TIP3    H227225   3.701   4.950  13.859 -0.8490  1.6702 -1.0823
 1912TIP3   OH227226   2.269   1.758  16.093  0.1438  0.4682  0.2811
 1912TIP3    H127227   2.257   1.677  16.143 -0.0401  1.4905  1.9952
 1912TIP3    H227228   2.363   1.775  16.098  0.2906 -0.0119 -0.7142
 1913TIP3   OH227229   5.243   2.668  17.125 -0.1213  0.0124 -0.1894
 1913TIP3    H127230   5.197   2.749  17.146 -0.6848 -0.4521  0.3949
 1913TIP3    H227231   5.238   2.616  17.205  0.0297 -0.6929 -0.6326
 1914TIP3   OH227232   1.550   5.080  16.621 -0.5224  0.0795  0.3728
 1914TIP3    H127233   1.468   5.099  16.574  0.6542  0.6442 -1.5852
 1914TIP3    H227234   1.601   5.028  16.559  1.2684  1.1673  0.8759
 1915TIP3   OH227235   0.994   0.313   6.765  0.2443  0.3745  0.1609
 1915TIP3    H127236   1.004   0.358   6.681 -1.9503  0.7985  0.0425
 1915TIP3    H227237   0.914   0.351   6.803  0.7541 -0.3502  2.0927
 1916TIP3   OH227238   4.808   6.539  15.702 -0.6212 -0.1757  0.5652
 1916TIP3    H127239   4.790   6.445  15.704 -0.6214 -0.3102 -2.1426
 1916TIP3    H227240   4.724   6.581  15.719 -1.0532 -0.7040 -0.2425
 1917TIP3   OH227241   1.106   6.640  12.486 -0.8440  0.1988  0.0596
 1917TIP3    H127242   1.027   6.586  12.496  0.1941 -1.0344  2.3613
 1917TIP3    H227243   1.092   6.713  12.546 -1.1834  1.2400 -1.2448
 1918TIP3   OH227244   5.908   2.832   6.518  0.2217  0.2784  0.3785
 1918TIP3    H127245   5.839   2.793   6.572 -1.0054  1.5988 -0.1774
 1918TIP3    H227246   5.989   2.815   6.566 -0.4157 -1.6685  0.8484
 1919TIP3   OH227247   3.993   4.178   3.721  0.0536 -0.7025  1.1601
 1919TIP3    H127248   3.943   4.110   3.677 -0.5256 -0.4727  1.4508
 1919TIP3    H227249   4.079   4.139   3.736  0.3320 -0.7129 -0.3385
 1920TIP3   OH227250   0.167   6.730   0.096 -0.5598  0.2997 -0.3050
 1920TIP3    H127251   0.120   6.769   0.022 -1.7457  0.6215  0.5827
 1920TIP3    H227252   0.198   6.805   0.147  1.7302  0.1099 -1.3212
 1921TIP3   OH227253   2.735   1.085   5.274  0.0237  0.0095 -0.0174
 1921TIP3    H127254   2.685   1.017   5.231  0.5429 -0.9984  0.9205
 1921TIP3    H227255   2.719   1.072   5.368  1.2433  0.2650  0.2541
 1922TIP3   OH227256   4.115   0.219   5.540 -0.3207 -1.0828 -0.4518
 1922TIP3    H127257   4.173   0.288   5.569 -1.6417  0.2420 -0.8460
 1922TIP3    H227258   4.027   0.249   5.563 -0.8224 -4.4662  3.2479
 1923TIP3   OH227259   2.846   2.943   1.341 -0.4924  0.3699 -0.1838
 1923TIP3    H127260   2.856   2.848   1.336  2.9441  0.5377  1.1045
 1923TIP3    H227261   2.797   2.957   1.422  1.5713 -0.2922  1.2514
 1924TIP3   OH227262   0.463   6.316   1.078 -0.6965  0.2907 -0.7578
 1924TIP3    H127263   0.368   6.319   1.090 -0.4991  1.9914  0.7564
 1924TIP3    H227264   0.490   6.239   1.129 -1.3156 -0.7336 -1.9230
 1925TIP3   OH227265   1.281   4.680   3.931 -1.1958 -1.1563  0.8425
 1925TIP3    H127266   1.242   4.764   3.955  1.6857  1.1905 -1.8142
 1925TIP3    H227267   1.358   4.672   3.987  1.2501  0.5778 -1.9781
 1926TIP3   OH227268   5.891   6.814   4.787  0.3158  0.4416  0.1908
 1926TIP3    H127269   5.929   6.837   4.872 -1.3721  1.4356  0.7219
 1926TIP3    H227270   5.807   6.774   4.809  0.5688 -0.7889 -0.9788
 1927TIP3   OH227271   2.779   2.445  13.307 -0.3727 -0.0489  0.3842
 1927TIP3    H127272   2.716   2.452  13.379 -1.3738  0.3970 -0.5115
 1927TIP3    H227273   2.726   2.448  13.228  0.5625 -1.9661 -0.3822
 1928TIP3   OH227274   3.702   2.924  13.638  0.6847 -0.1790 -0.2150
 1928TIP3    H127275   3.794   2.950  13.624  0.4969  0.1149 -0.9427
 1928TIP3    H227276   3.679   2.875  13.559  0.0629  0.1778 -0.2595
 1929TIP3   OH227277   1.330   2.405  11.321  0.4966 -0.4871  0.0654
 1929TIP3    H127278   1.335   2.372  11.231 -1.2706  2.0885 -1.0862
 1929TIP3    H227279   1.420   2.397  11.354  0.9351 -2.6674 -1.4221
 1930TIP3   OH227280   3.842   4.875   1.653  0.1246  0.3400  0.2823
 1930TIP3    H127281   3.886   4.955   1.680  0.8546  0.0428  0.0064
 1930TIP3    H227282   3.861   4.812   1.723  0.1404  0.2113  0.1635
 1931TIP3   OH227283   2.287   2.252  17.020  0.1242  0.2531 -0.0992
 1931TIP3    H127284   2.219   2.203  17.066  0.1784 -0.3232 -0.6234
 1931TIP3    H227285   2.265   2.344  17.035  0.7688  0.1107  2.0158
 1932TIP3   OH227286   0.017   3.732   2.439 -0.0185 -0.5344  0.0893
 1932TIP3    H127287  -0.075   3.757   2.429 -0.3145 -0.9380  1.5097
 1932TIP3    H227288   0.014   3.639   2.463  0.7539 -0.5565  0.1252
 1933TIP3   OH227289   4.523   4.930  12.082 -0.3098 -0.7565 -0.0802
 1933TIP3    H127290   4.558   4.998  12.024 -3.8318  1.0770 -0.3171
 1933TIP3    H227291   4.533   4.967  12.170  1.5535 -1.8779  0.2367
 1934TIP3   OH227292   1.837   4.276   1.082 -0.5205  0.0125 -0.2743
 1934TIP3    H127293   1.809   4.366   1.100  2.3541  0.7849  1.0050
 1934TIP3    H227294   1.812   4.227   1.160 -0.9806 -0.0295 -0.4441
 1935TIP3   OH227295   1.736   3.557  16.524 -0.1451 -0.3258 -0.1721
 1935TIP3    H127296   1.760   3.632  16.579  1.0430 -0.6256 -0.2561
 1935TIP3    H227297   1.742   3.589  16.434 -0.2699 -0.3530 -0.1925
 1936TIP3   OH227298   1.216   1.177  14.313  0.3255 -0.6601  0.3256
 1936TIP3    H127299   1.136   1.182  14.365  1.3038 -0.7061  1.9051
 1936TIP3    H227300   1.216   1.089  14.277 -0.9727 -0.2338 -0.8127
 1937TIP3   OH227301   5.979   3.444   1.404  0.5624  0.0963  0.1488
 1937TIP3    H127302   5.950   3.411   1.319 -0.3311  0.3200  0.3484
 1937TIP3    H227303   6.040   3.378   1.436  0.3932 -0.3218 -0.3765
 1938TIP3   OH227304   1.631   4.349   0.784 -0.4235 -0.0254  0.7388
 1938TIP3    H127305   1.712   4.395   0.763 -0.9144  0.0213 -1.1744
 1938TIP3    H227306   1.658   4.258   0.795  0.1943  0.3053  2.3318
 1939TIP3   OH227307   0.209   4.583  15.545  0.3223 -0.3617 -0.0974
 1939TIP3    H127308   0.189   4.656  15.603  1.3052 -1.4918  1.7767
 1939TIP3    H227309   0.162   4.509  15.583  2.0602 -1.4317  0.0845
 1940TIP3   OH227310   2.189   2.590  12.467  0.0314  0.0464  0.4099
 1940TIP3    H127311   2.197   2.626  12.379 -2.0477  1.3615  0.7128
 1940TIP3    H227312   2.259   2.525  12.472 -0.8773 -1.3881 -2.8418
 1941TIP3   OH227313   1.786   5.273  13.583  0.0965 -0.0548  0.0942
 1941TIP3    H127314   1.796   5.344  13.520 -1.4123 -0.4898 -0.6848
 1941TIP3    H227315   1.750   5.201  13.532 -1.9300 -0.1706  1.5649
 1942TIP3   OH227316   6.348   3.701  11.817 -0.6271 -0.4896  0.5748
 1942TIP3    H127317   6.417   3.671  11.758 -1.0822  1.0550 -0.8074
 1942TIP3    H227318   6.276   3.639  11.804 -1.4156  0.8123 -1.9508
 1943TIP3   OH227319   3.972   3.127   0.762 -0.0184  0.3280  0.1483
 1943TIP3    H127320   3.993   3.084   0.844  3.4075  0.2545 -0.6161
 1943TIP3    H227321   3.906   3.070   0.721  0.9572 -1.6656  1.2141
 1944TIP3   OH227322   0.352   0.049   2.615  0.2478  0.2949  0.2887
 1944TIP3    H127323   0.422   0.080   2.558  0.9622 -0.1636  0.9089
 1944TIP3    H227324   0.396  -0.003   2.682 -0.8707 -1.9081 -0.5872
 1945TIP3   OH227325   0.211   0.396  14.165 -0.2351 -0.0099  0.1135
 1945TIP3    H127326   0.196   0.403  14.259  0.0379 -0.4232  0.1901
 1945TIP3    H227327   0.201   0.485  14.132 -0.5358  0.1012  0.5020
 1946TIP3   OH227328   2.059   5.766  16.416  0.5171  0.4578 -0.2433
 1946TIP3    H127329   2.042   5.672  16.417 -1.9802  0.8484  1.0660
 1946TIP3    H227330   2.150   5.774  16.445  1.3984 -1.5944 -2.1658
 1947TIP3   OH227331   1.316   5.258  13.232  0.1103 -0.1066 -0.0817
 1947TIP3    H127332   1.408   5.285  13.232  0.4437 -1.1901 -0.1462
 1947TIP3    H227333   1.311   5.191  13.163 -0.5358 -0.6846  0.5150
 1948TIP3   OH227334   4.494   2.761  16.842 -0.5932 -0.2906 -0.3411
 1948TIP3    H127335   4.481   2.853  16.863  1.9039 -0.0642  0.4789
 1948TIP3    H227336   4.500   2.759  16.746  0.0597  0.5117 -0.3240
 1949TIP3   OH227337   2.696   3.231  11.475  0.3745  0.1953  0.0653
 1949TIP3    H127338   2.683   3.167  11.545 -0.4363  1.2757  0.9373
 1949TIP3    H227339   2.775   3.202  11.431  1.7915  0.2817  2.3606
 1950TIP3   OH227340   5.593   6.413   1.058 -0.0875 -0.0759 -0.0710
 1950TIP3    H127341   5.639   6.353   1.117  0.0868  0.5073  0.3898
 1950TIP3    H227342   5.613   6.380   0.970 -0.7989 -1.2831  0.1952
 1951TIP3   OH227343   1.592   4.779   5.150  0.1388 -0.3730  0.7827
 1951TIP3    H127344   1.656   4.719   5.188 -0.7355 -1.8171  0.0347
 1951TIP3    H227345   1.608   4.862   5.195  1.1216 -1.2397  2.1184
 1952TIP3   OH227346   4.543   3.471  15.225  0.1473 -0.5199 -0.0922
 1952TIP3    H127347   4.475   3.531  15.253  0.5804 -0.6657  1.3513
 1952TIP3    H227348   4.588   3.517  15.154 -1.0623 -0.1927 -0.6811
 1953TIP3   OH227349   3.148   4.308   1.829  0.0850  0.0514  0.2224
 1953TIP3    H127350   3.187   4.388   1.863 -0.7876  0.2373  0.8435
 1953TIP3    H227351   3.221   4.246   1.823  0.4660  0.3352  1.4934
 1954TIP3   OH227352   0.362   6.423  11.415 -0.1501  0.2768  0.0819
 1954TIP3    H127353   0.348   6.397  11.506  0.4617 -1.8514 -0.3576
 1954TIP3    H227354   0.452   6.454  11.412  0.0875 -0.3977  0.0730
 1955TIP3   OH227355   1.133   5.221   0.122  0.1316 -0.6945 -0.1251
 1955TIP3    H127356   1.156   5.200   0.212  0.7321 -2.0822 -0.5699
 1955TIP3    H227357   1.096   5.140   0.087  0.0457 -0.2226 -1.1737
 1956TIP3   OH227358   0.598   2.342  11.838 -0.3768 -0.5197 -0.3873
 1956TIP3    H127359   0.601   2.252  11.870 -0.3331 -0.6457 -0.7394
 1956TIP3    H227360   0.603   2.334  11.743  0.2810 -0.1206 -0.3958
 1957TIP3   OH227361   5.989   6.805  15.604 -0.1830  0.6938  0.4954
 1957TIP3    H127362   6.034   6.849  15.532 -0.3416  0.3509  0.1819
 1957TIP3    H227363   5.899   6.795  15.573  0.2038 -1.3286 -0.1536
 1958TIP3   OH227364   4.523   0.185  16.327 -0.2256  0.1275  0.3642
 1958TIP3    H127365   4.531   0.243  16.403  0.6661  2.3540 -1.3380
 1958TIP3    H227366   4.491   0.241  16.257 -0.2181 -1.6788 -1.1671
 1959TIP3   OH227367   4.820   5.271   3.149  0.2629 -0.4318 -0.5649
 1959TIP3    H127368   4.797   5.347   3.096  0.1612  0.9467  1.3658
 1959TIP3    H227369   4.912   5.286   3.172  0.2787 -0.9755 -0.2756
 1960TIP3   OH227370   5.103   3.485  16.924  0.2907 -0.5702  0.1680
 1960TIP3    H127371   5.163   3.555  16.898  1.4034 -1.3435  0.5813
 1960TIP3    H227372   5.045   3.525  16.989  1.5562 -0.2861  1.1405
 1961TIP3   OH227373   2.893   0.231   4.399  0.6779 -0.6510  0.3269
 1961TIP3    H127374   2.946   0.189   4.330  1.6957  2.1227 -0.7432
 1961TIP3    H227375   2.925   0.322   4.401 -1.9779  0.3543  1.8212
 1962TIP3   OH227376   3.470   2.939   5.643 -0.2384 -0.6010 -0.6312
 1962TIP3    H127377   3.505   3.017   5.598  0.3960 -0.4790  0.0437
 1962TIP3    H227378   3.525   2.867   5.612 -0.4053 -0.6688 -0.7663
 1963TIP3   OH227379   4.354   6.777  16.347 -0.2394  0.1613  0.1319
 1963TIP3    H127380   4.285   6.756  16.283  0.5680 -1.0405 -0.3819
 1963TIP3    H227381   4.430   6.800  16.293  0.6810 -1.6203  0.6085
 1964TIP3   OH227382   2.919   5.606   4.157 -0.6326  0.4905  0.1109
 1964TIP3    H127383   2.934   5.670   4.227 -1.5815 -0.0714  0.8664
 1964TIP3    H227384   3.004   5.564   4.144 -0.4130  0.6870  0.8481
 1965TIP3   OH227385   3.044   4.611  13.848  0.4330  0.5331  0.2528
 1965TIP3    H127386   3.042   4.704  13.871 -1.1312  0.5753  0.0314
 1965TIP3    H227387   3.026   4.610  13.754  0.4825  0.0030  0.2480
 1966TIP3   OH227388   0.306   5.623  15.286  0.7085 -0.5460  0.2294
 1966TIP3    H127389   0.230   5.624  15.228  0.9482 -0.3622 -0.0839
 1966TIP3    H227390   0.273   5.585  15.367  0.1882 -0.1283  0.2214
 1967TIP3   OH227391   1.989   4.399   0.061 -1.1248 -0.0451 -0.0769
 1967TIP3    H127392   1.924   4.451   0.108 -1.5979 -0.4599 -0.2625
 1967TIP3    H227393   1.985   4.313   0.101  0.3276  0.2959  0.8612
 1968TIP3   OH227394   4.563   3.027  13.288  0.0588  0.1162 -0.0901
 1968TIP3    H127395   4.526   3.100  13.336 -0.0203  2.4154 -3.3190
 1968TIP3    H227396   4.510   3.021  13.208  1.6975 -1.7755 -1.1401
 1969TIP3   OH227397   1.500   4.725   0.624  0.0586 -0.1303 -0.0072
 1969TIP3    H127398   1.442   4.760   0.556  2.2142 -0.5075 -2.1763
 1969TIP3    H227399   1.441   4.702   0.696 -2.2253  1.2753 -1.3081
 1970TIP3   OH227400   2.952   4.171  15.366 -0.2631 -0.1711  0.3164
 1970TIP3    H127401   3.032   4.201  15.322  1.1825 -1.3971  1.9505
 1970TIP3    H227402   2.889   4.242  15.352  0.4983  0.0361 -2.5655
 1971TIP3   OH227403   5.386   3.615  15.857  0.3476  0.0466 -0.5719
 1971TIP3    H127404   5.316   3.661  15.811 -0.6683 -1.1143 -0.2676
 1971TIP3    H227405   5.448   3.591  15.789  0.7627  1.5761 -0.7714
 1972TIP3   OH227406   2.164   3.574  15.456 -0.2341 -0.1393  0.1395
 1972TIP3    H127407   2.214   3.554  15.378 -1.9113 -3.1803 -0.3168
 1972TIP3    H227408   2.189   3.663  15.479  2.5325 -0.2156 -2.1054
 1973TIP3   OH227409   1.578   6.625  14.285  0.5744 -0.6100  0.2240
 1973TIP3    H127410   1.629   6.561  14.334  0.1682 -0.9617  0.1898
 1973TIP3    H227411   1.507   6.650  14.344  0.4999 -0.4906  0.0850
 1974TIP3   OH227412   3.523   3.422   4.137  0.3452 -0.0667  0.1928
 1974TIP3    H127413   3.434   3.452   4.158  0.5184  0.1610  0.6133
 1974TIP3    H227414   3.532   3.340   4.186  1.2796  1.1996  2.3138
 1975TIP3   OH227415   4.127   5.717   2.124  0.0651  0.7935  0.1666
 1975TIP3    H127416   4.119   5.802   2.168 -2.8730  2.2578 -2.7239
 1975TIP3    H227417   4.172   5.737   2.042  1.7227 -1.0324  0.5633
 1976TIP3   OH227418   5.436   4.451  16.831 -0.0594 -0.0932  0.8201
 1976TIP3    H127419   5.472   4.382  16.774 -1.4357 -0.8486  0.8328
 1976TIP3    H227420   5.513   4.502  16.857  1.1324 -2.0612  1.4179
 1977TIP3   OH227421   1.424   2.693  17.081  0.7391  0.0113  0.4733
 1977TIP3    H127422   1.376   2.613  17.057  0.4967 -0.1526  1.4731
 1977TIP3    H227423   1.494   2.662  17.139  0.3485  0.5682  1.2582
 1978TIP3   OH227424   2.299   2.235  12.806 -0.1899 -0.3158  0.2789
 1978TIP3    H127425   2.361   2.220  12.878 -0.8151 -0.8315  0.7155
 1978TIP3    H227426   2.312   2.160  12.748 -0.7328 -0.6724  0.6114
 1979TIP3   OH227427   0.715   0.156   3.921  0.5715 -1.0814 -0.3213
 1979TIP3    H127428   0.709   0.251   3.931  0.1903 -1.1413  0.0371
 1979TIP3    H227429   0.768   0.144   3.843 -1.0315 -0.5689 -1.5337
 1980TIP3   OH227430   1.952   2.594   1.908 -0.0388 -0.1735 -0.6938
 1980TIP3    H127431   1.996   2.570   1.826 -0.0384 -0.2138 -0.6820
 1980TIP3    H227432   1.941   2.689   1.902 -1.1296 -0.3276 -1.2808
 1981TIP3   OH227433   2.929   2.156  13.308  0.3074 -0.2235 -0.6357
 1981TIP3    H127434   2.938   2.148  13.403 -0.1778 -0.5133 -0.6118
 1981TIP3    H227435   2.915   2.250  13.293  0.0079 -0.2268 -0.3848
 1982TIP3   OH227436   5.798   0.296   4.799 -0.1479 -0.2128 -0.3190
 1982TIP3    H127437   5.773   0.223   4.743  0.1202  0.7148 -1.6856
 1982TIP3    H227438   5.887   0.275   4.827  0.1286 -0.1516 -1.1416
 1983TIP3   OH227439   6.410   6.721   3.724 -0.0503  0.1734 -0.0439
 1983TIP3    H127440   6.453   6.788   3.672  0.6094 -0.3747 -0.2234
 1983TIP3    H227441   6.482   6.676   3.769 -0.5809  0.4785  1.1646
 1984TIP3   OH227442   2.236   2.978  13.333  0.1272  0.4227  0.5688
 1984TIP3    H127443   2.276   3.063  13.349  0.1957  0.7806 -1.2213
 1984TIP3    H227444   2.149   2.998  13.299 -0.1592 -0.2366  0.9092
 1985TIP3   OH227445   1.830   4.125   1.667 -0.4689  0.0313 -0.0083
 1985TIP3    H127446   1.855   4.051   1.721  2.9975  1.0377  0.0058
 1985TIP3    H227447   1.744   4.101   1.630 -2.2419 -1.4254  4.4415
 1986TIP3   OH227448   1.306   5.434  15.204 -0.4189  0.1062 -0.6156
 1986TIP3    H127449   1.351   5.385  15.136  1.8461  1.2023 -0.0077
 1986TIP3    H227450   1.328   5.388  15.286  0.5090  1.2326 -0.2025
 1987TIP3   OH227451   3.109   5.341  16.643 -0.2364  0.2070 -0.0458
 1987TIP3    H127452   3.118   5.429  16.607 -0.2022 -0.0870 -0.7681
 1987TIP3    H227453   3.015   5.328  16.654 -0.4800 -0.6369 -2.4700
 1988TIP3   OH227454   2.678   5.476   5.450  0.1719  0.4677 -0.0356
 1988TIP3    H127455   2.592   5.517   5.461 -0.0063  0.2567 -0.6143
 1988TIP3    H227456   2.675   5.400   5.508 -0.7782 -0.6617 -1.4877
 1989TIP3   OH227457   1.418   1.482  14.372  0.1229 -0.1545 -0.2196
 1989TIP3    H127458   1.471   1.554  14.337 -2.0419  1.1645 -0.9321
 1989TIP3    H227459   1.469   1.448  14.445  2.4950  0.2488 -1.5755
 1990TIP3   OH227460   0.934   4.956   5.527 -0.2173 -0.0180  0.6421
 1990TIP3    H127461   0.966   5.029   5.474 -0.4274  0.7752  1.5770
 1990TIP3    H227462   0.979   4.966   5.611 -2.1172  0.5612  1.6607
 1991TIP3   OH227463   6.608   2.879   2.005  0.0491 -0.5578 -0.2526
 1991TIP3    H127464   6.662   2.801   2.009 -1.0077 -1.2636  1.4523
 1991TIP3    H227465   6.523   2.853   2.042 -1.2259  0.7204 -2.0495
 1992TIP3   OH227466   2.402   3.944   4.798 -0.6028 -0.3467 -0.3154
 1992TIP3    H127467   2.374   4.002   4.869  0.0220 -0.5150  0.0830
 1992TIP3    H227468   2.489   3.976   4.774 -0.9650 -0.0615 -1.2726
 1993TIP3   OH227469   2.251   3.023  15.766 -0.1933  0.4645  0.1482
 1993TIP3    H127470   2.166   3.027  15.810  0.5880  0.1800  1.7476
 1993TIP3    H227471   2.300   3.098  15.799  0.3608  0.3583 -0.4033
 1994TIP3   OH227472   3.714   4.421   3.351  0.0480  0.4382  0.3228
 1994TIP3    H127473   3.641   4.390   3.297 -0.4970  2.4479 -0.1521
 1994TIP3    H227474   3.741   4.503   3.311  1.7296  0.3928  1.2783
 1995TIP3   OH227475   4.922   3.403   2.460 -0.1944 -0.1074 -0.0908
 1995TIP3    H127476   4.974   3.451   2.525  0.9752 -0.6292 -0.6149
 1995TIP3    H227477   4.954   3.434   2.376 -1.0685 -0.1031 -0.4285
 1996TIP3   OH227478   5.283   5.546   3.483 -0.1643  0.0722 -0.7627
 1996TIP3    H127479   5.348   5.550   3.553  0.0845  2.2399 -1.0394
 1996TIP3    H227480   5.262   5.454   3.475  0.8460 -0.3803  1.2000
 1997TIP3   OH227481   4.821   2.232  12.552 -0.1148  0.1688  0.0355
 1997TIP3    H127482   4.790   2.315  12.515  1.9742  1.2643  0.5716
 1997TIP3    H227483   4.917   2.239  12.550  0.1068 -1.6323  1.4187
 1998TIP3   OH227484   0.340   4.498   2.941 -0.1886  0.1528  0.0853
 1998TIP3    H127485   0.326   4.579   2.892  0.4412 -0.3528 -0.9673
 1998TIP3    H227486   0.347   4.430   2.873  1.3090 -0.4817  0.8408
 1999TIP3   OH227487   0.734   1.640  16.003  0.0065 -0.2531  0.1358
 1999TIP3    H127488   0.699   1.709  15.946  0.1472  0.6630  1.1220
 1999TIP3    H227489   0.811   1.679  16.043 -0.3563 -0.7051  1.3098
 2000TIP3   OH227490   0.391   5.326   3.101  0.6941 -0.2699 -0.0053
 2000TIP3    H127491   0.350   5.242   3.083 -1.0689  0.5402  0.0806
 2000TIP3    H227492   0.483   5.313   3.075  0.2460 -1.8856 -0.9688
 2001TIP3   OH227493   0.319   5.449   6.371 -0.3495 -0.0342  0.3146
 2001TIP3    H127494   0.265   5.526   6.388 -0.5250 -0.0602 -0.1172
 2001TIP3    H227495   0.272   5.401   6.303  1.7658  1.6009 -2.5427
 2002TIP3   OH227496   5.521   6.495   3.999 -0.7615  0.1628 -0.5332
 2002TIP3    H127497   5.493   6.483   4.090 -2.4267  0.8293 -0.9145
 2002TIP3    H227498   5.476   6.575   3.971  0.5199  0.5182 -1.6466
 2003TIP3   OH227499   0.012   3.668  14.456 -0.1367 -0.1282  0.2263
 2003TIP3    H127500   0.107   3.661  14.466 -0.2608 -0.2227  1.4414
 2003TIP3    H227501  -0.014   3.586  14.412  0.4686  0.4288 -1.2205
 2004TIP3   OH227502   6.647   2.109  15.995  0.2495 -1.0954  0.2278
 2004TIP3    H127503   6.568   2.148  16.034 -0.2900 -0.2953 -1.5641
 2004TIP3    H227504   6.696   2.075  16.070 -0.9746 -0.0982  1.5439
 2005TIP3   OH227505   3.045   5.007  12.646 -0.0134 -0.2877 -0.3367
 2005TIP3    H127506   3.141   5.009  12.650 -0.0726  0.4700  1.2441
 2005TIP3    H227507   3.020   5.095  12.620 -0.3073 -0.3064 -0.1172
 2006TIP3   OH227508   6.590   6.643   0.011  0.9375  0.0355 -0.1177
 2006TIP3    H127509   6.511   6.696   0.023 -0.8439 -2.5571  0.2608
 2006TIP3    H227510   6.637   6.652   0.094 -0.0255 -0.0634  0.4479
 2007TIP3   OH227511   4.587   2.772  16.432 -0.4109  0.1560 -0.0291
 2007TIP3    H127512   4.540   2.809  16.357 -1.4419 -2.4805 -0.8032
 2007TIP3    H227513   4.523   2.714  16.474  0.6466  0.3421  1.9559
 2008TIP3   OH227514   4.747   0.279  12.706 -0.7830  0.3562 -0.2814
 2008TIP3    H127515   4.819   0.333  12.674 -0.8783  1.0242  0.6129
 2008TIP3    H227516   4.669   0.332  12.692 -0.9262  0.2850  0.2228
 2009TIP3   OH227517   6.357   0.202   1.450  0.1693  0.0172  0.1228
 2009TIP3    H127518   6.311   0.182   1.531  1.0390  0.9768  0.8740
 2009TIP3    H227519   6.290   0.242   1.394 -0.6656 -1.5297 -0.0235
 2010TIP3   OH227520   5.637   3.505  10.556 -0.3611 -0.2789 -0.1189
 2010TIP3    H127521   5.711   3.544  10.510 -0.2580  0.7786  0.9085
 2010TIP3    H227522   5.633   3.415  10.523 -0.1562  0.3548 -1.9998
 2011TIP3   OH227523   2.990   5.541  14.482 -0.4510 -0.7831 -0.0513
 2011TIP3    H127524   2.976   5.610  14.417  0.7457 -0.8859 -0.4336
 2011TIP3    H227525   3.071   5.498  14.455 -1.9698 -3.4163 -0.7589
 2012TIP3   OH227526   6.783   2.998  13.103 -0.2703  1.1181 -0.5944
 2012TIP3    H127527   6.717   3.066  13.087  0.7821  1.9445 -1.5460
 2012TIP3    H227528   6.826   3.025  13.184 -0.5296  1.0419 -0.4326
 2013TIP3   OH227529   1.315   1.753   3.755  0.1919 -0.4268  0.4387
 2013TIP3    H127530   1.397   1.707   3.736  0.0138 -1.4534  1.9980
 2013TIP3    H227531   1.248   1.703   3.710  0.3516  0.1939 -0.5208
 2014TIP3   OH227532   0.101   3.268  12.046  0.2664 -0.0032 -0.3656
 2014TIP3    H127533   0.172   3.225  11.998  0.3414  0.0130 -0.2681
 2014TIP3    H227534   0.071   3.337  11.986 -0.6646 -0.9542 -1.0388
 2015TIP3   OH227535   2.534   2.178  16.843  0.3233 -0.4038 -0.2163
 2015TIP3    H127536   2.478   2.248  16.878  0.1107 -0.3062 -0.7416
 2015TIP3    H227537   2.554   2.207  16.754 -0.1204 -1.2202 -0.5881
 2016TIP3   OH227538   4.252   3.932   5.385 -0.2010 -0.7204 -0.4964
 2016TIP3    H127539   4.243   4.019   5.346  1.3977 -0.8140 -1.1415
 2016TIP3    H227540   4.207   3.939   5.469 -0.0576  0.7593 -0.5193
 2017TIP3   OH227541   2.984   3.050  14.507 -0.7287 -0.5121  0.0080
 2017TIP3    H127542   2.957   3.124  14.452  0.8313  0.3221  0.3113
 2017TIP3    H227543   3.006   2.980  14.445  1.9934  0.7430 -0.5806
 2018TIP3   OH227544   5.341   1.686  13.813 -0.3603 -0.2196 -0.3584
 2018TIP3    H127545   5.425   1.690  13.768  0.4203 -0.1816  1.0445
 2018TIP3    H227546   5.363   1.692  13.906 -2.0258  1.5632 -0.0036
 2019TIP3   OH227547   3.080   0.234   1.235 -0.0484 -0.2057 -0.0713
 2019TIP3    H127548   3.025   0.197   1.166 -0.3292  2.1059 -1.1972
 2019TIP3    H227549   3.018   0.258   1.304  0.3016 -3.1167  1.3733
 2020TIP3   OH227550   0.049   4.827   0.474  0.2374  0.5900  0.2702
 2020TIP3    H127551   0.094   4.910   0.485  1.6435 -0.2203  0.8229
 2020TIP3    H227552  -0.000   4.815   0.555 -0.6212  1.2350 -0.1335
 2021TIP3   OH227553   0.621   5.493  14.646  0.0791 -0.0877 -0.3232
 2021TIP3    H127554   0.602   5.400  14.659  0.0587 -0.6217 -3.4927
 2021TIP3    H227555   0.544   5.538  14.682 -0.6557 -1.3854 -0.1927
 2022TIP3   OH227556   5.783   5.553  11.465 -0.2483 -0.3547  0.3140
 2022TIP3    H127557   5.845   5.542  11.393 -0.2525  0.0906  0.2437
 2022TIP3    H227558   5.715   5.488  11.447  0.4666 -1.2448  0.6914
 2023TIP3   OH227559   1.431   4.297   0.590  0.0567 -0.4148 -0.1689
 2023TIP3    H127560   1.491   4.340   0.650 -1.1912 -0.2328  0.9942
 2023TIP3    H227561   1.475   4.216   0.565  2.0441  1.0310 -1.6730
 2024TIP3   OH227562   2.501   5.904   0.837 -0.3791 -0.2169 -0.4189
 2024TIP3    H127563   2.559   5.967   0.794  1.2007 -1.2497  0.1107
 2024TIP3    H227564   2.550   5.875   0.914 -1.8250 -0.7783  0.3320
 2025TIP3   OH227565   6.508   2.446   2.430 -0.2907 -0.1877  0.0682
 2025TIP3    H127566   6.478   2.481   2.514 -0.4382 -2.2663  0.9472
 2025TIP3    H227567   6.602   2.432   2.442 -0.3833 -0.8636  0.0446
 2026TIP3   OH227568   5.316   3.223   4.091  0.5019  0.4609  0.8584
 2026TIP3    H127569   5.364   3.248   4.169  2.8983 -1.2794  0.0734
 2026TIP3    H227570   5.351   3.278   4.022  1.4354 -0.8154  0.2770
 2027TIP3   OH227571   6.186   0.473  16.311 -0.3642 -0.2892 -0.1590
 2027TIP3    H127572   6.194   0.568  16.318 -0.2007 -0.3739  0.8400
 2027TIP3    H227573   6.161   0.444  16.398  0.0722 -1.2147 -0.3273
 2028TIP3   OH227574   1.106   5.180   2.209  0.1482  0.1964 -0.2601
 2028TIP3    H127575   1.070   5.165   2.122 -0.0861  0.9027 -0.2889
 2028TIP3    H227576   1.184   5.125   2.212 -2.2533 -3.4433  0.7580
 2029TIP3   OH227577   1.175   5.255  12.066  0.2638  0.0252  0.0944
 2029TIP3    H127578   1.131   5.239  12.149  1.4858  2.5677  1.3260
 2029TIP3    H227579   1.104   5.265  12.002 -0.8507  1.2334  1.4663
 2030TIP3   OH227580   1.554   4.240  16.530  0.2776 -0.3745  0.4315
 2030TIP3    H127581   1.641   4.278  16.520  0.0042 -0.2401 -1.9162
 2030TIP3    H227582   1.504   4.308  16.576  1.0576  0.1145  0.5680
 2031TIP3   OH227583   5.873   0.276  15.393  0.0074 -0.1527  0.2847
 2031TIP3    H127584   5.968   0.288  15.396  0.1456 -0.9534 -0.4944
 2031TIP3    H227585   5.844   0.332  15.321 -0.3869  1.6038  1.7426
 2032TIP3   OH227586   2.274   0.191   3.490 -0.0669  0.2173 -0.2401
 2032TIP3    H127587   2.272   0.224   3.401 -1.7689  2.4339  0.5068
 2032TIP3    H227588   2.267   0.269   3.545  0.8024 -1.0663  1.8475
 2033TIP3   OH227589   0.734   2.608  16.735  0.0210 -0.1139 -0.0093
 2033TIP3    H127590   0.772   2.520  16.739  2.8525  0.9996 -0.4090
 2033TIP3    H227591   0.769   2.654  16.811 -1.3017  0.7761  0.1089
 2034TIP3   OH227592   3.683   4.197   5.123  0.3183  0.3957 -0.0526
 2034TIP3    H127593   3.691   4.121   5.180  2.7228  0.7266  0.1479
 2034TIP3    H227594   3.631   4.165   5.048 -0.6867 -0.7463  1.0796
 2035TIP3   OH227595   6.315   6.487   4.067 -0.2014 -0.3432 -0.3479
 2035TIP3    H127596   6.325   6.463   3.975 -1.1089 -1.0457 -0.2739
 2035TIP3    H227597   6.276   6.574   4.065 -0.6619 -0.5490 -0.6408
 2036TIP3   OH227598   3.085   5.570  12.259 -0.0971 -0.1373 -0.4710
 2036TIP3    H127599   3.050   5.648  12.216  0.5252 -0.7153 -2.1457
 2036TIP3    H227600   3.041   5.497  12.214 -0.5954 -0.7740  0.9945
 2037TIP3   OH227601   6.254   4.724   2.582  0.1635  0.0880 -0.7044
 2037TIP3    H127602   6.300   4.643   2.556  1.1116  0.3767  0.0128
 2037TIP3    H227603   6.198   4.744   2.508 -2.0063 -2.5876  0.0404
 2038TIP3   OH227604   6.428   1.185   0.558  0.3090  0.1149  0.0328
 2038TIP3    H127605   6.368   1.226   0.496 -0.6420 -0.4332  0.5686
 2038TIP3    H227606   6.471   1.115   0.508 -0.3158 -0.2034 -0.0590
 2039TIP3   OH227607   4.436   3.462   0.020  0.3858 -0.5815  0.1871
 2039TIP3    H127608   4.375   3.531  -0.005 -0.5569 -1.2038  0.6706
 2039TIP3    H227609   4.502   3.506   0.073  0.3224  0.1017 -0.2907
 2040TIP3   OH227610   5.396   6.492   5.011  0.6573  0.0048  0.2667
 2040TIP3    H127611   5.302   6.475   5.018  0.4929  0.7164 -0.1151
 2040TIP3    H227612   5.436   6.405   5.010 -0.1735 -0.4116 -2.0669
 2041TIP3   OH227613   3.025   2.792  15.799 -0.4027 -0.1053 -0.0364
 2041TIP3    H127614   2.954   2.732  15.824  0.1565 -0.8464 -0.2096
 2041TIP3    H227615   3.026   2.789  15.703 -0.1254 -0.1187 -0.0342
 2042TIP3   OH227616   6.256   0.193  11.986 -0.1991  0.1403 -0.0608
 2042TIP3    H127617   6.208   0.197  11.903  1.0002 -1.1205 -0.8556
 2042TIP3    H227618   6.189   0.174  12.052 -0.9669 -0.3190 -0.9543
 2043TIP3   OH227619   3.227   1.182  16.779 -0.2054 -0.4273 -0.9193
 2043TIP3    H127620   3.220   1.220  16.692 -0.7692  1.3262 -0.1490
 2043TIP3    H227621   3.230   1.257  16.838  1.8002 -1.5105  0.4955
 2044TIP3   OH227622   5.920   2.053  17.020 -0.5388  0.6281 -0.3946
 2044TIP3    H127623   5.963   2.107  17.086  0.0870  1.2973 -1.3185
 2044TIP3    H227624   5.873   2.116  16.965 -1.7842  0.0031 -0.0843
 2045TIP3   OH227625   2.371   0.592  12.676  0.4748  0.7891  0.3039
 2045TIP3    H127626   2.415   0.655  12.733  3.8709 -0.1177 -1.0606
 2045TIP3    H227627   2.401   0.615  12.588 -1.7301 -0.0837 -0.7642
 2046TIP3   OH227628   2.140   0.100  11.828  0.0484 -0.3123 -0.3628
 2046TIP3    H127629   2.054   0.139  11.817  0.5343  0.6020 -1.0326
 2046TIP3    H227630   2.122   0.008  11.849 -1.0857  0.0513  0.3176
 2047TIP3   OH227631   2.318   1.114  12.673  0.7215  0.9288 -0.2499
 2047TIP3    H127632   2.260   1.104  12.597 -1.0617  0.1242  1.1386
 2047TIP3    H227633   2.275   1.179  12.728 -0.0345 -1.1215  1.7608
 2048TIP3   OH227634   2.701   3.168   6.783  0.7029 -0.1239 -0.5042
 2048TIP3    H127635   2.693   3.073   6.777 -1.0961 -0.0438  0.1083
 2048TIP3    H227636   2.781   3.183   6.833  1.2226 -1.2928 -0.9519
 2049TIP3   OH227637   0.328   4.195   3.334 -0.0764 -0.5324 -0.0047
 2049TIP3    H127638   0.330   4.180   3.240 -0.1690  0.1403 -0.1152
 2049TIP3    H227639   0.369   4.117   3.372  0.7468 -0.4096 -0.6421
 2050TIP3   OH227640   2.158   4.269  11.958 -0.2632  0.1461 -0.3214
 2050TIP3    H127641   2.245   4.240  11.985  0.2240  2.3418  0.7111
 2050TIP3    H227642   2.104   4.258  12.036 -0.5131  0.2755 -0.4757
 2051TIP3   OH227643   1.334   3.459  14.898  0.3645  0.2927  0.2376
 2051TIP3    H127644   1.377   3.391  14.951  1.8320  1.5241  0.7158
 2051TIP3    H227645   1.265   3.493  14.955 -0.0510 -0.4375  0.1863
 2052TIP3   OH227646   5.042   0.815   5.681 -0.2816 -0.3717  0.1718
 2052TIP3    H127647   5.104   0.770   5.739  0.8047  0.3210 -0.4120
 2052TIP3    H227648   4.997   0.877   5.737 -1.0330 -1.4138  0.7670
 2053TIP3   OH227649   3.173   0.424  10.974  0.3124  1.2910 -0.0674
 2053TIP3    H127650   3.098   0.424  10.914  1.5597  1.0165 -1.6929
 2053TIP3    H227651   3.174   0.336  11.011 -0.7169  1.5912  0.7160
 2054TIP3   OH227652   4.552   4.081   1.145 -0.3513 -0.0552 -0.2939
 2054TIP3    H127653   4.506   4.143   1.201 -1.5503 -0.4600 -0.8034
 2054TIP3    H227654   4.645   4.092   1.168 -0.7148  0.5913  0.9317
 2055TIP3   OH227655   2.898   5.848  10.717 -0.1415 -0.2319 -0.1189
 2055TIP3    H127656   2.865   5.934  10.692  3.2983  0.6898 -2.1794
 2055TIP3    H227657   2.878   5.792  10.642 -1.4110 -0.9884  0.7590
 2056TIP3   OH227658   6.179   1.610  11.354  0.5458  0.2296 -0.7277
 2056TIP3    H127659   6.214   1.565  11.277  2.5849  0.9371 -0.2722
 2056TIP3    H227660   6.133   1.542  11.403  0.1437 -0.4629 -2.0341
 2057TIP3   OH227661   1.688   2.364  11.114 -0.6803 -0.0606 -0.1228
 2057TIP3    H127662   1.624   2.294  11.100  0.0491 -0.6026 -0.8397
 2057TIP3    H227663   1.755   2.349  11.048 -0.6344  1.4921 -0.4761
 2058TIP3   OH227664   2.462   0.157   7.021  0.5187  0.2111 -0.6162
 2058TIP3    H127665   2.368   0.166   7.035  0.7470  0.4619  0.8415
 2058TIP3    H227666   2.472   0.168   6.926 -0.9675 -0.3315 -0.8758
 2059TIP3   OH227667   2.396   1.824  12.123 -0.3461  0.5216  0.0203
 2059TIP3    H127668   2.484   1.789  12.109 -0.1721  0.6212  0.8184
 2059TIP3    H227669   2.338   1.755  12.092  0.0014  0.7218 -1.1459
 2060TIP3   OH227670   3.263   4.456  16.145  0.0919 -0.0603 -0.0733
 2060TIP3    H127671   3.198   4.526  16.141  0.9364  0.7271 -0.1885
 2060TIP3    H227672   3.334   4.492  16.197  1.1005 -0.3597 -1.2032
 2061TIP3   OH227673   1.281   2.649   3.603  0.3096  0.1135  0.0708
 2061TIP3    H127674   1.340   2.691   3.540 -0.8623 -0.0292 -1.1839
 2061TIP3    H227675   1.198   2.642   3.556 -0.7898  0.5355  1.8705
 2062TIP3   OH227676   4.349   6.505   3.411  0.1302 -0.4063 -0.0005
 2062TIP3    H127677   4.361   6.597   3.387 -1.7629 -0.3493 -0.8604
 2062TIP3    H227678   4.411   6.458   3.356 -0.1185  0.2212 -0.8307
 2063TIP3   OH227679   2.127   4.250  15.573  0.9182 -0.0905  0.1396
 2063TIP3    H127680   2.127   4.334  15.527  0.9674  0.1165  0.5096
 2063TIP3    H227681   2.079   4.191  15.516  1.7970 -0.0897 -0.6217
 2064TIP3   OH227682   4.194   6.038  13.431 -0.1306  0.1366 -0.7596
 2064TIP3    H127683   4.187   6.131  13.452 -0.1489 -0.0332  0.0513
 2064TIP3    H227684   4.223   5.998  13.513  2.3237 -0.2708 -1.7364
 2065TIP3   OH227685   6.073   1.421   4.450  0.6463  0.5712 -0.3474
 2065TIP3    H127686   6.111   1.462   4.528  0.8230 -2.2859  1.2504
 2065TIP3    H227687   6.144   1.420   4.386  1.5314  0.2476  0.6070
 2066TIP3   OH227688   4.126   6.826  14.879 -0.2635 -0.1064 -0.1621
 2066TIP3    H127689   4.146   6.779  14.960 -0.2234 -1.7797 -1.1070
 2066TIP3    H227690   4.180   6.784  14.812  0.1627  1.6390 -0.9715
 2067TIP3   OH227691   6.235   3.364  11.872 -0.5222 -0.1096 -0.0065
 2067TIP3    H127692   6.247   3.313  11.952  1.1296 -1.8972 -1.3107
 2067TIP3    H227693   6.162   3.422  11.891 -0.0665 -0.3491  2.8479
 2068TIP3   OH227694   5.557   1.599  11.054 -0.1352  1.1320  0.0666
 2068TIP3    H127695   5.577   1.518  11.007  1.6181  0.6395  1.5418
 2068TIP3    H227696   5.583   1.669  10.994 -0.3809  0.5931 -0.6877
 2069TIP3   OH227697   2.266   5.587  12.208  0.1760  0.1515 -0.0289
 2069TIP3    H127698   2.331   5.519  12.223 -0.5571 -0.5226  0.1513
 2069TIP3    H227699   2.185   5.552  12.245 -0.6261  0.3640 -1.5042
 2070TIP3   OH227700   4.706   3.450   4.829  0.1084 -0.4253 -0.5879
 2070TIP3    H127701   4.616   3.482   4.822 -0.4463 -2.0300 -1.2784
 2070TIP3    H227702   4.753   3.493   4.757 -0.1274  0.2872 -0.3236
 2071TIP3   OH227703   5.702   3.433   4.824 -0.0882  0.2621  0.1271
 2071TIP3    H127704   5.671   3.370   4.759 -0.4274 -0.3983  0.9148
 2071TIP3    H227705   5.636   3.503   4.821 -0.0791  0.2603 -0.2591
 2072TIP3   OH227706   4.988   6.124   5.879  0.3346  0.1902 -0.0604
 2072TIP3    H127707   4.946   6.040   5.899 -0.2403  0.2876 -0.8555
 2072TIP3    H227708   5.070   6.121   5.929  0.4807 -0.9922 -0.3250
 2073TIP3   OH227709   4.286   6.417   2.708 -0.0509  0.3828 -0.0473
 2073TIP3    H127710   4.319   6.400   2.796 -0.3824 -0.2303 -0.0333
 2073TIP3    H227711   4.357   6.462   2.663  0.6503 -0.5496  0.1097
 2074TIP3   OH227712   3.642   2.407  12.405 -0.4840  0.1791 -0.1145
 2074TIP3    H127713   3.688   2.347  12.346  0.8745  0.8422  0.2245
 2074TIP3    H227714   3.559   2.364  12.424  0.0352 -1.1088 -0.6822
 2075TIP3   OH227715   3.021   6.245  15.775  0.1258 -0.0162  0.4993
 2075TIP3    H127716   3.070   6.309  15.826  2.1469 -2.4814  1.8758
 2075TIP3    H227717   2.984   6.185  15.840 -1.8220 -0.2342 -0.7146
 2076TIP3   OH227718   0.211   3.695   4.550  0.3204 -0.6215 -0.2801
 2076TIP3    H127719   0.131   3.645   4.569  1.3094 -2.8239 -1.5652
 2076TIP3    H227720   0.205   3.717   4.458 -0.0395  1.6499  0.2395
 2077TIP3   OH227721   3.248   2.742  11.171  0.1504  0.2327  0.1947
 2077TIP3    H127722   3.237   2.698  11.087  0.1677  2.3937 -1.0105
 2077TIP3    H227723   3.164   2.787  11.185  0.3231  0.2912  1.0742
 2078TIP3   OH227724   0.034   2.817   5.738  0.2705 -0.5276  0.0776
 2078TIP3    H127725  -0.034   2.846   5.678  1.0135 -3.4658 -2.4549
 2078TIP3    H227726   0.115   2.850   5.701  0.6467 -1.4517  0.0456
 2079TIP3   OH227727   2.490   3.680  15.606 -0.4370  0.0725 -0.6860
 2079TIP3    H127728   2.558   3.677  15.539 -0.7816 -1.4880 -1.0112
 2079TIP3    H227729   2.527   3.735  15.676  1.0532 -0.5323 -0.9628
 2080TIP3   OH227730   5.741   3.150   3.739  0.0130 -0.4308  0.2578
 2080TIP3    H127731   5.684   3.189   3.672 -1.4937 -0.5957  1.3921
 2080TIP3    H227732   5.810   3.106   3.689 -0.5895  0.1603 -1.1581
 2081TIP3   OH227733   3.434   1.616  14.179  0.0782  0.1311 -0.1862
 2081TIP3    H127734   3.476   1.700  14.195  2.8487 -0.4248 -3.4736
 2081TIP3    H227735   3.377   1.632  14.104  0.7972 -0.9141 -0.9785
 2082TIP3   OH227736   5.756   0.444  11.563  0.2760 -0.0056  0.4243
 2082TIP3    H127737   5.675   0.424  11.610  1.1710 -0.5910  1.7585
 2082TIP3    H227738   5.790   0.359  11.536  2.0493 -0.0784  2.6499
 2083TIP3   OH227739   6.008   3.522  16.689 -0.0237 -0.0275  0.2674
 2083TIP3    H127740   5.938   3.575  16.727 -1.2221 -2.2543  1.3853
 2083TIP3    H227741   5.982   3.509  16.598  0.1330  1.0217  0.0629
 2084TIP3   OH227742   6.156   1.439   0.697 -0.1863  0.3029 -0.3402
 2084TIP3    H127743   6.210   1.501   0.648 -0.8969  1.6825  0.5406
 2084TIP3    H227744   6.205   1.425   0.779 -0.2477  0.0621 -0.3441
 2085TIP3   OH227745   4.522   3.741  14.752  0.2898  0.2343 -0.6648
 2085TIP3    H127746   4.443   3.793  14.743  0.4247  0.6020  0.1262
 2085TIP3    H227747   4.594   3.804  14.738  0.5168  0.8424  2.4031
 2086TIP3   OH227748   1.587   3.681  13.759  0.6215 -0.3255  1.1273
 2086TIP3    H127749   1.558   3.708  13.847  0.6393  0.5678  0.8663
 2086TIP3    H227750   1.667   3.630  13.775  0.1111 -0.9892  1.6918
 2087TIP3   OH227751   4.808   0.311   4.819  0.4984  0.7836  0.2750
 2087TIP3    H127752   4.725   0.269   4.844  0.7042 -0.4281 -0.9468
 2087TIP3    H227753   4.849   0.333   4.903 -0.4539  0.1906  0.9325
 2088TIP3   OH227754   1.955   2.663   3.646  0.5750 -0.3512 -0.3314
 2088TIP3    H127755   2.040   2.661   3.602  0.6564  1.2282 -0.3026
 2088TIP3    H227756   1.973   2.628   3.733  0.9093 -1.2745 -0.7637
 2089TIP3   OH227757   3.873   5.009   5.426  0.8263  0.5396 -0.3013
 2089TIP3    H127758   3.819   4.978   5.354  0.1990  1.3352 -0.1884
 2089TIP3    H227759   3.867   4.941   5.492  1.4546 -0.2304 -1.0016
 2090TIP3   OH227760   5.348   2.763   5.844  0.1842 -0.6036 -0.1790
 2090TIP3    H127761   5.262   2.776   5.804  0.0599  1.4641  0.6555
 2090TIP3    H227762   5.329   2.724   5.930  0.0569 -0.0532  0.0465
 2091TIP3   OH227763   5.175   6.075   6.094 -0.0579 -0.0565  0.6845
 2091TIP3    H127764   5.245   6.140   6.092  0.4864 -0.6210  0.9373
 2091TIP3    H227765   5.123   6.098   6.170  0.1976  0.0227  0.8370
 2092TIP3   OH227766   0.427   5.987  11.329 -0.1902 -0.0209 -0.4561
 2092TIP3    H127767   0.496   5.953  11.272  0.1697 -1.0857  0.5586
 2092TIP3    H227768   0.404   5.913  11.386 -0.1916  1.1029  1.0895
 2093TIP3   OH227769   3.325   5.595  17.128  0.2220 -0.1080 -0.2050
 2093TIP3    H127770   3.237   5.567  17.102  0.9920 -0.5874 -2.5203
 2093TIP3    H227771   3.381   5.520  17.110  1.1755  0.3116  0.9141
 2094TIP3   OH227772   1.528   1.795   4.742  0.1696  0.2289  0.9216
 2094TIP3    H127773   1.466   1.730   4.710  1.4709 -0.2231 -0.8096
 2094TIP3    H227774   1.489   1.880   4.718  1.4492 -0.0836 -2.8360
 2095TIP3   OH227775   3.906   4.216  16.937  0.7543  0.5040  0.2132
 2095TIP3    H127776   3.976   4.198  17.001  1.7673  1.7576 -0.5032
 2095TIP3    H227777   3.853   4.284  16.978  0.3718  0.0712  0.4456
 2096TIP3   OH227778   5.748   4.411   0.826 -0.6627 -0.1807  0.0655
 2096TIP3    H127779   5.668   4.375   0.864  1.1981 -4.1829  0.6997
 2096TIP3    H227780   5.819   4.369   0.874  1.8678  1.5109 -1.8886
 2097TIP3   OH227781   1.364   0.484   5.946  0.0887 -0.5017 -0.0085
 2097TIP3    H127782   1.381   0.547   6.017  0.3902 -0.9412  0.3120
 2097TIP3    H227783   1.273   0.457   5.960  0.4262 -1.2843  0.7806
 2098TIP3   OH227784   3.296   0.232  16.714  0.3052 -0.0600  0.2718
 2098TIP3    H127785   3.305   0.240  16.809 -2.4467  2.3416  0.4846
 2098TIP3    H227786   3.203   0.211  16.701  0.6116 -0.2833 -1.9031
 2099TIP3   OH227787   1.312   3.150   0.179 -0.2343 -0.1156 -0.1718
 2099TIP3    H127788   1.339   3.063   0.149 -1.6283 -0.8611  0.6349
 2099TIP3    H227789   1.383   3.178   0.237  0.0085 -0.9166 -0.0683
 2100TIP3   OH227790   1.389   2.479   5.482 -0.1160  0.2732 -0.6489
 2100TIP3    H127791   1.406   2.441   5.568  1.9670  0.6578 -0.8476
 2100TIP3    H227792   1.295   2.497   5.482 -0.4183 -1.0639  0.9805
 2101TIP3   OH227793   2.038   2.576   2.951 -0.3024  0.1757 -0.8737
 2101TIP3    H127794   1.996   2.523   2.884  0.0398  0.1447 -1.0683
 2101TIP3    H227795   1.974   2.643   2.974 -2.3188 -2.4713  2.1004
 2102TIP3   OH227796   0.109   3.826  16.579  0.4122 -0.4426 -0.4334
 2102TIP3    H127797   0.016   3.848  16.586  0.9650  1.7029  1.4453
 2102TIP3    H227798   0.149   3.903  16.540  1.5381 -0.9697 -0.3535
 2103TIP3   OH227799   2.004   1.933   6.332 -0.1879 -0.3185  0.7470
 2103TIP3    H127800   2.060   1.886   6.394 -1.1166  0.0618  1.8991
 2103TIP3    H227801   1.934   1.971   6.386 -1.3127 -0.4114 -0.5942
 2104TIP3   OH227802   0.664   6.035   4.133  0.1754 -0.6184 -0.0499
 2104TIP3    H127803   0.743   6.083   4.106 -0.4421  0.2952 -0.2747
 2104TIP3    H227804   0.697   5.949   4.159  1.5475  0.4193  1.9390
 2105TIP3   OH227805   3.591   2.825   0.997 -0.2129  0.0205  0.0164
 2105TIP3    H127806   3.603   2.741   0.955 -0.9622 -0.1850  0.2018
 2105TIP3    H227807   3.526   2.809   1.066  1.8093  0.0468  2.0815
 2106TIP3   OH227808   5.225   0.596   5.761 -0.0590  0.4126 -0.5999
 2106TIP3    H127809   5.162   0.544   5.811 -1.6938  2.3869 -0.5016
 2106TIP3    H227810   5.226   0.556   5.674  1.5871 -2.0363  0.4298
 2107TIP3   OH227811   4.222   3.785   2.441  0.3594 -0.1443 -0.1262
 2107TIP3    H127812   4.240   3.770   2.348  1.8433 -0.3283  0.1583
 2107TIP3    H227813   4.201   3.878   2.447 -0.3775 -0.2636 -0.7267
 2108TIP3   OH227814   1.679   2.695   2.380  0.9489  0.1574 -0.6802
 2108TIP3    H127815   1.732   2.764   2.419  2.2270 -1.7986  1.2363
 2108TIP3    H227816   1.743   2.633   2.343 -0.0253 -1.3106 -0.0053
 2109TIP3   OH227817   3.297   4.699  16.325  0.3096 -0.3205  0.0871
 2109TIP3    H127818   3.276   4.750  16.247  1.0488 -1.5033 -0.9288
 2109TIP3    H227819   3.310   4.765  16.394  0.8940  0.8455 -1.0819
 2110TIP3   OH227820   2.834   1.203  12.977 -0.3440  0.2158 -0.4084
 2110TIP3    H127821   2.818   1.138  13.045  1.7852 -0.2890 -0.3308
 2110TIP3    H227822   2.841   1.286  13.024 -0.9756  0.1885 -0.2632
 2111TIP3   OH227823   4.029   0.199   0.460 -0.4797  0.0877 -0.3081
 2111TIP3    H127824   3.984   0.119   0.489 -0.9837  0.3573 -0.3405
 2111TIP3    H227825   3.959   0.259   0.436 -0.0938 -0.4270 -3.0012
 2112TIP3   OH227826   5.853   2.949   2.386  0.2711 -0.0216  0.4538
 2112TIP3    H127827   5.825   2.906   2.305 -0.9810  0.1693  0.7676
 2112TIP3    H227828   5.942   2.980   2.367  1.2490 -2.7432  0.2315
 2113TIP3   OH227829   3.089   1.228  15.554 -0.2109 -0.1634 -0.2595
 2113TIP3    H127830   3.170   1.240  15.505 -0.2129  0.5378 -0.0965
 2113TIP3    H227831   3.103   1.146  15.602  0.3567 -0.1036 -0.3110
 2114TIP3   OH227832   2.303   6.224   1.887 -0.0856  0.0250  0.0480
 2114TIP3    H127833   2.344   6.154   1.937 -0.3498  0.8502  1.4691
 2114TIP3    H227834   2.354   6.228   1.806 -0.6075 -2.3510 -0.4735
 2115TIP3   OH227835   2.459   6.285   1.257 -0.4016  0.1886  0.1394
 2115TIP3    H127836   2.454   6.249   1.346  4.0853  0.4243  0.7316
 2115TIP3    H227837   2.407   6.366   1.261 -1.0750 -0.2811  2.2471
 2116TIP3   OH227838   4.183   0.739   0.320 -0.1137  0.6550  0.0155
 2116TIP3    H127839   4.233   0.820   0.310  1.4309 -0.3092 -0.2861
 2116TIP3    H227840   4.188   0.696   0.235 -0.1721 -0.1840  0.4210
 2117TIP3   OH227841   3.592   4.268  13.495  0.2574 -0.2806 -0.3507
 2117TIP3    H127842   3.680   4.297  13.521  0.1414 -1.4425  1.5609
 2117TIP3    H227843   3.606   4.181  13.458 -0.1637 -0.8275  0.7528
 2118TIP3   OH227844   2.173   4.926  12.686  0.6144 -0.1982  0.0644
 2118TIP3    H127845   2.084   4.940  12.720  0.9210 -1.4952  1.4954
 2118TIP3    H227846   2.215   5.012  12.692 -0.0762  0.0966  0.7854
 2119TIP3   OH227847   4.222   4.805  11.279 -0.4107 -0.6200  0.4660
 2119TIP3    H127848   4.316   4.823  11.275 -0.5956  0.2870 -0.0968
 2119TIP3    H227849   4.215   4.721  11.325  0.7317 -1.2088 -0.4105
 2120TIP3   OH227850   1.099   0.178   5.796 -0.1199  0.3036 -0.2665
 2120TIP3    H127851   1.081   0.088   5.768 -0.2370  0.3164 -0.2304
 2120TIP3    H227852   1.019   0.227   5.775 -0.9166 -0.0525  1.7466
 2121TIP3   OH227853   6.710   4.317   2.630  0.5906  0.0601  0.1380
 2121TIP3    H127854   6.643   4.257   2.597 -0.0272  0.0377  1.3886
 2121TIP3    H227855   6.695   4.320   2.724  0.9046  1.8290  0.1594
 2122TIP3   OH227856   6.107   5.486  16.151  0.3697  0.3530 -0.6589
 2122TIP3    H127857   6.078   5.426  16.220  2.0474 -0.4438 -0.6144
 2122TIP3    H227858   6.036   5.484  16.086 -1.5710  1.6186  1.2693
 2123TIP3   OH227859   4.299   4.453  16.143  0.6893 -0.3261 -0.0383
 2123TIP3    H127860   4.364   4.415  16.083  1.8695 -1.1692  1.7024
 2123TIP3    H227861   4.341   4.450  16.229 -1.5697 -0.7058  1.1227
 2124TIP3   OH227862   5.731   4.488  16.286 -0.9044 -0.1045  0.3251
 2124TIP3    H127863   5.685   4.404  16.284 -0.7386 -0.2369  1.4718
 2124TIP3    H227864   5.749   4.507  16.194 -0.5789 -1.5373  0.0554
 2125TIP3   OH227865   3.936   3.446   5.394  0.0329 -0.6579  0.4152
 2125TIP3    H127866   4.006   3.461   5.458  0.6563 -0.3314 -0.3220
 2125TIP3    H227867   3.983   3.422   5.314 -0.6922 -0.1732 -0.1631
 2126TIP3   OH227868   2.769   0.224   3.523  0.0108 -0.7446 -0.0745
 2126TIP3    H127869   2.741   0.312   3.549 -1.8282 -0.6063 -2.2385
 2126TIP3    H227870   2.839   0.202   3.585  0.0521  1.9396  0.9669
 2127TIP3   OH227871   0.260   5.864   2.515  0.5685  0.0236 -0.7677
 2127TIP3    H127872   0.301   5.786   2.552  0.6491  0.3163 -0.2196
 2127TIP3    H227873   0.239   5.918   2.591  0.1580  0.3627 -1.1174
 2128TIP3   OH227874   2.416   4.827   5.753  0.2044 -0.0369  0.1164
 2128TIP3    H127875   2.426   4.798   5.843  1.0528  0.9323  0.3546
 2128TIP3    H227876   2.505   4.825   5.717 -0.1474 -0.5887 -0.7578
 2129TIP3   OH227877   2.345   2.677   5.619 -0.1707  0.3589 -0.0363
 2129TIP3    H127878   2.283   2.651   5.550  0.3094 -1.0098 -0.0017
 2129TIP3    H227879   2.431   2.674   5.576  0.1118 -0.2847  0.5433
 2130TIP3   OH227880   2.404   5.483   0.524 -0.0110  0.1742 -0.2612
 2130TIP3    H127881   2.493   5.516   0.530 -0.3785  1.2895 -0.6493
 2130TIP3    H227882   2.410   5.392   0.552  0.9983  0.6361  1.1551
 2131TIP3   OH227883   6.102   0.205   2.654  0.1407 -0.0207 -0.2843
 2131TIP3    H127884   6.023   0.157   2.681 -0.1226 -0.1522 -1.2358
 2131TIP3    H227885   6.174   0.150   2.681 -0.0229  0.7419  1.8428
 2132TIP3   OH227886   4.549   4.327   2.764 -0.6848  0.0993  0.1296
 2132TIP3    H127887   4.555   4.232   2.754  0.5845 -0.0167  1.5437
 2132TIP3    H227888   4.455   4.345   2.766 -0.9561 -0.9030 -1.7264
 2133TIP3   OH227889   2.895   0.296  15.636 -0.0574 -0.3266  0.0536
 2133TIP3    H127890   2.958   0.316  15.567 -1.3283  0.4018 -0.9464
 2133TIP3    H227891   2.861   0.382  15.664 -1.3199 -0.7293 -0.1483
 2134TIP3   OH227892   1.656   3.878   4.616 -0.3762 -0.1570  0.0636
 2134TIP3    H127893   1.717   3.950   4.633 -0.5802 -0.3827  2.0025
 2134TIP3    H227894   1.711   3.803   4.596 -0.1233  0.1991 -0.6124
 2135TIP3   OH227895   6.030   6.755  14.354  0.5107 -0.1952  0.1123
 2135TIP3    H127896   5.950   6.777  14.403  0.7491 -0.0508  0.4447
 2135TIP3    H227897   6.056   6.670  14.389 -0.6447 -1.2554 -1.4734
 2136TIP3   OH227898   4.428   4.438  13.509  0.3327  0.0805 -0.0522
 2136TIP3    H127899   4.500   4.483  13.464  1.9398 -0.9034  1.4153
 2136TIP3    H227900   4.417   4.486  13.591 -0.4869  0.0280 -0.1272
 2137TIP3   OH227901   1.159   6.093  13.833 -0.2471 -0.0329 -0.0596
 2137TIP3    H127902   1.143   6.165  13.893  0.3978  0.3494 -0.3335
 2137TIP3    H227903   1.201   6.026  13.887 -1.3622 -0.4377  0.3221
 2138TIP3   OH227904   5.069   5.380   2.896  0.5331 -0.3535  0.1730
 2138TIP3    H127905   5.057   5.366   2.990 -1.4364  0.0341  0.0280
 2138TIP3    H227906   5.104   5.297   2.863  1.4863 -0.4017  1.2731
 2139TIP3   OH227907   2.433   6.047  14.812 -0.0317  0.8064 -0.7268
 2139TIP3    H127908   2.448   6.063  14.905  2.7981  2.0556 -1.2983
 2139TIP3    H227909   2.400   5.957  14.808 -0.8901  0.9667  1.4909
 2140TIP3   OH227910   1.125   6.476   3.851 -0.2955  0.4456 -0.1487
 2140TIP3    H127911   1.088   6.454   3.936 -0.3704 -0.3387 -0.3759
 2140TIP3    H227912   1.219   6.484   3.867 -0.3347  0.5183  0.0459
 2141TIP3   OH227913   0.082   3.807  10.204  0.0677 -0.3252  0.3138
 2141TIP3    H127914   0.048   3.724  10.236  0.1608 -0.3592  0.3249
 2141TIP3    H227915   0.039   3.873  10.260 -0.9078 -0.2824 -0.4533
 2142TIP3   OH227916   0.275   2.466   2.389  0.1765  0.2088 -0.4179
 2142TIP3    H127917   0.258   2.491   2.298  1.3787 -1.6827 -1.2206
 2142TIP3    H227918   0.367   2.488   2.403 -0.1273  0.9584  0.5514
 2143TIP3   OH227919   0.515   3.142  13.618 -0.2585  0.5825 -0.0077
 2143TIP3    H127920   0.474   3.158  13.533 -0.3885 -1.3935 -0.3813
 2143TIP3    H227921   0.587   3.205  13.623  0.3338  0.1452 -2.0134
 2144TIP3   OH227922   6.459   3.749   5.497 -0.0462  0.5067 -0.0410
 2144TIP3    H127923   6.450   3.697   5.418  0.0125  0.1879  0.1603
 2144TIP3    H227924   6.550   3.738   5.524 -0.7923 -1.9440  1.8025
 2145TIP3   OH227925   3.850   0.273  11.550  0.4529  0.2496 -0.5133
 2145TIP3    H127926   3.933   0.285  11.504  1.1925 -0.9884  0.4359
 2145TIP3    H227927   3.868   0.206  11.615 -1.3551 -0.1663 -0.3853
 2146TIP3   OH227928   1.524   3.710   5.396 -0.0516  0.4676 -0.0162
 2146TIP3    H127929   1.429   3.712   5.382 -0.1304  1.2272  0.5926
 2146TIP3    H227930   1.556   3.787   5.349  0.0999  0.9944  0.9365
 2147TIP3   OH227931   2.177   5.089   2.110 -0.9139 -0.7017  0.0896
 2147TIP3    H127932   2.192   5.056   2.199 -0.3480  0.3169  0.3796
 2147TIP3    H227933   2.083   5.073   2.095 -1.0072 -0.9141  0.8478
 2148TIP3   OH227934   5.188   6.596  14.859  0.5122  0.3060  0.1349
 2148TIP3    H127935   5.268   6.550  14.885  0.2349  0.4447  1.2767
 2148TIP3    H227936   5.121   6.528  14.854  0.5606  0.2830 -0.1896
 2149TIP3   OH227937   6.566   3.479   0.773 -0.6382  0.2588 -0.2677
 2149TIP3    H127938   6.597   3.570   0.775  1.5133 -0.3671 -1.8605
 2149TIP3    H227939   6.537   3.462   0.863  0.0030  2.1635  0.3443
 2150TIP3   OH227940   3.700   0.707   4.693 -0.1523 -0.2311 -0.5511
 2150TIP3    H127941   3.640   0.758   4.748 -0.4466 -2.0964  0.9797
 2150TIP3    H227942   3.786   0.744   4.712 -0.2815 -0.6588  1.0109
 2151TIP3   OH227943   5.090   1.125  13.847  0.1313 -0.4128 -0.0391
 2151TIP3    H127944   5.120   1.167  13.766  0.3422 -1.4882 -0.5305
 2151TIP3    H227945   5.070   1.198  13.905 -0.5264  0.3873 -1.2351
 2152TIP3   OH227946   5.566   3.928   2.561 -0.0290 -0.3545  0.2448
 2152TIP3    H127947   5.576   3.990   2.634 -1.7280 -1.2017  1.2488
 2152TIP3    H227948   5.512   3.975   2.498  1.7312  0.5133 -0.7053
 2153TIP3   OH227949   3.621   2.580   4.213 -0.2923  0.1857 -0.1808
 2153TIP3    H127950   3.591   2.514   4.276 -0.2562  0.2183 -0.1294
 2153TIP3    H227951   3.709   2.605   4.244  0.0407 -0.3554 -0.6770
 2154TIP3   OH227952   2.909   6.661  14.285 -0.4570 -0.0175 -0.1802
 2154TIP3    H127953   2.853   6.729  14.247  0.5411  0.7723 -0.2708
 2154TIP3    H227954   2.969   6.709  14.343  0.3417 -0.8025 -0.3394
 2155TIP3   OH227955   4.394   5.424  15.164  0.1470 -0.1027  0.5687
 2155TIP3    H127956   4.318   5.439  15.220  2.1961  1.4272  3.1657
 2155TIP3    H227957   4.390   5.494  15.099 -0.4143  0.2571  0.9800
 2156TIP3   OH227958   3.774   3.771  12.398  0.3821  0.1655  0.3750
 2156TIP3    H127959   3.753   3.680  12.419 -0.0090  1.0398  4.8595
 2156TIP3    H227960   3.768   3.776  12.303 -0.2970 -4.2690 -0.0329
 2157TIP3   OH227961   4.413   4.662  14.897 -0.0127  0.2330 -0.8896
 2157TIP3    H127962   4.485   4.676  14.835 -1.0748  1.8791 -1.8377
 2157TIP3    H227963   4.424   4.731  14.963 -0.2570 -0.0090 -0.5922
 2158TIP3   OH227964   4.649   0.091   3.570  0.0242 -0.3123 -0.2714
 2158TIP3    H127965   4.595   0.149   3.624  0.9099  0.3449 -0.0647
 2158TIP3    H227966   4.599   0.010   3.564 -0.9692  0.2674 -0.0712
 2159TIP3   OH227967   2.664   4.912  11.327  0.0287  0.3612 -0.1111
 2159TIP3    H127968   2.609   4.853  11.378 -2.6883  1.6793 -1.2763
 2159TIP3    H227969   2.735   4.857  11.295 -0.5579 -1.4662  1.5393
 2160TIP3   OH227970   3.672   6.816  17.204  0.3116 -0.6871  0.3993
 2160TIP3    H127971   3.596   6.763  17.226 -0.0091  0.3522  1.9467
 2160TIP3    H227972   3.716   6.831  17.287  1.0672  0.4642 -0.1756
 2161TIP3   OH227973   2.979   2.927  13.401 -0.4480  0.0975 -0.8230
 2161TIP3    H127974   3.072   2.912  13.419 -0.1354  1.0390 -1.5843
 2161TIP3    H227975   2.965   2.888  13.314 -1.3468 -2.1401  0.2269
 2162TIP3   OH227976   6.464   5.095  10.356  0.1561  0.1558 -0.5260
 2162TIP3    H127977   6.559   5.087  10.366  0.1216  1.9973  2.5349
 2162TIP3    H227978   6.428   5.017  10.398  0.2987  0.7034  0.6321
 2163TIP3   OH227979   5.175   4.561  14.883 -0.1348  0.1381  0.7510
 2163TIP3    H127980   5.142   4.502  14.815 -0.0940  0.9018  0.0506
 2163TIP3    H227981   5.241   4.614  14.839  0.0701  0.4780  1.4558
 2164TIP3   OH227982   3.346   1.794   0.675 -0.0087 -0.2681  0.0173
 2164TIP3    H127983   3.369   1.766   0.587  0.0583  0.9700 -0.3830
 2164TIP3    H227984   3.331   1.888   0.667 -1.5981 -0.3973  1.0072
 2165TIP3   OH227985   5.097   1.856  13.024 -0.1476  0.3213  0.5583
 2165TIP3    H127986   5.168   1.819  12.971 -1.1107  0.2913 -0.7497
 2165TIP3    H227987   5.093   1.798  13.101 -1.0851 -1.8916 -1.0544
 2166TIP3   OH227988   1.434   0.913  13.715 -0.2191 -0.5331  0.0724
 2166TIP3    H127989   1.355   0.914  13.769  0.2443 -0.3781  0.7634
 2166TIP3    H227990   1.449   1.005  13.692  0.0468 -0.4991  0.3749
 2167TIP3   OH227991   1.895   6.185  14.821 -0.1088 -0.2896  0.0646
 2167TIP3    H127992   1.970   6.177  14.762 -1.2502  1.9755 -1.8602
 2167TIP3    H227993   1.818   6.174  14.764 -1.2694 -0.3447  1.5756
 2168TIP3   OH227994   5.172   1.076   1.417  1.1905 -0.3850  0.4902
 2168TIP3    H127995   5.171   1.154   1.472 -0.1720 -0.5434  0.7131
 2168TIP3    H227996   5.149   1.107   1.330 -0.0587 -0.6113  0.7182
 2169TIP3   OH227997   1.152   0.360   4.063  0.3087  0.2164  0.0070
 2169TIP3    H127998   1.092   0.352   3.990 -2.3127 -2.7365  2.2208
 2169TIP3    H227999   1.129   0.443   4.104 -1.8828 -0.4886  0.3491
 2170TIP3   OH228000   4.355   1.550  11.764  0.2922  0.1234 -0.2795
 2170TIP3    H128001   4.285   1.605  11.729  0.5666  0.5815 -0.1141
 2170TIP3    H228002   4.316   1.508  11.841  0.5867  1.3797  0.5799
 2171TIP3   OH228003   3.236   2.020   4.483  0.2196  0.1591  0.0570
 2171TIP3    H128004   3.326   1.988   4.473 -0.2075 -1.3310  0.6928
 2171TIP3    H228005   3.238   2.078   4.559  0.6879  0.3310 -0.0857
 2172TIP3   OH228006   1.575   1.195  13.132 -0.1761  0.1047 -0.6232
 2172TIP3    H128007   1.575   1.290  13.137  1.4340  0.0600  1.1430
 2172TIP3    H228008   1.666   1.169  13.145 -1.1214 -1.8039  4.5796
 2173TIP3   OH228009   3.735   5.087   2.926  0.3570  0.1818 -0.3058
 2173TIP3    H128010   3.770   5.131   3.002 -0.5949  0.0356  0.2404
 2173TIP3    H228011   3.757   5.144   2.852  1.9002 -0.0258 -0.0341
 2174TIP3   OH228012   3.333   3.058  16.148 -0.0167 -0.2345 -0.1113
 2174TIP3    H128013   3.287   3.141  16.137 -0.0491 -0.0395  1.3288
 2174TIP3    H228014   3.316   3.010  16.067 -1.5498  0.4128 -0.2070
 2175TIP3   OH228015   5.196   0.465  12.270 -0.3066 -0.1526  0.6160
 2175TIP3    H128016   5.195   0.517  12.350  1.4797  0.4922  0.2740
 2175TIP3    H228017   5.129   0.506  12.214  0.9752  1.7719  0.4054
 2176TIP3   OH228018   0.328   2.296   5.558 -0.0334  0.8902 -0.1979
 2176TIP3    H128019   0.318   2.215   5.508 -0.7433 -1.4398  3.3209
 2176TIP3    H228020   0.421   2.300   5.579 -0.2912 -0.2448  1.3275
 2177TIP3   OH228021   0.673   3.534  16.349 -0.3960 -0.0755 -0.1048
 2177TIP3    H128022   0.641   3.445  16.332 -1.1202  0.4944 -1.9327
 2177TIP3    H228023   0.767   3.523  16.362 -0.8239 -1.4397  2.7355
 2178TIP3   OH228024   3.901   2.670  15.029  0.5335  0.3813  0.2598
 2178TIP3    H128025   3.861   2.641  15.111  0.3753 -0.5659 -0.1416
 2178TIP3    H228026   3.867   2.758  15.016 -3.9620 -1.3652 -1.6051
 2179TIP3   OH228027   0.816   2.126  13.391  0.6130  0.4385 -0.0621
 2179TIP3    H128028   0.775   2.181  13.457  0.1368 -0.1488  0.1418
 2179TIP3    H228029   0.853   2.053  13.440  2.0942  1.0497 -0.2207
 2180TIP3   OH228030   2.545   2.543   2.770  0.0586 -0.3320  0.1514
 2180TIP3    H128031   2.560   2.480   2.699  0.8788 -3.7077  3.0377
 2180TIP3    H228032   2.630   2.548   2.814 -0.6075  1.1291  1.3147
 2181TIP3   OH228033   1.736   6.044  14.352  0.0612 -0.1060 -0.3042
 2181TIP3    H128034   1.679   6.120  14.342 -0.2015 -0.4537 -1.5301
 2181TIP3    H228035   1.825   6.081  14.352 -0.0743  0.2212 -0.5968
 2182TIP3   OH228036   3.539   0.069   1.449 -0.0659 -0.3887 -0.1401
 2182TIP3    H128037   3.533   0.134   1.519  0.8503  0.2633 -0.6378
 2182TIP3    H228038   3.456   0.076   1.403  0.4632  1.3308 -0.9199
 2183TIP3   OH228039   6.422   1.010   5.034 -0.1687 -0.0844 -0.1245
 2183TIP3    H128040   6.369   1.067   5.089 -0.7626 -0.5079 -0.2568
 2183TIP3    H228041   6.501   1.061   5.015 -0.2401  0.3002  0.5979
 2184TIP3   OH228042   3.282   6.223  15.072  0.5557  0.0840  0.5451
 2184TIP3    H128043   3.295   6.188  14.984  0.5318  0.1719  0.5067
 2184TIP3    H228044   3.217   6.292  15.061  1.0429  0.5437  0.5259
 2185TIP3   OH228045   2.948   5.070  11.822  0.8375  0.4592 -0.1455
 2185TIP3    H128046   2.916   5.007  11.887 -1.2359  0.6963 -0.8654
 2185TIP3    H228047   2.996   5.135  11.874  1.8816 -0.9607  0.7599
 2186TIP3   OH228048   3.270   4.529   5.730 -0.6293 -0.2586 -0.2522
 2186TIP3    H128049   3.313   4.489   5.805  0.2607 -0.3905 -0.8119
 2186TIP3    H228050   3.325   4.504   5.655 -1.8277 -0.6578 -1.0360
 2187TIP3   OH228051   5.972   2.985   3.147 -0.0354 -0.0392 -0.3260
 2187TIP3    H128052   5.904   3.052   3.144  1.4153  1.5161  0.2903
 2187TIP3    H228053   5.960   2.942   3.232 -0.1588  0.3381 -0.1495
 2188TIP3   OH228054   1.459   3.696  16.709  0.0637  0.3234 -0.2339
 2188TIP3    H128055   1.533   3.636  16.698  1.8356  2.3016  0.1353
 2188TIP3    H228056   1.454   3.744  16.626 -2.0014 -0.9284 -0.9217
 2189TIP3   OH228057   5.072   5.829  17.167 -0.1599 -0.2954 -0.0693
 2189TIP3    H128058   5.086   5.913  17.211  1.3420  0.1828 -1.3811
 2189TIP3    H228059   5.106   5.764  17.228  0.6864  0.2423  0.0427
 2190TIP3   OH228060   0.251   2.992  12.639  0.3780  0.5972 -0.0173
 2190TIP3    H128061   0.198   2.933  12.693 -1.4768  0.0777 -2.2699
 2190TIP3    H228062   0.339   2.985  12.677 -0.4296 -1.1797  1.7403
 2191TIP3   OH228063   0.930   6.166  10.920  0.4984  0.1528 -0.1523
 2191TIP3    H128064   1.007   6.223  10.916  2.0065 -1.7480  0.7557
 2191TIP3    H228065   0.964   6.078  10.908 -1.8778 -0.5914 -2.4557
 2192TIP3   OH228066   5.819   2.023   2.737  0.2387 -0.1640  0.2606
 2192TIP3    H128067   5.907   1.995   2.761  0.5027  0.1435 -0.3298
 2192TIP3    H228068   5.761   1.977   2.798  0.6910 -1.5744 -0.3335
 2193TIP3   OH228069   0.901   6.087   3.073  0.3835 -0.6500 -0.2602
 2193TIP3    H128070   0.866   6.151   3.011  0.6312 -0.5528 -0.3023
 2193TIP3    H228071   0.987   6.065   3.039 -0.2703 -2.1351 -1.0508
 2194TIP3   OH228072   5.414   0.283  11.390  0.1383 -0.0739  0.3411
 2194TIP3    H128073   5.486   0.256  11.333  1.1639  0.0027  1.5543
 2194TIP3    H228074   5.409   0.378  11.377  0.1416 -0.1020  0.1264
 2195TIP3   OH228075   0.387   5.408   4.272  0.4189  0.4793  0.4280
 2195TIP3    H128076   0.467   5.431   4.320  0.6199  1.5249 -0.3822
 2195TIP3    H228077   0.417   5.391   4.183 -0.0251 -0.9525  0.5382
 2196TIP3   OH228078   0.471   3.924  11.443 -0.1719 -0.6921 -0.1514
 2196TIP3    H128079   0.454   3.992  11.509 -2.0054 -0.0313 -1.2131
 2196TIP3    H228080   0.445   3.842  11.486  0.3862 -0.5087  0.5514
 2197TIP3   OH228081   0.073   2.826   1.751  0.1328  0.7083  0.0611
 2197TIP3    H128082   0.128   2.899   1.781  0.7961 -0.0153  0.6588
 2197TIP3    H228083  -0.016   2.859   1.758  0.4771  1.9097 -0.9134
 2198TIP3   OH228084   4.102   5.089   4.518  0.0088 -0.0127  0.4938
 2198TIP3    H128085   4.058   5.148   4.579  1.0235  0.1804  1.0638
 2198TIP3    H228086   4.157   5.147   4.464  1.8981 -0.4797  1.8050
 2199TIP3   OH228087   0.703   3.653   2.130  0.0859  0.2018  0.0784
 2199TIP3    H128088   0.777   3.676   2.074  1.0865 -0.2029  1.1947
 2199TIP3    H228089   0.702   3.721   2.197 -0.1071 -0.1921  0.4793
 2200TIP3   OH228090   5.022   2.698   2.529  0.6002 -0.4257 -0.1260
 2200TIP3    H128091   5.096   2.733   2.580  1.0875 -2.9582  1.0772
 2200TIP3    H228092   5.030   2.603   2.538 -3.3903 -0.8360  0.9709
 2201TIP3   OH228093   5.513   4.784  16.910  0.2372  0.2596  0.5180
 2201TIP3    H128094   5.545   4.749  16.993 -1.1286  1.7921  1.7554
 2201TIP3    H228095   5.504   4.878  16.925  0.2960  0.6339 -1.5000
 2202TIP3   OH228096   6.627   1.767   3.739  0.1603 -0.3857 -0.1450
 2202TIP3    H128097   6.551   1.717   3.712  0.6161 -0.8286 -0.6277
 2202TIP3    H228098   6.596   1.857   3.746 -1.6217 -1.0568  4.1469
 2203TIP3   OH228099   2.053   0.273  14.348  0.1964  0.1527 -0.2667
 2203TIP3    H128100   1.991   0.310  14.411  0.3935  2.2618 -1.2309
 2203TIP3    H228101   2.005   0.202  14.306 -0.5326 -0.1549  1.0182
 2204TIP3   OH228102   2.618   6.517  17.078 -0.6954  0.4749 -0.2999
 2204TIP3    H128103   2.542   6.504  17.135  0.1746 -1.2074  0.5372
 2204TIP3    H228104   2.637   6.610  17.085 -0.7067  0.3537  2.0621
 2205TIP3   OH228105   4.908   0.148   3.177  0.5487 -0.2663 -0.1314
 2205TIP3    H128106   4.997   0.139   3.212  0.7801 -1.9023 -1.0667
 2205TIP3    H228107   4.857   0.181   3.251  1.8996  0.6794  0.4382
 2206TIP3   OH228108   3.982   0.449   2.851 -0.4392 -0.0720 -0.8612
 2206TIP3    H128109   4.069   0.415   2.832 -0.4704 -0.0022 -1.1289
 2206TIP3    H228110   3.998   0.528   2.902 -0.3753 -0.7342  0.1852
 2207TIP3   OH228111   3.594   2.168  16.620 -0.1481 -0.5050  0.0500
 2207TIP3    H128112   3.656   2.194  16.689 -1.5480  0.0441  1.1484
 2207TIP3    H228113   3.593   2.073  16.624 -1.0046 -0.4713  1.5725
 2208TIP3   OH228114   6.464   0.531   2.131  0.6611  0.0780 -0.0501
 2208TIP3    H128115   6.535   0.592   2.151  0.9752 -0.1539 -0.4443
 2208TIP3    H228116   6.457   0.533   2.036  1.1622 -1.0389 -0.1192
 2209TIP3   OH228117   5.731   3.701   3.254 -0.0525  0.0337 -0.0510
 2209TIP3    H128118   5.787   3.673   3.326 -1.0087 -0.2809  0.5842
 2209TIP3    H228119   5.728   3.796   3.262  3.1285  0.4635 -2.1615
 2210TIP3   OH228120   2.059   6.079  15.348  0.4894  0.4458 -0.3656
 2210TIP3    H128121   2.126   6.075  15.280  0.0951 -0.7802 -0.7072
 2210TIP3    H228122   1.993   6.015  15.321 -0.2831  0.8399  0.5254
 2211TIP3   OH228123   5.001   2.836  15.725  0.3017  0.4476 -0.0721
 2211TIP3    H128124   5.034   2.756  15.683 -0.9348  0.1145 -0.4458
 2211TIP3    H228125   5.069   2.858  15.789  1.1457 -0.3211 -0.6665
 2212TIP3   OH228126   2.601   2.900   2.970  0.3141 -0.0182  0.6647
 2212TIP3    H128127   2.540   2.942   2.909  0.3714 -1.4275 -0.4056
 2212TIP3    H228128   2.577   2.808   2.969  1.0914 -0.2579  1.8848
 2213TIP3   OH228129   5.094   6.030   5.281  0.1806 -0.0628 -0.1548
 2213TIP3    H128130   5.066   6.067   5.198 -2.0399  0.7058  0.8386
 2213TIP3    H228131   5.036   5.955   5.294 -1.0392  1.1106  1.6407
 2214TIP3   OH228132   4.054   3.799  15.204  0.5412 -0.2675 -0.1100
 2214TIP3    H128133   4.055   3.796  15.108 -0.8588 -0.5821 -0.1384
 2214TIP3    H228134   4.089   3.885  15.225 -1.2569  0.7391 -1.0077
 2215TIP3   OH228135   1.643   1.014   2.931  0.1516 -0.3442 -0.2999
 2215TIP3    H128136   1.609   1.004   2.841  0.6056  0.0114 -0.5151
 2215TIP3    H228137   1.569   1.049   2.980  0.0390 -0.0809 -0.6485
 2216TIP3   OH228138   5.171   4.911   4.530  0.2722 -0.0084  0.1487
 2216TIP3    H128139   5.182   4.957   4.613 -3.6439  2.1279 -0.2401
 2216TIP3    H228140   5.218   4.966   4.467  0.9025 -0.0599  0.5692
 2217TIP3   OH228141   0.995   6.554  15.337  0.1146 -1.1959 -0.4279
 2217TIP3    H128142   1.011   6.518  15.250 -0.7576 -1.3552 -0.5297
 2217TIP3    H228143   0.958   6.481  15.387 -0.5644 -0.7693 -0.2966
 2218TIP3   OH228144   3.982   0.580  12.163 -0.0159 -0.3660  0.3504
 2218TIP3    H128145   4.024   0.664  12.146  0.6498 -0.2669  2.2715
 2218TIP3    H228146   3.972   0.540  12.077  0.2386  1.3933 -0.5292
 2219TIP3   OH228147   0.186   4.992  14.782  0.2577  0.1025  0.2922
 2219TIP3    H128148   0.176   5.076  14.826 -0.1109  0.8031 -1.0948
 2219TIP3    H228149   0.097   4.967  14.756  0.5871  0.2947 -1.0995
 2220TIP3   OH228150   2.886   5.164   0.779  0.4593 -0.0755 -0.7030
 2220TIP3    H128151   2.874   5.195   0.869 -1.2967  0.0366 -0.9426
 2220TIP3    H228152   2.953   5.097   0.785 -0.8407 -1.3058  0.9866
 2221TIP3   OH228153   2.181   4.240   4.177  0.3781  0.0699 -0.4441
 2221TIP3    H128154   2.173   4.180   4.103  0.9870 -2.1503  1.1588
 2221TIP3    H228155   2.106   4.298   4.170  0.1268 -0.4418 -2.4585
 2222TIP3   OH228156   1.776   3.457   6.598  0.0919 -0.8601  0.4782
 2222TIP3    H128157   1.823   3.374   6.607  0.9286 -0.3961  0.3890
 2222TIP3    H228158   1.684   3.430   6.585  0.1189 -1.7352  1.8518
 2223TIP3   OH228159   2.421   3.376  11.295 -0.6299  0.0565 -0.1046
 2223TIP3    H128160   2.383   3.463  11.281 -0.0675  0.3028 -0.1406
 2223TIP3    H228161   2.488   3.368  11.228  0.0184  0.0118  0.5338
 2224TIP3   OH228162   5.004   4.112  15.389 -0.0755 -0.1813 -0.0838
 2224TIP3    H128163   4.969   4.201  15.386  1.9606  0.7495  1.6642
 2224TIP3    H228164   4.967   4.075  15.469 -0.1206 -0.5736 -0.2831
 2225TIP3   OH228165   2.126   0.258   2.550 -0.1685  0.4499 -0.0361
 2225TIP3    H128166   2.043   0.245   2.506  0.5079  0.1635 -1.2729
 2225TIP3    H228167   2.170   0.173   2.546 -0.6296  0.0239  2.4407
 2226TIP3   OH228168   5.726   0.223  17.099  0.2886 -0.4091 -0.1417
 2226TIP3    H128169   5.785   0.210  17.173  1.8766  0.7385 -1.1144
 2226TIP3    H228170   5.744   0.149  17.041 -0.6612 -1.0916  0.4153
 2227TIP3   OH228171   2.943   3.831  15.119  0.4313  0.4194 -0.1112
 2227TIP3    H128172   2.933   3.738  15.100 -0.7170  0.6662 -0.7996
 2227TIP3    H228173   3.023   3.836  15.171  1.7384 -0.7047 -1.8801
 2228TIP3   OH228174   4.163   3.823  16.146 -0.0480 -0.6885 -0.2822
 2228TIP3    H128175   4.116   3.901  16.178  1.7004 -0.1924  1.2413
 2228TIP3    H228176   4.120   3.750  16.189 -0.0763 -0.3310  0.3103
 2229TIP3   OH228177   0.501   2.981  11.950  0.1808 -0.3055 -0.8398
 2229TIP3    H128178   0.555   3.051  11.987 -0.4706  1.1784 -2.5183
 2229TIP3    H228179   0.504   2.911  12.015  1.4940  0.9764  0.5647
 2230TIP3   OH228180   3.701   5.256   0.910 -0.2083 -0.0055  0.2224
 2230TIP3    H128181   3.674   5.240   1.000 -0.2699 -0.7912  0.0672
 2230TIP3    H228182   3.700   5.351   0.902 -1.1367  0.0426  0.7622
 2231TIP3   OH228183   0.562   2.769   1.104  0.2088  1.1987 -0.2810
 2231TIP3    H128184   0.542   2.676   1.113  1.1429  1.1363  1.7505
 2231TIP3    H228185   0.482   2.808   1.069 -0.7601 -0.1323  0.3668
 2232TIP3   OH228186   5.433   6.103  11.748 -0.3698 -0.2404  0.8631
 2232TIP3    H128187   5.381   6.132  11.674 -3.1103 -0.5147  2.5254
 2232TIP3    H228188   5.457   6.012  11.727  3.0185  1.0188 -1.6412
 2233TIP3   OH228189   0.794   6.735  15.379  0.7038 -0.4266 -0.3751
 2233TIP3    H128190   0.718   6.691  15.418  1.4351 -0.7688  0.7470
 2233TIP3    H228191   0.868   6.678  15.403  1.8057  1.7058  1.7619
 2234TIP3   OH228192   2.177   6.419  12.523 -0.4280  0.0105  0.9989
 2234TIP3    H128193   2.136   6.354  12.467 -0.5720 -0.6162  1.8082
 2234TIP3    H228194   2.165   6.385  12.612 -0.5977  1.1812  1.4513
 2235TIP3   OH228195   5.437   3.142  15.056  0.0398 -0.1036  0.8680
 2235TIP3    H128196   5.366   3.081  15.074 -0.8194  0.4539 -0.4311
 2235TIP3    H228197   5.511   3.087  15.032 -0.0943 -0.6800  1.7616
 2236TIP3   OH228198   6.037   5.048  12.162 -0.3286  0.2397 -0.0382
 2236TIP3    H128199   6.011   5.109  12.093  1.1352  0.2961 -0.5917
 2236TIP3    H228200   5.959   5.036  12.215 -1.5199  0.1222 -1.7659
 2237TIP3   OH228201   1.450   4.062  13.778 -0.1308 -0.1099  0.4489
 2237TIP3    H128202   1.355   4.058  13.794 -0.9218 -1.7911 -3.4389
 2237TIP3    H228203   1.458   4.055  13.682  3.9209  1.2258  0.5273
 2238TIP3   OH228204   2.572   1.848   3.492 -0.3500 -0.2773  0.3868
 2238TIP3    H128205   2.617   1.763   3.486 -0.3199 -0.2957  0.7969
 2238TIP3    H228206   2.642   1.913   3.484 -0.5055 -0.2670 -1.0160
 2239TIP3   OH228207   5.674   6.297  13.349  0.2902 -0.8344  0.7878
 2239TIP3    H128208   5.603   6.328  13.292  0.8353  0.9905  1.0297
 2239TIP3    H228209   5.645   6.211  13.379 -1.0460 -0.8465 -0.4351
 2240TIP3   OH228210   6.103   1.213  13.941  0.4171  0.3838 -0.3537
 2240TIP3    H128211   6.115   1.215  14.036 -1.0711  0.3771 -0.1408
 2240TIP3    H228212   6.176   1.160  13.909  0.7679  0.1284  0.8196
 2241TIP3   OH228213   3.210   0.040  15.459  0.3137  0.1149 -0.3903
 2241TIP3    H128214   3.279  -0.003  15.510  0.7488 -1.1387 -1.9619
 2241TIP3    H228215   3.230   0.133  15.464  1.7340 -0.1828 -0.2486
 2242TIP3   OH228216   4.040   4.260  11.264 -0.0762 -0.3868 -0.0273
 2242TIP3    H128217   3.951   4.276  11.295 -0.3998 -0.9236 -0.6412
 2242TIP3    H228218   4.090   4.243  11.344 -0.6356 -0.5637  0.2973
 2243TIP3   OH228219   5.423   2.789   4.464 -0.3142  0.5771 -0.4834
 2243TIP3    H128220   5.340   2.774   4.420 -0.7345  2.0645 -0.2511
 2243TIP3    H228221   5.484   2.810   4.393 -0.0482 -0.7899 -0.6799
 2244TIP3   OH228222   1.385   4.666  14.716 -0.7131  0.1931  0.0928
 2244TIP3    H128223   1.451   4.691  14.781 -1.2533  1.3825  0.1938
 2244TIP3    H228224   1.371   4.745  14.663 -1.1535 -0.4114 -0.7255
 2245TIP3   OH228225   1.367   3.867   3.264  0.4092 -0.1962 -0.4949
 2245TIP3    H128226   1.357   3.888   3.357  0.6810  1.5742 -0.8416
 2245TIP3    H228227   1.285   3.894   3.224  0.9457  0.6814 -1.0282
 2246TIP3   OH228228   6.644   3.531  13.956 -0.3303  0.1236 -0.1607
 2246TIP3    H128229   6.549   3.524  13.947 -0.2834  0.5765 -1.2257
 2246TIP3    H228230   6.663   3.497  14.043 -1.2649 -1.8544 -0.6723
 2247TIP3   OH228231   0.340   1.211   2.526  0.3434 -0.7279  0.5169
 2247TIP3    H128232   0.333   1.237   2.618  3.7070 -1.0409  1.0164
 2247TIP3    H228233   0.292   1.129   2.521 -3.2434  1.1494  0.9316
 2248TIP3   OH228234   6.516   0.580  11.593 -0.7137  0.7367  0.7977
 2248TIP3    H128235   6.421   0.594  11.595 -0.5338  2.1860  0.4424
 2248TIP3    H228236   6.526   0.486  11.577 -2.0858  0.5030  1.1962
 2249TIP3   OH228237   6.209   2.675   2.645 -0.0792  0.6064 -0.4336
 2249TIP3    H128238   6.126   2.689   2.600 -0.5434  0.5407  0.3706
 2249TIP3    H228239   6.223   2.581   2.642 -0.3876  0.5432  0.0264
 2250TIP3   OH228240   0.633   4.370   4.036 -0.2476 -0.0378 -0.2675
 2250TIP3    H128241   0.577   4.387   4.112 -0.4796  1.4524 -0.7400
 2250TIP3    H228242   0.631   4.275   4.026 -2.7825 -0.0619 -0.2898
 2251TIP3   OH228243   5.127   5.185  12.174 -0.0216 -0.0263  0.2490
 2251TIP3    H128244   5.203   5.192  12.115 -0.0220 -0.2673  0.2206
 2251TIP3    H228245   5.155   5.124  12.242  0.2424  0.8122  0.9064
 2252TIP3   OH228246   4.496   4.269  14.473  0.5028 -0.3697  0.1701
 2252TIP3    H128247   4.452   4.219  14.405  0.9707 -0.5491 -0.0037
 2252TIP3    H228248   4.465   4.230  14.555  1.0017 -1.0631  0.0339
 2253TIP3   OH228249   5.584   5.735   2.742  0.3576  1.1603  0.4115
 2253TIP3    H128250   5.629   5.654   2.718  0.1371  0.9154  0.8142
 2253TIP3    H228251   5.569   5.727   2.836  0.5217  1.7640  0.4891
 2254TIP3   OH228252   2.317   4.886  15.073  0.1404  0.1013 -0.5160
 2254TIP3    H128253   2.396   4.920  15.116  1.4563 -1.1148 -1.8744
 2254TIP3    H228254   2.327   4.909  14.981 -0.6871 -0.7709 -0.8485
 2255TIP3   OH228255   2.554   5.684  16.251  0.0602 -0.0911  0.1877
 2255TIP3    H128256   2.616   5.634  16.197  0.1257  0.9443 -0.7364
 2255TIP3    H228257   2.608   5.726  16.318  0.0806 -0.7742  0.6066
 2256TIP3   OH228258   5.653   3.854   4.136 -0.8505  0.1122 -0.4554
 2256TIP3    H128259   5.581   3.792   4.139  0.6762 -1.7502 -0.8223
 2256TIP3    H228260   5.718   3.813   4.080  0.9212  1.2613  0.6569
 2257TIP3   OH228261   2.276   0.608  13.982 -0.5999 -0.0560 -0.1136
 2257TIP3    H128262   2.302   0.694  13.947 -1.9793 -0.1725 -1.5386
 2257TIP3    H228263   2.260   0.623  14.075 -1.3433  1.3778 -0.4470
 2258TIP3   OH228264   2.771   6.454  15.360  0.1297  0.0850 -0.2705
 2258TIP3    H128265   2.848   6.422  15.407  0.9527  1.5602 -0.5665
 2258TIP3    H228266   2.797   6.539  15.325 -0.8007 -0.4739 -2.4927
 2259TIP3   OH228267   5.390   5.960   5.563 -0.3155  0.3247  0.0811
 2259TIP3    H128268   5.300   5.950   5.593 -0.6376 -1.0570 -1.2627
 2259TIP3    H228269   5.388   5.937   5.470  1.5338 -0.4694  0.1851
 2260TIP3   OH228270   2.192   1.670  12.009 -0.2088 -0.0257 -0.0788
 2260TIP3    H128271   2.114   1.659  12.063 -0.6536  1.7570 -0.2971
 2260TIP3    H228272   2.164   1.726  11.937  1.0175 -0.2020 -0.7263
 2261TIP3   OH228273   1.298   2.281  15.767  0.0991  0.0627  0.0891
 2261TIP3    H128274   1.257   2.338  15.832 -0.2273 -1.2896  1.1139
 2261TIP3    H228275   1.225   2.247  15.715  0.3719  1.2629 -1.1197
 2262TIP3   OH228276   2.999   5.105   1.534 -0.1264  0.3308  0.3881
 2262TIP3    H128277   3.073   5.099   1.474  0.2451  0.6684  0.8050
 2262TIP3    H228278   2.927   5.141   1.482 -0.3577 -1.0787 -0.3338
 2263TIP3   OH228279   0.486   5.555   5.557  0.8125  0.1167  0.2007
 2263TIP3    H128280   0.559   5.511   5.513  2.3855 -0.5229  3.1519
 2263TIP3    H228281   0.529   5.618   5.617 -1.1648  1.2624  0.4934
 2264TIP3   OH228282   2.086   2.805   1.116  0.3477 -0.4475 -0.1966
 2264TIP3    H128283   2.141   2.727   1.105  2.0531  0.6114  0.5038
 2264TIP3    H228284   2.088   2.822   1.211 -1.1168 -0.3111 -0.1730
 2265TIP3   OH228285   2.120   4.926  16.823 -0.0871  0.5883  0.9007
 2265TIP3    H128286   2.051   4.978  16.866 -0.8219 -0.5208  1.1326
 2265TIP3    H228287   2.117   4.842  16.869  2.7058  1.0893  2.1794
 2266TIP3   OH228288   4.807   0.518   3.433 -0.4086  0.3393  0.6641
 2266TIP3    H128289   4.895   0.501   3.400 -1.5120 -2.3504 -1.1962
 2266TIP3    H228290   4.784   0.604   3.397  0.1002 -0.5867 -2.0909
 2267TIP3   OH228291   2.640   3.238  11.159  0.3035 -0.3206  0.1691
 2267TIP3    H128292   2.731   3.251  11.130  0.1358  0.3630 -0.0728
 2267TIP3    H228293   2.643   3.255  11.254  0.8253 -2.4255  0.5820
 2268TIP3   OH228294   2.018   6.303   0.057  0.0514  0.4847 -0.1218
 2268TIP3    H128295   2.045   6.231  -0.000 -0.3957  0.8550 -0.8062
 2268TIP3    H228296   2.068   6.289   0.138  0.0658 -0.5190 -0.2917
 2269TIP3   OH228297   0.241   1.490   1.677  0.1253  0.6219  0.7603
 2269TIP3    H128298   0.189   1.571   1.681  0.7915  1.0391  1.0429
 2269TIP3    H228299   0.194   1.429   1.735  1.0457  1.6391  2.6632
 2270TIP3   OH228300   1.349   5.802  15.504 -0.4577 -0.5260  0.3903
 2270TIP3    H128301   1.361   5.770  15.414  0.7141 -2.2973  1.1353
 2270TIP3    H228302   1.421   5.865  15.516 -0.0636 -0.9686  0.3760
 2271TIP3   OH228303   1.024   1.638   2.464  0.3599  0.2477  0.3705
 2271TIP3    H128304   1.109   1.653   2.506  0.6491 -0.1584 -0.0482
 2271TIP3    H228305   1.024   1.697   2.389  0.6421 -0.3579 -0.1185
 2272TIP3   OH228306   5.267   2.698   6.111  0.6171 -0.5451  0.2790
 2272TIP3    H128307   5.266   2.615   6.158 -1.2802 -0.2638  0.8100
 2272TIP3    H228308   5.181   2.704   6.070  1.0556  0.7269 -0.5385
 2273TIP3   OH228309   6.081   4.838  15.522  0.2879  0.1809  0.1560
 2273TIP3    H128310   6.107   4.797  15.440  2.3516 -0.3471  1.0064
 2273TIP3    H228311   6.069   4.930  15.501  1.2554  0.1291 -0.6522
 2274TIP3   OH228312   0.065   4.816  11.304  0.1681 -0.2850 -0.1289
 2274TIP3    H128313   0.102   4.871  11.373  0.9975 -0.7302 -0.2161
 2274TIP3    H228314   0.032   4.739  11.350 -2.1164  0.7788  0.1616
 2275TIP3   OH228315   1.741   1.167  12.608 -0.3209 -0.0316 -0.5695
 2275TIP3    H128316   1.652   1.197  12.588 -0.8460 -0.9166  0.3201
 2275TIP3    H228317   1.728   1.087  12.658  0.9343  0.6793  1.0061
 2276TIP3   OH228318   5.472   4.773   5.643 -0.0542 -0.0724  0.0884
 2276TIP3    H128319   5.440   4.837   5.580 -2.2574  1.1658  2.2861
 2276TIP3    H228320   5.392   4.735   5.682  1.1688 -0.6679  2.1974
 2277TIP3   OH228321   3.879   6.232  16.293 -0.3458 -0.1335 -0.6868
 2277TIP3    H128322   3.804   6.287  16.271 -0.6924 -0.4242 -0.2466
 2277TIP3    H228323   3.882   6.232  16.389  1.6689  1.8468 -0.6481
 2278TIP3   OH228324   4.037   3.312  15.880  0.2391  0.9594 -0.2007
 2278TIP3    H128325   4.106   3.326  15.815  1.1571  0.2089  0.5792
 2278TIP3    H228326   4.043   3.387  15.939  2.0520 -0.2537  1.2730
 2279TIP3   OH228327   4.966   6.593  11.013 -0.5421 -0.4695 -0.1600
 2279TIP3    H128328   5.003   6.682  11.013 -0.3410 -0.5255 -1.8952
 2279TIP3    H228329   5.038   6.538  10.982 -1.3066 -0.9219 -1.1838
 2280TIP3   OH228330   6.241   0.772  16.342  0.0777 -0.7500  0.3551
 2280TIP3    H128331   6.294   0.773  16.422 -1.3252 -3.2148  1.4526
 2280TIP3    H228332   6.151   0.768  16.374 -0.5063 -1.8973 -1.3382
 2281TIP3   OH228333   2.134   6.034   4.579  0.2848  0.0803 -0.3403
 2281TIP3    H128334   2.087   6.055   4.660 -2.0960  0.2363 -1.6765
 2281TIP3    H228335   2.113   6.106   4.520  1.4522 -0.3538 -1.3219
 2282TIP3   OH228336   0.705   0.142  13.435 -0.1086 -0.6538 -0.3009
 2282TIP3    H128337   0.673   0.232  13.425  1.2419 -0.0910  0.2220
 2282TIP3    H228338   0.788   0.141  13.388  1.0600 -0.9381  1.6612
 2283TIP3   OH228339   5.553   0.891  14.122  0.6406  0.2281  0.5052
 2283TIP3    H128340   5.568   0.970  14.071  1.1746  0.1265  0.5009
 2283TIP3    H228341   5.636   0.873  14.164  0.6303 -0.5239  0.2319
 2284TIP3   OH228342   3.095   0.410  13.459 -0.0138  0.6406 -0.1509
 2284TIP3    H128343   3.163   0.370  13.513 -0.8037 -0.9303 -0.2678
 2284TIP3    H228344   3.017   0.410  13.515 -0.6619 -0.3618 -1.0041
 2285TIP3   OH228345   5.755   2.324  13.479  0.2333 -0.5652  0.1085
 2285TIP3    H128346   5.778   2.284  13.563  0.3676  1.0005  0.8471
 2285TIP3    H228347   5.837   2.324  13.429  1.1150  1.7684  1.3976
 2286TIP3   OH228348   1.773   0.440   1.209  0.2041  0.0930 -0.0133
 2286TIP3    H128349   1.826   0.510   1.247  0.0500 -0.0034  0.3803
 2286TIP3    H228350   1.748   0.385   1.283  0.2128 -0.3078 -0.3047
 2287TIP3   OH228351   5.724   2.278  17.018 -0.7024 -0.4162 -0.4234
 2287TIP3    H128352   5.683   2.207  17.066 -0.9582 -0.1406 -0.2267
 2287TIP3    H228353   5.693   2.358  17.062 -0.0378 -0.1981 -0.3244
 2288TIP3   OH228354   6.504   2.812  13.990  0.1027  0.7179  0.2393
 2288TIP3    H128355   6.574   2.819  14.055  0.2114  2.8549 -0.0361
 2288TIP3    H228356   6.545   2.768  13.916  0.3259 -0.6306  1.1403
 2289TIP3   OH228357   0.292   5.738   2.268  0.0854  0.6636  0.0332
 2289TIP3    H128358   0.270   5.769   2.355 -1.5288 -0.6518  0.1386
 2289TIP3    H228359   0.239   5.791   2.209  0.1038  0.5837 -0.0562
 2290TIP3   OH228360   0.570   6.806   4.377  0.7385  0.1058 -0.1142
 2290TIP3    H128361   0.647   6.757   4.348 -0.1899 -1.8906  0.6083
 2290TIP3    H228362   0.534   6.844   4.297  3.0103  2.0137 -0.3498
 2291TIP3   OH228363   3.069   6.276   4.830 -0.4526 -0.0128 -0.2388
 2291TIP3    H128364   2.992   6.221   4.814  0.4045 -1.8002  1.3486
 2291TIP3    H228365   3.039   6.339   4.896 -0.9932  0.3922 -0.8588
 2292TIP3   OH228366   3.309   5.424   3.737 -0.5537  0.5768  0.4157
 2292TIP3    H128367   3.380   5.487   3.746 -0.7846  1.0950 -1.0505
 2292TIP3    H228368   3.248   5.446   3.808  1.1834 -0.5408  2.3335
 2293TIP3   OH228369   5.611   0.540  13.296  0.3102  0.3842 -0.0144
 2293TIP3    H128370   5.650   0.585  13.371  0.7207 -3.4047  2.3203
 2293TIP3    H228371   5.685   0.512  13.243  0.4891 -1.6380  1.2087
 2294TIP3   OH228372   4.537   6.146  15.454 -0.6236  0.1284  0.3493
 2294TIP3    H128373   4.512   6.106  15.370  0.9335  2.4958 -1.3675
 2294TIP3    H228374   4.540   6.073  15.515  0.6091 -2.1534 -2.2296
 2295TIP3   OH228375   1.111   1.171   1.612 -0.2159 -0.5128  0.3397
 2295TIP3    H128376   1.137   1.244   1.555 -1.1652  0.1728  0.7654
 2295TIP3    H228377   1.135   1.093   1.562  1.7203  0.0540  0.2737
 2296TIP3   OH228378   0.817   0.738  16.472  0.4062  0.0162  0.0808
 2296TIP3    H128379   0.738   0.684  16.472 -0.1684  0.8381  0.5448
 2296TIP3    H228380   0.785   0.827  16.456  1.2873  0.2923 -0.1821
 2297TIP3   OH228381   6.589   2.913  12.886 -0.0510 -0.3903 -0.1594
 2297TIP3    H128382   6.559   2.922  12.977  1.1175 -0.6435  0.2689
 2297TIP3    H228383   6.681   2.940  12.889 -0.0594 -0.1951 -1.3189
 2298TIP3   OH228384   0.926   5.545  11.961 -0.6631 -0.2043  0.2296
 2298TIP3    H128385   0.846   5.508  11.923  0.2832 -0.1220 -2.0217
 2298TIP3    H228386   0.991   5.539  11.890  1.1741  0.2393  1.8036
 2299TIP3   OH228387   2.401   0.707  13.578  0.7066  0.5113 -0.0774
 2299TIP3    H128388   2.470   0.736  13.519  0.9056  1.0914  0.4360
 2299TIP3    H228389   2.390   0.779  13.640 -1.0301  0.8555 -0.7283
 2300TIP3   OH228390   4.058   6.546  16.311  0.1192  0.1072  0.1148
 2300TIP3    H128391   4.102   6.504  16.238 -0.9168  1.9039 -1.6231
 2300TIP3    H228392   4.076   6.489  16.386  2.2580 -1.1229 -1.2512
 2301TIP3   OH228393   4.757   3.343  17.063  0.3731 -0.2132  0.2370
 2301TIP3    H128394   4.820   3.275  17.041 -1.3424 -2.1204  0.8245
 2301TIP3    H228395   4.709   3.307  17.138 -0.4525  1.7831  0.7315
 2302TIP3   OH228396   0.846   5.686   1.163  0.9253  0.0535  0.0982
 2302TIP3    H128397   0.840   5.768   1.115  0.7411  0.0301  0.0802
 2302TIP3    H228398   0.939   5.666   1.165  0.9507  0.1528 -0.0842
 2303TIP3   OH228399   6.718   2.108  12.463  0.4137 -0.0776 -0.5077
 2303TIP3    H128400   6.727   2.074  12.374  0.2381 -3.6835  0.6840
 2303TIP3    H228401   6.624   2.109  12.480  0.4202  0.9858 -0.4387
 2304TIP3   OH228402   4.608   3.887   3.627  0.0844 -0.0866  0.1044
 2304TIP3    H128403   4.643   3.833   3.698  1.2826  0.6197  0.0588
 2304TIP3    H228404   4.556   3.826   3.575  1.7532 -1.3118 -0.1817
 2305TIP3   OH228405   5.790   3.136  16.314 -0.2190 -0.0292  0.3207
 2305TIP3    H128406   5.878   3.169  16.329 -0.4905  0.7297  0.3194
 2305TIP3    H228407   5.748   3.204  16.262  0.0101 -1.5903 -2.0361
 2306TIP3   OH228408   5.852   5.190  16.576  0.2721  0.2991 -0.2524
 2306TIP3    H128409   5.829   5.098  16.585  2.4083 -0.4452 -1.7026
 2306TIP3    H228410   5.906   5.209  16.652 -0.1210  0.3414  0.0177
 2307TIP3   OH228411   5.911   3.205   5.742 -0.4469 -0.1245  0.2164
 2307TIP3    H128412   5.878   3.153   5.815  0.5968 -0.8208  0.2078
 2307TIP3    H228413   6.006   3.204   5.752 -0.3401  0.6739 -0.5473
 2308TIP3   OH228414   2.552   4.622  16.879 -0.2960  0.5707  0.3266
 2308TIP3    H128415   2.548   4.660  16.791  3.3635 -1.7122 -1.0501
 2308TIP3    H228416   2.633   4.656  16.916 -0.0103 -1.1807  1.4102
 2309TIP3   OH228417   4.966   1.542  16.062 -1.2367 -0.1087 -0.6485
 2309TIP3    H128418   4.911   1.501  15.995 -0.6824  0.3532 -1.3906
 2309TIP3    H228419   4.905   1.564  16.132 -2.2000  1.3315 -1.8895
 2310TIP3   OH228420   0.348   0.838   5.897  0.0921 -0.0053  0.1172
 2310TIP3    H128421   0.269   0.833   5.951 -1.6257  1.8833 -1.9761
 2310TIP3    H228422   0.328   0.785   5.820  1.6005 -0.8980  0.3015
 2311TIP3   OH228423   4.962   6.123   4.039 -0.2580  0.8825  0.0254
 2311TIP3    H128424   4.988   6.176   4.114  1.6013  0.8982 -0.6000
 2311TIP3    H228425   4.964   6.033   4.071  0.6659  0.8783 -0.0338
 2312TIP3   OH228426   4.021   4.251  13.331 -0.3944 -0.0434 -0.1891
 2312TIP3    H128427   4.105   4.255  13.376 -0.6352  0.3491  0.2300
 2312TIP3    H228428   4.044   4.250  13.238  0.0109  2.2377 -0.1527
 2313TIP3   OH228429   0.984   3.521   1.234  0.0076  0.0122  0.2033
 2313TIP3    H128430   0.948   3.470   1.306 -1.5686  1.3355  0.4054
 2313TIP3    H228431   1.072   3.486   1.221 -0.3271 -1.4297  1.5839
 2314TIP3   OH228432   6.235   2.979  13.502 -0.2858 -0.1149  0.2160
 2314TIP3    H128433   6.309   2.921  13.481  0.7309  0.5095  1.8699
 2314TIP3    H228434   6.254   3.011  13.590 -1.9987  0.9403  0.2456
 2315TIP3   OH228435   6.584   5.588  16.370  0.1845 -0.3725  0.2378
 2315TIP3    H128436   6.507   5.584  16.313 -0.9969 -1.3870  1.8010
 2315TIP3    H228437   6.605   5.681  16.375 -0.3369 -0.1697 -0.9883
 2316TIP3   OH228438   1.911   0.814  15.420 -0.0342  0.5524 -0.2622
 2316TIP3    H128439   1.919   0.860  15.504  1.3189  0.6592 -0.4251
 2316TIP3    H228440   1.841   0.750  15.434  0.9846 -0.2933  1.3888
 2317TIP3   OH228441   4.719   0.792  17.017  0.0928 -0.8277 -0.2964
 2317TIP3    H128442   4.737   0.817  16.927 -0.1400 -2.1745 -0.7294
 2317TIP3    H228443   4.652   0.854  17.046 -2.1256 -2.2552 -2.0698
 2318TIP3   OH228444   4.862   4.351   0.570 -0.0535 -0.3733  0.2287
 2318TIP3    H128445   4.775   4.326   0.600 -0.2724 -0.1173 -0.1892
 2318TIP3    H228446   4.886   4.426   0.625  1.0598 -2.0931  2.2526
 2319TIP3   OH228447   5.498   0.438   4.597 -0.5139  0.0127 -0.2772
 2319TIP3    H128448   5.429   0.478   4.545  0.6872  1.2402 -1.0219
 2319TIP3    H228449   5.579   0.466   4.553  0.4823 -0.2556  1.3213
 2320TIP3   OH228450   6.421   2.445   3.438 -0.1439  0.6748  0.2553
 2320TIP3    H128451   6.410   2.395   3.519  0.7262  0.8520  0.5020
 2320TIP3    H228452   6.353   2.413   3.379  1.2241 -1.8414 -0.1026
 2321TIP3   OH228453   3.396   1.411  15.782 -0.2271 -0.1271  0.5221
 2321TIP3    H128454   3.389   1.425  15.877  0.3028  0.5171  0.4736
 2321TIP3    H228455   3.312   1.442  15.748 -0.1224  0.3660  0.7065
 2322TIP3   OH228456   5.762   2.729  12.266  0.2145 -0.3791  0.1374
 2322TIP3    H128457   5.827   2.677  12.313  0.3428  0.9857  1.5484
 2322TIP3    H228458   5.683   2.724  12.321 -0.5218 -1.0315 -0.9462
 2323TIP3   OH228459   0.000   6.236   1.915 -0.1299 -0.2898  0.3448
 2323TIP3    H128460  -0.053   6.179   1.972  0.1021 -0.4249  0.4300
 2323TIP3    H228461   0.019   6.312   1.969 -1.0056  0.1816  0.0030
 2324TIP3   OH228462   0.613   4.731  12.643  0.2779 -0.2961  0.0534
 2324TIP3    H128463   0.582   4.642  12.659  0.6342 -0.3769  0.3140
 2324TIP3    H228464   0.536   4.778  12.611  0.2354 -0.8661 -0.7370
 2325TIP3   OH228465   0.567   1.779   1.583  0.3164  0.0580 -0.2636
 2325TIP3    H128466   0.574   1.816   1.495 -0.5309  0.1305 -0.3086
 2325TIP3    H228467   0.527   1.693   1.570 -0.4039  0.3318  0.1016
 2326TIP3   OH228468   0.800   3.324  15.674 -0.2537  0.2428  0.5513
 2326TIP3    H128469   0.760   3.370  15.748  0.1666 -0.0474  0.9633
 2326TIP3    H228470   0.788   3.231  15.694 -2.1139  0.1138 -0.8122
 2327TIP3   OH228471   5.483   5.770  10.144 -0.8686  0.6085 -0.1299
 2327TIP3    H128472   5.501   5.707  10.074 -1.9373  0.2391 -0.0876
 2327TIP3    H228473   5.551   5.754  10.209  0.3887  1.2221 -1.2435
 2328TIP3   OH228474   4.758   1.468   0.249 -0.2535 -0.3538  0.8239
 2328TIP3    H128475   4.807   1.527   0.306 -0.5156  1.6256 -0.8628
 2328TIP3    H228476   4.807   1.386   0.251  2.3186  1.0712  0.3894
 2329TIP3   OH228477   3.001   1.602  13.472  0.1275 -0.4048 -0.7263
 2329TIP3    H128478   3.053   1.593  13.392  1.1740  0.9350 -0.2450
 2329TIP3    H228479   2.994   1.697  13.485  1.7965 -0.5430  1.8917
 2330TIP3   OH228480   4.951   5.786   3.880 -0.0027 -0.2911 -0.5430
 2330TIP3    H128481   4.893   5.858   3.856 -0.4535  0.9046  3.3750
 2330TIP3    H228482   4.892   5.716   3.908  0.4103 -0.3875  0.1122
 2331TIP3   OH228483   1.060   6.826   5.166  0.2314 -0.0840  0.5990
 2331TIP3    H128484   1.150   6.795   5.172 -0.1469 -1.3459  0.0202
 2331TIP3    H228485   1.040   6.827   5.072 -0.0054  1.2702  0.6451
 2332TIP3   OH228486   1.520   0.513  16.602  0.6138 -0.4352  0.5195
 2332TIP3    H128487   1.510   0.543  16.692  1.0613  0.2551  0.3481
 2332TIP3    H228488   1.430   0.510  16.568  0.6033  1.6478  0.2613
 2333TIP3   OH228489   2.020   2.478   0.483 -0.7244  0.3999  0.1201
 2333TIP3    H128490   1.965   2.406   0.452 -2.3812  1.2954  0.8812
 2333TIP3    H228491   2.019   2.471   0.578  0.8328  0.2094  0.1529
 2334TIP3   OH228492   0.267   0.695   3.100 -0.0293  0.7817  0.4061
 2334TIP3    H128493   0.331   0.703   3.171 -1.7919  0.9022  2.0793
 2334TIP3    H228494   0.235   0.605   3.106  1.3665  0.0638 -1.7485
 2335TIP3   OH228495   2.437   4.248  11.856  0.2305 -0.0668 -1.1022
 2335TIP3    H128496   2.408   4.340  11.856  0.7639  0.1412 -2.8336
 2335TIP3    H228497   2.526   4.252  11.822  1.6038 -0.9216  2.0350
 2336TIP3   OH228498   3.100   5.473  11.138 -0.1489  0.2550  0.5234
 2336TIP3    H128499   3.011   5.506  11.150 -0.4870 -0.4454  0.0340
 2336TIP3    H228500   3.119   5.487  11.045 -0.7644 -1.9529  0.0103
 2337TIP3   OH228501   6.333   5.614  13.703  0.0727  0.5185 -0.0942
 2337TIP3    H128502   6.392   5.568  13.763  1.3994  0.8929 -1.0534
 2337TIP3    H228503   6.354   5.706  13.716 -0.2149  0.6473 -0.5390
 2338TIP3   OH228504   5.347   6.701  14.491 -0.1695  0.4132  0.0388
 2338TIP3    H128505   5.268   6.754  14.484  0.4387  1.1593 -1.7339
 2338TIP3    H228506   5.408   6.755  14.542 -0.5314  0.1633  0.7428
 2339TIP3   OH228507   0.157   5.473  15.529  0.0581  0.4544 -0.8607
 2339TIP3    H128508   0.066   5.500  15.540  0.5076  1.2968  1.1044
 2339TIP3    H228509   0.188   5.451  15.617  2.3100  2.0250 -1.1703
 2340TIP3   OH228510   4.413   0.844   5.213  0.2591 -0.1764 -0.1296
 2340TIP3    H128511   4.318   0.853   5.221  0.3389  1.4586 -0.6104
 2340TIP3    H228512   4.440   0.797   5.291 -0.8124  0.4674  0.6446
 2341TIP3   OH228513   5.811   1.344   0.429 -0.2959  0.0223 -1.1043
 2341TIP3    H128514   5.838   1.299   0.510 -0.8537  0.8387 -0.4454
 2341TIP3    H228515   5.881   1.325   0.367 -0.1442 -1.1248 -0.6213
 2342TIP3   OH228516   1.802   1.695  13.214  0.0489  0.0916 -0.0002
 2342TIP3    H128517   1.841   1.756  13.276  0.0216  0.2746 -0.1592
 2342TIP3    H228518   1.824   1.732  13.128 -1.5974  0.9455 -0.1116
 2343TIP3   OH228519   3.801   6.293   1.105  0.8596  0.0112 -0.4930
 2343TIP3    H128520   3.787   6.210   1.149 -0.5697  0.2109 -0.4969
 2343TIP3    H228521   3.860   6.342   1.162  1.7933 -1.0258 -0.5446
 2344TIP3   OH228522   6.421   1.437   1.886 -0.0054 -0.8993 -0.7195
 2344TIP3    H128523   6.362   1.498   1.930 -0.9887 -3.2946  1.4920
 2344TIP3    H228524   6.509   1.462   1.916 -0.3706 -0.4938  0.0228
 2345TIP3   OH228525   3.762   6.592   1.819  0.2698 -0.3377 -0.4695
 2345TIP3    H128526   3.856   6.602   1.801  0.4484  0.0916  0.6322
 2345TIP3    H228527   3.756   6.511   1.870  0.1914  0.2437  0.4652
 2346TIP3   OH228528   4.372   3.999   1.533  0.1572 -0.1232 -0.4249
 2346TIP3    H128529   4.465   3.986   1.519  0.2176  1.5484 -1.9086
 2346TIP3    H228530   4.330   3.930   1.482  0.5603 -1.1216  0.5630
 2347TIP3   OH228531   2.891   2.217   4.746  0.6667 -0.4756  0.2467
 2347TIP3    H128532   2.857   2.258   4.826 -1.2292 -0.5604 -0.4833
 2347TIP3    H228533   2.959   2.157   4.778  0.4315 -0.0012  1.7300
 2348TIP3   OH228534   5.479   0.491   1.451 -0.1203  0.0598  0.4702
 2348TIP3    H128535   5.500   0.568   1.504  2.7834  0.1476 -0.5909
 2348TIP3    H228536   5.563   0.463   1.415 -1.1972 -3.0761  0.0283
 2349TIP3   OH228537   2.603   5.526  14.325 -0.2436 -0.1463  0.7161
 2349TIP3    H128538   2.528   5.547  14.380 -1.8136  1.4282 -1.8422
 2349TIP3    H228539   2.666   5.595  14.342  0.1471 -0.7659  1.9226
 2350TIP3   OH228540   3.433   3.443   1.166  0.1906 -0.0949 -0.5565
 2350TIP3    H128541   3.361   3.474   1.112 -0.1440  0.5860  0.2503
 2350TIP3    H228542   3.409   3.354   1.190 -0.3542  0.1006 -0.3589
 2351TIP3   OH228543   5.744   0.527  10.777  0.2842  0.5881  0.2866
 2351TIP3    H128544   5.752   0.451  10.720 -0.3184  1.3033 -0.7740
 2351TIP3    H228545   5.733   0.490  10.865 -0.5640 -0.5663 -0.2839
 2352TIP3   OH228546   1.824   5.200   2.672 -0.3161  0.2670  0.0228
 2352TIP3    H128547   1.844   5.178   2.764  0.9639 -1.2351 -0.5642
 2352TIP3    H228548   1.895   5.260   2.646  0.8744 -1.3681 -0.6961
 2353TIP3   OH228549   1.400   5.117  17.143 -0.2863 -0.2504  0.2601
 2353TIP3    H128550   1.346   5.194  17.127 -0.5213 -0.4914 -0.1165
 2353TIP3    H228551   1.438   5.096  17.058  0.8888  0.2685  0.6372
 2354TIP3   OH228552   0.069   0.165  12.805  0.3163 -0.0597 -0.3096
 2354TIP3    H128553   0.007   0.229  12.840  0.7085  0.0143  0.2620
 2354TIP3    H228554   0.069   0.181  12.710 -0.5066 -0.0438 -0.3067
 2355TIP3   OH228555   3.537   2.731  16.956  0.3599 -0.0588  0.3463
 2355TIP3    H128556   3.486   2.675  16.897  0.8635  0.0121 -0.1602
 2355TIP3    H228557   3.536   2.684  17.040 -0.7552  0.0668  0.4191
 2356TIP3   OH228558   1.720   2.434  12.303  0.3710 -0.0368  0.3992
 2356TIP3    H128559   1.782   2.495  12.343  0.8730  0.9991 -1.8424
 2356TIP3    H228560   1.670   2.488  12.242 -1.4183 -1.2586  0.7299
 2357TIP3   OH228561   4.573   3.097   1.239 -0.1617 -0.3179 -0.5055
 2357TIP3    H128562   4.646   3.092   1.301  0.7112 -1.5538 -1.5663
 2357TIP3    H228563   4.548   3.190   1.239 -0.2328 -0.2851  1.6878
 2358TIP3   OH228564   3.940   1.112  16.619 -0.0667 -0.2064  0.3776
 2358TIP3    H128565   3.902   1.033  16.582  1.4400 -0.5020 -0.6256
 2358TIP3    H228566   4.027   1.117  16.581  0.0571  1.6757  0.8085
 2359TIP3   OH228567   0.137   2.690  15.287 -0.0093  0.2455  0.4007
 2359TIP3    H128568   0.170   2.754  15.350  3.0389  2.3454 -2.8734
 2359TIP3    H228569   0.204   2.622  15.283 -0.8127 -0.5705  0.3458
 2360TIP3   OH228570   6.621   3.210  13.141  0.3940 -0.3800 -0.0986
 2360TIP3    H128571   6.556   3.175  13.201  2.4584 -0.6508  2.1427
 2360TIP3    H228572   6.599   3.303  13.133 -0.2877 -0.4759  0.5758
 2361TIP3   OH228573   0.832   2.541  12.138 -0.1202 -0.2986 -0.2207
 2361TIP3    H128574   0.926   2.546  12.158  0.1557 -1.1615 -1.1985
 2361TIP3    H228575   0.793   2.507  12.219  0.2129  1.2161  0.6159
 2362TIP3   OH228576   2.510   6.579  13.986  0.1851  0.1426  0.0111
 2362TIP3    H128577   2.569   6.609  13.917 -0.1348  0.1857 -0.2467
 2362TIP3    H228578   2.425   6.614  13.961  0.1922  0.7183  0.7882
 2363TIP3   OH228579   5.507   0.476   5.673  0.3055  0.0116 -0.0819
 2363TIP3    H128580   5.429   0.530   5.689 -0.7108 -1.2153 -0.7252
 2363TIP3    H228581   5.568   0.502   5.742 -0.6750  0.9860  0.4563
 2364TIP3   OH228582   0.094   6.826  11.266  0.3262 -0.3755  0.0118
 2364TIP3    H128583   0.101   6.921  11.265  0.3202 -0.3311 -2.8808
 2364TIP3    H228584   0.003   6.809  11.292  0.2928  0.4062  0.4185
 2365TIP3   OH228585   0.796   3.519   5.348  0.1387  0.1243 -0.1449
 2365TIP3    H128586   0.771   3.427   5.346 -0.5772  0.2845  0.8369
 2365TIP3    H228587   0.848   3.531   5.268 -1.3741 -0.6585 -1.3105
 2366TIP3   OH228588   1.481   5.268   2.195 -0.1679  0.5162  0.5708
 2366TIP3    H128589   1.426   5.318   2.134 -0.0298 -1.6337 -1.4339
 2366TIP3    H228590   1.419   5.214   2.244 -0.0961  0.5942  0.7496
 2367TIP3   OH228591   5.686   3.456   0.751 -0.4593  0.0320 -0.8127
 2367TIP3    H128592   5.605   3.507   0.756  1.2568  2.9502  0.1944
 2367TIP3    H228593   5.716   3.468   0.661 -1.2646 -1.3327 -1.2835
 2368TIP3   OH228594   3.279   0.493  16.311 -0.3737 -0.3214 -0.4447
 2368TIP3    H128595   3.366   0.511  16.275 -1.1222  0.1227 -2.1385
 2368TIP3    H228596   3.290   0.501  16.406  0.9468  2.0475 -0.7268
 2369TIP3   OH228597   0.428   5.278  15.962  0.1000 -0.3894 -0.2254
 2369TIP3    H128598   0.465   5.190  15.961  0.5451 -0.2168  0.3046
 2369TIP3    H228599   0.442   5.309  16.051 -2.0622 -0.6070  0.2452
 2370TIP3   OH228600   1.109   3.193  13.203 -0.1851  0.6755 -0.0488
 2370TIP3    H128601   1.141   3.104  13.212 -0.7902  0.4227 -0.3088
 2370TIP3    H228602   1.182   3.241  13.164 -0.0007  0.1937 -0.3080
 2371TIP3   OH228603   6.207   1.103  17.197 -0.1434  0.6749 -0.6173
 2371TIP3    H128604   6.172   1.191  17.202 -1.1460  0.4014 -2.1659
 2371TIP3    H228605   6.276   1.109  17.131  0.6306  0.5368  0.1560
 2372TIP3   OH228606   6.256   1.117  15.045  0.3769  0.2128 -0.8280
 2372TIP3    H128607   6.179   1.143  15.095  1.1295  1.3667 -0.2319
 2372TIP3    H228608   6.286   1.198  15.003  2.3142  0.1988  0.4284
 2373TIP3   OH228609   3.965   2.525  10.840  0.0096 -0.2308 -0.0321
 2373TIP3    H128610   4.036   2.586  10.821 -0.2785  0.0830 -0.1146
 2373TIP3    H228611   4.007   2.439  10.845  0.2834 -0.1460 -0.8129
 2374TIP3   OH228612   6.332   0.020  14.969 -0.2175 -0.0845 -0.1127
 2374TIP3    H128613   6.391  -0.054  14.957 -0.8433 -0.9534  1.8418
 2374TIP3    H228614   6.288   0.029  14.884  1.3614 -0.5708 -1.0366
 2375TIP3   OH228615   4.425   5.762  15.393  0.1475 -0.3057 -0.2563
 2375TIP3    H128616   4.458   5.850  15.380 -0.3740  0.1784  1.4638
 2375TIP3    H228617   4.384   5.739  15.310  1.9687  0.2914 -1.3728
 2376TIP3   OH228618   4.293   1.801   0.194 -0.0951  0.5087 -0.3910
 2376TIP3    H128619   4.334   1.873   0.147  0.1515  1.4235  1.1482
 2376TIP3    H228620   4.229   1.765   0.133  0.0270  1.7988 -1.3124
 2377TIP3   OH228621   5.514   5.823  13.753  0.1299 -0.2900  0.2263
 2377TIP3    H128622   5.442   5.761  13.767 -0.7443  1.0055  1.7422
 2377TIP3    H228623   5.575   5.806  13.824  0.2614  0.0808  0.2043
 2378TIP3   OH228624   3.172   4.980  14.253 -0.6347  0.4074 -0.4251
 2378TIP3    H128625   3.247   4.927  14.225 -0.1848  0.8606 -0.1102
 2378TIP3    H228626   3.145   5.027  14.174  0.2661  1.2478 -0.2536
 2379TIP3   OH228627   3.435   2.800   0.255 -0.1108 -0.1530  0.0691
 2379TIP3    H128628   3.407   2.863   0.322 -3.0995 -0.0254 -1.1367
 2379TIP3    H228629   3.362   2.738   0.249  1.1056 -1.5297 -1.4465
 2380TIP3   OH228630   0.582   5.617  16.513  0.5417 -0.8877  0.4546
 2380TIP3    H128631   0.653   5.552  16.516  0.8583 -0.8113 -2.4582
 2380TIP3    H228632   0.563   5.627  16.420 -1.9232  0.6377  1.0381
 2381TIP3   OH228633   2.962   3.294   2.802 -0.0169  0.1394 -0.0192
 2381TIP3    H128634   3.054   3.268   2.795 -0.2382 -1.2470  1.5062
 2381TIP3    H228635   2.915   3.212   2.814 -1.5374  0.7938 -1.1677
 2382TIP3   OH228636   5.015   0.678  15.659  0.5076  0.4135 -0.3177
 2382TIP3    H128637   4.970   0.607  15.615 -1.2443  0.9959  0.4302
 2382TIP3    H228638   4.960   0.698  15.735  0.9290  2.5378 -0.4985
 2383TIP3   OH228639   0.164   0.970  15.153 -0.4705  0.3805  0.1815
 2383TIP3    H128640   0.222   1.009  15.219 -1.6082 -1.7693  2.6515
 2383TIP3    H228641   0.080   1.013  15.167 -0.6134  0.2025 -0.1316
 2384TIP3   OH228642   5.680   5.278  14.705 -0.6424  0.5023  0.2654
 2384TIP3    H128643   5.629   5.292  14.625 -1.1288  0.8008  0.6202
 2384TIP3    H228644   5.766   5.317  14.686 -0.6352  0.2389 -0.2412
 2385TIP3   OH228645   2.421   4.519  13.371  1.0040 -0.0802 -0.0455
 2385TIP3    H128646   2.496   4.540  13.426  1.8265  1.8786 -1.7881
 2385TIP3    H228647   2.408   4.597  13.317 -0.7642 -1.3013 -1.5056
 2386TIP3   OH228648   6.588   4.692  12.313  0.1492 -0.0425  0.4542
 2386TIP3    H128649   6.525   4.621  12.322  0.7085 -0.3581  2.6489
 2386TIP3    H228650   6.634   4.675  12.231 -1.0087 -1.1173  0.0043
 2387TIP3   OH228651   5.739   0.173   3.521  0.5069  0.2997 -0.0904
 2387TIP3    H128652   5.698   0.249   3.562  0.3262 -0.2355  0.7378
 2387TIP3    H228653   5.787   0.209   3.447 -1.0260  1.0128 -0.7900
 2388TIP3   OH228654   2.080   2.816   4.526 -0.2564  0.0984  0.4879
 2388TIP3    H128655   2.033   2.832   4.444  0.0470  0.4317  0.3755
 2388TIP3    H228656   2.011   2.804   4.591 -0.5107  1.3535  0.4730
 2389TIP3   OH228657   2.599   5.890   1.617  0.1306  0.0910 -0.2855
 2389TIP3    H128658   2.666   5.850   1.561  0.6698  0.7834 -0.1471
 2389TIP3    H228659   2.635   5.886   1.705 -0.2411 -0.0069 -0.1347
 2390TIP3   OH228660   6.149   1.127  14.761  0.4706 -0.5903 -0.3298
 2390TIP3    H128661   6.174   1.071  14.688  1.2145 -1.7149  0.7516
 2390TIP3    H228662   6.193   1.089  14.837 -1.1470 -0.1010  0.9080
 2391TIP3   OH228663   6.238   1.231   3.386  0.2541 -0.0811 -0.1596
 2391TIP3    H128664   6.217   1.211   3.477 -0.3599  0.4461 -0.1762
 2391TIP3    H228665   6.211   1.322   3.375 -0.8038 -0.4958 -1.1939
 2392TIP3   OH228666   5.762   0.051  15.498  0.3645 -0.1565  0.2642
 2392TIP3    H128667   5.801   0.131  15.464  0.4202 -0.2675  0.0618
 2392TIP3    H228668   5.712   0.078  15.574 -0.8558  0.3150 -0.6720
 2393TIP3   OH228669   1.825   3.404  14.113 -0.5640 -0.2928  1.2421
 2393TIP3    H128670   1.866   3.418  14.199 -1.2299 -1.8998  1.8493
 2393TIP3    H228671   1.871   3.328  14.077 -0.4322  0.2480  0.2517
 2394TIP3   OH228672   6.613   0.300  15.811  0.4673 -0.3719  0.1764
 2394TIP3    H128673   6.518   0.300  15.794  0.5360 -1.6087 -0.3546
 2394TIP3    H228674   6.621   0.290  15.905  0.0554 -0.4449  0.2060
 2395TIP3   OH228675   3.631   3.101   5.914 -0.0571  0.0338  0.5262
 2395TIP3    H128676   3.672   3.081   5.998 -1.3596  1.9519  1.6788
 2395TIP3    H228677   3.685   3.170   5.876  0.4961 -0.7887 -0.2139
 2396TIP3   OH228678   1.048   0.364   1.510 -0.4663  0.3692 -0.4200
 2396TIP3    H128679   1.067   0.440   1.455 -1.7518  1.1772  0.2028
 2396TIP3    H228680   1.093   0.292   1.467 -0.8589  1.1023 -2.1538
 2397TIP3   OH228681   6.036   2.761   4.530 -0.4335 -0.5792 -0.2254
 2397TIP3    H128682   6.080   2.839   4.496  1.2046 -1.1801  0.3910
 2397TIP3    H228683   6.084   2.741   4.611  0.0100 -2.9125 -1.0014
 2398TIP3   OH228684   4.053   5.840   0.839 -0.1035 -0.2374 -0.2178
 2398TIP3    H128685   4.135   5.889   0.837 -0.6181  0.6360 -1.6198
 2398TIP3    H228686   4.004   5.877   0.912 -0.8329  2.0210 -1.7463
 2399TIP3   OH228687   0.350   1.755  13.098 -0.5328  0.2202  0.3352
 2399TIP3    H128688   0.401   1.824  13.139 -3.1042  2.3118  0.2622
 2399TIP3    H228689   0.294   1.800  13.035 -4.9974 -1.2610  2.8300
 2400TIP3   OH228690   2.354   6.298   4.133 -0.3220  0.1876  0.0084
 2400TIP3    H128691   2.301   6.343   4.067  0.5764  1.1554 -0.0849
 2400TIP3    H228692   2.379   6.215   4.092 -0.5884  0.3511 -0.4907
 2401TIP3   OH228693   1.571   6.427   3.758 -0.0174  0.5117  0.0164
 2401TIP3    H128694   1.516   6.445   3.834 -1.6271  0.0740 -0.9910
 2401TIP3    H228695   1.605   6.513   3.732  2.6360  0.4148  2.6332
 2402TIP3   OH228696   5.027   5.238   6.058 -0.3142 -0.0326 -0.4596
 2402TIP3    H128697   5.091   5.168   6.068  0.5707  0.7942 -0.1514
 2402TIP3    H228698   4.998   5.258   6.147 -1.7922 -1.0941 -0.6781
 2403TIP3   OH228699   0.292   0.231   3.752 -0.3521 -0.4710 -0.2576
 2403TIP3    H128700   0.356   0.300   3.772 -1.7160  0.5830  0.7067
 2403TIP3    H228701   0.232   0.272   3.690 -0.6293 -1.1438 -0.4400
 2404TIP3   OH228702   0.410   2.937   2.796 -0.1403 -0.4374  0.5320
 2404TIP3    H128703   0.339   2.992   2.761  0.5228 -0.7066 -1.3494
 2404TIP3    H228704   0.486   2.995   2.796  0.3185 -1.0239 -0.4307
 2405TIP3   OH228705   6.510   4.126   2.580 -0.1752 -0.5705 -0.2475
 2405TIP3    H128706   6.490   4.033   2.567 -1.1793 -0.3881 -0.0205
 2405TIP3    H228707   6.447   4.172   2.526 -0.1401  0.0033  0.1961
 2406TIP3   OH228708   5.787   0.400  16.873  0.1200  0.1228  0.1570
 2406TIP3    H128709   5.788   0.325  16.814  4.2736 -0.5256  0.6981
 2406TIP3    H228710   5.790   0.362  16.961  2.2703  0.7911  0.4419
 2407TIP3   OH228711   2.634   5.719   3.688 -0.0135 -0.1090  0.2452
 2407TIP3    H128712   2.606   5.630   3.666 -1.4433  0.4976 -0.5122
 2407TIP3    H228713   2.674   5.710   3.774  0.1439 -1.5367  0.0545
 2408TIP3   OH228714   5.450   6.336  13.572 -0.1038  0.0243  0.0173
 2408TIP3    H128715   5.428   6.249  13.605  1.1926 -0.5810 -0.6358
 2408TIP3    H228716   5.404   6.343  13.489  0.0060 -0.1466 -0.0586
 2409TIP3   OH228717   6.529   0.273  13.149 -0.4020  0.1875  0.2932
 2409TIP3    H128718   6.462   0.333  13.183 -1.0132  0.2896 -1.0230
 2409TIP3    H228719   6.606   0.289  13.204 -0.9776  1.1892  0.8381
 2410TIP3   OH228720   6.370   4.016  12.100  0.8101  0.6333  0.8228
 2410TIP3    H128721   6.452   3.968  12.094  0.6881  0.5379 -0.6562
 2410TIP3    H228722   6.385   4.096  12.050  0.3494  1.1448  1.4830
 2411TIP3   OH228723   4.592   4.139  12.534 -0.6615  0.1956 -0.5596
 2411TIP3    H128724   4.551   4.148  12.621  1.4639 -1.0923  0.6770
 2411TIP3    H228725   4.554   4.058  12.499 -1.0748  0.3874 -0.5615
 2412TIP3   OH228726   6.506   4.021  15.616 -0.7040  0.2181 -0.3693
 2412TIP3    H128727   6.468   4.096  15.570  2.8144  2.3975 -0.1934
 2412TIP3    H228728   6.590   4.055  15.650  0.7483 -3.6377  0.3925
 2413TIP3   OH228729   1.980   0.566   3.424 -0.3111 -0.3314  0.1731
 2413TIP3    H128730   1.979   0.594   3.332  1.4691 -2.0179 -0.4473
 2413TIP3    H228731   2.045   0.623   3.466  1.4313 -1.7257 -0.4904
 2414TIP3   OH228732   0.621   6.296   0.606  0.5187 -0.5029 -0.3059
 2414TIP3    H128733   0.552   6.311   0.671  0.1950 -0.4387 -0.6637
 2414TIP3    H228734   0.582   6.323   0.523  0.9449 -0.5534 -0.5226
 2415TIP3   OH228735   1.362   6.670   0.208 -0.3372  0.6703 -0.4577
 2415TIP3    H128736   1.357   6.702   0.118 -1.3675  0.6974 -0.4086
 2415TIP3    H228737   1.436   6.610   0.208  0.6038  1.7738 -0.9597
 2416TIP3   OH228738   6.356   4.772   2.967 -0.1041 -0.2532 -0.2007
 2416TIP3    H128739   6.281   4.715   2.949 -1.2717  0.9092  0.7025
 2416TIP3    H228740   6.414   4.720   3.021 -0.0044 -1.3494 -1.3295
 2417TIP3   OH228741   6.226   2.778  11.847 -0.0526 -0.1861 -0.0486
 2417TIP3    H128742   6.222   2.828  11.928 -1.0377 -1.3108  0.6423
 2417TIP3    H228743   6.176   2.830  11.784  0.4605  0.5457  0.1421
 2418TIP3   OH228744   4.305   6.622   5.111 -0.1728 -0.2900 -0.1892
 2418TIP3    H128745   4.302   6.534   5.148  1.8487 -0.8649 -1.2436
 2418TIP3    H228746   4.394   6.653   5.130 -0.1733  0.6803 -1.6304
 2419TIP3   OH228747   0.261   2.579  13.256  0.7041  0.2497 -0.2459
 2419TIP3    H128748   0.306   2.655  13.219  0.7950 -0.5336 -1.8143
 2419TIP3    H228749   0.223   2.535  13.181 -0.0686 -0.8064  0.7361
 2420TIP3   OH228750   3.916   6.573   1.472 -0.3560  0.0863  0.3524
 2420TIP3    H128751   3.870   6.643   1.425 -1.0499 -0.2838  0.4531
 2420TIP3    H228752   4.007   6.600   1.473 -0.6419  1.0722  0.5529
 2421TIP3   OH228753   0.048   1.445  17.077 -0.1839  0.3615 -0.1294
 2421TIP3    H128754  -0.027   1.500  17.055 -1.1907 -1.2885 -1.0228
 2421TIP3    H228755   0.020   1.394  17.153 -0.1478 -0.5554 -0.7114
 2422TIP3   OH228756   5.834   0.085  14.937 -0.3079  0.0847  0.5061
 2422TIP3    H128757   5.759   0.121  14.984 -0.3942 -1.1492  1.3670
 2422TIP3    H228758   5.893   0.054  15.005 -0.5284 -1.9492 -0.1584
 2423TIP3   OH228759   5.764   5.282  15.503  0.1971  0.1957 -0.2500
 2423TIP3    H128760   5.703   5.342  15.546 -0.6551 -0.7295 -0.1376
 2423TIP3    H228761   5.776   5.212  15.567  0.2742 -0.3297 -0.8434
 2424TIP3   OH228762   0.726   6.738   4.668  0.4605  0.0992 -0.0363
 2424TIP3    H128763   0.744   6.831   4.679  0.5886  0.3303 -1.8798
 2424TIP3    H228764   0.773   6.713   4.588 -1.3050 -1.0074 -0.8057
 2425TIP3   OH228765   5.334   2.427   5.223 -0.0008 -0.5098  0.1831
 2425TIP3    H128766   5.301   2.492   5.161 -0.3351 -0.1605  0.7214
 2425TIP3    H228767   5.306   2.343   5.186  0.2143 -0.3405 -0.3823
 2426TIP3   OH228768   6.423   6.499  15.299  0.8084 -0.4303  0.4486
 2426TIP3    H128769   6.336   6.463  15.280  1.0223 -0.4302 -0.5799
 2426TIP3    H228770   6.459   6.522  15.213  1.9643 -0.7319  0.8370
 2427TIP3   OH228771   2.532   3.340  13.951  0.4452 -0.2188  0.0007
 2427TIP3    H128772   2.562   3.363  13.863 -0.8084 -0.2790 -0.4640
 2427TIP3    H228773   2.465   3.405  13.971 -1.7202 -2.1680 -0.5149
 2428TIP3   OH228774   4.381   5.456   0.108 -0.1171 -0.0595 -0.8426
 2428TIP3    H128775   4.456   5.476   0.052  0.2761  3.1101  0.6144
 2428TIP3    H228776   4.305   5.481   0.055  0.1011  0.6271 -0.8334
 2429TIP3   OH228777   0.864   5.578  14.194  0.6042  0.6112 -0.3087
 2429TIP3    H128778   0.816   5.609  14.117 -0.0396 -2.2237 -1.1804
 2429TIP3    H228779   0.797   5.541  14.251  1.3481  0.2756  0.3714
 2430TIP3   OH228780   4.816   6.240  13.635  0.0183 -0.0583  0.1948
 2430TIP3    H128781   4.796   6.203  13.549 -0.9745  0.0194  0.3830
 2430TIP3    H228782   4.911   6.240  13.639  0.0641 -1.5184 -0.2789
 2431TIP3   OH228783   2.670   1.775  12.067  0.1944 -0.4148 -0.4263
 2431TIP3    H128784   2.673   1.679  12.067 -1.5293 -0.4955 -0.7153
 2431TIP3    H228785   2.740   1.801  12.127  2.0830 -1.7691 -1.9000
 2432TIP3   OH228786   1.857   6.638   1.614 -0.4480 -0.1549  0.8047
 2432TIP3    H128787   1.904   6.606   1.692 -1.3474  1.2315  1.9726
 2432TIP3    H228788   1.765   6.639   1.641 -1.1001 -1.9263 -1.1276
 2433TIP3   OH228789   6.806   3.653   0.672 -0.3303 -0.2193 -0.4386
 2433TIP3    H128790   6.896   3.669   0.701 -0.5337 -0.1780  0.1967
 2433TIP3    H228791   6.754   3.713   0.724 -1.2141 -3.2793  2.6028
 2434TIP3   OH228792   1.247   5.068   5.514  0.3074  0.0725  0.2755
 2434TIP3    H128793   1.333   5.109   5.519 -0.0399  0.7552  0.6914
 2434TIP3    H228794   1.201   5.115   5.444  0.4623 -0.6791 -0.3603
 2435TIP3   OH228795   3.425   4.330   4.084  0.6612  0.2208  0.5182
 2435TIP3    H128796   3.460   4.404   4.133  2.0691  0.3165 -0.5590
 2435TIP3    H228797   3.503   4.281   4.056 -0.1988 -1.0682  0.2952
 2436TIP3   OH228798   4.894   4.022   5.206 -0.0602  0.3243 -0.7854
 2436TIP3    H128799   4.872   3.939   5.163  0.9770 -0.3273 -0.0892
 2436TIP3    H228800   4.956   4.063   5.146 -1.1854  1.0060 -1.5292
 2437TIP3   OH228801   1.726   2.518   2.059  0.1157  0.8869 -0.6929
 2437TIP3    H128802   1.751   2.523   1.966  0.6202  0.3572 -0.5875
 2437TIP3    H228803   1.796   2.564   2.105 -0.3197  1.4703 -0.5960
 2438TIP3   OH228804   4.508   1.706  17.163  0.4298 -0.0142  0.1819
 2438TIP3    H128805   4.422   1.687  17.202  0.3124  0.9026  0.3979
 2438TIP3    H228806   4.525   1.797  17.188  1.8810 -0.4623  0.9209
 2439TIP3   OH228807   5.205   4.196   5.282 -0.2760 -0.1077  0.1674
 2439TIP3    H128808   5.150   4.274   5.290  1.7027  1.5403 -1.2655
 2439TIP3    H228809   5.182   4.159   5.197  0.0185 -0.0712  0.0712
 2440TIP3   OH228810   1.163   2.268   5.024 -0.0945 -0.1289  0.3933
 2440TIP3    H128811   1.215   2.192   5.050 -0.6534 -0.1785  1.4085
 2440TIP3    H228812   1.192   2.339   5.082 -1.6286 -0.3388  1.4665
 2441TIP3   OH228813   5.450   0.933   3.387  0.6773 -0.3891 -0.1133
 2441TIP3    H128814   5.359   0.948   3.413  1.6601  0.3512  3.3458
 2441TIP3    H228815   5.468   0.842   3.413  0.8521 -0.6704 -1.1657
 2442TIP3   OH228816   6.190   6.725   6.037  0.2397  0.1638 -0.3380
 2442TIP3    H128817   6.192   6.634   6.006  0.3391 -0.3214  1.0024
 2442TIP3    H228818   6.106   6.759   6.007 -0.7656 -1.0648  0.9484
 2443TIP3   OH228819   2.330   5.760   5.680  0.9275 -0.2338  0.1505
 2443TIP3    H128820   2.305   5.852   5.668  2.5100  0.2451  0.3376
 2443TIP3    H228821   2.402   5.746   5.618  0.2329 -1.5682 -0.3950
 2444TIP3   OH228822   6.286   0.155  12.385 -0.0883 -0.2879  0.0976
 2444TIP3    H128823   6.262   0.117  12.470 -1.4569 -1.4351 -0.7461
 2444TIP3    H228824   6.256   0.246  12.390  1.5610  0.2390  1.4881
 2445TIP3   OH228825   5.873   1.298   0.024 -0.8913  0.4243  0.3594
 2445TIP3    H128826   5.778   1.305   0.034 -0.8017  1.8632  0.4427
 2445TIP3    H228827   5.898   1.381  -0.015  0.0849 -0.8029 -1.7648
 2446TIP3   OH228828   6.093   0.292   0.273  0.0372  0.4247 -0.7032
 2446TIP3    H128829   6.029   0.288   0.343  1.5813 -0.1642  0.7338
 2446TIP3    H228830   6.118   0.385   0.268 -0.0363  0.4574 -0.4557
 2447TIP3   OH228831   4.468   2.820  16.191  0.3460  0.1884  0.1496
 2447TIP3    H128832   4.537   2.775  16.144  1.3022  1.8353 -0.0726
 2447TIP3    H228833   4.387   2.789  16.150  0.9381 -1.4002  0.1087
 2448TIP3   OH228834   5.284   6.823   2.015 -0.1387  0.4132 -0.1763
 2448TIP3    H128835   5.378   6.830   1.997 -0.6305  1.2211 -2.7689
 2448TIP3    H228836   5.244   6.804   1.931 -2.3038 -0.3158  0.9380
 2449TIP3   OH228837   5.761   3.314  12.926 -0.0488  0.2236 -1.0168
 2449TIP3    H128838   5.736   3.297  12.836 -0.6887 -0.7477 -0.6707
 2449TIP3    H228839   5.847   3.273  12.936 -0.1056  0.0843 -1.1067
 2450TIP3   OH228840   4.117   2.864   1.464 -0.4219  0.8904  0.2198
 2450TIP3    H128841   4.185   2.804   1.492 -1.3387 -0.2366  0.1165
 2450TIP3    H228842   4.113   2.853   1.369  0.1450  1.9461  0.0538
 2451TIP3   OH228843   6.797   0.338   0.497 -0.6100 -0.0441 -0.3247
 2451TIP3    H128844   6.804   0.326   0.402 -1.8320  2.3573 -0.7920
 2451TIP3    H228845   6.885   0.317   0.530  0.3424  0.7454 -2.2184
 2452TIP3   OH228846   5.512   3.533   2.115  0.7066 -0.1800  0.2981
 2452TIP3    H128847   5.440   3.575   2.066  0.3404 -1.5452 -0.3729
 2452TIP3    H228848   5.591   3.566   2.073  0.4313  0.1201  0.0042
 2453TIP3   OH228849   2.756   4.624   3.385  0.2992 -0.3248  0.5319
 2453TIP3    H128850   2.669   4.615   3.423  0.2516  0.6947  0.7033
 2453TIP3    H228851   2.815   4.624   3.460  0.5942 -2.2561  0.3562
 2454TIP3   OH228852   6.754   1.908  10.998 -0.4027  0.4486  0.5165
 2454TIP3    H128853   6.832   1.854  10.995  0.4638  1.5363  1.9526
 2454TIP3    H228854   6.685   1.850  11.031 -0.0219 -0.3110 -0.0044
 2455TIP3   OH228855   0.180   0.542   2.432 -0.2590 -0.2718 -0.3177
 2455TIP3    H128856   0.143   0.481   2.368 -0.0152  0.3078 -1.0266
 2455TIP3    H228857   0.272   0.515   2.440 -0.6281 -1.2480  0.8884
 2456TIP3   OH228858   5.102   4.649  14.151  0.3250  0.4361 -0.7001
 2456TIP3    H128859   5.070   4.595  14.223  1.0050  0.8529 -0.0565
 2456TIP3    H228860   5.198   4.643  14.158  0.4111  1.5247 -0.7501
 2457TIP3   OH228861   0.044   5.479   5.116 -0.2670 -0.5860 -0.6799
 2457TIP3    H128862   0.113   5.518   5.062  0.3601 -0.7356  0.0009
 2457TIP3    H228863  -0.021   5.448   5.053 -0.5572  1.0997 -1.2710
 2458TIP3   OH228864   2.764   2.700   6.204 -0.0425  0.8956 -0.1213
 2458TIP3    H128865   2.841   2.658   6.242 -0.7435  0.4915  0.9467
 2458TIP3    H228866   2.738   2.642   6.132  0.1338  0.5368  0.0982
 2459TIP3   OH228867   3.845   1.086   4.878  0.0280 -0.2143  0.1108
 2459TIP3    H128868   3.837   1.166   4.826  0.5681  0.7268  1.4138
 2459TIP3    H228869   3.874   1.020   4.816  0.8822  0.9211 -0.7423
 2460TIP3   OH228870   3.260   5.861   0.060 -0.4559 -0.0139 -0.3636
 2460TIP3    H128871   3.283   5.768   0.059  0.1420  0.1243  0.1210
 2460TIP3    H228872   3.333   5.903   0.104 -0.9389  0.6350 -0.1739
 2461TIP3   OH228873   3.765   5.891   3.624  0.2280 -0.0834  0.0150
 2461TIP3    H128874   3.809   5.806   3.619  0.0365 -0.1167 -3.3026
 2461TIP3    H228875   3.835   5.955   3.615  0.2812  0.1230  1.6859
 2462TIP3   OH228876   2.836   5.391  14.657 -0.1796 -0.1505 -0.6094
 2462TIP3    H128877   2.892   5.454  14.612  0.5773 -0.2081  0.2235
 2462TIP3    H228878   2.880   5.307  14.643 -0.4082 -0.2878 -0.5040
 2463TIP3   OH228879   2.436   5.789   2.115 -0.0990  0.3441  0.6698
 2463TIP3    H128880   2.512   5.759   2.164  0.7172  0.2525 -0.5968
 2463TIP3    H228881   2.363   5.737   2.148 -0.1728  2.1342  3.6731
 2464TIP3   OH228882   2.579   1.874   5.713  0.1879 -0.0662  0.6082
 2464TIP3    H128883   2.534   1.950   5.677 -0.3388 -0.0695  1.2204
 2464TIP3    H228884   2.533   1.799   5.674  1.5075 -0.0968 -0.9595
 2465TIP3   OH228885   2.136   0.421   1.286 -0.6055 -0.4679 -0.1592
 2465TIP3    H128886   2.140   0.512   1.256 -1.1427  0.0726  1.3331
 2465TIP3    H228887   2.121   0.371   1.206 -0.5822  0.7697 -0.9799
 2466TIP3   OH228888   3.576   4.230  16.957  0.1948  0.9991  0.1192
 2466TIP3    H128889   3.655   4.185  16.926 -0.7026 -0.7901  0.3402
 2466TIP3    H228890   3.504   4.174  16.929 -0.7797 -0.0637  4.2038
 2467TIP3   OH228891   2.367   4.094   3.480  0.1080  0.1226 -0.5511
 2467TIP3    H128892   2.378   4.092   3.385 -2.0829 -0.4728 -0.8611
 2467TIP3    H228893   2.455   4.086   3.515  0.7743 -3.2155 -2.5558
 2468TIP3   OH228894   5.715   4.720   4.372  0.2430  0.0034  0.6237
 2468TIP3    H128895   5.732   4.785   4.305  1.6491 -0.5584  0.3910
 2468TIP3    H228896   5.744   4.637   4.334 -0.0963 -0.5204  1.4580
 2469TIP3   OH228897   3.968   0.273   4.106  0.2832 -0.1182 -0.1633
 2469TIP3    H128898   3.968   0.360   4.067  0.7974 -1.1866 -2.7292
 2469TIP3    H228899   4.024   0.282   4.183 -1.1080  2.1986  0.6864
 2470TIP3   OH228900   5.311   6.667  16.918  0.3989 -0.3527 -0.2802
 2470TIP3    H128901   5.272   6.726  16.854  0.7983  0.0246 -0.1805
 2470TIP3    H228902   5.401   6.699  16.929 -0.1446  0.6384  1.7322
 2471TIP3   OH228903   1.251   6.539  15.847 -0.6426 -0.5395 -0.3513
 2471TIP3    H128904   1.247   6.624  15.890 -0.6651 -0.6056 -0.2191
 2471TIP3    H228905   1.275   6.558  15.757 -0.5364 -0.4009 -0.2940
 2472TIP3   OH228906   4.639   3.420   5.081  0.7737 -0.3466  0.3508
 2472TIP3    H128907   4.686   3.490   5.126 -0.4086  1.0479 -0.4825
 2472TIP3    H228908   4.662   3.431   4.989  0.9079 -1.3327  0.2605
 2473TIP3   OH228909   1.631   0.933   3.524  0.8144 -0.2774  0.6299
 2473TIP3    H128910   1.664   0.969   3.442 -0.6347 -0.2567  0.0450
 2473TIP3    H228911   1.660   0.842   3.523 -2.1572 -1.3332 -1.6333
 2474TIP3   OH228912   4.078   3.716   6.013  0.0439  0.0724  0.3304
 2474TIP3    H128913   4.069   3.702   6.108  0.8791 -1.1661  0.2540
 2474TIP3    H228914   4.119   3.802   6.005  0.9442 -0.2574  1.1534
 2475TIP3   OH228915   6.288   2.976   4.512  0.0739 -0.2601 -0.1612
 2475TIP3    H128916   6.205   2.982   4.466  0.0382 -0.8528 -0.1797
 2475TIP3    H228917   6.295   3.059   4.560 -0.4577 -0.1511 -0.2710
 2476TIP3   OH228918   4.860   4.953  10.375 -0.2541 -0.3298  0.5257
 2476TIP3    H128919   4.809   4.879  10.410 -2.0445 -0.1001 -1.3513
 2476TIP3    H228920   4.950   4.923  10.377 -0.6811 -1.6663  1.9164
 2477TIP3   OH228921   0.065   1.569   4.757 -0.3493 -0.2140 -0.0940
 2477TIP3    H128922   0.159   1.586   4.747  1.0625 -4.2485  3.3637
 2477TIP3    H228923   0.032   1.565   4.667  2.8888  0.7731 -1.4872
 2478TIP3   OH228924   2.927   1.160   4.971  0.0121  0.1646  0.1810
 2478TIP3    H128925   2.836   1.152   4.942 -0.1784  3.2757 -0.4045
 2478TIP3    H228926   2.969   1.216   4.905  2.0709 -0.2518  1.0431
 2479TIP3   OH228927   1.687   0.529  14.098  0.2167 -0.0017 -0.4694
 2479TIP3    H128928   1.624   0.513  14.028 -0.2774  1.0653 -0.2774
 2479TIP3    H228929   1.772   0.512  14.058 -0.1357 -0.5691 -0.9840
 2480TIP3   OH228930   4.137   0.941  16.851 -0.2294 -0.1016 -0.3163
 2480TIP3    H128931   4.177   1.012  16.800 -0.0148  0.1819  0.2457
 2480TIP3    H228932   4.096   0.985  16.925 -0.9305 -0.4736 -0.4782
 2481TIP3   OH228933   0.187   4.970  15.966 -0.1106  0.4511  0.0428
 2481TIP3    H128934   0.099   4.968  16.004 -1.6042  0.0264 -3.1273
 2481TIP3    H228935   0.187   5.049  15.911  1.2197  0.0399 -0.5701
 2482TIP3   OH228936   4.087   2.618  13.713 -0.3008 -0.4648 -0.7263
 2482TIP3    H128937   4.046   2.595  13.630 -0.1667  0.3213 -1.0181
 2482TIP3    H228938   4.029   2.683  13.751  0.1941 -0.0353 -0.7023
 2483TIP3   OH228939   6.443   6.707   2.945 -0.2475 -0.0045  0.1743
 2483TIP3    H128940   6.432   6.615   2.922  0.1705  0.6067 -2.8517
 2483TIP3    H228941   6.538   6.718   2.952 -0.2600  0.3443 -0.1992
 2484TIP3   OH228942   3.485   2.552   1.932 -0.9508  0.3833 -0.6681
 2484TIP3    H128943   3.569   2.592   1.908 -0.8119  0.1325 -0.6042
 2484TIP3    H228944   3.492   2.536   2.026 -1.7097  1.8789 -0.3289
 2485TIP3   OH228945   4.311   0.847   5.887 -0.5263 -0.5893  0.1771
 2485TIP3    H128946   4.220   0.819   5.892 -0.3008 -1.7764 -1.4212
 2485TIP3    H228947   4.331   0.882   5.974 -2.1361 -1.4581  0.9306
 2486TIP3   OH228948   2.465   5.314  13.217  0.2614  0.2638  0.3095
 2486TIP3    H128949   2.555   5.302  13.186  0.0136 -0.1613 -0.2572
 2486TIP3    H228950   2.475   5.352  13.304  0.9778  2.2417 -0.5621
 2487TIP3   OH228951   4.154   4.878  14.996  0.0729  0.2111 -0.2193
 2487TIP3    H128952   4.145   4.813  15.066 -1.5047  0.1202 -0.4751
 2487TIP3    H228953   4.160   4.826  14.916  1.2917  0.3365 -0.2359
 2488TIP3   OH228954   2.896   1.303  14.078  0.0056 -0.0374  0.0298
 2488TIP3    H128955   2.929   1.216  14.104  1.1111  0.1004 -0.7939
 2488TIP3    H228956   2.856   1.288  13.992 -0.7016  0.0841  0.3405
 2489TIP3   OH228957   4.975   3.090  15.054  0.4745 -0.1875 -0.3248
 2489TIP3    H128958   5.041   3.023  15.037  0.8704 -0.6684  2.4950
 2489TIP3    H228959   5.000   3.164  14.999  1.0885 -1.6899 -2.1466
 2490TIP3   OH228960   5.566   5.038   4.432  0.1501  0.0750  0.3639
 2490TIP3    H128961   5.648   5.013   4.474  0.8559 -1.0261 -1.5251
 2490TIP3    H228962   5.589   5.108   4.372  0.3240 -1.9038 -2.0466
 2491TIP3   OH228963   0.165   1.533  10.678  0.4340 -0.1144  0.7324
 2491TIP3    H128964   0.184   1.509  10.768  0.6194 -0.0083  0.7205
 2491TIP3    H228965   0.244   1.511  10.629 -0.2215 -1.6811  0.3059
 2492TIP3   OH228966   5.875   5.066   2.700 -0.7426  0.4651 -0.0244
 2492TIP3    H128967   5.904   4.988   2.748 -1.7077  0.1691  0.1131
 2492TIP3    H228968   5.864   5.133   2.768  0.8329  0.9817 -0.2354
 2493TIP3   OH228969   5.959   5.220  16.823 -0.0583  0.3186 -0.2514
 2493TIP3    H128970   6.050   5.250  16.825 -0.4323  1.5077 -0.3530
 2493TIP3    H228971   5.911   5.284  16.877 -0.9124 -0.0146 -0.5908
 2494TIP3   OH228972   1.171   1.929  15.752  0.1601  0.1658  0.2725
 2494TIP3    H128973   1.152   1.985  15.827 -0.0281 -1.3238  1.3919
 2494TIP3    H228974   1.099   1.945  15.691  0.1065  1.1087  0.5764
 2495TIP3   OH228975   4.365   6.700   5.508  0.6700 -0.2324  0.2908
 2495TIP3    H128976   4.288   6.731   5.460 -0.2065 -3.1024 -0.3596
 2495TIP3    H228977   4.340   6.707   5.600  0.5007  0.8548  0.1750
 2496TIP3   OH228978   0.186   5.760   1.088  0.3210 -0.0812  0.3767
 2496TIP3    H128979   0.193   5.845   1.045  0.6746 -0.5081 -0.4547
 2496TIP3    H228980   0.269   5.717   1.069 -0.4075 -1.1780 -0.5163
 2497TIP3   OH228981   4.779   1.448  15.870  0.1274  0.5863 -0.1275
 2497TIP3    H128982   4.707   1.416  15.815 -2.0557  1.4878  2.0295
 2497TIP3    H228983   4.736   1.504  15.935  2.6950  0.3976  1.8681
 2498TIP3   OH228984   6.581   5.525   4.611 -0.1405  0.2314  0.3585
 2498TIP3    H128985   6.588   5.459   4.542 -0.7348 -0.9066  1.3738
 2498TIP3    H228986   6.670   5.532   4.646  0.3639  1.4230 -1.0177
 2499TIP3   OH228987   3.538   2.857   4.791  0.3024 -0.2985  0.3186
 2499TIP3    H128988   3.538   2.945   4.827 -0.5317 -0.3546  0.4752
 2499TIP3    H228989   3.469   2.811   4.840 -0.3765 -0.5701 -0.8590
 2500TIP3   OH228990   4.696   2.902  12.562  0.1790  0.1040  0.8803
 2500TIP3    H128991   4.768   2.963  12.572  1.3356 -0.9900 -0.4538
 2500TIP3    H228992   4.738   2.817  12.551 -1.2984 -0.5052 -0.3778
 2501TIP3   OH228993   2.862   2.258  15.887  0.4309 -0.2976  0.0049
 2501TIP3    H128994   2.958   2.252  15.883  0.4423  0.3162 -0.8879
 2501TIP3    H228995   2.832   2.221  15.805 -0.1695 -1.4541  0.7235
 2502TIP3   OH228996   5.586   4.011   5.524 -0.0998  0.0250  0.8299
 2502TIP3    H128997   5.623   4.007   5.436  0.6377 -0.4872  1.1482
 2502TIP3    H228998   5.624   4.090   5.563 -0.6776  0.4265  0.5810
 2503TIP3   OH228999   3.323   2.509  15.488  0.2535 -0.1367 -0.3444
 2503TIP3    H129000   3.413   2.494  15.515 -0.4463 -1.3721  1.5158
 2503TIP3    H229001   3.330   2.545  15.400  2.6077  1.8479  0.5617
 2504TIP3   OH229002   6.501   1.431   5.179  0.4272  0.2681 -0.0720
 2504TIP3    H129003   6.558   1.508   5.183 -0.8160  1.1769  0.6138
 2504TIP3    H229004   6.531   1.375   5.250  1.1571  0.2280 -0.3992
 2505TIP3   OH229005   4.649   5.697  16.560  0.7027 -0.0004 -0.3272
 2505TIP3    H129006   4.575   5.747  16.528  0.8373  1.3477  1.3573
 2505TIP3    H229007   4.676   5.643  16.485 -1.3727  0.1532 -1.2353
 2506TIP3   OH229008   1.136   1.580   3.375 -0.5192 -0.6237 -0.1612
 2506TIP3    H129009   1.057   1.633   3.378 -1.7282 -2.3472 -0.3269
 2506TIP3    H229010   1.120   1.516   3.306  1.2025 -0.7715 -0.4854
 2507TIP3   OH229011   0.790   6.535  14.011  0.0213 -0.2688  0.0232
 2507TIP3    H129012   0.823   6.614  13.970  0.2787 -1.5429 -2.3754
 2507TIP3    H229013   0.737   6.493  13.944 -0.5832 -1.8717  1.4188
 2508TIP3   OH229014   3.114   6.351  12.824  0.5073 -0.1808 -0.1497
 2508TIP3    H129015   3.181   6.283  12.828  1.6137  0.9374  3.2581
 2508TIP3    H229016   3.151   6.425  12.872 -2.2667  1.3485 -0.1508
 2509TIP3   OH229017   2.245   1.726  13.093 -0.1093  0.4752 -0.0405
 2509TIP3    H129018   2.204   1.641  13.080  0.6927  0.0877 -0.1190
 2509TIP3    H229019   2.197   1.766  13.166 -1.9876  0.9431 -1.4804
 2510TIP3   OH229020   0.957   2.858   2.295  0.2885  0.2617  0.1156
 2510TIP3    H129021   0.964   2.953   2.297  1.8404  0.1623  0.5268
 2510TIP3    H229022   0.911   2.835   2.376  0.2913  0.6326  0.2205
 2511TIP3   OH229023   5.167   0.941   3.933 -0.7318 -0.4722 -0.6329
 2511TIP3    H129024   5.150   0.848   3.950  0.1041 -0.6649 -0.8072
 2511TIP3    H229025   5.248   0.960   3.979 -0.7648  0.1077 -0.8063
 2512TIP3   OH229026   3.305   5.359  11.710 -0.4056  0.5428 -0.5100
 2512TIP3    H129027   3.216   5.391  11.718  0.0634  1.3726  2.6051
 2512TIP3    H229028   3.305   5.274  11.755  0.3674  0.5237 -0.5298
 2513TIP3   OH229029   2.729   5.307   1.564  0.2321  0.2588 -0.2334
 2513TIP3    H129030   2.659   5.372   1.564 -0.9965 -1.0059  1.0777
 2513TIP3    H229031   2.806   5.355   1.535 -0.8924  1.9939 -0.4844
 2514TIP3   OH229032   0.136   3.169   1.402  0.5877 -0.5027 -0.4472
 2514TIP3    H129033   0.044   3.149   1.381  0.4252 -0.6215  0.3633
 2514TIP3    H229034   0.186   3.120   1.336  0.1194 -1.7254  0.0698
 2515TIP3   OH229035   3.083   3.855  16.585  0.0756  0.5395 -0.5454
 2515TIP3    H129036   3.145   3.905  16.532  0.9482  0.4023  0.3344
 2515TIP3    H229037   3.130   3.774  16.607 -0.1129  0.7711  0.7859
 2516TIP3   OH229038   4.785   2.376  11.318  0.3497 -0.0619 -0.2486
 2516TIP3    H129039   4.840   2.301  11.296  0.0143 -1.1101  2.1963
 2516TIP3    H229040   4.713   2.372  11.256  0.0592 -2.1282  0.1619
 2517TIP3   OH229041   2.951   2.868   3.933 -0.1200 -0.2602 -0.0733
 2517TIP3    H129042   2.926   2.781   3.963 -2.2621 -0.2887 -1.6471
 2517TIP3    H229043   3.046   2.865   3.925 -0.1950 -2.7012 -0.7579
 2518TIP3   OH229044   2.989   3.614   5.785  0.2375  0.0876 -0.8726
 2518TIP3    H129045   3.064   3.621   5.726 -0.4362  0.7406 -1.6778
 2518TIP3    H229046   2.960   3.523   5.775  0.3140  0.1093 -1.3320
 2519TIP3   OH229047   4.628   0.808   5.068 -0.2357 -0.3437 -0.1314
 2519TIP3    H129048   4.541   0.826   5.102  0.1128 -0.0430  0.6133
 2519TIP3    H229049   4.638   0.713   5.077 -0.6210 -0.4284 -0.5581
 2520TIP3   OH229050   4.493   1.374   1.731  0.1548  0.4020  0.1263
 2520TIP3    H129051   4.531   1.291   1.703 -2.9795 -1.8082  1.9239
 2520TIP3    H229052   4.467   1.417   1.649  1.2425 -0.6185 -0.7994
 2521TIP3   OH229053   1.903   2.870  14.753 -0.0542 -0.2417 -0.1224
 2521TIP3    H129054   1.882   2.777  14.762  0.5773 -0.3984 -0.1690
 2521TIP3    H229055   1.928   2.881  14.661 -3.5268  0.7231 -1.0762
 2522TIP3   OH229056   6.748   0.228   3.213  0.5195 -0.2332  0.0703
 2522TIP3    H129057   6.749   0.133   3.229  2.0529 -0.3337 -0.4687
 2522TIP3    H229058   6.721   0.236   3.121 -1.6009 -0.0040  0.6544
 2523TIP3   OH229059   2.795   0.553  16.289 -0.0608 -0.2491 -0.0425
 2523TIP3    H129060   2.778   0.481  16.228 -0.7893 -1.4026  1.4593
 2523TIP3    H229061   2.749   0.628  16.250 -1.0334 -1.1048 -0.6168
 2524TIP3   OH229062   1.200   1.834  16.295 -0.6677  0.5855 -0.3264
 2524TIP3    H129063   1.120   1.793  16.264 -0.1130 -0.7429 -0.0631
 2524TIP3    H229064   1.190   1.838  16.390  0.5994 -2.0094  0.0129
 2525TIP3   OH229065   6.551   4.138  12.503  0.1859 -0.5627  0.3655
 2525TIP3    H129066   6.587   4.186  12.578  1.0071  0.2299 -0.4991
 2525TIP3    H229067   6.605   4.060  12.496  2.4803  1.0145 -1.4305
 2526TIP3   OH229068   2.977   3.601   1.331  0.9025 -0.3819 -0.0710
 2526TIP3    H129069   2.955   3.508   1.322  1.7129 -0.3989 -2.5404
 2526TIP3    H229070   2.895   3.646   1.312  0.3745 -0.5242  1.6258
 2527TIP3   OH229071   4.776   1.974   2.895 -0.5673 -0.1602 -0.7049
 2527TIP3    H129072   4.853   1.945   2.847  0.5807  0.2663  0.8070
 2527TIP3    H229073   4.781   1.930   2.980 -0.0476  2.4534  0.7569
 2528TIP3   OH229074   4.550   0.558  15.806 -0.4436 -0.3770  0.0042
 2528TIP3    H129075   4.621   0.526  15.751 -1.3518 -1.1947 -0.7274
 2528TIP3    H229076   4.506   0.624  15.752  0.4222  0.9781  0.8862
 2529TIP3   OH229077   2.069   1.091   1.890 -0.5904 -0.8786  0.1789
 2529TIP3    H129078   2.110   1.155   1.948 -0.5358  0.9276 -1.7022
 2529TIP3    H229079   2.124   1.013   1.897  0.9971  0.2107  0.5113
 2530TIP3   OH229080   4.063   1.929   1.720 -0.5879  0.8338  0.6187
 2530TIP3    H129081   4.070   1.951   1.813 -1.7465  1.4151  0.5926
 2530TIP3    H229082   4.011   1.848   1.718  1.2135 -0.3681  0.5611
 2531TIP3   OH229083   3.953   3.923   2.584  0.4574 -0.0102  0.1069
 2531TIP3    H129084   3.972   3.986   2.514  1.6792  2.1248  2.2174
 2531TIP3    H229085   3.857   3.922   2.590  0.3841  1.0167 -0.5398
 2532TIP3   OH229086   1.197   2.288  14.154 -0.1928  0.3834 -0.7226
 2532TIP3    H129087   1.128   2.343  14.192  0.1073 -0.3846  1.0416
 2532TIP3    H229088   1.262   2.350  14.123 -1.9066  1.1691 -3.0529
 2533TIP3   OH229089   5.696   4.302  11.184 -0.4059  0.6506 -0.0570
 2533TIP3    H129090   5.767   4.365  11.180 -0.0094  0.1455 -1.6264
 2533TIP3    H229091   5.702   4.253  11.101 -1.6533 -0.3941  0.4323
 2534TIP3   OH229092   2.915   2.222   0.439  0.2154  0.1588 -0.7350
 2534TIP3    H129093   2.929   2.316   0.449 -0.0924  0.0951  0.4259
 2534TIP3    H229094   2.872   2.213   0.354  2.2351  0.8474 -1.9075
 2535TIP3   OH229095   0.721   2.416  12.376 -0.0666 -0.6719 -0.4940
 2535TIP3    H129096   0.751   2.370  12.455  0.7992  1.3216  0.4085
 2535TIP3    H229097   0.669   2.489  12.410  0.5639  0.3962 -1.7438
 2536TIP3   OH229098   4.911   0.954   0.167 -0.2745 -0.2810 -0.0395
 2536TIP3    H129099   4.927   1.048   0.161 -0.5963 -0.0985  1.4965
 2536TIP3    H229100   4.940   0.930   0.255 -1.2741 -1.3885  0.0194
 2537TIP3   OH229101   3.460   3.761  12.388  0.2734 -0.5828 -0.3351
 2537TIP3    H129102   3.408   3.716  12.455  0.4324  1.2082  1.0602
 2537TIP3    H229103   3.535   3.795  12.436  0.4592  0.6383 -1.4613
 2538TIP3   OH229104   0.686   0.465  10.415  0.0819  0.6856 -0.3389
 2538TIP3    H129105   0.759   0.527  10.417 -0.3038  1.1319  0.1741
 2538TIP3    H229106   0.717   0.390  10.466 -0.7518  1.9634  2.2031
 2539TIP3   OH229107   6.435   0.136   4.158  0.0514 -0.1254 -0.0063
 2539TIP3    H129108   6.490   0.109   4.084 -1.6513 -0.6166 -1.1455
 2539TIP3    H229109   6.430   0.231   4.151  3.1674  0.3463  1.9359
 2540TIP3   OH229110   0.352   4.266   1.175 -0.1479  0.0636  0.0041
 2540TIP3    H129111   0.438   4.285   1.135 -0.1170 -1.0292 -0.4899
 2540TIP3    H229112   0.327   4.348   1.217  2.0503 -0.1047  1.8875
 2541TIP3   OH229113   4.946   6.732   6.002  0.4504  0.3484  0.0112
 2541TIP3    H129114   5.009   6.803   6.014  2.1775 -0.8511 -1.3449
 2541TIP3    H229115   4.947   6.684   6.085 -1.0018  2.0265  1.0700
 2542TIP3   OH229116   0.979   4.661  15.325 -0.4010  0.0986  0.2228
 2542TIP3    H129117   1.032   4.691  15.399 -0.0060 -1.6717  0.7013
 2542TIP3    H229118   0.930   4.586  15.359  0.1352 -1.0594 -1.3953
 2543TIP3   OH229119   2.625   3.673  12.495 -0.5792  0.4584  1.0874
 2543TIP3    H129120   2.581   3.754  12.518  3.0910  2.7596  0.7199
 2543TIP3    H229121   2.615   3.666  12.400  1.3615  2.0256  0.7300
 2544TIP3   OH229122   5.546   3.707  13.338  0.1205 -0.5088  0.2832
 2544TIP3    H129123   5.556   3.747  13.425 -1.9068  0.1542  0.2794
 2544TIP3    H229124   5.522   3.617  13.356 -1.1078 -0.1638  0.4683
 2545TIP3   OH229125   0.031   5.152   3.066 -0.2618  0.6152  0.1290
 2545TIP3    H129126   0.122   5.131   3.083 -0.6020 -0.3917  0.7779
 2545TIP3    H229127  -0.014   5.067   3.065 -1.0968  1.0424 -0.7884
 2546TIP3   OH229128   4.668   1.549  14.222  0.1325 -0.5984 -0.7596
 2546TIP3    H129129   4.602   1.578  14.159 -0.4269 -1.5624 -0.6416
 2546TIP3    H229130   4.752   1.560  14.177 -0.1601 -0.1183 -1.2039
 2547TIP3   OH229131   6.393   0.881  14.593 -0.1144 -0.0954 -0.2169
 2547TIP3    H129132   6.457   0.816  14.621 -0.9776  0.5676  3.9176
 2547TIP3    H229133   6.444   0.961  14.580  0.5168 -0.7751 -2.3136
 2548TIP3   OH229134   0.267   1.364  15.525 -0.7714  0.0849  0.3627
 2548TIP3    H129135   0.183   1.330  15.494 -0.1020 -1.5812  0.2868
 2548TIP3    H229136   0.249   1.455  15.547 -2.3326  0.0642 -0.6793
 2549TIP3   OH229137   3.415   1.866   2.890  0.0107  0.4769 -0.2081
 2549TIP3    H129138   3.437   1.837   2.801  0.5322  1.0710 -0.2800
 2549TIP3    H229139   3.482   1.932   2.911 -0.8990  1.3278  0.1013
 2550TIP3   OH229140   6.251   1.574   1.663 -0.6991 -0.1889 -0.2487
 2550TIP3    H129141   6.282   1.483   1.658  1.8169  0.6630 -2.3956
 2550TIP3    H229142   6.202   1.588   1.582  0.7748  0.9090 -0.9982
 2551TIP3   OH229143   6.372   5.117  16.861  0.4326 -0.1114  0.1112
 2551TIP3    H129144   6.463   5.108  16.830 -0.0265  1.9877 -2.1920
 2551TIP3    H229145   6.349   5.207  16.841 -2.8657 -1.1374 -1.4582
 2552TIP3   OH229146   4.491   3.364   3.168 -0.3643  0.1802 -0.4460
 2552TIP3    H129147   4.505   3.458   3.180 -0.0376  0.1277 -0.4022
 2552TIP3    H229148   4.400   3.357   3.138 -0.2946  0.5327 -0.7469
 2553TIP3   OH229149   2.662   2.963  16.085 -0.2560  0.1756  0.5597
 2553TIP3    H129150   2.723   2.901  16.126 -2.6084 -1.8828  1.1874
 2553TIP3    H229151   2.590   2.971  16.147 -2.4644 -0.5725 -1.7267
 2554TIP3   OH229152   0.827   3.283  15.180  0.1002 -0.1269 -0.5604
 2554TIP3    H129153   0.895   3.281  15.113 -0.5665 -0.4296 -1.2490
 2554TIP3    H229154   0.757   3.336  15.142  0.6311  1.6680  0.8420
 2555TIP3   OH229155   5.752   6.762   2.971 -0.0042  0.3410 -0.2547
 2555TIP3    H129156   5.682   6.710   3.009 -2.5288  3.3066 -0.4462
 2555TIP3    H229157   5.727   6.774   2.880  1.3409  0.5599 -0.6198
 2556TIP3   OH229158   2.570   1.747  14.076  0.3751 -0.1951 -0.6068
 2556TIP3    H129159   2.665   1.755  14.079  0.4354 -1.0143 -0.1194
 2556TIP3    H229160   2.542   1.750  14.167 -0.1247  0.5755 -0.7718
 2557TIP3   OH229161   2.798   0.716  15.882 -1.0551  0.7357  0.0501
 2557TIP3    H129162   2.882   0.728  15.925 -0.3567  0.0796 -1.0928
 2557TIP3    H229163   2.733   0.743  15.948  0.0496  1.7986  0.7451
 2558TIP3   OH229164   4.922   3.049   4.673 -0.1994 -0.2359  0.5834
 2558TIP3    H129165   4.950   2.971   4.721  0.4662 -0.9454 -0.8816
 2558TIP3    H229166   4.994   3.067   4.613 -1.2780  0.1905 -0.6300
 2559TIP3   OH229167   2.639   1.502   1.478 -0.0941  0.2294 -0.1738
 2559TIP3    H129168   2.606   1.573   1.533 -2.9428 -0.5242 -0.7479
 2559TIP3    H229169   2.601   1.422   1.516  0.6682 -0.6836 -1.2419
 2560TIP3   OH229170   3.102   0.992   4.749  0.0224  0.1175 -0.0727
 2560TIP3    H129171   3.098   0.973   4.655 -0.7004 -1.8551  0.3123
 2560TIP3    H229172   3.152   1.073   4.755  1.0142 -0.2904 -2.0935
 2561TIP3   OH229173   3.984   1.527   1.362  0.5068 -0.1458  0.2235
 2561TIP3    H129174   4.029   1.519   1.446  2.2423 -1.6066 -0.7657
 2561TIP3    H229175   3.947   1.440   1.347 -0.0997  0.2094 -0.3621
 2562TIP3   OH229176   4.307   5.812   1.602 -0.1785  0.2687  0.0576
 2562TIP3    H129177   4.382   5.793   1.658 -0.9042 -1.3838  0.5375
 2562TIP3    H229178   4.345   5.831   1.516  0.8576  1.2787  0.7185
 2563TIP3   OH229179   5.705   6.706  12.110 -0.2619 -0.2230 -0.1793
 2563TIP3    H129180   5.624   6.673  12.148 -0.6502 -0.5233 -1.2278
 2563TIP3    H229181   5.676   6.763  12.039  0.4522 -0.9151 -1.0433
 2564TIP3   OH229182   0.256   5.297   5.714 -0.3908  0.1133 -0.3951
 2564TIP3    H129183   0.212   5.215   5.734  1.1960 -0.5940  0.4150
 2564TIP3    H229184   0.258   5.302   5.619  2.0728 -2.3096 -0.5660
 2565TIP3   OH229185   0.564   4.212   2.331  0.3878 -0.1554  0.0226
 2565TIP3    H129186   0.478   4.221   2.290  1.0051 -0.7887 -1.4376
 2565TIP3    H229187   0.546   4.169   2.415 -0.7454  0.0120 -0.1178
 2566TIP3   OH229188   1.475   1.084   0.255 -0.0345  0.1356 -0.3737
 2566TIP3    H129189   1.526   1.160   0.229  0.2935  0.2638  0.6150
 2566TIP3    H229190   1.458   1.097   0.348  0.4392 -1.2320 -0.0726
 2567TIP3   OH229191   6.712   4.807   1.932 -0.8782  0.0194 -0.2549
 2567TIP3    H129192   6.708   4.888   1.981  0.0199  0.8439 -1.4723
 2567TIP3    H229193   6.649   4.818   1.861 -3.7649 -2.0017  1.7583
 2568TIP3   OH229194   1.428   0.150  13.539  0.3288 -0.0764 -0.0906
 2568TIP3    H129195   1.470   0.216  13.484  1.3889 -1.3191 -0.8163
 2568TIP3    H229196   1.381   0.093  13.478  0.2155 -0.5551  0.4301
 2569TIP3   OH229197   5.234   0.870   0.745  0.8921  0.4498 -0.2669
 2569TIP3    H129198   5.171   0.816   0.697  0.1511  0.8402  0.2397
 2569TIP3    H229199   5.205   0.960   0.728 -0.0409  0.5897  1.7110
 2570TIP3   OH229200   5.332   1.790  15.393  0.1254  0.0931  0.0375
 2570TIP3    H129201   5.397   1.781  15.323 -0.4153  1.0671 -0.6179
 2570TIP3    H229202   5.272   1.716  15.379 -0.2891  0.5862 -0.8926
 2571TIP3   OH229203   2.117   0.756   5.656  0.0705 -0.8524 -0.2250
 2571TIP3    H129204   2.206   0.724   5.676 -0.0830 -1.6876 -0.7902
 2571TIP3    H229205   2.105   0.832   5.712  2.0111  0.6837 -1.7423
 2572TIP3   OH229206   6.747   3.474   1.736  0.0425  0.0656  0.6962
 2572TIP3    H129207   6.719   3.442   1.651  0.9265  0.3529  0.2865
 2572TIP3    H229208   6.799   3.401   1.773  1.9443  0.9069 -0.1801
 2573TIP3   OH229209   0.146   2.539  15.926 -0.1973  0.4546  0.7461
 2573TIP3    H129210   0.239   2.540  15.902 -0.4977 -1.4892 -0.8434
 2573TIP3    H229211   0.135   2.611  15.988  2.0464  1.6822 -0.2007
 2574TIP3   OH229212   1.763   4.572   5.257  0.2301 -0.3496 -0.3936
 2574TIP3    H129213   1.844   4.613   5.226  0.8142 -1.4080 -0.3623
 2574TIP3    H229214   1.778   4.478   5.242 -0.8111 -0.5937  0.0442
 2575TIP3   OH229215   5.136   5.056   0.016  0.7666  0.0253 -0.3152
 2575TIP3    H129216   5.085   5.114  -0.042  0.6040 -0.1868 -0.3854
 2575TIP3    H229217   5.204   5.112   0.052  2.0224 -0.2624 -2.1421
 2576TIP3   OH229218   2.554   3.477  12.868  0.3895 -0.2271  0.2981
 2576TIP3    H129219   2.581   3.445  12.782 -1.2703  1.7336 -1.0315
 2576TIP3    H229220   2.596   3.563  12.876 -0.3621  0.0925  0.9612
 2577TIP3   OH229221   3.219   4.718   4.660 -0.1652 -0.0016 -0.2132
 2577TIP3    H129222   3.172   4.762   4.589 -0.6441 -2.0853 -1.2413
 2577TIP3    H229223   3.246   4.634   4.623  0.5155 -0.7060  1.7526
 2578TIP3   OH229224   0.970   5.653   0.424 -0.0485  0.5000 -0.0303
 2578TIP3    H129225   0.888   5.610   0.401 -0.8272  3.3021 -3.4792
 2578TIP3    H229226   0.944   5.742   0.450  1.7943  0.7804  1.0171
 2579TIP3   OH229227   1.833   1.945  12.775 -0.3370  0.0204  0.0305
 2579TIP3    H129228   1.793   1.964  12.690 -0.2517 -0.1562 -0.0485
 2579TIP3    H229229   1.922   1.919  12.754  0.5919  2.6353  0.3387
 2580TIP3   OH229230   5.337   3.442   3.536  0.2381  0.1271  0.0562
 2580TIP3    H129231   5.387   3.437   3.454 -0.6869  1.8872 -0.6721
 2580TIP3    H229232   5.338   3.352   3.570  0.2576 -0.7703 -2.1204
 2581TIP3   OH229233   0.700   6.314   3.259  0.1376 -0.1128  0.6579
 2581TIP3    H129234   0.693   6.218   3.252 -0.6565  0.0136 -0.8405
 2581TIP3    H229235   0.690   6.332   3.352  3.1297 -1.6684  1.4198
 2582TIP3   OH229236   3.184   2.471   2.191  0.3468 -0.2179 -0.3682
 2582TIP3    H129237   3.132   2.449   2.268  1.5830 -0.1515  0.5064
 2582TIP3    H229238   3.217   2.559   2.209 -1.2307  0.7937 -2.0288
 2583TIP3   OH229239   6.078   1.372  13.310  0.0153  0.2998  0.3283
 2583TIP3    H129240   6.147   1.334  13.255  0.6507 -0.7491  1.7494
 2583TIP3    H229241   5.997   1.335  13.276  0.4046 -0.4134  0.1390
 2584TIP3   OH229242   3.436   5.605   0.330  0.0979 -0.5385 -0.3676
 2584TIP3    H129243   3.501   5.604   0.260 -0.1228 -0.5206 -0.5729
 2584TIP3    H229244   3.483   5.572   0.407  1.1607  2.0094  0.2016
 2585TIP3   OH229245   0.200   4.506   4.040 -0.2806  0.9211  0.9563
 2585TIP3    H129246   0.159   4.489   4.125 -1.1908 -1.4406  0.1045
 2585TIP3    H229247   0.127   4.522   3.980  0.2144  0.3194  0.1707
 2586TIP3   OH229248   6.501   1.288   4.751 -0.4202 -0.3589  0.0030
 2586TIP3    H129249   6.517   1.383   4.747 -0.3311 -0.4046 -0.9854
 2586TIP3    H229250   6.415   1.280   4.791 -0.7847  0.1827 -0.6485
 2587TIP3   OH229251   4.915   4.676   6.308  0.6031  0.0495  0.3127
 2587TIP3    H129252   4.852   4.661   6.237  0.0184 -1.0861  1.0379
 2587TIP3    H229253   4.943   4.767   6.297 -0.9296  0.4860 -0.2106
 2588TIP3   OH229254   2.928   2.700  11.950 -0.7373  0.3587 -0.0958
 2588TIP3    H129255   2.855   2.736  11.901 -0.9691  0.9615  0.6684
 2588TIP3    H229256   2.995   2.681  11.884 -0.9034  1.4771 -0.6097
 2589TIP3   OH229257   3.061   4.888  14.475 -0.7680 -0.0144  0.6136
 2589TIP3    H129258   2.977   4.916  14.440 -0.7888  0.5746  1.1139
 2589TIP3    H229259   3.116   4.876  14.398 -1.3143 -0.4403  0.2832
 2590TIP3   OH229260   1.094   4.051  16.802  0.0852  0.1349 -0.0701
 2590TIP3    H129261   1.150   4.064  16.879 -0.4610 -0.1046  0.3724
 2590TIP3    H229262   1.152   4.013  16.736  0.4061 -0.2793  0.4440
 2591TIP3   OH229263   4.067   1.900  13.419 -0.0748  0.0789 -0.1253
 2591TIP3    H129264   4.022   1.816  13.426 -1.5192  0.9372  1.7827
 2591TIP3    H229265   4.127   1.902  13.493 -0.9103  1.1605  0.5625
 2592TIP3   OH229266   4.077   5.206   5.444 -0.0807 -0.9248  0.4320
 2592TIP3    H129267   4.083   5.178   5.353  0.8372  0.0033  0.1751
 2592TIP3    H229268   3.994   5.171   5.476 -1.2885  0.2217 -1.2939
 2593TIP3   OH229269   1.662   2.653   4.437  0.3668  0.3090 -0.2138
 2593TIP3    H129270   1.633   2.739   4.408  1.3925  0.7081 -0.1089
 2593TIP3    H229271   1.592   2.593   4.410  0.1582  1.0157 -1.2947
 2594TIP3   OH229272   0.106   4.384  14.587  0.0342  0.2921 -0.6524
 2594TIP3    H129273   0.181   4.346  14.540  0.8358  1.5681 -0.4481
 2594TIP3    H229274   0.132   4.382  14.679  0.3467  1.8461 -0.6906
 2595TIP3   OH229275   2.820   3.471   4.909 -0.5625  0.7643  0.4701
 2595TIP3    H129276   2.823   3.550   4.963 -0.5551  1.1182 -0.0336
 2595TIP3    H229277   2.837   3.503   4.820  0.0453  0.1180  0.3418
 2596TIP3   OH229278   6.690   4.173   2.032 -0.3705 -0.2017  0.0898
 2596TIP3    H129279   6.689   4.253   1.979 -1.3158 -1.0074 -1.1800
 2596TIP3    H229280   6.731   4.108   1.976 -2.8513 -1.4893 -0.3846
 2597TIP3   OH229281   0.160   3.470  15.192 -0.3687  0.0866  0.0296
 2597TIP3    H129282   0.108   3.532  15.244 -3.0548  0.4398 -2.7836
 2597TIP3    H229283   0.229   3.441  15.251 -1.3043  2.8152  2.7080
 2598TIP3   OH229284   4.931   5.733  16.923  0.7684 -0.2016 -0.3820
 2598TIP3    H129285   4.838   5.756  16.921  0.9208  0.7853 -4.6181
 2598TIP3    H229286   4.969   5.793  16.987 -1.0854  1.5449 -0.8132
 2599TIP3   OH229287   2.102   1.033   6.451  0.0076 -0.3132  0.2321
 2599TIP3    H129288   2.007   1.037   6.453 -0.1028 -1.9527 -0.1944
 2599TIP3    H229289   2.123   0.978   6.376  1.2225 -1.2661  1.2054
 2600TIP3   OH229290   6.245   5.501   2.160 -0.6989  0.1164  0.6739
 2600TIP3    H129291   6.234   5.539   2.073 -2.3662  1.4638  1.4179
 2600TIP3    H229292   6.159   5.465   2.181 -0.5354  0.4734  2.0517
 2601TIP3   OH229293   6.175   2.972   0.296  0.4789 -0.0449 -0.0608
 2601TIP3    H129294   6.244   2.906   0.285 -0.4646 -1.1936  0.7167
 2601TIP3    H229295   6.223   3.054   0.308  1.6803 -0.5952 -0.8519
 2602TIP3   OH229296   3.918   1.014  14.573 -0.0042 -0.6533 -0.3768
 2602TIP3    H129297   3.879   1.039  14.657 -1.0111 -1.3792 -0.6005
 2602TIP3    H229298   3.843   0.997  14.516  0.5642 -3.3797 -0.4592
 2603TIP3   OH229299   1.478   4.981  12.744  0.3041  0.1616 -0.1072
 2603TIP3    H129300   1.424   4.989  12.666  0.5973 -0.7617 -0.4217
 2603TIP3    H229301   1.540   5.054  12.738 -0.7678  1.1176  0.1676
 2604TIP3   OH229302   2.146   5.797  12.706 -0.3780 -0.3577 -0.7403
 2604TIP3    H129303   2.114   5.768  12.621 -1.6502 -0.0720 -0.3690
 2604TIP3    H229304   2.085   5.760  12.769  0.8113 -0.9453  0.0939
 2605TIP3   OH229305   6.761   0.488   0.926 -0.6634 -0.5168  0.4432
 2605TIP3    H129306   6.719   0.478   0.840  2.0608  0.8612 -1.1566
 2605TIP3    H229307   6.737   0.576   0.954  1.0818  0.3163 -0.5254
 2606TIP3   OH229308   2.064   4.512   0.407  0.4983 -0.2846 -0.8374
 2606TIP3    H129309   2.056   4.425   0.369  0.9440 -0.3192 -0.8534
 2606TIP3    H229310   1.989   4.560   0.373 -0.2838 -0.9368 -0.0767
 2607TIP3   OH229311   6.205   1.853  15.626 -0.5221  0.1420 -0.1283
 2607TIP3    H129312   6.137   1.915  15.652 -0.2628  0.4341 -0.1302
 2607TIP3    H229313   6.282   1.909  15.609 -0.8853  0.0480 -2.2680
 2608TIP3   OH229314   3.683   3.408   1.799 -0.1067 -0.6240  0.0741
 2608TIP3    H129315   3.762   3.367   1.832  0.5644  0.5516 -0.0094
 2608TIP3    H229316   3.682   3.386   1.706  2.0164  2.0903 -0.7405
 2609TIP3   OH229317   1.099   0.188   0.841  0.2889 -0.2894 -0.7079
 2609TIP3    H129318   1.167   0.233   0.891 -0.2211  2.1855 -2.0582
 2609TIP3    H229319   1.138   0.105   0.816  0.5534 -1.8085  3.7317
 2610TIP3   OH229320   2.448   6.284  13.423  0.0649  0.2109  0.0353
 2610TIP3    H129321   2.475   6.296  13.332 -0.7964 -0.6093 -0.3497
 2610TIP3    H229322   2.406   6.198  13.423  0.8478 -0.1971  1.4001
 2611TIP3   OH229323   5.626   3.911   0.678 -0.0441  0.6577 -0.1940
 2611TIP3    H129324   5.577   3.993   0.687  0.3584  1.0387 -1.3193
 2611TIP3    H229325   5.672   3.919   0.595 -1.0574 -1.2953 -1.0050
 2612TIP3   OH229326   4.108   1.106   5.567  0.3433  0.2149 -0.1260
 2612TIP3    H129327   4.123   1.195   5.533 -0.4469  0.8749  1.1550
 2612TIP3    H229328   4.074   1.120   5.655  1.0574 -1.4052  0.4403
 2613TIP3   OH229329   4.741   1.500   4.770  0.4553 -0.1398 -0.2196
 2613TIP3    H129330   4.730   1.592   4.796  0.2547 -0.3254  0.3486
 2613TIP3    H229331   4.659   1.478   4.726 -0.6035 -0.8309  1.9844
 2614TIP3   OH229332   1.676   3.925   2.248  0.5926  0.5324  0.0214
 2614TIP3    H129333   1.759   3.954   2.285  1.2118  0.9771 -1.6335
 2614TIP3    H229334   1.617   3.999   2.261  0.6222  0.4408  0.6808
 2615TIP3   OH229335   0.158   6.697   3.828 -0.1878 -0.6521 -0.1264
 2615TIP3    H129336   0.128   6.691   3.919  0.9456 -1.7062  0.1943
 2615TIP3    H229337   0.135   6.613   3.789  2.8959 -1.8321  0.3413
 2616TIP3   OH229338   1.192   1.295   5.070  0.0008  0.0490  0.1807
 2616TIP3    H129339   1.206   1.263   5.159 -0.8819 -3.4462 -0.7750
 2616TIP3    H229340   1.255   1.246   5.017 -0.0951  1.4055 -1.2565
 2617TIP3   OH229341   4.528   2.864   5.063 -0.1058  0.4353  0.6152
 2617TIP3    H129342   4.517   2.946   5.016  0.2663  0.2026  0.1061
 2617TIP3    H229343   4.522   2.888   5.155 -3.0699  0.5996  0.4903
 2618TIP3   OH229344   5.250   4.894  16.907 -0.1718 -0.6753 -0.2742
 2618TIP3    H129345   5.171   4.924  16.953 -0.2525  0.2059 -0.9803
 2618TIP3    H229346   5.250   4.942  16.825  1.6339  0.0925  0.1359
 2619TIP3   OH229347   3.830   6.556  16.123 -0.1188  0.2435 -0.4974
 2619TIP3    H129348   3.903   6.551  16.185 -0.1287 -2.3743 -0.5821
 2619TIP3    H229349   3.759   6.594  16.173  0.4392 -0.0322  0.5426
 2620TIP3   OH229350   3.982   2.978  13.630 -0.5294 -0.3040 -0.1773
 2620TIP3    H129351   3.981   3.074  13.638 -0.3211 -0.4277  2.1146
 2620TIP3    H229352   4.067   2.952  13.666 -0.3188 -1.3426 -1.3619
 2621TIP3   OH229353   2.913   0.817  13.210 -0.4225 -0.4403  0.5790
 2621TIP3    H129354   2.960   0.744  13.250 -0.8529 -0.7240  0.5781
 2621TIP3    H229355   2.857   0.776  13.144 -1.0962 -0.1800  0.9684
 2622TIP3   OH229356   2.326   5.436   2.623 -0.3469  0.0423 -0.4608
 2622TIP3    H129357   2.259   5.384   2.578  1.9991 -1.1173 -2.8599
 2622TIP3    H229358   2.398   5.375   2.638  0.9515  1.6804  0.2873
 2623TIP3   OH229359   4.485   1.652   4.988  0.3941 -0.0427  0.4367
 2623TIP3    H129360   4.452   1.740   5.009  2.7285  0.1287  4.5701
 2623TIP3    H229361   4.546   1.666   4.916 -2.4556  0.8419 -1.9964
 2624TIP3   OH229362   4.800   6.515  14.717  0.4279  0.1585 -0.5532
 2624TIP3    H129363   4.847   6.463  14.782 -0.0039  0.6397  0.1661
 2624TIP3    H229364   4.844   6.600  14.718 -1.8016  1.4459  1.8715
 2625TIP3   OH229365   3.226   2.898   4.159  0.2132 -0.0200  0.3558
 2625TIP3    H129366   3.301   2.867   4.210 -1.2078 -2.7493  1.0014
 2625TIP3    H229367   3.150   2.886   4.218 -1.0322  0.1980 -1.1402
 2626TIP3   OH229368   4.622   2.751  15.415  0.3513 -0.3683 -0.1100
 2626TIP3    H129369   4.629   2.697  15.494 -0.4001 -1.3594 -0.6969
 2626TIP3    H229370   4.539   2.798  15.426  0.6070  0.0597  0.0215
 2627TIP3   OH229371   4.090   3.008   4.109  0.1316 -0.4290  0.3972
 2627TIP3    H129372   4.011   2.961   4.137  0.1949  0.6522  2.6249
 2627TIP3    H229373   4.064   3.100   4.110  1.5870  0.0231  1.9874
 2628TIP3   OH229374   6.305   3.999  16.050 -0.6133  0.7504  0.0122
 2628TIP3    H129375   6.324   3.986  15.957  0.8292  3.2267 -0.1408
 2628TIP3    H229376   6.326   3.915  16.091  2.7538  0.7307 -1.4026
 2629TIP3   OH229377   0.141   1.197  13.086  0.5205  0.2295 -0.1604
 2629TIP3    H129378   0.070   1.147  13.045 -0.5667  0.8806  0.8262
 2629TIP3    H229379   0.201   1.131  13.120 -0.4382 -0.3972  0.3524
 2630TIP3   OH229380   0.752   4.638   3.719  0.1006  0.1655 -0.1719
 2630TIP3    H129381   0.687   4.708   3.711 -0.9872 -0.9223 -1.1352
 2630TIP3    H229382   0.780   4.621   3.630  0.6652 -0.3699  0.1009
 2631TIP3   OH229383   0.942   4.145   0.270 -0.0793 -0.3480 -0.2110
 2631TIP3    H129384   1.014   4.182   0.219 -0.6804 -1.0235 -1.5963
 2631TIP3    H229385   0.864   4.186   0.234 -0.5816 -1.4544 -0.4190
 2632TIP3   OH229386   4.737   3.013   1.952  0.8314 -0.2069 -0.4632
 2632TIP3    H129387   4.709   2.962   2.029  1.3186 -1.3255 -1.0028
 2632TIP3    H229388   4.827   3.039   1.972  0.7598 -0.0019 -0.4083
 2633TIP3   OH229389   2.747   1.946  17.163  0.4169 -0.1608  0.3359
 2633TIP3    H129390   2.808   1.944  17.089 -0.9013  1.8456 -0.8849
 2633TIP3    H229391   2.753   1.858  17.200  1.6725 -1.0228 -1.7001
 2634TIP3   OH229392   5.178   4.211   1.764 -0.0881  0.6639 -0.3963
 2634TIP3    H129393   5.137   4.276   1.821  0.4517  0.4001  0.3066
 2634TIP3    H229394   5.264   4.248   1.744 -0.8185  1.4767 -2.3158
 2635TIP3   OH229395   5.100   4.401   1.940 -0.0277  0.2172 -0.2247
 2635TIP3    H129396   5.125   4.380   2.030 -0.5724 -1.8877 -0.5034
 2635TIP3    H229397   5.004   4.397   1.940 -0.0081 -1.1768 -1.1384
 2636TIP3   OH229398   3.400   0.306  15.515  0.6920  0.3766  0.1822
 2636TIP3    H129399   3.378   0.375  15.453  0.6847 -0.5323 -0.8528
 2636TIP3    H229400   3.378   0.343  15.601 -3.8294  0.0165 -0.5921
 2637TIP3   OH229401   3.087   5.368   2.006 -0.2707 -0.5871  0.1951
 2637TIP3    H129402   3.050   5.347   1.920  0.9005  2.0658 -1.0548
 2637TIP3    H229403   3.165   5.312   2.012  0.3589  0.1128 -1.0743
 2638TIP3   OH229404   4.512   2.728   4.112 -0.1866  0.2574 -0.0223
 2638TIP3    H129405   4.430   2.776   4.130  0.0965  1.2561 -1.2498
 2638TIP3    H229406   4.546   2.769   4.033  0.6586 -1.2799 -0.4823
 2639TIP3   OH229407   0.072   5.174  15.847  0.6842 -0.5615  0.4704
 2639TIP3    H129408  -0.001   5.152  15.906 -0.3368  0.2002 -0.4564
 2639TIP3    H229409   0.038   5.156  15.760  1.4600  0.2259 -0.0102
 2640TIP3   OH229410   4.027   6.360  12.683 -0.1935  0.8966  0.0620
 2640TIP3    H129411   4.055   6.450  12.667 -1.4892  1.1965 -0.6806
 2640TIP3    H229412   4.062   6.339  12.769 -0.8446  2.5301  0.7753
 2641TIP3   OH229413   3.189   3.871  15.215 -0.4126  0.7869 -0.0643
 2641TIP3    H129414   3.196   3.965  15.233 -0.0812  0.8014 -0.2564
 2641TIP3    H229415   3.248   3.830  15.278  1.4805  0.9051 -1.6571
 2642TIP3   OH229416   1.361   0.567  12.892  1.0009  0.1339 -0.0245
 2642TIP3    H129417   1.276   0.572  12.937  1.0552  0.2711  0.0648
 2642TIP3    H229418   1.420   0.529  12.957  1.1830  0.7417  0.1794
 2643TIP3   OH229419   4.839   4.308  15.110 -0.2567  0.6891  0.2754
 2643TIP3    H129420   4.931   4.329  15.094 -0.1195  0.9530  1.2974
 2643TIP3    H229421   4.790   4.375  15.064  0.0188  0.0371 -1.0262
 2644TIP3   OH229422   6.316   1.068  13.842 -0.4637 -0.2330 -0.0879
 2644TIP3    H129423   6.396   1.076  13.790 -1.7961  0.2275 -2.2070
 2644TIP3    H229424   6.293   0.975  13.838 -0.3018 -0.2853  0.1383
 2645TIP3   OH229425   5.672   2.700  15.275  0.3050 -0.0273 -0.0495
 2645TIP3    H129426   5.579   2.723  15.269  0.7602  1.6907 -1.3395
 2645TIP3    H229427   5.687   2.642  15.200  0.8032  1.9159 -1.5367
 2646TIP3   OH229428   0.103   0.038  16.734 -0.0357 -0.4118  0.2174
 2646TIP3    H129429   0.120  -0.055  16.751  2.9815  0.1095  0.6223
 2646TIP3    H229430   0.015   0.040  16.697 -0.3015 -3.3970  0.4632
 2647TIP3   OH229431   1.847   3.008   2.290 -0.3586  0.0078  0.1331
 2647TIP3    H129432   1.857   2.975   2.379  2.0669  2.1576  0.7979
 2647TIP3    H229433   1.891   2.943   2.235 -1.6723 -1.2133  0.4730
 2648TIP3   OH229434   2.461   2.200   3.910  0.3311 -0.4063  0.0089
 2648TIP3    H129435   2.447   2.107   3.930  1.7745 -1.3426 -2.8398
 2648TIP3    H229436   2.388   2.223   3.853  1.9123 -0.9828 -2.4076
 2649TIP3   OH229437   2.634   2.848  13.245 -0.0387 -0.2568  0.1090
 2649TIP3    H129438   2.614   2.898  13.325  0.7608  0.3936 -0.0904
 2649TIP3    H229439   2.729   2.846  13.241 -0.0670 -1.1717 -0.2930
 2650TIP3   OH229440   0.325   5.235   5.437 -0.0890  0.3980  0.1989
 2650TIP3    H129441   0.294   5.145   5.438  1.7232 -0.4117 -2.5067
 2650TIP3    H229442   0.403   5.235   5.493  3.1004 -1.3018 -3.7191
 2651TIP3   OH229443   6.010   3.308  17.120 -0.4538 -0.1738 -0.1043
 2651TIP3    H129444   6.053   3.239  17.171 -2.6116 -1.3695  0.1974
 2651TIP3    H229445   5.926   3.321  17.164  0.1882  3.2691  0.3301
 2652TIP3   OH229446   1.064   3.963   0.049  0.0971 -0.3597 -0.8118
 2652TIP3    H129447   1.054   3.985   0.141 -2.3191  0.4144 -1.1934
 2652TIP3    H229448   1.100   4.042   0.009 -0.3541 -0.1335 -0.7762
 2653TIP3   OH229449   2.351   4.887  10.788 -0.0421 -0.5248 -0.7096
 2653TIP3    H129450   2.281   4.932  10.837  0.8967 -0.4352  0.6118
 2653TIP3    H229451   2.361   4.938  10.708 -0.5246  0.2952 -0.2665
 2654TIP3   OH229452   0.080   1.023   2.490 -0.0553  0.4079  0.2256
 2654TIP3    H129453  -0.008   1.040   2.456  0.1826  1.1356 -0.0499
 2654TIP3    H229454   0.076   1.049   2.582 -0.6541 -1.4057  0.7539
 2655TIP3   OH229455   0.029   4.673  10.847 -0.7053 -0.2303 -0.3127
 2655TIP3    H129456  -0.033   4.617  10.799  0.9326 -1.7974 -0.6993
 2655TIP3    H229457  -0.022   4.705  10.921 -2.2680 -0.6629 -1.1412
 2656TIP3   OH229458   5.220   1.107   2.259 -0.5817  0.2032  0.0418
 2656TIP3    H129459   5.266   1.186   2.233  0.4700 -0.0284  1.0816
 2656TIP3    H229460   5.182   1.129   2.345  1.1551 -0.9055  1.1538
 2657TIP3   OH229461   6.567   3.515  12.835  0.1414 -0.0183  0.1618
 2657TIP3    H129462   6.487   3.562  12.812  0.5396  0.7432  0.2789
 2657TIP3    H229463   6.537   3.431  12.868 -0.7116  0.7843  1.5573
 2658TIP3   OH229464   6.666   2.934   1.754 -0.1692 -0.2671  0.2148
 2658TIP3    H129465   6.588   2.969   1.710  0.2791 -0.7509 -0.9992
 2658TIP3    H229466   6.638   2.922   1.845 -0.6292  2.3035  0.4881
 2659TIP3   OH229467   1.090   0.288  16.049  0.2744  0.0601 -0.2419
 2659TIP3    H129468   1.007   0.249  16.075 -0.9121  1.8777 -1.1512
 2659TIP3    H229469   1.135   0.307  16.131  0.1614 -1.5804  0.2449
 2660TIP3   OH229470   4.890   6.058  14.052  0.1661 -0.1696  0.5127
 2660TIP3    H129471   4.965   6.099  14.009  2.1435 -0.8343  3.0207
 2660TIP3    H229472   4.854   6.126  14.108  0.2022 -0.3954  0.8170
 2661TIP3   OH229473   1.293   2.270   2.893  0.5349  0.1633 -0.4331
 2661TIP3    H129474   1.228   2.325   2.937  1.8040  1.4379 -0.0784
 2661TIP3    H229475   1.246   2.234   2.818 -0.5725  1.0566 -0.2027
 2662TIP3   OH229476   4.983   1.484   1.929 -0.2015 -0.3583 -0.2906
 2662TIP3    H129477   5.050   1.549   1.947 -1.8243  1.5517 -0.7848
 2662TIP3    H229478   4.958   1.451   2.015 -0.5300  0.9533  0.1408
 2663TIP3   OH229479   2.121   2.796  16.388  0.9275  0.0438  0.1770
 2663TIP3    H129480   2.051   2.831  16.442 -1.2935 -0.0813 -2.3830
 2663TIP3    H229481   2.150   2.717  16.434 -1.2390 -0.3762  0.9337
 2664TIP3   OH229482   0.066   6.540   0.732  0.0446  0.2170 -0.2851
 2664TIP3    H129483   0.010   6.536   0.654 -1.5556 -1.1452  0.8483
 2664TIP3    H229484   0.043   6.623   0.774 -0.7966 -0.1004 -0.0965
 2665TIP3   OH229485   1.174   6.188  12.427  0.0625 -0.1571 -0.1474
 2665TIP3    H129486   1.147   6.145  12.508  0.6278  0.9437  0.6650
 2665TIP3    H229487   1.101   6.247  12.406 -0.1272 -0.5154 -0.4996
 2666TIP3   OH229488   2.854   4.782   5.947 -0.2785  0.1990  0.1386
 2666TIP3    H129489   2.769   4.823   5.960 -0.2842 -0.0050  0.7329
 2666TIP3    H229490   2.901   4.844   5.890 -1.5676 -0.7075 -2.0351
 2667TIP3   OH229491   6.088   5.481   4.015  0.0022 -0.1193 -0.1155
 2667TIP3    H129492   6.113   5.572   4.033  2.5726 -0.1273 -2.7816
 2667TIP3    H229493   6.010   5.488   3.959  0.1475  0.4497 -0.2526
 2668TIP3   OH229494   6.135   5.581   2.455  0.5571 -0.3265 -0.9087
 2668TIP3    H129495   6.158   5.489   2.463 -0.7025 -0.5902 -0.1264
 2668TIP3    H229496   6.217   5.628   2.474  0.7282 -1.2453  0.7786
 2669TIP3   OH229497   1.955   0.651  16.390 -0.6976 -0.2628  0.2976
 2669TIP3    H129498   1.932   0.700  16.311 -0.0947 -0.2901  0.0969
 2669TIP3    H229499   1.903   0.691  16.459  1.7062  2.5624  0.7038
 2670TIP3   OH229500   0.689   4.757  15.449  0.1316 -0.3158  0.1624
 2670TIP3    H129501   0.731   4.749  15.535  2.7402 -0.9774 -1.0557
 2670TIP3    H229502   0.675   4.851  15.437  0.6012 -0.1437  0.9403
 2671TIP3   OH229503   3.191   0.156  14.113  0.5003 -0.0127 -0.5798
 2671TIP3    H129504   3.118   0.178  14.170 -0.9689  1.7372 -2.9341
 2671TIP3    H229505   3.247   0.234  14.113 -1.0133  1.2378 -3.5319
 2672TIP3   OH229506   0.105   1.765  16.284  0.2804  0.1790  0.3669
 2672TIP3    H129507   0.089   1.724  16.369  1.0779 -1.0547 -0.0647
 2672TIP3    H229508   0.200   1.767  16.275  0.2196 -1.9845 -1.5485
 2673TIP3   OH229509   1.640   0.737   0.613  0.6618 -0.2506  0.6239
 2673TIP3    H129510   1.564   0.720   0.558  0.8331 -0.8123  0.5525
 2673TIP3    H229511   1.609   0.723   0.702  0.4842  0.2847  0.6516
 2674TIP3   OH229512   3.661   0.206   6.031 -0.1113 -0.3576  0.2802
 2674TIP3    H129513   3.710   0.124   6.042  2.2494  1.0602  0.9299
 2674TIP3    H229514   3.697   0.264   6.098 -1.9202  1.1669  0.0011
 2675TIP3   OH229515   5.321   4.971   5.465  0.2255 -0.3298  0.7150
 2675TIP3    H129516   5.258   4.945   5.398  0.9438 -0.3953  0.0578
 2675TIP3    H229517   5.296   5.061   5.487  1.1236  0.3992 -1.0234
 2676TIP3   OH229518   3.266   4.840   2.016  0.2033  0.2195 -0.1003
 2676TIP3    H129519   3.196   4.905   2.016  1.5279  1.7054 -1.4787
 2676TIP3    H229520   3.293   4.833   1.925  0.2827 -2.1355  0.0358
 2677TIP3   OH229521   5.890   1.917   2.282  0.4472  0.0888 -0.0892
 2677TIP3    H129522   5.868   1.961   2.200 -0.5810  1.2383  0.7748
 2677TIP3    H229523   5.831   1.842   2.286  1.1018 -0.4769 -0.8043
 2678TIP3   OH229524   0.734   0.694   2.921  0.0155  0.1634 -0.1105
 2678TIP3    H129525   0.691   0.733   2.997 -1.4605 -2.4050  0.4928
 2678TIP3    H229526   0.810   0.750   2.904 -1.1398  2.3492  1.5449
 2679TIP3   OH229527   1.255   4.733   5.115  0.2934  1.0609 -0.1080
 2679TIP3    H129528   1.254   4.794   5.042  1.6006  1.0856 -0.1265
 2679TIP3    H229529   1.329   4.675   5.098  0.3286  0.7610  0.9525
 2680TIP3   OH229530   3.548   0.795   6.008 -0.6718 -1.0476 -0.0981
 2680TIP3    H129531   3.527   0.716   6.058 -2.5720  1.1376  2.8658
 2680TIP3    H229532   3.465   0.819   5.966 -0.2707 -0.2591 -0.4580
 2681TIP3   OH229533   0.932   0.507   4.929  0.0271 -0.5732  0.0395
 2681TIP3    H129534   0.960   0.570   4.995 -1.9260 -0.9558  1.2964
 2681TIP3    H229535   0.940   0.554   4.846 -3.5878  2.3182  1.0504
 2682TIP3   OH229536   4.799   2.713   5.194 -0.0704  0.1783  0.1135
 2682TIP3    H129537   4.788   2.808   5.193  0.9043  0.3071  0.0373
 2682TIP3    H229538   4.741   2.681   5.125 -1.1562  0.6195  0.8116
 2683TIP3   OH229539   0.031   6.712   5.022 -0.1254 -0.6155  0.4599
 2683TIP3    H129540  -0.043   6.738   4.968  0.8083 -0.1125 -0.6063
 2683TIP3    H229541  -0.001   6.718   5.112 -0.6715  1.9387  0.1507
 2684TIP3   OH229542   2.547   5.277   4.488  0.5463 -0.1377 -1.0833
 2684TIP3    H129543   2.545   5.183   4.470  0.0240 -0.2347 -0.5602
 2684TIP3    H229544   2.471   5.312   4.441  0.3258 -0.0913 -0.6996
 2685TIP3   OH229545   5.008   0.203  13.045 -0.2131 -0.1859  0.0169
 2685TIP3    H129546   5.069   0.246  13.106 -1.2800  0.3505  0.7371
 2685TIP3    H229547   4.975   0.274  12.991  1.4571 -0.7931 -1.8960
 2686TIP3   OH229548   1.712   5.656   2.042  0.2874  0.3476 -0.9575
 2686TIP3    H129549   1.791   5.691   2.001  0.6582 -0.7210 -1.2128
 2686TIP3    H229550   1.675   5.598   1.975 -0.6532  0.7452 -0.7919
 2687TIP3   OH229551   2.972   2.858  11.182 -0.4870 -0.0200  0.2164
 2687TIP3    H129552   2.924   2.939  11.199  1.4060  1.1242  0.3579
 2687TIP3    H229553   2.918   2.811  11.119 -1.6637  1.3086  0.1908
 2688TIP3   OH229554   1.683   2.058   0.977  0.0140 -0.0668 -0.8565
 2688TIP3    H129555   1.589   2.058   0.962 -0.0885  1.7162 -0.4172
 2688TIP3    H229556   1.698   1.987   1.040 -1.0931 -0.0853 -0.6071
 2689TIP3   OH229557   5.200   0.387   1.735 -0.0738  0.0921 -0.4585
 2689TIP3    H129558   5.162   0.455   1.679 -1.5972 -0.6420 -0.3533
 2689TIP3    H229559   5.140   0.313   1.728  1.5951 -1.2998 -0.6359
 2690TIP3   OH229560   5.981   3.271   2.584  0.4154 -0.7776  0.1235
 2690TIP3    H129561   5.908   3.220   2.619 -0.2795 -0.0471 -0.2436
 2690TIP3    H229562   5.941   3.353   2.555  1.2080 -0.8051 -1.0777
 2691TIP3   OH229563   3.861   3.795  16.418  0.2061 -0.1571  0.1132
 2691TIP3    H129564   3.777   3.840  16.405 -0.1642 -0.3042  1.6860
 2691TIP3    H229565   3.923   3.866  16.436 -0.0095 -0.1376  0.8473
 2692TIP3   OH229566   6.482   4.723   0.174  0.3690  0.2788 -0.6532
 2692TIP3    H129567   6.408   4.664   0.165  1.3124 -1.2743  1.1280
 2692TIP3    H229568   6.444   4.811   0.168 -1.5101 -0.4756 -0.4135
 2693TIP3   OH229569   5.803   1.596   5.328  0.4888 -0.1546 -0.5301
 2693TIP3    H129570   5.745   1.520   5.321  0.6726 -0.3442 -0.0324
 2693TIP3    H229571   5.754   1.659   5.380  0.5344 -0.1249 -0.5235
 2694TIP3   OH229572   4.368   3.351  13.225 -0.0989 -0.5833  0.5871
 2694TIP3    H129573   4.351   3.327  13.316 -1.1474 -1.3502  0.2079
 2694TIP3    H229574   4.411   3.437  13.231 -1.1712 -0.0849  1.7740
 2695TIP3   OH229575   5.731   5.661  17.200 -0.3265 -0.6787  0.2774
 2695TIP3    H129576   5.663   5.619  17.147 -0.2000 -0.6368  0.0801
 2695TIP3    H229577   5.795   5.693  17.136  0.1559 -1.1968  0.4922
 2696TIP3   OH229578   0.881   2.467   1.244  0.2084  0.4965 -0.1897
 2696TIP3    H129579   0.850   2.380   1.219  0.0414  0.3382  0.5489
 2696TIP3    H229580   0.886   2.515   1.161  0.2204 -0.1858 -0.5937
 2697TIP3   OH229581   5.354   0.161   3.026 -0.2426 -0.0517  0.5117
 2697TIP3    H129582   5.429   0.128   3.076  0.1468 -1.2336 -0.7815
 2697TIP3    H229583   5.283   0.101   3.048 -0.5306  0.4547  0.9565
 2698TIP3   OH229584   4.915   4.480  16.553 -0.0544  0.1433 -0.0838
 2698TIP3    H129585   4.978   4.552  16.552  1.1316 -0.8244  1.0722
 2698TIP3    H229586   4.874   4.482  16.467  1.0486  1.2484 -0.6101
 2699TIP3   OH229587   6.204   5.304   0.800  0.2271 -0.1210  0.0479
 2699TIP3    H129588   6.260   5.373   0.765 -2.8510  1.2269 -2.7593
 2699TIP3    H229589   6.221   5.228   0.744  0.9062 -0.5078  0.7508
 2700TIP3   OH229590   5.825   0.346   4.329 -0.7322 -0.0582 -1.1508
 2700TIP3    H129591   5.792   0.257   4.339  0.5215 -0.6723 -2.2254
 2700TIP3    H229592   5.785   0.378   4.248 -1.4054  0.4870 -0.6199
 2701TIP3   OH229593   1.961   5.936  11.022  0.4263 -0.3267  0.4386
 2701TIP3    H129594   2.041   5.988  11.031  0.7067 -0.1977 -2.1319
 2701TIP3    H229595   1.899   5.995  10.979 -1.2040 -0.3647  2.5469
 2702TIP3   OH229596   0.330   0.613  15.489  0.0924  0.0932 -0.5654
 2702TIP3    H129597   0.411   0.657  15.514  0.0990  0.1065 -0.6096
 2702TIP3    H229598   0.261   0.663  15.534  0.1042  0.1141 -0.5706
 2703TIP3   OH229599   4.937   6.249  11.142  0.0050  0.3833  0.2933
 2703TIP3    H129600   4.900   6.253  11.054  0.1681 -0.0115  0.2085
 2703TIP3    H229601   5.029   6.270  11.130 -0.2871  1.9733  0.5802
 2704TIP3   OH229602   0.059   2.871   3.215 -0.2354  0.1421 -0.2460
 2704TIP3    H129603   0.146   2.899   3.185  0.1980  0.5407  1.3137
 2704TIP3    H229604   0.076   2.790   3.264 -1.2687 -2.0921 -3.2193
 2705TIP3   OH229605   0.700   5.577   0.413  0.2577  0.6748  0.0431
 2705TIP3    H129606   0.614   5.600   0.448 -0.0803 -0.0642 -0.2708
 2705TIP3    H229607   0.706   5.623   0.330 -0.3780 -0.2596 -0.5411
 2706TIP3   OH229608   4.103   2.929  15.034  0.6851 -0.2113 -0.2030
 2706TIP3    H129609   4.075   2.913  15.124 -2.0287 -2.4878 -1.2793
 2706TIP3    H229610   4.031   2.978  14.995  0.9511 -0.8804 -1.5887
 2707TIP3   OH229611   2.370   5.746  15.134  0.1425  0.3803 -0.1267
 2707TIP3    H129612   2.399   5.769  15.045 -0.2401 -0.8827 -0.5967
 2707TIP3    H229613   2.410   5.661  15.151 -0.7351  0.0672  0.4530
 2708TIP3   OH229614   3.398   2.254  13.829 -0.9968 -0.4765  0.5586
 2708TIP3    H129615   3.319   2.306  13.844 -1.1367 -0.6545  0.4591
 2708TIP3    H229616   3.450   2.306  13.769 -1.1300 -0.4458  0.4688
 2709TIP3   OH229617   6.799   4.610   3.158 -0.2894  0.3665 -0.0957
 2709TIP3    H129618   6.867   4.553   3.121  0.2721  1.4490 -0.8006
 2709TIP3    H229619   6.813   4.606   3.252  0.5478  0.3036 -0.2083
 2710TIP3   OH229620   0.202   4.588  10.628  0.3730 -0.1071  0.2636
 2710TIP3    H129621   0.156   4.661  10.670 -0.7138 -0.7038  0.1668
 2710TIP3    H229622   0.201   4.518  10.694 -0.0043 -0.5462 -0.1944
 2711TIP3   OH229623   1.203   4.032  11.097  0.1375  0.9108 -0.0309
 2711TIP3    H129624   1.152   4.110  11.076 -0.1969  0.9973  1.0626
 2711TIP3    H229625   1.294   4.062  11.095  0.2255  0.6849 -2.2910
 2712TIP3   OH229626   2.646   4.124  10.455  0.2161  0.5063 -0.6132
 2712TIP3    H129627   2.728   4.149  10.411 -0.1086  1.2382 -0.8197
 2712TIP3    H229628   2.611   4.207  10.487  1.1762 -0.0948  2.3615
 2713TIP3   OH229629   3.430   2.774  12.673 -0.1923  0.2891 -0.5524
 2713TIP3    H129630   3.411   2.723  12.752  1.0391 -0.7540 -0.8934
 2713TIP3    H229631   3.481   2.848  12.704  2.5998 -1.4822 -0.5706
 2714TIP3   OH229632   5.980   2.376  16.164  0.3316 -0.2355 -0.4153
 2714TIP3    H129633   5.951   2.388  16.254  1.2200  0.5854 -0.2190
 2714TIP3    H229634   5.913   2.320  16.124  0.0777 -0.8576  0.8255
 2715TIP3   OH229635   2.534   2.311   0.355  0.2610  0.3217 -0.3970
 2715TIP3    H129636   2.446   2.344   0.374  0.8132  1.3483  0.4729
 2715TIP3    H229637   2.543   2.235   0.413  0.5806  1.2805  0.8617
 2716TIP3   OH229638   6.357   4.888   2.326  0.3970 -0.5088 -0.2932
 2716TIP3    H129639   6.343   4.926   2.412  1.0495 -1.0035  0.0427
 2716TIP3    H229640   6.313   4.947   2.265  0.1248 -0.0386  0.3569
 2717TIP3   OH229641   5.276   4.067  16.984  0.2885  0.5123 -0.2454
 2717TIP3    H129642   5.234   4.118  17.052  1.5420 -0.0379  1.0121
 2717TIP3    H229643   5.366   4.099  16.982  1.0275 -1.3841  0.3767
 2718TIP3   OH229644   1.433   1.982   5.512  0.1323  0.2141 -0.0934
 2718TIP3    H129645   1.368   1.960   5.579 -0.4559  1.7252 -0.1261
 2718TIP3    H229646   1.442   1.902   5.459 -2.5270  0.2966 -0.7729
 2719TIP3   OH229647   2.537   0.559   4.289 -0.5494 -0.1988  0.0833
 2719TIP3    H129648   2.449   0.594   4.306 -1.7830 -2.4816 -1.0455
 2719TIP3    H229649   2.546   0.562   4.194  0.0502 -1.1286  0.0984
 2720TIP3   OH229650   1.247   5.265  11.036 -0.3611 -0.6980  0.3032
 2720TIP3    H129651   1.260   5.329  10.966  0.8710 -0.3425  0.8319
 2720TIP3    H229652   1.152   5.259  11.046 -0.7275 -2.1740 -2.7077
 2721TIP3   OH229653   1.570   5.202  10.949  0.2693 -0.2698  0.3702
 2721TIP3    H129654   1.632   5.210  11.022  1.1086 -1.6675 -0.1498
 2721TIP3    H229655   1.507   5.272  10.964  0.3768 -0.5545  2.4754
 2722TIP3   OH229656   2.202   4.937   6.429  0.2449 -0.4096 -0.0149
 2722TIP3    H129657   2.120   4.924   6.476  0.0350 -0.1460 -0.2948
 2722TIP3    H229658   2.263   4.874   6.467 -0.3572 -1.2861 -0.4616
 2723TIP3   OH229659   4.103   0.801  12.050  0.3879 -0.1352  0.1241
 2723TIP3    H129660   4.183   0.785  12.000  1.1937  0.6624  1.1150
 2723TIP3    H229661   4.121   0.882  12.097  0.1340 -1.4388  2.5937
 2724TIP3   OH229662   3.800   3.036  16.990  0.0600 -0.1913 -0.1754
 2724TIP3    H129663   3.820   3.121  16.951  0.0271 -0.2100 -0.2330
 2724TIP3    H229664   3.821   3.046  17.082  0.7154 -0.3278 -0.3048
 2725TIP3   OH229665   0.524   2.164  14.674 -0.8237  0.4104  0.2947
 2725TIP3    H129666   0.593   2.103  14.700 -1.5851 -0.3490  0.5672
 2725TIP3    H229667   0.571   2.237  14.633  0.0479 -0.7780 -0.8976
 2726TIP3   OH229668   1.135   2.652  13.157  0.1397 -0.1613  0.0073
 2726TIP3    H129669   1.078   2.606  13.219  0.0758 -0.9501 -0.6083
 2726TIP3    H229670   1.224   2.628  13.183  0.1860  0.7626  0.7341
 2727TIP3   OH229671   0.286   5.295  17.194 -0.3587  0.0237 -0.1489
 2727TIP3    H129672   0.271   5.337  17.109 -0.0133  0.0422 -0.1993
 2727TIP3    H229673   0.358   5.235  17.178 -0.9702 -0.7332 -0.1261
 2728TIP3   OH229674   1.894   1.565  16.312  0.0250 -0.1921 -0.1633
 2728TIP3    H129675   1.894   1.567  16.217  0.0293 -0.4318 -0.1691
 2728TIP3    H229676   1.827   1.629  16.337 -0.8542 -1.0043 -0.3544
 2729TIP3   OH229677   2.097   0.289  12.113  0.7684  0.1102  0.0531
 2729TIP3    H129678   2.027   0.270  12.176 -0.7984  0.7963 -1.3914
 2729TIP3    H229679   2.171   0.236  12.142 -0.1247 -0.1359  2.0342
 2730TIP3   OH229680   5.068   5.125   1.342  0.2725  0.3526  0.5666
 2730TIP3    H129681   5.112   5.200   1.381 -0.2016  0.7721  0.2958
 2730TIP3    H229682   5.130   5.093   1.276 -0.0842  1.3292 -0.2587
 2731TIP3   OH229683   5.969   1.768   1.304  0.0500 -0.2323  0.6173
 2731TIP3    H129684   5.879   1.748   1.281  0.2105  0.1697 -0.4194
 2731TIP3    H229685   5.975   1.863   1.297 -0.2241  0.1191  3.6761
 2732TIP3   OH229686   3.853   1.549  15.249 -0.2308  0.5784 -0.3897
 2732TIP3    H129687   3.887   1.524  15.335 -0.5857  0.2281 -0.3467
 2732TIP3    H229688   3.926   1.535  15.189 -0.7448 -1.6998 -0.5531
 2733TIP3   OH229689   5.952   0.727   0.609 -0.1311  0.2159  0.7384
 2733TIP3    H129690   5.923   0.640   0.636  1.9576 -1.3174 -1.4903
 2733TIP3    H229691   5.899   0.746   0.531  0.8162 -0.0384  0.0139
 2734TIP3   OH229692   3.115   0.602  11.192 -0.2426  0.3206 -0.1536
 2734TIP3    H129693   3.159   0.525  11.155 -0.3608  0.8927 -1.5293
 2734TIP3    H229694   3.162   0.677  11.156 -1.1905  0.9145 -0.1974
 2735TIP3   OH229695   4.683   1.817  13.036 -0.5112  0.3971 -0.4965
 2735TIP3    H129696   4.611   1.878  13.021 -0.6862  0.3853  0.2606
 2735TIP3    H229697   4.758   1.857  12.992 -1.0078  0.3344 -1.4281
 2736TIP3   OH229698   4.639   4.582   0.106 -0.0597  0.4333 -0.2602
 2736TIP3    H129699   4.597   4.534   0.034 -0.8153  1.1773 -0.3334
 2736TIP3    H229700   4.584   4.563   0.182  1.0401 -0.7913  0.2731
 2737TIP3   OH229701   3.168   1.740  15.650 -0.2087  0.0681  0.6591
 2737TIP3    H129702   3.106   1.667  15.643 -1.2690  1.0719 -1.5881
 2737TIP3    H229703   3.229   1.726  15.577 -0.6124  1.5512  0.0129
 2738TIP3   OH229704   3.075   1.784   5.674 -0.1175 -0.6985 -0.3073
 2738TIP3    H129705   3.103   1.732   5.599 -0.9973  0.5777 -1.5724
 2738TIP3    H229706   3.122   1.867   5.664 -1.8044  0.2562 -0.6553
 2739TIP3   OH229707   3.283   5.486  15.403 -0.6104  0.5691 -0.3629
 2739TIP3    H129708   3.369   5.448  15.387 -0.5972  0.7611 -0.7533
 2739TIP3    H229709   3.224   5.437  15.347 -0.8890 -0.0850  0.4737
 2740TIP3   OH229710   1.985   0.054  13.162 -0.0977 -0.0878  0.1229
 2740TIP3    H129711   1.915   0.067  13.099 -2.1807 -0.0348  2.3227
 2740TIP3    H229712   1.946   0.002  13.232  0.6645  3.2724  3.4246
 2741TIP3   OH229713   2.145   5.407   3.636  0.4093  0.1057  0.0622
 2741TIP3    H129714   2.053   5.422   3.655 -0.1342 -1.7902 -0.8481
 2741TIP3    H229715   2.164   5.463   3.561 -0.7747 -1.4295 -1.4519
 2742TIP3   OH229716   5.504   5.808  17.202  0.8230 -0.0770 -0.3280
 2742TIP3    H129717   5.450   5.730  17.196  1.0839 -0.2557 -0.3960
 2742TIP3    H229718   5.582   5.779  17.250  1.2169 -0.0252 -0.9239
 2743TIP3   OH229719   2.689   2.669   2.435  0.0972 -0.1367  0.1359
 2743TIP3    H129720   2.667   2.761   2.450  2.8762  0.5751  0.4660
 2743TIP3    H229721   2.715   2.636   2.521 -2.2417 -1.7304  0.3095
 2744TIP3   OH229722   2.032   5.746   1.421  0.2319 -0.0499 -0.3734
 2744TIP3    H129723   1.998   5.656   1.426 -0.8565  0.3816  0.5845
 2744TIP3    H229724   2.126   5.736   1.408  0.3952 -1.3768  1.4096
 2745TIP3   OH229725   6.821   3.227  14.080 -0.5530 -0.0191  0.4928
 2745TIP3    H129726   6.767   3.201  14.154 -1.4340 -0.7701 -0.3889
 2745TIP3    H229727   6.827   3.322  14.087 -1.7477  0.0498  0.7708
 2746TIP3   OH229728   1.608   5.823   0.221  0.7368 -0.5759  0.6603
 2746TIP3    H129729   1.524   5.802   0.181 -0.4926  2.3490  1.3781
 2746TIP3    H229730   1.671   5.821   0.149 -0.1166 -1.8373 -0.0829
 2747TIP3   OH229731   6.825   6.505  15.144  0.2929  0.6462  0.6218
 2747TIP3    H129732   6.830   6.466  15.057 -1.2571  1.1997  0.2361
 2747TIP3    H229733   6.857   6.594  15.133  3.2884 -0.2451  1.3800
 2748TIP3   OH229734   0.366   0.755   0.122 -0.1954  0.3561  0.9270
 2748TIP3    H129735   0.300   0.685   0.126  0.2379 -0.1630 -0.5758
 2748TIP3    H229736   0.314   0.836   0.123 -0.6659  0.1483  3.9653
 2749TIP3   OH229737   1.956   4.984   1.845 -0.0383 -0.0261  0.0415
 2749TIP3    H129738   1.981   5.032   1.765  0.3372  0.5162  0.4774
 2749TIP3    H229739   1.906   5.047   1.896  0.1471 -0.2099  0.4583
 2750TIP3   OH229740   4.029   0.288  16.103 -0.3417 -0.0458 -0.5151
 2750TIP3    H129741   3.984   0.367  16.132 -1.1585  0.4129 -2.8393
 2750TIP3    H229742   4.070   0.253  16.182  0.1937  2.7735  0.5630
 2751TIP3   OH229743   5.860   2.181  13.698  0.5513  0.7114  0.1162
 2751TIP3    H129744   5.882   2.187  13.791 -0.7602  1.1922  0.4204
 2751TIP3    H229745   5.933   2.133  13.659 -0.0279 -1.7570  1.8219
 2752TIP3   OH229746   0.831   4.957   1.751 -0.5245  0.2347 -0.9949
 2752TIP3    H129747   0.745   4.969   1.792 -0.0561 -0.8362  0.3958
 2752TIP3    H229748   0.820   4.990   1.662 -2.3193  0.3022 -0.7882
 2753TIP3   OH229749   2.127   5.318   5.364  0.1941  0.3391  0.1709
 2753TIP3    H129750   2.099   5.353   5.280 -1.2104  0.7036  0.7522
 2753TIP3    H229751   2.218   5.293   5.351 -0.4569 -1.2024 -1.9493
 2754TIP3   OH229752   1.117   2.666   0.153  0.5685  0.1556  0.0518
 2754TIP3    H129753   1.068   2.714   0.219  0.5293  0.7039 -0.3682
 2754TIP3    H229754   1.209   2.682   0.174  0.5897 -0.9833  0.9204
 2755TIP3   OH229755   2.184   5.211   0.029  0.8076 -0.0407  0.2557
 2755TIP3    H129756   2.268   5.167   0.020  0.9931  0.1929  0.7899
 2755TIP3    H229757   2.205   5.304   0.029  0.4990  0.0306 -0.0765
 2756TIP3   OH229758   3.702   4.310   2.977 -0.2998  0.0608  0.2615
 2756TIP3    H129759   3.709   4.272   2.889  0.6053 -0.6647  0.6289
 2756TIP3    H229760   3.617   4.354   2.977 -0.4914 -0.2635 -0.8439
 2757TIP3   OH229761   1.818   5.220   0.895  0.2296 -0.4712 -0.1887
 2757TIP3    H129762   1.806   5.156   0.965 -0.7405 -0.3016 -0.1919
 2757TIP3    H229763   1.893   5.187   0.845 -0.4586 -1.7711 -0.3948
 2758TIP3   OH229764   1.413   4.541  12.992  0.0757  0.9078 -0.6451
 2758TIP3    H129765   1.416   4.447  13.008 -1.8342  1.0356  0.8423
 2758TIP3    H229766   1.498   4.562  12.954 -0.1997 -1.7587 -3.0728
 2759TIP3   OH229767   5.493   6.362  15.452 -0.5742 -0.5442 -0.2543
 2759TIP3    H129768   5.506   6.278  15.496  0.9595 -1.4345 -2.2459
 2759TIP3    H229769   5.402   6.360  15.422 -0.2403 -2.0581 -1.2770
 2760TIP3   OH229770   6.270   2.565   2.201 -0.1026  0.4756 -0.6113
 2760TIP3    H129771   6.274   2.472   2.222  0.9745  0.6049 -0.1913
 2760TIP3    H229772   6.184   2.593   2.233  0.3797  0.0607  1.1730
 2761TIP3   OH229773   3.453   4.114   2.749 -0.0129  0.2436 -0.1593
 2761TIP3    H129774   3.504   4.157   2.680  0.0394  0.5556  0.0714
 2761TIP3    H229775   3.399   4.185   2.786  0.1915  0.1456  0.3323
 2762TIP3   OH229776   6.453   4.272  16.560 -0.4725 -0.5152 -0.2867
 2762TIP3    H129777   6.487   4.249  16.646 -1.1524  0.8327  0.3778
 2762TIP3    H229778   6.358   4.262  16.568 -0.6775  1.1009 -0.3687
 2763TIP3   OH229779   5.316   6.388   4.484  0.0060 -0.1913 -0.1370
 2763TIP3    H129780   5.231   6.351   4.507 -0.2100 -0.7607 -1.6916
 2763TIP3    H229781   5.334   6.454   4.552 -0.6213 -1.6029  1.4548
 2764TIP3   OH229782   2.134   6.603   0.249  0.1619 -0.2572 -0.0208
 2764TIP3    H129783   2.115   6.523   0.299  0.1059  0.2441  0.7909
 2764TIP3    H229784   2.063   6.610   0.186  1.0609 -1.7451 -1.2588
 2765TIP3   OH229785   1.545   1.104   4.458  0.0913 -0.4081  0.1940
 2765TIP3    H129786   1.580   1.143   4.377 -2.4184 -0.1083 -0.8360
 2765TIP3    H229787   1.621   1.066   4.501  1.8195  1.0707 -1.3798
 2766TIP3   OH229788   3.105   2.312  15.204 -0.1771  0.0433  0.2684
 2766TIP3    H129789   3.073   2.402  15.212 -0.3807 -0.0143  0.1178
 2766TIP3    H229790   3.028   2.261  15.180  0.1283 -0.0039 -0.6858
 2767TIP3   OH229791   4.448   0.303  11.629 -0.2338 -0.4216  0.1540
 2767TIP3    H129792   4.393   0.309  11.707 -1.4651 -1.5242 -0.5806
 2767TIP3    H229793   4.436   0.213  11.599  0.8276 -0.2365 -0.8748
 2768TIP3   OH229794   0.121   5.039  12.121 -0.2156 -0.0698  0.2043
 2768TIP3    H129795   0.160   5.117  12.160  0.3614 -0.3274  0.1565
 2768TIP3    H229796   0.192   4.999  12.070 -0.7351 -0.1744 -0.4547
 2769TIP3   OH229797   0.352   5.378  11.195 -0.0644 -0.0686  0.3017
 2769TIP3    H129798   0.405   5.409  11.121  0.8486  0.5069  1.1824
 2769TIP3    H229799   0.313   5.296  11.163  1.7812 -0.8081 -0.1938
 2770TIP3   OH229800   3.551   5.252  15.651  0.3593  0.2904 -0.2697
 2770TIP3    H129801   3.542   5.159  15.670 -2.4397  0.6139  0.5514
 2770TIP3    H229802   3.573   5.256  15.558  0.7788 -1.1986 -0.2436
 2771TIP3   OH229803   6.169   4.687  14.669  0.8506  0.4427  0.0724
 2771TIP3    H129804   6.188   4.781  14.663 -0.5010  0.7568  0.3403
 2771TIP3    H229805   6.248   4.644  14.636  2.5721  1.5966  2.3983
 2772TIP3   OH229806   1.316   0.895   1.430 -0.2921  0.7436  0.2084
 2772TIP3    H129807   1.325   0.883   1.525 -1.7948 -0.4562  0.2445
 2772TIP3    H229808   1.240   0.953   1.420 -1.6951 -1.0722 -0.2527
 2773TIP3   OH229809   6.798   1.429  16.744  0.1801 -0.4797  0.4548
 2773TIP3    H129810   6.714   1.411  16.702  0.6850 -0.4783 -0.5948
 2773TIP3    H229811   6.863   1.398  16.680  0.9697 -0.8940  1.4405
 2774TIP3   OH229812   3.655   4.695   3.531  0.3584 -0.4675  0.6176
 2774TIP3    H129813   3.608   4.766   3.574 -0.7109 -1.7522  1.6419
 2774TIP3    H229814   3.632   4.704   3.438  0.1250  0.4024  0.7466
 2775TIP3   OH229815   3.272   0.724  11.526  0.4271  0.4070  0.5930
 2775TIP3    H129816   3.198   0.682  11.483 -0.7878  1.1274  1.9111
 2775TIP3    H229817   3.282   0.678  11.609  2.0820 -0.2952  0.0375
 2776TIP3   OH229818   6.148   0.266  15.367  0.2320 -0.3298  0.4023
 2776TIP3    H129819   6.172   0.285  15.277 -0.9132 -1.5019 -0.1904
 2776TIP3    H229820   6.163   0.172  15.377  0.6472 -0.1610  1.5367
 2777TIP3   OH229821   0.794   2.695   0.980  0.1317 -0.2487 -0.2294
 2777TIP3    H129822   0.705   2.720   1.007  0.2156 -0.6122  0.4059
 2777TIP3    H229823   0.851   2.757   1.026  0.1296  1.8956 -2.8489
 2778TIP3   OH229824   3.135   2.621   2.998  0.3188  0.3656 -0.1889
 2778TIP3    H129825   3.151   2.634   3.092  2.0706 -1.3788 -0.1764
 2778TIP3    H229826   3.206   2.668   2.955  0.3384  0.0135 -0.5527
 2779TIP3   OH229827   2.078   0.352  17.151 -0.0106  0.0250 -0.2255
 2779TIP3    H129828   2.041   0.438  17.168 -0.9044 -0.3581 -0.1920
 2779TIP3    H229829   2.071   0.341  17.056 -3.8476 -1.6917  0.0783
 2780TIP3   OH229830   0.157   1.132   2.030  0.3152 -0.3333  0.2271
 2780TIP3    H129831   0.087   1.068   2.020  0.2233 -0.0860 -0.7942
 2780TIP3    H229832   0.152   1.160   2.121 -0.3216 -0.9960  0.3953
 2781TIP3   OH229833   0.206   5.376  12.758 -0.0541 -0.3249 -1.1744
 2781TIP3    H129834   0.299   5.354  12.763 -0.0815 -0.1907  0.2253
 2781TIP3    H229835   0.174   5.367  12.848 -1.4915 -0.7415 -1.7039
 2782TIP3   OH229836   4.706   2.075  15.828 -0.2721  0.2553  0.1217
 2782TIP3    H129837   4.713   2.087  15.734 -2.1643 -0.7192 -0.1976
 2782TIP3    H229838   4.771   2.007  15.848 -1.0047 -0.7530 -0.7869
 2783TIP3   OH229839   1.025   4.792  10.424  0.3827  0.2280  0.1122
 2783TIP3    H129840   1.023   4.878  10.467  0.3803  0.8734 -1.1448
 2783TIP3    H229841   1.093   4.799  10.358 -1.8061  0.4328 -2.3004
 2784TIP3   OH229842   1.701   1.428  14.213 -0.4726  0.3604  0.0763
 2784TIP3    H129843   1.700   1.461  14.303 -0.6442  2.4755 -0.6466
 2784TIP3    H229844   1.786   1.385  14.204  1.4978  3.8211  0.0840
 2785TIP3   OH229845   1.427   2.209   5.311 -0.6565 -0.3528  0.0218
 2785TIP3    H129846   1.397   2.159   5.387  0.2321 -1.2494 -0.1865
 2785TIP3    H229847   1.392   2.163   5.235  0.1517 -0.6756 -0.1738
 2786TIP3   OH229848   5.409   2.166   1.262 -0.2513  0.0155 -0.2415
 2786TIP3    H129849   5.429   2.140   1.352  0.8086 -0.5245 -0.6156
 2786TIP3    H229850   5.315   2.184   1.263  0.0066  1.4926  1.3155
 2787TIP3   OH229851   6.278   0.568  14.712  0.2596  0.2444 -0.5934
 2787TIP3    H129852   6.247   0.547  14.624  2.4321  0.7095 -1.5114
 2787TIP3    H229853   6.201   0.556  14.767 -1.2628  0.3343 -2.5916
 2788TIP3   OH229854   5.500   5.755   3.844 -0.6573 -0.4055  0.1955
 2788TIP3    H129855   5.415   5.713   3.857 -0.5805 -1.3760 -1.9104
 2788TIP3    H229856   5.487   5.815   3.771  0.3463 -0.1844  0.1776
 2789TIP3   OH229857   2.631   0.303  16.769  0.4281  0.4224  0.5383
 2789TIP3    H129858   2.576   0.380  16.758  0.0810  0.0979 -0.0472
 2789TIP3    H229859   2.620   0.254  16.687  0.3412 -0.4345  1.0478
 2790TIP3   OH229860   4.112   5.808  11.560  0.2058 -0.2958 -0.3902
 2790TIP3    H129861   4.136   5.776  11.647 -4.0753 -0.7030  0.8892
 2790TIP3    H229862   4.122   5.732  11.502  1.2576 -0.5521  0.1093
 2791TIP3   OH229863   6.707   6.440   4.196 -0.1022  0.0739  0.1474
 2791TIP3    H129864   6.799   6.436   4.171 -0.0845 -2.4535  0.3447
 2791TIP3    H229865   6.668   6.503   4.136  1.6351  0.7110 -0.3607
 2792TIP3   OH229866   1.954   3.630   0.948  0.0448  0.1559 -0.2207
 2792TIP3    H129867   2.031   3.585   0.913  0.2953 -0.8743  1.5051
 2792TIP3    H229868   1.917   3.568   1.011 -1.4553  1.1547 -0.0732
 2793TIP3   OH229869   5.322   6.226   2.790  0.0014 -0.6373  0.1700
 2793TIP3    H129870   5.246   6.272   2.755 -0.1632 -1.1530 -0.1699
 2793TIP3    H229871   5.328   6.147   2.737  1.6625  0.1000 -0.7720
 2794TIP3   OH229872   5.619   2.847   5.423 -0.6926 -0.3607 -0.1670
 2794TIP3    H129873   5.679   2.913   5.390 -0.9648  0.1740  0.3713
 2794TIP3    H229874   5.604   2.872   5.514 -1.1389 -0.9163 -0.0811
 2795TIP3   OH229875   5.758   2.126   4.424 -0.8404  0.3253  0.0239
 2795TIP3    H129876   5.784   2.216   4.442  0.4141  0.0980 -0.5953
 2795TIP3    H229877   5.821   2.073   4.472 -2.7562 -0.2690  2.0541
 2796TIP3   OH229878   6.050   4.187   4.273  0.1299 -0.1574 -0.2711
 2796TIP3    H129879   6.020   4.134   4.346  1.0179  1.5551  1.4190
 2796TIP3    H229880   5.974   4.240   4.249  0.6830  1.7417  1.7780
 2797TIP3   OH229881   2.197   3.693   5.098  0.6821  0.0273 -0.1318
 2797TIP3    H129882   2.265   3.649   5.148  0.4747 -0.4310 -0.2529
 2797TIP3    H229883   2.133   3.721   5.163 -0.2423 -1.7069 -0.2324
 2798TIP3   OH229884   3.241   1.919  14.106  0.7439 -0.3931 -0.1361
 2798TIP3    H129885   3.325   1.952  14.136  0.5626 -0.0466 -0.0096
 2798TIP3    H229886   3.192   1.997  14.079  0.7762 -0.6551 -1.0089
 2799TIP3   OH229887   5.202   2.842  15.913  0.1162 -0.4386 -0.5256
 2799TIP3    H129888   5.177   2.862  16.003  0.2507 -0.7774 -0.4136
 2799TIP3    H229889   5.237   2.753  15.916  1.0727 -0.0833 -0.7309
 2800TIP3   OH229890   1.847   4.806   5.763 -0.2588  0.6337 -0.0028
 2800TIP3    H129891   1.818   4.749   5.692  0.5121  0.4023 -0.1377
 2800TIP3    H229892   1.788   4.786   5.836  0.4827 -0.9039  0.2096
 2801TIP3   OH229893   4.989   6.030   1.386 -0.7202  0.3109 -0.0340
 2801TIP3    H129894   5.044   6.080   1.326  0.6310  0.1846  1.0312
 2801TIP3    H229895   4.960   5.954   1.336  0.2088  0.3137 -0.5965
 2802TIP3   OH229896   5.986   2.587   0.456  0.2879 -0.3475 -0.1396
 2802TIP3    H129897   6.046   2.513   0.466 -0.2888 -0.9007 -0.6870
 2802TIP3    H229898   6.035   2.662   0.490  0.4815 -1.1554  1.4542
 2803TIP3   OH229899   3.100   3.461  11.000 -0.1717  0.0075 -0.4749
 2803TIP3    H129900   3.143   3.459  10.915 -1.2236  1.3610 -1.0556
 2803TIP3    H229901   3.157   3.517  11.054  0.2728 -0.5119 -0.3928
 2804TIP3   OH229902   4.719   1.044  15.579 -0.3062 -0.8503  0.3849
 2804TIP3    H129903   4.666   1.071  15.654  0.4158 -0.1026  0.6273
 2804TIP3    H229904   4.724   1.122  15.524  0.2305 -1.0327  0.1747
 2805TIP3   OH229905   3.020   2.186   5.878  0.5118  0.2048  0.0421
 2805TIP3    H129906   2.952   2.134   5.920 -0.9552  1.7395 -0.3401
 2805TIP3    H229907   3.028   2.149   5.790 -1.0158  1.0099 -0.4632
 2806TIP3   OH229908   5.128   2.695   4.630  0.1100 -0.3049 -0.7747
 2806TIP3    H129909   5.207   2.668   4.677  0.0509 -1.5688 -1.3455
 2806TIP3    H229910   5.066   2.719   4.699  1.4155  2.1053 -0.3422
 2807TIP3   OH229911   2.791   4.139  16.963  0.0159 -0.0928  0.3458
 2807TIP3    H129912   2.840   4.079  16.907 -0.0908 -0.6191  0.8056
 2807TIP3    H229913   2.725   4.178  16.905  1.4504  1.2210 -0.4731
 2808TIP3   OH229914   1.787   5.511  13.387  0.1898  0.2254 -0.1917
 2808TIP3    H129915   1.697   5.502  13.353 -1.5124  1.6513  3.4031
 2808TIP3    H229916   1.803   5.605  13.386  0.7770  0.1541  1.1200
 2809TIP3   OH229917   1.426   6.180  13.365 -0.3386  0.2011 -0.0355
 2809TIP3    H129918   1.369   6.154  13.436 -1.3264  1.0277 -0.4999
 2809TIP3    H229919   1.515   6.172  13.400 -0.7988  0.2394  1.1523
 2810TIP3   OH229920   5.026   2.604   3.695  0.2979 -0.0898  0.4673
 2810TIP3    H129921   5.059   2.515   3.704 -1.3461 -0.5623  2.7146
 2810TIP3    H229922   5.105   2.659   3.697  1.1723 -1.3329  2.0357
 2811TIP3   OH229923   4.219   6.694  15.587  0.1877 -0.2795  0.3125
 2811TIP3    H129924   4.162   6.755  15.541 -1.6450 -0.4525  2.2363
 2811TIP3    H229925   4.288   6.749  15.625 -0.1978  0.2959  0.1919
 2812TIP3   OH229926   4.705   1.261   0.815 -0.3442 -0.0124 -0.4036
 2812TIP3    H129927   4.643   1.191   0.799 -1.3768  0.2285  2.0613
 2812TIP3    H229928   4.661   1.318   0.879  2.2163  0.3706  1.1655
 2813TIP3   OH229929   3.726   2.549   3.609  0.0214  0.0662  0.4631
 2813TIP3    H129930   3.716   2.606   3.685 -0.4379  1.3646 -0.5337
 2813TIP3    H229931   3.638   2.516   3.591 -0.2974  1.4447 -0.7282
 2814TIP3   OH229932   1.119   0.642  16.908 -0.0463  0.0758  0.2426
 2814TIP3    H129933   1.173   0.573  16.870  2.1500  1.7608  0.1504
 2814TIP3    H229934   1.117   0.623  17.002  0.5954 -0.0883  0.2253
 2815TIP3   OH229935   4.881   1.480  11.879  0.1984  0.2111  0.4437
 2815TIP3    H129936   4.862   1.565  11.839 -3.1515 -0.5970  0.0039
 2815TIP3    H229937   4.856   1.490  11.971  0.8313 -0.0084  0.6437
 2816TIP3   OH229938   6.446   1.286  12.775  0.4176 -0.0306 -0.4587
 2816TIP3    H129939   6.506   1.344  12.822  0.3585  1.4098 -2.0889
 2816TIP3    H229940   6.470   1.296  12.683 -1.3549 -0.5685 -1.0144
 2817TIP3   OH229941   6.224   3.341  15.637 -0.7117  0.1371 -0.5936
 2817TIP3    H129942   6.150   3.392  15.672 -0.9060 -0.5268 -0.0207
 2817TIP3    H229943   6.233   3.268  15.698 -0.5143 -0.5817 -1.4775
 2818TIP3   OH229944   4.124   1.643  14.325  0.6362  0.1375  0.8106
 2818TIP3    H129945   4.148   1.692  14.247  2.3398  1.6868  2.2053
 2818TIP3    H229946   4.032   1.666  14.342  0.2272 -0.2814 -0.7186
 2819TIP3   OH229947   2.179   0.366  13.902  0.2552 -0.3840  0.0546
 2819TIP3    H129948   2.243   0.429  13.934  0.5234 -1.3747  1.5722
 2819TIP3    H229949   2.184   0.373  13.806  0.3758  1.7481  0.1632
 2820TIP3   OH229950   1.390   1.733  15.986 -0.0426  0.0111  0.2965
 2820TIP3    H129951   1.296   1.717  15.994  0.0643 -0.6031  0.3351
 2820TIP3    H229952   1.401   1.824  16.014 -0.5966  0.0230  0.4861
 2821TIP3   OH229953   3.800   1.592  13.846 -0.0887  0.3732 -0.3106
 2821TIP3    H129954   3.771   1.509  13.885 -0.1757 -0.4969 -2.1332
 2821TIP3    H229955   3.762   1.659  13.902 -0.7199 -0.7982  0.7316
 2822TIP3   OH229956   1.215   2.012   3.770 -0.4997  0.1170  0.3962
 2822TIP3    H129957   1.186   2.007   3.861 -1.6692 -0.3826  0.0176
 2822TIP3    H229958   1.273   1.937   3.759  0.8900  1.0265  1.1123
 2823TIP3   OH229959   3.819   3.521  13.130 -0.0212 -0.2467 -0.8261
 2823TIP3    H129960   3.794   3.609  13.158  0.1862  0.2503 -2.1287
 2823TIP3    H229961   3.797   3.519  13.036  1.7264 -0.9195 -1.2518
 2824TIP3   OH229962   1.990   6.027   4.975 -0.0024  0.2380  0.7319
 2824TIP3    H129963   2.080   5.997   4.989  0.5365  2.0059  1.2475
 2824TIP3    H229964   1.937   5.970   5.031  0.7364 -0.9194  0.3125
 2825TIP3   OH229965   5.787   6.565   2.740  0.5352  0.1349  0.1902
 2825TIP3    H129966   5.716   6.509   2.773  2.1777 -1.4140  1.3080
 2825TIP3    H229967   5.772   6.570   2.646 -0.7860 -0.5437  0.3387
 2826TIP3   OH229968   4.321   1.612  11.313 -0.2588  0.3797 -0.0920
 2826TIP3    H129969   4.386   1.591  11.380  0.8168  1.1617 -0.8680
 2826TIP3    H229970   4.269   1.532  11.304  2.1128 -1.1249 -1.1911
 2827TIP3   OH229971   0.965   3.048   4.635 -0.0446  0.4156 -0.1939
 2827TIP3    H129972   0.954   3.053   4.730  0.5975 -1.1569 -0.0078
 2827TIP3    H229973   0.893   3.100   4.600 -0.3309  0.9621  1.1460
 2828TIP3   OH229974   2.040   3.568  11.549  0.7033  0.6330 -0.0897
 2828TIP3    H129975   1.992   3.619  11.484 -0.2041  0.8025  0.6935
 2828TIP3    H229976   1.982   3.565  11.625  0.1893 -2.4813 -0.4556
 2829TIP3   OH229977   1.031   0.438  14.785  0.0949  0.3947 -0.3992
 2829TIP3    H129978   1.007   0.524  14.819  2.9120  1.1322 -0.0065
 2829TIP3    H229979   1.121   0.426  14.813 -0.3182 -2.8932 -0.1665
 2830TIP3   OH229980   3.847   2.896   1.911 -0.5393  0.2291  0.4487
 2830TIP3    H129981   3.910   2.911   1.840 -2.5491  0.0960 -1.4810
 2830TIP3    H229982   3.901   2.875   1.987  1.7060 -1.8313 -1.5435
 2831TIP3   OH229983   5.673   1.643   1.640  0.1133  0.1567  0.2345
 2831TIP3    H129984   5.602   1.702   1.615  1.0722  1.4091  0.3605
 2831TIP3    H229985   5.724   1.692   1.704  0.6606 -1.0120  0.7277
 2832TIP3   OH229986   0.605   0.230   3.617  0.0237 -0.5950 -0.5249
 2832TIP3    H129987   0.633   0.278   3.695  0.1445  0.3213 -1.1136
 2832TIP3    H229988   0.666   0.156   3.611  0.4285 -0.2966 -0.1305
 2833TIP3   OH229989   1.640   2.363   3.139  0.6010  0.0963  0.3152
 2833TIP3    H129990   1.552   2.392   3.115  1.0516  0.7051 -0.7278
 2833TIP3    H229991   1.673   2.432   3.197  0.1835 -0.4347  1.1964
 2834TIP3   OH229992   2.967   0.612   6.030 -0.3269  0.3693  0.0717
 2834TIP3    H129993   3.046   0.570   6.064 -0.3199 -1.8083 -2.3014
 2834TIP3    H229994   2.898   0.547   6.042 -0.7440  0.3689 -1.9524
 2835TIP3   OH229995   6.354   0.223  16.160  0.7478  0.1783 -0.1689
 2835TIP3    H129996   6.326   0.134  16.136  3.9359 -0.6333 -1.5797
 2835TIP3    H229997   6.289   0.280  16.121 -2.6576 -1.4344  2.6299
 2836TIP3   OH229998   2.231   5.985   5.309 -0.2170  0.2673  0.8805
 2836TIP3    H129999   2.246   5.998   5.215 -0.4773 -1.8942  0.4874
 2836TIP3    H230000   2.316   5.955   5.343 -0.3009  0.3694  1.1834
 2837TIP3   OH230001   0.301   0.777   5.396  0.2293 -0.4055  0.2791
 2837TIP3    H130002   0.365   0.732   5.339  0.1944 -1.5655  1.1236
 2837TIP3    H230003   0.216   0.750   5.362  0.1781  0.3561 -0.2290
 2838TIP3   OH230004   2.807   0.884   3.103  0.0405 -0.5161 -0.2640
 2838TIP3    H130005   2.777   0.949   3.167 -1.6371 -2.2533  0.8236
 2838TIP3    H230006   2.890   0.852   3.138 -1.0717 -1.7667  1.3482
 2839TIP3   OH230007   3.924   4.633   2.701 -0.1287  0.1169  0.8147
 2839TIP3    H130008   3.920   4.678   2.617 -2.4170 -0.2590  0.6540
 2839TIP3    H230009   3.912   4.703   2.766 -0.9911  0.1085  0.6805
 2840TIP3   OH230010   4.200   5.005  11.495  0.3495 -0.4495  0.5230
 2840TIP3    H130011   4.205   4.914  11.466  0.9317 -0.8853  1.9281
 2840TIP3    H230012   4.233   5.056  11.420  0.5577 -1.4228 -0.0676
 2841TIP3   OH230013   0.048   5.656  17.117  0.2193  0.0809  0.0241
 2841TIP3    H130014   0.056   5.596  17.191  1.4294 -0.3853 -0.4546
 2841TIP3    H230015   0.139   5.676  17.094 -0.1485  2.1272  0.1860
 2842TIP3   OH230016   6.767   1.061   0.322  0.2746  0.6423 -0.3409
 2842TIP3    H130017   6.852   1.099   0.340 -0.1239  1.4401 -0.1232
 2842TIP3    H230018   6.706   1.135   0.322 -0.7073 -0.1081  1.2643
 2843TIP3   OH230019   0.919   3.460   3.671 -0.2177  0.3663 -0.2854
 2843TIP3    H130020   0.921   3.504   3.756 -0.3231 -1.3622  0.6501
 2843TIP3    H230021   0.989   3.394   3.677  0.3900  0.8324 -1.8959
 2844TIP3   OH230022   0.454   6.504   1.481  0.1705 -0.9364 -0.3927
 2844TIP3    H130023   0.454   6.511   1.577 -0.6836 -0.4786 -0.4144
 2844TIP3    H230024   0.364   6.479   1.460  0.0852 -0.0181 -1.1479
 2845TIP3   OH230025   6.069   3.318  12.796  0.3381 -0.1508  0.1562
 2845TIP3    H130026   6.056   3.401  12.841  0.3849 -0.4742  0.7727
 2845TIP3    H230027   6.054   3.251  12.863  0.3638 -0.6383 -0.3165
 2846TIP3   OH230028   2.729   0.378   1.176  0.3239  0.2939  0.4616
 2846TIP3    H130029   2.668   0.327   1.123  2.5559 -3.4205  1.0921
 2846TIP3    H230030   2.761   0.447   1.118 -1.1761 -0.3942 -1.2438
 2847TIP3   OH230031   6.213   2.664  17.142  0.1291  0.6677 -0.0266
 2847TIP3    H130032   6.234   2.742  17.090  1.6148 -0.7623 -1.7098
 2847TIP3    H230033   6.122   2.643  17.117 -0.4019  2.0091  0.6986
 2848TIP3   OH230034   6.156   4.999   4.705 -0.4633 -0.2617  0.6680
 2848TIP3    H130035   6.087   5.066   4.708 -1.0406 -0.8642  1.1762
 2848TIP3    H230036   6.138   4.950   4.625 -0.3358 -0.1178  0.5511
 2849TIP3   OH230037   3.278   2.409  12.044 -0.0299 -0.0956 -0.3054
 2849TIP3    H130038   3.246   2.345  12.107  0.6484  0.1091  0.2566
 2849TIP3    H230039   3.224   2.395  11.966 -1.4980  0.2630  0.6168
 2850TIP3   OH230040   1.872   3.879   1.030 -0.3704 -0.0535  0.0251
 2850TIP3    H130041   1.928   3.814   0.988  0.6457  0.1327  1.0509
 2850TIP3    H230042   1.788   3.871   0.984 -0.1202 -1.7248 -0.2126
 2851TIP3   OH230043   2.294   3.893   2.453 -0.6285  0.0327  0.6774
 2851TIP3    H130044   2.350   3.861   2.382 -0.4754  0.6681  0.5022
 2851TIP3    H230045   2.264   3.814   2.497 -0.3047 -0.3519  0.2249
 2852TIP3   OH230046   2.682   0.046  16.609  0.1465 -0.0573 -0.0188
 2852TIP3    H130047   2.761   0.082  16.569 -0.4494 -0.1929 -1.3504
 2852TIP3    H230048   2.674  -0.042  16.573 -0.3701 -0.2168  0.4615
 2853TIP3   OH230049   5.928   1.063   5.956  0.0617 -0.4329 -0.3355
 2853TIP3    H130050   5.865   1.114   6.006  1.1424 -2.1087  3.0599
 2853TIP3    H230051   6.012   1.079   5.999  1.2348 -1.4027 -2.1345
 2854TIP3   OH230052   2.837   0.119  15.199 -0.0695 -0.1026  0.3689
 2854TIP3    H130053   2.912   0.178  15.193  0.5644 -0.9537 -0.4262
 2854TIP3    H230054   2.764   0.169  15.162  0.3272  0.3856  0.2393
 2855TIP3   OH230055   2.987   6.439   2.034 -0.3482 -0.3160 -0.1766
 2855TIP3    H130056   2.962   6.360   2.083 -2.3300  0.0970 -0.4487
 2855TIP3    H230057   2.941   6.431   1.950  1.1042  0.1491 -1.0660
 2856TIP3   OH230058   4.734   3.261  11.152 -0.4840 -0.2433  0.2485
 2856TIP3    H130059   4.767   3.337  11.104  0.8236 -1.2293 -0.4665
 2856TIP3    H230060   4.737   3.189  11.089 -2.2303 -0.8065  0.7369
 2857TIP3   OH230061   0.087   6.093   0.623  0.5250 -0.4934 -0.5215
 2857TIP3    H130062   0.148   6.161   0.592  1.9677 -1.1819  0.6901
 2857TIP3    H230063   0.091   6.099   0.718  0.2711 -1.9382 -0.4019
 2858TIP3   OH230064   0.002   0.398   5.434 -0.3325  0.1464 -0.1436
 2858TIP3    H130065   0.043   0.431   5.515  0.7960  1.6019 -1.2477
 2858TIP3    H230066  -0.084   0.438   5.432  0.7736  2.6830 -1.1281
 2859TIP3   OH230067   4.621   4.063   0.555 -0.4222 -0.2161 -0.5076
 2859TIP3    H130068   4.623   3.967   0.557  0.0993 -0.2852 -2.6589
 2859TIP3    H230069   4.528   4.084   0.541 -0.6269 -0.3556  0.5285
 2860TIP3   OH230070   1.266   3.718   5.253  0.3817  0.1423  0.2649
 2860TIP3    H130071   1.288   3.770   5.176  1.9819  1.6103  1.6259
 2860TIP3    H230072   1.180   3.751   5.280 -0.5594 -0.9210 -1.2561
 2861TIP3   OH230073   3.138   4.138  15.580 -0.1607  0.3126  0.6628
 2861TIP3    H130074   3.203   4.103  15.519 -0.8098 -0.0635  0.1744
 2861TIP3    H230075   3.060   4.151  15.527 -0.8197 -0.2580  1.4559
 2862TIP3   OH230076   5.248   0.701   1.765  0.0988 -0.3889  0.1922
 2862TIP3    H130077   5.177   0.647   1.798 -0.1918 -0.9673 -1.3247
 2862TIP3    H230078   5.205   0.768   1.712  0.6134  0.0213  0.2793
 2863TIP3   OH230079   1.146   5.926   5.193 -0.3703 -0.0697 -0.2542
 2863TIP3    H130080   1.068   5.932   5.138 -0.8382  0.0325  0.4043
 2863TIP3    H230081   1.219   5.945   5.134 -0.8934  0.4586 -0.7420
 2864TIP3   OH230082   3.123   5.226   5.352  0.3144 -0.1047 -0.0587
 2864TIP3    H130083   3.192   5.289   5.372  0.3768 -0.0067 -0.5478
 2864TIP3    H230084   3.047   5.280   5.328 -0.3494 -0.1878  1.6981
 2865TIP3   OH230085   1.588   6.407   5.218  0.2467  0.0968 -0.1279
 2865TIP3    H130086   1.602   6.313   5.208  0.5462 -0.0341  1.3060
 2865TIP3    H230087   1.636   6.447   5.145 -1.0107 -0.9080 -1.5579
 2866TIP3   OH230088   6.666   1.450  12.793  0.1847  0.1685 -0.4841
 2866TIP3    H130089   6.750   1.496  12.799  1.1928 -1.6847  0.6562
 2866TIP3    H230090   6.603   1.511  12.831  1.1321  1.3058 -0.6549
 2867TIP3   OH230091   5.820   5.389  13.791 -0.0421  0.0325  0.8082
 2867TIP3    H130092   5.871   5.312  13.766  1.3333  0.4629  2.1911
 2867TIP3    H230093   5.770   5.361  13.867 -1.8961 -0.3577 -0.4751
 2868TIP3   OH230094   1.132   1.360  16.890 -0.4473 -0.1846  0.0094
 2868TIP3    H130095   1.127   1.318  16.975 -0.7868 -0.8696 -0.3440
 2868TIP3    H230096   1.042   1.382  16.868 -0.2406  1.1720  0.3903
 2869TIP3   OH230097   0.721   3.424  13.366  0.0844 -0.2023 -0.1095
 2869TIP3    H130098   0.759   3.416  13.454  0.1693 -0.5060 -0.1728
 2869TIP3    H230099   0.760   3.352  13.317 -2.0684 -1.7919  0.3615
 2870TIP3   OH230100   0.357   1.513  13.808 -0.4330  0.5055  0.5377
 2870TIP3    H130101   0.346   1.532  13.901 -1.3678 -1.0098  0.7842
 2870TIP3    H230102   0.283   1.555  13.766 -0.4654  0.5004  0.5898
 2871TIP3   OH230103   4.869   4.185  12.096 -0.3132 -0.0285 -0.0382
 2871TIP3    H130104   4.868   4.192  12.191 -1.8872 -1.4961  0.1173
 2871TIP3    H230105   4.788   4.227  12.068  0.8561  1.7490 -0.9033
 2872TIP3   OH230106   0.884   4.110   3.218 -0.1048  0.1527  0.3448
 2872TIP3    H130107   0.911   4.044   3.155 -1.7232 -0.1201 -0.1110
 2872TIP3    H230108   0.816   4.161   3.172 -1.1212  0.1268  1.7439
 2873TIP3   OH230109   3.159   3.333   0.253 -0.2515  0.2464  0.3656
 2873TIP3    H130110   3.109   3.295   0.326  0.9717 -1.1995  0.4989
 2873TIP3    H230111   3.093   3.348   0.185 -0.9925 -1.0047  0.7718
 2874TIP3   OH230112   4.528   5.126   2.305 -0.2859  0.3586 -0.3332
 2874TIP3    H130113   4.467   5.171   2.247 -0.6770  1.0161  0.5508
 2874TIP3    H230114   4.530   5.181   2.384 -0.3700 -0.8982  0.5786
 2875TIP3   OH230115   5.996   0.786   2.264 -0.1584 -0.4541  0.4462
 2875TIP3    H130116   5.943   0.788   2.344 -0.5581 -0.5089  0.1870
 2875TIP3    H230117   6.045   0.704   2.269  0.2732 -0.1771  0.9181
 2876TIP3   OH230118   1.385   5.682  13.691 -0.2407 -0.8938 -0.4901
 2876TIP3    H130119   1.427   5.612  13.642  0.3533  0.1048 -1.4614
 2876TIP3    H230120   1.353   5.743  13.623  2.5365  1.6660  0.2869
 2877TIP3   OH230121   1.431   3.634  11.266  0.0270  0.5509 -0.1030
 2877TIP3    H130122   1.504   3.605  11.321  0.5439  1.3349 -0.3528
 2877TIP3    H230123   1.374   3.557  11.259 -0.6890  0.7618  2.5264
 2878TIP3   OH230124   2.776   6.592   4.282  0.3282 -0.6598 -0.0679
 2878TIP3    H130125   2.817   6.519   4.235 -0.3953 -0.5194 -0.9649
 2878TIP3    H230126   2.685   6.591   4.252 -0.1215 -0.4409  1.2204
 2879TIP3   OH230127   1.519   5.146  11.838 -0.1493 -0.1833 -0.0548
 2879TIP3    H130128   1.449   5.206  11.811  0.3267 -0.3843 -1.8418
 2879TIP3    H230129   1.484   5.059  11.820 -0.5317 -0.4788  1.8114
 2880TIP3   OH230130   4.809   3.297  12.530  0.3274 -0.1024  0.4054
 2880TIP3    H130131   4.759   3.295  12.448  0.2562  0.6313  0.4267
 2880TIP3    H230132   4.844   3.385  12.535  0.5857 -0.2336  1.0199
 2881TIP3   OH230133   5.228   1.819  14.377 -0.3450 -0.4044 -0.0414
 2881TIP3    H130134   5.309   1.856  14.412 -1.4387  1.7317  0.4001
 2881TIP3    H230135   5.184   1.781  14.452  0.2464 -1.6606 -0.2995
 2882TIP3   OH230136   4.973   5.328  14.474 -0.1146 -0.1155  0.0476
 2882TIP3    H130137   4.970   5.234  14.491 -0.4784 -0.2533 -0.7092
 2882TIP3    H230138   4.905   5.342  14.408  0.9700  0.4280 -0.9925
 2883TIP3   OH230139   2.703   5.798   1.856 -0.1979  0.3211  0.5344
 2883TIP3    H130140   2.721   5.705   1.850 -2.3797 -0.3520  2.7505
 2883TIP3    H230141   2.744   5.825   1.938  1.6214  1.7022 -0.7557
 2884TIP3   OH230142   1.050   1.847  13.024  0.4677  0.0866 -0.1275
 2884TIP3    H130143   1.125   1.806  13.068 -0.0108 -0.6459  0.0185
 2884TIP3    H230144   1.079   1.860  12.934  0.3106 -1.4785 -0.4381
 2885TIP3   OH230145   1.545   1.173   1.003 -0.2823 -0.2307  0.1886
 2885TIP3    H130146   1.558   1.095   1.057 -0.8632  0.2027  0.9728
 2885TIP3    H230147   1.533   1.244   1.066 -0.0931  0.4428 -0.5168
 2886TIP3   OH230148   2.415   1.586  14.370 -0.0086 -0.3700  0.0031
 2886TIP3    H130149   2.474   1.644  14.416  0.6896 -1.3784  0.4247
 2886TIP3    H230150   2.463   1.558  14.292 -0.4201 -0.2200 -0.3121
 2887TIP3   OH230151   6.767   0.595  11.316 -0.1284  1.0698 -0.6653
 2887TIP3    H130152   6.710   0.518  11.311  1.5856 -0.2275 -1.6511
 2887TIP3    H230153   6.762   0.635  11.230  1.4791  0.0975 -1.2598
 2888TIP3   OH230154   3.298   2.919  13.571 -0.1729  0.1058 -0.3253
 2888TIP3    H130155   3.340   2.866  13.638 -0.4447  0.3355  0.0295
 2888TIP3    H230156   3.306   3.009  13.602 -0.4009  0.2037 -0.5435
 2889TIP3   OH230157   0.036   4.099  12.528  0.3798 -0.3934 -0.5333
 2889TIP3    H130158   0.011   4.017  12.571 -2.0112 -0.5069 -2.0250
 2889TIP3    H230159   0.003   4.091  12.439  1.2789  1.6766 -1.1054
 2890TIP3   OH230160   0.579   3.187   4.047  0.0515 -0.9550 -0.0633
 2890TIP3    H130161   0.530   3.171   4.129 -1.3731  1.6623 -0.3123
 2890TIP3    H230162   0.513   3.221   3.987  1.6197 -0.3122 -1.4650
 2891TIP3   OH230163   6.311   4.809   3.270  0.1950  0.0454 -0.6854
 2891TIP3    H130164   6.383   4.767   3.222  1.0062 -1.5074  1.6900
 2891TIP3    H230165   6.352   4.883   3.314  0.0080  0.0723 -0.5561
 2892TIP3   OH230166   1.620   5.933  10.502  0.0945 -0.4385 -0.5592
 2892TIP3    H130167   1.599   6.010  10.555 -0.2605 -1.3870  0.7252
 2892TIP3    H230168   1.536   5.887  10.494  0.4505 -1.0557 -0.7327
 2893TIP3   OH230169   4.193   0.623  15.036 -0.4229  0.6840  0.5037
 2893TIP3    H130170   4.127   0.678  15.079  0.0605  1.4347  0.2978
 2893TIP3    H230171   4.205   0.549  15.095 -1.4175  0.5608  0.5631
 2894TIP3   OH230172   2.855   2.328   4.995 -0.6347  0.0001  0.2323
 2894TIP3    H130173   2.761   2.326   5.014 -1.2246  1.5150 -2.0790
 2894TIP3    H230174   2.885   2.411   5.032 -0.9928  1.1480 -1.9122
 2895TIP3   OH230175   5.808   4.684  15.262 -0.0399 -0.0607  0.1628
 2895TIP3    H130176   5.717   4.704  15.285 -0.6164 -2.5862  0.3286
 2895TIP3    H230177   5.859   4.757  15.299 -1.9501  1.3882  0.1015
 2896TIP3   OH230178   0.899   4.571   1.397  0.9129  0.1857  0.3262
 2896TIP3    H130179   0.868   4.572   1.307 -0.4788 -1.0026  0.7575
 2896TIP3    H230180   0.993   4.589   1.390  0.4361  2.6447 -1.1282
 2897TIP3   OH230181   2.599   3.578  12.011 -0.3580  0.4748  0.0781
 2897TIP3    H130182   2.649   3.580  11.929  1.4786  1.7753  1.1579
 2897TIP3    H230183   2.528   3.641  11.998 -0.0885  0.6596 -0.5222
 2898TIP3   OH230184   2.291   4.403   4.951 -0.0724  0.1933 -0.8162
 2898TIP3    H130185   2.303   4.317   4.910 -0.7739 -0.8465  1.0179
 2898TIP3    H230186   2.197   4.412   4.962  0.1053  0.0395  1.2240
 2899TIP3   OH230187   1.319   1.247   5.310 -1.1294 -0.3590  0.0908
 2899TIP3    H130188   1.383   1.184   5.279  2.0914  1.6635  2.0673
 2899TIP3    H230189   1.293   1.216   5.397  2.8510  2.1606  2.5259
 2900TIP3   OH230190   1.289   2.544   1.546  0.1307 -0.0932  0.2009
 2900TIP3    H130191   1.297   2.566   1.638 -1.1698  0.5103  0.1867
 2900TIP3    H230192   1.232   2.466   1.544 -1.6667  1.1661 -0.1757
 2901TIP3   OH230193   4.879   1.433   6.416 -0.1560 -0.5811 -0.3428
 2901TIP3    H130194   4.796   1.388   6.399 -0.9974  0.7711  0.0649
 2901TIP3    H230195   4.915   1.450   6.329 -0.2899 -1.1694 -0.5221
 2902TIP3   OH230196   6.145   1.361  12.882 -0.0006 -0.4260  0.6879
 2902TIP3    H130197   6.111   1.343  12.970  1.8805  2.0272  2.0544
 2902TIP3    H230198   6.203   1.288  12.863 -1.1193 -1.4428  1.0600
 2903TIP3   OH230199   1.094   1.231  17.148 -0.4369 -0.1907  0.0032
 2903TIP3    H130200   1.074   1.270  17.232 -1.1102  0.7482 -0.5743
 2903TIP3    H230201   1.123   1.142  17.169 -1.2600 -0.2033  1.1700
 2904TIP3   OH230202   0.931   5.515   1.600 -0.1951  0.3798  0.0936
 2904TIP3    H130203   0.982   5.555   1.530  0.1112  0.6440  0.4637
 2904TIP3    H230204   0.888   5.588   1.644  0.0304  0.2673  0.5096
 2905TIP3   OH230205   0.487   0.567   4.080 -0.7507 -0.1235  0.6786
 2905TIP3    H130206   0.393   0.578   4.099 -1.0235 -0.5401 -0.3636
 2905TIP3    H230207   0.531   0.620   4.147 -1.6804 -0.8062  1.8746
 2906TIP3   OH230208   5.535   6.448   1.379  0.2424  0.5126  0.4240
 2906TIP3    H130209   5.596   6.482   1.444  2.7638 -0.7337 -1.1194
 2906TIP3    H230210   5.514   6.523   1.323  0.4782  0.9205  0.8762
 2907TIP3   OH230211   6.709   6.502  16.642  0.2057  0.3465 -0.5813
 2907TIP3    H130212   6.758   6.553  16.706 -0.4613 -0.2476  0.4385
 2907TIP3    H230213   6.691   6.564  16.570  1.0926  0.9795 -0.2740
 2908TIP3   OH230214   0.137   3.860   4.292 -0.5397 -0.3654  0.0336
 2908TIP3    H130215   0.147   3.808   4.213 -1.4554 -2.4789  1.2192
 2908TIP3    H230216   0.144   3.951   4.263  1.0167 -1.1218 -2.1445
 2909TIP3   OH230217   0.097   6.769  15.098  0.3615  0.0958 -0.3247
 2909TIP3    H130218   0.042   6.833  15.144  1.7459  0.8212  0.3687
 2909TIP3    H230219   0.186   6.801  15.110  1.0398 -1.6678 -0.4659
 2910TIP3   OH230220   4.214   2.655  11.559  0.4011 -0.7155  0.2063
 2910TIP3    H130221   4.249   2.732  11.603 -1.2042  0.9202 -1.2029
 2910TIP3    H230222   4.256   2.654  11.474 -0.3669 -0.7506 -0.1849
 2911TIP3   OH230223   5.265   6.463   5.566  0.1150  0.5777 -0.7741
 2911TIP3    H130224   5.287   6.377   5.603  0.6988  0.5212 -1.2405
 2911TIP3    H230225   5.265   6.522   5.641  1.1156  0.4325 -0.6561
 2912TIP3   OH230226   0.916   6.762  14.862  0.0295  0.2069  0.1689
 2912TIP3    H130227   0.999   6.717  14.878 -0.1244 -0.2966 -0.4441
 2912TIP3    H230228   0.873   6.764  14.948  1.0349  1.2253  0.6802
 2913TIP3   OH230229   1.501   5.786   2.377  0.1331 -0.1471 -0.2726
 2913TIP3    H130230   1.465   5.870   2.347 -0.2718 -0.8424 -1.7996
 2913TIP3    H230231   1.425   5.730   2.388  0.2053  0.1954  2.6245
 2914TIP3   OH230232   5.808   2.781   5.686 -0.2298 -0.1742 -0.6218
 2914TIP3    H130233   5.714   2.796   5.693 -0.2919 -0.2395 -1.2151
 2914TIP3    H230234   5.819   2.689   5.711 -0.3770 -0.2787 -0.9369
 2915TIP3   OH230235   2.750   4.003  15.101  0.0777  0.2165 -0.3072
 2915TIP3    H130236   2.730   4.039  15.187 -0.3177  0.0623 -0.3306
 2915TIP3    H230237   2.808   3.929  15.119  2.5314  2.0151 -0.3976
 2916TIP3   OH230238   0.913   0.920  13.993 -0.5306 -0.6574  0.2249
 2916TIP3    H130239   0.854   0.850  13.965 -0.4230  0.0413 -1.9209
 2916TIP3    H230240   0.855   0.993  14.016 -0.5944 -1.0357  1.3193
 2917TIP3   OH230241   1.101   1.432   5.562 -0.2821 -0.4424  0.2824
 2917TIP3    H130242   1.105   1.527   5.551  0.0804 -0.6251 -1.3413
 2917TIP3    H230243   1.056   1.420   5.646 -0.2429  1.1554  0.5663
 2918TIP3   OH230244   2.908   3.300  14.689  0.2353 -0.2200 -0.0416
 2918TIP3    H130245   2.975   3.317  14.623  0.8982  0.9215  0.8851
 2918TIP3    H230246   2.958   3.283  14.769 -0.5669  1.1124  0.7722
 2919TIP3   OH230247   6.573   0.395  11.302 -0.5165  0.3564 -0.1253
 2919TIP3    H130248   6.506   0.328  11.286  0.0444  0.0351 -1.2517
 2919TIP3    H230249   6.524   0.477  11.307 -0.8456  0.4007 -2.9461
 2920TIP3   OH230250   3.906   4.648   1.797  0.0573  0.3812  0.0015
 2920TIP3    H130251   3.918   4.632   1.890  2.8596  0.3641 -0.2797
 2920TIP3    H230252   3.903   4.560   1.758 -1.4885  0.3766  0.0556
 2921TIP3   OH230253   1.750   3.286  16.205  0.5699 -0.2235 -0.0108
 2921TIP3    H130254   1.715   3.308  16.292 -0.1197 -0.4499 -0.2221
 2921TIP3    H230255   1.704   3.206  16.181  1.9999 -1.1087  0.1296
 2922TIP3   OH230256   4.063   2.006  14.965 -0.2199 -0.2209  0.5006
 2922TIP3    H130257   4.088   2.098  14.981 -0.1771 -0.1510  0.0327
 2922TIP3    H230258   4.051   1.970  15.053  1.3636 -0.2076  0.7517
 2923TIP3   OH230259   5.088   4.205   0.806 -0.1866 -0.5794 -0.2172
 2923TIP3    H130260   5.105   4.117   0.841 -0.6303 -0.8070 -0.5664
 2923TIP3    H230261   4.996   4.204   0.782 -0.0367 -0.2226 -0.8164
 2924TIP3   OH230262   3.734   2.151  11.976 -0.8358 -0.4394  0.4022
 2924TIP3    H130263   3.651   2.157  11.928 -0.6169  0.5506  0.1236
 2924TIP3    H230264   3.799   2.187  11.915  0.3958 -3.9839 -0.6517
 2925TIP3   OH230265   5.714   5.086   3.207 -0.3161  0.1390 -0.0189
 2925TIP3    H130266   5.654   5.155   3.235 -0.5571  0.4933 -1.3179
 2925TIP3    H230267   5.795   5.133   3.183 -0.2837 -0.0871 -0.3621
 2926TIP3   OH230268   5.210   5.525   0.741 -0.2836  0.4194  0.1928
 2926TIP3    H130269   5.304   5.521   0.722  0.0384  1.3777  1.5055
 2926TIP3    H230270   5.204   5.521   0.836 -1.5311  1.0413  0.1579
 2927TIP3   OH230271   3.188   6.754  11.551  1.1950 -0.2194 -0.4102
 2927TIP3    H130272   3.266   6.749  11.605  1.2643 -1.2941 -0.5933
 2927TIP3    H230273   3.219   6.736  11.462  1.0267  1.1805 -0.7736
 2928TIP3   OH230274   4.204   1.565   1.212  0.2701 -0.5152  0.1267
 2928TIP3    H130275   4.171   1.629   1.148 -0.1742  1.7723  2.4986
 2928TIP3    H230276   4.131   1.551   1.271  1.6373 -0.0367  2.0075
 2929TIP3   OH230277   0.518   5.044  14.236 -0.2084 -0.2617  0.7321
 2929TIP3    H130278   0.492   4.973  14.179  1.3018 -0.0409 -0.2750
 2929TIP3    H230279   0.435   5.087  14.260 -1.0470 -1.7316  0.5887
 2930TIP3   OH230280   2.854   1.443   0.260 -0.0020  0.4709 -0.0401
 2930TIP3    H130281   2.830   1.448   0.352 -1.3437  1.0398 -0.3987
 2930TIP3    H230282   2.770   1.443   0.213  0.6662  0.7237 -1.2775
 2931TIP3   OH230283   6.238   1.124   3.649 -0.3501 -0.0847 -0.7505
 2931TIP3    H130284   6.295   1.173   3.709  0.3777 -1.7474 -0.0193
 2931TIP3    H230285   6.248   1.033   3.676 -0.3869 -0.8438 -3.0847
 2932TIP3   OH230286   2.022   4.157  12.662  0.7109  0.2839  0.5488
 2932TIP3    H130287   2.110   4.119  12.660  0.1010 -1.2208  1.0885
 2932TIP3    H230288   1.985   4.136  12.577  0.9323  1.1178  0.2345
 2933TIP3   OH230289   2.690   4.327   6.437 -0.2252  0.9116 -0.6033
 2933TIP3    H130290   2.784   4.333   6.458 -0.1957  1.0406 -0.7703
 2933TIP3    H230291   2.657   4.415   6.451 -0.6844  0.4916  1.1484
 2934TIP3   OH230292   3.645   1.790   4.295  0.4112 -0.2201 -0.0568
 2934TIP3    H130293   3.631   1.700   4.265  2.8368 -0.3175 -1.2062
 2934TIP3    H230294   3.721   1.784   4.353  0.7387  1.0764 -0.3123
 2935TIP3   OH230295   5.411   2.043  12.409  0.3504 -0.6194  0.0485
 2935TIP3    H130296   5.354   2.044  12.332 -1.0114 -0.1219  1.0112
 2935TIP3    H230297   5.466   2.120  12.399 -0.4911 -0.0014  0.0298
 2936TIP3   OH230298   2.806   0.522   4.406  0.0752  0.1239  0.0888
 2936TIP3    H130299   2.717   0.537   4.373  0.1108 -1.3229 -0.7714
 2936TIP3    H230300   2.859   0.513   4.327  0.7534 -0.3013  0.5819
 2937TIP3   OH230301   4.106   2.330   5.710 -0.2675 -0.8018  0.4290
 2937TIP3    H130302   4.149   2.354   5.793  0.5393  0.6523 -0.3749
 2937TIP3    H230303   4.137   2.395   5.647 -1.9282 -1.0640 -0.7215
 2938TIP3   OH230304   5.064   0.065  12.097  0.6294 -0.5609 -0.6332
 2938TIP3    H130305   5.006   0.142  12.105  0.5234 -0.4252 -2.3898
 2938TIP3    H230306   5.097   0.051  12.186 -0.0356  0.9858 -0.1044
 2939TIP3   OH230307   2.122   3.738  12.147  0.3898  0.0489  0.1141
 2939TIP3    H130308   2.196   3.766  12.093  0.6476  2.8786  1.7013
 2939TIP3    H230309   2.095   3.654  12.110  3.1564 -0.1669 -1.7202
 2940TIP3   OH230310   1.331   4.666   1.181 -0.0499 -0.1533  0.1772
 2940TIP3    H130311   1.310   4.575   1.203  0.6296 -0.5380 -0.6943
 2940TIP3    H230312   1.257   4.717   1.214 -0.4733 -1.0335  0.6084
 2941TIP3   OH230313   5.979   2.905  12.251  0.3956  0.7556  0.3388
 2941TIP3    H130314   6.008   2.930  12.339 -0.3111 -0.4542  0.9454
 2941TIP3    H230315   5.915   2.835  12.266  0.4294  0.3729 -1.1504
 2942TIP3   OH230316   5.937   1.250   4.720  0.0792 -0.7060 -0.0308
 2942TIP3    H130317   5.870   1.298   4.671  1.2234  1.7211  0.6232
 2942TIP3    H230318   5.888   1.182   4.766 -1.5970 -0.4669 -1.3422
 2943TIP3   OH230319   3.599   4.655   4.811  0.2109 -0.4309  0.1790
 2943TIP3    H130320   3.553   4.667   4.894  0.4503 -1.5021  0.4861
 2943TIP3    H230321   3.679   4.707   4.820  0.0979 -0.3113  0.5051
 2944TIP3   OH230322   2.831   1.904   0.827 -0.2304 -0.0476  0.3184
 2944TIP3    H130323   2.775   1.859   0.764 -1.4941 -0.9535  2.0138
 2944TIP3    H230324   2.801   1.873   0.912  1.3959  1.1638  1.3892
 2945TIP3   OH230325   3.445   0.845   4.732  0.2128  0.4574  0.0149
 2945TIP3    H130326   3.380   0.775   4.740  1.7134 -1.1933 -1.2940
 2945TIP3    H230327   3.400   0.923   4.763 -2.3315 -0.6285 -0.6654
 2946TIP3   OH230328   5.276   6.467  17.107  0.5498 -0.2550  0.6149
 2946TIP3    H130329   5.276   6.525  17.031  2.1798  0.1961  0.9155
 2946TIP3    H230330   5.327   6.391  17.078 -1.3681 -1.4934  0.2992
 2947TIP3   OH230331   3.425   5.729  13.002 -0.0115  0.4135  0.7154
 2947TIP3    H130332   3.444   5.636  13.015 -0.4729  0.2746  0.4150
 2947TIP3    H230333   3.511   5.771  13.002  0.1081  0.3131  3.2213
 2948TIP3   OH230334   4.880   3.537   4.635  0.1215  0.0262  0.1588
 2948TIP3    H130335   4.973   3.513   4.637  0.3650  0.9568  1.0288
 2948TIP3    H230336   4.878   3.626   4.671 -0.8695  0.8061 -1.6922
 2949TIP3   OH230337   4.332   4.061  10.614  0.0832 -0.2450 -0.4795
 2949TIP3    H130338   4.267   4.118  10.655  0.3684 -0.3282  0.0880
 2949TIP3    H230339   4.374   4.116  10.549 -0.7515 -0.2686 -1.0620
 2950TIP3   OH230340   1.177   5.647  13.021 -0.2985 -0.1594 -0.1145
 2950TIP3    H130341   1.116   5.716  13.045  1.1861  0.7796  1.1586
 2950TIP3    H230342   1.122   5.576  12.988 -2.0115  0.7956  0.5889
 2951TIP3   OH230343   3.325   5.212  10.872 -0.8019  0.0301  0.1745
 2951TIP3    H130344   3.255   5.166  10.825 -0.7831  1.1837 -1.0739
 2951TIP3    H230345   3.345   5.288  10.816 -0.4577  1.2400  1.8673
 2952TIP3   OH230346   2.325   5.626   2.787  0.0019 -0.9011 -0.8078
 2952TIP3    H130347   2.411   5.665   2.768  0.5264 -2.5354 -2.0013
 2952TIP3    H230348   2.322   5.548   2.732 -1.4375 -1.9742  0.7216
 2953TIP3   OH230349   4.803   4.701  17.106  0.0987  0.5404  0.3030
 2953TIP3    H130350   4.755   4.779  17.081 -2.4834 -0.8104  0.6701
 2953TIP3    H230351   4.762   4.673  17.188  0.9717 -1.1616  0.2049
 2954TIP3   OH230352   4.377   3.751   3.826  0.7499  0.0251  0.0535
 2954TIP3    H130353   4.434   3.688   3.870  0.4067 -0.3162  0.0086
 2954TIP3    H230354   4.288   3.719   3.841  0.6532 -0.6366 -1.6942
 2955TIP3   OH230355   1.652   2.569   3.602  0.8891  0.8640  0.5932
 2955TIP3    H130356   1.611   2.484   3.616  1.4509  0.3986 -0.4121
 2955TIP3    H230357   1.743   2.555   3.628  0.8382  1.3424  1.0241
 2956TIP3   OH230358   5.403   6.102   2.148 -0.3595 -0.8079 -0.0986
 2956TIP3    H130359   5.494   6.108   2.118  0.2547 -2.3871  1.2760
 2956TIP3    H230360   5.356   6.063   2.075  0.5640 -2.1033 -0.0434
 2957TIP3   OH230361   4.453   4.401  14.978  0.0858  0.7811  0.6505
 2957TIP3    H130362   4.527   4.384  14.920  0.7327 -0.7086  1.8310
 2957TIP3    H230363   4.445   4.496  14.979  0.5418  0.8870 -1.2365
 2958TIP3   OH230364   5.703   1.079  16.809  0.1580 -0.0962  0.4869
 2958TIP3    H130365   5.767   1.149  16.807  1.5409 -1.3101  1.0660
 2958TIP3    H230366   5.705   1.042  16.720 -0.8735  0.8283  0.0602
 2959TIP3   OH230367   6.134   2.432   5.895 -0.2146 -0.3237  0.0464
 2959TIP3    H130368   6.187   2.386   5.959 -0.9023 -0.3354  0.6256
 2959TIP3    H230369   6.045   2.429   5.931 -0.4764  0.3708 -0.5136
 2960TIP3   OH230370   4.217   4.214   1.622  0.1145 -0.4803 -0.2800
 2960TIP3    H130371   4.285   4.148   1.604  1.5144  0.7491  0.2696
 2960TIP3    H230372   4.172   4.180   1.699  0.4176 -1.0829 -0.3549
 2961TIP3   OH230373   0.077   0.989   4.091  0.6961 -0.0067 -0.0588
 2961TIP3    H130374   0.169   0.976   4.069  0.5053  0.0021 -0.9089
 2961TIP3    H230375   0.030   0.930   4.033  0.0476  1.4439 -1.0749
 2962TIP3   OH230376   0.668   6.618   3.243 -1.1974 -0.0414  0.2970
 2962TIP3    H130377   0.669   6.530   3.206 -2.5528  0.6481 -1.5369
 2962TIP3    H230378   0.758   6.649   3.232 -0.1348 -1.8755  2.9093
 2963TIP3   OH230379   2.807   6.270  16.518  0.4121  0.2036 -0.1367
 2963TIP3    H130380   2.803   6.350  16.466 -0.6474 -0.5146 -1.2099
 2963TIP3    H230381   2.741   6.283  16.587 -0.7207 -0.2555 -1.1028
 2964TIP3   OH230382   1.739   4.088  12.783 -0.1130  0.1882  0.3400
 2964TIP3    H130383   1.814   4.148  12.782 -0.3164  0.4571  0.9767
 2964TIP3    H230384   1.722   4.072  12.876  0.7449 -1.8983  0.1918
 2965TIP3   OH230385   1.075   3.195   0.712 -0.4773  0.5903  0.3527
 2965TIP3    H130386   1.145   3.240   0.761  0.5524  1.2328 -1.6183
 2965TIP3    H230387   0.995   3.236   0.744  0.3457  3.0851 -0.4905
 2966TIP3   OH230388   4.223   1.693   2.440  0.1744  0.3992  0.5878
 2966TIP3    H130389   4.193   1.718   2.527 -0.7788 -1.4783  0.8539
 2966TIP3    H230390   4.280   1.617   2.455 -0.0652  0.0004 -0.4085
 2967TIP3   OH230391   0.128   5.515  12.510 -0.5247  0.1756  0.6005
 2967TIP3    H130392   0.138   5.480  12.598 -0.9134 -1.1572  0.1395
 2967TIP3    H230393   0.048   5.474  12.477 -0.9608  1.4747 -0.0022
 2968TIP3   OH230394   5.404   2.053   0.318 -0.7757  0.2543  0.2667
 2968TIP3    H130395   5.469   2.092   0.376 -0.6477 -1.6869  1.4886
 2968TIP3    H230396   5.337   2.017   0.377 -1.5488 -0.2191 -0.8624
 2969TIP3   OH230397   4.818   1.544   3.891  0.4945 -0.1808 -0.5123
 2969TIP3    H130398   4.822   1.599   3.969  0.5543  0.7554 -1.1530
 2969TIP3    H230399   4.769   1.597   3.827 -0.0244 -1.1473 -0.9341
 2970TIP3   OH230400   0.057   6.426   3.814  0.5538  0.2671 -0.0067
 2970TIP3    H130401   0.112   6.393   3.885 -1.8124  0.3302  1.9892
 2970TIP3    H230402  -0.012   6.475   3.858 -0.1721  1.6583 -2.4761
 2971TIP3   OH230403   1.241   1.367  13.087 -0.1363  0.2659 -0.2661
 2971TIP3    H130404   1.212   1.450  13.051  3.4079  1.2716 -1.2526
 2971TIP3    H230405   1.230   1.376  13.182 -0.0006  1.8009 -0.3784
 2972TIP3   OH230406   3.391   1.427   0.301 -0.1273  0.3631 -0.5992
 2972TIP3    H130407   3.411   1.406   0.392 -0.6502 -1.0858 -0.7996
 2972TIP3    H230408   3.405   1.345   0.253 -2.6020  0.2960 -1.3595
 2973TIP3   OH230409   4.166   5.024   5.841 -0.2471  0.1627  0.0522
 2973TIP3    H130410   4.230   5.024   5.912 -0.8456  1.1299  0.6058
 2973TIP3    H230411   4.192   5.098   5.785 -0.3134 -0.0353 -0.2447
 2974TIP3   OH230412   1.034   3.353  11.698  0.4751  0.2461 -0.5831
 2974TIP3    H130413   1.117   3.400  11.686  0.8494  0.4734  2.1708
 2974TIP3    H230414   1.048   3.269  11.655  1.6483  0.7642 -1.2803
 2975TIP3   OH230415   1.697   3.584   1.955  0.5776  0.0950 -0.6809
 2975TIP3    H130416   1.654   3.498   1.960  2.0566 -0.6478  0.1570
 2975TIP3    H230417   1.781   3.571   2.000  1.0433  1.8655 -0.9640
 2976TIP3   OH230418   2.604   1.148   1.204 -0.0273 -0.5262  0.2355
 2976TIP3    H130419   2.616   1.057   1.230 -1.0331 -0.6709  0.2084
 2976TIP3    H230420   2.685   1.170   1.158  0.8337 -0.9585  1.4825
 2977TIP3   OH230421   1.794   0.297   5.066  0.5891 -0.7307 -0.1536
 2977TIP3    H130422   1.810   0.257   5.152 -0.9572  0.2167  0.6231
 2977TIP3    H230423   1.699   0.290   5.054  0.3625  1.8066 -0.3955
 2978TIP3   OH230424   1.229   1.737   5.604 -0.1646 -0.3425  0.2788
 2978TIP3    H130425   1.298   1.684   5.565  1.0597  2.1942 -1.2698
 2978TIP3    H230426   1.168   1.754   5.532 -0.2775  0.7134  0.6062
 2979TIP3   OH230427   5.149   2.596  12.674 -0.7872  0.4266 -0.3258
 2979TIP3    H130428   5.234   2.557  12.651 -0.3605 -0.4515  2.4444
 2979TIP3    H230429   5.088   2.522  12.673 -1.5098  1.0024 -1.9896
 2980TIP3   OH230430   5.125   1.493   3.972  0.4746 -0.1601  0.6849
 2980TIP3    H130431   5.084   1.408   3.988  1.1807 -1.1052 -1.9832
 2980TIP3    H230432   5.078   1.553   4.029 -2.3586 -1.7580  0.2305
 2981TIP3   OH230433   0.956   3.704  11.588 -0.0221 -0.0430  1.2105
 2981TIP3    H130434   0.965   3.790  11.629  1.0475  1.1048 -1.2484
 2981TIP3    H230435   1.042   3.686  11.551 -0.3130 -2.0712  1.4167
 2982TIP3   OH230436   3.376   3.910  11.456  0.1869 -0.2764  0.2005
 2982TIP3    H130437   3.365   3.945  11.368 -0.4141 -0.4459  0.2021
 2982TIP3    H230438   3.436   3.970  11.499 -1.2195  1.0632  0.3744
 2983TIP3   OH230439   6.390   2.712  13.496  0.0456 -0.4168  0.3810
 2983TIP3    H130440   6.377   2.630  13.449  0.9387 -0.4136  0.1201
 2983TIP3    H230441   6.428   2.687  13.580  0.6916 -0.2515  0.1445
 2984TIP3   OH230442   4.694   2.561  15.211  0.3916 -0.3005  0.5031
 2984TIP3    H130443   4.622   2.501  15.193  1.0467 -0.8936 -0.2450
 2984TIP3    H230444   4.662   2.618  15.281 -0.5086 -1.0497  0.7141
 2985TIP3   OH230445   2.385   4.762   6.459 -0.7788  0.1268  0.0188
 2985TIP3    H130446   2.431   4.737   6.539 -1.0715 -0.2590  0.0687
 2985TIP3    H230447   2.347   4.680   6.426 -2.1128  0.5532  0.4165
 2986TIP3   OH230448   3.570   2.406  14.564 -0.0617  0.0071 -0.4547
 2986TIP3    H130449   3.528   2.488  14.590 -0.3224 -0.2131 -0.1693
 2986TIP3    H230450   3.601   2.367  14.646 -0.2412 -0.3431 -0.5487
 2987TIP3   OH230451   0.491   2.458  12.069  0.1442  0.7561  0.4232
 2987TIP3    H130452   0.503   2.385  12.130  1.3954 -0.0597 -0.7384
 2987TIP3    H230453   0.502   2.419  11.982 -0.1199  2.1578 -0.2699
 2988TIP3   OH230454   0.543   2.806   2.575  0.2526  0.1495  0.3824
 2988TIP3    H130455   0.558   2.713   2.594  2.4736  0.7286  1.8056
 2988TIP3    H230456   0.475   2.831   2.637 -0.0934 -0.4287  0.2498
 2989TIP3   OH230457   5.119   4.114   5.034  0.6510  0.2125  0.0541
 2989TIP3    H130458   5.193   4.058   5.012  0.5822  0.0049  0.3441
 2989TIP3    H230459   5.088   4.148   4.950  0.6480 -0.2400 -0.1284
 2990TIP3   OH230460   5.047   2.074  12.417 -0.4586 -0.3625 -0.3248
 2990TIP3    H130461   5.082   2.145  12.364  0.1265 -1.1274 -1.0084
 2990TIP3    H230462   4.979   2.034  12.363 -0.2059 -0.8359 -0.3025
 2991TIP3   OH230463   1.479   3.223   2.195  0.4411  0.6692  0.0121
 2991TIP3    H130464   1.570   3.253   2.191  0.5670  0.3726  0.5914
 2991TIP3    H230465   1.462   3.210   2.288 -0.1026  0.4268 -0.1168
 2992TIP3   OH230466   3.862   3.325   1.343  0.1105  0.3277 -0.3601
 2992TIP3    H130467   3.933   3.263   1.326  0.9432  1.6598 -2.1166
 2992TIP3    H230468   3.802   3.313   1.269 -0.1204  1.0535 -0.2954
 2993TIP3   OH230469   1.336   3.946   2.258  0.1724  0.5384  0.9417
 2993TIP3    H130470   1.271   3.968   2.191  2.0408  1.6774 -0.6127
 2993TIP3    H230471   1.291   3.884   2.315 -2.2803  1.3282  0.0133
 2994TIP3   OH230472   3.602   0.536  15.684  0.2065 -0.2933  0.1740
 2994TIP3    H130473   3.535   0.582  15.633  1.1103 -2.0065 -2.8080
 2994TIP3    H230474   3.555   0.505  15.762 -2.3927 -0.9531 -1.5002
 2995TIP3   OH230475   2.885   4.371   5.998  0.6070 -0.3847  0.2838
 2995TIP3    H130476   2.840   4.313   6.059 -0.1308  0.3845  0.4960
 2995TIP3    H230477   2.892   4.321   5.917  0.6632 -1.0367  0.6883
 2996TIP3   OH230478   0.322   1.874   4.917  0.2460 -0.0623 -0.0620
 2996TIP3    H130479   0.376   1.950   4.895  2.3816 -1.5286 -0.1277
 2996TIP3    H230480   0.288   1.844   4.832  0.8277 -0.1831 -0.2584
 2997TIP3   OH230481   6.564   2.950  12.429 -0.8281 -0.1735  0.6075
 2997TIP3    H130482   6.482   2.911  12.461 -0.4253  0.1955  2.1639
 2997TIP3    H230483   6.589   3.013  12.497  0.1224  0.6075 -0.4241
 2998TIP3   OH230484   6.221   3.067  15.204 -0.0045  0.0911  0.3205
 2998TIP3    H130485   6.239   2.974  15.219  0.8006  0.4074  1.4363
 2998TIP3    H230486   6.193   3.071  15.112 -2.7471 -1.6247  0.9252
 2999TIP3   OH230487   1.891   0.801  11.068 -0.4747  0.0236  0.0530
 2999TIP3    H130488   1.956   0.812  10.999 -0.3254  2.2073  0.4497
 2999TIP3    H230489   1.811   0.777  11.021 -0.2272  0.8474 -0.8275
 3000TIP3   OH230490   1.348   4.612  15.390  0.2959  0.0003  0.1206
 3000TIP3    H130491   1.399   4.640  15.466 -0.0463 -0.1888  0.4255
 3000TIP3    H230492   1.381   4.525  15.369  2.3332  1.1060 -1.6909
 3001TIP3   OH230493   2.347   5.967  12.296 -0.5046  0.0673 -0.3896
 3001TIP3    H130494   2.370   6.058  12.315 -1.0211  0.3877 -1.2174
 3001TIP3    H230495   2.431   5.921  12.290 -0.2846 -0.0421  2.3239
 3002TIP3   OH230496   6.688   3.886   1.285 -0.3669 -0.3632 -0.0663
 3002TIP3    H130497   6.694   3.814   1.222  2.3005 -0.6620  0.4022
 3002TIP3    H230498   6.678   3.964   1.231  1.8497 -0.6186 -0.9343
 3003TIP3   OH230499   2.904   6.760   1.426 -0.1583 -0.0245  0.7368
 3003TIP3    H130500   2.835   6.807   1.473  0.2582  0.3676  0.9647
 3003TIP3    H230501   2.870   6.748   1.337 -0.8429 -0.5369  1.0618
 3004TIP3   OH230502   6.172   6.592  16.811 -0.2521 -0.1164 -0.5212
 3004TIP3    H130503   6.191   6.527  16.743 -0.2153 -0.3939 -0.2528
 3004TIP3    H230504   6.121   6.543  16.876  3.4321 -1.1607  1.9030
 3005TIP3   OH230505   0.791   3.821   4.408  0.3366 -0.1957  0.0330
 3005TIP3    H130506   0.865   3.826   4.467 -0.1981 -1.1884  0.8201
 3005TIP3    H230507   0.823   3.772   4.332  0.4620 -0.6813  0.4006
 3006TIP3   OH230508   3.931   4.373   4.325  0.1022  0.5689 -0.0482
 3006TIP3    H130509   3.918   4.397   4.233  0.9340  1.1145 -0.0300
 3006TIP3    H230510   3.977   4.290   4.322 -0.5838  0.1883 -0.1204
 3007TIP3   OH230511   2.249   3.249  15.122 -0.1124 -0.2841 -0.3443
 3007TIP3    H130512   2.275   3.168  15.165 -0.4961 -0.0079  0.4150
 3007TIP3    H230513   2.154   3.250  15.126 -0.0846  1.1545  1.4891
 3008TIP3   OH230514   4.743   0.658   0.763 -0.0869 -0.2879  0.5057
 3008TIP3    H130515   4.804   0.584   0.764  2.0076  1.2251 -1.7913
 3008TIP3    H230516   4.674   0.632   0.701  1.2063 -0.0208 -1.1336
 3009TIP3   OH230517   3.595   5.731  15.611 -0.5042 -0.5219  0.6455
 3009TIP3    H130518   3.549   5.654  15.643 -0.2920 -0.2229  1.7227
 3009TIP3    H230519   3.556   5.749  15.526  0.5378 -2.7515 -0.3773
 3010TIP3   OH230520   4.218   0.515   3.600  0.4300  0.5234  0.4069
 3010TIP3    H130521   4.165   0.596   3.596 -0.5490 -0.1546 -1.6009
 3010TIP3    H230522   4.308   0.546   3.602  0.0870  1.6950 -0.7714
 3011TIP3   OH230523   0.702   5.866   3.466  0.1119  0.1241  0.5307
 3011TIP3    H130524   0.631   5.802   3.456  0.9512 -0.7240 -0.2486
 3011TIP3    H230525   0.674   5.940   3.412  0.6417 -0.9769 -1.3803
 3012TIP3   OH230526   5.642   4.946  10.358 -0.1466 -0.3823 -0.0709
 3012TIP3    H130527   5.579   4.881  10.391  0.2114  0.3967  2.3331
 3012TIP3    H230528   5.722   4.896  10.341 -0.5561 -0.9215 -0.4473
 3013TIP3   OH230529   1.235   0.351  11.391  0.0243 -0.3273 -0.9524
 3013TIP3    H130530   1.214   0.263  11.361  0.4700 -0.1862 -1.7051
 3013TIP3    H230531   1.328   0.362  11.369  0.5166 -0.3863  0.9035
 3014TIP3   OH230532   3.182   3.445  12.757  0.3953  0.5824  0.3483
 3014TIP3    H130533   3.096   3.412  12.784  0.6366 -0.8433 -0.4901
 3014TIP3    H230534   3.243   3.376  12.782  1.3090  1.5669  0.8997
 3015TIP3   OH230535   5.038   1.310  14.880  0.0304 -0.4416 -0.3065
 3015TIP3    H130536   4.984   1.388  14.867  1.4012  0.2040 -2.7435
 3015TIP3    H230537   5.108   1.339  14.940  0.8088  0.4186 -1.5712
 3016TIP3   OH230538   5.300   6.302  12.367  0.1375 -0.0108 -0.4478
 3016TIP3    H130539   5.385   6.282  12.328 -0.1750  0.0570 -1.1989
 3016TIP3    H230540   5.245   6.227  12.345 -0.2163  0.3086 -0.6740
 3017TIP3   OH230541   6.226   4.385  11.470 -0.1766 -0.3119  0.7354
 3017TIP3    H130542   6.141   4.358  11.506 -0.0201 -1.3193  0.3895
 3017TIP3    H230543   6.267   4.303  11.442  0.0296  0.3410 -1.0274
 3018TIP3   OH230544   4.543   4.640   2.716  0.0575  0.2272  0.0645
 3018TIP3    H130545   4.562   4.582   2.790 -2.1232  0.4372  0.8667
 3018TIP3    H230546   4.508   4.582   2.648 -0.0157  0.3177  0.0245
 3019TIP3   OH230547   2.775   5.982  10.412 -0.0714 -0.1154 -0.0021
 3019TIP3    H130548   2.774   6.005  10.505  0.1737  1.1533 -0.3008
 3019TIP3    H230549   2.789   5.887  10.411  0.8348 -0.0138  1.2281
 3020TIP3   OH230550   2.509   0.416   2.237  0.0252 -0.2130 -0.1450
 3020TIP3    H130551   2.477   0.347   2.179 -0.4529  0.9870 -1.3402
 3020TIP3    H230552   2.445   0.420   2.308 -0.0615 -0.8213 -0.1806
 3021TIP3   OH230553   6.704   0.625  12.257 -0.7797  0.0239  0.1754
 3021TIP3    H130554   6.704   0.530  12.249 -0.6850  0.0646 -0.3146
 3021TIP3    H230555   6.623   0.645  12.303 -1.7241 -0.1632 -1.3592
 3022TIP3   OH230556   3.526   5.885   2.349 -1.2837  0.3647  0.8780
 3022TIP3    H130557   3.472   5.806   2.341 -1.1941  0.2975  0.9218
 3022TIP3    H230558   3.596   5.859   2.409 -0.4668  0.0381 -0.1888
 3023TIP3   OH230559   0.789   0.608   3.462  0.0397 -0.1377  0.0608
 3023TIP3    H130560   0.870   0.582   3.504 -0.2407 -0.5065  0.3818
 3023TIP3    H230561   0.815   0.671   3.395  0.4267  0.9480  1.1961
 3024TIP3   OH230562   5.295   5.950  12.641 -0.1021 -0.5732  0.0190
 3024TIP3    H130563   5.205   5.980  12.653  0.2773  1.1048 -0.9246
 3024TIP3    H230564   5.340   5.976  12.722  0.1144  1.1173 -0.6005
 3025TIP3   OH230565   0.513   2.572  13.048 -0.1152 -0.1731 -1.2017
 3025TIP3    H130566   0.470   2.519  13.115  1.3301  0.8429  0.6218
 3025TIP3    H230567   0.466   2.655  13.049  1.1230  0.5565  0.0401
 3026TIP3   OH230568   1.209   2.925   0.981  0.0442 -0.5948 -0.7374
 3026TIP3    H130569   1.211   2.975   0.899 -0.9463 -0.2147 -0.5388
 3026TIP3    H230570   1.242   2.838   0.957  1.6373  0.0764 -1.1243
 3027TIP3   OH230571   2.750   3.065   2.031 -0.1280 -0.0342  0.3278
 3027TIP3    H130572   2.799   3.010   2.092  1.1037 -0.9438 -1.4042
 3027TIP3    H230573   2.801   3.145   2.022  0.1089 -0.2285 -0.0921
 3028TIP3   OH230574   6.171   0.620  13.290 -0.3883  0.1198 -0.7050
 3028TIP3    H130575   6.192   0.528  13.305  1.4328  0.6622  0.3255
 3028TIP3    H230576   6.129   0.648  13.371 -0.8847  0.2276 -0.9950
 3029TIP3   OH230577   1.530   6.418  11.702 -0.1119  0.2081 -0.2864
 3029TIP3    H130578   1.497   6.487  11.644 -0.9606 -1.1628 -1.5124
 3029TIP3    H230579   1.611   6.389  11.661 -1.1931 -1.4177 -1.4086
 3030TIP3   OH230580   4.756   1.926   5.121 -0.4710 -0.1993  0.1280
 3030TIP3    H130581   4.846   1.915   5.092 -0.5800 -0.3048 -0.1729
 3030TIP3    H230582   4.731   1.840   5.155 -1.0794 -0.7242 -1.5445
 3031TIP3   OH230583   6.393   5.741   0.923  0.2243  0.1569  0.1791
 3031TIP3    H130584   6.331   5.813   0.917  0.0982  0.0476  0.1464
 3031TIP3    H230585   6.478   5.779   0.898 -0.1619 -0.1286 -1.7281
 3032TIP3   OH230586   1.885   2.636  12.791  0.0170 -0.1946 -0.2221
 3032TIP3    H130587   1.954   2.607  12.851 -0.0332 -0.9113 -0.4969
 3032TIP3    H230588   1.820   2.566  12.793 -0.9681  0.7182  0.4359
 3033TIP3   OH230589   1.490   6.014  17.027  0.5814  0.2821  0.1345
 3033TIP3    H130590   1.507   6.050  17.115 -0.8356 -0.2935  0.6661
 3033TIP3    H230591   1.477   5.920  17.042 -1.8646  0.4788 -0.3334
 3034TIP3   OH230592   2.565   3.877   2.796  0.5939 -0.4031 -0.0489
 3034TIP3    H130593   2.617   3.868   2.876  0.9644  1.5415 -0.0196
 3034TIP3    H230594   2.521   3.961   2.805  0.7118 -0.0828 -1.9106
 3035TIP3   OH230595   0.936   4.310  14.977 -0.3139  0.2758  0.3163
 3035TIP3    H130596   0.996   4.343  15.044  1.1440 -1.3291 -0.1097
 3035TIP3    H230597   0.870   4.261  15.025  0.4574 -0.4700  0.6279
 3036TIP3   OH230598   1.921   3.025   3.635 -0.5590  0.0822 -0.1597
 3036TIP3    H130599   1.926   3.066   3.721 -1.1896 -1.5653  0.7147
 3036TIP3    H230600   1.828   3.029   3.611 -0.4567  0.1427 -0.5596
 3037TIP3   OH230601   2.318   4.967  11.965  0.0731  0.4657  0.2930
 3037TIP3    H130602   2.315   5.032  12.035  0.8973  0.7051  0.1121
 3037TIP3    H230603   2.334   4.884  12.010 -0.2860  0.4865  0.4621
 3038TIP3   OH230604   2.589   5.167  16.830 -0.0744  0.5298  0.7801
 3038TIP3    H130605   2.623   5.256  16.840 -1.7155  1.3088 -0.0811
 3038TIP3    H230606   2.495   5.176  16.849 -0.7911 -0.4671 -1.8278
 3039TIP3   OH230607   1.547   0.659  15.235  0.7936  0.2802 -0.0017
 3039TIP3    H130608   1.518   0.730  15.291 -1.1114  0.1522 -0.7378
 3039TIP3    H230609   1.632   0.632  15.271  0.2974  1.1286  1.9184
 3040TIP3   OH230610   4.503   2.011  13.951  0.2340  0.4054  0.3937
 3040TIP3    H130611   4.488   2.104  13.935  0.0144  0.3398  0.2127
 3040TIP3    H230612   4.505   1.971  13.863  1.7452  0.4478  0.3700
 3041TIP3   OH230613   1.976   6.132   2.558 -0.2195 -0.1270  0.0607
 3041TIP3    H130614   1.986   6.084   2.640  0.3099 -2.2195 -1.1700
 3041TIP3    H230615   2.053   6.189   2.554 -0.6528  0.6210  1.3417
 3042TIP3   OH230616   0.930   3.755  15.637  0.0268 -0.2403 -0.2105
 3042TIP3    H130617   0.866   3.823  15.656 -0.1551 -0.6535  0.7257
 3042TIP3    H230618   0.926   3.696  15.713  1.0239 -0.6485 -0.4556
 3043TIP3   OH230619   5.526   4.865  13.855 -0.1879  0.6586  0.6498
 3043TIP3    H130620   5.549   4.836  13.767  0.5748  0.8388  0.7828
 3043TIP3    H230621   5.514   4.784  13.905  2.0118  0.5087  1.0385
 3044TIP3   OH230622   6.352   6.407   4.641 -0.7718 -0.2584 -0.4030
 3044TIP3    H130623   6.280   6.441   4.587 -0.3851 -1.1880 -1.5351
 3044TIP3    H230624   6.426   6.464   4.620 -0.7156 -0.4013 -0.6005
 3045TIP3   OH230625   1.493   6.418  15.582 -0.0317 -0.0273  0.7553
 3045TIP3    H130626   1.435   6.493  15.572  1.5111  1.3054  1.3769
 3045TIP3    H230627   1.443   6.344  15.549 -2.1387  1.0270  1.4257
 3046TIP3   OH230628   4.259   3.435  11.851  0.5534  0.6199 -0.4846
 3046TIP3    H130629   4.298   3.477  11.774  2.0918  0.2790  0.0778
 3046TIP3    H230630   4.331   3.427  11.913 -0.6371  0.8172  0.9859
 3047TIP3   OH230631   6.638   4.055   4.607  0.2641  0.1540 -0.2058
 3047TIP3    H130632   6.605   4.139   4.574  3.2056  1.3623 -0.3836
 3047TIP3    H230633   6.560   4.000   4.613 -2.1050  3.3542  1.4702
 3048TIP3   OH230634   3.352   1.339  12.238  0.5388  0.1483  0.4599
 3048TIP3    H130635   3.316   1.321  12.151  1.2709  1.0704 -0.0556
 3048TIP3    H230636   3.447   1.336  12.225  0.6990  2.5998  0.6792
 3049TIP3   OH230637   4.194   5.756   5.712 -0.1194 -0.0334 -0.5140
 3049TIP3    H130638   4.139   5.683   5.741 -0.7071  0.3514 -0.6470
 3049TIP3    H230639   4.269   5.714   5.670  0.8939 -0.6324  1.7308
 3050TIP3   OH230640   5.523   5.782  14.070 -0.6634 -0.1691  0.1082
 3050TIP3    H130641   5.432   5.803  14.048 -0.8054 -0.5130  0.3610
 3050TIP3    H230642   5.526   5.786  14.166 -0.4749 -0.4116  0.1129
 3051TIP3   OH230643   3.549   0.561   3.572  0.6247  0.1805 -0.3450
 3051TIP3    H130644   3.464   0.603   3.589  2.2484  4.9234 -2.5278
 3051TIP3    H230645   3.579   0.533   3.659 -2.0235  0.6228  0.8202
 3052TIP3   OH230646   3.242   0.021   1.630 -0.4081  0.1253  0.4877
 3052TIP3    H130647   3.238   0.115   1.646  0.4844  0.1361  0.6915
 3052TIP3    H230648   3.228  -0.019   1.717 -1.6905  0.0365  0.2599
 3053TIP3   OH230649   5.994   6.357   1.319  0.1000  0.3952  0.8705
 3053TIP3    H130650   5.931   6.301   1.274  0.0908  0.6775  0.5324
 3053TIP3    H230651   6.078   6.338   1.277 -0.0445  1.2696  0.1541
 3054TIP3   OH230652   4.360   6.585  12.641  0.6243 -0.0340  0.5570
 3054TIP3    H130653   4.388   6.582  12.733  1.6966  2.0554  0.3577
 3054TIP3    H230654   4.436   6.620  12.594 -0.3722  0.2278 -0.9244
 3055TIP3   OH230655   6.057   2.743  11.489  0.0255 -0.3337 -0.0026
 3055TIP3    H130656   6.139   2.714  11.448  1.0163  3.3980 -1.0740
 3055TIP3    H230657   5.994   2.743  11.418  0.2722  0.8400 -0.2409
 3056TIP3   OH230658   4.072   4.187  14.495  0.1680  0.0375 -0.2670
 3056TIP3    H130659   4.112   4.102  14.516  0.7823  0.2067 -0.7374
 3056TIP3    H230660   4.140   4.251  14.515  0.6104  0.2500 -2.2427
 3057TIP3   OH230661   3.568   2.301   3.350 -0.2402 -0.5197  0.2092
 3057TIP3    H130662   3.651   2.302   3.398 -0.4299  0.4004  0.5336
 3057TIP3    H230663   3.592   2.334   3.263 -0.2750 -0.1398  0.3388
 3058TIP3   OH230664   3.896   1.039   4.154 -0.7997 -0.1328 -0.4849
 3058TIP3    H130665   3.887   1.019   4.061  0.1170  0.3398 -0.6871
 3058TIP3    H230666   3.898   1.134   4.159  0.0984 -0.1545 -0.0996
 3059TIP3   OH230667   1.861   3.575  17.003 -0.0360  0.0738  0.3217
 3059TIP3    H130668   1.854   3.666  17.032 -0.2196  0.0779  0.2653
 3059TIP3    H230669   1.782   3.533  17.038 -0.2069  0.0555 -0.0836
 3060TIP3   OH230670   2.926   3.498  13.546  0.3554  0.0360  0.8250
 3060TIP3    H130671   2.887   3.420  13.506 -0.5518 -0.1564  2.0277
 3060TIP3    H230672   3.006   3.513  13.497 -0.7487 -0.1280 -1.1355
 3061TIP3   OH230673   2.131   1.091   1.561 -0.8301 -0.4105 -0.0438
 3061TIP3    H130674   2.133   1.052   1.648 -1.4871  0.1232  0.2149
 3061TIP3    H230675   2.056   1.149   1.562  0.0737  0.8121 -0.4473
 3062TIP3   OH230676   3.895   1.422  13.619  0.2752  0.7741 -0.2024
 3062TIP3    H130677   3.872   1.360  13.549  0.8835 -2.0807  1.9387
 3062TIP3    H230678   3.814   1.431  13.670  1.1127 -1.6477  1.7960
 3063TIP3   OH230679   6.254   1.697   3.043 -0.1885 -0.6343 -0.0217
 3063TIP3    H130680   6.214   1.735   2.965 -1.8952 -0.9283  0.6488
 3063TIP3    H230681   6.249   1.767   3.109 -1.1775 -1.2080  0.5424
 3064TIP3   OH230682   5.590   0.468   3.943  0.0192  0.1377  0.5138
 3064TIP3    H130683   5.611   0.401   4.008 -1.4168  0.8473  1.7651
 3064TIP3    H230684   5.666   0.527   3.945  1.2005 -1.2657 -0.4493
 3065TIP3   OH230685   3.311   5.486  13.897 -0.0121 -0.1345 -0.0157
 3065TIP3    H130686   3.406   5.479  13.892  0.1452  0.6047  1.4002
 3065TIP3    H230687   3.290   5.562  13.842 -0.2006 -2.2749 -3.1522
 3066TIP3   OH230688   4.040   3.616   3.089  0.0862  0.0872 -0.0912
 3066TIP3    H130689   4.057   3.710   3.079  0.3242  0.1936  1.1636
 3066TIP3    H230690   3.947   3.607   3.072  0.0066  0.5966  0.0537
 3067TIP3   OH230691   3.002   4.297  16.511  0.2493  0.3180  0.3469
 3067TIP3    H130692   3.007   4.382  16.468  1.4253 -0.0271 -0.2344
 3067TIP3    H230693   2.985   4.235  16.441  2.5352 -0.2931  0.2377
 3068TIP3   OH230694   2.344   4.623   4.787 -0.7488 -0.4346 -0.2262
 3068TIP3    H130695   2.286   4.570   4.842 -0.8763 -0.2739 -0.2054
 3068TIP3    H230696   2.429   4.620   4.833 -0.8704 -0.2494  0.0119
 3069TIP3   OH230697   3.958   0.695   2.277 -0.5082 -0.2311 -0.4039
 3069TIP3    H130698   3.972   0.642   2.356 -0.4958 -0.0022 -0.2523
 3069TIP3    H230699   3.918   0.634   2.215  1.0503 -0.8777 -0.8184
 3070TIP3   OH230700   4.685   0.736   4.779  0.5199 -0.2114  0.2419
 3070TIP3    H130701   4.615   0.738   4.845  0.8621 -1.3851  0.6735
 3070TIP3    H230702   4.691   0.826   4.748  1.5988  0.8622  3.1725
 3071TIP3   OH230703   0.378   0.598   1.162  0.1996  0.5332  0.3555
 3071TIP3    H130704   0.363   0.549   1.242  1.4003 -2.2741 -1.0033
 3071TIP3    H230705   0.454   0.652   1.181  0.3049  0.1080  1.1889
 3072TIP3   OH230706   6.186   0.804  13.757  0.0796  0.2300  0.0190
 3072TIP3    H130707   6.164   0.725  13.708  1.2101  0.4803 -0.9412
 3072TIP3    H230708   6.102   0.836  13.790 -0.4665 -1.0143 -0.1132
 3073TIP3   OH230709   5.919   6.601   2.272  0.0856  0.1494  0.3139
 3073TIP3    H130710   6.014   6.596   2.262  0.1212  0.1639  0.6265
 3073TIP3    H230711   5.897   6.693   2.254  0.2700  0.4058  1.3528
 3074TIP3   OH230712   1.277   0.388  14.915 -0.2347  0.1512 -0.1403
 3074TIP3    H130713   1.275   0.317  14.979  0.7769 -1.3206 -1.6580
 3074TIP3    H230714   1.323   0.459  14.961  0.9721 -1.0520  0.6252
 3075TIP3   OH230715   2.207   0.842   1.853  0.2250 -0.3571 -0.3395
 3075TIP3    H130716   2.161   0.760   1.837 -0.1164 -0.6520  1.7710
 3075TIP3    H230717   2.298   0.816   1.870  0.3315 -0.1953 -0.6639
 3076TIP3   OH230718   3.764   1.138  10.628 -0.6052 -0.1848 -0.0964
 3076TIP3    H130719   3.676   1.099  10.620 -0.6785  0.3491 -2.5896
 3076TIP3    H230720   3.813   1.075  10.681 -2.4781 -0.4669  1.4084
 3077TIP3   OH230721   1.690   1.261   4.842 -0.1717  0.5043 -0.1464
 3077TIP3    H130722   1.645   1.318   4.904  0.3903  1.6818 -0.7822
 3077TIP3    H230723   1.679   1.173   4.877 -1.4320  0.9593  0.6362
 3078TIP3   OH230724   4.434   1.286  10.813 -0.1004 -0.2659  0.3191
 3078TIP3    H130725   4.345   1.316  10.833  0.4642  1.6189  0.2045
 3078TIP3    H230726   4.477   1.278  10.898 -0.1218 -0.2766  0.3287
 3079TIP3   OH230727   0.021   1.707   0.892 -0.3142 -0.0272 -0.0725
 3079TIP3    H130728   0.041   1.613   0.888  1.5590  0.3729 -1.8846
 3079TIP3    H230729  -0.060   1.717   0.842 -0.0513 -0.5761 -0.6147
 3080TIP3   OH230730   2.457   2.496   1.402  0.3445  0.2230  0.3039
 3080TIP3    H130731   2.504   2.565   1.355  0.5711 -0.6622 -0.8185
 3080TIP3    H230732   2.438   2.430   1.335  1.1477 -1.3513  1.5619
 3081TIP3   OH230733   4.178   3.817  11.393 -0.0501 -0.4129  0.0619
 3081TIP3    H130734   4.102   3.875  11.402  1.3133  1.4242  0.4195
 3081TIP3    H230735   4.172   3.784  11.303 -1.5716 -0.7706  0.2726
 3082TIP3   OH230736   1.583   1.369  14.702  0.2277  1.1705  0.1860
 3082TIP3    H130737   1.568   1.325  14.618 -0.2141  1.5287  0.0716
 3082TIP3    H230738   1.551   1.458  14.688 -1.6634  0.7259  1.3127
 3083TIP3   OH230739   5.953   1.314   3.755  0.4074  0.3380  0.2255
 3083TIP3    H130740   5.971   1.230   3.797  1.5386  0.0334 -0.8330
 3083TIP3    H230741   5.860   1.330   3.774  0.6915 -0.1310  2.1839
 3084TIP3   OH230742   6.201   2.444   2.475 -0.9750 -0.1889  0.3861
 3084TIP3    H130743   6.258   2.414   2.405  0.8499 -0.4956  1.9296
 3084TIP3    H230744   6.124   2.480   2.430  0.2423 -0.1181 -1.7488
 3085TIP3   OH230745   0.376   3.595  11.847  0.1810 -0.5527  0.7924
 3085TIP3    H130746   0.355   3.689  11.847  2.8685  0.1154  0.3558
 3085TIP3    H230747   0.403   3.576  11.936 -1.4139 -1.2378  1.1694
 3086TIP3   OH230748   1.218   1.534   0.934 -0.4852 -0.2383 -0.4810
 3086TIP3    H130749   1.133   1.568   0.963 -0.5357 -0.9386  0.2190
 3086TIP3    H230750   1.256   1.605   0.882 -1.0281  0.4900  0.1041
 3087TIP3   OH230751   4.107   6.082   1.284 -0.0196  0.4368 -0.2888
 3087TIP3    H130752   4.137   6.147   1.348  0.4484 -0.3584  0.3184
 3087TIP3    H230753   4.182   6.025   1.271 -1.0809 -1.3686  0.9720
 3088TIP3   OH230754   4.565   6.228   2.625  0.0394 -0.4040 -0.3958
 3088TIP3    H130755   4.541   6.317   2.599 -2.0974 -1.1331 -1.1305
 3088TIP3    H230756   4.660   6.233   2.641 -0.0826  2.0739 -0.0020
 3089TIP3   OH230757   1.365   3.304  13.089  0.1599 -0.4994 -0.4947
 3089TIP3    H130758   1.384   3.214  13.113  1.1655  0.0796  1.0117
 3089TIP3    H230759   1.371   3.305  12.994 -0.3740 -2.1179 -0.5712
 3090TIP3   OH230760   5.354   5.991   5.302  0.7839 -0.4264 -0.0852
 3090TIP3    H130761   5.268   6.021   5.274  0.9528  0.1777  0.0399
 3090TIP3    H230762   5.372   5.915   5.246  1.1897  0.8594 -1.7715
 3091TIP3   OH230763   2.770   5.120   5.480 -0.1960  0.4287  0.1119
 3091TIP3    H130764   2.724   5.182   5.536 -1.5401 -1.3497  1.1158
 3091TIP3    H230765   2.705   5.097   5.413 -0.5133 -1.3969  0.9792
 3092TIP3   OH230766   2.350   0.435   2.475 -0.1895  0.1607 -0.0442
 3092TIP3    H130767   2.376   0.451   2.566 -0.2984  1.7503 -0.2617
 3092TIP3    H230768   2.273   0.380   2.481 -0.0938  0.1038  0.8217
 3093TIP3   OH230769   3.016   2.569  11.315 -0.0777 -0.2544  0.1769
 3093TIP3    H130770   3.026   2.545  11.223  2.5964 -0.0883  0.3207
 3093TIP3    H230771   3.023   2.665  11.315 -2.3277 -0.0368  0.3999
 3094TIP3   OH230772   2.895   2.849  13.164 -0.0800  0.1555 -0.1295
 3094TIP3    H130773   2.890   2.917  13.097  0.7192  1.2398  0.8662
 3094TIP3    H230774   2.909   2.768  13.115 -0.5064  0.7746 -1.3129
 3095TIP3   OH230775   4.585   5.937   2.548  0.4417 -0.7410 -0.2318
 3095TIP3    H130776   4.641   5.907   2.620 -0.2580 -0.6260  0.3702
 3095TIP3    H230777   4.561   6.027   2.572 -0.1000 -0.8334 -0.4140
 3096TIP3   OH230778   1.978   4.294   5.663 -0.0290  0.1101  0.0392
 3096TIP3    H130779   2.008   4.349   5.736  1.1087 -0.8507  0.3187
 3096TIP3    H230780   1.883   4.308   5.661  0.1730  1.8080  0.3144
 3097TIP3   OH230781   3.731   1.970   4.556  0.4690 -0.3448 -0.3951
 3097TIP3    H130782   3.734   2.009   4.468 -0.7293 -0.2745 -0.4242
 3097TIP3    H230783   3.815   1.992   4.595  0.3887  1.0121 -0.9458
 3098TIP3   OH230784   6.504   3.459  16.740  0.1765 -0.1447  0.7637
 3098TIP3    H130785   6.575   3.506  16.784  0.7256  0.0884 -0.3466
 3098TIP3    H230786   6.444   3.528  16.711  1.2448 -0.0303 -1.3315
 3099TIP3   OH230787   3.842   0.146   2.769 -0.3699  0.0248 -0.3469
 3099TIP3    H130788   3.910   0.137   2.837 -1.1513 -0.0740  0.4442
 3099TIP3    H230789   3.887   0.186   2.695  1.3130 -2.7328 -0.9710
 3100TIP3   OH230790   6.700   4.740  16.031  0.1865  0.2465  0.8353
 3100TIP3    H130791   6.727   4.734  15.940 -1.7955 -2.6856  0.3107
 3100TIP3    H230792   6.702   4.650  16.063 -2.0301  0.7665  2.7515
 3101TIP3   OH230793   4.705   0.538   0.479 -0.4677 -0.2016  0.3376
 3101TIP3    H130794   4.665   0.552   0.393  2.4506 -1.7376 -1.4459
 3101TIP3    H230795   4.651   0.472   0.521 -0.0491 -2.1017 -1.8984
 3102TIP3   OH230796   1.124   4.476  10.804  0.6015 -0.7693  0.0832
 3102TIP3    H130797   1.143   4.383  10.805  1.1489 -0.7171 -1.7627
 3102TIP3    H230798   1.207   4.518  10.783 -0.0410 -0.0127 -1.0424
 3103TIP3   OH230799   6.751   0.442  13.321  0.4426  0.0875 -0.3884
 3103TIP3    H130800   6.706   0.525  13.337 -0.2293 -0.5660  1.3454
 3103TIP3    H230801   6.770   0.408  13.409  2.5616 -0.6267 -1.0692
 3104TIP3   OH230802   4.255   5.266  16.757 -0.2936  0.8557  0.1638
 3104TIP3    H130803   4.208   5.211  16.694  0.7895 -0.6392  0.6128
 3104TIP3    H230804   4.196   5.340  16.772 -1.6988 -0.0443 -0.6607
 3105TIP3   OH230805   0.629   1.313  11.951  0.2249  0.4026  0.3946
 3105TIP3    H130806   0.566   1.261  12.002  1.3204 -1.5029 -0.0790
 3105TIP3    H230807   0.711   1.306  12.000  0.9046 -0.1495 -0.7773
 3106TIP3   OH230808   6.435   3.543   3.010  0.0120 -0.3026 -0.1171
 3106TIP3    H130809   6.346   3.565   2.982  0.3208  0.0136 -0.8673
 3106TIP3    H230810   6.487   3.621   2.989  0.2486 -0.0102  1.4327
 3107TIP3   OH230811   2.241   6.247   3.543 -0.0295 -0.5706 -0.0276
 3107TIP3    H130812   2.275   6.190   3.612 -2.0720  1.1766  2.6152
 3107TIP3    H230813   2.167   6.199   3.505 -0.7864 -0.3441  1.1292
 3108TIP3   OH230814   2.428   3.393  16.051 -0.8750  0.5415  0.1283
 3108TIP3    H130815   2.464   3.479  16.071  2.6604 -0.7265 -0.1365
 3108TIP3    H230816   2.424   3.348  16.136  0.9407 -0.2336 -0.1559
 3109TIP3   OH230817   6.227   0.799  11.018  0.2772  0.0702  0.1743
 3109TIP3    H130818   6.272   0.804  10.934  0.2051  0.4438  0.1547
 3109TIP3    H230819   6.160   0.731  11.006  0.4743 -0.0985  0.0322
 3110TIP3   OH230820   0.198   0.663  16.759 -0.3994  0.1301  0.0663
 3110TIP3    H130821   0.221   0.661  16.852  1.2927  1.0192 -0.2880
 3110TIP3    H230822   0.250   0.593  16.720  0.0045  0.6910 -0.4219
 3111TIP3   OH230823   5.211   4.673   0.542 -0.1759  0.3446 -0.4704
 3111TIP3    H130824   5.238   4.663   0.450  0.5486  0.0760 -0.2371
 3111TIP3    H230825   5.250   4.756   0.569 -0.6420  0.5706 -0.4929
 3112TIP3   OH230826   1.080   4.923  13.143  0.2008 -0.2345 -0.2564
 3112TIP3    H130827   1.028   4.877  13.077 -0.1347 -0.4465  0.1466
 3112TIP3    H230828   1.164   4.939  13.101 -0.6708  1.4567 -1.4899
 3113TIP3   OH230829   1.290   1.692  12.094  0.2457 -0.0762  0.7707
 3113TIP3    H130830   1.214   1.658  12.143 -0.2181 -0.4026 -0.1524
 3113TIP3    H230831   1.365   1.651  12.136 -0.1647 -0.5664  1.0443
 3114TIP3   OH230832   5.711   5.345   1.198  0.2706 -0.3867  0.0339
 3114TIP3    H130833   5.732   5.429   1.158  1.1594 -0.5397  0.1650
 3114TIP3    H230834   5.790   5.320   1.246 -0.5815 -0.4764  1.4294
 3115TIP3   OH230835   2.950   5.436  13.186  0.0065  0.2097 -0.4052
 3115TIP3    H130836   2.983   5.405  13.101 -1.8203  0.2542 -1.1988
 3115TIP3    H230837   3.006   5.509  13.209  0.0087  0.7714 -2.0543
 3116TIP3   OH230838   1.918   0.221  11.685  0.2675 -0.0598 -0.0288
 3116TIP3    H130839   1.995   0.248  11.635  1.6005 -2.5266  0.5411
 3116TIP3    H230840   1.846   0.222  11.621  1.1965  0.2408 -1.1030
 3117TIP3   OH230841   4.914   2.193   3.156 -0.4709 -0.0527  0.1316
 3117TIP3    H130842   5.007   2.172   3.148 -0.8696 -1.4325 -1.6892
 3117TIP3    H230843   4.900   2.205   3.250  1.4635 -0.1639  0.4741
 3118TIP3   OH230844   2.579   5.954  14.361  0.5694 -0.9451 -0.2591
 3118TIP3    H130845   2.670   5.956  14.392  0.5631 -0.1596 -0.2763
 3118TIP3    H230846   2.581   5.897  14.285  0.9633 -1.2940  0.0096
 3119TIP3   OH230847   5.407   1.184  15.676  0.0824 -0.3788 -0.2534
 3119TIP3    H130848   5.465   1.121  15.719  0.6430 -0.2112 -0.7456
 3119TIP3    H230849   5.338   1.130  15.637  1.0731 -0.8150 -1.4934
 3120TIP3   OH230850   4.170   3.135  17.009 -0.2402  0.1398  0.3795
 3120TIP3    H130851   4.142   3.074  16.941 -0.2855 -0.6636  1.1030
 3120TIP3    H230852   4.248   3.177  16.972 -0.6581  0.2189 -0.4421
 3121TIP3   OH230853   4.210   4.738   1.910 -0.3352 -0.0533 -0.0451
 3121TIP3    H130854   4.264   4.753   1.833 -0.2299 -0.1763  0.0042
 3121TIP3    H230855   4.131   4.791   1.896  0.9354  2.2841  1.0961
 3122TIP3   OH230856   5.905   4.218   4.955  0.0542  0.0167  0.0388
 3122TIP3    H130857   5.911   4.303   4.911  0.1650  1.2848  2.3341
 3122TIP3    H230858   5.811   4.199   4.958  0.0771 -0.3218 -1.1213
 3123TIP3   OH230859   0.244   4.639  11.543 -0.3218  0.1559 -0.4029
 3123TIP3    H130860   0.326   4.671  11.581  0.7166 -1.6206 -1.0424
 3123TIP3    H230861   0.269   4.600  11.459 -1.6309 -1.4232 -0.1202
 3124TIP3   OH230862   5.166   1.613   1.704  0.0761  0.7191  0.7009
 3124TIP3    H130863   5.150   1.520   1.723  0.5346  0.7374  1.2203
 3124TIP3    H230864   5.261   1.622   1.712  0.2946  0.7937 -1.4250
 3125TIP3   OH230865   0.561   0.077  15.795  0.0345  0.2942 -0.2867
 3125TIP3    H130866   0.582   0.097  15.704 -0.1067  1.2807 -0.1070
 3125TIP3    H230867   0.619   0.133  15.846  1.3230 -1.4560  0.2691
 3126TIP3   OH230868   6.357   2.402   4.782 -0.3372 -0.0658 -0.2710
 3126TIP3    H130869   6.370   2.349   4.861  2.6506 -0.0440 -0.6151
 3126TIP3    H230870   6.350   2.339   4.711  1.6615 -0.1209 -0.4853
 3127TIP3   OH230871   5.335   5.696  12.551 -0.3708  0.0463 -0.1083
 3127TIP3    H130872   5.327   5.788  12.577  0.0074  0.5993 -1.8146
 3127TIP3    H230873   5.427   5.674  12.566 -0.3206  0.1418 -0.2719
 3128TIP3   OH230874   3.185   3.601  13.127  0.6358 -0.3469  0.4069
 3128TIP3    H130875   3.092   3.583  13.115  0.4052 -0.1782  1.7828
 3128TIP3    H230876   3.213   3.641  13.044 -0.5637 -0.1883  0.0623
 3129TIP3   OH230877   1.058   0.707  15.184  0.2070  0.0602 -1.1039
 3129TIP3    H130878   1.061   0.763  15.107 -1.1919  2.0048  0.1415
 3129TIP3    H230879   1.077   0.766  15.257  2.1794 -1.8402  0.0553
 3130TIP3   OH230880   4.384   0.724  13.526  0.1084  0.3936  0.0988
 3130TIP3    H130881   4.383   0.652  13.463 -0.5887  0.6568 -0.1998
 3130TIP3    H230882   4.465   0.771  13.506 -0.1129  0.4863 -0.6203
 3131TIP3   OH230883   0.212   6.037  13.628  0.1229 -0.0517 -0.2102
 3131TIP3    H130884   0.256   6.083  13.700 -0.3426  0.8328 -0.4699
 3131TIP3    H230885   0.282   5.994  13.580  0.4941 -0.2377  0.4807
 3132TIP3   OH230886   4.516   0.767  15.647  0.0291 -0.3360 -0.2006
 3132TIP3    H130887   4.489   0.856  15.669 -0.8613 -0.8999  1.1180
 3132TIP3    H230888   4.556   0.775  15.560  0.2539  1.3822  0.0279
 3133TIP3   OH230889   1.548   6.580  13.406  0.1152 -0.0266  0.5756
 3133TIP3    H130890   1.462   6.619  13.390  0.3333 -0.1293 -1.0437
 3133TIP3    H230891   1.606   6.655  13.422 -0.0800  0.1076  0.6557
 3134TIP3   OH230892   4.921   2.978   3.881 -0.5434  0.1916  0.2258
 3134TIP3    H130893   4.855   2.953   3.945 -1.3508  0.5873 -0.4242
 3134TIP3    H230894   4.937   3.071   3.899 -2.4289  0.9364 -1.5003
 3135TIP3   OH230895   5.136   6.008  12.327 -0.1053 -0.4587  0.3862
 3135TIP3    H130896   5.121   6.053  12.244  1.6101  1.2329  0.9458
 3135TIP3    H230897   5.078   6.052  12.389  0.3348 -0.1369  0.5738
 3136TIP3   OH230898   6.158   0.245  11.520  0.6842 -0.1696  0.2330
 3136TIP3    H130899   6.200   0.271  11.438  0.3021  0.2235  0.1580
 3136TIP3    H230900   6.115   0.162  11.500  2.2573 -1.1186  0.5851
 3137TIP3   OH230901   1.238   4.943  15.728  0.1887  0.2149 -0.1525
 3137TIP3    H130902   1.303   4.881  15.760  0.7077 -0.1164 -1.7277
 3137TIP3    H230903   1.160   4.890  15.710 -0.5463  0.6051  1.6951
 3138TIP3   OH230904   5.478   2.409   4.004  0.2853  0.3423  0.2954
 3138TIP3    H130905   5.568   2.438   3.988  0.2487 -0.6377 -2.1983
 3138TIP3    H230906   5.437   2.411   3.918 -0.9684 -2.8272  0.6980
 3139TIP3   OH230907   2.366   5.033   4.118 -0.3615 -0.8556  0.0251
 3139TIP3    H130908   2.424   5.069   4.185 -1.0134 -0.0790  0.1826
 3139TIP3    H230909   2.285   5.084   4.125 -0.2863 -0.4169 -1.6456
 3140TIP3   OH230910   3.143   6.612   0.237  0.0127 -0.2193  0.0241
 3140TIP3    H130911   3.167   6.700   0.208  0.7003 -0.5067 -0.3050
 3140TIP3    H230912   3.168   6.610   0.330  1.6488 -0.6340 -0.4039
 3141TIP3   OH230913   0.164   2.010   3.892 -0.2830  0.0916  0.2956
 3141TIP3    H130914   0.178   1.922   3.928  0.6321  0.9635  2.2041
 3141TIP3    H230915   0.069   2.023   3.896 -0.3155 -0.3665  1.0864
 3142TIP3   OH230916   4.917   3.841   1.744 -0.0199 -0.1188  0.1159
 3142TIP3    H130917   4.895   3.934   1.739 -1.3747 -0.4607 -2.4780
 3142TIP3    H230918   4.837   3.799   1.776 -1.0763 -0.6920 -2.8503
 3143TIP3   OH230919   5.866   1.771  13.161  0.3070  0.4548 -0.6915
 3143TIP3    H130920   5.932   1.816  13.108  1.0229  0.1576 -0.0761
 3143TIP3    H230921   5.847   1.691  13.113  2.1480 -0.6045  0.2430
 3144TIP3   OH230922   4.808   2.479   5.719 -0.0398  0.1698 -0.0220
 3144TIP3    H130923   4.892   2.515   5.689 -0.4646  1.9108  0.7273
 3144TIP3    H230924   4.743   2.521   5.662 -0.4587 -0.7643 -0.2504
 3145TIP3   OH230925   3.359   0.357   3.811  0.2464 -0.4114 -0.4873
 3145TIP3    H130926   3.348   0.332   3.903 -1.5305 -1.3741 -0.9057
 3145TIP3    H230927   3.277   0.403   3.789  0.7445  0.0216 -1.5321
 3146TIP3   OH230928   3.071   3.214  15.988  0.3785  0.1269  0.2120
 3146TIP3    H130929   2.975   3.205  15.985  0.3373  0.6942 -0.4928
 3146TIP3    H230930   3.103   3.125  15.996 -0.1639 -0.2426 -1.3061
 3147TIP3   OH230931   2.222   1.069   4.348 -0.1529 -0.8269 -0.2227
 3147TIP3    H130932   2.195   1.092   4.259  0.6253  0.7553 -0.0756
 3147TIP3    H230933   2.297   1.010   4.336 -0.5604 -1.2787 -0.6009
 3148TIP3   OH230934   5.267   0.232  13.857  0.1766  0.0256 -0.1153
 3148TIP3    H130935   5.290   0.324  13.845 -1.2260  0.4204  0.0608
 3148TIP3    H230936   5.327   0.185  13.799  1.3733  0.9839  0.3206
 3149TIP3   OH230937   1.034   5.470   1.880 -0.4154 -0.1199 -0.0037
 3149TIP3    H130938   1.053   5.506   1.794 -0.5177 -0.2494 -0.0792
 3149TIP3    H230939   0.938   5.469   1.885 -0.4571 -2.0168 -0.6739
 3150TIP3   OH230940   0.806   5.715  11.494  0.1131  0.4138  0.7546
 3150TIP3    H130941   0.825   5.627  11.526  0.7315 -0.0877 -0.8940
 3150TIP3    H230942   0.735   5.703  11.431  0.4470  1.0238  0.2475
 3151TIP3   OH230943   1.185   3.844   4.756  0.6065 -0.3082  0.3160
 3151TIP3    H130944   1.240   3.921   4.766  0.6581 -0.1896 -0.7826
 3151TIP3    H230945   1.180   3.806   4.844  0.9689  0.6729  0.7684
 3152TIP3   OH230946   4.623   3.309   4.568  0.2229 -0.3204 -0.1826
 3152TIP3    H130947   4.549   3.344   4.518  0.6518  1.5546  0.4191
 3152TIP3    H230948   4.582   3.268   4.645 -0.2475 -0.1308 -0.3294
 3153TIP3   OH230949   6.424   3.834  14.530 -0.4570 -0.1949 -0.0009
 3153TIP3    H130950   6.485   3.847  14.603  0.2967 -1.3570 -0.3999
 3153TIP3    H230951   6.478   3.843  14.452 -0.7360 -1.4760 -0.3588
 3154TIP3   OH230952   6.273   1.255  13.167 -0.3108  0.0130  0.0087
 3154TIP3    H130953   6.248   1.165  13.144  0.8100 -0.2228 -0.3203
 3154TIP3    H230954   6.366   1.260  13.147 -0.0057  0.7802  1.5090
 3155TIP3   OH230955   3.326   5.334   3.135  0.5474  0.4927  0.1228
 3155TIP3    H130956   3.351   5.248   3.099 -2.1763 -0.0295 -0.7514
 3155TIP3    H230957   3.245   5.317   3.183 -0.7177  2.7250 -1.0594
 3156TIP3   OH230958   3.910   3.031   3.676  0.0022 -0.2240  0.2998
 3156TIP3    H130959   3.827   3.050   3.631  0.8962 -0.1473 -1.4063
 3156TIP3    H230960   3.933   3.113   3.720 -1.4817 -0.6469  1.9631
 3157TIP3   OH230961   0.045   4.314  10.747  0.6251  0.5856  0.3510
 3157TIP3    H130962  -0.014   4.378  10.789 -0.3776  2.2570 -3.1557
 3157TIP3    H230963   0.133   4.343  10.771  0.1441  2.5582 -0.0664
 3158TIP3   OH230964   0.792   0.352   2.324  0.2739 -0.2027  0.1922
 3158TIP3    H130965   0.811   0.304   2.243 -1.2532  0.0128 -0.3296
 3158TIP3    H230966   0.718   0.306   2.362 -0.0859  0.6854  0.6019
 3159TIP3   OH230967   4.204   3.019   0.626  0.1821 -0.2191  0.0428
 3159TIP3    H130968   4.139   3.069   0.676  0.4888 -0.7034  0.9415
 3159TIP3    H230969   4.283   3.073   0.632 -0.8161  2.1018 -3.8128
 3160TIP3   OH230970   4.504   0.446  15.349 -0.1963 -0.0405  0.4743
 3160TIP3    H130971   4.536   0.378  15.290 -1.5190  0.8363 -1.3364
 3160TIP3    H230972   4.569   0.516  15.341  0.2143 -0.3591  0.9491
 3161TIP3   OH230973   4.775   5.429   5.422 -0.1988 -0.0323  0.2088
 3161TIP3    H130974   4.782   5.524   5.416  1.6391 -0.1327  0.2734
 3161TIP3    H230975   4.797   5.409   5.513 -2.5862 -0.4123  0.7686
 3162TIP3   OH230976   1.576   1.216   3.295  0.2495 -0.0078 -0.0552
 3162TIP3    H130977   1.486   1.183   3.304 -0.1990  0.2860 -2.6488
 3162TIP3    H230978   1.630   1.138   3.305 -0.2608 -0.1919  1.5460
 3163TIP3   OH230979   5.291   2.804   1.146 -0.1128  0.2414 -0.3239
 3163TIP3    H130980   5.291   2.723   1.095  0.0275  0.4820 -0.7125
 3163TIP3    H230981   5.214   2.797   1.202  0.5097 -0.6548  0.4497
 3164TIP3   OH230982   5.267   2.228   2.045  0.1022 -0.2456 -0.0643
 3164TIP3    H130983   5.313   2.283   2.108  1.3775 -0.2057 -0.9928
 3164TIP3    H230984   5.222   2.289   1.988 -0.6534 -0.2700  0.4819
 3165TIP3   OH230985   2.315   5.142  15.930 -0.1544 -0.3909 -0.0297
 3165TIP3    H130986   2.268   5.060  15.916 -2.1509  0.8983 -1.3405
 3165TIP3    H230987   2.343   5.139  16.021  1.1031 -3.1053 -0.4007
 3166TIP3   OH230988   2.168   5.589   0.596 -0.6521  0.0849  0.4371
 3166TIP3    H130989   2.242   5.553   0.548  0.1181  0.8570  1.0202
 3166TIP3    H230990   2.127   5.512   0.638  1.3946 -0.1216  2.2481
 3167TIP3   OH230991   4.698   3.539   0.490  0.2595  0.0237 -0.3112
 3167TIP3    H130992   4.640   3.615   0.482 -1.4685 -1.2579 -0.3802
 3167TIP3    H230993   4.694   3.496   0.405  3.5226  1.3338 -1.2959
 3168TIP3   OH230994   1.589   5.024   0.635 -0.4272 -0.2794  0.1611
 3168TIP3    H130995   1.550   4.940   0.609 -0.5623 -1.1183  2.7858
 3168TIP3    H230996   1.520   5.088   0.616 -0.0975 -0.6084 -2.4503
 3169TIP3   OH230997   6.482   1.253   5.427  0.0186 -0.4347 -0.5674
 3169TIP3    H130998   6.445   1.165   5.434  2.1078 -1.2726  4.1821
 3169TIP3    H230999   6.413   1.311   5.461 -0.3782 -0.6398 -1.0256
 3170TIP3   OH231000   4.363   2.328  12.402  0.1526 -0.4278  0.1477
 3170TIP3    H131001   4.421   2.360  12.470  0.9928 -2.2596  0.3481
 3170TIP3    H231002   4.345   2.405  12.348 -0.3066  1.0010  2.2227
 3171TIP3   OH231003   4.144   5.707  12.482 -0.0076  0.0825  0.5228
 3171TIP3    H131004   4.208   5.712  12.411  0.8034 -0.6665  1.1751
 3171TIP3    H231005   4.065   5.746  12.445  1.2371  2.5359  0.2135
 3172TIP3   OH231006   0.258   3.110  11.919 -0.4599 -0.1941 -0.2251
 3172TIP3    H131007   0.249   3.083  11.828 -0.1264 -1.8140  0.1815
 3172TIP3    H231008   0.345   3.080  11.945 -1.3782 -1.8487  1.2319
 3173TIP3   OH231009   5.268   2.012  12.176 -0.1992 -0.0440  0.2225
 3173TIP3    H131010   5.191   2.045  12.130  0.7983  0.3465 -1.2328
 3173TIP3    H231011   5.288   1.930  12.132 -0.4813 -0.7842  1.4150
 3174TIP3   OH231012   6.675   3.443   2.239  0.2001 -0.4633 -0.3151
 3174TIP3    H131013   6.734   3.489   2.299 -1.4308  1.3457 -0.0014
 3174TIP3    H231014   6.646   3.366   2.288 -0.6599  0.6871  1.0614
 3175TIP3   OH231015   0.127   1.364  16.523 -0.2107  0.4708 -0.2129
 3175TIP3    H131016   0.126   1.345  16.429  0.7695 -0.7081 -0.0154
 3175TIP3    H231017   0.210   1.328  16.554 -0.9133  0.0373  1.2566
 3176TIP3   OH231018   4.765   1.975  14.181  0.5242  0.2994  0.4203
 3176TIP3    H131019   4.779   2.065  14.153  0.9186 -0.3732 -1.6942
 3176TIP3    H231020   4.849   1.932  14.166 -0.1483 -0.8202 -0.2949
 3177TIP3   OH231021   1.208   3.737  13.178  0.0617 -0.0238 -0.4549
 3177TIP3    H131022   1.123   3.707  13.144 -0.8460  0.0300  1.5976
 3177TIP3    H231023   1.187   3.772  13.264  2.7197 -4.4699  2.4255
 3178TIP3   OH231024   5.143   4.454  15.833 -0.0621  0.2578  0.1701
 3178TIP3    H131025   5.149   4.375  15.886 -0.2045  0.2076  0.1122
 3178TIP3    H231026   5.094   4.428  15.755 -0.2040  0.4263  0.2009
 3179TIP3   OH231027   4.656   4.419   5.429 -0.6627  0.1814 -0.1389
 3179TIP3    H131028   4.699   4.504   5.415 -1.0725  0.8516  2.2070
 3179TIP3    H231029   4.706   4.357   5.376  0.2752  1.7023 -1.1124
 3180TIP3   OH231030   2.553   2.103  14.546 -0.3442 -0.6114  0.0901
 3180TIP3    H131031   2.647   2.082  14.549  0.0027  0.8147  0.0356
 3180TIP3    H231032   2.549   2.185  14.497 -1.5344 -0.1987  0.8357
 3181TIP3   OH231033   4.683   2.053  15.232 -0.2208 -0.3856 -0.1451
 3181TIP3    H131034   4.705   2.132  15.281  0.5417  0.9513 -2.4806
 3181TIP3    H231035   4.613   2.081  15.173  0.5590 -1.2340 -1.5057
 3182TIP3   OH231036   0.888   1.098   3.795  0.1066  0.1034  0.3820
 3182TIP3    H131037   0.879   1.140   3.881  0.9333 -0.2021  0.6280
 3182TIP3    H231038   0.871   1.005   3.812  2.7613 -0.3905  0.7420
 3183TIP3   OH231039   1.607   5.181  11.332  0.2831 -0.1518 -0.1434
 3183TIP3    H131040   1.589   5.223  11.416 -0.9307 -2.4176  0.8224
 3183TIP3    H231041   1.670   5.239  11.289 -0.5506  2.0936  1.4556
 3184TIP3   OH231042   1.961   5.404   0.062  0.0494 -0.3512 -0.2164
 3184TIP3    H131043   1.904   5.350   0.117  0.1174 -0.6069 -0.3956
 3184TIP3    H231044   2.025   5.441   0.123 -1.1508  1.0913  0.2271
 3185TIP3   OH231045   2.775   2.627  11.615 -0.2897  0.4449 -0.5599
 3185TIP3    H131046   2.731   2.656  11.695  1.0949 -0.7024  0.6582
 3185TIP3    H231047   2.851   2.685  11.608 -0.2387  0.3392 -0.8776
 3186TIP3   OH231048   6.538   4.727   6.096  0.2071 -0.9152 -0.4670
 3186TIP3    H131049   6.554   4.815   6.129 -3.3228 -0.1492 -0.4867
 3186TIP3    H231050   6.566   4.730   6.005 -0.3210  0.3360 -0.6009
 3187TIP3   OH231051   4.943   4.805   4.357 -0.0211  0.1534 -0.1127
 3187TIP3    H131052   5.014   4.841   4.411  0.1711  1.0611 -0.9484
 3187TIP3    H231053   4.965   4.712   4.348  0.7614  0.3095  0.0928
 3188TIP3   OH231054   4.959   6.041   5.506  0.0406  0.0017  0.3290
 3188TIP3    H131055   5.032   6.060   5.447  0.3583  0.9880  1.0235
 3188TIP3    H231056   4.972   5.950   5.532 -0.0198 -0.4047 -0.9802
 3189TIP3   OH231057   1.204   6.488  13.584 -0.3688 -0.0605  0.0669
 3189TIP3    H131058   1.273   6.498  13.649 -0.5680 -2.7621  0.8079
 3189TIP3    H231059   1.123   6.512  13.630 -0.1346  1.8775 -0.4344
 3190TIP3   OH231060   1.801   5.236   3.910 -0.3188 -0.0242  0.0985
 3190TIP3    H131061   1.715   5.269   3.938 -0.9594 -0.4441 -1.2800
 3190TIP3    H231062   1.841   5.203   3.991 -1.7367 -0.4360  0.6748
 3191TIP3   OH231063   0.005   6.552   1.367 -0.2495 -0.0353 -0.1703
 3191TIP3    H131064  -0.062   6.565   1.299  0.6466  0.2162 -1.0318
 3191TIP3    H231065  -0.039   6.501   1.435 -0.4940 -2.5839 -2.0859
 3192TIP3   OH231066   1.717   0.342   2.925  0.1074 -0.8833 -0.1321
 3192TIP3    H131067   1.687   0.422   2.969  0.5377 -0.9396  0.2696
 3192TIP3    H231068   1.636   0.298   2.898 -0.1631 -0.8452  0.5937
 3193TIP3   OH231069   2.535   4.448  12.360  0.2353 -0.5011  0.1838
 3193TIP3    H131070   2.577   4.519  12.409  0.1911 -1.0394  1.0350
 3193TIP3    H231071   2.442   4.471  12.360  0.0498 -1.1291  1.5089
 3194TIP3   OH231072   6.171   6.139   5.168  0.0429 -0.4116 -0.2509
 3194TIP3    H131073   6.213   6.055   5.148  0.5006 -0.5934  1.3744
 3194TIP3    H231074   6.081   6.116   5.191  0.4634 -0.6047  1.2768
 3195TIP3   OH231075   2.895   3.375   1.862  0.2112  0.2514  0.1305
 3195TIP3    H131076   2.967   3.362   1.799  1.0214 -0.1349  1.1030
 3195TIP3    H231077   2.821   3.328   1.824  0.5131  0.5201 -0.8186
 3196TIP3   OH231078   1.075   3.889   4.143  0.5104 -0.0306  0.5025
 3196TIP3    H131079   1.139   3.901   4.213  0.9786 -0.5344  0.1702
 3196TIP3    H231080   1.119   3.833   4.079  1.0325  2.4141 -1.4115
 3197TIP3   OH231081   5.798   4.871  12.326  0.0119 -0.3025  0.1804
 3197TIP3    H131082   5.787   4.824  12.243 -0.6459 -1.6621  1.0216
 3197TIP3    H231083   5.890   4.858  12.349 -0.1850 -1.2512  0.4473
 3198TIP3   OH231084   1.402   6.523  14.830 -0.0913  0.1108 -0.2095
 3198TIP3    H131085   1.364   6.503  14.915 -1.5942 -0.6520 -1.0049
 3198TIP3    H231086   1.411   6.618  14.829  0.6034  0.0820  1.0366
 3199TIP3   OH231087   3.172   6.580   0.547  0.0691 -0.0099 -0.1543
 3199TIP3    H131088   3.126   6.636   0.610  0.2474  1.7565 -1.4967
 3199TIP3    H231089   3.264   6.588   0.570  0.0778  0.1173 -0.2299
 3200TIP3   OH231090   4.607   3.546  12.901 -0.2132  0.4270  0.0674
 3200TIP3    H131091   4.649   3.630  12.919  0.9608 -0.1819  0.2922
 3200TIP3    H231092   4.678   3.490  12.869 -1.1604 -0.2009 -1.0335
 3201TIP3   OH231093   5.156   6.714   2.341 -0.7516  0.0270 -0.3634
 3201TIP3    H131094   5.071   6.759   2.344  0.1219  1.7600 -0.1994
 3201TIP3    H231095   5.148   6.651   2.270 -1.3382  1.9824 -2.1222
 3202TIP3   OH231096   5.488   6.310   0.231  0.0109 -0.2499 -0.6356
 3202TIP3    H131097   5.406   6.339   0.271  0.5704 -1.4394  1.5529
 3202TIP3    H231098   5.488   6.215   0.243  1.7790 -0.2510 -0.3915
 3203TIP3   OH231099   4.419   4.397  10.620  0.0318 -0.0357 -0.5514
 3203TIP3    H131100   4.354   4.467  10.619  0.3214  0.2329 -1.2932
 3203TIP3    H231101   4.396   4.342  10.546  0.1474 -0.4050 -0.3124
 3204TIP3   OH231102   2.792   5.487   2.232 -0.3000 -0.0277  0.2287
 3204TIP3    H131103   2.769   5.448   2.316 -1.1272 -0.4282 -0.1717
 3204TIP3    H231104   2.733   5.445   2.169  0.9035 -0.4092 -0.6973
 3205TIP3   OH231105   2.157   4.188   3.633 -0.1463 -0.1084 -0.4767
 3205TIP3    H131106   2.074   4.157   3.597 -0.8829 -0.4573  1.4143
 3205TIP3    H231107   2.222   4.125   3.603 -0.9771 -1.2355  0.0168
 3206TIP3   OH231108   1.859   3.432   5.326 -0.4449 -0.0589  0.3079
 3206TIP3    H131109   1.780   3.473   5.293  0.0239  0.0096 -0.7641
 3206TIP3    H231110   1.888   3.489   5.397  0.1832  1.5039 -1.1369
 3207TIP3   OH231111   3.017   0.163  14.921 -0.1139  0.7551  0.1433
 3207TIP3    H131112   3.003   0.192  14.830 -1.3165  0.1950  0.1442
 3207TIP3    H231113   3.101   0.116  14.918 -1.1409 -1.1119 -1.1483
 3208TIP3   OH231114   3.028   0.162  16.670  0.3806  0.5373  0.6220
 3208TIP3    H131115   2.995   0.080  16.706 -0.4630  0.3181 -0.6154
 3208TIP3    H231116   2.974   0.230  16.712 -0.7196  0.2723 -0.3240
 3209TIP3   OH231117   0.169   1.277   0.680 -0.4908 -0.2523 -0.7026
 3209TIP3    H131118   0.237   1.326   0.632 -0.1549 -0.0793 -0.0627
 3209TIP3    H231119   0.204   1.269   0.769  0.4887 -3.5611 -1.2450
 3210TIP3   OH231120   0.752   2.843  11.785 -0.2784 -0.1673  0.3111
 3210TIP3    H131121   0.757   2.841  11.689 -0.1308 -1.2806  0.3241
 3210TIP3    H231122   0.710   2.760  11.808  1.2035 -0.6904  1.2816
 3211TIP3   OH231123   1.994   3.104   1.412  0.2502  0.6598  0.0906
 3211TIP3    H131124   2.006   3.100   1.317  0.3773 -1.1010  0.1425
 3211TIP3    H231125   1.902   3.084   1.426 -0.4537  3.5809  0.2543
 3212TIP3   OH231126   2.207   4.344   4.440 -0.4861 -0.0761  0.1409
 3212TIP3    H131127   2.126   4.391   4.460 -0.2949 -0.2529  1.4300
 3212TIP3    H231128   2.186   4.290   4.364 -0.8699  1.6725 -1.0825
 3213TIP3   OH231129   5.869   0.300  14.387  0.3535  0.2652  0.3162
 3213TIP3    H131130   5.871   0.244  14.465 -0.4258  0.1741  0.2823
 3213TIP3    H231131   5.835   0.384  14.419  3.2320  1.3928  0.7451
 3214TIP3   OH231132   4.172   3.371  16.126 -0.0815  0.1632 -0.1248
 3214TIP3    H131133   4.124   3.453  16.132  1.6830  1.4234 -1.8947
 3214TIP3    H231134   4.120   3.309  16.177 -1.1740  2.4854  1.8033
 3215TIP3   OH231135   2.760   1.916  16.064  0.0228 -0.1827 -0.4785
 3215TIP3    H131136   2.678   1.871  16.085 -1.5203  2.9923  0.9967
 3215TIP3    H231137   2.786   1.881  15.979 -2.3166 -1.9933 -0.5435
 3216TIP3   OH231138   0.443   1.457  16.328  0.6559  0.0278 -0.1392
 3216TIP3    H131139   0.414   1.545  16.303  2.4004  1.0325  1.0998
 3216TIP3    H231140   0.408   1.400  16.260  1.8773  2.0547 -2.6323
 3217TIP3   OH231141   4.734   0.310   4.543 -0.5647 -0.3939  0.0886
 3217TIP3    H131142   4.778   0.305   4.627  0.8191  1.4665 -0.4551
 3217TIP3    H231143   4.758   0.228   4.499  3.6185  0.9547 -0.6604
 3218TIP3   OH231144   5.575   1.614  13.713  0.8718 -0.6017  0.3769
 3218TIP3    H131145   5.607   1.700  13.686  0.3910 -0.6191 -0.2944
 3218TIP3    H231146   5.619   1.553  13.653 -1.3329 -0.5204 -1.4526
 3219TIP3   OH231147   6.688   5.127   1.844  0.2405  0.5282  0.0737
 3219TIP3    H131148   6.612   5.068   1.846  0.7768 -0.1879 -0.1585
 3219TIP3    H231149   6.653   5.211   1.815 -0.5079  0.2680  0.2112
 3220TIP3   OH231150   0.144   0.637   3.615  0.0370 -0.0435  0.1832
 3220TIP3    H131151   0.134   0.648   3.520  1.4105 -0.4712 -0.0327
 3220TIP3    H231152   0.161   0.544   3.626  2.4966  0.3853  0.5588
 3221TIP3   OH231153   1.983   1.376  10.867 -0.6205 -0.1318  0.3176
 3221TIP3    H131154   1.960   1.466  10.889 -0.5945 -0.0908  0.1758
 3221TIP3    H231155   2.005   1.379  10.774 -1.5285 -0.4665  0.0880
 3222TIP3   OH231156   1.546   6.757   3.360  0.1669  0.2617 -0.2060
 3222TIP3    H131157   1.562   6.680   3.305 -0.4354  0.1200 -0.1896
 3222TIP3    H231158   1.505   6.722   3.439  1.5660  0.3937  0.6116
 3223TIP3   OH231159   6.415   0.160  16.442  0.2408 -0.1721 -0.4292
 3223TIP3    H131160   6.419   0.178  16.348 -0.8648 -0.9916 -0.6558
 3223TIP3    H231161   6.370   0.076  16.449  2.7347 -1.5325  0.7238
 3224TIP3   OH231162   0.267   5.066   3.143 -0.0254 -0.4218 -0.2574
 3224TIP3    H131163   0.325   5.000   3.106  1.2063  0.6033 -0.2179
 3224TIP3    H231164   0.269   5.049   3.237 -0.3740 -0.8346 -0.3202
 3225TIP3   OH231165   0.229   5.113   1.192  0.5531 -0.2488 -0.9314
 3225TIP3    H131166   0.152   5.081   1.239  1.2875 -1.2947 -0.3960
 3225TIP3    H231167   0.198   5.131   1.104 -0.4323 -0.0812 -0.5653
 3226TIP3   OH231168   2.098   4.381   5.259  0.6840  0.3536 -0.1640
 3226TIP3    H131169   2.171   4.321   5.272  0.2554 -0.1579 -0.1150
 3226TIP3    H231170   2.127   4.439   5.189  1.7230  1.0813  0.8223
 3227TIP3   OH231171   3.017   5.254   2.263 -0.4355 -0.1446 -0.1104
 3227TIP3    H131172   2.934   5.264   2.310  1.2925  1.0172  2.9934
 3227TIP3    H231173   2.999   5.290   2.176 -2.5808  2.5532  1.2673
 3228TIP3   OH231174   5.952   3.796  12.836  0.2480  0.1324  0.1745
 3228TIP3    H131175   5.901   3.718  12.813 -0.0703  0.6023 -0.7282
 3228TIP3    H231176   5.920   3.864  12.778  0.3585  1.0190  1.1265
 3229TIP3   OH231177   5.496   0.239   2.763 -0.1540  0.0358  0.1068
 3229TIP3    H131178   5.540   0.154   2.753 -0.0132  0.0860  0.2907
 3229TIP3    H231179   5.456   0.235   2.850 -0.4938  0.0021 -0.0461
 3230TIP3   OH231180   6.006   6.266   2.276  0.1577  0.4252  0.5670
 3230TIP3    H131181   5.993   6.333   2.343 -1.1821 -0.7550  1.5426
 3230TIP3    H231182   6.099   6.272   2.254  0.0003  2.8702  0.2854
 3231TIP3   OH231183   2.553   3.578  14.252  0.2960  0.0682  0.7432
 3231TIP3    H131184   2.632   3.630  14.243 -0.3918  0.8790 -0.9666
 3231TIP3    H231185   2.500   3.600  14.175 -1.3758 -0.8159  1.5764
 3232TIP3   OH231186   4.710   2.342  13.847  0.3584  0.1273  0.1698
 3232TIP3    H131187   4.637   2.295  13.807  0.4189  0.1289  0.0564
 3232TIP3    H231188   4.671   2.422  13.881  0.4615  0.5679 -0.7011
 3233TIP3   OH231189   6.786   5.185   0.761 -0.0360 -0.0495  0.1905
 3233TIP3    H131190   6.876   5.212   0.743 -0.3205  1.7214  1.1748
 3233TIP3    H231191   6.789   5.148   0.849 -0.4898  1.4632  0.8814
 3234TIP3   OH231192   1.257   4.908  13.866  0.2263  0.6652 -0.5604
 3234TIP3    H131193   1.309   4.914  13.946 -1.3164  2.1245  0.4145
 3234TIP3    H231194   1.276   4.822  13.830  0.8445 -0.0911  1.4881
 3235TIP3   OH231195   1.273   1.291   1.101 -0.2986  0.0771  0.1226
 3235TIP3    H131196   1.303   1.215   1.052  0.5297 -0.7343  1.8233
 3235TIP3    H231197   1.287   1.365   1.041  0.9540 -0.8392 -0.7703
 3236TIP3   OH231198   1.117   4.306   5.828  0.5452 -0.6406  0.2006
 3236TIP3    H131199   1.181   4.267   5.769  0.0208  0.3958 -1.1102
 3236TIP3    H231200   1.048   4.339   5.771 -1.4653 -2.1577  1.5748
 3237TIP3   OH231201   0.385   2.359   3.935  0.0450 -0.2375 -0.0654
 3237TIP3    H131202   0.367   2.339   3.843 -0.8197  0.5185 -0.0771
 3237TIP3    H231203   0.457   2.422   3.933  0.2752 -0.5012 -0.1990
 3238TIP3   OH231204   1.376   2.318   4.548 -0.0982  0.2148 -0.2343
 3238TIP3    H131205   1.358   2.302   4.641 -2.0906  0.2479 -0.5551
 3238TIP3    H231206   1.318   2.257   4.502  0.7155  0.3392 -1.4607
 3239TIP3   OH231207   6.303   3.963  15.787  0.1062  0.1146 -0.1326
 3239TIP3    H131208   6.358   3.988  15.714  0.0202  0.1870 -0.1741
 3239TIP3    H231209   6.225   3.924  15.747  0.1438 -0.0180 -0.0747
 3240TIP3   OH231210   2.220   6.366  11.439 -0.0427 -0.3525 -0.3866
 3240TIP3    H131211   2.196   6.284  11.396 -2.8710  1.0176 -1.6215
 3240TIP3    H231212   2.200   6.351  11.532  3.6290 -2.4115  0.3066
 3241TIP3   OH231213   6.662   5.791   5.791  0.0825 -0.4686 -0.1636
 3241TIP3    H131214   6.638   5.776   5.883 -2.9600  2.6290 -0.2470
 3241TIP3    H231215   6.720   5.867   5.793  1.3380 -1.3773 -0.7697
 3242TIP3   OH231216   5.108   0.702  14.039  0.0570  0.4615 -0.1316
 3242TIP3    H131217   5.156   0.751  14.106  1.0484 -1.0612  0.3252
 3242TIP3    H231218   5.174   0.684  13.971 -0.0066 -1.0662  0.1806
 3243TIP3   OH231219   5.063   0.498   2.716 -0.0934 -0.1912  0.5289
 3243TIP3    H131220   4.985   0.454   2.684 -0.1547 -0.3489  0.8860
 3243TIP3    H231221   5.078   0.460   2.803  1.7123 -1.8631 -0.4420
 3244TIP3   OH231222   3.543   4.732   0.501  0.0474  0.2629 -0.1515
 3244TIP3    H131223   3.539   4.719   0.596 -0.3519 -0.7769 -0.2958
 3244TIP3    H231224   3.461   4.777   0.479 -0.3771 -0.4740 -0.1280
 3245TIP3   OH231225   4.851   0.463   3.705 -0.1459  0.0357 -0.2460
 3245TIP3    H131226   4.803   0.467   3.622  0.3470  0.6825 -0.5164
 3245TIP3    H231227   4.785   0.482   3.772 -0.1310  1.7929 -0.6741
 3246TIP3   OH231228   0.291   4.080  11.301  0.1864 -0.1941  0.4049
 3246TIP3    H131229   0.200   4.052  11.306 -0.0017  0.2532 -0.3880
 3246TIP3    H231230   0.332   4.042  11.379 -0.7322 -0.1767  0.9097
 3247TIP3   OH231231   5.846   1.045   0.956 -0.0978 -0.0376  0.0313
 3247TIP3    H131232   5.803   1.010   0.878 -0.8892  0.3316  0.2861
 3247TIP3    H231233   5.936   1.062   0.928 -0.1518 -0.6754 -0.5662
 3248TIP3   OH231234   5.317   2.290  12.869 -0.6723 -0.2492 -0.5851
 3248TIP3    H131235   5.311   2.358  12.937  0.1832 -1.0304  0.3002
 3248TIP3    H231236   5.246   2.230  12.889  0.1380 -0.9717  0.2044
 3249TIP3   OH231237   6.533   4.525   0.461  0.3251  0.1410  0.1408
 3249TIP3    H131238   6.597   4.574   0.409 -0.9752  0.1434 -1.5144
 3249TIP3    H231239   6.582   4.450   0.494  1.2976  0.3674 -0.7320
 3250TIP3   OH231240   3.453   5.384  15.093  0.4893 -0.1032  0.3162
 3250TIP3    H131241   3.376   5.437  15.071 -0.4997 -0.9001  1.6556
 3250TIP3    H231242   3.426   5.294  15.076  1.9045 -0.2721 -1.2648
 3251TIP3   OH231243   3.581   5.925  14.768 -0.0724 -0.4444 -0.3890
 3251TIP3    H131244   3.629   5.931  14.851 -0.4410  1.0141 -0.2393
 3251TIP3    H231245   3.496   5.889  14.792  0.3933 -1.5756 -0.4076
 3252TIP3   OH231246   0.450   0.463   2.417  0.3301 -0.3624  0.0878
 3252TIP3    H131247   0.503   0.480   2.340  0.3085  0.2934  0.2146
 3252TIP3    H231248   0.457   0.368   2.431  1.3759 -0.2939  0.0477
 3253TIP3   OH231249   5.972   0.080   2.892 -0.5020  0.2880 -0.6073
 3253TIP3    H131250   6.035   0.029   2.944  0.6084  1.5491 -0.6487
 3253TIP3    H231251   5.888   0.036   2.906  0.1832 -0.7653  0.3951
 3254TIP3   OH231252   1.219   5.885  11.433 -0.1514 -0.1716  0.0897
 3254TIP3    H131253   1.301   5.872  11.480  0.3167 -2.2601 -1.1759
 3254TIP3    H231254   1.183   5.966  11.470  2.5998  0.9985  0.4829
 3255TIP3   OH231255   2.772   2.057  16.726  0.3760 -0.6070 -0.0926
 3255TIP3    H131256   2.838   2.060  16.796 -0.8247  0.3035  1.0512
 3255TIP3    H231257   2.704   2.118  16.755  0.8636  1.5833 -3.1647
 3256TIP3   OH231258   6.203   0.815   3.056 -0.1439 -0.6275 -0.0269
 3256TIP3    H131259   6.148   0.799   2.979 -0.8351 -1.6633  0.6560
 3256TIP3    H231260   6.210   0.730   3.099  0.2684 -0.0780  1.0321
 3257TIP3   OH231261   0.075   5.141   4.283 -0.4726  0.0855  0.3374
 3257TIP3    H131262  -0.011   5.122   4.246  0.4908 -2.3389 -0.8678
 3257TIP3    H231263   0.137   5.096   4.226  1.4735  0.1880  2.2171
 3258TIP3   OH231264   0.584   2.974  14.312 -0.6282 -0.0383 -0.1565
 3258TIP3    H131265   0.617   2.943  14.228  0.2341  1.2538 -0.3172
 3258TIP3    H231266   0.504   3.021  14.291 -0.1564  0.6990 -0.3229
 3259TIP3   OH231267   6.261   6.730  13.230 -0.3536 -0.1198 -0.6179
 3259TIP3    H131268   6.314   6.691  13.298  0.6095 -2.3871 -2.5254
 3259TIP3    H231269   6.174   6.690  13.241 -0.2625 -0.3095 -0.5941
 3260TIP3   OH231270   5.790   1.962  14.463  0.2134 -0.4341 -0.1596
 3260TIP3    H131271   5.776   2.040  14.518 -1.4217 -0.2494 -0.7896
 3260TIP3    H231272   5.808   1.997  14.376 -1.5711 -0.7255 -0.6835
 3261TIP3   OH231273   0.303   4.422  16.726 -0.1394  1.2711  0.1470
 3261TIP3    H131274   0.347   4.451  16.806  0.3540 -0.3683  0.4998
 3261TIP3    H231275   0.355   4.348  16.695 -3.2268 -1.5812  1.2243
 3262TIP3   OH231276   4.398   0.797  12.559 -0.3229  0.1153 -0.1682
 3262TIP3    H131277   4.339   0.762  12.493  1.5177 -1.5212 -1.0460
 3262TIP3    H231278   4.433   0.877  12.520 -1.6017  0.8902  0.2031
 3263TIP3   OH231279   6.503   0.276   2.069  0.1117  0.2434 -0.0078
 3263TIP3    H131280   6.475   0.362   2.102  0.5595  0.2237  0.4447
 3263TIP3    H231281   6.597   0.287   2.054  0.4030 -0.5113  1.1801
 3264TIP3   OH231282   4.362   3.597   3.560 -0.7350 -0.7535  0.1814
 3264TIP3    H131283   4.357   3.638   3.647 -1.1186 -0.2118 -0.0899
 3264TIP3    H231284   4.362   3.670   3.499 -1.8716 -1.1576 -0.3328
 3265TIP3   OH231285   0.083   0.219  10.578  0.5036 -0.0634 -0.4550
 3265TIP3    H131286   0.085   0.142  10.635  1.6456  0.0461 -0.3074
 3265TIP3    H231287   0.035   0.190  10.500  1.1191 -1.0167 -0.5068
 3266TIP3   OH231288   4.223   4.204   4.666  0.1014  0.5756  0.2825
 3266TIP3    H131289   4.234   4.285   4.615  0.8077  0.5144  0.3312
 3266TIP3    H231290   4.253   4.135   4.607  1.9741  0.6078  1.1421
 3267TIP3   OH231291   0.669   4.788   0.364 -0.4513 -0.6202  0.2229
 3267TIP3    H131292   0.586   4.743   0.379 -1.1278  0.5078  0.0115
 3267TIP3    H231293   0.647   4.881   0.371  0.5980 -0.2688 -0.7863
 3268TIP3   OH231294   0.947   2.714   3.669  0.4804  0.6972 -0.5309
 3268TIP3    H131295   0.981   2.669   3.746 -1.4565 -2.2567 -1.1872
 3268TIP3    H231296   0.883   2.777   3.704  0.3026  0.0596  0.3369
 3269TIP3   OH231297   4.604   6.461  12.401 -0.0773 -0.0926  0.1699
 3269TIP3    H131298   4.535   6.456  12.334 -0.1291  0.3599  0.1862
 3269TIP3    H231299   4.679   6.498  12.355  0.3239 -1.0551  0.0243
 3270TIP3   OH231300   3.525   4.663  16.922 -0.2060  0.5494  0.3959
 3270TIP3    H131301   3.509   4.665  17.017  2.8373 -1.1642  1.0671
 3270TIP3    H231302   3.577   4.742  16.906  0.8674 -0.1265  0.5215
 3271TIP3   OH231303   5.372   6.623   1.650  0.4415 -0.3325 -0.3541
 3271TIP3    H131304   5.331   6.705   1.676  0.7766  0.0843 -1.1025
 3271TIP3    H231305   5.353   6.563   1.721 -0.9340  0.0173 -0.3986
 3272TIP3   OH231306   3.448   6.734  16.980 -0.8488  0.3220  0.0063
 3272TIP3    H131307   3.372   6.713  16.926 -1.6962 -0.5995  1.5023
 3272TIP3    H231308   3.523   6.703  16.930 -1.5441  0.1637 -0.9607
 3273TIP3   OH231309   2.770   3.445   2.676 -0.2043  0.4071 -0.0714
 3273TIP3    H131310   2.787   3.432   2.583 -0.1299 -2.6420  0.2602
 3273TIP3    H231311   2.848   3.410   2.720 -0.2433  1.7832  1.1541
 3274TIP3   OH231312   4.794   5.456  11.709  0.2688  0.0031 -0.6008
 3274TIP3    H131313   4.726   5.512  11.672 -0.0699 -0.3710 -0.5531
 3274TIP3    H231314   4.800   5.483  11.800  1.4602  1.2754 -1.0143
 3275TIP3   OH231315   2.538   0.957   4.622  0.5233 -0.1558  0.3059
 3275TIP3    H131316   2.510   1.046   4.602  1.9328 -0.1492 -1.9663
 3275TIP3    H231317   2.462   0.903   4.601  0.5775  0.2938 -1.2240
 3276TIP3   OH231318   6.007   2.678   4.790  0.3826 -0.3975 -0.3022
 3276TIP3    H131319   5.957   2.598   4.777  1.6471 -1.6776  1.9913
 3276TIP3    H231320   5.951   2.732   4.846 -0.3348  0.2163 -1.5838
 3277TIP3   OH231321   5.185   4.397   0.972  0.0901  0.0777  0.1110
 3277TIP3    H131322   5.138   4.343   0.908  1.4720 -1.1492  0.0886
 3277TIP3    H231323   5.254   4.439   0.922  1.7031 -1.5270  0.8649
 3278TIP3   OH231324   0.307   0.371   4.852 -0.1505 -0.0818  0.3878
 3278TIP3    H131325   0.250   0.377   4.775  1.3595 -0.5157 -0.8087
 3278TIP3    H231326   0.391   0.339   4.818  1.0468  1.1993  1.9833
 3279TIP3   OH231327   6.080   0.794   3.969  0.1239  0.0343 -0.5757
 3279TIP3    H131328   6.106   0.705   3.991  1.0393 -0.0565 -1.8789
 3279TIP3    H231329   6.134   0.850   4.026  0.9817 -0.2190 -1.1265
 3280TIP3   OH231330   1.147   6.620  16.246 -0.2102  0.0011  0.0588
 3280TIP3    H131331   1.139   6.642  16.339  0.5467  0.4818  0.0210
 3280TIP3    H231332   1.093   6.684  16.201  0.4879  0.6259  0.0843
 3281TIP3   OH231333   4.684   5.092   5.194 -0.4836 -0.6274  0.1034
 3281TIP3    H131334   4.751   5.032   5.227  0.2606 -0.3983 -0.9744
 3281TIP3    H231335   4.725   5.178   5.195 -1.5011 -0.1115  1.5069
 3282TIP3   OH231336   1.756   0.944   4.729  0.1798 -0.3652  0.0768
 3282TIP3    H131337   1.850   0.925   4.727  0.8129  2.3352 -0.7786
 3282TIP3    H231338   1.738   0.966   4.820  0.2846 -1.1636  0.2999
 3283TIP3   OH231339   1.405   3.080  16.348  0.3581  0.5936  0.1229
 3283TIP3    H131340   1.441   3.112  16.430  0.2303 -1.7187  1.1709
 3283TIP3    H231341   1.458   3.003  16.327 -0.7156  0.1244 -1.0223
 3284TIP3   OH231342   3.233   2.176   0.929 -0.6709  0.3317  0.0097
 3284TIP3    H131343   3.164   2.122   0.888 -0.8282  0.4559  0.1099
 3284TIP3    H231344   3.312   2.155   0.879 -0.8391  0.3959 -0.2900
 3285TIP3   OH231345   5.269   4.378   5.581  0.5158 -0.1506  0.0074
 3285TIP3    H131346   5.189   4.329   5.601  1.1024 -1.0260  0.2837
 3285TIP3    H231347   5.308   4.330   5.508  0.6804  0.4064 -0.2782
 3286TIP3   OH231348   0.155   5.314   4.688 -0.1679 -0.2601  0.1242
 3286TIP3    H131349   0.195   5.276   4.767 -0.6079 -1.1606 -0.0638
 3286TIP3    H231350   0.201   5.272   4.616 -0.9203 -0.7515 -0.0886
 3287TIP3   OH231351   6.267   5.566  15.781  0.0621 -0.0243  0.3177
 3287TIP3    H131352   6.175   5.578  15.808 -0.2563 -0.2368 -0.6373
 3287TIP3    H231353   6.304   5.508  15.847 -0.6287 -0.3206  0.4580
 3288TIP3   OH231354   3.826   6.239  16.569 -0.4009  0.0297  0.1363
 3288TIP3    H131355   3.749   6.280  16.528 -0.4495 -0.5679 -0.3927
 3288TIP3    H231356   3.792   6.201  16.650 -0.7519 -0.5097 -0.2487
 3289TIP3   OH231357   5.293   0.723   2.978  0.3493 -0.1012 -0.3917
 3289TIP3    H131358   5.307   0.807   2.936 -1.9604  0.5401 -0.0141
 3289TIP3    H231359   5.377   0.678   2.972  2.2323  2.9592  1.1310
 3290TIP3   OH231360   4.116   3.332   2.649  0.1102  0.4316 -0.5655
 3290TIP3    H131361   4.071   3.382   2.581  0.3688 -0.8054 -1.6833
 3290TIP3    H231362   4.067   3.250   2.656  1.4763 -0.4579 -0.9954
 3291TIP3   OH231363   1.067   3.281  14.669  0.0484 -0.0748  0.1580
 3291TIP3    H131364   1.080   3.193  14.635  1.8621  0.6953 -1.3494
 3291TIP3    H231365   1.033   3.331  14.595 -0.6215  0.5818  0.8920
 3292TIP3   OH231366   4.450   4.115  13.888 -0.5041  0.1942 -0.2134
 3292TIP3    H131367   4.431   4.090  13.978  0.0137 -0.0079 -0.1531
 3292TIP3    H231368   4.438   4.210  13.886  0.0079  0.2747  0.2142
 3293TIP3   OH231369   0.837   2.799  14.630 -0.4614 -0.4790  0.0547
 3293TIP3    H131370   0.924   2.807  14.590  1.6210 -2.7682  3.5696
 3293TIP3    H231371   0.819   2.886  14.666  0.1395  0.1409 -1.0732
 3294TIP3   OH231372   3.239   5.796  14.715 -0.3462 -0.3805 -0.0547
 3294TIP3    H131373   3.225   5.846  14.634  0.2536  1.5491  0.9559
 3294TIP3    H231374   3.155   5.755  14.733 -0.2730 -1.5636 -2.0715
 3295TIP3   OH231375   5.653   4.439   1.944 -0.2935  0.1095  0.2807
 3295TIP3    H131376   5.705   4.442   1.864  2.5075  0.8306  1.9991
 3295TIP3    H231377   5.651   4.529   1.975 -2.0392 -0.0202  0.6775
 3296TIP3   OH231378   3.999   4.989   6.092  0.2427  0.7126  0.1196
 3296TIP3    H131379   4.086   4.969   6.059 -0.0467 -0.7978  0.1902
 3296TIP3    H231380   3.950   5.018   6.015  0.5869  0.7858 -0.0719
 3297TIP3   OH231381   2.799   5.999   2.909 -0.1597  0.3125 -0.3350
 3297TIP3    H131382   2.885   6.010   2.950 -0.8293  1.1991  0.9123
 3297TIP3    H231383   2.737   6.014   2.981 -1.3580 -0.1337 -1.2525
 3298TIP3   OH231384   4.272   5.384   4.174 -0.4090 -0.5322 -0.3307
 3298TIP3    H131385   4.211   5.402   4.103 -0.3637 -1.6807 -0.6895
 3298TIP3    H231386   4.330   5.460   4.176 -1.7314  0.5202 -0.0786
 3299TIP3   OH231387   5.267   6.310   2.503  0.4848 -0.2565 -0.3594
 3299TIP3    H131388   5.323   6.386   2.519  1.1870 -0.9444  0.6111
 3299TIP3    H231389   5.178   6.345   2.500  0.7762  0.5684  0.3295
 3300TIP3   OH231390   0.001   3.962   1.856 -0.0632 -0.5116  0.0294
 3300TIP3    H131391   0.066   3.995   1.794 -1.0664  2.9209  0.6052
 3300TIP3    H231392  -0.074   3.938   1.802  0.6359 -1.8227 -0.3958
 3301TIP3   OH231393   2.035   3.560  13.643  0.2564  0.3727  0.4243
 3301TIP3    H131394   1.994   3.518  13.567  1.7403  0.8249 -0.6912
 3301TIP3    H231395   2.025   3.654  13.627 -0.0210  0.4659  1.1414
 3302TIP3   OH231396   2.016   5.426   3.169 -0.0081  0.8814 -0.3796
 3302TIP3    H131397   2.059   5.376   3.238  2.1619  1.7763 -1.0089
 3302TIP3    H231398   1.951   5.366   3.132  1.1571 -0.7838  0.1745
 3303TIP3   OH231399   4.425   2.365  14.496 -0.4546 -0.1204  0.4619
 3303TIP3    H131400   4.489   2.378  14.426 -2.0227  1.2090 -0.8109
 3303TIP3    H231401   4.347   2.412  14.466 -1.9175 -1.3452  2.1179
 3304TIP3   OH231402   1.514   3.845   6.569  0.1815 -0.3750  0.0035
 3304TIP3    H131403   1.519   3.820   6.661 -0.6138 -0.4896  0.0214
 3304TIP3    H231404   1.495   3.763   6.523 -2.2635  0.1016  0.0447
 3305TIP3   OH231405   4.618   4.588  10.714 -0.3488 -0.2085 -0.2224
 3305TIP3    H131406   4.555   4.520  10.691 -0.9416 -0.6782  2.4509
 3305TIP3    H231407   4.703   4.547  10.697 -0.7201 -1.2551  0.3228
 3306TIP3   OH231408   4.286   5.310  13.788 -0.6368  0.0376 -0.5679
 3306TIP3    H131409   4.310   5.398  13.759 -0.1631 -0.4337 -1.6518
 3306TIP3    H231410   4.254   5.322  13.878 -0.2720  1.2647 -0.5886
 3307TIP3   OH231411   5.703   2.067   6.056  0.0279 -0.2453 -0.3388
 3307TIP3    H131412   5.736   2.104   6.138  2.3719 -2.3028 -0.2219
 3307TIP3    H231413   5.608   2.065   6.067  0.2225  0.1693  2.0264
 3308TIP3   OH231414   4.446   2.069   4.341  0.3863 -0.1221 -0.9125
 3308TIP3    H131415   4.533   2.073   4.381 -1.2007  0.8432  2.9671
 3308TIP3    H231416   4.426   2.160   4.317 -0.4796  0.1638  0.7296
 3309TIP3   OH231417   0.334   1.332   2.787  0.7252  0.1811 -0.6881
 3309TIP3    H131418   0.413   1.361   2.742  1.4604 -0.9452 -0.1759
 3309TIP3    H231419   0.366   1.269   2.852 -0.3417  1.4130  1.1149
 3310TIP3   OH231420   6.617   0.864  15.689 -0.4375  0.0985 -0.0807
 3310TIP3    H131421   6.688   0.908  15.643 -0.7471 -0.2171 -0.8783
 3310TIP3    H231422   6.633   0.771  15.672 -0.5401 -0.0214  0.4762
 3311TIP3   OH231423   4.667   5.507  15.997 -0.6564 -0.0844  0.3917
 3311TIP3    H131424   4.744   5.452  15.986 -1.4340 -1.0221 -0.6884
 3311TIP3    H231425   4.701   5.597  15.994  0.6481 -0.4571  2.3039
 3312TIP3   OH231426   3.163   6.761   4.639  0.2208  0.0109 -0.1803
 3312TIP3    H131427   3.093   6.796   4.694  0.7653 -0.4455  0.8299
 3312TIP3    H231428   3.225   6.834   4.629 -0.5932  0.5555 -1.4512
 3313TIP3   OH231429   3.495   6.030   3.544 -0.1821 -0.2864 -0.1537
 3313TIP3    H131430   3.437   6.083   3.489 -1.6023 -0.3410  1.2063
 3313TIP3    H231431   3.528   6.091   3.610 -1.1206 -0.8632  0.8860
 3314TIP3   OH231432   6.490   2.818   4.208  0.6928 -0.6953 -0.2137
 3314TIP3    H131433   6.582   2.818   4.183 -0.1592  1.1363 -4.0586
 3314TIP3    H231434   6.459   2.729   4.188  0.8096 -0.1844 -3.0864
 3315TIP3   OH231435   4.665   4.448   2.505  0.5962  0.2878 -0.0189
 3315TIP3    H131436   4.600   4.466   2.436  1.3286  0.9919 -0.5510
 3315TIP3    H231437   4.613   4.423   2.581 -0.3146  1.1393 -0.3425
 3316TIP3   OH231438   6.717   3.416   5.106 -0.8742  0.1738  0.1460
 3316TIP3    H131439   6.770   3.440   5.182 -0.4120  0.8256 -0.3672
 3316TIP3    H231440   6.753   3.333   5.077 -0.6391  0.2307  0.2714
 3317TIP3   OH231441   4.823   5.358  11.406  0.1774  0.1407 -0.2111
 3317TIP3    H131442   4.764   5.296  11.363  2.3509 -2.4181  0.2536
 3317TIP3    H231443   4.801   5.351  11.499  1.0961 -0.7677 -0.0449
 3318TIP3   OH231444   3.591   1.843  13.934  0.0766 -0.0322 -0.6787
 3318TIP3    H131445   3.541   1.794  13.869  0.9265 -1.3915 -0.3492
 3318TIP3    H231446   3.580   1.934  13.909 -1.9179 -0.3375 -1.0483
 3319TIP3   OH231447   4.918   5.581   2.386  0.0526  0.0764 -0.1225
 3319TIP3    H131448   4.925   5.487   2.372  0.6397  0.2653 -1.1760
 3319TIP3    H231449   4.924   5.592   2.481 -3.2056 -1.1835  0.3854
 3320TIP3   OH231450   3.064   3.632   4.285 -0.9674 -0.3919 -0.1407
 3320TIP3    H131451   2.999   3.699   4.304 -0.1082  0.5400 -0.4090
 3320TIP3    H231452   3.147   3.670   4.312 -0.2671 -0.7412 -1.6743
 3321TIP3   OH231453   5.034   1.779  11.795 -0.2092 -0.1026 -0.5564
 3321TIP3    H131454   4.968   1.815  11.854  0.0452  0.2155 -0.4658
 3321TIP3    H231455   5.014   1.818  11.710 -1.2078 -1.3392 -0.9276
 3322TIP3   OH231456   1.771   6.084   1.341 -0.8128  0.5142  0.2277
 3322TIP3    H131457   1.689   6.038   1.361 -1.2478 -0.0356 -2.4411
 3322TIP3    H231458   1.829   6.015   1.309  0.9776  0.8043  2.5646
 3323TIP3   OH231459   4.220   3.968   2.663  0.1940 -0.0754 -0.0558
 3323TIP3    H131460   4.127   3.987   2.648  0.5550  0.4050 -2.0243
 3323TIP3    H231461   4.227   3.873   2.655 -0.2190 -0.1659  0.6599
 3324TIP3   OH231462   3.261   5.461   5.428 -0.1562  0.1552 -0.0955
 3324TIP3    H131463   3.350   5.496   5.426  0.3927 -1.1909 -0.4538
 3324TIP3    H231464   3.222   5.497   5.508  1.3942 -0.8504  1.1652
 3325TIP3   OH231465   4.934   2.369   0.913  0.0687 -0.1846  0.0955
 3325TIP3    H131466   4.872   2.398   0.980  1.1985 -0.2270  1.1998
 3325TIP3    H231467   4.988   2.447   0.895 -1.0771  0.2184 -1.7864
 3326TIP3   OH231468   5.445   6.118   1.493 -0.0790  0.5320 -0.3264
 3326TIP3    H131469   5.422   6.176   1.565  1.8408  1.1357 -0.1636
 3326TIP3    H231470   5.405   6.034   1.517 -0.3671  1.0031  0.9099
 3327TIP3   OH231471   4.193   2.269   5.340  0.5896 -0.0524 -0.6380
 3327TIP3    H131472   4.171   2.340   5.400  1.1089 -0.3000 -0.1396
 3327TIP3    H231473   4.171   2.189   5.388 -0.8076 -0.2333 -1.5199
 3328TIP3   OH231474   1.918   2.648   4.239  0.0523 -0.1782 -0.7101
 3328TIP3    H131475   1.972   2.628   4.163  2.5254 -2.9125  1.5101
 3328TIP3    H231476   1.884   2.562   4.267  0.4127  0.4844  2.0415
 3329TIP3   OH231477   4.759   0.960   4.430  0.1718 -0.0234 -0.1915
 3329TIP3    H131478   4.787   1.016   4.357 -0.8655 -1.5664 -1.8582
 3329TIP3    H231479   4.828   0.970   4.496  1.3882  1.0778 -1.5645
 3330TIP3   OH231480   1.387   6.710   5.495  0.3486  0.4148 -0.5734
 3330TIP3    H131481   1.464   6.658   5.517  0.0341 -0.3238 -1.1599
 3330TIP3    H231482   1.313   6.657   5.523  0.0525  1.4387  0.6512
 3331TIP3   OH231483   6.743   2.759  10.832 -0.0050 -0.4386 -0.1206
 3331TIP3    H131484   6.763   2.724  10.745 -2.0413 -0.1250 -0.7752
 3331TIP3    H231485   6.800   2.711  10.891  2.9681  0.7567 -1.7863
 3332TIP3   OH231486   3.333   4.842  12.944 -0.5116 -0.6335 -0.0960
 3332TIP3    H131487   3.283   4.762  12.957 -1.4999 -0.4616 -2.3508
 3332TIP3    H231488   3.370   4.833  12.856 -0.8947  1.4968 -0.5313
 3333TIP3   OH231489   3.727   0.041  13.237 -0.6377  0.0962 -0.1992
 3333TIP3    H131490   3.738   0.134  13.215  3.2526 -0.4402 -1.2551
 3333TIP3    H231491   3.707  -0.001  13.154  0.6181 -0.3143 -0.3173
 3334TIP3   OH231492   0.685   5.902  16.047  0.0517  0.7416  0.3161
 3334TIP3    H131493   0.590   5.888  16.050  0.2929 -1.0578  0.5808
 3334TIP3    H231494   0.722   5.815  16.062  1.7531  1.3462 -0.2444
 3335TIP3   OH231495   1.540   2.836  16.319 -0.3427  0.0150 -0.4704
 3335TIP3    H131496   1.628   2.836  16.282  1.7867 -1.9572  3.9246
 3335TIP3    H231497   1.505   2.748  16.299 -0.7179  0.2586 -0.9080
 3336TIP3   OH231498   1.982   4.098   4.973 -0.1997  0.3718  0.0214
 3336TIP3    H131499   1.984   4.007   4.945 -3.0289  0.1273  0.3139
 3336TIP3    H231500   1.994   4.149   4.893  1.5865 -0.2195 -0.1149
 3337TIP3   OH231501   2.600   5.434  12.911 -0.4723 -0.4543  0.2055
 3337TIP3    H131502   2.630   5.366  12.973  1.2332 -0.4148 -0.5001
 3337TIP3    H231503   2.673   5.496  12.907 -0.5985 -0.3629 -1.6939
 3338TIP3   OH231504   1.668   3.596   5.182 -0.0807 -0.6552 -0.3004
 3338TIP3    H131505   1.644   3.669   5.240  0.5008 -0.9499  0.3222
 3338TIP3    H231506   1.676   3.636   5.096  0.7990  0.1468  0.1294
 3339TIP3   OH231507   2.784   3.694   5.051 -0.2521 -0.0811  0.3307
 3339TIP3    H131508   2.821   3.761   5.108  0.1114  1.1440 -1.2516
 3339TIP3    H231509   2.694   3.722   5.036 -0.4292 -0.5437  0.5112
 3340TIP3   OH231510   1.044   1.100   4.689 -0.4227 -0.5137  0.1436
 3340TIP3    H131511   1.004   1.156   4.623 -0.7339  0.0756  0.8205
 3340TIP3    H231512   1.136   1.095   4.663 -0.9487 -2.2330 -1.6752
 3341TIP3   OH231513   4.251   5.565   3.305  0.9605  0.0241  0.2297
 3341TIP3    H131514   4.197   5.486   3.305  0.2620  0.4737 -0.7511
 3341TIP3    H231515   4.322   5.546   3.366 -0.2956 -0.5870  1.5531
 3342TIP3   OH231516   5.142   0.763   5.073 -0.4373 -0.0490 -0.2707
 3342TIP3    H131517   5.155   0.822   5.147 -1.7644 -1.0358  0.8063
 3342TIP3    H231518   5.228   0.724   5.058  0.1562  1.1694 -0.1625
 3343TIP3   OH231519   6.402   5.619   4.947 -0.1496  0.6431 -0.1336
 3343TIP3    H131520   6.468   5.665   4.896  0.0843 -0.1084 -0.5243
 3343TIP3    H231521   6.332   5.599   4.885 -0.1344  0.2535 -0.0307
 3344TIP3   OH231522   1.014   4.760   3.363 -0.2695 -0.0086 -0.1172
 3344TIP3    H131523   1.083   4.780   3.299  1.4663 -1.5240  1.1438
 3344TIP3    H231524   0.950   4.709   3.313 -1.1620  2.4222 -1.6043
 3345TIP3   OH231525   4.737   2.583   0.684  0.2973 -0.3792  0.0802
 3345TIP3    H131526   4.655   2.630   0.699  0.8719  1.8540 -2.7607
 3345TIP3    H231527   4.720   2.493   0.712 -1.3412  1.0541  4.5204
 3346TIP3   OH231528   1.737   2.040  11.795 -0.4448  0.2492  0.3761
 3346TIP3    H131529   1.793   1.972  11.833 -0.3538  0.5103  0.7122
 3346TIP3    H231530   1.749   2.116  11.853 -0.2814  0.6612 -0.1947
 3347TIP3   OH231531   4.518   6.819  10.967  0.2942  0.4246 -0.3319
 3347TIP3    H131532   4.563   6.892  10.924  1.3868 -1.6419 -2.9808
 3347TIP3    H231533   4.436   6.810  10.919  0.6302 -0.6849 -0.7203
 3348TIP3   OH231534   5.943   6.257  14.391 -0.8589 -0.2103 -0.3186
 3348TIP3    H131535   5.912   6.246  14.301  1.3283 -0.9129 -1.0505
 3348TIP3    H231536   6.017   6.196  14.398 -1.2068 -0.4533  2.0919
 3349TIP3   OH231537   0.959   0.263   5.234  0.5921  0.1623  0.3802
 3349TIP3    H131538   1.036   0.300   5.191 -0.3951  0.7619 -0.9188
 3349TIP3    H231539   0.969   0.168   5.225  1.1716  0.2330  0.2396
 3350TIP3   OH231540   4.755   3.152   4.884 -0.5472  0.3669 -0.4281
 3350TIP3    H131541   4.711   3.235   4.868  1.0722  1.0066 -1.9650
 3350TIP3    H231542   4.791   3.127   4.799  1.4303 -0.4251  0.5749
 3351TIP3   OH231543   5.905   2.340   0.096  1.1835 -0.7155  0.4678
 3351TIP3    H131544   5.873   2.365   0.183  0.3949 -1.2185  0.3310
 3351TIP3    H231545   5.867   2.254   0.081 -0.8142  0.3972 -1.4262
 3352TIP3   OH231546   0.839   4.626  11.683  0.4085 -0.0999  0.6072
 3352TIP3    H131547   0.919   4.574  11.690  0.9727  0.9292  2.4297
 3352TIP3    H231548   0.800   4.599  11.600  2.7094 -0.5257 -0.4097
 3353TIP3   OH231549   2.448   1.614  13.286 -0.1720 -0.1445  0.0721
 3353TIP3    H131550   2.540   1.638  13.293 -0.2785  0.2574  0.1251
 3353TIP3    H231551   2.409   1.683  13.232 -0.4420 -0.3063  0.0577
 3354TIP3   OH231552   0.209   5.601   0.623  0.2470  0.3468  0.5255
 3354TIP3    H131553   0.168   5.566   0.543  0.5541 -0.8943  0.8931
 3354TIP3    H231554   0.145   5.664   0.656  0.1875  1.0163 -0.7824
 3355TIP3   OH231555   2.916   6.496  13.231 -0.3820 -0.0290  0.6730
 3355TIP3    H131556   2.949   6.577  13.269  0.6229  0.5320 -1.2595
 3355TIP3    H231557   2.937   6.429  13.296  2.7588  0.6433  0.5287
 3356TIP3   OH231558   6.509   2.800   1.447  0.4853 -0.1531  1.2129
 3356TIP3    H131559   6.503   2.733   1.515 -1.3898 -2.0391 -0.6279
 3356TIP3    H231560   6.444   2.865   1.472  0.6820 -0.1968  1.8483
 3357TIP3   OH231561   0.950   1.604   5.180  0.7637 -0.0572  0.1114
 3357TIP3    H131562   0.949   1.508   5.185  0.1904 -0.0715 -0.2401
 3357TIP3    H231563   0.869   1.627   5.135  1.0169  0.5845 -0.0299
 3358TIP3   OH231564   4.096   3.889  10.574 -0.6509 -0.4312 -0.0506
 3358TIP3    H131565   4.170   3.950  10.578 -1.3007  0.4799 -1.2077
 3358TIP3    H231566   4.136   3.802  10.581  0.6090  0.0057 -1.3718
 3359TIP3   OH231567   2.456   0.374   0.161  0.4305 -0.2735 -0.2760
 3359TIP3    H131568   2.477   0.456   0.205  2.3065 -1.0084  0.2620
 3359TIP3    H231569   2.479   0.389   0.069 -2.8416  1.0246 -1.0337
 3360TIP3   OH231570   6.111   6.609  15.764 -0.3867 -0.2134 -0.1955
 3360TIP3    H131571   6.071   6.680  15.714 -0.9393  0.8569  1.6493
 3360TIP3    H231572   6.078   6.529  15.724 -2.1592  0.6141 -0.4917
 3361TIP3   OH231573   4.811   0.331   5.877  0.0965 -0.2652 -0.4510
 3361TIP3    H131574   4.719   0.348   5.856 -0.3774 -1.0318  0.8646
 3361TIP3    H231575   4.813   0.238   5.899  0.9085  0.0334  0.8647
 3362TIP3   OH231576   2.220   2.038  16.094 -0.1839  0.6430 -0.0878
 3362TIP3    H131577   2.206   1.944  16.091  0.2486  0.5728 -0.0173
 3362TIP3    H231578   2.150   2.075  16.040  0.1419  0.2259 -0.8113
 3363TIP3   OH231579   3.259   0.705   2.629 -0.0969  0.0939  0.2496
 3363TIP3    H131580   3.259   0.776   2.694  0.7311  0.1111  0.2535
 3363TIP3    H231581   3.169   0.700   2.598 -0.0876  1.4831 -0.1004
 3364TIP3   OH231582   5.352   1.351   1.522  0.3412 -0.0985 -0.4239
 3364TIP3    H131583   5.393   1.426   1.478 -0.9164  0.9505  0.1474
 3364TIP3    H231584   5.260   1.356   1.497 -0.1670 -0.2133  1.3022
 3365TIP3   OH231585   3.885   2.113  11.105 -0.3155 -0.3688 -0.3659
 3365TIP3    H131586   3.860   2.069  11.023 -1.2378  0.2386 -0.4316
 3365TIP3    H231587   3.829   2.073  11.172 -1.5973  1.0611 -0.5265
 3366TIP3   OH231588   6.124   1.469  12.229 -0.4897 -0.3619  0.1797
 3366TIP3    H131589   6.106   1.451  12.137 -0.5178 -0.3861  0.1895
 3366TIP3    H231590   6.151   1.560  12.232  0.7883 -0.7162 -0.0274
 3367TIP3   OH231591   3.829   4.669  16.961  0.1108 -0.4181 -0.4086
 3367TIP3    H131592   3.808   4.583  16.997  1.8468 -1.3146 -1.3768
 3367TIP3    H231593   3.799   4.732  17.027 -0.0871 -1.8204  0.8753
 3368TIP3   OH231594   0.148   0.428  14.855  0.7792  1.0355 -0.2180
 3368TIP3    H131595   0.090   0.428  14.779  1.0475  0.1487 -0.4445
 3368TIP3    H231596   0.219   0.488  14.832  0.3242  1.5774 -0.2287
 3369TIP3   OH231597   0.339   1.218   1.556  0.4474 -0.4474  0.2851
 3369TIP3    H131598   0.353   1.207   1.650 -0.1796 -0.4651  0.3774
 3369TIP3    H231599   0.415   1.177   1.516  1.2284  0.4459  0.8115
 3370TIP3   OH231600   1.886   0.816  16.160 -0.1040  0.4661 -0.0268
 3370TIP3    H131601   1.903   0.816  16.065 -1.0609  0.0425 -0.2164
 3370TIP3    H231602   1.948   0.880  16.195  1.3614 -0.5152 -0.7211
 3371TIP3   OH231603   4.483   5.509   5.207 -0.5582 -0.5112  0.6012
 3371TIP3    H131604   4.396   5.493   5.169 -0.5623 -0.5093  0.6096
 3371TIP3    H231605   4.476   5.473   5.296 -0.8629  0.3625  0.9415
 3372TIP3   OH231606   0.664   0.681   0.810 -0.3111 -0.4272 -0.1329
 3372TIP3    H131607   0.586   0.712   0.855 -1.0031 -1.2589 -0.7305
 3372TIP3    H231608   0.668   0.588   0.831  0.7038 -0.3298  0.1511
 3373TIP3   OH231609   3.344   6.218   2.935  0.5828  0.0874  0.5572
 3373TIP3    H131610   3.413   6.237   2.871  1.7908 -0.5862  1.6193
 3373TIP3    H231611   3.322   6.304   2.973 -0.4321  0.5598 -0.9795
 3374TIP3   OH231612   3.270   5.316  14.191 -0.3120  0.1457 -0.6080
 3374TIP3    H131613   3.354   5.360  14.182  0.3594 -1.0879 -0.6896
 3374TIP3    H231614   3.278   5.239  14.134 -0.6720 -1.1328  1.0070
 3375TIP3   OH231615   5.207   5.233  11.718  0.1492  0.5880  0.1018
 3375TIP3    H131616   5.207   5.240  11.622  1.6702 -1.0682 -0.0589
 3375TIP3    H231617   5.114   5.222  11.740 -0.2421  1.0949 -1.1554
 3376TIP3   OH231618   1.755   0.366   0.953  0.2145 -0.5728  0.0824
 3376TIP3    H131619   1.692   0.295   0.956  0.5234 -0.9818 -1.6230
 3376TIP3    H231620   1.781   0.380   1.044  0.0957 -2.6052  0.4725
 3377TIP3   OH231621   1.441   1.439   2.087 -0.4273 -0.1706 -0.3537
 3377TIP3    H131622   1.490   1.460   2.166  0.6745  0.0089 -1.0581
 3377TIP3    H231623   1.395   1.520   2.065 -0.7818 -0.2382  0.1262
 3378TIP3   OH231624   3.398   1.426  11.863 -0.2610 -0.8368 -0.0078
 3378TIP3    H131625   3.334   1.369  11.905 -3.4288  1.4034 -1.3128
 3378TIP3    H231626   3.427   1.378  11.786 -1.2860 -1.4658 -0.0150
 3379TIP3   OH231627   0.759   3.799   0.917  0.5896 -0.0446  0.1313
 3379TIP3    H131628   0.809   3.808   0.998 -0.1171 -1.0231  0.6989
 3379TIP3    H231629   0.668   3.798   0.945  0.3201 -0.0320 -0.7121
 3380TIP3   OH231630   6.666   2.959   5.130 -0.0330 -0.4970 -0.3132
 3380TIP3    H131631   6.594   3.011   5.094  2.9680  2.3825 -2.7312
 3380TIP3    H231632   6.683   2.892   5.064  0.5204 -0.1021 -0.5835
 3381TIP3   OH231633   3.319   3.692  11.278  0.3188  0.2212  0.4059
 3381TIP3    H131634   3.344   3.600  11.277  1.1414  0.3857 -2.1646
 3381TIP3    H231635   3.290   3.710  11.188 -0.5506  2.2834  1.0412
 3382TIP3   OH231636   2.161   6.300  15.580  0.3583  0.4113  0.2528
 3382TIP3    H131637   2.218   6.333  15.511 -0.4749  0.0230 -0.6297
 3382TIP3    H231638   2.111   6.229  15.540 -0.0666  0.1016  1.2784
 3383TIP3   OH231639   5.598   1.819   4.320  0.3691 -0.0878 -0.3618
 3383TIP3    H131640   5.595   1.853   4.230 -1.1770 -2.9685 -1.5448
 3383TIP3    H231641   5.631   1.730   4.311 -0.5696 -0.7203  1.8220
 3384TIP3   OH231642   3.136   4.234  16.039  0.5044  0.0355 -0.5776
 3384TIP3    H131643   3.191   4.171  16.085 -2.0409 -0.3466  2.2546
 3384TIP3    H231644   3.147   4.315  16.088  0.5704  0.6869 -1.6387
 3385TIP3   OH231645   0.804   2.354   1.568 -0.1979  0.3887  0.1998
 3385TIP3    H131646   0.735   2.287   1.577  0.7153 -0.2374  3.8942
 3385TIP3    H231647   0.765   2.433   1.605 -0.4879  1.4207 -2.1321
 3386TIP3   OH231648   0.379   6.246  15.710 -0.5276 -0.4849  0.3063
 3386TIP3    H131649   0.287   6.270  15.698 -0.5894 -0.4780  0.7782
 3386TIP3    H231650   0.417   6.320  15.757 -0.3278 -0.5860  0.3040
 3387TIP3   OH231651   3.870   6.667   2.222  0.0934  0.0160 -0.5652
 3387TIP3    H131652   3.961   6.652   2.194 -0.3484 -1.3518 -1.3473
 3387TIP3    H231653   3.850   6.755   2.191  1.7587  1.1744  1.3583
 3388TIP3   OH231654   1.579   4.277  13.610  0.1401  0.8167  0.0898
 3388TIP3    H131655   1.661   4.276  13.561  0.8836  1.9545  1.2556
 3388TIP3    H231656   1.602   4.316  13.695 -1.4856  0.6168  0.6550
 3389TIP3   OH231657   5.570   2.839   4.213  0.8909  0.5685  0.4684
 3389TIP3    H131658   5.628   2.810   4.143  0.1383  0.9000 -0.2976
 3389TIP3    H231659   5.487   2.859   4.170  0.5217  1.1107  1.3987
 3390TIP3   OH231660   0.157   4.337  15.637 -0.4669  0.5118  0.5889
 3390TIP3    H131661   0.111   4.259  15.606  2.1902 -0.9615  0.0862
 3390TIP3    H231662   0.188   4.314  15.724  1.0869  0.6370  0.0938
 3391TIP3   OH231663   1.765   5.283  12.132 -0.3160 -0.5974  0.1475
 3391TIP3    H131664   1.672   5.263  12.118 -0.4664 -1.5836  2.0704
 3391TIP3    H231665   1.789   5.229  12.208  2.3183 -1.7753 -1.3617
 3392TIP3   OH231666   5.920   5.272  12.007  0.1705  0.7060 -0.0969
 3392TIP3    H131667   5.869   5.351  12.022 -1.6991 -0.5233  0.3475
 3392TIP3    H231668   6.004   5.303  11.973 -0.6319  2.8322 -0.2454
 3393TIP3   OH231669   5.642   1.932  15.169  0.1678 -0.1921  1.4623
 3393TIP3    H131670   5.691   2.009  15.141 -1.1089 -0.3784 -1.8025
 3393TIP3    H231671   5.565   1.967  15.214 -0.8296  0.6165 -0.7195
 3394TIP3   OH231672   3.312   4.170  15.014  0.2686  0.3186 -0.0216
 3394TIP3    H131673   3.357   4.088  15.034  0.1325  0.7000  2.0402
 3394TIP3    H231674   3.219   4.148  15.016  0.2466  0.4058 -0.0736
 3395TIP3   OH231675   6.377   2.358  13.999 -0.3895  0.1973  0.1806
 3395TIP3    H131676   6.467   2.375  13.969 -0.3676 -1.5014 -0.9070
 3395TIP3    H231677   6.326   2.355  13.918 -1.1360 -0.3693  0.6676
 3396TIP3   OH231678   1.542   2.869   4.690  0.5840  0.3142 -0.2004
 3396TIP3    H131679   1.617   2.919   4.722  1.4276 -0.6715 -0.5993
 3396TIP3    H231680   1.511   2.919   4.614  3.5706 -1.4403 -2.7855
 3397TIP3   OH231681   1.021   0.283  14.548  0.1194 -0.0615  0.1041
 3397TIP3    H131682   1.101   0.240  14.518  0.1091  0.9870 -1.5938
 3397TIP3    H231683   1.049   0.336  14.623  1.1807  0.7331 -0.8065
 3398TIP3   OH231684   1.955   6.437  12.931 -0.6068  0.2252  0.0314
 3398TIP3    H131685   1.864   6.462  12.946 -0.8463 -1.0625  0.8294
 3398TIP3    H231686   1.985   6.404  13.015  0.5877  0.5453 -0.2438
 3399TIP3   OH231687   2.840   2.829  12.493  0.0400  0.9067  0.2331
 3399TIP3    H131688   2.893   2.869  12.562  0.8232 -0.3329  0.3886
 3399TIP3    H231689   2.759   2.879  12.493  0.4134  1.5504  1.3910
 3400TIP3   OH231690   0.657   2.917   3.043 -0.5894  0.0343 -0.6099
 3400TIP3    H131691   0.627   2.853   3.107  0.2543  0.3361  0.1118
 3400TIP3    H231692   0.582   2.932   2.986 -1.2358 -0.5269  0.0858
 3401TIP3   OH231693   4.605   4.632   6.700  0.5051 -0.2661  0.2234
 3401TIP3    H131694   4.616   4.551   6.651  1.2344  0.3891 -0.7158
 3401TIP3    H231695   4.518   4.663   6.676 -1.3131 -2.4766  3.2246
 3402TIP3   OH231696   5.283   1.310   4.391  0.0492 -0.5528  0.1372
 3402TIP3    H131697   5.377   1.313   4.408  0.0109 -0.8157  0.3934
 3402TIP3    H231698   5.242   1.316   4.477 -0.3104  4.1196 -0.0815
 3403TIP3   OH231699   3.284   6.459  17.166 -0.6857 -0.6099  0.9079
 3403TIP3    H131700   3.219   6.390  17.175  0.0282 -1.3510  0.5220
 3403TIP3    H231701   3.361   6.415  17.129 -0.3739  0.4703  0.2118
 3404TIP3   OH231702   3.756   0.033   4.911  0.3027  0.3428  0.2381
 3404TIP3    H131703   3.739   0.128   4.914 -0.7698  0.1468  0.6987
 3404TIP3    H231704   3.765   0.008   5.002  3.6228  0.4809  0.0652
 3405TIP3   OH231705   5.717   0.885  15.095 -0.3480 -0.4421  0.4552
 3405TIP3    H131706   5.695   0.973  15.125 -0.1221 -0.3466  0.3416
 3405TIP3    H231707   5.642   0.857  15.043  1.1311  1.2003 -2.8145
 3406TIP3   OH231708   4.592   0.543  17.008  0.5734  0.0182 -0.1053
 3406TIP3    H131709   4.629   0.631  17.016  1.0704 -0.0903 -1.0982
 3406TIP3    H231710   4.531   0.536  17.082  0.7529  1.0818  0.1611
 3407TIP3   OH231711   4.305   6.720   6.110  0.4183  0.2932 -0.3792
 3407TIP3    H131712   4.316   6.643   6.055  0.1215 -0.8401  1.0972
 3407TIP3    H231713   4.332   6.692   6.197 -1.9582  1.1044  0.7184
 3408TIP3   OH231714   5.310   2.243  11.036 -0.2628 -0.0376 -0.0901
 3408TIP3    H131715   5.270   2.174  10.983 -1.2761 -0.6951  1.4745
 3408TIP3    H231716   5.354   2.300  10.972 -2.7294  0.0822 -1.7968
 3409TIP3   OH231717   2.949   4.602  13.574  0.1184 -0.7972  0.2750
 3409TIP3    H131718   2.952   4.611  13.479 -0.5103 -0.2342  0.3106
 3409TIP3    H231719   2.857   4.589  13.595 -0.2950  2.7331  1.1334
 3410TIP3   OH231720   4.063   1.750  11.297  0.1237  0.1684  0.3926
 3410TIP3    H131721   4.028   1.664  11.323 -1.1848  1.3639  3.0251
 3410TIP3    H231722   4.006   1.812  11.341  2.5352  2.3741  0.6000
 3411TIP3   OH231723   2.534   4.375   2.832 -0.4415 -0.8190  0.0359
 3411TIP3    H131724   2.461   4.435   2.816 -0.2602 -0.0769  1.8165
 3411TIP3    H231725   2.575   4.407   2.912  2.2157 -0.8839 -1.1887
 3412TIP3   OH231726   2.231   2.548  14.824  0.7433  0.1669 -0.1203
 3412TIP3    H131727   2.209   2.579  14.912  0.7154  1.0703 -0.4373
 3412TIP3    H231728   2.301   2.483  14.838 -0.7175 -1.3101  0.7305
 3413TIP3   OH231729   6.211   3.614   2.624 -0.2569  0.0031  0.3320
 3413TIP3    H131730   6.184   3.632   2.714 -1.1584 -1.5144  0.3963
 3413TIP3    H231731   6.135   3.639   2.570  0.4317  1.3122 -0.0777
 3414TIP3   OH231732   0.085   0.340  17.146 -0.1815 -0.0132 -0.8203
 3414TIP3    H131733   0.091   0.379  17.059  1.9226 -1.0072 -1.1901
 3414TIP3    H231734   0.097   0.246  17.130 -1.2495 -0.3890  0.4279
 3415TIP3   OH231735   4.619   2.497   5.924 -0.1710  0.1334  0.5539
 3415TIP3    H131736   4.706   2.519   5.892  0.0792 -1.2540  0.2316
 3415TIP3    H231737   4.561   2.561   5.882  0.5519  0.4227 -0.0246
 3416TIP3   OH231738   5.071   6.815  13.397  0.3723  0.0658  0.5569
 3416TIP3    H131739   5.118   6.746  13.350  0.6516  0.2652  0.5386
 3416TIP3    H231740   5.102   6.896  13.357 -0.9415  0.1647 -0.3286
 3417TIP3   OH231741   5.094   2.045   3.848  0.1217  0.2743 -0.2620
 3417TIP3    H131742   5.023   1.991   3.883 -0.2547  0.7192 -0.3326
 3417TIP3    H231743   5.174   1.995   3.867 -0.2383 -0.4284 -0.5488
 3418TIP3   OH231744   1.115   0.030  17.028 -0.2059  0.4406 -0.4659
 3418TIP3    H131745   1.121  -0.000  17.119  0.2177 -0.3021 -0.7289
 3418TIP3    H231746   1.205   0.054  17.005 -0.1094 -0.3792 -1.0062
 3419TIP3   OH231747   4.744   2.177  12.801  0.1372 -0.5079  0.1212
 3419TIP3    H131748   4.790   2.207  12.722 -0.5139  0.5298  0.1177
 3419TIP3    H231749   4.789   2.096  12.825  2.5848  0.9012  0.6379
 3420TIP3   OH231750   0.522   2.741   3.237  0.2466 -0.4579 -0.0092
 3420TIP3    H131751   0.463   2.666   3.227 -0.0429 -0.1055 -1.0798
 3420TIP3    H231752   0.535   2.748   3.332 -1.5443 -0.4533  0.2841
 3421TIP3   OH231753   3.276   5.137  11.363  0.2979 -0.6147  0.2767
 3421TIP3    H131754   3.267   5.056  11.312  1.4895 -1.9617  2.0491
 3421TIP3    H231755   3.352   5.121  11.419 -0.1161  1.3233  1.4732
 3422TIP3   OH231756   6.498   3.249   0.145  0.0498  0.0646 -0.0320
 3422TIP3    H131757   6.424   3.266   0.204  1.0538 -0.3400  1.4198
 3422TIP3    H231758   6.532   3.165   0.175  1.3730  0.4674 -0.3495
 3423TIP3   OH231759   2.521   5.090   1.029  0.0756  0.2125  0.2130
 3423TIP3    H131760   2.488   5.167   1.075 -1.0442  0.0005 -0.2170
 3423TIP3    H231761   2.485   5.016   1.078  1.2198 -0.0697  0.6800
 3424TIP3   OH231762   2.374   0.986   3.844 -0.5449  0.4813  0.6258
 3424TIP3    H131763   2.404   1.073   3.867  0.0639  0.1147  1.2573
 3424TIP3    H231764   2.430   0.960   3.771  0.7630 -0.2146  1.8224
 3425TIP3   OH231765   2.010   4.798  13.645  0.0820  0.3567  0.3145
 3425TIP3    H131766   2.062   4.743  13.704  1.3100  0.6103 -0.4982
 3425TIP3    H231767   2.044   4.887  13.659  1.1169  0.2909 -1.4795
 3426TIP3   OH231768   0.543   3.289  11.202  0.1733 -0.2790  0.4892
 3426TIP3    H131769   0.547   3.384  11.190  1.4807 -0.4585 -0.6888
 3426TIP3    H231770   0.601   3.272  11.276 -0.3090 -0.1337  0.9036
 3427TIP3   OH231771   5.620   0.694   0.136 -0.1934  0.0053 -0.3171
 3427TIP3    H131772   5.711   0.675   0.159 -0.7248 -1.0559  0.9714
 3427TIP3    H231773   5.597   0.626   0.072  0.8573  2.1559 -3.2122
 3428TIP3   OH231774   3.575   3.659   1.203  0.1660  0.4091  0.3842
 3428TIP3    H131775   3.561   3.683   1.111 -1.0119  0.1162  0.4653
 3428TIP3    H231776   3.533   3.573   1.212  1.0025  0.0523  1.0022
 3429TIP3   OH231777   3.110   4.522   4.292 -0.3384  0.6025  0.1963
 3429TIP3    H131778   3.122   4.571   4.211 -1.7404  2.5170  1.0698
 3429TIP3    H231779   3.022   4.484   4.285 -0.2012  0.2054  0.5367
 3430TIP3   OH231780   3.748   4.312  14.144  0.3145  0.0530 -0.3097
 3430TIP3    H131781   3.761   4.294  14.051  0.0043  0.7835 -0.5025
 3430TIP3    H231782   3.827   4.279  14.186  1.0132  0.8199 -0.9854
 3431TIP3   OH231783   1.380   1.872   2.771 -0.0495 -0.1447 -0.5401
 3431TIP3    H131784   1.427   1.955   2.765 -3.6369  2.1140 -0.1576
 3431TIP3    H231785   1.416   1.830   2.850  1.1036  1.5415 -0.1234
 3432TIP3   OH231786   1.940   4.975  12.782  0.4863  0.1011  0.0395
 3432TIP3    H131787   1.863   4.953  12.730  1.0551  0.9575 -1.2387
 3432TIP3    H231788   1.918   5.058  12.824 -1.2846 -2.1427  4.0667
 3433TIP3   OH231789   6.440   4.912  16.405  0.4297 -0.3403  0.3843
 3433TIP3    H131790   6.436   4.871  16.318 -1.5328 -0.7899  0.6423
 3433TIP3    H231791   6.473   4.843  16.462 -2.5290 -1.5980  0.7519
 3434TIP3   OH231792   5.559   5.154  11.102  0.4541 -0.5462 -0.3656
 3434TIP3    H131793   5.614   5.098  11.156  1.8790  0.9149 -0.2099
 3434TIP3    H231794   5.540   5.102  11.024  0.7955 -1.6270  0.2597
 3435TIP3   OH231795   6.657   0.826   3.943 -0.1260  0.2799 -0.6637
 3435TIP3    H131796   6.723   0.760   3.922 -0.2945 -0.0375 -0.2257
 3435TIP3    H231797   6.574   0.778   3.936 -0.2763  0.5482 -0.7196
 3436TIP3   OH231798   5.424   5.326   1.693  0.0513  0.2083 -0.0417
 3436TIP3    H131799   5.400   5.345   1.784  0.6512 -2.2719  0.7155
 3436TIP3    H231800   5.519   5.326   1.692  0.0515 -0.1364 -0.5686
 3437TIP3   OH231801   5.722   0.518  13.876 -0.1585  0.0875 -0.8298
 3437TIP3    H131802   5.704   0.524  13.970  1.7490  2.0489 -0.4748
 3437TIP3    H231803   5.724   0.425  13.857 -4.4197 -0.4037  0.1486
 3438TIP3   OH231804   0.104   0.420   5.705 -0.2298 -0.1118 -0.4130
 3438TIP3    H131805   0.093   0.346   5.766  3.0570  1.0359  1.8629
 3438TIP3    H231806   0.043   0.486   5.737 -0.1877 -0.3582  0.1986
 3439TIP3   OH231807   2.271   5.133   3.267 -0.4359  0.0893 -0.0726
 3439TIP3    H131808   2.344   5.185   3.234  0.2560 -1.0133 -0.3191
 3439TIP3    H231809   2.201   5.197   3.282  0.3218  1.0558 -0.5480
 3440TIP3   OH231810   3.355   2.649  11.388 -0.2273 -0.1589 -0.0309
 3440TIP3    H131811   3.395   2.585  11.329  0.2049 -0.1417  0.2344
 3440TIP3    H231812   3.312   2.711  11.330 -0.7953 -0.7785 -0.2884
 3441TIP3   OH231813   3.102   5.509  16.170  0.1474 -0.0148 -1.1870
 3441TIP3    H131814   3.064   5.587  16.130  2.0205  1.9914  0.6961
 3441TIP3    H231815   3.173   5.484  16.110  0.0779  0.2469 -1.3802
 3442TIP3   OH231816   2.715   0.203   0.906  0.2316 -0.5069 -0.9814
 3442TIP3    H131817   2.670   0.286   0.886  1.1083 -0.2441 -1.9451
 3442TIP3    H231818   2.645   0.142   0.928 -0.7535 -0.4547 -3.6478
 3443TIP3   OH231819   5.730   5.075  12.009  0.4295  0.5683  0.5517
 3443TIP3    H131820   5.786   5.150  12.029 -0.2451  0.8912  1.2633
 3443TIP3    H231821   5.645   5.097  12.048 -0.6322  0.6966 -1.6840
 3444TIP3   OH231822   4.956   0.332   5.625  0.3001 -0.0078 -0.2082
 3444TIP3    H131823   4.884   0.344   5.687  1.9686  1.8052  1.5491
 3444TIP3    H231824   4.986   0.242   5.639 -0.4637 -0.1816  0.3643
 3445TIP3   OH231825   3.599   2.566  11.238  0.4823  0.1558  0.2423
 3445TIP3    H131826   3.657   2.537  11.168 -0.7509 -0.6245 -0.4909
 3445TIP3    H231827   3.627   2.656  11.257 -0.0350  0.9406 -2.2714
 3446TIP3   OH231828   6.006   4.284  12.719  0.2718 -0.0930 -0.3364
 3446TIP3    H131829   6.033   4.209  12.772  1.4574  0.5036 -0.0671
 3446TIP3    H231830   5.911   4.273  12.709  0.2742 -1.0928  0.5172
 3447TIP3   OH231831   0.723   2.540  15.829  0.5021 -0.0459  0.6607
 3447TIP3    H131832   0.744   2.631  15.852  2.0468 -0.4670  1.0268
 3447TIP3    H231833   0.634   2.528  15.860  0.6665  1.0216  1.6234
 3448TIP3   OH231834   0.239   5.216  14.942 -0.1389  0.2784  0.0838
 3448TIP3    H131835   0.279   5.145  14.993 -1.1350  0.2178  0.7972
 3448TIP3    H231836   0.288   5.294  14.968  0.0652  0.0739  0.3194
 3449TIP3   OH231837   3.657   0.797   2.929  0.2724  0.5428 -0.3452
 3449TIP3    H131838   3.668   0.863   2.997  1.7602 -1.9048  1.9748
 3449TIP3    H231839   3.595   0.734   2.965  0.7836 -0.6246 -1.3913
 3450TIP3   OH231840   4.034   4.119  15.928  0.0861 -0.2210  0.0531
 3450TIP3    H131841   4.072   4.136  15.842 -0.7193  1.7912  0.0632
 3450TIP3    H231842   4.103   4.145  15.990 -0.0204  0.1034  0.0358
 3451TIP3   OH231843   1.373   0.620   5.312  0.2039 -0.2231  0.4716
 3451TIP3    H131844   1.464   0.634   5.336  0.1894 -0.5910  0.7405
 3451TIP3    H231845   1.325   0.688   5.359  0.2360 -0.6019  1.0643
 3452TIP3   OH231846   0.352   1.896   2.592  0.2743 -0.3077  0.5100
 3452TIP3    H131847   0.418   1.829   2.575  2.6139  1.9250  0.2641
 3452TIP3    H231848   0.353   1.907   2.687 -0.2152 -0.7029  0.5640
 3453TIP3   OH231849   0.444   4.643   0.432 -0.2511  0.3333  0.0601
 3453TIP3    H131850   0.452   4.671   0.523  1.0636  0.0664  0.0507
 3453TIP3    H231851   0.350   4.630   0.418 -0.5721  1.4494  1.0462
 3454TIP3   OH231852   6.156   6.543  15.409  0.4669  0.7845 -0.4973
 3454TIP3    H131853   6.122   6.453  15.403  1.5396  0.4408 -2.7058
 3454TIP3    H231854   6.247   6.532  15.439  0.4617  1.1718 -0.3395
 3455TIP3   OH231855   2.262   6.752   0.436  0.3849 -0.2899 -0.3680
 3455TIP3    H131856   2.290   6.843   0.436  1.9028 -0.7153  0.5864
 3455TIP3    H231857   2.225   6.738   0.349  0.7813  1.0513 -0.7686
 3456TIP3   OH231858   3.492   6.291   1.181 -0.4742 -0.5770 -0.6581
 3456TIP3    H131859   3.583   6.263   1.192 -0.5800 -1.2483 -1.4125
 3456TIP3    H231860   3.497   6.377   1.139 -0.1893 -0.5807 -0.6331
 3457TIP3   OH231861   6.015   5.765  11.725  0.0553 -0.0822  0.2689
 3457TIP3    H131862   5.921   5.775  11.713 -0.0475 -1.1553  0.1306
 3457TIP3    H231863   6.048   5.738  11.639  0.2506 -1.2632  0.6885
 3458TIP3   OH231864   5.328   4.200  14.935  0.3286  0.4937 -0.0837
 3458TIP3    H131865   5.321   4.265  15.006 -0.8234 -1.4108  1.6700
 3458TIP3    H231866   5.412   4.157  14.950  1.5358  2.1096 -1.8122
 3459TIP3   OH231867   4.160   5.061   2.095 -0.0268  0.8616  0.7147
 3459TIP3    H131868   4.173   4.971   2.125  2.0389  0.7331 -0.4173
 3459TIP3    H231869   4.190   5.115   2.169  0.5137  0.5786  0.7106
 3460TIP3   OH231870   2.384   5.410  17.171 -0.0256  0.3836  0.5295
 3460TIP3    H131871   2.425   5.492  17.201  1.0669  0.0455  0.0285
 3460TIP3    H231872   2.457   5.348  17.167 -0.9313 -0.7719  1.4245
 3461TIP3   OH231873   0.015   0.637  15.339 -0.6975 -0.3548  0.3255
 3461TIP3    H131874   0.077   0.675  15.276  1.1750  0.3532  2.4524
 3461TIP3    H231875   0.020   0.543  15.323 -0.6528 -0.1645 -0.8987
 3462TIP3   OH231876   6.743   2.972  15.178 -0.0429  0.2040  0.1975
 3462TIP3    H131877   6.723   2.995  15.087 -0.3325 -1.4517 -0.1991
 3462TIP3    H231878   6.836   2.994  15.188  0.4970 -1.2172 -1.0983
 3463TIP3   OH231879   0.299   1.056  15.635  0.5424  0.1399 -0.0025
 3463TIP3    H131880   0.366   1.123  15.648  0.2122  0.2787  1.0749
 3463TIP3    H231881   0.247   1.059  15.715 -0.5842 -0.1571 -0.7003
 3464TIP3   OH231882   6.709   5.387   4.922  0.4003 -0.0398  0.6701
 3464TIP3    H131883   6.771   5.414   4.854 -0.9881  2.1746  0.1900
 3464TIP3    H231884   6.624   5.415   4.890 -0.3331  0.9757  3.2403
 3465TIP3   OH231885   5.840   0.497   0.763  0.3744 -0.1749 -0.5039
 3465TIP3    H131886   5.756   0.473   0.723  0.5389  1.4057 -1.9134
 3465TIP3    H231887   5.816   0.546   0.842  0.0287 -1.4775  0.2357
 3466TIP3   OH231888   1.897   0.421  14.533 -0.3355  0.5187  0.2766
 3466TIP3    H131889   1.929   0.409  14.622  0.1075 -0.8407 -0.0369
 3466TIP3    H231890   1.803   0.403  14.539 -0.4035  0.9659  0.5637
 3467TIP3   OH231891   4.191   6.428   0.726 -0.0919 -0.3643  0.3543
 3467TIP3    H131892   4.264   6.475   0.686 -0.3792  0.4050  0.7283
 3467TIP3    H231893   4.136   6.401   0.652  0.0211 -0.0186  0.1450
 3468TIP3   OH231894   6.810   4.822   2.254  0.0543 -0.2005  0.4277
 3468TIP3    H131895   6.870   4.802   2.326  0.7003  0.0190 -0.0371
 3468TIP3    H231896   6.836   4.763   2.183 -0.7511 -0.6041  0.4541
 3469TIP3   OH231897   3.239   6.515   3.355  0.1564 -0.1004  0.2451
 3469TIP3    H131898   3.226   6.440   3.413 -0.4743  0.2006  0.4988
 3469TIP3    H231899   3.211   6.590   3.406  1.2576  0.3795  0.1717
 3470TIP3   OH231900   3.700   0.273  16.090  0.1763  0.2777 -0.1060
 3470TIP3    H131901   3.722   0.207  16.024  1.3083  0.1889  0.3454
 3470TIP3    H231902   3.644   0.336  16.043 -0.7484 -0.8660 -0.5912
 3471TIP3   OH231903   0.973   0.132  12.061 -0.1409 -0.0229  0.1944
 3471TIP3    H131904   1.002   0.114  12.151 -0.1271  0.6267  0.3224
 3471TIP3    H231905   1.032   0.080  12.007 -0.1009 -0.3640  0.5568
 3472TIP3   OH231906   3.631   5.460   5.024  0.9869 -0.2552 -0.2340
 3472TIP3    H131907   3.589   5.429   4.944  0.3937 -0.5455  0.1856
 3472TIP3    H231908   3.608   5.395   5.091 -0.6174  1.2533  0.7720
 3473TIP3   OH231909   1.931   3.426  15.508 -0.1674  0.2866  0.0156
 3473TIP3    H131910   2.002   3.489  15.499 -0.0809  0.0159 -1.3211
 3473TIP3    H231911   1.952   3.356  15.446 -2.1238  0.7329 -1.2408
 3474TIP3   OH231912   1.871   1.819   5.416  0.8020 -0.0269  0.3524
 3474TIP3    H131913   1.859   1.910   5.390  0.8655 -0.5480 -1.6969
 3474TIP3    H231914   1.845   1.768   5.338  1.9920 -1.7071  0.9859
 3475TIP3   OH231915   2.724   0.937  11.586  0.0029  0.0457 -0.1150
 3475TIP3    H131916   2.671   0.963  11.661  1.9333  0.8643  1.0431
 3475TIP3    H231917   2.698   0.998  11.516 -0.9757  0.0368  0.2301
 3476TIP3   OH231918   5.172   2.057  14.066  0.1630 -0.4623  0.4424
 3476TIP3    H131919   5.248   2.098  14.107 -1.1854  2.3385  0.4407
 3476TIP3    H231920   5.137   1.998  14.133  1.3454 -0.4583  1.0850
 3477TIP3   OH231921   4.883   2.537  11.043 -0.0338  0.7523  0.2707
 3477TIP3    H131922   4.811   2.515  11.102 -0.3785 -3.1588 -1.2846
 3477TIP3    H231923   4.846   2.530  10.956  2.3711 -3.1484 -0.6972
 3478TIP3   OH231924   0.961   5.201  11.020  0.6574 -0.6252  0.2934
 3478TIP3    H131925   0.949   5.129  10.959 -0.0920 -1.4408  1.3675
 3478TIP3    H231926   0.936   5.279  10.971 -2.7959 -1.5291  0.3669
 3479TIP3   OH231927   3.526   4.141   4.873 -0.1634 -0.2360  0.1873
 3479TIP3    H131928   3.508   4.235   4.865 -0.1781 -0.3041 -0.6682
 3479TIP3    H231929   3.443   4.103   4.899  0.1427  0.1301  1.8104
 3480TIP3   OH231930   4.482   4.018  12.066 -0.9021 -0.3732  0.1416
 3480TIP3    H131931   4.433   4.022  11.984  1.5858 -0.0139 -1.4483
 3480TIP3    H231932   4.549   4.087  12.057  0.7131 -1.6585  1.5851
 3481TIP3   OH231933   1.470   6.433  13.188 -0.5894 -0.4346  0.3927
 3481TIP3    H131934   1.401   6.374  13.219 -0.9077  0.2064  0.9179
 3481TIP3    H231935   1.485   6.494  13.260  0.6710 -0.6814  0.3605
 3482TIP3   OH231936   5.083   5.772   4.912  0.3431  0.4555  0.3805
 3482TIP3    H131937   5.053   5.684   4.933 -2.1145  0.7651 -1.4389
 3482TIP3    H231938   5.146   5.760   4.841 -1.7275  0.1843 -1.5281
 3483TIP3   OH231939   5.864   5.084   4.980  0.4231 -0.3105 -0.0134
 3483TIP3    H131940   5.902   5.117   5.061 -1.0979  0.4106  0.4518
 3483TIP3    H231941   5.854   4.989   4.994  1.3932 -0.3955  0.1105
 3484TIP3   OH231942   1.345   4.276   3.204  0.4502  0.0842  0.3380
 3484TIP3    H131943   1.387   4.266   3.119  1.9871  1.2446  0.8957
 3484TIP3    H231944   1.339   4.371   3.216  1.4173 -0.0291  2.0259
 3485TIP3   OH231945   1.916   6.749  16.438  0.7431 -0.0070  0.5859
 3485TIP3    H131946   1.884   6.835  16.410 -0.3563  0.2650  2.5081
 3485TIP3    H231947   1.925   6.699  16.357  0.1294  1.4970 -0.4528
 3486TIP3   OH231948   4.915   4.226  14.713  0.1498 -0.5328 -0.4010
 3486TIP3    H131949   4.920   4.171  14.635  1.2086  1.2955 -1.6903
 3486TIP3    H231950   4.996   4.277  14.711 -0.6589  0.8642  0.9077
 3487TIP3   OH231951   0.464   3.087   4.279  0.6048  0.1071 -0.2975
 3487TIP3    H131952   0.396   3.050   4.223  0.3744 -1.5173  0.9704
 3487TIP3    H231953   0.519   3.013   4.302  1.2140  0.8899  0.8847
 3488TIP3   OH231954   1.950   6.474   1.880 -0.6195 -0.5213  0.1982
 3488TIP3    H131955   2.007   6.420   1.935  1.2335  1.1348  0.0155
 3488TIP3    H231956   1.917   6.542   1.938 -1.1072 -0.5090 -0.0817
 3489TIP3   OH231957   1.609   2.621   2.978 -0.2522  0.4583 -0.1760
 3489TIP3    H131958   1.665   2.639   3.054  0.7641 -1.6808 -0.3420
 3489TIP3    H231959   1.572   2.534   2.995 -1.4073  0.6886 -1.3322
 3490TIP3   OH231960   4.719   6.060   6.294  0.3885  0.0861  0.1880
 3490TIP3    H131961   4.746   6.149   6.313 -0.7002  0.2793  0.8920
 3490TIP3    H231962   4.642   6.045   6.349 -0.0235 -0.9540 -0.6253
 3491TIP3   OH231963   4.837   2.857   2.865 -0.6185  0.1839  0.0984
 3491TIP3    H131964   4.745   2.876   2.879 -0.0043  1.9088  2.3105
 3491TIP3    H231965   4.876   2.942   2.844  0.5229 -0.4964 -0.6651
 3492TIP3   OH231966   4.306   6.487  14.044  0.2484 -0.5579  0.3459
 3492TIP3    H131967   4.217   6.453  14.043  0.0311 -0.0292  1.1842
 3492TIP3    H231968   4.307   6.551  14.115  1.0141  0.1917 -0.3036
 3493TIP3   OH231969   5.429   3.198   1.020  0.1854 -0.0072 -0.3293
 3493TIP3    H131970   5.494   3.136   0.985  0.7014  1.4517 -2.1299
 3493TIP3    H231971   5.442   3.195   1.115 -0.3081 -3.1248 -0.2538
 3494TIP3   OH231972   5.280   5.823  11.385  0.4167 -0.0043 -0.0221
 3494TIP3    H131973   5.229   5.885  11.437 -0.5664 -1.2536  0.5586
 3494TIP3    H231974   5.253   5.839  11.295 -0.5005 -0.1844  0.2141
 3495TIP3   OH231975   3.114   0.240  16.965  0.5967 -0.2542  0.2592
 3495TIP3    H131976   3.059   0.306  16.924 -0.2847  0.0658  1.8928
 3495TIP3    H231977   3.164   0.288  17.031 -0.8018 -1.3064  2.1828
 3496TIP3   OH231978   3.327   2.193   5.934  0.2767  0.6561 -0.1178
 3496TIP3    H131979   3.373   2.180   6.017  1.0327 -1.4380 -0.8016
 3496TIP3    H231980   3.244   2.147   5.945 -0.2328  1.5622 -0.0661
 3497TIP3   OH231981   5.874   3.927  14.217  0.0475 -0.6575 -0.4277
 3497TIP3    H131982   5.919   3.915  14.300  0.6673  1.3894 -0.4111
 3497TIP3    H231983   5.941   3.911  14.151 -0.0281 -0.7312 -0.4865
 3498TIP3   OH231984   3.195   0.355   1.569 -0.2002 -0.3650  0.4305
 3498TIP3    H131985   3.274   0.346   1.515  0.7642  0.6660  1.5823
 3498TIP3    H231986   3.134   0.405   1.514  0.5198  0.1114  0.0423
 3499TIP3   OH231987   6.140   5.329  12.324 -0.4252 -0.3054  0.3855
 3499TIP3    H131988   6.146   5.292  12.236  1.1455 -2.3471  1.2624
 3499TIP3    H231989   6.226   5.315  12.363 -1.0265  0.6472  2.2307
 3500TIP3   OH231990   1.252   0.814  15.647 -0.2844  0.5597  0.5736
 3500TIP3    H131991   1.175   0.822  15.590 -0.3817  0.7424  0.7290
 3500TIP3    H231992   1.322   0.783  15.589 -0.4643  0.4344  0.4236
 3501TIP3   OH231993   2.118   3.507  17.145 -0.0677 -0.1486  0.0200
 3501TIP3    H131994   2.096   3.530  17.055  1.1880  2.0939  0.2098
 3501TIP3    H231995   2.046   3.451  17.174 -1.7071  0.9740 -1.6350
 3502TIP3   OH231996   1.757   2.342  14.479 -0.3210  0.7591  0.2342
 3502TIP3    H131997   1.753   2.315  14.387  0.2309  0.8903  0.1713
 3502TIP3    H231998   1.744   2.261  14.528 -1.6940  0.8412  0.0504
 3503TIP3   OH231999   4.411   3.518   4.174  0.0448 -0.3304 -0.5294
 3503TIP3    H132000   4.333   3.504   4.229 -0.6537  1.4187 -1.0115
 3503TIP3    H232001   4.392   3.471   4.093 -0.3511 -0.2112 -0.5064
 3504TIP3   OH232002   6.065   6.698  14.909 -0.0997 -0.4968  0.5860
 3504TIP3    H132003   6.079   6.761  14.838 -0.6386 -1.7703 -0.6849
 3504TIP3    H232004   5.977   6.664  14.894  1.4048 -4.2190 -1.0050
 3505TIP3   OH232005   0.467   6.585  16.630 -0.5286 -0.4795 -0.0884
 3505TIP3    H132006   0.561   6.572  16.616 -0.0251  1.6876  0.8765
 3505TIP3    H232007   0.429   6.580  16.542  0.8473  0.9262 -0.8254
 3506TIP3   OH232008   0.870   1.636  14.011  0.5231  0.2864 -0.5172
 3506TIP3    H132009   0.928   1.636  13.935  1.6552  0.1844  0.3119
 3506TIP3    H232010   0.871   1.728  14.041 -1.1657  0.6583 -1.5207
 3507TIP3   OH232011   5.703   2.744  12.660 -0.4253  0.2205  0.4102
 3507TIP3    H132012   5.691   2.825  12.611  1.2993 -0.2954 -0.9448
 3507TIP3    H232013   5.763   2.766  12.731 -0.8369  0.3692  0.7159
 3508TIP3   OH232014   3.508   5.834   1.062  0.0146 -0.4963 -0.1067
 3508TIP3    H132015   3.515   5.786   0.979  0.5499 -2.0780  0.8051
 3508TIP3    H232016   3.422   5.876   1.058 -0.4045 -1.3886 -1.0463
 3509TIP3   OH232017   2.246   3.366  15.810 -0.3176  0.2258 -0.2800
 3509TIP3    H132018   2.300   3.376  15.889 -1.5695 -1.8009  0.9306
 3509TIP3    H232019   2.308   3.338  15.742  0.1626 -3.5093  1.4199
 3510TIP3   OH232020   0.135   1.743   1.730  0.2933  0.2929 -0.1500
 3510TIP3    H132021   0.063   1.790   1.773 -1.0211 -1.6672 -0.0207
 3510TIP3    H232022   0.144   1.785   1.645 -2.3278 -0.4970 -0.9236
 3511TIP3   OH232023   4.706   0.205   5.403  0.1432 -0.0402 -0.0945
 3511TIP3    H132024   4.767   0.147   5.448 -0.3013 -0.8683 -0.5243
 3511TIP3    H232025   4.628   0.152   5.391 -1.0692  1.2990  1.3442
 3512TIP3   OH232026   6.028   5.501  16.506  0.4508  0.2201  0.0191
 3512TIP3    H132027   6.044   5.422  16.455 -1.5925  0.4230 -1.0522
 3512TIP3    H232028   5.997   5.565  16.442  0.3225  1.3170  1.1355
 3513TIP3   OH232029   5.294   3.480  11.098  0.1038  0.8227 -0.5309
 3513TIP3    H132030   5.267   3.413  11.160  0.7608 -0.2136 -1.3387
 3513TIP3    H232031   5.274   3.444  11.012 -0.1538  1.9480 -0.9623
 3514TIP3   OH232032   3.229   4.718  15.490 -0.9183  0.1924 -0.1503
 3514TIP3    H132033   3.324   4.727  15.495 -0.8686 -0.8456  1.0679
 3514TIP3    H232034   3.196   4.807  15.505 -0.1790  0.2884  1.0081
 3515TIP3   OH232035   0.942   3.685  10.619  0.4536 -0.1987 -0.0209
 3515TIP3    H132036   0.998   3.743  10.568  0.8821 -0.2723  0.3608
 3515TIP3    H232037   0.964   3.597  10.588  2.2906 -0.4309  1.7640
 3516TIP3   OH232038   6.295   4.086  16.739  0.4782 -0.1973 -0.5175
 3516TIP3    H132039   6.212   4.056  16.702  1.0956 -1.0583 -1.2256
 3516TIP3    H232040   6.361   4.062  16.674  1.0839  2.3481 -0.9740
 3517TIP3   OH232041   5.422   0.759  12.173  0.0443  0.4396  0.4268
 3517TIP3    H132042   5.455   0.817  12.105 -0.5341  0.3154  0.0351
 3517TIP3    H232043   5.478   0.682  12.167  0.4468  0.7167  0.5674
 3518TIP3   OH232044   0.355   4.634  10.362 -0.1986 -0.0905  0.7731
 3518TIP3    H132045   0.310   4.597  10.286 -1.7451  0.7463  1.2282
 3518TIP3    H232046   0.285   4.651  10.425  0.6659  1.8068  1.3006
 3519TIP3   OH232047   0.687   2.426   2.171 -0.6432  0.2956  0.0628
 3519TIP3    H132048   0.742   2.349   2.185 -1.2980 -0.1490  0.2708
 3519TIP3    H232049   0.690   2.442   2.077 -0.2468  0.2110  0.0620
 3520TIP3   OH232050   3.738   5.162  12.962 -0.2115  0.1890 -0.1413
 3520TIP3    H132051   3.739   5.238  12.905  1.0911  0.8151  0.6814
 3520TIP3    H232052   3.758   5.088  12.905 -1.3549  0.4545 -0.9207
 3521TIP3   OH232053   2.225   2.814  13.536  0.4688  0.1331  0.2167
 3521TIP3    H132054   2.157   2.870  13.572  2.0373  1.0608  1.8641
 3521TIP3    H232055   2.252   2.857  13.455  0.8671  1.1778  0.8892
 3522TIP3   OH232056   5.421   6.743  13.488  0.1632 -0.2784 -0.2554
 3522TIP3    H132057   5.442   6.650  13.489  1.5034  0.0092  0.1068
 3522TIP3    H232058   5.473   6.779  13.416 -1.6124 -0.0622 -1.4838
 3523TIP3   OH232059   6.426   6.826   5.371  0.1135 -0.5114  0.5559
 3523TIP3    H132060   6.377   6.768   5.313 -0.9408 -0.5853  1.4876
 3523TIP3    H232061   6.493   6.865   5.315 -0.5643 -0.9531 -0.5950
 3524TIP3   OH232062   5.874   2.267   6.376  0.0550 -0.1243 -0.2128
 3524TIP3    H132063   5.781   2.247   6.374 -0.1520  0.8503 -0.4827
 3524TIP3    H232064   5.882   2.347   6.428  0.6443  0.2445 -0.8401
 3525TIP3   OH232065   5.521   1.140   0.520 -0.0949  0.5970 -0.2837
 3525TIP3    H132066   5.534   1.060   0.571 -2.6254 -0.2075 -0.7570
 3525TIP3    H232067   5.537   1.211   0.582  0.2172 -0.3115  0.6978
 3526TIP3   OH232068   3.157   5.325  17.175  0.8778  0.2320 -0.1032
 3526TIP3    H132069   3.206   5.354  17.252  1.9891 -0.1429 -0.6316
 3526TIP3    H232070   3.106   5.250  17.205 -0.6041  1.5524  0.8292
 3527TIP3   OH232071   4.981   3.111  13.168  0.5416  0.0707 -0.4084
 3527TIP3    H132072   4.965   3.137  13.078  0.4836  0.7714 -0.2036
 3527TIP3    H232073   4.967   3.191  13.219 -0.2841 -0.5058  0.3139
 3528TIP3   OH232074   3.016   0.140  11.620  0.2091 -0.1627  0.1200
 3528TIP3    H132075   3.066   0.063  11.595  0.7518  0.1300  0.2825
 3528TIP3    H232076   3.014   0.194  11.541  0.3645 -0.0597  0.1871
 3529TIP3   OH232077   0.787   2.264  12.638 -0.4595  0.0492  0.5300
 3529TIP3    H132078   0.789   2.179  12.682  1.6060  0.5496  1.4882
 3529TIP3    H232079   0.698   2.297  12.654 -1.1062 -1.6539  0.6359
 3530TIP3   OH232080   6.076   0.822   5.509 -0.1009  0.5400 -0.2753
 3530TIP3    H132081   6.086   0.845   5.602  0.7792  3.1055 -0.9288
 3530TIP3    H232082   6.028   0.895   5.472 -1.2233 -0.8643 -1.7397
 3531TIP3   OH232083   0.585   3.737  15.848  0.3134 -0.4231  0.3684
 3531TIP3    H132084   0.567   3.741  15.942 -0.2485  0.4851  0.2408
 3531TIP3    H232085   0.499   3.750  15.807  0.4927 -1.1893 -0.2712
 3532TIP3   OH232086   4.455   6.586  12.911  0.4271 -0.4361  0.3234
 3532TIP3    H132087   4.490   6.669  12.944 -0.7088  0.4922 -0.6956
 3532TIP3    H232088   4.456   6.527  12.986 -0.5843  1.1078  1.6059
 3533TIP3   OH232089   3.022   1.389   2.973 -0.1686 -0.2683 -0.1277
 3533TIP3    H132090   3.030   1.371   2.879  1.2767  0.2155 -0.1315
 3533TIP3    H232091   2.935   1.428   2.983 -0.1373  0.1688 -1.3554
 3534TIP3   OH232092   0.256   0.702  16.047  0.0177 -0.1378  0.1662
 3534TIP3    H132093   0.235   0.613  16.022  0.8695 -0.0873 -0.7524
 3534TIP3    H232094   0.351   0.708  16.041  0.0136  0.6940  0.6875
 3535TIP3   OH232095   4.165   2.325  12.076 -0.4501  0.0080  0.0311
 3535TIP3    H132096   4.188   2.314  12.168  1.8600  1.7282 -0.2715
 3535TIP3    H232097   4.077   2.362  12.077  0.2797  1.8272  1.6473
 3536TIP3   OH232098   4.937   5.729  12.602 -0.3400  0.3555 -0.6679
 3536TIP3    H132099   4.883   5.706  12.677 -1.0662  1.5043 -0.8229
 3536TIP3    H232100   4.928   5.655  12.542 -1.4695  0.3866 -0.5471
 3537TIP3   OH232101   0.208   1.386  15.156 -0.6487 -0.4541 -0.6201
 3537TIP3    H132102   0.256   1.332  15.094 -0.9783 -0.4220 -0.9062
 3537TIP3    H232103   0.274   1.415  15.219  0.5499  2.6292 -3.0168
 3538TIP3   OH232104   3.479   6.477   3.629 -0.3956  0.4858 -0.7188
 3538TIP3    H132105   3.447   6.487   3.539  0.5924  0.6970 -1.0519
 3538TIP3    H232106   3.531   6.555   3.645 -0.2591  0.2703 -0.0833
 3539TIP3   OH232107   6.601   6.825   2.533 -0.2345  0.3744  0.1158
 3539TIP3    H132108   6.548   6.857   2.460 -2.2625 -1.0699  0.8653
 3539TIP3    H232109   6.571   6.736   2.548  1.2954  0.0539  1.6564
 3540TIP3   OH232110   0.987   1.890  13.417 -0.4125 -0.3613 -0.2527
 3540TIP3    H132111   1.030   1.805  13.410  1.9230  0.8297 -1.6639
 3540TIP3    H232112   1.059   1.953  13.416 -2.1105  1.6891 -0.2179
 3541TIP3   OH232113   1.295   3.730  14.015 -0.1944 -0.1953  0.5234
 3541TIP3    H132114   1.251   3.804  14.056 -1.1293  0.1613 -1.0328
 3541TIP3    H232115   1.226   3.687  13.964  0.8079 -0.8416 -0.3166
 3542TIP3   OH232116   0.915   6.133   4.087 -0.1311 -0.1080 -0.3689
 3542TIP3    H132117   0.953   6.215   4.118 -0.3582  0.6669 -2.0020
 3542TIP3    H232118   0.944   6.067   4.149 -0.8888  1.3778  1.6541
 3543TIP3   OH232119   2.855   1.138  12.706 -0.1346 -0.0607 -0.1902
 3543TIP3    H132120   2.823   1.159  12.793 -1.6239  0.7616 -0.9126
 3543TIP3    H232121   2.920   1.206  12.687 -1.0311  0.7489 -0.3836
 3544TIP3   OH232122   4.636   5.094   2.554 -0.6990 -0.3950 -0.1574
 3544TIP3    H132123   4.643   5.003   2.582 -0.4074 -0.7250 -1.2305
 3544TIP3    H232124   4.723   5.131   2.568 -0.6596 -0.4527 -0.2431
 3545TIP3   OH232125   5.236   0.282   3.860 -0.1072  0.1087 -0.5914
 3545TIP3    H132126   5.291   0.270   3.937  2.7690  3.2592 -1.9201
 3545TIP3    H232127   5.154   0.318   3.894  0.7585  0.6059  1.0622
 3546TIP3   OH232128   0.075   6.164  14.076 -1.0236 -0.3538 -0.3912
 3546TIP3    H132129   0.058   6.240  14.131  2.9964  0.4310  0.0346
 3546TIP3    H232130   0.063   6.089  14.134  0.3846  0.3145  0.8376
 3547TIP3   OH232131   0.747   6.804  11.230  0.1068 -0.5937 -0.9249
 3547TIP3    H132132   0.765   6.853  11.311  1.7837  0.4048 -1.8410
 3547TIP3    H232133   0.671   6.847  11.192  0.3117 -0.0125 -0.6861
 3548TIP3   OH232134   2.075   6.530   1.012  0.1765  0.0379  0.0213
 3548TIP3    H132135   2.093   6.499   1.101  1.3130 -2.6777 -1.0656
 3548TIP3    H232136   2.037   6.454   0.967  0.2589  1.1374 -2.0220
 3549TIP3   OH232137   2.135   3.334  16.886  0.1352 -0.6234  0.2548
 3549TIP3    H132138   2.203   3.323  16.819  0.5010  2.2405  0.0457
 3549TIP3    H232139   2.082   3.407  16.854 -2.8956 -2.4946  0.6105
 3550TIP3   OH232140   0.897   5.739   1.772  0.3374 -0.2712 -0.1399
 3550TIP3    H132141   0.902   5.727   1.867  0.0310 -1.3898 -0.2524
 3550TIP3    H232142   0.854   5.824   1.761 -4.7047 -2.3315  0.8094
 3551TIP3   OH232143   4.618   3.304  16.116 -0.4415 -0.2039 -0.1997
 3551TIP3    H132144   4.540   3.337  16.072 -0.7131 -0.6259 -0.0424
 3551TIP3    H232145   4.665   3.255  16.049 -1.5181 -1.9688  0.2728
 3552TIP3   OH232146   6.708   2.096   6.267 -0.3548  0.4159 -0.0646
 3552TIP3    H132147   6.785   2.151   6.278 -0.1409 -0.1243  1.3501
 3552TIP3    H232148   6.634   2.154   6.285 -0.1635  0.4152  0.7584
 3553TIP3   OH232149   4.213   3.378  12.545 -0.0844  0.1685 -0.1586
 3553TIP3    H132150   4.270   3.323  12.491 -0.7384 -1.9561  1.1817
 3553TIP3    H232151   4.144   3.406  12.485  0.6015  0.0358 -1.0347
 3554TIP3   OH232152   0.625   3.118  15.288 -0.0118  0.5888  0.5092
 3554TIP3    H132153   0.588   3.181  15.349  0.1497  1.0700  0.1105
 3554TIP3    H232154   0.678   3.170  15.228 -1.5771  0.3683 -1.1460
 3555TIP3   OH232155   1.561   3.390  11.677  0.4735 -0.4269  0.0174
 3555TIP3    H132156   1.527   3.361  11.592  1.2591  2.3506 -1.3492
 3555TIP3    H232157   1.483   3.422  11.724  0.5307  2.3253 -1.5787
 3556TIP3   OH232158   2.162   2.907  12.541  0.0055  0.4328 -0.0206
 3556TIP3    H132159   2.076   2.888  12.504 -0.5310  0.9307  0.9185
 3556TIP3    H232160   2.158   3.000  12.564  1.7286  1.2097 -2.3813
 3557TIP3   OH232161   4.885   1.711  11.507 -0.2003  0.4140  0.1713
 3557TIP3    H132162   4.842   1.650  11.568 -0.0061 -0.3938 -0.4803
 3557TIP3    H232163   4.940   1.655  11.452  0.2003  1.2199 -0.2603
 3558TIP3   OH232164   1.152   1.567   3.639 -0.3548  0.0429 -0.0985
 3558TIP3    H132165   1.140   1.565   3.544 -2.0559 -2.0189  0.0781
 3558TIP3    H232166   1.110   1.487   3.670  0.3382  0.5573  2.3910
 3559TIP3   OH232167   6.770   1.418  12.331 -0.0101  0.2655  0.2291
 3559TIP3    H132168   6.734   1.353  12.271  0.7873  0.1168 -0.0876
 3559TIP3    H232169   6.715   1.496  12.318 -0.9366 -0.3102  0.5777
 3560TIP3   OH232170   5.331   5.524  16.213  0.0319  0.2808 -0.1740
 3560TIP3    H132171   5.362   5.434  16.216 -0.7941  0.0051  1.2022
 3560TIP3    H232172   5.250   5.523  16.266 -0.8095  1.5088 -1.3740
 3561TIP3   OH232173   1.771   4.643   5.536  0.0383 -0.0773  0.6584
 3561TIP3    H132174   1.760   4.600   5.452  0.2052 -0.3584  0.7808
 3561TIP3    H232175   1.865   4.637   5.555  0.0920  0.4811  0.6026
 3562TIP3   OH232176   2.374   3.971  14.053  0.7212 -0.5097  0.5937
 3562TIP3    H132177   2.393   3.892  14.003 -1.2071 -0.6905  0.0927
 3562TIP3    H232178   2.423   4.040  14.009  2.3965 -1.3821  1.0141
 3563TIP3   OH232179   4.525   3.732  12.092 -0.4297  0.3049 -0.6013
 3563TIP3    H132180   4.456   3.723  12.026 -0.1291 -0.7223 -0.7849
 3563TIP3    H232181   4.510   3.819  12.129 -3.4107 -0.7606  1.1081
 3564TIP3   OH232182   0.007   1.178   3.869  0.3752 -0.0175 -0.2585
 3564TIP3    H132183   0.046   1.219   3.947 -0.3837  2.8710 -1.2564
 3564TIP3    H232184  -0.087   1.174   3.889  0.5439 -2.8018  0.3751
 3565TIP3   OH232185   5.273   5.540  13.230 -0.0642  0.2386  0.2166
 3565TIP3    H132186   5.308   5.469  13.176  1.3229  0.5327  0.6945
 3565TIP3    H232187   5.179   5.540  13.211  0.3041  0.0174 -1.8275
 3566TIP3   OH232188   5.183   1.920   5.305 -0.0629  0.2216 -0.8520
 3566TIP3    H132189   5.116   1.982   5.336 -0.5347  0.9276 -3.0452
 3566TIP3    H232190   5.135   1.839   5.291  0.7951 -1.2365  3.2599
 3567TIP3   OH232191   4.844   2.715  13.140 -0.4240  0.2865  0.1266
 3567TIP3    H132192   4.898   2.771  13.195  1.1393  0.0933 -1.1365
 3567TIP3    H232193   4.859   2.626  13.174  0.1890  0.2183 -0.3014
 3568TIP3   OH232194   2.433   3.358   0.218 -0.1202 -0.1886  0.1727
 3568TIP3    H132195   2.407   3.367   0.310 -1.7077  1.2123 -0.3674
 3568TIP3    H232196   2.469   3.269   0.212  0.6052 -0.0861  2.2596
 3569TIP3   OH232197   1.245   6.011   4.436 -0.4059 -0.7757  0.5669
 3569TIP3    H132198   1.162   5.974   4.404  1.0499 -2.8742 -1.1124
 3569TIP3    H232199   1.288   5.937   4.479  1.3918 -0.2569 -0.2695
 3570TIP3   OH232200   5.670   5.652  10.450  0.1787  0.3074 -0.0728
 3570TIP3    H132201   5.725   5.690  10.383  1.7169  1.3320  1.6720
 3570TIP3    H232202   5.723   5.582  10.488 -0.1917  0.4891  0.8151
 3571TIP3   OH232203   4.083   6.679   6.358 -0.5426 -0.1717  0.2764
 3571TIP3    H132204   4.132   6.761   6.356 -0.9698  0.0849 -1.5762
 3571TIP3    H232205   4.150   6.611   6.358 -0.1522  0.1805 -1.0837
 3572TIP3   OH232206   3.982   5.510  10.879 -0.1785 -0.6441 -0.6531
 3572TIP3    H132207   3.931   5.456  10.939  0.0931  0.8431  1.0152
 3572TIP3    H232208   3.917   5.556  10.826 -0.5779  0.1758  0.4955
 3573TIP3   OH232209   3.113   2.911  12.556 -0.0875 -0.1355 -0.8104
 3573TIP3    H132210   3.187   2.887  12.613 -0.5794 -1.5386 -0.7165
 3573TIP3    H232211   3.108   3.006  12.562  0.8515 -0.1301  0.2661
 3574TIP3   OH232212   3.238   5.394   4.814  0.4264 -0.1286  0.5965
 3574TIP3    H132213   3.333   5.387   4.806  0.4084 -3.4799  1.7155
 3574TIP3    H232214   3.223   5.418   4.905  0.2530 -1.7909  1.0441
 3575TIP3   OH232215   1.237   6.160  12.915  0.5707  0.0901 -0.0957
 3575TIP3    H132216   1.302   6.108  12.962  1.1753 -1.2216 -2.2499
 3575TIP3    H232217   1.278   6.178  12.830 -0.7639  1.7088 -0.4416
 3576TIP3   OH232218   0.867   3.011  10.696 -0.8051 -0.0088  0.0758
 3576TIP3    H132219   0.897   3.091  10.739 -0.0899 -0.8076  1.1036
 3576TIP3    H232220   0.815   2.966  10.762 -0.2512 -0.9362 -0.1020
 3577TIP3   OH232221   3.199   5.805  12.741 -0.1112 -0.5390 -0.2309
 3577TIP3    H132222   3.199   5.739  12.672 -0.0257  0.0065 -0.7626
 3577TIP3    H232223   3.114   5.796  12.783 -1.4150  1.0735 -2.3313
 3578TIP3   OH232224   3.726   4.437  17.087 -0.3409  0.0114  0.1887
 3578TIP3    H132225   3.683   4.489  17.155 -1.3812 -1.9236  1.0976
 3578TIP3    H232226   3.655   4.388  17.046  0.4987 -0.1297 -1.1830
 3579TIP3   OH232227   3.662   2.341   1.612  0.5970 -0.5671  0.4952
 3579TIP3    H132228   3.606   2.366   1.686 -0.5089 -1.2387 -0.0847
 3579TIP3    H232229   3.729   2.410   1.609 -0.6090  0.6746  0.7882
 3580TIP3   OH232230   1.246   3.739   2.830 -0.2223 -0.7039 -0.2750
 3580TIP3    H132231   1.332   3.697   2.833  1.0418  1.6925  0.5802
 3580TIP3    H232232   1.217   3.729   2.740  0.6674 -2.0474 -0.4430
 3581TIP3   OH232233   4.936   2.729   5.466 -0.3439 -0.6587  0.0381
 3581TIP3    H132234   4.922   2.652   5.410 -1.2047 -0.3844 -0.1295
 3581TIP3    H232235   4.849   2.766   5.479  0.1245  0.6362 -0.3767
 3582TIP3   OH232236   4.342   0.994   0.243  0.6135 -0.3584  0.0094
 3582TIP3    H132237   4.352   1.089   0.246  0.3263 -0.2997 -0.6553
 3582TIP3    H232238   4.430   0.960   0.258  0.6038 -0.0091  0.9347
 3583TIP3   OH232239   4.314   1.060   3.373 -0.7982 -0.3367  0.0573
 3583TIP3    H132240   4.312   1.154   3.391 -3.2850 -0.3489  0.2016
 3583TIP3    H232241   4.396   1.047   3.326  1.2869  1.3110  2.8858
 3584TIP3   OH232242   4.526   1.552  11.498  0.2734 -0.6591 -0.7070
 3584TIP3    H132243   4.516   1.624  11.559 -0.7331 -0.4591 -1.0929
 3584TIP3    H232244   4.615   1.519  11.514  0.0238 -0.6288  0.8590
 3585TIP3   OH232245   1.739   5.443  12.917 -0.1925  0.4396 -0.1627
 3585TIP3    H132246   1.660   5.403  12.879 -0.0905  0.2120 -0.1398
 3585TIP3    H232247   1.709   5.483  12.998  0.2729 -2.4783  1.6056
 3586TIP3   OH232248   1.322   0.705   6.537 -0.1207  1.0344  0.0446
 3586TIP3    H132249   1.350   0.620   6.571 -0.0580  0.8212 -0.5236
 3586TIP3    H232250   1.399   0.739   6.491 -0.2539  1.2369 -0.0295
 3587TIP3   OH232251   0.666   3.786  16.657 -0.2074  0.2397  0.0294
 3587TIP3    H132252   0.744   3.814  16.704  0.4240 -1.5977  0.1472
 3587TIP3    H232253   0.695   3.778  16.566 -0.5315  0.5341 -0.1008
 3588TIP3   OH232254   0.942   6.551  13.722  0.3021  0.2579 -0.1315
 3588TIP3    H132255   0.857   6.506  13.722 -0.8814  2.3186 -1.5854
 3588TIP3    H232256   0.928   6.628  13.776  1.1279  0.8009 -0.6682
 3589TIP3   OH232257   1.787   3.918   6.678  0.0417 -0.0954  0.3427
 3589TIP3    H132258   1.699   3.913   6.716 -0.0844 -1.1907 -0.0692
 3589TIP3    H232259   1.819   3.828   6.679  0.6731  0.1013 -0.6360
 3590TIP3   OH232260   4.480   6.718  15.445 -1.0363 -0.1957  0.0393
 3590TIP3    H132261   4.406   6.711  15.385 -0.1562  0.7828 -1.2018
 3590TIP3    H232262   4.557   6.715  15.389 -0.1382 -0.4910  1.2476
 3591TIP3   OH232263   0.420   2.334  16.402 -0.3164 -0.3067  0.2112
 3591TIP3    H132264   0.371   2.409  16.367 -0.6759 -1.9613 -3.2029
 3591TIP3    H232265   0.507   2.342  16.362 -0.5424 -1.9696 -0.6989
 3592TIP3   OH232266   0.829   6.419  14.811  0.2561  0.7693  0.2752
 3592TIP3    H132267   0.837   6.354  14.741 -0.2843  1.6350 -0.6275
 3592TIP3    H232268   0.918   6.430  14.844  0.2390 -1.0485  1.0609
 3593TIP3   OH232269   1.701   1.321  12.091 -0.4238 -0.5954 -0.0707
 3593TIP3    H132270   1.793   1.330  12.067 -0.5878 -1.0420 -0.9128
 3593TIP3    H232271   1.702   1.277  12.176  0.1388 -1.0871 -0.3236
 3594TIP3   OH232272   2.202   3.076   4.674 -0.1822 -0.4452 -0.4797
 3594TIP3    H132273   2.282   3.103   4.628 -0.7403  2.1154 -0.1336
 3594TIP3    H232274   2.143   3.151   4.663 -1.3502 -0.9196  2.0173
 3595TIP3   OH232275   5.382   1.838   0.669  0.2331 -0.1744 -0.8031
 3595TIP3    H132276   5.366   1.929   0.645 -0.5257 -0.2303 -0.5317
 3595TIP3    H232277   5.340   1.827   0.754 -2.1549 -1.5023 -2.0563
 3596TIP3   OH232278   6.276   4.938   3.671  0.2997 -0.3223  0.0573
 3596TIP3    H132279   6.212   4.867   3.678  0.9487 -0.9081  0.1340
 3596TIP3    H232280   6.240   5.008   3.726  0.4688 -1.2171  1.3419
 3597TIP3   OH232281   2.798   4.623   6.608  0.4477 -0.1192 -0.4764
 3597TIP3    H132282   2.830   4.628   6.698  0.2479  1.3586 -0.4646
 3597TIP3    H232283   2.704   4.607   6.616  0.3802  0.2922 -0.3998
 3598TIP3   OH232284   4.348   2.982  11.533  0.0949 -0.0035 -0.4368
 3598TIP3    H132285   4.328   2.936  11.614  2.7318 -2.8167 -1.1802
 3598TIP3    H232286   4.348   3.074  11.556 -1.1100 -0.5861  2.2437
 3599TIP3   OH232287   5.603   4.259   6.776 -0.5532 -0.5855 -0.3695
 3599TIP3    H132288   5.528   4.293   6.824 -0.0178 -1.2949  1.0078
 3599TIP3    H232289   5.578   4.269   6.684 -2.0092 -0.0965  0.0431
 3600TIP3   OH232290   2.485   3.919  12.534  0.0891 -0.1960 -0.3381
 3600TIP3    H132291   2.550   3.939  12.466 -0.6071  1.1310 -0.6507
 3600TIP3    H232292   2.531   3.936  12.616 -0.0427  1.4125 -0.5724
 3601TIP3   OH232293   4.773   4.831  13.377  0.8746 -0.4687  0.1998
 3601TIP3    H132294   4.778   4.814  13.283  0.3268 -1.4403  0.3407
 3601TIP3    H232295   4.685   4.867  13.390 -0.1781 -3.0054  0.7154
 3602TIP3   OH232296   1.341   2.488  13.996  0.1819  0.2506  0.3308
 3602TIP3    H132297   1.393   2.523  14.068  1.4446 -0.1440 -0.3577
 3602TIP3    H232298   1.270   2.551  13.985 -0.3024  0.0986  2.1755
 3603TIP3   OH232299   1.105   5.246   3.297  0.1442  0.5684 -0.1013
 3603TIP3    H132300   1.197   5.220   3.297  0.8743  2.8979  0.0258
 3603TIP3    H232301   1.106   5.337   3.265 -2.1847  0.4387 -0.7110
 3604TIP3   OH232302   5.126   0.532  11.685  0.0017  0.4455 -0.2525
 3604TIP3    H132303   5.070   0.601  11.649 -0.9430  1.1449  2.3448
 3604TIP3    H232304   5.065   0.466  11.718  0.6799  0.6846  1.6156
 3605TIP3   OH232305   2.759   2.679  16.221  0.0525 -0.7389  0.3628
 3605TIP3    H132306   2.837   2.654  16.171  0.9815 -0.3479  1.5785
 3605TIP3    H232307   2.695   2.610  16.202  0.4704 -0.7678 -1.0981
 3606TIP3   OH232308   3.282   0.424   2.744  0.1147 -0.0390  0.0923
 3606TIP3    H132309   3.316   0.511   2.725  1.2422 -0.0355  1.9070
 3606TIP3    H232310   3.190   0.428   2.720  0.5694  1.0083 -1.7268
 3607TIP3   OH232311   4.312   3.756   5.871  0.2433  0.1763 -0.3113
 3607TIP3    H132312   4.302   3.689   5.939  1.9997  0.1886  0.0217
 3607TIP3    H232313   4.274   3.835   5.909 -1.3431 -0.4598 -0.4868
 3608TIP3   OH232314   0.121   2.067   2.664 -0.5404  0.3671 -0.3317
 3608TIP3    H132315   0.204   2.022   2.652 -0.3491  0.2721  1.1386
 3608TIP3    H232316   0.140   2.159   2.645  0.0372  0.4286  0.4955
 3609TIP3   OH232317   1.901   2.897  12.715  0.0339 -0.3377 -0.2639
 3609TIP3    H132318   1.905   2.908  12.620 -1.6571 -1.8710 -0.5568
 3609TIP3    H232319   1.891   2.803  12.728 -1.7607  0.0137  1.3287
 3610TIP3   OH232320   0.566   1.912   1.344  0.4727  0.1489 -0.6091
 3610TIP3    H132321   0.613   1.834   1.313  1.8227  1.4614 -2.0854
 3610TIP3    H232322   0.519   1.944   1.267 -4.3850 -1.9697  1.1366
 3611TIP3   OH232323   2.415   5.376  12.173  0.2836 -0.4877  0.1571
 3611TIP3    H132324   2.446   5.403  12.087 -0.5018 -0.5526 -0.1592
 3611TIP3    H232325   2.489   5.330  12.212  0.2449 -1.5653 -0.9864
 3612TIP3   OH232326   2.002   3.929  15.086  0.1401 -0.5240  0.0550
 3612TIP3    H132327   2.023   3.942  14.994 -1.0659  1.8868  0.0459
 3612TIP3    H232328   2.087   3.931  15.131  0.6431 -0.6053 -0.8737
 3613TIP3   OH232329   4.008   1.829   5.325  0.1454  0.4931  0.4163
 3613TIP3    H132330   3.986   1.743   5.290  1.6235  1.2723 -2.6762
 3613TIP3    H232331   3.959   1.891   5.271 -0.4392  1.6999  2.2035
 3614TIP3   OH232332   5.339   2.715  13.269 -0.0551 -0.1535 -0.0911
 3614TIP3    H132333   5.336   2.789  13.209  1.0324 -0.0336 -0.0154
 3614TIP3    H232334   5.265   2.729  13.329  1.2709  1.9655  1.1703
 3615TIP3   OH232335   1.390   0.595   6.202 -0.2829 -0.1200  0.2109
 3615TIP3    H132336   1.452   0.659   6.236  0.2033  0.3261 -1.4248
 3615TIP3    H232337   1.407   0.516   6.252  0.2035  0.5678  1.1671
 3616TIP3   OH232338   0.014   6.344  12.028  0.2205 -0.4020  0.2844
 3616TIP3    H132339   0.044   6.350  12.119  1.5379 -0.6704 -0.1128
 3616TIP3    H232340  -0.058   6.282  12.031  0.5768 -0.7938  1.0815
 3617TIP3   OH232341   6.433   5.923  14.311 -0.4141  0.4463 -0.4744
 3617TIP3    H132342   6.466   5.879  14.233 -0.7836  1.5109 -1.2407
 3617TIP3    H232343   6.487   6.001  14.321 -0.5789  0.4888  0.1454
 3618TIP3   OH232344   5.428   5.038   3.644 -0.8625  0.0142  0.3083
 3618TIP3    H132345   5.335   5.026   3.626 -0.5403 -0.7111 -0.9919
 3618TIP3    H232346   5.452   4.962   3.697 -0.7809 -0.3766 -0.2834
 3619TIP3   OH232347   1.929   4.674   4.116  0.0547  0.5433 -0.2096
 3619TIP3    H132348   1.897   4.761   4.138  1.0785  0.9341 -0.2047
 3619TIP3    H232349   2.025   4.681   4.123  0.2679 -0.0836 -1.9837
 3620TIP3   OH232350   6.395   1.283  12.043  0.3772  0.3061 -0.6838
 3620TIP3    H132351   6.368   1.346  11.976  2.5662  0.5670 -1.4124
 3620TIP3    H232352   6.429   1.337  12.114 -0.8089 -0.0070  0.1398
 3621TIP3   OH232353   1.217   5.838   1.748  0.3543 -0.3559  0.8449
 3621TIP3    H132354   1.264   5.803   1.672  0.0036  0.9594 -0.0001
 3621TIP3    H232355   1.178   5.760   1.789  1.6221 -1.2394  0.4480
 3622TIP3   OH232356   3.400   6.186  11.446 -0.1034 -0.4998 -0.2099
 3622TIP3    H132357   3.351   6.244  11.505  1.7323  0.0701  0.8140
 3622TIP3    H232358   3.414   6.107  11.498 -0.8262 -1.1068 -0.8944
 3623TIP3   OH232359   0.679   2.179  16.882 -0.0768  0.0306  0.2473
 3623TIP3    H132360   0.605   2.211  16.934  1.3168  0.2973  2.1758
 3623TIP3    H232361   0.696   2.092  16.917  1.6831  0.7100  1.1804
 3624TIP3   OH232362   4.453   3.022  16.865  0.2857 -0.1431  0.2936
 3624TIP3    H132363   4.423   3.023  16.774  0.5520 -0.0947  0.2062
 3624TIP3    H232364   4.443   3.112  16.895 -1.9553 -0.5528  1.0266
 3625TIP3   OH232365   0.912   5.483   2.735  0.0174  0.8190  0.2754
 3625TIP3    H132366   0.856   5.515   2.805  1.9375 -0.0823  2.3558
 3625TIP3    H232367   0.923   5.390   2.754  0.8080  0.6018 -1.0951
 3626TIP3   OH232368   6.777   1.024   5.635  0.5093 -0.0693 -0.3773
 3626TIP3    H132369   6.862   1.006   5.594  0.4197  0.2099 -0.6911
 3626TIP3    H232370   6.757   1.115   5.611 -0.7887 -0.7168 -1.9925
 3627TIP3   OH232371   6.381   2.517  13.736 -0.5624  0.2636  0.4523
 3627TIP3    H132372   6.454   2.571  13.766  0.1136  0.6554 -1.6669
 3627TIP3    H232373   6.303   2.565  13.763 -0.0140  0.7826  1.1555
 3628TIP3   OH232374   3.412   3.648  16.137  0.1272  0.1942  0.2118
 3628TIP3    H132375   3.435   3.672  16.047 -0.0119  0.4407  0.2403
 3628TIP3    H232376   3.400   3.553  16.133 -1.3279  0.3638 -0.3738
 3629TIP3   OH232377   5.690   3.964  17.080 -0.1458  0.5305 -0.1911
 3629TIP3    H132378   5.628   4.018  17.129 -0.2157  0.6050 -0.3638
 3629TIP3    H232379   5.741   3.920  17.148  0.7080  1.7139 -0.0331
 3630TIP3   OH232380   1.057   4.899  11.249  0.5475 -0.2019  0.1926
 3630TIP3    H132381   1.019   4.851  11.323 -1.1111 -0.1563 -0.5801
 3630TIP3    H232382   1.038   4.991  11.268  0.5033 -0.1552 -0.0715
 3631TIP3   OH232383   2.533   3.507   5.490  0.0111  0.0226 -0.1401
 3631TIP3    H132384   2.600   3.445   5.461  0.0251 -0.7308  1.3551
 3631TIP3    H232385   2.452   3.475   5.451  0.1581 -0.4476 -0.0702
 3632TIP3   OH232386   4.262   0.529  15.895 -0.1738  0.0339 -0.2367
 3632TIP3    H132387   4.207   0.459  15.861 -0.2569  0.4539 -0.9841
 3632TIP3    H232388   4.348   0.513  15.856 -0.1087  0.1627 -0.1468
 3633TIP3   OH232389   4.898   1.199  15.269  0.5279 -0.3229 -0.8489
 3633TIP3    H132390   4.912   1.144  15.191  1.5971  0.8946 -1.5556
 3633TIP3    H232391   4.909   1.288  15.237  1.0429  0.2000  0.7192
 3634TIP3   OH232392   4.405   2.862  15.524 -0.0521  0.4668 -0.9214
 3634TIP3    H132393   4.450   2.940  15.557  2.0899 -0.7447 -0.8054
 3634TIP3    H232394   4.318   2.866  15.564  0.8372  1.5328  1.0540
 3635TIP3   OH232395   1.848   0.092   1.536  0.2947  0.0383  0.1791
 3635TIP3    H132396   1.914   0.137   1.588  0.8245 -0.6703  0.1322
 3635TIP3    H232397   1.867  -0.001   1.548  0.3957 -0.1456 -1.2284
 3636TIP3   OH232398   3.732   4.562   6.415 -0.1723 -0.4303  0.0563
 3636TIP3    H132399   3.724   4.472   6.448 -0.2573 -0.5418 -0.2696
 3636TIP3    H232400   3.642   4.593   6.408 -0.1437 -0.3222  0.1537
 3637TIP3   OH232401   4.285   4.416   0.341 -0.0932  0.8929 -0.2872
 3637TIP3    H132402   4.332   4.495   0.366 -0.1198  0.7219  0.3226
 3637TIP3    H232403   4.193   4.440   0.346 -0.2880 -0.0453  3.1865
 3638TIP3   OH232404   5.085   0.351   2.942  0.3238  0.1615  0.0642
 3638TIP3    H132405   5.089   0.258   2.921 -1.5975 -0.6326  2.6673
 3638TIP3    H232406   5.144   0.361   3.017 -0.5553  0.7220  0.6944
 3639TIP3   OH232407   0.325   2.472   6.450  0.0134 -0.3365 -0.2318
 3639TIP3    H132408   0.349   2.463   6.542 -1.1631 -0.4471  0.0768
 3639TIP3    H232409   0.374   2.403   6.405  1.4446  0.4072  0.1343
 3640TIP3   OH232410   2.077   5.793  15.284  0.8103 -0.3645  1.0994
 3640TIP3    H132411   2.147   5.772  15.222  0.7522  1.7647  0.2309
 3640TIP3    H232412   2.082   5.723  15.349  1.4030 -2.2616 -0.8362
 3641TIP3   OH232413   1.402   5.726   0.060  0.2990  0.3173  0.0092
 3641TIP3    H132414   1.337   5.669   0.102 -0.0777  1.1887  0.6473
 3641TIP3    H232415   1.389   5.712  -0.034  0.1665 -0.5862  0.1507
 3642TIP3   OH232416   4.085   0.118  13.606 -0.7235  0.0132 -0.4192
 3642TIP3    H132417   4.009   0.083  13.560 -0.3361 -0.5926 -0.6181
 3642TIP3    H232418   4.140   0.041  13.622 -1.6112 -0.1318  2.6182
 3643TIP3   OH232419   0.521   1.338   2.326 -0.1209  0.3931 -0.1143
 3643TIP3    H132420   0.503   1.301   2.240  0.2250 -0.2177  0.0728
 3643TIP3    H232421   0.466   1.288   2.386 -0.5713  0.9981 -0.0038
 3644TIP3   OH232422   0.928   5.101   6.071 -0.2746  0.0815 -0.3059
 3644TIP3    H132423   0.923   5.125   6.164 -0.2777  1.6638 -0.6804
 3644TIP3    H232424   1.021   5.104   6.050 -0.2431 -0.6275 -0.2715
 3645TIP3   OH232425   5.096   1.845  16.886 -0.2060 -0.6748 -0.4299
 3645TIP3    H132426   5.009   1.834  16.923 -0.6848  1.2487 -0.8545
 3645TIP3    H232427   5.089   1.923  16.831  2.2171  0.6933  1.0091
 3646TIP3   OH232428   1.040   3.344   2.780 -0.0468 -0.0861 -0.4145
 3646TIP3    H132429   0.965   3.285   2.771 -0.2418 -0.1734  1.4212
 3646TIP3    H232430   1.006   3.431   2.758 -0.4829 -0.2392 -0.3539
 3647TIP3   OH232431   1.798   0.500   4.463 -0.1673  0.3458  0.0599
 3647TIP3    H132432   1.881   0.542   4.486 -1.1533  3.2148 -1.0911
 3647TIP3    H232433   1.780   0.529   4.374 -2.2719 -0.4190  0.1654
 3648TIP3   OH232434   3.395   4.375  12.515 -0.0104  0.1173  0.1546
 3648TIP3    H132435   3.438   4.352  12.597 -0.8844  0.5522  0.7515
 3648TIP3    H232436   3.389   4.470  12.517 -2.2867  0.0215  0.7975
 3649TIP3   OH232437   1.449   0.229   6.203  0.1991  0.4885  0.1955
 3649TIP3    H132438   1.367   0.234   6.154 -0.1062  0.1546  0.6716
 3649TIP3    H232439   1.517   0.244   6.136 -0.2135  0.0543 -0.3309
 3650TIP3   OH232440   6.003   3.390   1.139 -0.0896 -0.1536 -0.0173
 3650TIP3    H132441   5.983   3.385   1.046 -0.7484  0.3779  0.0849
 3650TIP3    H232442   6.093   3.358   1.146  0.6377  1.4972 -1.0947
 3651TIP3   OH232443   0.905   3.400   0.808 -1.0338 -0.4995  0.1633
 3651TIP3    H132444   0.940   3.483   0.775 -1.5512 -0.4605 -0.3037
 3651TIP3    H232445   0.817   3.421   0.838 -1.8983 -1.2386 -1.7272
 3652TIP3   OH232446   2.308   2.550  13.419  0.2246 -0.0647  0.2382
 3652TIP3    H132447   2.248   2.533  13.346  1.6755  0.2813 -1.0970
 3652TIP3    H232448   2.268   2.622  13.468 -0.2676  0.4090 -0.8398
 3653TIP3   OH232449   1.889   5.400  15.813  0.4819 -0.3271 -0.1949
 3653TIP3    H132450   1.968   5.454  15.820  0.0877  0.3123 -0.6214
 3653TIP3    H232451   1.847   5.408  15.899 -1.6453  3.3073 -1.3568
 3654TIP3   OH232452   1.086   4.787  12.660 -0.1284  0.2817  0.3153
 3654TIP3    H132453   1.145   4.858  12.637 -0.4064 -0.1207 -1.8197
 3654TIP3    H232454   1.138   4.707  12.647 -0.1903  0.0212  1.5223
 3655TIP3   OH232455   0.545   3.355   2.734  0.2609  0.1322  0.0993
 3655TIP3    H132456   0.497   3.321   2.810  1.1422 -1.0763  0.1461
 3655TIP3    H232457   0.600   3.425   2.769 -0.6039  0.7519  0.2484
 3656TIP3   OH232458   1.855   4.434   3.035 -0.1717  0.1291 -0.2662
 3656TIP3    H132459   1.875   4.502   3.099 -0.2428 -1.6306  1.7389
 3656TIP3    H232460   1.759   4.434   3.029 -0.1322  1.0480 -1.3060
 3657TIP3   OH232461   6.631   5.548   2.545 -0.1461 -0.0558  0.2610
 3657TIP3    H132462   6.578   5.499   2.482 -0.9372  0.9818  0.0971
 3657TIP3    H232463   6.602   5.515   2.631  0.5894 -1.1187  0.1304
 3658TIP3   OH232464   5.978   5.180   4.743  0.2080  0.2387 -0.1967
 3658TIP3    H132465   5.928   5.140   4.813  0.5079 -0.0117 -0.1242
 3658TIP3    H232466   6.006   5.264   4.778 -1.8288  1.3057 -0.9192
 3659TIP3   OH232467   1.990   4.690   5.181  0.1472 -0.0329 -0.0750
 3659TIP3    H132468   1.982   4.765   5.240 -1.9612 -1.1599  1.1939
 3659TIP3    H232469   2.084   4.670   5.180  0.5922  1.8636  0.5003
 3660TIP3   OH232470   6.773   2.102   1.056  0.0260  0.2047  0.1101
 3660TIP3    H132471   6.713   2.111   0.983  0.4330 -1.9760 -0.5672
 3660TIP3    H232472   6.716   2.096   1.133 -0.5337  0.1011 -0.3054
 3661TIP3   OH232473   4.163   2.588   3.517 -0.3108  0.3447  1.0122
 3661TIP3    H132474   4.143   2.679   3.495 -0.6625  0.1785  0.6331
 3661TIP3    H232475   4.093   2.561   3.576 -0.9924 -0.1015  0.0295
 3662TIP3   OH232476   4.399   5.014  14.926 -0.4114 -0.6855  0.0918
 3662TIP3    H132477   4.347   4.939  14.954  1.5376 -1.0099  3.3514
 3662TIP3    H232478   4.475   4.976  14.882  0.0123 -0.6084  0.7362
 3663TIP3   OH232479   3.241   1.279  12.003  0.2650  0.2795 -0.4417
 3663TIP3    H132480   3.288   1.197  12.020  1.2936  1.2745  1.8142
 3663TIP3    H232481   3.152   1.262  12.033  0.7950  0.3743  1.2391
 3664TIP3   OH232482   0.013   5.950   4.091  0.3483  0.2229  0.7369
 3664TIP3    H132483  -0.027   6.025   4.047  0.9225 -0.0881 -0.3667
 3664TIP3    H232484  -0.061   5.899   4.123 -0.0776  0.6777  0.5064
 3665TIP3   OH232485   1.085   1.211  15.281  0.2809  0.9104  0.2452
 3665TIP3    H132486   1.155   1.147  15.270  0.1603  0.6169  1.1425
 3665TIP3    H232487   1.034   1.179  15.355 -0.1986  1.6648  0.2521
 3666TIP3   OH232488   6.703   4.805   1.154 -0.3968 -0.2165  0.5056
 3666TIP3    H132489   6.623   4.776   1.199  0.6766 -2.8788  0.9253
 3666TIP3    H232490   6.742   4.724   1.121  2.4665  0.8844  0.8686
 3667TIP3   OH232491   5.954   6.545  16.266  0.5660 -0.2569  0.2507
 3667TIP3    H132492   5.928   6.618  16.321 -1.9391 -2.5293  2.3871
 3667TIP3    H232493   6.042   6.521  16.297  0.2501  0.1063  1.4489
 3668TIP3   OH232494   6.462   2.800  14.879  0.1393 -0.1841 -0.5528
 3668TIP3    H132495   6.558   2.807  14.878  0.0393  2.2599 -2.3125
 3668TIP3    H232496   6.436   2.844  14.959  0.4641  0.6615 -0.8965
 3669TIP3   OH232497   2.256   6.207   0.893  0.0837 -0.6560 -0.0313
 3669TIP3    H132498   2.244   6.130   0.948  2.4813 -2.0329 -1.2746
 3669TIP3    H232499   2.237   6.177   0.805  0.4672  0.3339 -0.4730
 3670TIP3   OH232500   1.416   6.292   3.329 -0.3006  0.1242  0.1547
 3670TIP3    H132501   1.357   6.222   3.303 -0.0652  0.1560 -0.4963
 3670TIP3    H232502   1.360   6.358   3.371 -0.7286  0.1613 -0.4648
 3671TIP3   OH232503   1.590   6.335   2.611 -0.0537  0.1991  0.1777
 3671TIP3    H132504   1.645   6.359   2.686  1.5259  1.6399 -1.3659
 3671TIP3    H232505   1.638   6.264   2.568 -0.2960  0.2476 -0.1751
 3672TIP3   OH232506   0.493   4.951   6.594 -0.7472 -0.3057  0.0960
 3672TIP3    H132507   0.420   4.912   6.548  0.8807 -0.4019 -2.5844
 3672TIP3    H232508   0.487   5.044   6.574 -0.1657 -0.3045 -0.0727
 3673TIP3   OH232509   6.157   0.542   2.191  0.2093  0.0274 -0.3569
 3673TIP3    H132510   6.215   0.528   2.116  1.1091 -0.2355  0.3674
 3673TIP3    H232511   6.180   0.473   2.253 -3.7250 -2.7696 -1.6334
 3674TIP3   OH232512   2.994   1.046  11.292 -0.3064  0.1250 -0.3417
 3674TIP3    H132513   2.974   0.993  11.369  1.4942 -2.2130 -1.3817
 3674TIP3    H232514   3.089   1.054  11.293 -0.0869 -1.2400 -3.0733
 3675TIP3   OH232515   2.336   4.298   5.649 -0.5244 -0.1387 -0.2027
 3675TIP3    H132516   2.298   4.274   5.565  1.6802  0.8316 -1.5678
 3675TIP3    H232517   2.331   4.394   5.651 -1.5446 -0.1804  1.3276
 3676TIP3   OH232518   1.902   2.960  16.526  0.1951 -0.3397 -0.1083
 3676TIP3    H132519   1.879   2.930  16.439  0.4230  0.7588 -0.5608
 3676TIP3    H232520   1.823   3.001  16.560  0.3659  0.0287 -0.1516
 3677TIP3   OH232521   2.954   1.093   7.137  0.1349 -0.0723 -0.1225
 3677TIP3    H132522   3.018   1.022   7.149  0.7839  0.4519 -0.4143
 3677TIP3    H232523   2.977   1.131   7.052 -0.5080  0.1903 -0.1836
 3678TIP3   OH232524   0.432   1.571   1.477  0.2400 -0.1415  0.4376
 3678TIP3    H132525   0.392   1.561   1.390  0.6550  2.8204 -0.1868
 3678TIP3    H232526   0.359   1.563   1.538 -0.7066  1.3386 -0.4451
 3679TIP3   OH232527   0.976   2.483  16.528 -0.0465  0.3418 -0.0365
 3679TIP3    H132528   0.939   2.484  16.616  2.6378  0.1998  1.2060
 3679TIP3    H232529   1.015   2.570  16.517 -0.3280  0.3485 -1.0815
 3680TIP3   OH232530   5.998   6.800  11.256  0.4331  0.0822 -0.3194
 3680TIP3    H132531   5.915   6.755  11.270 -0.7899  2.5742  0.8759
 3680TIP3    H232532   6.041   6.798  11.341  0.2630  1.3295 -0.1937
 3681TIP3   OH232533   3.756   3.788  15.813 -0.0979 -0.1215 -0.2336
 3681TIP3    H132534   3.821   3.817  15.877  2.2951  1.1736 -2.9925
 3681TIP3    H232535   3.760   3.854  15.743 -2.7151 -1.2954 -1.6481
 3682TIP3   OH232536   5.578   0.959  13.045 -0.4465  0.4212  0.2573
 3682TIP3    H132537   5.597   0.932  12.955 -0.8015  0.3569  0.2032
 3682TIP3    H232538   5.542   0.882  13.087 -0.1114  0.3994  0.5086
 3683TIP3   OH232539   3.988   3.059   2.985 -0.5377 -0.2986 -0.3369
 3683TIP3    H132540   4.044   2.985   3.009 -0.5733 -0.5610 -1.0280
 3683TIP3    H232541   4.012   3.079   2.894  0.4301  1.4309  0.2579
 3684TIP3   OH232542   2.569   3.792   4.214  0.1479  0.3157 -0.0012
 3684TIP3    H132543   2.485   3.831   4.191  0.1710  1.4577  1.6870
 3684TIP3    H232544   2.630   3.827   4.148 -0.8664 -1.6389 -2.1158
 3685TIP3   OH232545   5.539   1.229   4.442 -0.0681  0.1686 -0.1441
 3685TIP3    H132546   5.566   1.138   4.435 -0.5062  0.0198  0.0738
 3685TIP3    H232547   5.621   1.278   4.444  0.2100 -0.3042  0.9376
 3686TIP3   OH232548   4.646   5.560  11.475  0.6617 -0.3884  0.4821
 3686TIP3    H132549   4.708   5.518  11.415 -0.2404 -1.1681  0.0682
 3686TIP3    H232550   4.680   5.649  11.487  0.5566 -0.0019 -1.6666
 3687TIP3   OH232551   4.998   5.543  13.143  0.1479  0.1184  0.4207
 3687TIP3    H132552   4.919   5.547  13.197 -0.5919 -1.6501 -0.4567
 3687TIP3    H232553   5.018   5.450  13.136  2.3812  0.5164  0.6662
 3688TIP3   OH232554   2.208   3.954  14.864 -0.2087  0.4302  0.2912
 3688TIP3    H132555   2.258   3.873  14.866  0.6428  0.9538  0.9439
 3688TIP3    H232556   2.271   4.022  14.886 -0.8782  1.2947 -0.3423
 3689TIP3   OH232557   1.723   4.153   1.988 -0.4632 -0.2048 -0.1350
 3689TIP3    H132558   1.706   4.117   1.901  1.0912 -1.1257 -0.0995
 3689TIP3    H232559   1.661   4.107   2.045  0.5264 -1.8989 -0.3253
 3690TIP3   OH232560   4.778   5.391  16.687 -0.1835  0.1825 -0.5262
 3690TIP3    H132561   4.796   5.331  16.760  0.4496 -0.6762 -1.3534
 3690TIP3    H232562   4.694   5.362  16.652 -0.6117  0.7574  0.0066
 3691TIP3   OH232563   0.776   6.257  11.268  0.0553  0.1160 -0.8111
 3691TIP3    H132564   0.767   6.179  11.323 -1.0809  0.8336  0.0657
 3691TIP3    H232565   0.687   6.289  11.257  0.6480  2.3050  0.3505
 3692TIP3   OH232566   3.990   6.050  15.709 -0.4142  0.2194 -0.3403
 3692TIP3    H132567   3.914   6.059  15.651 -1.2140  2.7662  0.9760
 3692TIP3    H232568   4.053   6.114  15.676 -0.1040  0.3375  0.4701
 3693TIP3   OH232569   5.389   0.685  17.181 -0.3935  0.2507 -0.2561
 3693TIP3    H132570   5.299   0.699  17.211 -0.4624 -0.2022 -0.2472
 3693TIP3    H232571   5.434   0.767  17.202 -0.4802  0.0090  0.9494
 3694TIP3   OH232572   3.377   3.906  16.891  0.1828 -0.8015  0.2695
 3694TIP3    H132573   3.334   3.991  16.881 -1.4417 -1.3425  1.9958
 3694TIP3    H232574   3.306   3.842  16.884  0.6243 -1.7474  3.0297
 3695TIP3   OH232575   1.142   0.900  15.365  0.0011  0.1656 -0.4141
 3695TIP3    H132576   1.209   0.934  15.305  0.8660  0.2160  0.5587
 3695TIP3    H232577   1.104   0.978  15.405  0.3518  0.0942  0.0739
 3696TIP3   OH232578   6.726   2.120  14.991 -0.1073  0.0525 -0.2512
 3696TIP3    H132579   6.644   2.112  15.039  1.4558 -1.1842  2.4591
 3696TIP3    H232580   6.746   2.213  14.994 -1.8248  0.5287 -1.8284
 3697TIP3   OH232581   6.241   6.439   3.113 -0.5806 -0.3335 -0.1048
 3697TIP3    H132582   6.189   6.499   3.165  1.1277  1.0166  0.1587
 3697TIP3    H232583   6.289   6.386   3.178 -0.6418 -0.6662 -0.3267
 3698TIP3   OH232584   0.837   3.120  12.956 -0.3927 -0.1699 -0.2090
 3698TIP3    H132585   0.884   3.041  12.982  0.7247 -0.7507 -3.5227
 3698TIP3    H232586   0.836   3.175  13.035  1.4206 -2.2410  1.3611
 3699TIP3   OH232587   0.658   1.740  14.193  0.1347  0.2099  0.1530
 3699TIP3    H132588   0.618   1.814  14.239 -2.1470 -0.5055 -0.5393
 3699TIP3    H232589   0.752   1.748  14.212 -0.2852  2.0293  1.8389
 3700TIP3   OH232590   1.436   0.749  13.119 -0.9434  0.0481 -0.3961
 3700TIP3    H132591   1.493   0.805  13.067 -0.0024 -2.3280 -2.0891
 3700TIP3    H232592   1.386   0.699  13.055 -1.1672 -1.5962  0.9813
 3701TIP3   OH232593   3.022   1.314   5.806 -0.4715 -0.2282  0.2384
 3701TIP3    H132594   3.020   1.219   5.809 -2.0539 -0.3472 -1.8903
 3701TIP3    H232595   3.066   1.334   5.724 -0.6669  0.8604  0.3844
 3702TIP3   OH232596   4.243   1.320   4.870 -0.4028  0.0662 -0.3262
 3702TIP3    H132597   4.227   1.338   4.778 -1.2889 -0.7191 -0.3343
 3702TIP3    H232598   4.300   1.243   4.870 -1.3792 -0.6660 -0.2088
 3703TIP3   OH232599   1.758   0.165   0.398  0.1830 -0.4754  0.4432
 3703TIP3    H132600   1.711   0.248   0.401 -0.0838 -0.6375  0.8183
 3703TIP3    H232601   1.830   0.177   0.460 -0.7034 -1.0289  1.6169
 3704TIP3   OH232602   0.479   5.689   4.185 -0.0044  0.2278  0.1541
 3704TIP3    H132603   0.472   5.759   4.249  0.7785  1.4267 -0.9977
 3704TIP3    H232604   0.428   5.617   4.221 -0.4367  1.2228  1.6038
 3705TIP3   OH232605   4.683   5.723   1.412 -0.2261 -0.2191  0.0310
 3705TIP3    H132606   4.613   5.778   1.377  2.3997  1.7989 -2.5243
 3705TIP3    H232607   4.642   5.638   1.426 -3.1407  0.8332 -1.3440
 3706TIP3   OH232608   4.935   6.208  12.414  0.2356  0.0664 -0.5120
 3706TIP3    H132609   4.848   6.209  12.455 -0.1369 -0.3405 -1.2754
 3706TIP3    H232610   4.918   6.223  12.321  1.1580  2.0464 -0.4187
 3707TIP3   OH232611   5.498   3.907  15.141 -0.0036  0.2016  0.4667
 3707TIP3    H132612   5.529   3.902  15.232  1.6600  1.2928 -0.0037
 3707TIP3    H232613   5.403   3.895  15.148  0.0179  0.7441  2.4051
 3708TIP3   OH232614   4.721   2.853   2.186 -0.1980 -0.3474 -0.0674
 3708TIP3    H132615   4.712   2.853   2.281 -1.1667 -2.8092 -0.0840
 3708TIP3    H232616   4.723   2.760   2.162  1.4454  0.1852 -2.3582
 3709TIP3   OH232617   5.279   0.584  15.863  0.3133  0.0073  0.2980
 3709TIP3    H132618   5.225   0.663  15.865 -0.4640 -0.5305  0.7750
 3709TIP3    H232619   5.288   0.564  15.770 -0.6774 -0.1441  0.2279
 3710TIP3   OH232620   3.047   4.094  14.988 -0.0255  0.5068  0.1275
 3710TIP3    H132621   2.983   4.148  14.941 -0.2973  1.4342  1.5095
 3710TIP3    H232622   2.993   4.031  15.036 -0.0726  2.0133  2.2151
 3711TIP3   OH232623   3.765   0.624   5.308  0.3480 -0.3146 -0.2525
 3711TIP3    H132624   3.759   0.636   5.402  1.3829 -2.8610  0.2282
 3711TIP3    H232625   3.757   0.712   5.271  0.0513  0.7443  2.2023
 3712TIP3   OH232626   5.190   5.316  13.540  0.0227 -0.2196  0.2905
 3712TIP3    H132627   5.197   5.411  13.532 -2.4825  0.0419  0.4394
 3712TIP3    H232628   5.096   5.298  13.532  0.5685 -2.8597 -1.3923
 3713TIP3   OH232629   4.996   3.112   5.283  0.0970 -0.0624 -0.2377
 3713TIP3    H132630   4.935   3.113   5.209  0.6269 -2.2045 -0.7691
 3713TIP3    H232631   5.024   3.203   5.293 -1.3840  0.5712 -1.4707
 3714TIP3   OH232632   4.195   0.721   3.329 -0.2592  0.1371 -0.3977
 3714TIP3    H132633   4.219   0.718   3.237 -0.6925 -0.2995 -0.4998
 3714TIP3    H232634   4.274   0.690   3.375  1.0993  3.2931 -0.3728
 3715TIP3   OH232635   1.050   4.481   4.472  0.8611  0.5688  0.0894
 3715TIP3    H132636   1.018   4.402   4.428  0.4586  0.3111  0.8323
 3715TIP3    H232637   1.118   4.515   4.414 -1.1685  1.5241 -1.9148
 3716TIP3   OH232638   6.704   2.768  14.156  0.9245  0.4267 -0.4552
 3716TIP3    H132639   6.754   2.687  14.142  0.6699  0.4485 -1.5932
 3716TIP3    H232640   6.696   2.775  14.251  3.0665  0.4325 -0.2325
 3717TIP3   OH232641   1.852   5.649  11.650  0.4429  0.1684 -0.1373
 3717TIP3    H132642   1.857   5.738  11.686  0.7163  0.1740 -0.1849
 3717TIP3    H232643   1.932   5.606  11.682  0.7808  0.2278 -0.8709
 3718TIP3   OH232644   3.259   2.866  12.132 -0.4900 -0.3539  0.7054
 3718TIP3    H132645   3.300   2.803  12.074 -1.7102  0.4565 -1.1228
 3718TIP3    H232646   3.171   2.830  12.149 -0.9618  0.5123  0.1747
 3719TIP3   OH232647   2.733   2.032   5.285 -0.0575 -0.1438 -0.4253
 3719TIP3    H132648   2.673   1.973   5.238 -1.4302  1.1060 -0.3129
 3719TIP3    H232649   2.774   1.976   5.351 -1.6582 -0.9127 -0.0163
 3720TIP3   OH232650   5.949   4.356  13.726  1.4076 -0.0304 -0.2202
 3720TIP3    H132651   6.033   4.312  13.733  1.3882  0.0629  0.6636
 3720TIP3    H232652   5.941   4.407  13.806  0.3735 -0.2777 -0.1426
 3721TIP3   OH232653   1.728   5.224  17.126 -0.4441  0.1947  0.5671
 3721TIP3    H132654   1.644   5.179  17.131 -1.5423  1.6283 -2.4346
 3721TIP3    H232655   1.722   5.295  17.190 -2.5365  1.6599 -1.1167
 3722TIP3   OH232656   5.835   3.708  16.847 -0.3263  0.2181 -0.1409
 3722TIP3    H132657   5.785   3.675  16.922 -1.9241  0.2936 -1.1300
 3722TIP3    H232658   5.861   3.797  16.873  1.0544 -0.5164  1.1646
 3723TIP3   OH232659   3.095   6.132   2.398  0.2554 -0.1388  0.0895
 3723TIP3    H132660   3.128   6.145   2.310  0.7232  0.0715  0.2948
 3723TIP3    H232661   3.173   6.128   2.453 -0.0673  1.7905  0.7721
 3724TIP3   OH232662   5.898   3.121  12.116 -0.2381  0.2430 -0.1769
 3724TIP3    H132663   5.944   3.057  12.171  1.0158  1.2482 -0.0011
 3724TIP3    H232664   5.938   3.111  12.030  0.8536  1.5960  0.1398
 3725TIP3   OH232665   1.341   3.055  13.215  0.4258  0.8574  0.4511
 3725TIP3    H132666   1.360   2.963  13.237  0.9498  0.4922 -1.3429
 3725TIP3    H232667   1.357   3.103  13.296  0.9296 -0.5322  1.2122
 3726TIP3   OH232668   3.216   4.862  11.270  0.7419 -0.2347 -0.3945
 3726TIP3    H132669   3.212   4.768  11.252  1.1684 -0.5723  1.1665
 3726TIP3    H232670   3.197   4.903  11.186  2.9123 -1.6966 -1.7029
 3727TIP3   OH232671   3.421   6.593  14.201 -0.4789  0.1880  0.0628
 3727TIP3    H132672   3.407   6.687  14.192 -1.1110  0.0124 -0.9928
 3727TIP3    H232673   3.333   6.557  14.209 -0.3893 -0.4760 -1.5148
 3728TIP3   OH232674   1.900   4.554   2.190  0.4303 -0.3459  1.3537
 3728TIP3    H132675   1.857   4.506   2.119  0.3959  0.3581  0.8986
 3728TIP3    H232676   1.903   4.644   2.160  2.5093 -0.4136  1.2157
 3729TIP3   OH232677   1.034   5.819   2.796 -0.0044  0.1024  0.0399
 3729TIP3    H132678   0.939   5.829   2.796 -0.0824 -0.6138 -0.0544
 3729TIP3    H232679   1.066   5.899   2.756 -0.5934  0.1449 -0.3555
 3730TIP3   OH232680   3.686   3.416  14.314  0.3481 -0.0070 -0.2540
 3730TIP3    H132681   3.606   3.461  14.287  0.6017  0.7993  0.2805
 3730TIP3    H232682   3.694   3.437  14.407  2.8883  2.7436 -0.9221
 3731TIP3   OH232683   4.930   3.072   0.861 -0.3989 -0.3952 -0.2143
 3731TIP3    H132684   4.995   3.041   0.923 -0.2429  0.8680  0.2913
 3731TIP3    H232685   4.904   2.994   0.812 -1.1998 -1.6197  2.0219
 3732TIP3   OH232686   3.956   3.953  16.797 -0.1914  0.2815 -0.4880
 3732TIP3    H132687   3.870   3.922  16.824 -0.0024  1.2164  1.3202
 3732TIP3    H232688   3.954   4.047  16.815  1.3756  0.2251  0.0729
 3733TIP3   OH232689   4.005   3.212  14.381 -0.1283 -0.5077  0.0328
 3733TIP3    H132690   4.098   3.204  14.359 -0.1837 -0.7729 -0.1179
 3733TIP3    H232691   4.001   3.282  14.446  0.1391 -0.2790 -0.1951
 3734TIP3   OH232692   1.214   3.525  10.687  0.0732  0.0889 -0.4858
 3734TIP3    H132693   1.163   3.482  10.618 -0.3852  0.3892 -0.3360
 3734TIP3    H232694   1.272   3.456  10.719 -1.6880 -0.8902  0.7902
 3735TIP3   OH232695   4.556   5.835   4.601 -0.1337 -0.5628 -0.1855
 3735TIP3    H132696   4.649   5.823   4.621 -0.0936  1.7207  1.3495
 3735TIP3    H232697   4.511   5.779   4.665  0.1681 -0.0588  0.4790
 3736TIP3   OH232698   6.087   2.101  10.996 -0.0231 -0.1001 -0.2394
 3736TIP3    H132699   6.058   2.154  10.922 -0.1887 -2.5090 -2.0113
 3736TIP3    H232700   6.038   2.020  10.988 -0.7850 -0.1177  3.1491
 3737TIP3   OH232701   4.390   3.345   5.121  0.1916  0.1895  0.1972
 3737TIP3    H132702   4.364   3.395   5.198  0.9925 -0.5788  0.9801
 3737TIP3    H232703   4.478   3.375   5.101  0.7146 -0.9315  0.7241
 3738TIP3   OH232704   5.738   4.025  13.426  0.2446  0.1929  0.3616
 3738TIP3    H132705   5.645   4.021  13.402  0.0685  0.6520  0.9460
 3738TIP3    H232706   5.741   3.989  13.514  0.7276 -0.4574  0.0882
 3739TIP3   OH232707   4.869   6.077   0.396 -0.2289  0.3751  0.1594
 3739TIP3    H132708   4.889   5.984   0.403 -1.5621  0.1536  2.0557
 3739TIP3    H232709   4.864   6.094   0.302  0.9406 -1.2375 -0.2342
 3740TIP3   OH232710   1.245   3.034  12.188 -0.2352 -0.2338  0.4533
 3740TIP3    H132711   1.168   2.977  12.191 -1.3426  1.1570 -0.1933
 3740TIP3    H232712   1.270   3.045  12.280 -0.4607 -1.1390  0.6340
 3741TIP3   OH232713   4.597   0.232  12.418  0.2742  0.0918  0.0213
 3741TIP3    H132714   4.530   0.261  12.356  0.8851  0.5204 -0.4367
 3741TIP3    H232715   4.577   0.279  12.499 -0.2420 -0.1203  0.0245
 3742TIP3   OH232716   0.737   3.913   1.464 -0.0510  0.7080 -1.1134
 3742TIP3    H132717   0.785   3.907   1.382 -0.0962 -0.1468 -1.0883
 3742TIP3    H232718   0.672   3.982   1.450  1.5627  2.3508 -0.9318
 3743TIP3   OH232719   0.544   3.266   1.728  0.3016 -0.5819  0.2978
 3743TIP3    H132720   0.542   3.303   1.640 -1.1669 -1.1189  0.0841
 3743TIP3    H232721   0.616   3.204   1.727  0.2478 -0.6366 -0.5542
 3744TIP3   OH232722   0.307   1.739   4.356 -0.8128  0.3041 -1.0967
 3744TIP3    H132723   0.356   1.818   4.332 -1.1756  0.9218  0.0956
 3744TIP3    H232724   0.216   1.760   4.335 -0.8196 -0.0656 -1.4312
 3745TIP3   OH232725   0.582   3.685  11.683 -0.1421 -0.4622  0.3283
 3745TIP3    H132726   0.489   3.684  11.704 -0.6267  1.8721 -1.3996
 3745TIP3    H232727   0.589   3.636  11.601 -0.1508  0.7923 -0.4463
 3746TIP3   OH232728   0.706   6.173   3.547 -0.1787  0.4103 -0.0448
 3746TIP3    H132729   0.635   6.211   3.597  0.8229  0.2012  1.6178
 3746TIP3    H232730   0.763   6.133   3.612  2.6072  2.4343 -1.0375
 3747TIP3   OH232731   0.138   6.395   4.073  0.0500 -0.0291  0.1664
 3747TIP3    H132732   0.183   6.316   4.101 -0.8100 -0.0956  1.4576
 3747TIP3    H232733   0.165   6.462   4.136  1.2815  0.9159 -1.2818
 3748TIP3   OH232734   5.392   5.020  16.684 -0.4008  0.8277 -0.6458
 3748TIP3    H132735   5.428   5.104  16.712  1.4232 -0.0261 -0.3103
 3748TIP3    H232736   5.464   4.958  16.694 -1.6289 -0.7462 -1.1189
 3749TIP3   OH232737   2.433   4.881   1.194  0.0253 -0.0052  0.1683
 3749TIP3    H132738   2.496   4.904   1.262 -0.4503 -0.2053  0.6811
 3749TIP3    H232739   2.348   4.879   1.239 -0.3153 -0.0010 -0.4578
 3750TIP3   OH232740   1.511   1.756   2.086 -0.0029  0.3792 -0.1380
 3750TIP3    H132741   1.555   1.716   2.011  2.6476  0.5837  1.1802
 3750TIP3    H232742   1.568   1.828   2.111 -1.4769  1.0999  1.3379
 3751TIP3   OH232743   3.608   2.320   5.751  0.1838 -0.2618  0.0469
 3751TIP3    H132744   3.570   2.277   5.827 -2.9308  1.1536 -0.5610
 3751TIP3    H232745   3.569   2.277   5.676  0.9667  0.2718 -0.6900
 3752TIP3   OH232746   6.014   4.361  16.125 -0.4916 -0.0247  0.2445
 3752TIP3    H132747   6.094   4.328  16.082 -0.5275  0.9009 -0.5852
 3752TIP3    H232748   5.970   4.410  16.056 -0.0332  2.4357  1.6093
 3753TIP3   OH232749   5.630   2.188  15.501 -0.2059  0.4666  0.4409
 3753TIP3    H132750   5.578   2.209  15.579  1.3976 -0.1756  1.7397
 3753TIP3    H232751   5.671   2.104  15.521 -0.4082 -0.1306 -1.4603
 3754TIP3   OH232752   0.232   4.846   3.598  0.2811  0.1183  0.1596
 3754TIP3    H132753   0.230   4.757   3.634 -0.0333 -0.2139 -0.6604
 3754TIP3    H232754   0.187   4.899   3.663 -0.6255 -0.5469  0.0884
 3755TIP3   OH232755   2.007   1.773   3.076  0.0205  0.4532  0.3283
 3755TIP3    H132756   1.917   1.746   3.057  0.4846 -0.8542 -0.1616
 3755TIP3    H232757   2.024   1.844   3.015 -0.7154  0.7907  0.5070
 3756TIP3   OH232758   5.820   1.966  12.565 -0.2136  0.2971  0.0665
 3756TIP3    H132759   5.787   2.051  12.535  0.7047  0.8630  0.6075
 3756TIP3    H232760   5.770   1.948  12.645 -0.6807  0.1393 -0.2584
 3757TIP3   OH232761   3.129   4.993  16.476  0.5513  0.0204  0.4566
 3757TIP3    H132762   3.220   4.990  16.507  0.9489  1.4712 -0.4757
 3757TIP3    H232763   3.113   5.085  16.458 -1.1047 -0.2216  0.5263
 3758TIP3   OH232764   2.764   0.876   4.229 -0.3050 -0.1102 -0.0657
 3758TIP3    H132765   2.742   0.926   4.307 -0.5162 -0.0748 -0.1489
 3758TIP3    H232766   2.681   0.862   4.185  0.0694  1.9793 -1.5620
 3759TIP3   OH232767   4.642   3.058  16.548 -0.5392 -0.1063 -0.2801
 3759TIP3    H132768   4.553   3.093  16.546 -0.5714  0.1164  2.1177
 3759TIP3    H232769   4.632   2.965  16.529 -1.4700 -0.3501  1.3008
 3760TIP3   OH232770   5.856   2.768   3.798 -0.0408  0.0141  0.2406
 3760TIP3    H132771   5.802   2.746   3.722  1.7859 -0.4026 -0.9883
 3760TIP3    H232772   5.907   2.844   3.770  1.4151 -0.7790  0.6465
 3761TIP3   OH232773   0.764   5.251  15.029  0.0326 -0.4442 -0.3332
 3761TIP3    H132774   0.787   5.267  15.121 -2.7560  0.4275  0.3087
 3761TIP3    H232775   0.703   5.177  15.033 -0.8030  0.1791 -1.3870
 3762TIP3   OH232776   0.049   5.699  15.203  0.4985 -0.3336 -0.2333
 3762TIP3    H132777   0.037   5.625  15.143 -0.2496  0.3320 -0.9313
 3762TIP3    H232778   0.058   5.775  15.146  1.5739  0.0816  0.4735
 3763TIP3   OH232779   5.789   1.207  12.289 -0.1116 -0.1685  0.0588
 3763TIP3    H132780   5.823   1.128  12.331  1.8706  0.1948 -0.7376
 3763TIP3    H232781   5.696   1.208  12.311 -0.0195 -2.2673  0.7845
 3764TIP3   OH232782   1.069   2.155  11.527 -0.1192  0.0633  0.7410
 3764TIP3    H132783   1.024   2.207  11.460  1.9600  0.4335 -0.4601
 3764TIP3    H232784   1.010   2.082  11.544 -0.5727 -0.2796 -1.8324
 3765TIP3   OH232785   1.856   5.529  11.412 -0.5015 -0.2017  0.3114
 3765TIP3    H132786   1.855   5.565  11.501  0.6556 -0.1283  0.3064
 3765TIP3    H232787   1.949   5.521  11.390 -0.7598 -1.1302 -0.5262
 3766TIP3   OH232788   3.512   5.384   4.754 -0.3946  0.3512 -0.0738
 3766TIP3    H132789   3.583   5.322   4.738 -0.2939  0.5084 -0.2356
 3766TIP3    H232790   3.509   5.438   4.675 -0.5812  0.4547  0.0047
 3767TIP3   OH232791   6.201   3.783   4.251 -0.1400  0.4191  0.6949
 3767TIP3    H132792   6.186   3.855   4.312 -0.2387  0.6073  0.4504
 3767TIP3    H232793   6.295   3.766   4.256 -0.4822 -1.1720  2.6868
 3768TIP3   OH232794   2.260   1.762   4.807 -0.0876  0.3805 -0.0165
 3768TIP3    H132795   2.228   1.709   4.735 -2.8483  1.2530  0.4411
 3768TIP3    H232796   2.299   1.839   4.765  0.8488 -0.3904 -0.5928
 3769TIP3   OH232797   2.888   3.436   4.215  0.1006  0.4260 -0.4073
 3769TIP3    H132798   2.801   3.459   4.247 -0.0905 -1.1448  0.3227
 3769TIP3    H232799   2.946   3.499   4.258 -0.8258  3.4786 -3.1827
 3770TIP3   OH232800   0.991   1.920   2.583  0.0130  0.2069 -0.3686
 3770TIP3    H132801   1.012   1.918   2.489 -0.0584  0.3411 -0.3877
 3770TIP3    H232802   0.896   1.912   2.587  0.0985 -0.8658 -0.2599
 3771TIP3   OH232803   5.499   1.714  16.733 -0.1111  0.1236  0.0622
 3771TIP3    H132804   5.436   1.665  16.785  0.0777  0.0427  0.2154
 3771TIP3    H232805   5.577   1.720  16.788  1.0083 -2.1526 -1.1430
 3772TIP3   OH232806   1.753   3.561  16.240  0.0040  0.5691 -0.0484
 3772TIP3    H132807   1.831   3.602  16.202  1.0389 -1.0123  0.2875
 3772TIP3    H232808   1.753   3.472  16.206 -0.4344 -0.1369  1.6907
 3773TIP3   OH232809   2.826   3.152   2.448  0.4339 -0.1717  0.2430
 3773TIP3    H132810   2.868   3.119   2.527 -0.0441  1.4028  1.1929
 3773TIP3    H232811   2.747   3.195   2.479  0.8518  1.5398 -0.9336
 3774TIP3   OH232812   1.961   4.154  12.117 -0.5894 -0.0020 -0.2471
 3774TIP3    H132813   1.968   4.119  12.028 -2.9635 -0.3135 -0.3763
 3774TIP3    H232814   1.920   4.084  12.168 -0.8718  0.8151  0.6867
 3775TIP3   OH232815   0.931   3.559  15.850 -0.1626  0.1784 -0.5923
 3775TIP3    H132816   0.927   3.605  15.934  0.4627  0.1912 -0.5614
 3775TIP3    H232817   0.852   3.505  15.848  0.4195 -0.7658  0.5693
 3776TIP3   OH232818   2.749   4.891  11.653  0.2956 -0.7187  0.3290
 3776TIP3    H132819   2.681   4.826  11.635  0.0709 -0.8037  1.3779
 3776TIP3    H232820   2.768   4.880  11.747 -0.5936  1.5107  0.8325
 3777TIP3   OH232821   3.403   3.693   3.427  0.3609 -0.0687 -0.3059
 3777TIP3    H132822   3.477   3.754   3.425  1.6150 -1.5148 -0.0619
 3777TIP3    H232823   3.388   3.677   3.521  0.5288 -0.6922 -0.3821
 3778TIP3   OH232824   0.187   1.386   4.087  0.4047  0.5710 -0.3607
 3778TIP3    H132825   0.129   1.453   4.123  1.4522  1.4425 -0.2281
 3778TIP3    H232826   0.263   1.387   4.144  0.7552 -0.2108 -0.8041
 3779TIP3   OH232827   0.193   3.986  15.635 -0.1714  0.2811  0.2901
 3779TIP3    H132828   0.271   3.992  15.579  0.9315 -4.2922  0.9755
 3779TIP3    H232829   0.226   3.957  15.720 -2.4760  0.1074  1.2088
 3780TIP3   OH232830   5.393   2.129  14.209 -0.0647 -0.2332  0.1698
 3780TIP3    H132831   5.390   2.080  14.291 -0.1899 -2.3838 -1.0258
 3780TIP3    H232832   5.483   2.119  14.179 -0.5767 -1.5271 -1.0568
 3781TIP3   OH232833   2.033   5.891  16.107  0.1322 -0.5202 -0.2796
 3781TIP3    H132834   2.115   5.928  16.141 -1.1356  1.1387  1.1108
 3781TIP3    H232835   2.030   5.803  16.145  0.6891 -0.1597  0.6288
 3782TIP3   OH232836   3.139   0.538   5.341 -0.3235  0.2498 -0.1591
 3782TIP3    H132837   3.196   0.575   5.409  0.0405 -0.4012 -0.0949
 3782TIP3    H232838   3.176   0.451   5.325 -0.6117  0.2715 -0.9532
 3783TIP3   OH232839   6.721   6.778   3.287 -0.5050 -0.3419  0.1204
 3783TIP3    H132840   6.717   6.731   3.204 -2.9744 -0.3217  0.1503
 3783TIP3    H232841   6.791   6.735   3.336  1.2463 -0.1499 -2.0373
 3784TIP3   OH232842   1.307   1.329  12.020  0.5829 -0.0138 -0.2136
 3784TIP3    H132843   1.357   1.359  12.096 -0.1290  0.6243  0.0139
 3784TIP3    H232844   1.313   1.401  11.957 -0.0931  0.0976 -0.1600
 3785TIP3   OH232845   1.072   2.685  13.650 -0.1098 -0.2603 -0.0099
 3785TIP3    H132846   1.017   2.653  13.579  1.0903 -0.7488 -0.7427
 3785TIP3    H232847   1.127   2.752  13.609 -0.0110  0.0811  0.6665
 3786TIP3   OH232848   2.708   2.802  15.587 -0.0075  0.2899 -0.2075
 3786TIP3    H132849   2.688   2.895  15.592 -3.1290 -0.3639  2.6728
 3786TIP3    H232850   2.627   2.760  15.557  0.4216 -1.6874  1.1650
 3787TIP3   OH232851   6.166   5.935  10.931  0.3304  0.7668 -0.1839
 3787TIP3    H132852   6.108   5.861  10.915 -0.0022  1.1151 -0.6153
 3787TIP3    H232853   6.173   5.979  10.847  0.3473  1.3528  0.1162
 3788TIP3   OH232854   1.548   3.440   2.992  0.4158  0.4155 -0.0394
 3788TIP3    H132855   1.571   3.516   3.045  0.9039  0.7188 -0.6689
 3788TIP3    H232856   1.596   3.453   2.910  0.2311 -0.4006 -0.2828
 3789TIP3   OH232857   6.767   0.658  11.039  0.2345 -0.2700 -0.0051
 3789TIP3    H132858   6.789   0.706  10.959  0.5680 -0.3760  0.0206
 3789TIP3    H232859   6.676   0.683  11.057  0.7635  1.3045  0.6817
 3790TIP3   OH232860   5.539   4.018  12.109 -0.5300 -0.1829 -0.3326
 3790TIP3    H132861   5.632   4.042  12.107 -0.4839 -0.2590  0.4742
 3790TIP3    H232862   5.493   4.096  12.079 -0.5671  1.9312  4.4094
 3791TIP3   OH232863   1.019   2.138   1.195 -0.1168 -0.3569  0.5030
 3791TIP3    H132864   0.938   2.187   1.213  0.8042  0.5904  2.4584
 3791TIP3    H232865   0.990   2.055   1.159 -1.8098  1.1110 -1.7500
 3792TIP3   OH232866   3.650   6.660   5.576  0.1284 -0.1401  0.2166
 3792TIP3    H132867   3.738   6.625   5.593 -0.0208 -1.0928 -0.8531
 3792TIP3    H232868   3.661   6.716   5.499 -0.5995 -2.1949 -1.4636
 3793TIP3   OH232869   5.908   4.972   5.785  0.2455 -0.2257  0.3062
 3793TIP3    H132870   5.916   4.895   5.730  0.3899  0.2794 -0.3957
 3793TIP3    H232871   5.905   4.938   5.874 -0.8709 -1.1103 -0.0536
 3794TIP3   OH232872   2.049   4.470  16.989  0.3750  0.1633 -0.3457
 3794TIP3    H132873   2.019   4.464  17.080 -1.7053  0.7872 -0.9331
 3794TIP3    H232874   2.062   4.379  16.962  0.1105 -0.0734  0.3012
 3795TIP3   OH232875   5.097   6.185  13.127  0.3827  0.2357  0.0660
 3795TIP3    H132876   5.089   6.194  13.032  1.4024  0.1631 -0.0373
 3795TIP3    H232877   5.047   6.259  13.162 -1.0364 -0.4354 -0.4825
 3796TIP3   OH232878   1.690   0.431  16.336  0.3594  0.0055 -0.0186
 3796TIP3    H132879   1.647   0.514  16.316  1.6597  0.4982 -0.8778
 3796TIP3    H232880   1.643   0.366  16.283  0.3388  0.4450 -0.5457
 3797TIP3   OH232881   3.670   2.122  14.554 -0.3496  0.0060  0.4477
 3797TIP3    H132882   3.607   2.050  14.555  0.8003 -1.0409  2.3904
 3797TIP3    H232883   3.625   2.193  14.600 -0.6113 -0.2826  0.6431
 3798TIP3   OH232884   3.525   5.952  11.586  0.1970  0.0918 -0.3816
 3798TIP3    H132885   3.563   5.872  11.549  1.3156  1.1435 -1.6159
 3798TIP3    H232886   3.457   5.921  11.646  0.7585 -1.7790 -0.6513
 3799TIP3   OH232887   3.487   2.684   5.499  0.3905 -0.5564  0.4075
 3799TIP3    H132888   3.504   2.609   5.442  4.0068 -0.0560  0.5925
 3799TIP3    H232889   3.541   2.668   5.577  0.6597  1.8518  0.7983
 3800TIP3   OH232890   5.474   6.639  13.100 -0.3471 -0.0597  0.5243
 3800TIP3    H132891   5.400   6.699  13.105 -0.6127 -0.4027  0.7204
 3800TIP3    H232892   5.453   6.570  13.162  0.7603  0.5239  1.5855
 3801TIP3   OH232893   2.809   0.263  11.235 -0.1809  0.0851 -0.0498
 3801TIP3    H132894   2.770   0.266  11.147 -0.4589  0.3873  0.0834
 3801TIP3    H232895   2.755   0.322  11.287  0.5535  0.6368  0.0952
 3802TIP3   OH232896   4.990   6.659  16.964  0.0541  0.3437 -0.0316
 3802TIP3    H132897   5.034   6.735  17.002  0.1721 -0.5735  1.7505
 3802TIP3    H232898   4.935   6.696  16.895  0.8434  1.9218  0.1290
 3803TIP3   OH232899   6.709   0.322  12.930  0.2943 -0.9530  0.2966
 3803TIP3    H132900   6.640   0.303  12.993  0.4110  0.4293  0.8922
 3803TIP3    H232901   6.761   0.391  12.973 -0.1792  0.7207 -1.6672
 3804TIP3   OH232902   6.799   4.102   1.411 -0.2410 -0.3017  0.0021
 3804TIP3    H132903   6.734   4.114   1.480  1.4710 -0.9817  1.8094
 3804TIP3    H232904   6.767   4.026   1.362 -0.9041 -0.5110  0.7336
 3805TIP3   OH232905   3.483   1.408  12.906  0.0381 -0.1800  0.7785
 3805TIP3    H132906   3.391   1.400  12.931  0.1082  1.0404  1.4866
 3805TIP3    H232907   3.530   1.419  12.989  0.7549 -0.2056  0.3842
 3806TIP3   OH232908   4.703   6.262  14.761  0.1106 -0.2781  0.2308
 3806TIP3    H132909   4.781   6.211  14.739 -1.0498 -1.2481 -1.9339
 3806TIP3    H232910   4.725   6.351  14.734  0.4171 -0.5876 -0.5843
 3807TIP3   OH232911   4.355   4.770   5.082  0.2817  0.0387  0.3791
 3807TIP3    H132912   4.300   4.848   5.085  1.1075  0.6646 -0.3735
 3807TIP3    H232913   4.438   4.800   5.043  0.3886 -1.3482 -0.5253
 3808TIP3   OH232914   4.733   5.836  14.359  0.5664 -0.6108  0.1844
 3808TIP3    H132915   4.785   5.794  14.428  0.8603 -1.3891 -0.5003
 3808TIP3    H232916   4.658   5.779  14.347  0.5023 -0.4638 -0.1286
 3809TIP3   OH232917   5.208   6.347  12.683 -0.3396 -0.0724 -0.1851
 3809TIP3    H132918   5.220   6.282  12.614 -1.6661 -1.8287  1.1469
 3809TIP3    H232919   5.120   6.382  12.668 -0.7540 -0.6872  0.7792
 3810TIP3   OH232920   5.812   5.538  11.971 -0.2164 -0.3650 -0.2884
 3810TIP3    H132921   5.733   5.501  12.011  0.2742 -1.1801 -0.0435
 3810TIP3    H232922   5.782   5.572  11.887 -1.1783  0.9672  0.5559
 3811TIP3   OH232923   1.108   0.690   2.574  0.2578 -0.1568 -0.0943
 3811TIP3    H132924   1.172   0.677   2.644 -0.6301 -1.2007  0.5671
 3811TIP3    H232925   1.160   0.698   2.495  1.2764  0.8317  0.6553
 3812TIP3   OH232926   5.237   6.346   4.124 -0.3338 -0.4988 -0.1636
 3812TIP3    H132927   5.251   6.441   4.130 -0.2764 -0.3159 -2.2557
 3812TIP3    H232928   5.193   6.323   4.206  2.4556  0.7549  1.8451
 3813TIP3   OH232929   5.796   3.687  12.501  0.2080 -0.9287 -0.4728
 3813TIP3    H132930   5.732   3.730  12.444  1.6639 -0.7941 -2.0685
 3813TIP3    H232931   5.814   3.604  12.458 -0.7698 -2.1225  1.3220
 3814TIP3   OH232932   3.544   2.555  15.683 -0.0585  0.7363  0.5761
 3814TIP3    H132933   3.556   2.632  15.628 -0.4275  0.4607  0.1101
 3814TIP3    H232934   3.583   2.580  15.767 -1.1076  1.8094  0.7668
 3815TIP3   OH232935   6.235   6.531   5.578 -0.1428 -0.1378  0.0704
 3815TIP3    H132936   6.303   6.596   5.598  1.3094 -1.6383  0.3296
 3815TIP3    H232937   6.211   6.548   5.487  2.5673 -1.1521 -0.9648
 3816TIP3   OH232938   3.039   0.066  13.705  0.5771 -0.1185 -0.1583
 3816TIP3    H132939   3.021   0.063  13.611  0.5459  1.0749 -0.2030
 3816TIP3    H232940   3.097   0.142  13.716 -0.0606  0.2330  0.8879
 3817TIP3   OH232941   0.084   0.105  10.824 -0.1851 -0.1583  0.1228
 3817TIP3    H132942   0.061   0.196  10.842 -0.3484  0.0795 -1.1895
 3817TIP3    H232943   0.164   0.090  10.874 -0.6481  0.4254  1.0687
 3818TIP3   OH232944   6.039   2.604  14.997 -0.3757  0.2728  0.5514
 3818TIP3    H132945   6.130   2.602  14.966 -0.5577  0.5377 -0.0065
 3818TIP3    H232946   6.032   2.528  15.055 -0.3784 -1.0109 -1.0437
 3819TIP3   OH232947   3.126   2.822  17.072  0.1241  0.1931 -0.3094
 3819TIP3    H132948   3.064   2.848  17.141  1.6903  0.3875  1.0809
 3819TIP3    H232949   3.104   2.879  16.998 -2.2280 -0.6708 -0.3561
 3820TIP3   OH232950   1.729   0.104   3.688  0.0618 -0.1433 -0.3076
 3820TIP3    H132951   1.766   0.147   3.766 -1.1534  1.3684 -0.5136
 3820TIP3    H232952   1.773   0.147   3.615 -0.9251  0.5500 -0.5118
 3821TIP3   OH232953   2.964   4.161   2.014 -0.1926 -0.6655  0.1452
 3821TIP3    H132954   2.902   4.140   1.944  1.4049  0.8666 -1.8852
 3821TIP3    H232955   3.026   4.221   1.973  0.7486  0.4621  2.9839
 3822TIP3   OH232956   3.521   4.977  16.180 -0.1573  0.1021  0.0556
 3822TIP3    H132957   3.513   5.045  16.112  1.3378 -0.9452 -1.2518
 3822TIP3    H232958   3.431   4.959  16.207 -0.7303  1.1557 -1.0632
 3823TIP3   OH232959   0.761   5.528  10.345 -0.3914  0.0366  0.0232
 3823TIP3    H132960   0.764   5.500  10.437 -1.6244 -0.1229  0.0315
 3823TIP3    H232961   0.771   5.623  10.349  1.7193 -0.1380  0.1417
 3824TIP3   OH232962   4.000   3.336  13.234 -0.2400  0.2980 -0.2975
 3824TIP3    H132963   3.930   3.385  13.191  0.9941  0.9837 -1.5895
 3824TIP3    H232964   4.014   3.260  13.178  0.3493  0.3972 -0.2906
 3825TIP3   OH232965   0.053   2.086  16.707 -1.1821 -0.0785 -0.2771
 3825TIP3    H132966  -0.007   2.035  16.652 -1.2838 -0.4638  0.1801
 3825TIP3    H232967  -0.002   2.119  16.778 -1.3408  1.6093 -1.1540
 3826TIP3   OH232968   5.556   1.667   3.933  0.7518  0.3383 -0.2861
 3826TIP3    H132969   5.524   1.643   3.846  1.1033  0.9797 -0.6000
 3826TIP3    H232970   5.478   1.667   3.988  0.6882 -1.2732 -0.3139
 3827TIP3   OH232971   6.767   4.032  13.892  0.6800 -0.2462  0.1015
 3827TIP3    H132972   6.779   4.093  13.819  0.3902 -1.3333 -0.8981
 3827TIP3    H232973   6.693   3.978  13.865  0.6586 -0.7570  1.1542
 3828TIP3   OH232974   2.423   0.954  12.145 -0.1243 -0.3394  0.4326
 3828TIP3    H132975   2.441   1.048  12.142  0.7972 -0.5229 -0.1552
 3828TIP3    H232976   2.355   0.941  12.080 -0.2145 -0.0903  0.4732
 3829TIP3   OH232977   5.016   6.200   2.054 -0.3319 -0.1412 -0.2834
 3829TIP3    H132978   5.008   6.201   2.150  0.8492  0.4555 -0.1743
 3829TIP3    H232979   5.028   6.108   2.032  0.9208 -0.1302  0.2954
 3830TIP3   OH232980   6.380   6.662  16.986 -0.2094  0.7853  0.3039
 3830TIP3    H132981   6.396   6.576  17.025  2.3419  0.3431 -1.4348
 3830TIP3    H232982   6.331   6.642  16.906 -1.3210  1.1865  0.8727
 3831TIP3   OH232983   0.828   3.395  12.201  0.4616 -0.0359 -0.4705
 3831TIP3    H132984   0.802   3.331  12.267  1.1473  1.6583  1.5789
 3831TIP3    H232985   0.880   3.346  12.138  1.0792 -1.4627  1.0910
 3832TIP3   OH232986   4.532   6.804   4.511 -0.0499  0.2586  0.2331
 3832TIP3    H132987   4.475   6.826   4.585  0.3389  1.2934  0.2374
 3832TIP3    H232988   4.495   6.723   4.475  0.0686 -0.5545  1.8727
 3833TIP3   OH232989   0.281   5.975  13.296 -0.1230 -0.2121 -0.4887
 3833TIP3    H132990   0.316   6.063  13.305  2.4774 -1.2509  0.5141
 3833TIP3    H232991   0.343   5.929  13.240 -0.8926 -1.6475 -0.2362
 3834TIP3   OH232992   5.755   5.740   4.721 -0.1985  0.1579 -0.4218
 3834TIP3    H132993   5.839   5.786   4.726  0.7090 -0.9368 -3.4138
 3834TIP3    H232994   5.750   5.689   4.802  1.1127  1.6647  0.6491
 3835TIP3   OH232995   6.615   3.797   3.011 -0.4458  0.4665  0.4610
 3835TIP3    H132996   6.651   3.827   3.094  0.6916 -1.0267  0.5382
 3835TIP3    H232997   6.641   3.864   2.948  0.6643  0.4871  0.9161
 3836TIP3   OH232998   0.353   4.201  11.069 -0.4768  0.5744  0.2433
 3836TIP3    H132999   0.347   4.152  11.151 -1.6317  2.0103  1.0899
 3836TIP3    H233000   0.293   4.275  11.082  1.2117  2.2382 -0.9112
 3837TIP3   OH233001   5.824   4.097  13.718 -0.1971 -0.6770  0.0161
 3837TIP3    H133002   5.811   4.073  13.810 -1.6981 -1.4023 -0.3476
 3837TIP3    H233003   5.832   4.192  13.719  1.4405 -0.7880  1.0414
 3838TIP3   OH233004   5.002   1.208   0.121  0.0828  0.1442  0.4969
 3838TIP3    H133005   5.048   1.269   0.179  2.2966 -0.4354 -0.5515
 3838TIP3    H233006   5.050   1.212   0.039 -1.9237 -0.3540 -0.7843
 3839TIP3   OH233007   1.627   4.009   3.181 -0.0438  0.0661  0.7071
 3839TIP3    H133008   1.623   4.102   3.200  0.4870  0.3668 -0.5511
 3839TIP3    H233009   1.540   3.976   3.204 -0.8861  1.2439 -0.6057
 3840TIP3   OH233010   4.573   3.779  12.654 -0.5830  0.4475 -0.6977
 3840TIP3    H133011   4.556   3.846  12.588 -1.1515  0.6827 -0.3241
 3840TIP3    H233012   4.520   3.704  12.626  0.2903  0.0294 -1.2852
 3841TIP3   OH233013   5.850   6.794   1.919 -0.2344 -0.1808 -0.4269
 3841TIP3    H133014   5.839   6.884   1.950 -0.8781  0.1552 -1.5893
 3841TIP3    H233015   5.857   6.802   1.824 -0.1244 -1.3486 -0.5300
 3842TIP3   OH233016   4.519   3.580   1.043  0.0899  0.0309  0.5996
 3842TIP3    H133017   4.517   3.496   1.089 -0.4313  0.0360  0.5844
 3842TIP3    H233018   4.544   3.643   1.110 -1.6115  0.1889  1.1203
 3843TIP3   OH233019   1.583   1.473  16.442 -0.2914 -0.6007  0.7096
 3843TIP3    H133020   1.592   1.498  16.350  1.9224 -1.0946  0.7346
 3843TIP3    H233021   1.552   1.552  16.485  0.6467  0.2895 -0.1704
 3844TIP3   OH233022   4.328   4.824  14.496 -0.8655  0.9640 -0.1277
 3844TIP3    H133023   4.241   4.849  14.527 -0.9936 -1.6930  1.9850
 3844TIP3    H233024   4.315   4.738  14.456  0.5917  1.1106 -0.9802
 3845TIP3   OH233025   2.471   4.276   2.256  0.4530 -0.7327 -0.3070
 3845TIP3    H133026   2.562   4.259   2.281  0.8543  0.1003 -1.1444
 3845TIP3    H233027   2.441   4.343   2.317  1.1461  0.6517 -1.4476
 3846TIP3   OH233028   4.298   2.908  13.481  0.4643 -0.5945  0.3284
 3846TIP3    H133029   4.372   2.865  13.525  0.6431  0.9520  1.6403
 3846TIP3    H233030   4.306   3.000  13.506 -1.8313 -0.3570  0.3925
 3847TIP3   OH233031   2.947   4.785  14.224 -0.1879  0.2762  0.2687
 3847TIP3    H133032   3.004   4.854  14.190 -1.8543  1.4155 -0.3762
 3847TIP3    H233033   2.996   4.704  14.212  1.1226  1.1727 -0.6019
 3848TIP3   OH233034   3.979   4.582  11.318 -0.0311  0.3738  0.1898
 3848TIP3    H133035   3.946   4.586  11.408  1.5323  1.3536  0.7597
 3848TIP3    H233036   3.900   4.570  11.265 -1.3336  2.4858  1.4665
 3849TIP3   OH233037   4.595   5.003  12.579  0.4951 -0.2482 -0.2200
 3849TIP3    H133038   4.542   5.082  12.583  0.4251 -0.3087  0.0942
 3849TIP3    H233039   4.567   4.952  12.655  1.4048 -0.0238  0.2743
 3850TIP3   OH233040   2.960   5.818   5.885 -0.0496 -0.3066  0.1684
 3850TIP3    H133041   3.028   5.775   5.936  0.8145  0.8705  0.0432
 3850TIP3    H233042   2.879   5.803   5.934  0.9036  1.7491  2.5288
 3851TIP3   OH233043   0.318   4.331   2.729 -0.3959  0.2669  0.9524
 3851TIP3    H133044   0.288   4.320   2.639 -1.0401  0.1478  1.1777
 3851TIP3    H233045   0.390   4.269   2.738  0.3023  0.9401  0.2445
 3852TIP3   OH233046   1.594   3.492   4.032 -0.0714 -0.4354 -0.4260
 3852TIP3    H133047   1.589   3.457   4.121  0.4343 -2.7435 -1.2239
 3852TIP3    H233048   1.541   3.431   3.980 -2.2567  2.1159 -1.4279
 3853TIP3   OH233049   0.959   3.698   2.891  1.0070 -0.3914 -0.0062
 3853TIP3    H133050   0.998   3.712   2.805  0.1072  1.5212 -0.1611
 3853TIP3    H233051   1.034   3.687   2.950  1.6383 -1.1903 -0.9332
 3854TIP3   OH233052   1.750   5.815  14.220  0.1702  0.0688  0.3958
 3854TIP3    H133053   1.774   5.840  14.131  1.6861 -2.4052  0.0233
 3854TIP3    H233054   1.734   5.898  14.265  0.3973  1.4205 -1.8717
 3855TIP3   OH233055   2.833   4.660  14.966  0.0031  0.0433  0.0623
 3855TIP3    H133056   2.834   4.754  14.945 -0.0792  0.4518  1.7209
 3855TIP3    H233057   2.740   4.636  14.960  0.0598 -0.0115 -0.6542
 3856TIP3   OH233058   5.632   1.510  15.954 -0.2327  0.1762 -0.2113
 3856TIP3    H133059   5.674   1.500  15.868 -0.5636  2.0598 -0.6383
 3856TIP3    H233060   5.538   1.511  15.935 -0.4044 -1.1872  0.4175
 3857TIP3   OH233061   3.745   6.732   6.672 -0.3486  0.2073 -0.6818
 3857TIP3    H133062   3.719   6.810   6.721  2.6984  1.0887 -0.2447
 3857TIP3    H233063   3.766   6.667   6.739  0.0350  0.0637 -0.9369
 3858TIP3   OH233064   5.843   4.924  11.815 -0.1040  0.2551  0.1904
 3858TIP3    H133065   5.811   4.983  11.884 -0.0625 -0.9226  1.2299
 3858TIP3    H233066   5.925   4.889  11.848  0.5347  0.5790 -0.9868
 3859TIP3   OH233067   1.615   4.838   2.102  0.0587  0.3213 -0.0886
 3859TIP3    H133068   1.704   4.816   2.074 -0.5531 -1.5697 -0.7368
 3859TIP3    H233069   1.575   4.880   2.026 -0.4062 -1.3304 -0.8107
 3860TIP3   OH233070   3.198   3.116   4.023  0.1609  0.6426  0.8301
 3860TIP3    H133071   3.237   3.036   4.059  0.2340  0.3397  0.0933
 3860TIP3    H233072   3.119   3.130   4.076  1.2811  1.3164  2.3996
 3861TIP3   OH233073   6.710   2.070   2.942  0.0424  0.1107 -0.2148
 3861TIP3    H133074   6.769   1.998   2.962  0.8744  0.2038 -2.0528
 3861TIP3    H233075   6.769   2.145   2.927 -0.7142  0.8125  0.2599
 3862TIP3   OH233076   0.635   6.034   2.959 -0.7594 -0.5368 -0.8941
 3862TIP3    H133077   0.539   6.033   2.956 -1.0113  1.0203  2.4613
 3862TIP3    H233078   0.659   6.125   2.940 -0.3385  0.1287  2.2984
 3863TIP3   OH233079   0.658   0.232   2.680 -0.3152  0.0277  0.1591
 3863TIP3    H133080   0.612   0.198   2.603  1.0415 -2.5492  0.3908
 3863TIP3    H233081   0.589   0.238   2.747 -1.1890  0.7169 -0.7734
 3864TIP3   OH233082   2.551   5.482  15.765  0.2542  0.9487 -0.0737
 3864TIP3    H133083   2.567   5.469  15.671  0.9507 -1.9345  0.3425
 3864TIP3    H233084   2.549   5.393  15.801 -3.9422  1.6592  2.0598
 3865TIP3   OH233085   4.187   6.713   2.594 -0.9990 -0.9016 -0.4240
 3865TIP3    H133086   4.092   6.707   2.595 -1.1705  0.5293  2.2327
 3865TIP3    H233087   4.214   6.675   2.678  0.9367 -2.4750 -1.6562
 3866TIP3   OH233088   3.512   5.747   0.809 -0.5588 -0.0064  0.1984
 3866TIP3    H133089   3.479   5.670   0.763  0.1180  0.3317 -0.9068
 3866TIP3    H233090   3.598   5.763   0.771 -0.2806  0.7271  1.0938
 3867TIP3   OH233091   6.073   2.619  10.730  0.1083  0.2279 -0.2373
 3867TIP3    H133092   6.008   2.681  10.697  0.4735  0.7283 -0.0375
 3867TIP3    H233093   6.061   2.541  10.676 -0.3908  0.4555 -0.4632
 3868TIP3   OH233094   1.487   1.251  16.570 -0.3012 -0.1450  0.2123
 3868TIP3    H133095   1.535   1.329  16.542 -0.0766 -0.5339 -0.5155
 3868TIP3    H233096   1.421   1.284  16.632 -0.6376  0.7112 -0.5810
 3869TIP3   OH233097   1.507   2.239   0.522  0.0260  0.1316 -0.4521
 3869TIP3    H133098   1.532   2.331   0.507  0.7538  0.0841  0.3473
 3869TIP3    H233099   1.543   2.219   0.608 -0.6079 -0.7485 -0.3777
 3870TIP3   OH233100   1.442   4.110  16.269  0.5229  0.2498 -0.2969
 3870TIP3    H133101   1.479   4.197  16.282 -0.6460  0.6224  0.8721
 3870TIP3    H233102   1.454   4.066  16.354  1.6322 -0.9613 -1.0508
 3871TIP3   OH233103   4.615   5.874  12.498  0.2052 -0.0921 -0.4975
 3871TIP3    H133104   4.695   5.926  12.505 -0.8324  1.3447  2.5505
 3871TIP3    H233105   4.551   5.922  12.550 -2.1522 -2.1662 -1.2742
 3872TIP3   OH233106   3.504   6.469   4.689  0.5845  0.3658 -0.4973
 3872TIP3    H133107   3.426   6.459   4.634  0.2977 -1.6018  0.1826
 3872TIP3    H233108   3.496   6.557   4.727 -1.3107  0.2081 -0.4443
 3873TIP3   OH233109   6.712   5.413   1.133  0.3276 -0.4252  0.3975
 3873TIP3    H133110   6.677   5.350   1.196  1.3327 -1.6479 -0.2239
 3873TIP3    H233111   6.657   5.491   1.144 -1.5904 -1.7273  0.5029
 3874TIP3   OH233112   1.749   5.279  11.809 -0.1174  0.4551  0.1847
 3874TIP3    H133113   1.759   5.319  11.895 -1.8769  0.3671  0.4606
 3874TIP3    H233114   1.670   5.225  11.816 -0.9262  1.2819 -1.7855
 3875TIP3   OH233115   1.571   5.016  14.582 -0.5205  0.2329  0.6513
 3875TIP3    H133116   1.539   5.102  14.554 -0.5799  0.1484  0.4539
 3875TIP3    H233117   1.524   4.998  14.664 -1.6678 -0.2878 -0.0950
 3876TIP3   OH233118   6.042   0.271  14.745 -0.0519  0.3170  0.6253
 3876TIP3    H133119   6.061   0.357  14.785 -0.0018 -0.0222  1.3593
 3876TIP3    H233120   5.950   0.256  14.764 -1.2123  1.9320 -2.8920
 3877TIP3   OH233121   3.250   1.557   1.870 -0.4241 -0.9775  0.6245
 3877TIP3    H133122   3.251   1.486   1.934  0.7249 -2.4122 -0.8745
 3877TIP3    H233123   3.322   1.615   1.897  0.5717 -1.9925  0.2509
 3878TIP3   OH233124   1.680   5.586   3.003  0.1410  0.1190 -0.7551
 3878TIP3    H133125   1.629   5.663   3.031  0.2663  1.2993 -3.5159
 3878TIP3    H233126   1.723   5.614   2.923  0.8517 -2.6159 -1.4072
 3879TIP3   OH233127   2.119   5.568  15.768  0.2023 -0.8457 -0.0086
 3879TIP3    H133128   2.058   5.642  15.766 -0.4863 -1.4044 -1.9938
 3879TIP3    H233129   2.197   5.603  15.813 -1.3998 -0.0394  2.3677
 3880TIP3   OH233130   1.426   0.205  12.254  0.2247  0.1790 -0.0318
 3880TIP3    H133131   1.459   0.292  12.231  0.6924  0.5083  1.7062
 3880TIP3    H233132   1.444   0.151  12.178  1.0489  1.3310 -0.6813
 3881TIP3   OH233133   6.536   0.377  14.398 -1.2076  0.0803  0.7110
 3881TIP3    H133134   6.574   0.460  14.370 -0.7631 -0.4435 -0.2813
 3881TIP3    H233135   6.451   0.401  14.435 -1.1327  0.9603  0.3319
 3882TIP3   OH233136   4.720   1.861   6.069 -0.3048 -0.3170 -0.0531
 3882TIP3    H133137   4.813   1.844   6.081 -0.2410  1.3881  2.8249
 3882TIP3    H233138   4.678   1.820   6.145 -1.4745  1.6635  0.4527
 3883TIP3   OH233139   3.853   1.891  11.904  0.3463  0.0105  0.2577
 3883TIP3    H133140   3.924   1.928  11.852 -1.8951  1.9672 -1.6446
 3883TIP3    H233141   3.792   1.964  11.917 -2.0083 -1.8897  0.5325
 3884TIP3   OH233142   5.690   3.769   4.407 -0.1719 -0.3379 -0.2286
 3884TIP3    H133143   5.690   3.799   4.316 -1.2698  1.3478  0.2861
 3884TIP3    H233144   5.648   3.840   4.455 -2.1009 -2.3360  1.2016
 3885TIP3   OH233145   4.767   2.994   5.151 -0.5245  0.2017 -0.0457
 3885TIP3    H133146   4.729   3.050   5.218  1.4699  2.5207 -0.6581
 3885TIP3    H233147   4.754   3.043   5.069 -0.1720 -1.0422 -0.8800
 3886TIP3   OH233148   0.604   1.120   2.690 -0.3823  0.2532  0.9070
 3886TIP3    H133149   0.673   1.097   2.753 -0.4654  0.0906  0.9389
 3886TIP3    H233150   0.634   1.203   2.652  0.1391 -0.1207  0.4787
 3887TIP3   OH233151   4.442   1.628  13.048 -0.2582  0.1293  0.3754
 3887TIP3    H133152   4.525   1.670  13.029  0.1508 -1.7853 -2.6750
 3887TIP3    H233153   4.406   1.679  13.121  2.3004  2.6656  0.0522
 3888TIP3   OH233154   1.812   4.986   6.300  0.2847 -0.0412  0.4678
 3888TIP3    H133155   1.857   5.021   6.377  1.1167 -0.7262  0.3099
 3888TIP3    H233156   1.833   4.892   6.301  0.7861  0.0387 -0.9144
 3889TIP3   OH233157   4.656   1.467  17.176  0.1958 -0.4693  0.0807
 3889TIP3    H133158   4.704   1.460  17.258 -0.6071 -1.4709  0.4821
 3889TIP3    H233159   4.605   1.547  17.185 -0.0536 -0.6860  0.6611
 3890TIP3   OH233160   3.201   4.562   1.733  0.2154  0.1548 -0.1025
 3890TIP3    H133161   3.284   4.608   1.724  0.0669  0.1978 -1.3376
 3890TIP3    H233162   3.164   4.594   1.815  1.4101  0.1334  0.4600
 3891TIP3   OH233163   4.671   1.209  16.303 -0.1598  0.2638  0.2136
 3891TIP3    H133164   4.740   1.275  16.315 -0.2138  0.3738 -0.0663
 3891TIP3    H233165   4.711   1.143  16.247  0.1934 -0.3996  1.2197
 3892TIP3   OH233166   0.489   5.332  12.763  0.0033  0.2678 -0.2095
 3892TIP3    H133167   0.516   5.245  12.734  0.3810  1.6240 -4.5808
 3892TIP3    H233168   0.547   5.352  12.837  2.4915 -1.7391 -1.4885
 3893TIP3   OH233169   1.737   6.216   3.378  0.0342  0.3627  0.8816
 3893TIP3    H133170   1.729   6.200   3.472 -0.1713  0.3173  0.8559
 3893TIP3    H233171   1.752   6.310   3.371  1.9164  0.1201  1.0771
 3894TIP3   OH233172   5.364   1.826  14.059 -0.4772  0.5635 -0.5640
 3894TIP3    H133173   5.319   1.910  14.046 -0.7945  0.6020  0.6077
 3894TIP3    H233174   5.456   1.851  14.068 -0.5688  0.7976 -0.2250
 3895TIP3   OH233175   0.930   6.284  12.332  0.1458  0.0328  0.3753
 3895TIP3    H133176   0.896   6.195  12.317 -1.6617  0.4571  1.5883
 3895TIP3    H233177   0.928   6.325  12.246 -0.8708 -0.5073  0.1219
 3896TIP3   OH233178   3.765   1.273  13.851  0.1816 -0.3446  0.0503
 3896TIP3    H133179   3.768   1.177  13.843 -0.1882 -0.5933  2.3807
 3896TIP3    H233180   3.857   1.300  13.843  0.2892 -0.8670 -0.6365
 3897TIP3   OH233181   2.977   4.893   6.325  0.6378  0.0204  0.0577
 3897TIP3    H133182   3.054   4.869   6.377  0.8317  0.7296  0.1005
 3897TIP3    H233183   2.920   4.816   6.329  0.7189  0.0151  1.1957
 3898TIP3   OH233184   3.304   5.701   1.565 -0.4184 -0.3367 -0.3707
 3898TIP3    H133185   3.399   5.690   1.562 -0.4354 -0.5495 -0.1450
 3898TIP3    H233186   3.292   5.787   1.604 -0.3419 -1.2544  1.8108
 3899TIP3   OH233187   6.794   1.850  17.080  0.6383 -0.0165 -0.2466
 3899TIP3    H133188   6.729   1.784  17.106  0.8544 -0.5723 -1.0584
 3899TIP3    H233189   6.792   1.847  16.984  2.6356 -0.8332 -0.2998
 3900TIP3   OH233190   3.809   1.750  16.059 -0.2102  0.2395  0.4889
 3900TIP3    H133191   3.898   1.737  16.027 -0.1128  2.2871 -0.1812
 3900TIP3    H233192   3.770   1.812  15.997 -1.6872  0.3743  1.5056
 3901TIP3   OH233193   1.000   3.139   1.980  0.4451 -0.1001 -0.6440
 3901TIP3    H133194   0.935   3.090   2.030  0.5100 -2.2880 -2.5397
 3901TIP3    H233195   1.084   3.111   2.017  0.4416  2.2058  1.3433
 3902TIP3   OH233196   6.459   5.780   1.289  0.1626  0.2255  0.3284
 3902TIP3    H133197   6.509   5.764   1.208  0.3783 -0.6204  0.6262
 3902TIP3    H233198   6.495   5.862   1.322  0.8736 -0.0059  0.1618
 3903TIP3   OH233199   0.129   2.714   2.719  0.5114 -0.4167  0.4491
 3903TIP3    H133200   0.196   2.750   2.778  0.2837  0.0556  0.4302
 3903TIP3    H233201   0.053   2.699   2.776 -0.1731  1.3338  0.0578
 3904TIP3   OH233202   5.183   1.083   4.905 -0.5751  0.2945 -0.7299
 3904TIP3    H133203   5.216   1.144   4.971  0.7090 -0.4387 -0.6632
 3904TIP3    H233204   5.148   1.009   4.956 -0.9694  0.3998 -0.8422
 3905TIP3   OH233205   2.300   3.227  16.691 -0.2319  0.1189  0.3985
 3905TIP3    H133206   2.386   3.237  16.651  0.5144 -1.1198  1.6005
 3905TIP3    H233207   2.241   3.210  16.618  0.8428 -0.7241 -0.3009
 3906TIP3   OH233208   2.777   4.586  16.399 -0.4095  0.1265  0.5021
 3906TIP3    H133209   2.859   4.544  16.424 -1.6330 -0.9647  3.0219
 3906TIP3    H233210   2.729   4.518  16.351 -0.7213  0.0218  0.9601
 3907TIP3   OH233211   0.268   4.276  12.915  0.0367  0.4186  0.3366
 3907TIP3    H133212   0.335   4.345  12.921 -0.1500  0.6812 -0.5450
 3907TIP3    H233213   0.190   4.316  12.953 -0.1730  0.8339 -0.5100
 3908TIP3   OH233214   2.291   0.888  14.452  0.0452  0.6257 -0.0521
 3908TIP3    H133215   2.376   0.927  14.470  0.3359 -0.8737  2.1806
 3908TIP3    H233216   2.232   0.963  14.441  1.4141  1.6718 -0.5505
 3909TIP3   OH233217   3.261   1.176   4.185 -0.1830  0.2294 -0.0718
 3909TIP3    H133218   3.316   1.193   4.108 -0.1714 -0.3094 -0.1806
 3909TIP3    H233219   3.287   1.089   4.215 -2.4336 -0.9970 -1.3833
 3910TIP3   OH233220   4.194   6.744   3.159 -0.2167  0.1554  0.4523
 3910TIP3    H133221   4.162   6.815   3.214 -0.7864 -0.3006  0.7231
 3910TIP3    H233222   4.124   6.678   3.163 -0.5469  0.3649 -1.3081
 3911TIP3   OH233223   6.375   5.060   2.556 -0.5020  0.2400 -0.6790
 3911TIP3    H133224   6.468   5.077   2.574  0.2653 -1.7440 -2.2926
 3911TIP3    H233225   6.333   5.065   2.641  1.0741  1.2354  0.0950
 3912TIP3   OH233226   5.071   6.658   0.230  0.1227  0.2527 -0.1659
 3912TIP3    H133227   5.015   6.652   0.152  0.7834 -1.9435 -0.5186
 3912TIP3    H233228   5.157   6.627   0.201  0.2854 -1.0173  1.5117
 3913TIP3   OH233229   4.611   4.587  13.333  1.0621 -0.4241  0.1833
 3913TIP3    H133230   4.636   4.672  13.368  0.5506 -0.4652  0.6502
 3913TIP3    H233231   4.695   4.543  13.316  1.3217 -0.0110  0.3743
 3914TIP3   OH233232   0.205   1.458   4.465 -0.1552  0.3361 -0.0433
 3914TIP3    H133233   0.184   1.368   4.441 -1.8200  0.6047  0.3317
 3914TIP3    H233234   0.265   1.487   4.396  2.4793 -1.8097  1.1383
 3915TIP3   OH233235   1.643   5.049   2.285 -0.3055  0.5654  0.0594
 3915TIP3    H133236   1.581   5.121   2.271  0.3129  1.0123 -0.4409
 3915TIP3    H233237   1.606   4.975   2.238 -0.3645  0.8874 -0.4058
 3916TIP3   OH233238   4.060   1.840  10.383 -0.8322 -0.0271  0.2772
 3916TIP3    H133239   4.120   1.912  10.401 -0.4383 -0.3639  0.3276
 3916TIP3    H233240   4.106   1.761  10.412 -1.2396 -0.3076  0.1873
 3917TIP3   OH233241   5.763   0.472  15.190 -0.3299  0.6471 -0.1573
 3917TIP3    H133242   5.712   0.510  15.262  0.9595 -0.9284  1.7312
 3917TIP3    H233243   5.797   0.547  15.142 -1.1755  1.7781  0.9250
 3918TIP3   OH233244   0.771   3.479   0.507  0.1882  0.0769 -0.8007
 3918TIP3    H133245   0.820   3.541   0.561  2.3611 -1.2370 -1.1421
 3918TIP3    H233246   0.719   3.429   0.569  2.2888 -1.0925  0.1500
 3919TIP3   OH233247   5.464   0.544  11.936 -0.4444 -0.0954 -0.3198
 3919TIP3    H133248   5.409   0.528  11.859 -0.3422 -2.7470  0.0355
 3919TIP3    H233249   5.448   0.467  11.992  0.2068  1.2900  1.8811
 3920TIP3   OH233250   3.243   5.901   1.055  0.8722  0.0560 -0.3032
 3920TIP3    H133251   3.164   5.882   1.105  0.3924  2.7345  0.1303
 3920TIP3    H233252   3.213   5.902   0.964  0.2008  1.6707 -0.1009
 3921TIP3   OH233253   0.698   2.223  13.616 -0.4236 -0.0368  0.1757
 3921TIP3    H133254   0.607   2.217  13.646 -0.3310 -0.5141  0.3788
 3921TIP3    H233255   0.750   2.212  13.696 -0.1820  2.8854  0.5079
 3922TIP3   OH233256   1.581   0.251  16.550 -0.1448  0.2531 -0.3016
 3922TIP3    H133257   1.589   0.342  16.578  0.0987 -0.0416  0.5912
 3922TIP3    H233258   1.552   0.258  16.459  1.2574  1.2357 -0.7125
 3923TIP3   OH233259   3.793   5.125   4.451 -0.3827 -0.2030 -0.0475
 3923TIP3    H133260   3.733   5.165   4.388 -1.2495  0.6593  1.2679
 3923TIP3    H233261   3.762   5.035   4.460  0.9933 -0.9791 -2.3159
 3924TIP3   OH233262   0.171   1.191   4.311  0.4124  0.2187  0.1905
 3924TIP3    H133263   0.161   1.135   4.234 -1.4187 -1.0329  1.2432
 3924TIP3    H233264   0.197   1.131   4.381  0.1828  1.0007  0.9629
 3925TIP3   OH233265   1.893   5.047  15.269  0.9008  0.2406  0.5921
 3925TIP3    H133266   1.922   5.051  15.178  1.5049 -1.1149  0.6846
 3925TIP3    H233267   1.975   5.050  15.319  0.5921  0.6549  1.0670
 3926TIP3   OH233268   5.553   1.599  12.711 -0.1243  0.4258 -0.2726
 3926TIP3    H133269   5.601   1.627  12.634  1.9474 -0.7181  0.5143
 3926TIP3    H233270   5.614   1.541  12.758 -1.0913  1.4422  2.4647
 3927TIP3   OH233271   3.735   6.825  15.559 -0.1919  0.2659 -0.2571
 3927TIP3    H133272   3.811   6.841  15.615  0.8277  1.0457 -1.8100
 3927TIP3    H233273   3.700   6.912  15.540 -0.7804 -0.0181 -0.4993
 3928TIP3   OH233274   4.236   4.556   2.127 -0.3158 -0.0126 -0.5708
 3928TIP3    H133275   4.245   4.592   2.039  0.1094 -0.8358 -0.8710
 3928TIP3    H233276   4.215   4.632   2.181 -0.2060  0.5664 -1.3171
 3929TIP3   OH233277   0.892   5.139  13.690 -0.4982  0.6501  0.3594
 3929TIP3    H133278   0.868   5.206  13.754 -0.7062  1.2645 -0.3562
 3929TIP3    H233279   0.847   5.163  13.610 -0.6781 -0.4220  0.1134
 3930TIP3   OH233280   5.595   3.582  16.069  0.6210  0.2270 -1.2548
 3930TIP3    H133281   5.584   3.657  16.128  1.3705  0.8082 -1.8378
 3930TIP3    H233282   5.522   3.589  16.008  0.8772  0.6790 -1.5114
 3931TIP3   OH233283   3.076   2.320   4.526  0.0673 -0.1681  0.0209
 3931TIP3    H133284   3.035   2.388   4.473 -1.9911 -1.9012 -0.7777
 3931TIP3    H233285   3.010   2.250   4.531  1.7188 -1.7364  1.5415
 3932TIP3   OH233286   5.513   5.373  13.050 -0.5905 -0.2400  0.0694
 3932TIP3    H133287   5.530   5.430  13.125  0.3121 -0.3619 -0.0291
 3932TIP3    H233288   5.575   5.403  12.983 -1.9948  0.4738 -0.9751
 3933TIP3   OH233289   1.753   1.538   3.043 -0.3745  0.0584  0.7339
 3933TIP3    H133290   1.679   1.561   3.098  1.3630  2.2410  2.3314
 3933TIP3    H233291   1.743   1.591   2.964 -1.3516 -0.9346  0.1616
 3934TIP3   OH233292   2.659   2.983  11.984  0.7164  0.4920 -0.8853
 3934TIP3    H133293   2.591   3.050  11.980 -0.7192 -0.9316 -1.6173
 3934TIP3    H233294   2.726   3.014  11.923  0.4273  1.6016 -0.6722
 3935TIP3   OH233295   0.101   5.251  13.670  0.8225 -0.0185 -0.3042
 3935TIP3    H133296   0.159   5.186  13.710  0.6115  0.1890  0.3506
 3935TIP3    H233297   0.056   5.292  13.744  1.8357  1.7346 -0.6191
 3936TIP3   OH233298   2.418   1.495   2.766  0.0062 -0.3954 -0.0512
 3936TIP3    H133299   2.498   1.444   2.777  0.2945  0.3969  1.8347
 3936TIP3    H233300   2.373   1.488   2.849 -0.7055  1.1378 -0.2700
 3937TIP3   OH233301   2.809   1.445  12.383 -0.5538  0.2908  0.6753
 3937TIP3    H133302   2.899   1.444  12.350 -1.1478  0.4691 -1.0798
 3937TIP3    H233303   2.796   1.535  12.414  0.1565  0.0044  1.8687
 3938TIP3   OH233304   1.299   2.947   0.734 -0.1132  0.0380 -0.1388
 3938TIP3    H133305   1.359   2.878   0.709 -0.8035 -0.5711 -0.1454
 3938TIP3    H233306   1.355   3.023   0.751  0.5115  0.2448 -2.6052
 3939TIP3   OH233307   2.569   0.309   1.673  0.1473 -0.2504  0.1311
 3939TIP3    H133308   2.514   0.348   1.741  0.0113 -0.6528  0.2538
 3939TIP3    H233309   2.513   0.307   1.595 -0.0120 -0.6523  0.2537
 3940TIP3   OH233310   4.158   5.788   3.205  0.3105 -1.0860  0.2582
 3940TIP3    H133311   4.185   5.706   3.245  2.0221 -0.2985  0.8172
 3940TIP3    H233312   4.240   5.832   3.183 -0.5567  0.5369  0.1067
 3941TIP3   OH233313   5.471   3.384  17.127  0.1736 -0.4692  0.6865
 3941TIP3    H133314   5.499   3.418  17.042 -0.5883 -2.8393 -0.6035
 3941TIP3    H233315   5.548   3.337  17.161 -0.1686 -1.3469  0.2707
 3942TIP3   OH233316   1.101   4.834   3.100 -0.2470  0.2965  0.7306
 3942TIP3    H133317   1.043   4.911   3.102  0.1447  0.5863  1.6263
 3942TIP3    H233318   1.189   4.871   3.099 -0.0657 -0.1472 -0.1241
 3943TIP3   OH233319   2.176   2.996   2.405 -0.4766 -0.6122 -0.2132
 3943TIP3    H133320   2.141   3.010   2.493 -2.0233 -0.9959 -0.7540
 3943TIP3    H233321   2.252   3.054   2.401 -1.5395  0.9176  0.6955
 3944TIP3   OH233322   2.043   3.659   4.357 -0.1219  0.3959  0.5975
 3944TIP3    H133323   2.075   3.570   4.374 -1.0781  0.1393  1.1200
 3944TIP3    H233324   1.992   3.682   4.434  1.8255  2.2433  1.4509
 3945TIP3   OH233325   0.979   1.414  15.473  0.0677  0.2665 -0.0579
 3945TIP3    H133326   1.005   1.393  15.563  0.8445 -1.9512 -0.7235
 3945TIP3    H233327   1.059   1.446  15.432 -0.3154  1.3949  0.0441
 3946TIP3   OH233328   6.517   3.188  14.795  0.2002 -0.5761 -0.3184
 3946TIP3    H133329   6.428   3.223  14.807  0.1642 -0.3287 -1.2630
 3946TIP3    H233330   6.535   3.200  14.702  0.4012 -2.6063 -0.5692
 3947TIP3   OH233331   4.465   1.637   1.045  0.1868 -0.0118  0.1872
 3947TIP3    H133332   4.384   1.672   1.010  0.0136  1.3688  1.8551
 3947TIP3    H233333   4.534   1.687   1.000  0.0518  0.1901  0.2033
 3948TIP3   OH233334   1.083   4.517   2.691  0.4185  0.2506 -0.5865
 3948TIP3    H133335   1.065   4.610   2.680  0.5261  0.3901  0.3740
 3948TIP3    H233336   1.026   4.474   2.627 -1.2593  0.8534  0.4474
 3949TIP3   OH233337   6.426   4.260  15.523 -0.4297  0.1091 -0.0684
 3949TIP3    H133338   6.391   4.316  15.593 -1.4534  1.9066 -1.9196
 3949TIP3    H233339   6.361   4.264  15.454  2.0892  1.4104 -2.5933
 3950TIP3   OH233340   3.753   5.541  11.743 -0.0378  0.4951 -0.5916
 3950TIP3    H133341   3.826   5.483  11.719 -1.0701 -0.9041 -0.4809
 3950TIP3    H233342   3.795   5.625  11.762  1.5956 -0.3713 -0.1326
 3951TIP3   OH233343   5.522   4.170  16.969 -0.2730 -0.2662 -0.3001
 3951TIP3    H133344   5.575   4.199  16.894  0.3880  0.1538  0.3215
 3951TIP3    H233345   5.522   4.245  17.028 -2.2553  0.0660 -0.6337
 3952TIP3   OH233346   5.591   0.563   6.359 -0.2199 -0.7016  0.6812
 3952TIP3    H133347   5.624   0.495   6.300  0.8376  1.0740 -0.9056
 3952TIP3    H233348   5.668   0.617   6.379 -1.5997  2.3017 -1.3505
 3953TIP3   OH233349   5.268   3.352   2.374  0.4082 -0.2576 -0.1979
 3953TIP3    H133350   5.304   3.311   2.452 -0.2130 -0.0262  0.2203
 3953TIP3    H233351   5.307   3.439   2.371  0.3947 -0.2491 -0.1179
 3954TIP3   OH233352   0.274   4.000   0.728 -0.5772  0.4789  0.0320
 3954TIP3    H133353   0.189   3.996   0.684 -3.3308 -0.6356  4.7473
 3954TIP3    H233354   0.319   3.920   0.701 -2.8615 -1.0301  0.4250
 3955TIP3   OH233355   4.435   1.828   3.821  0.1821  0.1189 -0.0506
 3955TIP3    H133356   4.349   1.817   3.862 -0.0132 -2.4110 -0.9262
 3955TIP3    H233357   4.494   1.849   3.894 -0.9286  0.4724  0.7766
 3956TIP3   OH233358   1.324   4.745   5.372 -0.3917 -0.3028  0.8236
 3956TIP3    H133359   1.277   4.727   5.290  0.1205  0.6698  0.2877
 3956TIP3    H233360   1.256   4.753   5.438 -0.8924 -0.1156  0.2902
 3957TIP3   OH233361   5.113   2.609   0.882 -0.3928 -0.4973 -0.2568
 3957TIP3    H133362   5.143   2.606   0.973 -3.1233  2.5052  0.9349
 3957TIP3    H233363   5.159   2.685   0.845 -2.3025  0.8422 -0.0225
 3958TIP3   OH233364   6.275   3.634  14.336  0.1276  0.2634  0.5642
 3958TIP3    H133365   6.349   3.685  14.368  0.3232  0.9865 -0.9716
 3958TIP3    H233366   6.308   3.544  14.333  1.1613  0.6438 -0.5986
 3959TIP3   OH233367   4.882   2.568   0.203 -0.1094 -0.0649  0.0509
 3959TIP3    H133368   4.805   2.600   0.250 -0.8786 -1.3857 -0.2526
 3959TIP3    H233369   4.854   2.563   0.111  0.9196  1.1316 -0.3439
 3960TIP3   OH233370   1.854   2.427  16.826  0.1718 -0.5132 -0.4223
 3960TIP3    H133371   1.838   2.516  16.795  0.4674 -0.5697 -0.7410
 3960TIP3    H233372   1.771   2.401  16.868  0.6949  0.6452  1.4918
 3961TIP3   OH233373   4.795   6.319   6.343 -0.1090  0.2100 -0.0867
 3961TIP3    H133374   4.890   6.311   6.356  0.3996  1.3475 -2.4891
 3961TIP3    H233375   4.765   6.371   6.417  1.2984  0.5726  0.2590
 3962TIP3   OH233376   2.890   1.306  13.322 -0.1919  0.5787  0.4961
 3962TIP3    H133377   2.837   1.342  13.251  0.3437 -1.4864 -1.0667
 3962TIP3    H233378   2.846   1.223  13.343  0.8087  0.2107  1.1514
 3963TIP3   OH233379   1.745   2.644  11.471 -0.4413  0.6790  0.0871
 3963TIP3    H133380   1.832   2.624  11.507  0.0600  0.9328 -0.9401
 3963TIP3    H233381   1.693   2.669  11.547  0.2737  0.1448  0.7742
 3964TIP3   OH233382   5.331   1.515   1.129  0.2793  0.9652 -0.3603
 3964TIP3    H133383   5.298   1.435   1.089  3.6007 -0.9880  0.3627
 3964TIP3    H233384   5.421   1.522   1.096  1.9285  1.3421  3.6401
 3965TIP3   OH233385   6.570   5.327   0.887  0.2270 -0.9109  0.1067
 3965TIP3    H133386   6.637   5.273   0.846  1.2050 -0.3377  0.9063
 3965TIP3    H233387   6.613   5.365   0.964 -0.0932  1.7770 -0.9278
 3966TIP3   OH233388   0.539   4.465  14.526  0.1189 -0.7816  0.3789
 3966TIP3    H133389   0.548   4.492  14.434  0.3630 -1.2566  0.2642
 3966TIP3    H233390   0.477   4.393  14.523 -1.3206  0.3886  0.8009
 3967TIP3   OH233391   5.195   0.952   3.478  0.5704 -0.2872  0.1598
 3967TIP3    H133392   5.127   0.990   3.534  1.5357  0.8084  0.6612
 3967TIP3    H233393   5.205   0.862   3.510 -1.9257 -1.1385 -1.1892
 3968TIP3   OH233394   0.643   5.410  11.165  0.0695  0.3135 -0.9537
 3968TIP3    H133395   0.650   5.316  11.181 -2.6175  0.5124  2.7186
 3968TIP3    H233396   0.602   5.417  11.079 -0.9149 -1.9405 -0.7358
 3969TIP3   OH233397   6.231   1.872   5.596  0.0800 -0.4653 -0.2113
 3969TIP3    H133398   6.173   1.946   5.581  0.6748  0.5703  2.1204
 3969TIP3    H233399   6.173   1.796   5.601 -0.8556  0.2521 -0.0128
 3970TIP3   OH233400   4.969   3.677  14.469 -0.3128 -0.0924  0.4400
 3970TIP3    H133401   4.966   3.590  14.509 -0.2306 -0.5832 -0.5707
 3970TIP3    H233402   4.880   3.691  14.436 -0.5972  0.6578  1.4925
 3971TIP3   OH233403   2.997   4.808  16.303 -0.2114 -0.5902  0.0853
 3971TIP3    H133404   2.952   4.873  16.249 -0.3013 -1.9776 -1.6045
 3971TIP3    H233405   3.030   4.857  16.378 -0.2355  1.4120 -1.1521
 3972TIP3   OH233406   5.438   3.681   4.488  0.0228  0.6002  0.0037
 3972TIP3    H133407   5.375   3.662   4.419  0.1777 -0.7643  0.2147
 3972TIP3    H233408   5.520   3.698   4.442  0.3331 -1.1517 -0.1505
 3973TIP3   OH233409   0.427   3.121  15.692 -0.7113  0.2147 -0.7335
 3973TIP3    H133410   0.425   3.027  15.711 -1.2199  0.5335  0.9320
 3973TIP3    H233411   0.481   3.128  15.613  0.6259 -1.3453 -0.0218
 3974TIP3   OH233412   0.837   6.187   0.741 -0.1763 -0.2535  0.1517
 3974TIP3    H133413   0.808   6.096   0.748  0.0280 -0.2451  1.3864
 3974TIP3    H233414   0.771   6.229   0.686 -0.2912 -1.1335 -0.4065
 3975TIP3   OH233415   0.607   1.443   2.956 -0.1219  0.1526 -1.0381
 3975TIP3    H133416   0.605   1.359   3.002 -0.5486  1.8232  2.3140
 3975TIP3    H233417   0.700   1.461   2.941  0.0079 -0.5647 -1.1143
 3976TIP3   OH233418   4.887   4.828   0.539  0.0839  0.1861 -0.0909
 3976TIP3    H133419   4.896   4.746   0.588  2.9073  0.4371 -0.0204
 3976TIP3    H233420   4.915   4.806   0.450 -1.7630  0.5229 -0.8102
 3977TIP3   OH233421   4.115   5.387   4.876  0.0640 -0.0528 -0.3460
 3977TIP3    H133422   4.035   5.393   4.824  0.6020 -2.3781 -1.5741
 3977TIP3    H233423   4.129   5.293   4.889  2.8888  0.2259 -0.6561
 3978TIP3   OH233424   1.422   6.639   5.806  0.3537  0.3490  0.1281
 3978TIP3    H133425   1.334   6.612   5.777  0.6762  1.3577 -1.9557
 3978TIP3    H233426   1.482   6.591   5.750  1.1450  0.1201  1.1388
 3979TIP3   OH233427   4.210   2.906  14.363 -0.0245  0.6969 -0.2590
 3979TIP3    H133428   4.227   2.819  14.326 -0.7299 -0.6248  2.2791
 3979TIP3    H233429   4.125   2.897  14.406  0.4358  2.2712  1.0746
 3980TIP3   OH233430   0.728   3.153  16.538 -0.3872 -0.1375  0.1378
 3980TIP3    H133431   0.747   3.234  16.584 -1.7270  0.0996  0.3209
 3980TIP3    H233432   0.703   3.091  16.606  0.3047 -0.6197 -0.0321
 3981TIP3   OH233433   3.142   3.542   4.631  0.3058  0.6248 -0.0084
 3981TIP3    H133434   3.161   3.504   4.545  3.9662  0.0573  0.8827
 3981TIP3    H233435   3.205   3.612   4.640  1.1382 -0.3739  2.8281
 3982TIP3   OH233436   1.198   4.853   4.558  0.3409  0.1429  0.2597
 3982TIP3    H133437   1.104   4.858   4.540  0.4697  0.6947 -0.2686
 3982TIP3    H233438   1.206   4.782   4.622 -0.3797 -0.2310 -0.0570
 3983TIP3   OH233439   2.013   3.845   4.867 -0.0929  0.3808 -0.4488
 3983TIP3    H133440   2.037   3.880   4.782  1.3526  2.2409  0.6371
 3983TIP3    H233441   2.093   3.807   4.902 -0.0632  1.5863  0.9222
 3984TIP3   OH233442   6.813   4.355   5.629  0.0530  0.1407 -0.2906
 3984TIP3    H133443   6.857   4.319   5.705  0.2996  2.0992  0.5710
 3984TIP3    H233444   6.844   4.303   5.555 -2.0452 -3.4736  1.0870
 3985TIP3   OH233445   5.871   5.706  16.967 -0.4982 -0.4040 -0.2972
 3985TIP3    H133446   5.896   5.786  16.922  3.0863 -1.1716  0.0519
 3985TIP3    H233447   5.829   5.652  16.900  0.2328  0.4092 -1.4393
 3986TIP3   OH233448   1.886   1.873  13.685  0.0205  0.0900 -0.3970
 3986TIP3    H133449   1.959   1.934  13.672 -0.9312  1.4711  0.5451
 3986TIP3    H233450   1.898   1.839  13.774  1.1819 -2.0587 -1.2852
 3987TIP3   OH233451   1.848   0.203   1.852 -0.5302 -0.0402 -0.1332
 3987TIP3    H133452   1.827   0.196   1.945  0.9132 -1.3880  0.1151
 3987TIP3    H233453   1.900   0.125   1.832 -1.7315 -0.3711 -2.3386
 3988TIP3   OH233454   3.996   5.247   1.167  0.8237  0.2951 -0.1356
 3988TIP3    H133455   3.986   5.158   1.201  0.2491  0.6233  0.5579
 3988TIP3    H233456   3.997   5.303   1.244  0.6247  0.9455 -0.5942
 3989TIP3   OH233457   4.196   5.478   5.469 -0.6077  0.8420  0.6746
 3989TIP3    H133458   4.289   5.458   5.477 -0.8718  0.0215  2.1360
 3989TIP3    H233459   4.155   5.393   5.450 -0.9395  1.4295 -1.5059
 3990TIP3   OH233460   3.377   4.895   1.103 -0.2935 -0.3866 -0.1459
 3990TIP3    H133461   3.294   4.848   1.098 -0.8861  0.5339  0.6176
 3990TIP3    H233462   3.387   4.935   1.017 -0.2768 -1.0741 -0.4740
 3991TIP3   OH233463   0.886   4.102   5.278 -0.5067  0.0622  0.4201
 3991TIP3    H133464   0.956   4.151   5.234 -0.7367 -1.3545 -1.6932
 3991TIP3    H233465   0.873   4.148   5.361  2.2473  0.9453  0.4788
 3992TIP3   OH233466   1.233   4.277  14.745 -0.0594  0.5896  0.2148
 3992TIP3    H133467   1.265   4.348  14.800 -0.4422  0.2798  0.8427
 3992TIP3    H233468   1.312   4.243  14.702  0.0228  1.9389 -0.7665
 3993TIP3   OH233469   6.323   6.210  14.564  0.1686  0.0451  0.0714
 3993TIP3    H133470   6.280   6.180  14.644 -1.7718  0.7859 -0.6529
 3993TIP3    H233471   6.411   6.235  14.593  0.1068 -1.3090  1.6326
 3994TIP3   OH233472   4.903   1.629   3.104  0.1424  0.0593 -0.4982
 3994TIP3    H133473   4.881   1.625   3.198 -0.4229 -0.7615 -0.6591
 3994TIP3    H233474   4.865   1.549   3.067  0.8949  0.0725 -1.3231
 3995TIP3   OH233475   1.795   6.006   4.129  0.2395 -0.2617  0.6640
 3995TIP3    H133476   1.840   5.991   4.045  3.3324 -1.1563  2.2963
 3995TIP3    H233477   1.771   6.098   4.127 -0.0725 -0.3292 -1.2957
 3996TIP3   OH233478   6.742   4.470  16.085 -0.0383 -0.1617 -0.3717
 3996TIP3    H133479   6.723   4.376  16.087 -1.6853  0.1386 -0.2437
 3996TIP3    H233480   6.779   4.489  16.171 -0.4157 -0.5656 -0.1135
 3997TIP3   OH233481   0.016   4.344  17.197 -0.7574 -0.2757 -0.3773
 3997TIP3    H133482   0.029   4.414  17.261 -1.1658 -2.1614  1.9311
 3997TIP3    H233483  -0.053   4.376  17.139  1.5469  2.6420 -1.7407
 3998TIP3   OH233484   4.711   4.105   4.477  1.0950  0.2187  0.2384
 3998TIP3    H133485   4.665   4.035   4.523 -0.4260  0.3163 -1.0813
 3998TIP3    H233486   4.682   4.185   4.521 -0.9098  0.3687 -1.2778
 3999TIP3   OH233487   2.616   5.004  11.989 -0.0696  0.0252  0.3996
 3999TIP3    H133488   2.527   4.978  11.968 -0.4660 -1.0696  3.0289
 3999TIP3    H233489   2.667   4.923  11.982  0.5685  0.4722 -0.2941
 4000TIP3   OH233490   0.898   4.436   5.713  0.4046 -0.3611 -0.5659
 4000TIP3    H133491   0.870   4.482   5.792  1.0843 -0.3884 -0.3063
 4000TIP3    H233492   0.821   4.384   5.687 -0.3473  0.8470 -0.8331
 4001TIP3   OH233493   3.883   4.762   2.434  0.0597  0.4428  0.0023
 4001TIP3    H133494   3.921   4.849   2.447 -0.9883  0.6535  2.1296
 4001TIP3    H233495   3.790   4.779   2.421 -0.2390 -0.3582  0.9782
 4002TIP3   OH233496   5.793   2.900   4.706  0.0572  0.5057  0.0956
 4002TIP3    H133497   5.808   2.838   4.634 -1.2807  0.3788 -0.1003
 4002TIP3    H233498   5.866   2.962   4.700  1.1797 -0.7783  0.0117
 4003TIP3   OH233499   4.269   1.091  16.640 -0.4779 -0.3870  0.1025
 4003TIP3    H133500   4.310   1.012  16.605  1.0041 -0.4660  1.8879
 4003TIP3    H233501   4.319   1.163  16.602 -0.9380 -0.3341 -0.4230
 4004TIP3   OH233502   4.785   1.374   3.649 -0.0564  0.1174  0.2062
 4004TIP3    H133503   4.767   1.401   3.739 -0.9692 -0.1588  0.1180
 4004TIP3    H233504   4.708   1.401   3.600  0.3088  0.0055 -0.4419
 4005TIP3   OH233505   5.389   2.477   4.252  0.1392  0.1135 -0.0560
 4005TIP3    H133506   5.421   2.441   4.169  0.5308  0.3871 -0.0304
 4005TIP3    H233507   5.418   2.569   4.250  1.0681 -0.1361  0.8353
 4006TIP3   OH233508   3.262   4.770  14.625 -0.3575  0.0567 -0.0712
 4006TIP3    H133509   3.324   4.837  14.594 -0.1124 -1.0016 -2.0524
 4006TIP3    H233510   3.183   4.786  14.574 -0.9144 -0.0619  0.7510
 4007TIP3   OH233511   4.783   6.807   2.642  0.5089 -0.2135  0.5167
 4007TIP3    H133512   4.774   6.836   2.551 -0.6195 -0.8183  0.4252
 4007TIP3    H233513   4.705   6.754   2.659  0.4126  0.3521  2.0198
 4008TIP3   OH233514   2.637   4.478  15.138  0.5844 -0.1466 -0.1974
 4008TIP3    H133515   2.571   4.545  15.120  0.4306 -0.0184  0.7773
 4008TIP3    H233516   2.587   4.397  15.145  0.0687  0.3101  3.1932
 4009TIP3   OH233517   5.518   5.481  14.999  0.1257  0.0035  0.3653
 4009TIP3    H133518   5.555   5.445  15.080 -1.4550 -1.0324  0.6796
 4009TIP3    H233519   5.505   5.405  14.943 -1.1009  0.3753  0.1194
 4010TIP3   OH233520   5.432   5.967  12.863 -0.4611  0.0052 -0.1893
 4010TIP3    H133521   5.433   5.934  12.953 -0.6192  0.9634  0.1736
 4010TIP3    H233522   5.474   5.897  12.812 -0.3391 -0.5357  0.6255
 4011TIP3   OH233523   0.006   1.562   2.926 -0.3286  0.2827 -0.3547
 4011TIP3    H133524   0.007   1.512   2.844  0.3877 -0.4331  0.0726
 4011TIP3    H233525  -0.031   1.501   2.990  1.2267  0.0132  0.3319
 4012TIP3   OH233526   4.546   0.981  13.797 -0.0222 -0.1333  0.3729
 4012TIP3    H133527   4.622   0.972  13.740 -0.1054  0.2484  0.2000
 4012TIP3    H233528   4.573   0.942  13.880 -0.4316 -2.2053 -0.3965
 4013TIP3   OH233529   0.206   3.768   1.064 -0.2403  0.3495  0.6377
 4013TIP3    H133530   0.128   3.821   1.044  0.4906  0.8781 -0.9477
 4013TIP3    H233531   0.232   3.731   0.980  1.5314  0.6071  1.0449
 4014TIP3   OH233532   0.276   0.082  12.963  0.3066 -0.0821 -0.0098
 4014TIP3    H133533   0.199   0.109  12.913  1.8016  1.4443 -1.6146
 4014TIP3    H233534   0.269   0.129  13.045 -1.1366 -1.0280  0.4486
 4015TIP3   OH233535   4.462   2.342   0.981  0.1539  0.2216 -0.0693
 4015TIP3    H133536   4.416   2.258   0.986  2.5422 -1.2458 -0.8599
 4015TIP3    H233537   4.393   2.407   0.968 -1.8358 -1.5270  1.1318
 4016TIP3   OH233538   0.671   5.573   2.617  0.5148  0.5062 -0.4343
 4016TIP3    H133539   0.605   5.503   2.612  1.0224  0.0394 -0.7553
 4016TIP3    H233540   0.751   5.533   2.581  0.5272  1.5929 -1.6775
 4017TIP3   OH233541   5.433   4.130  12.848 -0.3030  0.9948  0.2665
 4017TIP3    H133542   5.507   4.146  12.790  0.0636 -3.6065 -0.9554
 4017TIP3    H233543   5.367   4.089  12.792 -1.3974 -0.2820  2.3639
 4018TIP3   OH233544   1.437   0.583   4.055  0.0475  0.1607  0.2035
 4018TIP3    H133545   1.411   0.547   4.140  0.7206  0.3712  0.5104
 4018TIP3    H233546   1.531   0.599   4.064  0.2061 -0.1758 -0.7130
 4019TIP3   OH233547   0.034   2.357  16.536 -0.1856 -0.2623  0.2757
 4019TIP3    H133548   0.034   2.362  16.441 -1.5163 -1.2652  0.1956
 4019TIP3    H233549   0.098   2.290  16.557  0.3332  0.1738  0.1221
 4020TIP3   OH233550   4.033   6.168   5.515 -0.4710  0.8057  0.2538
 4020TIP3    H133551   3.995   6.197   5.432 -0.2605  1.4292  0.3678
 4020TIP3    H233552   4.083   6.244   5.546  1.5683 -0.2351 -0.3050
 4021TIP3   OH233553   3.027   3.223   3.842 -0.7956 -0.1832  0.2035
 4021TIP3    H133554   3.075   3.178   3.912  0.5357 -0.2734 -0.7247
 4021TIP3    H233555   3.090   3.227   3.770 -1.3768  1.9023 -0.2332
 4022TIP3   OH233556   6.632   0.529   2.792 -0.5153  0.0698  0.0228
 4022TIP3    H133557   6.553   0.566   2.830 -0.1616  0.4419  0.4027
 4022TIP3    H233558   6.626   0.552   2.699 -0.3099  1.0769  0.2462
 4023TIP3   OH233559   5.848   5.092  12.652  0.4163 -0.1133 -0.5961
 4023TIP3    H133560   5.804   5.059  12.574  0.9496 -0.9585 -0.5520
 4023TIP3    H233561   5.885   5.176  12.625 -1.7692  0.9533 -0.4393
 4024TIP3   OH233562   4.537   6.485  15.997 -0.1132 -0.1204 -0.5424
 4024TIP3    H133563   4.510   6.508  15.908 -2.7843 -1.1413 -0.1027
 4024TIP3    H233564   4.616   6.434  15.986 -1.7438 -2.4056 -2.6308
 4025TIP3   OH233565   2.420   6.453   1.675  0.1807  0.1762 -0.0932
 4025TIP3    H133566   2.512   6.476   1.691 -0.2448  1.0411  1.3059
 4025TIP3    H233567   2.424   6.381   1.612  1.8900 -0.8014  1.0573
 4026TIP3   OH233568   2.185   4.673  13.843  0.0685  0.3940  0.3581
 4026TIP3    H133569   2.129   4.600  13.871  0.7513  0.2612  1.4379
 4026TIP3    H233570   2.252   4.632  13.789  0.4934  0.2056  1.0242
 4027TIP3   OH233571   5.972   1.822   3.461 -0.1325 -0.5403  0.2542
 4027TIP3    H133572   5.909   1.776   3.405 -0.8353 -0.2104  0.7630
 4027TIP3    H233573   5.941   1.912   3.464 -1.4991 -0.9896  3.0542
 4028TIP3   OH233574   5.489   5.275  17.105  0.5054  0.5333  0.4473
 4028TIP3    H133575   5.467   5.343  17.042  1.1992  1.9855  1.6822
 4028TIP3    H233576   5.410   5.264  17.158  0.4600  0.5321  0.3793
 4029TIP3   OH233577   5.174   2.077  14.965  0.4628 -0.3096 -0.1599
 4029TIP3    H133578   5.173   1.983  14.982 -1.5878 -0.3970 -0.4503
 4029TIP3    H233579   5.105   2.112  15.021  0.1151  0.7778 -1.2298
 4030TIP3   OH233580   3.562   6.484   1.672  0.1596  0.5278  0.2569
 4030TIP3    H133581   3.632   6.529   1.718  0.4405  1.0421 -0.6513
 4030TIP3    H233582   3.532   6.547   1.606 -1.8336  0.7156  1.2576
 4031TIP3   OH233583   4.496   4.883  15.775  0.1119 -0.0338  0.1510
 4031TIP3    H133584   4.542   4.819  15.829  0.8579 -1.5019 -2.0494
 4031TIP3    H233585   4.406   4.850  15.769 -0.3870  0.9579  1.6450
 4032TIP3   OH233586   6.017   1.210  15.877  0.1346  0.2221  0.3865
 4032TIP3    H133587   5.924   1.204  15.902 -0.4679  0.1450 -1.6738
 4032TIP3    H233588   6.015   1.217  15.782  2.1672  2.5708  0.4424
 4033TIP3   OH233589   4.661   6.175   4.140  0.3396  0.1048 -0.4344
 4033TIP3    H133590   4.613   6.232   4.080  2.4346  1.1354 -1.2435
 4033TIP3    H233591   4.733   6.230   4.172  1.3743 -1.5525  0.1882
 4034TIP3   OH233592   6.244   3.522   4.669  0.2974  0.1701  0.2632
 4034TIP3    H133593   6.160   3.475   4.665  0.2463  0.3216 -0.4702
 4034TIP3    H233594   6.282   3.512   4.582  2.0351 -1.6753  1.1677
 4035TIP3   OH233595   5.776   6.216  14.609 -0.6077 -0.1024 -0.4102
 4035TIP3    H133596   5.689   6.252  14.591 -0.8059 -0.6286 -0.5337
 4035TIP3    H233597   5.825   6.230  14.528 -0.3686  0.7857 -0.1184
 4036TIP3   OH233598   5.983   2.955   4.066 -0.0237  0.0784  0.3972
 4036TIP3    H133599   5.956   2.869   4.032 -1.2746  0.1531  1.1368
 4036TIP3    H233600   5.933   2.966   4.147  0.4838  1.2945  0.5704
 4037TIP3   OH233601   0.340   2.481  11.075  0.4370  0.3058  0.1810
 4037TIP3    H133602   0.276   2.542  11.037  0.1876 -0.1799 -0.1798
 4037TIP3    H233603   0.368   2.427  11.002 -2.0525 -2.4574  1.0624
 4038TIP3   OH233604   0.301   2.875   5.718  0.0853  0.1628  0.2645
 4038TIP3    H133605   0.358   2.843   5.648  1.0158  2.1256  0.0584
 4038TIP3    H233606   0.320   2.818   5.793  0.2031 -0.9981 -0.6236
 4039TIP3   OH233607   3.711   3.502  12.373  0.1901 -0.0223 -0.0629
 4039TIP3    H133608   3.616   3.513  12.370  0.0480 -1.1303 -0.3937
 4039TIP3    H233609   3.728   3.426  12.316  1.4761  1.3109 -1.5680
 4040TIP3   OH233610   3.276   4.661   2.957  0.1205  0.2457 -0.2967
 4040TIP3    H133611   3.266   4.723   3.029 -0.8529  0.5669 -0.6923
 4040TIP3    H233612   3.279   4.716   2.878  2.2045 -0.0209 -0.4700
 4041TIP3   OH233613   5.514   1.203   4.733 -0.1979 -0.0716  0.2527
 4041TIP3    H133614   5.515   1.195   4.637 -0.6567 -1.1576  0.3187
 4041TIP3    H233615   5.477   1.289   4.749  0.5499  0.4217 -0.5531
 4042TIP3   OH233616   0.700   1.987  15.140  0.0237  0.0693 -0.0683
 4042TIP3    H133617   0.629   2.039  15.103 -0.7333 -0.1600  1.0186
 4042TIP3    H233618   0.656   1.914  15.184  0.8377  0.5361  1.5870
 4043TIP3   OH233619   5.334   5.792   0.431 -0.5021  0.0258  0.0042
 4043TIP3    H133620   5.302   5.856   0.367 -1.7029 -1.0984 -0.5538
 4043TIP3    H233621   5.256   5.746   0.460  0.5461 -2.9381 -1.5151
 4044TIP3   OH233622   6.323   2.533   0.157 -0.1706  0.2141  0.0210
 4044TIP3    H133623   6.253   2.470   0.170 -0.4516  0.6477  0.7090
 4044TIP3    H233624   6.304   2.573   0.073 -0.0652 -0.5178 -0.3555
 4045TIP3   OH233625   2.328   5.402  16.242  0.5355 -0.0641  0.2769
 4045TIP3    H133626   2.417   5.437  16.238  0.8251 -0.8918 -0.9488
 4045TIP3    H233627   2.273   5.473  16.209  1.2177 -0.9635 -3.1427
 4046TIP3   OH233628   0.939   3.245  10.828  0.2796 -0.1592 -0.2333
 4046TIP3    H133629   1.022   3.290  10.837 -0.9962  2.3946 -0.2530
 4046TIP3    H233630   0.907   3.234  10.918 -0.4969  1.2851 -0.2953
 4047TIP3   OH233631   3.145   3.454  14.805 -0.1537 -0.0535 -0.3551
 4047TIP3    H133632   3.106   3.526  14.756 -0.4844 -0.0384 -0.0816
 4047TIP3    H233633   3.130   3.477  14.897 -0.3495 -0.5143 -0.2677
 4048TIP3   OH233634   4.102   2.943   1.746  0.3950 -0.0733 -0.5064
 4048TIP3    H133635   4.173   2.904   1.797  0.6546  0.0394 -0.7825
 4048TIP3    H233636   4.117   2.913   1.657  0.5523  0.5917 -0.7057
 4049TIP3   OH233637   4.775   1.825   0.040  0.8883 -0.4234 -0.0929
 4049TIP3    H133638   4.788   1.786   0.126 -0.0713  0.8754  0.6720
 4049TIP3    H233639   4.770   1.919   0.056 -1.4546 -0.2614 -1.2506
 4050TIP3   OH233640   4.987   5.139   1.841  0.1627 -0.0006 -0.2055
 4050TIP3    H133641   4.975   5.108   1.931  0.8608 -0.0723 -0.1378
 4050TIP3    H233642   5.068   5.098   1.811 -0.4861 -0.6414 -1.1643
 4051TIP3   OH233643   0.314   0.797  13.554 -0.3903  0.0499  0.1618
 4051TIP3    H133644   0.341   0.738  13.483  1.6141 -1.9423  2.3794
 4051TIP3    H233645   0.385   0.860  13.561 -0.8793  0.6210  0.0097
 4052TIP3   OH233646   1.545   1.309  16.927  0.6046  0.6378 -0.4183
 4052TIP3    H133647   1.490   1.233  16.905  0.6164  1.0262 -1.8732
 4052TIP3    H233648   1.491   1.361  16.985  0.8596 -0.8218  1.2139
 4053TIP3   OH233649   6.118   3.494   1.962  0.3619  0.1376 -0.1781
 4053TIP3    H133650   6.040   3.471   1.910 -0.8178  0.6855  1.2685
 4053TIP3    H233651   6.174   3.542   1.901 -0.4617 -0.1947 -1.2420
 4054TIP3   OH233652   6.518   4.798   3.848  0.4462 -0.6892  0.3852
 4054TIP3    H133653   6.611   4.819   3.849  0.5420  0.1285 -4.0269
 4054TIP3    H233654   6.474   4.880   3.870  0.8934  0.4419 -2.5105
 4055TIP3   OH233655   0.638   4.236   0.504  0.3701 -0.2076 -0.0622
 4055TIP3    H133656   0.615   4.327   0.522  1.2917  0.6390 -2.7207
 4055TIP3    H233657   0.553   4.193   0.488  0.0746  0.9834 -1.9482
 4056TIP3   OH233658   4.787   5.609   1.151  0.2835  0.5712  0.2677
 4056TIP3    H133659   4.739   5.575   1.227  1.0149  2.4349  1.6463
 4056TIP3    H233660   4.849   5.540   1.129 -1.2450 -0.8012  0.0977
 4057TIP3   OH233661   4.784   5.165   2.222  0.1611 -0.1085  0.5827
 4057TIP3    H133662   4.693   5.160   2.251  0.3893 -3.3556  1.0739
 4057TIP3    H233663   4.785   5.120   2.138  1.0286  1.6485 -0.4027
 4058TIP3   OH233664   5.251   5.266   1.493  0.1493  0.7459  0.2479
 4058TIP3    H133665   5.203   5.316   1.560  2.9417 -0.0135  3.0692
 4058TIP3    H233666   5.342   5.268   1.523  1.2342 -1.3295 -2.5613
 4059TIP3   OH233667   3.840   0.665   3.600 -0.1911  0.1286 -0.3030
 4059TIP3    H133668   3.878   0.704   3.522 -0.2409  0.1106 -0.3360
 4059TIP3    H233669   3.756   0.628   3.572  0.3737 -1.0266 -0.5420
 4060TIP3   OH233670   3.501   5.266  14.522 -0.4865  0.3642  0.3354
 4060TIP3    H133671   3.584   5.248  14.476 -1.0832  1.7633 -1.4209
 4060TIP3    H233672   3.489   5.361  14.513 -1.8903  0.3005  1.2656
 4061TIP3   OH233673   1.423   3.743   3.925  0.0509  0.1435 -0.7165
 4061TIP3    H133674   1.485   3.802   3.882  0.9160 -0.5357 -0.4471
 4061TIP3    H233675   1.478   3.684   3.977 -0.7516 -1.1013 -1.2228
 4062TIP3   OH233676   1.052   1.696  13.834  0.1793  0.4743 -0.2660
 4062TIP3    H133677   1.105   1.775  13.850  1.0314 -0.3561  1.3158
 4062TIP3    H233678   1.055   1.684  13.739 -1.7442  3.4988 -0.8387
 4063TIP3   OH233679   4.201   1.330   5.456 -0.3551 -0.2833  0.4075
 4063TIP3    H133680   4.276   1.364   5.504  0.0000  2.4370 -1.8060
 4063TIP3    H233681   4.234   1.314   5.367 -2.5367  2.5597 -1.1132
 4064TIP3   OH233682   3.452   2.100   5.715  0.4380  0.1451 -0.4130
 4064TIP3    H133683   3.391   2.126   5.784  0.9157  1.7220 -0.5644
 4064TIP3    H233684   3.413   2.133   5.634  1.7723  1.7242 -0.4418
 4065TIP3   OH233685   3.669   5.005  14.650 -0.0161  0.1429  0.1916
 4065TIP3    H133686   3.636   4.926  14.694  0.8202 -0.4882 -0.2878
 4065TIP3    H233687   3.728   4.972  14.582  0.5260  1.1904  0.1332
 4066TIP3   OH233688   4.619   1.212  14.299 -0.1789  0.0903 -0.2919
 4066TIP3    H133689   4.581   1.127  14.278 -1.3288  0.4156  0.4067
 4066TIP3    H233690   4.713   1.200  14.283 -0.6845 -0.2027 -3.8175
 4067TIP3   OH233691   2.314   2.056   0.192  0.2195  0.4534 -0.4804
 4067TIP3    H133692   2.388   2.042   0.133  0.9754  0.2416  0.5058
 4067TIP3    H233693   2.350   2.108   0.264 -0.8146  1.1461 -0.4376
 4068TIP3   OH233694   3.645   4.381  16.243  0.0831  0.5399 -0.5035
 4068TIP3    H133695   3.580   4.311  16.235 -0.1866  0.2050  3.0139
 4068TIP3    H233696   3.601   4.450  16.293  1.9707  0.8809  0.7980
 4069TIP3   OH233697   6.228   2.759   5.125  0.1057  0.1017  0.0423
 4069TIP3    H133698   6.288   2.773   5.198 -0.6296  3.5332  0.1694
 4069TIP3    H233699   6.147   2.728   5.167  0.6163 -0.8545  0.3222
 4070TIP3   OH233700   1.670   4.413  13.290 -0.1874  0.0679  0.3014
 4070TIP3    H133701   1.577   4.436  13.288 -0.3714 -0.6661  0.2498
 4070TIP3    H233702   1.671   4.322  13.318  0.5584  0.2841  1.0250
 4071TIP3   OH233703   6.434   1.616  15.794  0.2267  0.2072 -0.1392
 4071TIP3    H133704   6.381   1.536  15.793 -1.2813  1.1491  0.2028
 4071TIP3    H233705   6.451   1.634  15.702 -3.9434  2.2258 -0.7815
 4072TIP3   OH233706   1.716   2.567   1.661  0.1164  0.0278  0.4179
 4072TIP3    H133707   1.733   2.619   1.582 -0.5750  0.5512  0.5966
 4072TIP3    H233708   1.691   2.632   1.727 -2.6214 -0.6416  0.1530
 4073TIP3   OH233709   2.380   3.312  10.871  0.5624  0.4917 -0.3079
 4073TIP3    H133710   2.341   3.296  10.786 -1.5920 -0.5059  0.8016
 4073TIP3    H233711   2.454   3.251  10.875  1.2459  1.1611 -1.7396
 4074TIP3   OH233712   1.779   0.100   5.246  0.3263  0.0309 -0.5264
 4074TIP3    H133713   1.792   0.116   5.339 -2.1170 -0.1159 -0.1069
 4074TIP3    H233714   1.771   0.005   5.239 -1.3251  0.1417 -0.5635
 4075TIP3   OH233715   5.579   1.210  12.932  0.7836 -0.7149  0.1082
 4075TIP3    H133716   5.521   1.200  12.856 -0.2591  1.4927  0.5559
 4075TIP3    H233717   5.566   1.129  12.982 -0.2411 -1.2021 -0.8904
 4076TIP3   OH233718   5.200   2.425  14.370 -0.3690 -0.1611  0.2848
 4076TIP3    H133719   5.210   2.519  14.388 -1.2651  0.0163 -0.1040
 4076TIP3    H233720   5.188   2.385  14.456 -0.9586  0.2057  0.3754
 4077TIP3   OH233721   6.633   6.045   0.684  0.0675 -0.2381 -0.1051
 4077TIP3    H133722   6.544   6.068   0.656 -0.2553  1.0221  1.7639
 4077TIP3    H233723   6.689   6.082   0.615 -0.7981  0.1713 -0.6147
 4078TIP3   OH233724   5.556   0.979  12.062  0.2222 -0.1403 -0.2114
 4078TIP3    H133725   5.518   1.064  12.041 -1.7660 -0.6185  1.2429
 4078TIP3    H233726   5.649   0.997  12.073 -0.1993  1.9250  0.4337
 4079TIP3   OH233727   3.818   3.423  11.663  0.1174 -0.1232 -0.1111
 4079TIP3    H133728   3.774   3.390  11.741  1.4842  0.0595  0.7566
 4079TIP3    H233729   3.899   3.463  11.695  1.0227 -0.5995 -1.6716
 4080TIP3   OH233730   3.485   2.710  12.381 -0.7463 -0.1299 -0.3631
 4080TIP3    H133731   3.575   2.739  12.366 -1.0236 -0.0252 -2.0579
 4080TIP3    H233732   3.458   2.756  12.460 -0.6079  3.1156 -2.0315
 4081TIP3   OH233733   5.034   2.111   2.165  0.1114  0.2036 -0.2729
 4081TIP3    H133734   5.079   2.158   2.095  0.2444 -0.4725 -0.6551
 4081TIP3    H233735   4.966   2.171   2.194 -0.8782 -0.0149 -1.9682
 4082TIP3   OH233736   5.676   4.447   5.230 -0.3570  0.2786  0.2814
 4082TIP3    H133737   5.607   4.385   5.208 -1.5778  1.1773  1.4485
 4082TIP3    H233738   5.683   4.505   5.154 -1.0321  0.3066  0.2405
 4083TIP3   OH233739   5.492   1.827   5.859  0.5929  0.1994 -0.0732
 4083TIP3    H133740   5.416   1.841   5.803  0.5883 -0.8482 -0.3549
 4083TIP3    H233741   5.486   1.736   5.885  0.0175  0.9154  2.5305
 4084TIP3   OH233742   3.377   3.810   0.159  0.3397  0.2748  0.3532
 4084TIP3    H133743   3.420   3.725   0.170  2.3734  1.1678 -0.2739
 4084TIP3    H233744   3.415   3.846   0.079  0.2243  2.1805  1.0998
 4085TIP3   OH233745   4.639   5.837  11.394  0.3096  0.3979  0.4857
 4085TIP3    H133746   4.692   5.888  11.332  0.3657  0.4540  0.5804
 4085TIP3    H233747   4.587   5.778  11.338  0.1016  0.6918  0.3653
 4086TIP3   OH233748   6.675   3.626  12.568  0.0259  0.4467  0.4071
 4086TIP3    H133749   6.683   3.713  12.607 -1.3796  0.5921  0.4249
 4086TIP3    H233750   6.602   3.585  12.614  1.0390 -1.0010  0.8230
 4087TIP3   OH233751   1.490   3.948  16.520 -0.0177  0.2691  0.2351
 4087TIP3    H133752   1.549   3.902  16.461 -0.0088 -0.0932  0.5188
 4087TIP3    H233753   1.543   4.017  16.559  0.2274 -0.0660  0.5001
 4088TIP3   OH233754   6.050   4.828   2.410 -0.6183 -0.1704 -0.0757
 4088TIP3    H133755   5.983   4.829   2.479  0.9537 -0.3970  1.5566
 4088TIP3    H233756   6.034   4.908   2.360 -1.7888  0.0376  0.5976
 4089TIP3   OH233757   0.697   1.220  13.400 -0.2769  0.6195 -0.4579
 4089TIP3    H133758   0.788   1.242  13.419 -0.8561  1.2581  1.9001
 4089TIP3    H233759   0.650   1.303  13.408 -1.5393 -0.2113  2.0946
 4090TIP3   OH233760   2.670   1.682  16.606 -0.2953  0.2290 -0.0834
 4090TIP3    H133761   2.693   1.601  16.650  0.2528  0.6705  0.4627
 4090TIP3    H233762   2.627   1.735  16.674  0.1539  0.7356 -0.1779
 4091TIP3   OH233763   6.126   2.620  16.395  0.4188  0.1268  0.2460
 4091TIP3    H133764   6.209   2.582  16.366  0.7550  1.2040 -0.2824
 4091TIP3    H233765   6.112   2.694  16.335 -0.1953  0.8314  1.2367
 4092TIP3   OH233766   0.348   1.724  13.466 -0.3117 -0.4897 -0.1419
 4092TIP3    H133767   0.342   1.658  13.397  2.7337 -0.6042 -0.4281
 4092TIP3    H233768   0.378   1.803  13.421  0.7250 -0.2770  0.8896
 4093TIP3   OH233769   0.490   4.356  16.102  0.0900  0.0308 -0.3580
 4093TIP3    H133770   0.445   4.365  16.185 -1.1311 -1.0474 -0.8673
 4093TIP3    H233771   0.431   4.396  16.038  0.2895 -0.5094 -0.8995
 4094TIP3   OH233772   5.422   3.748   1.421  0.2347  0.3470  0.1438
 4094TIP3    H133773   5.470   3.669   1.395  1.3381  1.0384  0.0054
 4094TIP3    H233774   5.455   3.816   1.362 -0.4715  0.9798  0.4671
 4095TIP3   OH233775   0.968   5.393  16.970 -0.0597 -0.1279  0.1775
 4095TIP3    H133776   0.976   5.487  16.985 -1.1713  0.3422 -1.7800
 4095TIP3    H233777   1.042   5.371  16.913 -1.4205  0.2594 -1.8752
 4096TIP3   OH233778   0.447   6.067   3.935  0.5663  0.5071 -0.6620
 4096TIP3    H133779   0.415   5.977   3.933 -0.3990  0.7564  1.1544
 4096TIP3    H233780   0.519   6.065   3.999 -0.4504  1.2662  0.5598
 4097TIP3   OH233781   1.245   1.846  13.263 -0.0299 -0.0701 -0.5473
 4097TIP3    H133782   1.277   1.760  13.290 -1.2711  0.0077  1.3858
 4097TIP3    H233783   1.325   1.898  13.247  0.9238 -0.1815  3.0553
 4098TIP3   OH233784   4.935   6.081  15.726  0.4463 -0.1815  0.6336
 4098TIP3    H133785   4.855   6.038  15.696  0.0542  0.9131  0.0873
 4098TIP3    H233786   4.988   6.091  15.647  0.1906  1.0457  0.6036
 4099TIP3   OH233787   2.552   6.340   2.415  0.3687  0.2486 -0.0889
 4099TIP3    H133788   2.627   6.362   2.360 -0.1065  0.9477 -0.4726
 4099TIP3    H233789   2.481   6.322   2.353 -0.3576  1.7065  0.2687
 4100TIP3   OH233790   1.833   5.609   3.323 -0.4225  0.2793  0.3084
 4100TIP3    H133791   1.904   5.566   3.275  0.4316 -0.6470  2.2946
 4100TIP3    H233792   1.772   5.638   3.255  0.0999 -2.0456 -1.2649
 4101TIP3   OH233793   2.555   1.902   0.660  0.4638  0.1863 -0.0941
 4101TIP3    H133794   2.508   1.911   0.743 -1.2516  0.5503 -1.0470
 4101TIP3    H233795   2.594   1.988   0.645 -0.8191  0.7206 -0.5403
 4102TIP3   OH233796   1.509   3.849   0.045  0.3878 -0.2657  0.1172
 4102TIP3    H133797   1.466   3.813  -0.032  0.3469 -1.7461  0.7790
 4102TIP3    H233798   1.602   3.828   0.033  0.2490 -1.4364  0.9153
 4103TIP3   OH233799   2.251   1.271  15.262  0.0939 -0.5582 -0.1579
 4103TIP3    H133800   2.208   1.342  15.214  1.5207  0.6250  0.2519
 4103TIP3    H233801   2.299   1.223  15.194  1.2771  0.4944 -0.0929
 4104TIP3   OH233802   3.069   6.084   2.983  0.3738 -0.3417  0.2388
 4104TIP3    H133803   3.148   6.116   2.941  1.5657 -1.9586  1.1130
 4104TIP3    H233804   3.029   6.161   3.023  2.1932  0.3347  0.8357
 4105TIP3   OH233805   2.552   2.615  14.285  0.0742  0.0657  0.2677
 4105TIP3    H133806   2.618   2.685  14.283 -1.2523  1.3567 -0.3910
 4105TIP3    H233807   2.572   2.561  14.208 -0.9389  1.7639 -1.2695
 4106TIP3   OH233808   3.727   0.992  11.702  0.2237  0.3515  0.9882
 4106TIP3    H133809   3.809   1.034  11.675  0.3063 -1.5665 -2.2406
 4106TIP3    H233810   3.754   0.923  11.763  0.9881  0.0113  0.2830
 4107TIP3   OH233811   1.968   4.599  13.447 -0.3016 -0.0416 -0.3954
 4107TIP3    H133812   1.978   4.672  13.508  1.9615  0.9875 -1.8773
 4107TIP3    H233813   2.002   4.523  13.495  0.2115  0.4918  0.1012
 4108TIP3   OH233814   1.326   3.171   5.782 -0.1275 -0.9391 -0.2098
 4108TIP3    H133815   1.237   3.203   5.772 -0.2282 -1.2822 -0.4280
 4108TIP3    H233816   1.381   3.243   5.751 -0.3991 -1.6507 -2.5612
 4109TIP3   OH233817   3.986   4.825  12.257 -0.0385 -0.0561  0.0279
 4109TIP3    H133818   4.076   4.849  12.236 -0.3567 -0.6190 -2.1503
 4109TIP3    H233819   3.989   4.731  12.274 -0.1821 -0.0186  0.2831
 4110TIP3   OH233820   4.203   4.388   4.442 -0.1029 -0.1008 -0.8303
 4110TIP3    H133821   4.140   4.458   4.424 -0.6781 -0.6825 -1.1196
 4110TIP3    H233822   4.178   4.317   4.383 -1.6118 -1.8288  1.6905
 4111TIP3   OH233823   6.380   5.068  10.686  0.4188 -0.1699  0.1614
 4111TIP3    H133824   6.364   5.155  10.650  1.8566 -0.2298 -0.6582
 4111TIP3    H233825   6.347   5.008  10.620  0.8503 -0.2570  0.0229
 4112TIP3   OH233826   4.370   5.115   4.809 -0.4580  0.4137 -0.1646
 4112TIP3    H133827   4.302   5.049   4.822  1.0501 -0.9474  1.2264
 4112TIP3    H233828   4.376   5.161   4.893 -0.2314  1.1011 -0.5465
 4113TIP3   OH233829   5.359   3.376   6.097  0.0660 -0.6266 -0.4113
 4113TIP3    H133830   5.301   3.317   6.145  0.9664 -1.5706 -0.4702
 4113TIP3    H233831   5.437   3.384   6.152 -0.2389  0.9591 -0.1386
 4114TIP3   OH233832   6.216   1.092  11.425 -0.4618 -0.1171  0.0994
 4114TIP3    H133833   6.233   1.184  11.446 -3.2611  0.6430 -0.5128
 4114TIP3    H233834   6.276   1.043  11.482  0.6556  2.0451  0.9092
 4115TIP3   OH233835   5.752   5.719  10.189 -0.3068 -0.3105  0.2334
 4115TIP3    H133836   5.826   5.776  10.210  0.9566 -1.0874 -1.7682
 4115TIP3    H233837   5.792   5.635  10.166 -1.8574 -0.9151 -0.4036
 4116TIP3   OH233838   4.898   3.463  15.856  0.5586  0.0586  0.1973
 4116TIP3    H133839   4.919   3.555  15.845  0.2080  0.1760  0.4695
 4116TIP3    H233840   4.980   3.417  15.839  0.5699  0.3705 -0.6341
 4117TIP3   OH233841   4.539   5.606   2.711 -0.6376  0.0347  0.2534
 4117TIP3    H133842   4.628   5.633   2.693 -0.1265  0.5777  3.0487
 4117TIP3    H233843   4.542   5.510   2.713 -0.3875  0.0155 -0.6828
 4118TIP3   OH233844   6.098   6.402   3.752  0.5334 -0.1400  0.4333
 4118TIP3    H133845   6.112   6.497   3.756  0.7652 -0.1597  0.1464
 4118TIP3    H233846   6.168   6.370   3.695  0.2126 -0.4348  0.2025
 4119TIP3   OH233847   0.247   3.141   5.444  0.7133  1.0117  0.3480
 4119TIP3    H133848   0.166   3.091   5.456  1.7113 -2.1729 -3.8714
 4119TIP3    H233849   0.220   3.233   5.448 -2.3982  0.1598  2.3221
 4120TIP3   OH233850   3.564   3.767  14.714  0.0759  0.1093 -0.9254
 4120TIP3    H133851   3.580   3.849  14.668  1.1283  0.0485 -0.6874
 4120TIP3    H233852   3.470   3.751  14.702 -0.6632  2.4792  0.9356
 4121TIP3   OH233853   2.003   0.595  16.874  0.0764  0.0416  0.0767
 4121TIP3    H133854   2.034   0.603  16.964  2.6706  2.1135 -0.8495
 4121TIP3    H233855   1.934   0.661  16.866 -1.7302 -1.6521  1.0451
 4122TIP3   OH233856   0.443   6.029   3.562 -0.2138  0.3678 -0.2197
 4122TIP3    H133857   0.491   6.096   3.611  2.3235 -0.9423 -0.7364
 4122TIP3    H233858   0.443   5.953   3.619  0.0154 -0.2350 -1.0094
 4123TIP3   OH233859   0.554   6.140   4.375 -0.4887  0.0843  0.1624
 4123TIP3    H133860   0.580   6.232   4.380 -1.2338  0.3163 -0.1895
 4123TIP3    H233861   0.586   6.111   4.289  0.6758 -0.2893  0.6956
 4124TIP3   OH233862   1.796   5.260   4.453 -0.5709 -0.1620  0.0383
 4124TIP3    H133863   1.784   5.323   4.525  0.5263  0.7394 -0.5205
 4124TIP3    H233864   1.848   5.190   4.492  1.4575  1.0997 -0.1987
 4125TIP3   OH233865   3.810   4.503  15.355 -0.0080 -1.0331  0.6879
 4125TIP3    H133866   3.811   4.566  15.427  0.7607  0.0665 -0.2611
 4125TIP3    H233867   3.879   4.441  15.377  0.4439 -0.5155  0.7343
 4126TIP3   OH233868   2.468   5.861   3.861  0.1138  0.4706  0.3709
 4126TIP3    H133869   2.420   5.781   3.838 -0.5809  0.1325  2.7188
 4126TIP3    H233870   2.515   5.885   3.781 -2.0652 -0.5576 -1.3302
 4127TIP3   OH233871   2.452   4.258   4.262  0.2805 -0.2862  0.1624
 4127TIP3    H133872   2.468   4.208   4.182  0.7537 -0.0032  0.0789
 4127TIP3    H233873   2.357   4.272   4.263  0.1628 -1.0277  0.0950
 4128TIP3   OH233874   4.694   6.597   2.846 -0.6221  0.4618  0.2422
 4128TIP3    H133875   4.733   6.526   2.896 -0.2007 -0.0234 -0.7677
 4128TIP3    H233876   4.710   6.675   2.900  1.8998  0.3171 -0.2019
 4129TIP3   OH233877   0.157   5.856   2.053  0.0234  0.9461 -0.3025
 4129TIP3    H133878   0.201   5.927   2.006 -1.3518  2.1949  0.1809
 4129TIP3    H233879   0.066   5.886   2.060 -2.1905 -3.3526 -5.1025
 4130TIP3   OH233880   3.537   2.033  13.423  0.0719 -0.0921  0.1250
 4130TIP3    H133881   3.525   2.027  13.517 -0.5835 -0.0047  0.0571
 4130TIP3    H233882   3.631   2.043  13.410 -0.0106  2.2979  0.8886
 4131TIP3   OH233883   5.639   3.574   5.178  0.2920  0.0209  0.2640
 4131TIP3    H133884   5.572   3.618   5.230 -1.3817 -1.6223 -0.3923
 4131TIP3    H233885   5.656   3.493   5.225  0.0933 -0.6373 -0.7813
 4132TIP3   OH233886   0.317   2.136   2.185  0.0067 -0.4101  1.1385
 4132TIP3    H133887   0.352   2.071   2.124 -2.3324 -1.9490  1.3427
 4132TIP3    H233888   0.330   2.220   2.139  1.8632 -1.1028  0.2950
 4133TIP3   OH233889   3.882   5.816  13.467 -0.6880  0.2372  0.1065
 4133TIP3    H133890   3.910   5.868  13.392 -0.2889  0.7327  0.5922
 4133TIP3    H233891   3.963   5.784  13.506 -0.9276 -0.7290 -0.1633
 4134TIP3   OH233892   6.629   5.765  14.620  0.0206  0.2662 -0.2536
 4134TIP3    H133893   6.667   5.853  14.612 -1.2921  1.0010  1.0059
 4134TIP3    H233894   6.548   5.770  14.569  0.3494 -0.4920 -0.8605
 4135TIP3   OH233895   1.396   2.505  13.277  0.1344  0.3876 -0.4022
 4135TIP3    H133896   1.462   2.509  13.347  1.6977  0.8392 -1.8150
 4135TIP3    H233897   1.423   2.573  13.216 -0.1700 -1.1003 -2.2804
 4136TIP3   OH233898   4.703   0.253   0.906  0.4894 -0.1482 -0.2905
 4136TIP3    H133899   4.671   0.229   0.993 -0.1317  1.5286 -0.0261
 4136TIP3    H233900   4.667   0.186   0.848  0.7004 -1.1394  0.6853
 4137TIP3   OH233901   1.229   3.489  13.833 -0.4731 -0.4731  0.9835
 4137TIP3    H133902   1.242   3.517  13.742 -0.4020 -0.9119  0.8559
 4137TIP3    H233903   1.202   3.398  13.826 -0.4446 -0.5156  1.4084
 4138TIP3   OH233904   6.458   2.044   4.006 -0.1396 -0.2690  0.3383
 4138TIP3    H133905   6.369   2.013   3.988 -0.8526  1.0464  1.3590
 4138TIP3    H233906   6.445   2.117   4.067  1.6861 -0.4127  0.9470
 4139TIP3   OH233907   0.112   1.770  11.318  0.1390 -0.1012  0.2118
 4139TIP3    H133908   0.127   1.748  11.226  0.5362  2.5894 -0.4732
 4139TIP3    H233909   0.069   1.693  11.355  0.6120 -1.5387 -2.0260
 4140TIP3   OH233910   2.330   0.999   0.183  0.0975  0.3187  0.3955
 4140TIP3    H133911   2.407   0.954   0.219 -0.1528  0.8465  1.6457
 4140TIP3    H233912   2.262   0.984   0.248 -0.2853  1.6164  0.3069
 4141TIP3   OH233913   6.122   5.762   0.061 -0.5112 -0.4517 -0.2594
 4141TIP3    H133914   6.126   5.829   0.129  1.3024 -0.7286 -0.0380
 4141TIP3    H233915   6.214   5.738   0.046 -1.0220 -1.8586 -1.3443
 4142TIP3   OH233916   3.439   6.229  15.336 -0.4514 -0.3171  0.1144
 4142TIP3    H133917   3.397   6.228  15.250 -3.3515 -0.3325  1.4061
 4142TIP3    H233918   3.481   6.143  15.343  0.0250 -0.2278 -1.3546
 4143TIP3   OH233919   6.198   6.007   4.783 -0.3766  0.3125 -0.9114
 4143TIP3    H133920   6.223   5.980   4.871 -1.1154  0.0238 -0.7808
 4143TIP3    H233921   6.275   6.051   4.748 -0.3517  1.1955  0.1944
 4144TIP3   OH233922   5.755   4.438  15.379 -0.0925  0.3704  0.0661
 4144TIP3    H133923   5.776   4.372  15.312  2.2690  0.0659  1.0159
 4144TIP3    H233924   5.783   4.521  15.340  0.3278  0.3244  0.2639
 4145TIP3   OH233925   2.801   3.168  15.953  0.0924 -0.3261  0.5363
 4145TIP3    H133926   2.754   3.091  15.986 -0.7968 -0.3707 -0.7518
 4145TIP3    H233927   2.759   3.242  15.995 -0.0709 -0.4599  0.6104
 4146TIP3   OH233928   0.473   0.452   0.272 -0.1460 -0.0476  0.2082
 4146TIP3    H133929   0.403   0.466   0.208  0.6368  0.7294 -0.5145
 4146TIP3    H233930   0.450   0.507   0.347  0.4008  1.3686 -0.6211
 4147TIP3   OH233931   1.564   5.302  16.060 -0.4682 -0.2519 -0.1003
 4147TIP3    H133932   1.571   5.380  16.006  0.3200 -0.4085 -0.2426
 4147TIP3    H233933   1.471   5.282  16.062 -0.5523 -0.0294 -1.1037
 4148TIP3   OH233934   6.417   1.634   2.094 -0.7322  0.2057  0.0393
 4148TIP3    H133935   6.440   1.696   2.025 -1.4408 -0.1834 -0.5686
 4148TIP3    H233936   6.363   1.684   2.155 -0.1617  0.5359  0.2726
 4149TIP3   OH233937   5.936   4.901  11.448 -0.2430 -0.8553 -0.2457
 4149TIP3    H133938   5.991   4.848  11.390 -0.3417 -1.1554 -0.0653
 4149TIP3    H233939   5.922   4.846  11.525  1.3854  0.2164  0.8699
 4150TIP3   OH233940   4.328   4.057  14.398  0.4566  0.1067 -0.1257
 4150TIP3    H133941   4.309   3.988  14.461 -0.4547  0.4497 -0.0128
 4150TIP3    H233942   4.329   4.013  14.313  0.0206 -0.0624 -0.0402
 4151TIP3   OH233943   3.417   4.556  11.769 -0.3090  0.0157  0.3428
 4151TIP3    H133944   3.373   4.542  11.853 -0.2930 -0.3557  0.2882
 4151TIP3    H233945   3.351   4.596  11.713 -1.7164 -3.5897 -0.8403
 4152TIP3   OH233946   4.598   4.380   0.660 -0.2927  0.0838 -0.1889
 4152TIP3    H133947   4.508   4.402   0.639 -0.3116  0.2323  0.0556
 4152TIP3    H233948   4.592   4.305   0.719 -0.2613  0.1693 -0.0758
 4153TIP3   OH233949   2.159   0.774  13.138  0.5449  0.0194  0.0313
 4153TIP3    H133950   2.192   0.839  13.201  3.5355 -0.8825 -0.4710
 4153TIP3    H233951   2.158   0.692  13.187 -0.6754 -0.0721 -0.1061
 4154TIP3   OH233952   3.349   2.081   0.663 -0.4391  0.1773 -0.1743
 4154TIP3    H133953   3.437   2.114   0.644  0.0073  0.4115  2.0083
 4154TIP3    H233954   3.292   2.157   0.654  0.2170  1.0815  2.2634
 4155TIP3   OH233955   1.076   2.851   1.822  0.6117 -0.4598 -0.4194
 4155TIP3    H133956   1.029   2.874   1.902  1.4335 -0.9082  0.2085
 4155TIP3    H233957   1.166   2.879   1.837  0.9691 -1.3116 -0.8361
 4156TIP3   OH233958   3.288   4.900   4.993  0.1107 -0.2241  0.3099
 4156TIP3    H133959   3.347   4.832   5.026 -0.9281 -0.3288  2.0543
 4156TIP3    H233960   3.311   4.978   5.043  1.0802  0.6896 -1.4590
 4157TIP3   OH233961   2.820   2.114   2.091  0.2648 -0.2622  0.6205
 4157TIP3    H133962   2.782   2.193   2.052  1.8216  0.9424  1.4503
 4157TIP3    H233963   2.845   2.140   2.180  0.1160 -1.9181  1.1866
 4158TIP3   OH233964   5.832   3.361   1.918  0.1820  0.0357 -0.3739
 4158TIP3    H133965   5.825   3.446   1.874 -0.0311 -0.6620 -1.7748
 4158TIP3    H233966   5.748   3.319   1.902  1.6448 -2.1338 -3.5508
 4159TIP3   OH233967   2.660   1.407  15.335  0.5899 -0.5114 -0.2921
 4159TIP3    H133968   2.603   1.332  15.351  1.7799 -1.0845  1.5575
 4159TIP3    H233969   2.672   1.448  15.421  1.5184  0.6591 -0.9379
 4160TIP3   OH233970   3.527   0.339  12.674  0.0602  0.1092 -0.7675
 4160TIP3    H133971   3.465   0.371  12.609 -0.1105 -0.7733 -1.0636
 4160TIP3    H233972   3.546   0.414  12.730 -0.4288  0.6653 -1.3393
 4161TIP3   OH233973   3.754   2.600  14.816 -0.5571  0.5595  0.2331
 4161TIP3    H133974   3.727   2.508  14.805  1.1138  0.2727 -2.2424
 4161TIP3    H233975   3.813   2.598  14.891 -0.5055 -0.3947  0.1909
 4162TIP3   OH233976   4.049   6.610  15.830 -0.1656 -0.0166  0.3354
 4162TIP3    H133977   4.098   6.648  15.758 -0.7800 -0.3159 -0.2451
 4162TIP3    H233978   4.024   6.685  15.885 -2.9150  0.7591 -1.7261
 4163TIP3   OH233979   3.751   5.258  14.023 -0.0891  0.1860  0.7235
 4163TIP3    H133980   3.688   5.261  14.096 -0.5319  0.7576  0.3310
 4163TIP3    H233981   3.725   5.181  13.972 -2.3169  1.9492 -1.0102
 4164TIP3   OH233982   2.540   1.539   4.260  0.3169  0.1747 -0.2820
 4164TIP3    H133983   2.591   1.517   4.338 -0.2471  0.7923  0.2760
 4164TIP3    H233984   2.606   1.558   4.193  0.8283  0.6236  0.3317
 4165TIP3   OH233985   2.616   2.221   3.089  0.7235  0.1848  0.3470
 4165TIP3    H133986   2.585   2.225   3.180 -0.8473  2.8008 -0.2108
 4165TIP3    H233987   2.609   2.129   3.066 -0.5816 -0.2775  2.3248
 4166TIP3   OH233988   0.563   1.955  16.634 -0.1445  0.6745  0.6385
 4166TIP3    H133989   0.593   2.044  16.618  0.6100  0.6239  1.6701
 4166TIP3    H233990   0.537   1.923  16.548  2.0590  1.0138 -0.2209
 4167TIP3   OH233991   4.109   5.659  16.461 -0.2186  0.2090  0.3163
 4167TIP3    H133992   4.194   5.633  16.497 -0.8666 -2.0444  0.3206
 4167TIP3    H233993   4.049   5.654  16.535 -0.6787  0.1618 -0.0545
 4168TIP3   OH233994   2.211   0.556  15.015 -0.4218 -0.3951  0.2830
 4168TIP3    H133995   2.221   0.520  14.927  1.1108 -1.9420  1.0467
 4168TIP3    H233996   2.137   0.509  15.052  0.2606 -1.2746  0.5458
 4169TIP3   OH233997   4.225   0.544   2.549  0.1162 -0.7065 -0.2206
 4169TIP3    H133998   4.216   0.526   2.455 -1.8664 -1.9163  0.1404
 4169TIP3    H233999   4.198   0.635   2.558  0.1602 -0.6289 -0.8077
 4170TIP3   OH234000   0.188   5.565  13.170  0.1738 -0.1769  0.3152
 4170TIP3    H134001   0.226   5.484  13.137 -1.5976 -0.4200 -1.3353
 4170TIP3    H234002   0.253   5.633  13.150  0.1171 -0.6684 -1.7824
 4171TIP3   OH234003   0.512   3.843  13.653 -0.2329 -0.3816  0.2635
 4171TIP3    H134004   0.605   3.850  13.675 -0.7849 -0.8312  2.9700
 4171TIP3    H234005   0.507   3.875  13.563  2.2581  1.4533  0.6799
 4172TIP3   OH234006   4.442   4.478  13.128 -0.1998 -0.0256  0.1206
 4172TIP3    H134007   4.496   4.508  13.201 -0.7752  0.3105  0.4178
 4172TIP3    H234008   4.360   4.450  13.169 -1.4025  2.2356 -0.5774
 4173TIP3   OH234009   2.825   6.337   2.601 -0.4584 -0.1276  0.5879
 4173TIP3    H134010   2.917   6.358   2.589 -0.3884 -1.8331 -3.6609
 4173TIP3    H234011   2.781   6.422   2.607  1.1565  0.7579  0.3912
 4174TIP3   OH234012   0.525   2.947  16.355  0.0918 -0.1282 -0.2100
 4174TIP3    H134013   0.541   2.921  16.265 -1.1828 -2.6913  0.2093
 4174TIP3    H234014   0.587   2.896  16.406 -1.8277 -1.8057  0.5873
 4175TIP3   OH234015   5.896   2.643   4.326  0.4309 -0.3331  0.0642
 4175TIP3    H134016   5.853   2.708   4.271  0.3911 -1.1721 -0.9359
 4175TIP3    H234017   5.939   2.694   4.395 -0.4841  0.6538 -0.0767
 4176TIP3   OH234018   0.780   0.134  14.736 -0.1652 -0.0266  0.1555
 4176TIP3    H134019   0.845   0.077  14.778  2.5554  1.8130 -1.2233
 4176TIP3    H234020   0.742   0.184  14.808  1.9796  0.7247  0.8648
 4177TIP3   OH234021   2.022   6.096   0.528  0.3484 -0.1908 -0.2768
 4177TIP3    H134022   2.118   6.099   0.525  0.5372 -0.5681  2.5349
 4177TIP3    H234023   1.997   6.179   0.568 -0.3108 -0.8955  0.8386
 4178TIP3   OH234024   3.523   5.209  16.030 -0.0208  0.6832 -0.0015
 4178TIP3    H134025   3.589   5.186  15.964 -0.7930  0.3247 -0.6666
 4178TIP3    H234026   3.543   5.300  16.053  0.0498  0.9324 -0.9968
 4179TIP3   OH234027   0.028   1.337   4.941  0.2250 -0.5250  0.0868
 4179TIP3    H134028   0.047   1.421   4.899 -1.7866 -0.6453 -1.1756
 4179TIP3    H234029   0.034   1.356   5.035 -1.4532  1.3920 -0.1256
 4180TIP3   OH234030   6.138   3.666  14.074  0.0331  0.1151 -0.6796
 4180TIP3    H134031   6.161   3.754  14.045 -0.3677  0.2283 -0.6675
 4180TIP3    H234032   6.177   3.657  14.161  0.6895  0.0127 -0.9818
 4181TIP3   OH234033   0.279   3.368  16.406  0.4123  1.0007 -1.0336
 4181TIP3    H134034   0.258   3.327  16.490  1.4594  0.1724 -1.1468
 4181TIP3    H234035   0.204   3.348  16.350 -0.6807  2.2944 -0.0661
 4182TIP3   OH234036   2.628   4.897  14.868  0.2488  0.5047 -0.4234
 4182TIP3    H134037   2.578   4.955  14.810 -1.3291 -1.0229 -0.6972
 4182TIP3    H234038   2.615   4.810  14.830  0.7784 -0.2902  1.1584
 4183TIP3   OH234039   5.840   1.851   1.763 -0.4272 -0.0567 -0.6119
 4183TIP3    H134040   5.847   1.898   1.846 -1.2133  0.6152 -0.9100
 4183TIP3    H234041   5.927   1.814   1.749  0.6169  2.3077 -0.9426
 4184TIP3   OH234042   4.144   3.524   1.298 -0.6598  0.3365  0.5944
 4184TIP3    H134043   4.118   3.432   1.289 -0.7531  0.4676 -0.8272
 4184TIP3    H234044   4.063   3.573   1.283 -0.3367  0.6716 -0.0993
 4185TIP3   OH234045   0.504   0.115   4.129  0.4647  0.7858  0.2710
 4185TIP3    H134046   0.574   0.122   4.064  1.3064  1.9097  1.2534
 4185TIP3    H234047   0.432   0.167   4.093 -0.7796 -2.0067 -1.7341
 4186TIP3   OH234048   3.375   3.903   5.417  0.6649 -0.6158 -0.2858
 4186TIP3    H134049   3.438   3.873   5.481  1.2985 -1.3967 -1.2448
 4186TIP3    H234050   3.290   3.878   5.453  0.5374  2.9075  2.3953
 4187TIP3   OH234051   0.142   6.685  10.690  0.2167 -0.5112 -0.2547
 4187TIP3    H134052   0.061   6.725  10.720  0.7773  0.1275  0.4615
 4187TIP3    H234053   0.169   6.738  10.615 -0.2266 -0.9690 -0.7433
 4188TIP3   OH234054   3.856   2.571   5.816  0.3609 -0.1734  0.1663
 4188TIP3    H134055   3.901   2.528   5.889  0.5555  1.7945  1.2841
 4188TIP3    H234056   3.911   2.646   5.795 -1.5328  1.3667  0.4723
 4189TIP3   OH234057   1.495   0.477  10.946  0.1364 -0.1041  0.5197
 4189TIP3    H134058   1.560   0.439  11.005  0.4322 -0.4895 -0.0514
 4189TIP3    H234059   1.413   0.476  10.997  0.3773 -0.4790  0.9048
 4190TIP3   OH234060   3.436   0.595  12.317  0.1599 -0.4633  0.0481
 4190TIP3    H134061   3.423   0.652  12.241  0.9215 -0.5054 -0.1143
 4190TIP3    H234062   3.531   0.585  12.325  0.0468 -1.7564  0.0398
 4191TIP3   OH234063   5.258   4.735  11.944  0.6645  0.1345 -0.1102
 4191TIP3    H134064   5.210   4.816  11.958  1.5438  0.6800 -0.1504
 4191TIP3    H234065   5.346   4.763  11.919  0.7530 -0.8253 -0.9693
 4192TIP3   OH234066   4.438   5.701   4.383  0.3044  0.3897  0.3619
 4192TIP3    H134067   4.429   5.747   4.467  1.2900  0.2515  0.5576
 4192TIP3    H234068   4.470   5.614   4.406  0.4351  0.2994 -0.1505
 4193TIP3   OH234069   4.796   0.046  12.419 -0.6849 -0.1595  0.1140
 4193TIP3    H134070   4.728   0.114  12.422 -0.2840  0.2212  0.8201
 4193TIP3    H234071   4.878   0.095  12.416 -0.4546 -0.5835 -2.6903
 4194TIP3   OH234072   2.228   5.469   1.415  0.1598 -0.6836  0.2145
 4194TIP3    H134073   2.249   5.550   1.367 -0.2460 -0.2285  0.7925
 4194TIP3    H234074   2.184   5.414   1.349 -0.0035 -0.2371 -0.0579
 4195TIP3   OH234075   3.535   0.874   1.890  0.7709 -1.1324 -0.4224
 4195TIP3    H134076   3.608   0.935   1.877  0.3170 -0.6598 -0.8037
 4195TIP3    H234077   3.474   0.922   1.945 -0.0142 -0.8816 -1.4864
 4196TIP3   OH234078   5.556   4.681   2.906 -0.0498  0.1805  0.5272
 4196TIP3    H134079   5.645   4.704   2.879 -0.4019 -0.6243 -1.5727
 4196TIP3    H234080   5.507   4.763   2.900  0.2229  0.3193  0.1618
 4197TIP3   OH234081   0.372   6.715  15.818 -0.1226  0.0417  0.1695
 4197TIP3    H134082   0.445   6.770  15.845 -0.4096  0.3439  0.3312
 4197TIP3    H234083   0.318   6.772  15.762 -0.5496  0.0083  0.5354
 4198TIP3   OH234084   6.368   5.019  13.935 -0.3509  0.1011  0.4703
 4198TIP3    H134085   6.456   5.045  13.963  0.1354 -0.0641 -0.8202
 4198TIP3    H234086   6.374   5.014  13.840 -1.2818 -1.6800  0.4750
 4199TIP3   OH234087   1.296   0.372   0.968  0.0684  0.5615 -0.5568
 4199TIP3    H134088   1.297   0.293   1.022 -0.3370 -0.4046 -1.9041
 4199TIP3    H234089   1.328   0.441   1.026  0.3856 -0.5712  0.6727
 4200TIP3   OH234090   0.429   0.779   2.889 -0.7351 -0.2607  0.0362
 4200TIP3    H134091   0.361   0.781   2.957 -2.9980 -2.9267 -1.9105
 4200TIP3    H234092   0.404   0.849   2.828  0.4292  1.1298  1.0883
 4201TIP3   OH234093   4.174   6.197  12.473  0.1677  0.1558  0.2229
 4201TIP3    H134094   4.150   6.250  12.548  1.7705 -2.0091  2.4167
 4201TIP3    H234095   4.143   6.247  12.397 -2.1911  2.0912  2.2980
 4202TIP3   OH234096   3.380   4.870  16.526 -0.8238  0.5737  0.3479
 4202TIP3    H134097   3.357   4.835  16.612 -1.6227 -0.2479 -0.1738
 4202TIP3    H234098   3.476   4.866  16.523 -0.6351  2.6852  2.0163
 4203TIP3   OH234099   4.186   5.897  16.656 -0.3534  0.1003  0.0304
 4203TIP3    H134100   4.188   5.838  16.732  1.9116  0.0574  0.0177
 4203TIP3    H234101   4.183   5.985  16.694 -2.0470  0.0491  0.0791
 4204TIP3   OH234102   3.334   4.061   1.509 -0.4334 -0.6235  0.2069
 4204TIP3    H134103   3.254   4.082   1.459 -0.7328 -0.7419  0.6335
 4204TIP3    H234104   3.381   4.144   1.514 -0.1476 -0.7193 -0.7163
 4205TIP3   OH234105   5.511   0.420   2.018  0.1234 -0.1795 -0.3192
 4205TIP3    H134106   5.418   0.429   2.041 -0.0086 -1.6818 -0.1374
 4205TIP3    H234107   5.517   0.455   1.929 -0.7627 -0.6603 -0.5847
 4206TIP3   OH234108   4.054   1.962  17.095  0.2469 -0.7224  0.5648
 4206TIP3    H134109   4.081   2.046  17.133 -2.1723  0.0640  0.7049
 4206TIP3    H234110   4.024   1.910  17.169 -1.0237 -0.5847  0.1620
 4207TIP3   OH234111   0.174   3.217   3.533  0.3040 -0.1987 -0.6479
 4207TIP3    H134112   0.204   3.165   3.608  2.6342  0.4102 -1.0626
 4207TIP3    H234113   0.095   3.261   3.565  0.7848 -0.5611  1.2115
 4208TIP3   OH234114   5.191   3.211  16.121 -0.5327  0.2034 -0.8848
 4208TIP3    H134115   5.164   3.270  16.050 -0.3017  0.7334 -0.5368
 4208TIP3    H234116   5.111   3.162  16.142 -0.9434  0.9491 -0.6461
 4209TIP3   OH234117   0.409   0.965  16.113 -0.4625 -0.4903  0.0874
 4209TIP3    H134118   0.384   0.925  16.196 -0.2044  2.1408  1.5412
 4209TIP3    H234119   0.462   0.898  16.070 -0.2491 -1.8028  2.2258
 4210TIP3   OH234120   4.106   5.022  14.544  0.0791  0.2803 -0.1236
 4210TIP3    H134121   4.105   5.090  14.477  1.0944 -1.0129 -1.5243
 4210TIP3    H234122   4.159   5.058  14.615  1.6414  0.5453 -1.3578
 4211TIP3   OH234123   6.062   0.394   1.905  0.1912 -0.2964 -0.2205
 4211TIP3    H134124   6.055   0.371   1.812  1.7420 -1.7080 -0.0327
 4211TIP3    H234125   6.040   0.487   1.908 -0.2832 -0.3163 -1.9337
 4212TIP3   OH234126   4.909   0.968  15.386  0.2341 -0.0596  0.1567
 4212TIP3    H134127   4.917   1.061  15.367  0.5013  0.2362  1.6184
 4212TIP3    H234128   4.855   0.964  15.465  0.1217 -1.1490  0.0404
 4213TIP3   OH234129   2.584   2.782  16.928  0.2010 -0.4974  0.5760
 4213TIP3    H134130   2.653   2.836  16.966  0.4337 -0.6196  0.3233
 4213TIP3    H234131   2.533   2.843  16.874 -1.3720  0.1573  2.6509
 4214TIP3   OH234132   1.664   4.651   4.692  0.0087  0.1289 -0.4323
 4214TIP3    H134133   1.713   4.722   4.650  1.7226 -0.7547 -0.0340
 4214TIP3    H234134   1.638   4.686   4.777  1.1999  0.1852 -0.0680
 4215TIP3   OH234135   6.038   1.003  12.129 -0.2309  0.1727  0.7031
 4215TIP3    H134136   5.975   1.059  12.083  0.0813  0.8167  1.0378
 4215TIP3    H234137   6.097   1.065  12.173  0.5704 -0.4209  0.4822
 4216TIP3   OH234138   2.233   0.352  15.730  0.2578  0.6036  0.2876
 4216TIP3    H134139   2.202   0.411  15.661  1.0950  0.1097 -0.5407
 4216TIP3    H234140   2.275   0.280  15.682  2.6901  1.2505  1.3345
 4217TIP3   OH234141   4.450   0.217  14.116 -0.6884  0.4494 -0.0389
 4217TIP3    H134142   4.463   0.124  14.101  3.4083 -0.1300  4.4957
 4217TIP3    H234143   4.357   0.225  14.139 -1.3814 -2.2397 -1.4983
 4218TIP3   OH234144   5.871   0.327   3.353 -0.2540  0.4943 -0.2065
 4218TIP3    H134145   5.830   0.412   3.370 -0.6236  0.2324  0.2297
 4218TIP3    H234146   5.964   0.347   3.343 -0.0137  0.7124  1.9977
 4219TIP3   OH234147   1.939   3.262   0.347  0.4348 -0.2641 -0.1335
 4219TIP3    H134148   1.971   3.193   0.289  1.5172 -0.5040  0.7061
 4219TIP3    H234149   1.844   3.259   0.337  0.6157  1.0195 -3.3546
 4220TIP3   OH234150   5.634   3.276   0.302  0.4322  0.0474 -0.3447
 4220TIP3    H134151   5.543   3.248   0.309  0.8997 -1.6070 -0.4095
 4220TIP3    H234152   5.685   3.196   0.319  1.8731  0.9901 -0.0663
 4221TIP3   OH234153   0.493   4.534   3.351  0.0265  0.1892  0.7342
 4221TIP3    H134154   0.510   4.457   3.405 -0.2239  0.0352  0.5980
 4221TIP3    H234155   0.400   4.554   3.365 -1.0802 -1.9929 -2.3031
 4222TIP3   OH234156   1.423   3.180   4.734 -0.1063 -0.7162 -0.1684
 4222TIP3    H134157   1.478   3.254   4.761 -1.2658  0.1250 -0.0055
 4222TIP3    H234158   1.344   3.221   4.699 -0.6090 -1.8851 -0.4585
 4223TIP3   OH234159   0.559   4.715  13.827  0.0389 -0.0035  0.4528
 4223TIP3    H134160   0.593   4.795  13.788  0.6899  0.2837  1.5659
 4223TIP3    H234161   0.628   4.685  13.886 -0.4976 -0.9749  0.6135
 4224TIP3   OH234162   0.490   4.414   0.859  0.2939  0.3317  0.0254
 4224TIP3    H134163   0.542   4.334   0.872  0.5163  0.7537  1.9898
 4224TIP3    H234164   0.423   4.388   0.797 -0.1374 -1.6658  1.2280
 4225TIP3   OH234165   2.693   6.514   1.383 -0.2244  0.2259  0.2111
 4225TIP3    H134166   2.619   6.482   1.332  0.0296 -2.4606  1.3468
 4225TIP3    H234167   2.768   6.504   1.325 -0.4480  1.0648 -0.2454
 4226TIP3   OH234168   3.568   3.819   4.364  0.4196  0.6876 -0.0151
 4226TIP3    H134169   3.572   3.908   4.330  0.5669  0.2106 -1.3000
 4226TIP3    H234170   3.564   3.830   4.459  1.5956  2.0224 -0.0905
 4227TIP3   OH234171   3.619   2.723  13.157 -0.5131 -0.0897 -0.1498
 4227TIP3    H134172   3.686   2.717  13.090  0.4694  0.1282  0.7894
 4227TIP3    H234173   3.596   2.816  13.160  1.5584  0.4649  1.7598
 4228TIP3   OH234174   4.382   6.163  16.443 -0.1840 -0.3846 -0.4498
 4228TIP3    H134175   4.446   6.162  16.372 -0.2860  0.0052 -0.5498
 4228TIP3    H234176   4.298   6.150  16.401 -0.3920  1.2199 -0.5696
 4229TIP3   OH234177   3.031   3.090  14.091 -0.6508  0.4501 -0.2578
 4229TIP3    H134178   2.970   3.137  14.034 -1.4411  1.4576  1.3381
 4229TIP3    H234179   3.097   3.155  14.114 -0.0004 -0.1183 -0.4825
 4230TIP3   OH234180   4.230   3.824  16.813  0.8718 -0.2620  0.3551
 4230TIP3    H134181   4.244   3.905  16.861 -0.1261 -0.4829  1.0399
 4230TIP3    H234182   4.152   3.839  16.760  0.9385 -0.6308  0.1420
 4231TIP3   OH234183   0.837   6.464   0.480 -0.2944 -0.3107  0.4806
 4231TIP3    H134184   0.868   6.378   0.506  2.5169  0.7248  0.8954
 4231TIP3    H234185   0.799   6.501   0.560  1.7762  0.1384  1.3126
 4232TIP3   OH234186   3.614   5.551  13.851  0.2790  0.0510 -0.6882
 4232TIP3    H134187   3.708   5.543  13.869  0.1331  1.3802  0.9281
 4232TIP3    H234188   3.609   5.617  13.782  0.5423 -0.0046 -0.7639
 4233TIP3   OH234189   5.968   6.538  12.907 -0.8514 -0.5760  0.4485
 4233TIP3    H134190   5.881   6.572  12.929 -1.0551 -0.9169  0.1621
 4233TIP3    H234191   6.018   6.549  12.988 -1.3386 -0.9628  0.8047
 4234TIP3   OH234192   3.732   0.484   1.139  0.3790  0.3282 -0.6712
 4234TIP3    H134193   3.784   0.488   1.219 -0.5481 -1.1726  0.0574
 4234TIP3    H234194   3.760   0.402   1.097 -0.8050 -0.0881 -0.6675
 4235TIP3   OH234195   0.180   4.270  11.983  0.3312  0.5216 -0.3108
 4235TIP3    H134196   0.145   4.205  11.921 -1.0709  3.7878 -3.2733
 4235TIP3    H234197   0.274   4.274  11.962  0.2670  0.0749 -0.7104
 4236TIP3   OH234198   4.904   2.545  13.780  0.5141 -0.8099 -1.3864
 4236TIP3    H134199   4.979   2.500  13.741  1.3625 -1.1794  0.5574
 4236TIP3    H234200   4.852   2.475  13.820 -0.3308 -0.4458 -1.8215
 4237TIP3   OH234201   2.905   4.455   2.389  0.5327  0.0118 -0.3308
 4237TIP3    H134202   2.861   4.445   2.474 -0.0115 -0.3172 -0.6454
 4237TIP3    H234203   2.873   4.382   2.337  0.0069  0.8161 -1.1779
 4238TIP3   OH234204   2.069   6.375   0.398  0.1599  0.3939 -0.4795
 4238TIP3    H134205   1.981   6.360   0.363  0.3804  1.1361 -1.3777
 4238TIP3    H234206   2.113   6.290   0.388 -0.2071  0.2318 -0.7648
 4239TIP3   OH234207   0.472   2.742   4.164 -0.9323 -0.1694  0.3224
 4239TIP3    H134208   0.405   2.697   4.215  0.2330 -0.5178  1.6011
 4239TIP3    H234209   0.550   2.741   4.220 -0.0441  0.8282 -0.8354
 4240TIP3   OH234210   6.629   4.558   5.037 -0.1441 -0.2421  0.0714
 4240TIP3    H134211   6.554   4.563   5.095 -1.9596 -0.4240 -2.1286
 4240TIP3    H234212   6.640   4.647   5.004  0.5534 -0.2402  0.2826
 4241TIP3   OH234213   2.968   0.427   5.579  0.3011 -0.0231 -0.0178
 4241TIP3    H134214   3.005   0.421   5.492 -0.6055 -1.7204 -0.3451
 4241TIP3    H234215   2.950   0.336   5.604  0.8302  0.3825  2.0733
 4242TIP3   OH234216   5.830   4.985   2.078  0.5553 -0.1710 -0.1360
 4242TIP3    H134217   5.839   5.039   2.000  0.6411  0.5102  0.3328
 4242TIP3    H234218   5.752   4.931   2.062 -1.5110  2.3697  0.6769
 4243TIP3   OH234219   2.082   3.696  13.892  0.5890  0.7047 -0.3283
 4243TIP3    H134220   2.098   3.667  13.802 -1.9471 -1.2808 -0.2734
 4243TIP3    H234221   2.164   3.678  13.938  0.4911 -3.0175 -1.2480
 4244TIP3   OH234222   1.976   2.210   2.210  0.0834  0.2840  0.7083
 4244TIP3    H134223   2.026   2.129   2.198 -1.3880 -0.4170 -1.2087
 4244TIP3    H234224   1.960   2.242   2.122 -1.1314  1.5552  1.3557
 4245TIP3   OH234225   3.048   4.107   2.532 -0.8467  0.0251  0.1548
 4245TIP3    H134226   3.110   4.041   2.564  0.6050  1.2137 -0.0659
 4245TIP3    H234227   3.035   4.165   2.607 -1.1661  0.1734 -0.0155
 4246TIP3   OH234228   0.762   4.237   3.033  0.6092  0.1016  0.1698
 4246TIP3    H134229   0.792   4.292   2.960 -0.1494 -1.0202 -1.0375
 4246TIP3    H234230   0.687   4.283   3.069  0.5398  0.3207 -0.2448
 4247TIP3   OH234231   6.707   2.634  11.757 -0.1491  0.1585 -0.0107
 4247TIP3    H134232   6.619   2.649  11.792 -0.5277 -1.5371 -0.1201
 4247TIP3    H234233   6.717   2.538  11.760  1.9971  0.3559  0.7279
 4248TIP3   OH234234   5.132   6.261   4.655  0.0229  0.6306 -0.5236
 4248TIP3    H134235   5.110   6.254   4.748 -0.2071 -2.5469 -0.7296
 4248TIP3    H234236   5.107   6.177   4.617  3.9888  0.1276 -2.6337
 4249TIP3   OH234237   2.281   2.627   2.821 -0.3197 -0.1664 -1.0221
 4249TIP3    H134238   2.360   2.574   2.810  1.0759  1.4962  0.3664
 4249TIP3    H234239   2.220   2.571   2.868  0.6794 -0.9181 -0.6059
 4250TIP3   OH234240   1.782   4.989   2.513  0.1586  0.5871  0.2135
 4250TIP3    H134241   1.747   5.015   2.428  2.4867  0.6510 -0.7788
 4250TIP3    H234242   1.785   5.070   2.564  1.4268  1.1243 -0.6675
 4251TIP3   OH234243   4.317   2.707   0.553 -0.3561  0.0388 -0.6764
 4251TIP3    H134244   4.247   2.743   0.499 -1.1728 -0.3208  0.1214
 4251TIP3    H234245   4.313   2.612   0.538 -0.2074 -0.0045 -0.4518
 4252TIP3   OH234246   1.220   2.613   2.320  0.0753  0.0699  0.1637
 4252TIP3    H134247   1.211   2.687   2.261 -0.2398 -2.1158 -2.7311
 4252TIP3    H234248   1.133   2.603   2.360 -0.9477 -0.7855 -2.1282
 4253TIP3   OH234249   3.000   2.401   1.464 -0.4464  0.1855  0.3683
 4253TIP3    H134250   2.976   2.461   1.535  1.0257  1.6778 -0.3291
 4253TIP3    H234251   3.091   2.376   1.483 -0.4621 -0.4335 -0.3163
 4254TIP3   OH234252   0.013   6.665   2.220 -0.2029 -0.5211 -0.4088
 4254TIP3    H134253   0.021   6.760   2.231 -0.6833 -0.2863 -1.8761
 4254TIP3    H234254  -0.077   6.646   2.246 -0.5314 -0.3561 -1.3921
 4255TIP3   OH234255   2.018   6.115  14.344 -0.1668  0.0963  0.2299
 4255TIP3    H134256   2.060   6.029  14.342  0.3735  0.2598  2.5880
 4255TIP3    H234257   2.084   6.173  14.383 -0.8557  1.4169 -0.4961
 4256TIP3   OH234258   6.159   3.558   1.691  0.0749 -0.3038 -0.0641
 4256TIP3    H134259   6.219   3.589   1.623  0.0441 -0.3420 -0.1084
 4256TIP3    H234260   6.076   3.601   1.671  0.3761  0.6399  0.6566
 4257TIP3   OH234261   5.123   0.776  15.978 -0.3895  1.0976  0.2229
 4257TIP3    H134262   5.075   0.855  15.950 -2.1900  0.0791  0.2648
 4257TIP3    H234263   5.167   0.802  16.060 -1.1743  1.9922  0.3756
 4258TIP3   OH234264   0.889   0.654  16.054 -0.1563  0.1751  0.7906
 4258TIP3    H134265   0.934   0.701  16.124  1.2205 -0.5970  0.4755
 4258TIP3    H234266   0.884   0.564  16.085  0.9622 -0.2906 -0.2900
 4259TIP3   OH234267   0.952   3.170   3.609 -0.5645  0.0694 -0.0854
 4259TIP3    H134268   1.026   3.203   3.558  1.0575 -2.5608  0.4254
 4259TIP3    H234269   0.984   3.169   3.700 -2.1394  1.1999  0.5343
 4260TIP3   OH234270   1.152   2.508  15.218 -0.0443  0.6034 -0.3414
 4260TIP3    H134271   1.134   2.425  15.263  0.4242  0.7078  0.0515
 4260TIP3    H234272   1.247   2.507  15.204  0.5323  2.4699  2.5315
 4261TIP3   OH234273   4.392   3.099   4.994  0.2239  0.0792  0.1750
 4261TIP3    H134274   4.306   3.070   5.025 -0.1486  0.8065 -0.1695
 4261TIP3    H234275   4.390   3.194   5.004  1.5813 -0.0119  1.6802
 4262TIP3   OH234276   0.352   0.675  14.307 -0.3885  0.2116  0.0298
 4262TIP3    H134277   0.297   0.615  14.359 -0.8946  0.3081 -0.3838
 4262TIP3    H234278   0.407   0.618  14.254  1.8940  0.0397  2.3819
 4263TIP3   OH234279   0.975   2.433  14.187 -0.2059  0.3679  0.2350
 4263TIP3    H134280   0.949   2.521  14.160 -1.0444  0.3360  0.9015
 4263TIP3    H234281   0.931   2.420  14.271  2.1471  0.3996  1.5625
 4264TIP3   OH234282   4.431   5.512  11.741  0.3095  0.0682  0.5512
 4264TIP3    H134283   4.391   5.462  11.670  0.5537 -0.2861  0.6615
 4264TIP3    H234284   4.454   5.596  11.701 -0.3864  0.2135  0.4445
 4265TIP3   OH234285   3.849   5.320  15.183 -0.0000  0.2783  0.5789
 4265TIP3    H134286   3.791   5.279  15.119  0.6922 -0.7324  0.5645
 4265TIP3    H234287   3.842   5.414  15.167 -0.8631  0.1048 -0.0724
 4266TIP3   OH234288   4.969   0.973   1.844 -0.0839 -0.3673  0.3171
 4266TIP3    H134289   5.047   0.960   1.791 -0.0419 -0.0220  0.2895
 4266TIP3    H234290   4.918   1.038   1.796 -0.2194 -0.3278  0.5135
 4267TIP3   OH234291   4.138   2.166   0.673 -0.7777  0.2891  0.6358
 4267TIP3    H134292   4.227   2.202   0.672 -0.7086  0.1175 -0.1838
 4267TIP3    H234293   4.149   2.074   0.648 -1.0450 -0.1053  1.8887
 4268TIP3   OH234294   6.042   5.636  13.770 -0.0044 -0.0991 -0.0026
 4268TIP3    H134295   5.987   5.558  13.782  2.1995 -1.9195 -0.9027
 4268TIP3    H234296   6.126   5.601  13.739  1.1154  2.6639 -0.3514
 4269TIP3   OH234297   3.558   1.930  11.771  0.5221  0.0104 -0.0760
 4269TIP3    H134298   3.542   1.836  11.776  0.8324 -0.0651 -0.4195
 4269TIP3    H234299   3.527   1.964  11.855  1.8204 -0.6178  0.6916
 4270TIP3   OH234300   1.611   5.620  11.768  0.2779 -0.5996  0.0121
 4270TIP3    H134301   1.636   5.617  11.861 -1.4594  0.2927  0.5491
 4270TIP3    H234302   1.695   5.620  11.721  1.2355  0.2949  1.6183
 4271TIP3   OH234303   0.069   6.127   3.257  0.1827 -0.1108 -0.5251
 4271TIP3    H134304   0.122   6.104   3.333 -1.1025  1.2067  0.8511
 4271TIP3    H234305   0.122   6.102   3.182  0.8207 -3.0297  0.7604
 4272TIP3   OH234306   6.402   6.735  11.790  0.3930 -0.0231  0.5378
 4272TIP3    H134307   6.338   6.727  11.719 -2.4174 -0.9013  2.9930
 4272TIP3    H234308   6.424   6.828  11.792  0.2270  0.0866 -1.1987
 4273TIP3   OH234309   0.267   1.903  16.533 -0.4577 -0.3606 -0.3548
 4273TIP3    H134310   0.292   1.960  16.606 -0.9185 -1.7511  0.9359
 4273TIP3    H234311   0.205   1.841  16.571 -1.5002 -0.5059 -2.1822
 4274TIP3   OH234312   6.414   3.790  13.262  0.0893  0.4016 -0.2278
 4274TIP3    H134313   6.418   3.782  13.357 -0.0679 -1.5353 -0.3299
 4274TIP3    H234314   6.325   3.760  13.240  0.7845 -1.1665 -1.0815
 4275TIP3   OH234315   3.803   2.806  14.106  0.1034 -0.4404  0.1258
 4275TIP3    H134316   3.822   2.887  14.153  1.3409 -0.2915 -0.5748
 4275TIP3    H234317   3.708   2.804  14.098  0.0805  1.1984 -0.3080
 4276TIP3   OH234318   3.283   0.435   4.401 -0.0999 -0.1230 -0.3942
 4276TIP3    H134319   3.224   0.455   4.474  0.9785  0.0954  0.4335
 4276TIP3    H234320   3.233   0.374   4.346 -1.4182  0.7039 -0.1769
 4277TIP3   OH234321   1.505   4.212  12.333 -0.3628 -0.0690  0.1896
 4277TIP3    H134322   1.502   4.308  12.337  0.3442 -0.0210 -0.2272
 4277TIP3    H234323   1.571   4.188  12.398 -1.2088 -0.3439  0.9715
 4278TIP3   OH234324   5.361   5.086   3.914 -0.4925  0.3348 -0.2150
 4278TIP3    H134325   5.314   5.045   3.987 -0.1128 -1.4960 -0.9450
 4278TIP3    H234326   5.355   5.022   3.843  0.6507  1.3176 -1.2383
 4279TIP3   OH234327   4.332   0.673   4.156  0.3935 -0.7587  0.8852
 4279TIP3    H134328   4.414   0.659   4.202  2.1259  2.0385 -0.9810
 4279TIP3    H234329   4.345   0.633   4.070  0.2966  0.6010  0.2025
 4280TIP3   OH234330   1.930   1.062   5.605 -0.4730  0.0329 -0.2296
 4280TIP3    H134331   1.873   0.988   5.624 -1.4763  0.9376  0.4645
 4280TIP3    H234332   2.019   1.027   5.611 -0.9042 -0.9384  0.8521
 4281TIP3   OH234333   6.126   3.116   2.774  0.1954 -0.3029  0.9625
 4281TIP3    H134334   6.083   3.142   2.692  1.3051 -1.4385 -0.0238
 4281TIP3    H234335   6.080   3.037   2.800  0.9603 -0.9261  0.4711
 4282TIP3   OH234336   6.742   0.275   5.130  0.2991  0.3391 -0.4649
 4282TIP3    H134337   6.782   0.327   5.200  3.0981 -1.2644 -0.6978
 4282TIP3    H234338   6.779   0.310   5.049 -0.7381  0.3866 -0.9363
 4283TIP3   OH234339   0.579   3.821   5.732 -0.3224  0.7287  0.1105
 4283TIP3    H134340   0.536   3.850   5.812  1.2677  0.2065  1.2132
 4283TIP3    H234341   0.571   3.726   5.733  0.3264  0.6687  0.0393
 4284TIP3   OH234342   5.801   5.330  13.125 -0.0475  0.5386 -0.2683
 4284TIP3    H134343   5.788   5.242  13.160 -2.1056  0.0327 -2.0720
 4284TIP3    H234344   5.750   5.386  13.183 -1.4667  0.0405 -0.9803
 4285TIP3   OH234345   3.886   3.749  11.688  0.4011 -0.0923 -0.1691
 4285TIP3    H134346   3.898   3.829  11.740 -0.4549 -0.8272  1.2337
 4285TIP3    H234347   3.943   3.685  11.730 -2.3793 -1.5069  1.8332
 4286TIP3   OH234348   3.434   1.091   0.904  0.1876  0.1445  0.0387
 4286TIP3    H134349   3.453   1.014   0.957  1.3368  0.4910  0.1594
 4286TIP3    H234350   3.343   1.113   0.926 -0.0239 -0.9205  0.3062
 4287TIP3   OH234351   0.641   0.137  16.348  0.1336  0.0729 -0.2284
 4287TIP3    H134352   0.580   0.064  16.344  0.0398  0.1736 -0.6952
 4287TIP3    H234353   0.593   0.205  16.397  0.6288 -0.5517  1.1607
 4288TIP3   OH234354   3.038   5.452   3.435 -0.1684  0.7262  0.4213
 4288TIP3    H134355   2.998   5.535   3.459  0.7077  1.2192  0.2446
 4288TIP3    H234356   3.055   5.408   3.518  1.4470  1.7489  0.6893
 4289TIP3   OH234357   1.749   0.821   3.936 -0.0391  0.2080 -0.5089
 4289TIP3    H134358   1.721   0.906   3.970 -0.3107  0.1659 -0.6262
 4289TIP3    H234359   1.735   0.760   4.008  0.7442  0.3647 -0.2080
 4290TIP3   OH234360   5.493   2.403   1.164 -0.3654 -0.4484 -0.3840
 4290TIP3    H134361   5.474   2.326   1.217  2.4181 -2.4687 -2.0736
 4290TIP3    H234362   5.556   2.373   1.099 -1.6077  2.4839 -3.2419
 4291TIP3   OH234363   2.027   4.440  13.994 -0.3459 -0.7480  0.1722
 4291TIP3    H134364   2.063   4.374  14.052 -0.8309 -1.6295 -0.5122
 4291TIP3    H234365   1.981   4.391  13.926 -0.0847  0.2677 -0.7760
 4292TIP3   OH234366   3.391   1.050   1.646  0.3611 -0.1518 -0.2035
 4292TIP3    H134367   3.319   1.006   1.691  0.4854  0.5267  0.6966
 4292TIP3    H234368   3.470   1.012   1.683  0.5036 -1.4586 -1.7536
 4293TIP3   OH234369   5.479   5.846  11.675 -0.7822 -0.0846  0.0440
 4293TIP3    H134370   5.465   5.853  11.581  0.5304  0.1136 -0.1611
 4293TIP3    H234371   5.532   5.767  11.686  0.4576  0.7599  0.4199
 4294TIP3   OH234372   1.633   1.137  15.804  0.1498 -0.2045 -0.2728
 4294TIP3    H134373   1.667   1.226  15.814 -1.9557  0.8299 -1.7289
 4294TIP3    H234374   1.604   1.112  15.891 -3.7094  2.5489 -0.5270
 4295TIP3   OH234375   5.230   4.859  10.947 -0.1841  1.0270 -0.4020
 4295TIP3    H134376   5.202   4.895  11.031 -0.3059  1.2498 -0.5387
 4295TIP3    H234377   5.152   4.814  10.913 -0.1795  1.0717 -0.4707
 4296TIP3   OH234378   2.993   1.654   0.580 -0.0533 -0.2100  0.6140
 4296TIP3    H134379   2.979   1.749   0.584 -0.5670 -0.2806  0.5998
 4296TIP3    H234380   3.045   1.641   0.501  2.0495  0.2772  1.8546
 4297TIP3   OH234381   5.823   5.041   4.542  0.0669  0.2957  0.0390
 4297TIP3    H134382   5.868   5.086   4.613  0.8417  0.1524 -0.3413
 4297TIP3    H234383   5.854   5.086   4.463 -0.8278  0.4938 -0.2018
 4298TIP3   OH234384   5.007   4.849  15.049 -0.1166  0.0894  0.4660
 4298TIP3    H134385   4.935   4.803  15.092  1.5627 -2.1402  1.1296
 4298TIP3    H234386   5.054   4.892  15.121 -0.1026  0.5193  0.2011
 4299TIP3   OH234387   2.332   4.827  12.213 -0.0529  0.0218 -0.2346
 4299TIP3    H134388   2.302   4.759  12.274  0.6522 -0.6996 -0.6778
 4299TIP3    H234389   2.279   4.904  12.236  0.3630 -0.1437  1.4779
 4300TIP3   OH234390   3.478   3.695  13.985  0.8918 -0.3496  1.1118
 4300TIP3    H134391   3.459   3.782  13.953 -1.5790 -1.0105  0.5921
 4300TIP3    H234392   3.442   3.693  14.074  0.3142 -1.0144  0.8782
 4301TIP3   OH234393   6.110   2.426  16.680 -0.2870 -0.2210 -0.2211
 4301TIP3    H134394   6.043   2.443  16.613  0.2305  2.4378 -0.1748
 4301TIP3    H234395   6.060   2.403  16.758 -1.0223 -0.4559 -0.7417
 4302TIP3   OH234396   1.595   5.064   5.636  0.5630 -0.5729 -0.2372
 4302TIP3    H134397   1.676   5.053   5.687  0.7244 -0.2432 -0.4208
 4302TIP3    H234398   1.603   4.999   5.565 -0.2284 -1.9051  0.8477
 4303TIP3   OH234399   3.565   2.880  14.281  0.3857  0.2873  0.4554
 4303TIP3    H134400   3.527   2.954  14.233  0.3217 -0.4912 -0.7522
 4303TIP3    H234401   3.530   2.803  14.236 -0.0867 -0.4946  2.1118
 4304TIP3   OH234402   0.947   2.539  13.439 -0.0214  0.1280  0.6110
 4304TIP3    H134403   0.950   2.461  13.384 -0.0366  0.8940 -0.5188
 4304TIP3    H234404   0.856   2.545  13.468 -0.4461  0.6931 -0.7721
 4305TIP3   OH234405   1.606   2.103   3.266 -0.0613 -0.1928 -0.1005
 4305TIP3    H134406   1.693   2.137   3.249  0.4040 -1.6180 -0.7411
 4305TIP3    H234407   1.546   2.169   3.229  0.6477  1.5606  1.7234
 4306TIP3   OH234408   3.427   3.243  12.806  0.1257 -0.6081  0.3238
 4306TIP3    H134409   3.469   3.236  12.720  0.6645  0.1726  0.5118
 4306TIP3    H234410   3.375   3.163  12.813  0.1382 -0.7290 -0.6921
 4307TIP3   OH234411   2.576   2.320   2.582  0.6305 -0.2129 -0.2294
 4307TIP3    H134412   2.670   2.331   2.592  0.6180 -0.0116 -0.3240
 4307TIP3    H234413   2.558   2.231   2.612  0.9073 -0.3883 -0.5840
 4308TIP3   OH234414   5.528   6.189   3.512 -0.1266 -0.2969 -0.4940
 4308TIP3    H134415   5.572   6.174   3.428 -0.6327  0.4258 -0.8923
 4308TIP3    H234416   5.581   6.256   3.555 -0.5008  0.1478 -0.7220
 4309TIP3   OH234417   1.950   1.399   5.285  0.6375 -0.0375 -0.1992
 4309TIP3    H134418   2.045   1.395   5.279  0.8802  1.4313  1.7849
 4309TIP3    H234419   1.922   1.440   5.203  1.5102 -2.0644 -1.5787
 4310TIP3   OH234420   6.046   0.732   4.290 -0.5689  0.1179 -0.2527
 4310TIP3    H134421   6.109   0.800   4.266  1.2803 -0.6873  1.9154
 4310TIP3    H234422   6.059   0.663   4.226 -2.5202  1.6980 -2.5317
 4311TIP3   OH234423   6.696   3.945  10.336  0.6540  0.3231  0.0694
 4311TIP3    H134424   6.718   3.989  10.254 -1.7030  1.4356 -0.0397
 4311TIP3    H234425   6.651   4.012  10.388 -0.8238 -1.2455  0.9295
 4312TIP3   OH234426   5.536   0.328   0.344 -0.2132  0.1278  0.1490
 4312TIP3    H134427   5.584   0.407   0.316  0.5319 -1.1108 -2.3357
 4312TIP3    H234428   5.601   0.277   0.392 -0.1089  0.1170 -0.0027
 4313TIP3   OH234429   5.361   5.246   3.173 -0.7525  0.0427  0.0284
 4313TIP3    H134430   5.445   5.289   3.162 -1.3218  0.9747 -0.9519
 4313TIP3    H234431   5.380   5.153   3.167  0.2285  0.2314  0.0599
 4314TIP3   OH234432   1.714   4.316  12.139 -0.0173 -0.2733  0.1530
 4314TIP3    H134433   1.796   4.288  12.180  0.1892  0.0562 -0.0242
 4314TIP3    H234434   1.649   4.311  12.209  0.7348  2.2892  1.1408
 4315TIP3   OH234435   6.231   1.540  13.997  0.6350  0.1663 -0.2833
 4315TIP3    H134436   6.212   1.620  14.046  0.3943 -0.1768  0.1822
 4315TIP3    H234437   6.257   1.476  14.063  1.7394  0.1170 -0.7323
 4316TIP3   OH234438   6.366   6.195   5.351  0.0148 -0.0451 -0.5323
 4316TIP3    H134439   6.300   6.146   5.303  0.8530 -0.1349 -1.6458
 4316TIP3    H234440   6.429   6.129   5.379 -0.0664  0.1083  0.0166
 4317TIP3   OH234441   2.649   3.329  13.717 -0.0387 -0.0830  0.2438
 4317TIP3    H134442   2.628   3.409  13.669 -0.3101  0.3475  1.0566
 4317TIP3    H234443   2.715   3.286  13.663 -0.2580  0.4362 -0.4579
 4318TIP3   OH234444   3.965   4.657   6.051  0.5031 -0.2344 -0.3291
 4318TIP3    H134445   3.977   4.622   6.139  0.8241 -0.2899 -0.3919
 4318TIP3    H234446   4.042   4.627   6.003  0.7182  0.4540 -0.4192
 4319TIP3   OH234447   5.877   0.891  14.257  0.4223 -0.1525  0.0156
 4319TIP3    H134448   5.916   0.841  14.185  0.1272 -0.9408  0.3860
 4319TIP3    H234449   5.873   0.828  14.330 -1.1381  0.0182  0.1195
 4320TIP3   OH234450   0.810   3.037  11.382 -0.0080  0.1211 -0.0135
 4320TIP3    H134451   0.769   3.120  11.402  2.7442  1.4289  0.6809
 4320TIP3    H234452   0.755   2.971  11.425 -2.4621  1.4842 -0.9258
 4321TIP3   OH234453   0.158   0.852   2.296 -0.2732  0.0071  0.0071
 4321TIP3    H134454   0.136   0.924   2.355 -0.0103 -0.8713  1.2153
 4321TIP3    H234455   0.192   0.784   2.354  0.5753 -0.6548 -1.2452
 4322TIP3   OH234456   0.028   4.705  10.390 -0.1078 -0.5683  0.2236
 4322TIP3    H134457   0.060   4.666  10.471 -0.9542  1.8025  1.8254
 4322TIP3    H234458  -0.055   4.747  10.414 -0.3659  0.2591 -1.8580
 4323TIP3   OH234459   4.830   0.129  15.758 -0.4925 -0.2003 -0.7529
 4323TIP3    H134460   4.779   0.049  15.745 -0.9730 -0.2514  1.0863
 4323TIP3    H234461   4.869   0.118  15.845 -0.3332  1.4306 -0.5890
 4324TIP3   OH234462   3.441   0.973  15.307 -0.1048  0.2155  0.2624
 4324TIP3    H134463   3.507   1.023  15.260 -0.7378  0.8927  0.0850
 4324TIP3    H234464   3.405   0.913  15.242 -0.2997  0.4745  0.1337
 4325TIP3   OH234465   4.019   0.822   1.929  0.1605 -0.3168 -0.6211
 4325TIP3    H134466   3.947   0.850   1.873  1.0141  0.5124 -1.3505
 4325TIP3    H234467   4.098   0.835   1.876  0.9619  0.0426  0.5958
 4326TIP3   OH234468   3.441   2.724  13.729 -0.5441  0.0328 -0.0088
 4326TIP3    H134469   3.491   2.696  13.652  0.2201 -1.4441  0.9797
 4326TIP3    H234470   3.372   2.658  13.737  0.9073 -1.3665  2.0028
 4327TIP3   OH234471   2.984   5.567  13.774 -0.3668 -0.3014 -0.2024
 4327TIP3    H134472   3.063   5.604  13.733 -0.7364  0.5539 -0.1671
 4327TIP3    H234473   2.956   5.497  13.715  1.6452 -2.1216  0.8629
 4328TIP3   OH234474   0.155   6.304  17.107  0.0140  0.1653 -0.6521
 4328TIP3    H134475   0.061   6.303  17.125  0.3635  0.2687  1.5217
 4328TIP3    H234476   0.189   6.227  17.152  1.1852  1.1256  0.1884
 4329TIP3   OH234477   6.806   4.294  16.469 -0.4912  0.0645 -0.5380
 4329TIP3    H134478   6.812   4.311  16.563 -1.3856  0.4288 -0.5358
 4329TIP3    H234479   6.806   4.381  16.429  0.1114 -0.0961 -0.8975
 4330TIP3   OH234480   5.550   4.681  17.154 -0.3052  0.4776 -0.1110
 4330TIP3    H134481   5.633   4.682  17.201  0.4700 -1.2555 -1.3553
 4330TIP3    H234482   5.493   4.739  17.205  1.7930  2.1437  0.4824
 4331TIP3   OH234483   4.435   1.411   5.662 -0.4037  0.1410  0.7925
 4331TIP3    H134484   4.520   1.443   5.691 -0.5310  1.6099 -0.3647
 4331TIP3    H234485   4.450   1.320   5.639  0.9915  0.5228  0.0902
 4332TIP3   OH234486   1.414   2.307   1.855 -0.1319 -0.3750 -0.6394
 4332TIP3    H134487   1.432   2.311   1.949  1.4824  0.5728 -0.9483
 4332TIP3    H234488   1.326   2.342   1.845  0.3518  1.2324  0.3700
 4333TIP3   OH234489   4.787   3.312   4.056 -0.1575 -0.2803  0.6704
 4333TIP3    H134490   4.863   3.302   3.999  0.3894 -0.2901  1.3833
 4333TIP3    H234491   4.733   3.235   4.038 -0.0889 -0.1866  0.0359
 4334TIP3   OH234492   5.170   2.644  11.792  0.3334 -0.4659  0.2634
 4334TIP3    H134493   5.089   2.691  11.773  0.7910  1.0927  1.8951
 4334TIP3    H234494   5.172   2.573  11.728 -2.4263 -0.6972  0.3312
 4335TIP3   OH234495   1.675   6.644  15.526  0.3942 -0.3803  0.7966
 4335TIP3    H134496   1.615   6.570  15.526 -0.3346  0.0170 -2.7381
 4335TIP3    H234497   1.762   6.605  15.522  0.0789 -1.0615  0.4604
 4336TIP3   OH234498   3.641   2.261  11.444 -0.0773  0.1516  0.1119
 4336TIP3    H134499   3.602   2.330  11.390 -1.2973 -0.4957  0.1468
 4336TIP3    H234500   3.570   2.229  11.499  0.8075 -0.1853  1.1062
 4337TIP3   OH234501   0.665   4.054   4.087 -0.2921 -0.8019  0.1886
 4337TIP3    H134502   0.634   3.963   4.082 -0.5479 -0.6476 -2.4584
 4337TIP3    H234503   0.588   4.105   4.108 -0.6493 -0.9971 -0.6076
 4338TIP3   OH234504   6.245   1.586  13.359  0.4762  0.2948 -0.3678
 4338TIP3    H134505   6.174   1.523  13.351 -0.4953  1.5023 -2.2167
 4338TIP3    H234506   6.299   1.571  13.281  1.0928  0.7138 -0.0286
 4339TIP3   OH234507   4.362   5.742   0.893  0.1865 -0.0253  0.4610
 4339TIP3    H134508   4.312   5.690   0.830 -0.5003  1.0715  0.0790
 4339TIP3    H234509   4.429   5.786   0.840 -0.3667  0.8689  0.4818
 4340TIP3   OH234510   4.161   4.611   4.295  0.1591 -0.3724  0.3897
 4340TIP3    H134511   4.246   4.631   4.333  0.7554  1.4943 -1.7439
 4340TIP3    H234512   4.102   4.676   4.334  0.4092  0.4026 -0.4871
 4341TIP3   OH234513   5.407   1.491   2.460 -0.6913 -0.8326  0.4553
 4341TIP3    H134514   5.321   1.533   2.459 -0.8511 -1.1043 -1.4974
 4341TIP3    H234515   5.423   1.467   2.369  1.6448 -0.4251  0.6919
 4342TIP3   OH234516   3.688   3.629   0.027  0.2271 -0.4538 -0.3592
 4342TIP3    H134517   3.644   3.706  -0.008  0.1063 -0.2684  0.1886
 4342TIP3    H234518   3.779   3.638  -0.000  0.5475  0.6764  0.9881
 4343TIP3   OH234519   4.507   2.880  14.700 -0.5328 -0.2792  0.0597
 4343TIP3    H134520   4.476   2.955  14.649 -1.5851 -1.6953 -1.4787
 4343TIP3    H234521   4.458   2.885  14.782 -0.1964  0.9824  0.2119
 4344TIP3   OH234522   2.037   4.875  10.522  0.1070  0.9885 -0.5330
 4344TIP3    H134523   1.980   4.884  10.599  0.8447  0.7138  0.0610
 4344TIP3    H234524   2.106   4.940  10.535  0.6306  0.4558 -0.6021
 4345TIP3   OH234525   4.367   2.600  15.203 -0.3769 -0.1634  0.7421
 4345TIP3    H134526   4.363   2.695  15.202  1.8159 -0.0098  0.1821
 4345TIP3    H234527   4.276   2.571  15.195 -1.0744  1.8647  0.9098
 4346TIP3   OH234528   3.831   5.313  15.727  0.3423 -0.1923  0.0169
 4346TIP3    H134529   3.843   5.389  15.785  0.7923 -0.4084  0.2124
 4346TIP3    H234530   3.770   5.344  15.660  0.5046  0.3362  0.1074
 4347TIP3   OH234531   1.705   3.598  15.516 -0.0528 -0.0852 -0.4151
 4347TIP3    H134532   1.798   3.585  15.496  0.9489  1.5051  2.6320
 4347TIP3    H234533   1.676   3.515  15.553  0.7544  0.0189  0.4967
 4348TIP3   OH234534   4.629   6.062   3.398 -0.1367 -0.8367  0.7569
 4348TIP3    H134535   4.540   6.085   3.371 -0.1746 -0.6748  1.0100
 4348TIP3    H234536   4.622   6.049   3.493  0.2208 -0.2937  0.8626
 4349TIP3   OH234537   3.471   0.361   5.068 -0.4729  0.1057 -0.0971
 4349TIP3    H134538   3.430   0.278   5.094  0.3604 -0.0029  0.9114
 4349TIP3    H234539   3.472   0.413   5.148  1.3414  0.1131 -0.0884
 4350TIP3   OH234540   0.500   0.935   1.989  0.1028 -0.5763 -0.5388
 4350TIP3    H134541   0.457   0.945   2.074 -1.1251  0.7256 -1.2632
 4350TIP3    H234542   0.572   0.875   2.006 -0.2012 -0.4790  1.3880
 4351TIP3   OH234543   2.575   0.832   4.037  0.4019  0.0619  0.0610
 4351TIP3    H134544   2.597   0.749   3.995  1.0975 -0.3713  1.2248
 4351TIP3    H234545   2.533   0.884   3.968  1.1060 -0.7696 -1.0230
 4352TIP3   OH234546   6.390   1.657  13.829  0.3615  0.5812 -0.0103
 4352TIP3    H134547   6.374   1.609  13.747  0.5779  1.1665 -0.4024
 4352TIP3    H234548   6.343   1.607  13.895 -1.8579  1.4126 -0.8788
 4353TIP3   OH234549   2.854   3.830   5.285  0.6525  0.2374  0.2969
 4353TIP3    H134550   2.905   3.901   5.245  0.3815 -0.5773 -1.6078
 4353TIP3    H234551   2.806   3.872   5.356  0.4797  1.9716 -0.7871
 4354TIP3   OH234552   2.777   4.245   2.210 -0.2202 -0.0637 -0.3997
 4354TIP3    H134553   2.846   4.202   2.159 -0.0689  0.6619 -0.8223
 4354TIP3    H234554   2.741   4.311   2.150 -1.6179 -0.7503 -0.3530
 4355TIP3   OH234555   4.976   3.304   1.228  0.7589  0.2008 -0.0508
 4355TIP3    H134556   5.059   3.330   1.188  1.0055 -0.4349  0.0350
 4355TIP3    H234557   4.918   3.379   1.215  1.2782  0.5576 -0.3163
 4356TIP3   OH234558   5.302   2.397   3.766  0.2464  0.0372  0.2236
 4356TIP3    H134559   5.261   2.375   3.850 -0.3954 -0.8771 -0.3179
 4356TIP3    H234560   5.308   2.314   3.720  0.9645  0.4762 -0.4814
 4357TIP3   OH234561   0.350   3.100  16.524 -0.3374 -0.0661  0.3356
 4357TIP3    H134562   0.266   3.054  16.516 -0.4511  0.2635 -0.4418
 4357TIP3    H234563   0.403   3.064  16.454 -0.5233  1.1811 -0.4694
 4358TIP3   OH234564   2.888   4.751   0.019  0.3087 -0.5542  0.1281
 4358TIP3    H134565   2.927   4.776   0.103 -1.1236  0.7293  0.4663
 4358TIP3    H234566   2.955   4.697  -0.024  1.1170 -1.1491  2.0265
 4359TIP3   OH234567   1.803   4.923  14.508  0.1215  0.3011 -0.0772
 4359TIP3    H134568   1.825   4.855  14.572  0.2679 -1.0333 -1.4834
 4359TIP3    H234569   1.724   4.964  14.544  0.9908  0.5491  1.6426
 4360TIP3   OH234570   0.081   4.024   4.658 -0.0516 -0.7994 -0.4012
 4360TIP3    H134571   0.127   4.081   4.596 -1.2092  0.0573 -0.4975
 4360TIP3    H234572  -0.011   4.042   4.644 -0.3846  0.9775  2.9453
 4361TIP3   OH234573   1.772   3.258   2.497  0.1527 -0.2707 -0.3601
 4361TIP3    H134574   1.856   3.212   2.501 -0.2470 -1.0698 -0.8038
 4361TIP3    H234575   1.708   3.188   2.483 -0.2058  0.5698 -4.3417
 4362TIP3   OH234576   5.768   3.501   2.649  0.0668 -0.0243  0.3294
 4362TIP3    H134577   5.746   3.593   2.666  1.3144  0.3354  0.1005
 4362TIP3    H234578   5.758   3.458   2.734 -1.1627  0.1682  0.3049
 4363TIP3   OH234579   4.142   3.467  12.982 -0.2264 -0.5156  0.4773
 4363TIP3    H134580   4.113   3.406  13.050 -0.6920  0.7892  1.4858
 4363TIP3    H234581   4.231   3.439  12.961  0.5740  0.0648  2.8549
 4364TIP3   OH234582   3.822   0.038  14.882  0.1565  0.0453  0.0155
 4364TIP3    H134583   3.779   0.033  14.967  0.4867  1.9646  0.3549
 4364TIP3    H234584   3.909   0.002  14.896 -0.4489 -1.4784 -0.0296
 4365TIP3   OH234585   2.742   0.364   6.267  0.3253  0.1891  0.5917
 4365TIP3    H134586   2.767   0.455   6.283  0.0635  0.6332 -1.3761
 4365TIP3    H234587   2.653   0.357   6.302 -0.3589  1.2147 -0.8618
 4366TIP3   OH234588   5.374   1.060   3.754 -0.0265  0.5347 -0.1423
 4366TIP3    H134589   5.371   1.073   3.848 -0.5429  0.0538 -0.0888
 4366TIP3    H234590   5.312   0.988   3.737  0.8290 -0.0970 -0.7145
 4367TIP3   OH234591   1.074   0.228   4.660 -0.1395 -0.2488  0.7061
 4367TIP3    H134592   0.996   0.229   4.604 -0.8428 -1.3747  1.6175
 4367TIP3    H234593   1.114   0.314   4.647 -0.0084 -0.6085 -1.8475
 4368TIP3   OH234594   4.342   3.033   3.568 -0.2633  0.0188  0.7439
 4368TIP3    H134595   4.265   3.058   3.517  0.1535 -0.1180  0.0371
 4368TIP3    H234596   4.417   3.062   3.516  0.2409  3.4368  3.0161
 4369TIP3   OH234597   6.057   6.255  15.419  0.1436 -0.3406  0.3933
 4369TIP3    H134598   6.062   6.162  15.395  0.5190 -0.5261  1.1680
 4369TIP3    H234599   6.018   6.255  15.507  0.4545  0.2174  0.5354
 4370TIP3   OH234600   4.085   5.535   5.812 -0.4641  0.1865  0.1604
 4370TIP3    H134601   4.033   5.485   5.749 -0.8004  0.7744 -0.0349
 4370TIP3    H234602   4.099   5.475   5.885  3.3176 -2.0160 -2.0185
 4371TIP3   OH234603   4.797   5.153   2.847  0.3556 -0.5649 -0.0430
 4371TIP3    H134604   4.750   5.069   2.853  0.2271 -0.3932  1.8416
 4371TIP3    H234605   4.866   5.147   2.913  0.9952  0.4259 -0.5986
 4372TIP3   OH234606   3.367   2.440  15.975 -0.0320  0.0797  0.1976
 4372TIP3    H134607   3.324   2.467  15.894 -3.1723  1.4238  2.0992
 4372TIP3    H234608   3.426   2.513  15.996 -0.3443  0.4387 -0.1559
 4373TIP3   OH234609   0.428   2.567  13.728 -0.6021 -0.3678 -0.1301
 4373TIP3    H134610   0.471   2.648  13.700 -1.5254  0.6375  1.2673
 4373TIP3    H234611   0.497   2.517  13.770 -0.3714  0.4074  0.4274
 4374TIP3   OH234612   0.466   3.473   3.814  0.2680 -0.3202  0.1120
 4374TIP3    H134613   0.397   3.409   3.833 -0.4383  0.3570 -0.1082
 4374TIP3    H234614   0.521   3.430   3.748  0.1458 -0.9247  0.3974
 4375TIP3   OH234615   2.944   5.166  11.273 -0.7992 -0.2329  0.3794
 4375TIP3    H134616   2.960   5.104  11.344  0.7950  1.2670  1.4045
 4375TIP3    H234617   2.925   5.111  11.197 -0.8281 -1.9149  1.5470
 4376TIP3   OH234618   0.758   0.373   1.579 -0.5247  0.1552 -0.0042
 4376TIP3    H134619   0.847   0.354   1.549 -0.2230 -0.5003  1.2502
 4376TIP3    H234620   0.730   0.293   1.621 -0.9597  0.9995  1.3711
 4377TIP3   OH234621   1.510   2.073  16.363 -0.1030 -0.2922  0.1284
 4377TIP3    H134622   1.565   2.017  16.308  1.3703  0.3019  0.9484
 4377TIP3    H234623   1.566   2.148  16.385 -1.2148  0.2960  1.0622
 4378TIP3   OH234624   3.821   1.473  16.083 -0.1245  0.7024  0.3664
 4378TIP3    H134625   3.853   1.453  15.995 -2.0810  0.7963 -0.4200
 4378TIP3    H234626   3.782   1.560  16.075 -2.4645 -0.2386  0.6669
 4379TIP3   OH234627   2.555   4.527  13.976 -0.0474  0.0224 -0.0810
 4379TIP3    H134628   2.639   4.565  14.003 -0.0833  1.5441 -1.9452
 4379TIP3    H234629   2.492   4.598  13.987 -1.5512 -1.5943  3.0168
 4380TIP3   OH234630   0.241   5.943  10.742 -0.2095 -0.5659  0.2917
 4380TIP3    H134631   0.312   6.005  10.755 -1.2961  0.4256  1.7732
 4380TIP3    H234632   0.203   5.968  10.658 -1.1906  1.4222  1.2653
 4381TIP3   OH234633   0.787   6.093   4.815  0.0461  0.1742 -0.0327
 4381TIP3    H134634   0.756   6.044   4.739  0.1971 -0.9289  0.5886
 4381TIP3    H234635   0.758   6.183   4.799  0.4759  0.0688 -1.6053
 4382TIP3   OH234636   1.701   1.461  12.867  0.5938  0.9991  0.3716
 4382TIP3    H134637   1.634   1.524  12.895  1.0625  1.3544  0.7176
 4382TIP3    H234638   1.735   1.499  12.786  2.1372  2.1782  1.5012
 4383TIP3   OH234639   4.299   2.177  15.161 -0.1058 -0.2912  0.4934
 4383TIP3    H134640   4.225   2.203  15.106  1.3335  1.2074 -0.8711
 4383TIP3    H234641   4.271   2.198  15.250 -0.9095  1.3880 -0.1141
 4384TIP3   OH234642   1.539   6.441  15.938 -0.4833 -0.0199  0.0405
 4384TIP3    H134643   1.539   6.511  15.872  0.0676  1.2548  1.3418
 4384TIP3    H234644   1.474   6.468  16.002  1.1454  0.3531  1.5937
 4385TIP3   OH234645   4.083   3.905   0.553 -0.4092 -0.5779  0.0729
 4385TIP3    H134646   4.160   3.934   0.602  0.2932 -0.5850 -0.9869
 4385TIP3    H234647   4.093   3.946   0.467 -2.8832  1.4445  0.6417
 4386TIP3   OH234648   5.048   1.321   4.232 -0.4157  0.1681 -0.6880
 4386TIP3    H134649   5.064   1.229   4.213 -3.0799 -1.0668  2.0401
 4386TIP3    H234650   5.127   1.350   4.278 -0.1328 -1.2308 -0.2447
 4387TIP3   OH234651   6.125   2.137   0.441 -0.0398 -0.0340 -0.2411
 4387TIP3    H134652   6.141   2.044   0.456  0.0961  0.2655  1.6432
 4387TIP3    H234653   6.212   2.175   0.429 -0.1347 -0.2372 -1.7722
 4388TIP3   OH234654   4.416   3.700  16.100 -0.1893  0.4544  0.0444
 4388TIP3    H134655   4.433   3.666  16.188  0.2294 -1.2059 -0.6394
 4388TIP3    H234656   4.328   3.738  16.105 -0.0439  0.6744  1.2497
 4389TIP3   OH234657   1.529   2.006   2.542 -0.1381 -0.2397 -0.2376
 4389TIP3    H134658   1.478   2.003   2.461  0.3096  1.9068 -0.6678
 4389TIP3    H234659   1.493   2.082   2.589  1.8300  0.5950 -0.0086
 4390TIP3   OH234660   2.334   5.807  10.918  0.4179 -0.3940  0.6889
 4390TIP3    H134661   2.365   5.730  10.870 -0.6401 -0.6090  0.3012
 4390TIP3    H234662   2.340   5.878  10.854 -4.2728 -1.2831 -1.2134
 4391TIP3   OH234663   5.451   4.795   4.348  0.1292 -0.5455 -0.4326
 4391TIP3    H134664   5.483   4.880   4.377  0.3952 -0.5053 -0.8374
 4391TIP3    H234665   5.517   4.732   4.377  0.3918 -0.5060 -0.9331
 4392TIP3   OH234666   4.448   2.458   1.389  0.4691 -0.3671  0.0868
 4392TIP3    H134667   4.517   2.453   1.455 -1.5441 -0.5324  2.3012
 4392TIP3    H234668   4.476   2.396   1.321  1.6126 -1.8630  1.8124
 4393TIP3   OH234669   1.417   0.619  14.985  0.0124 -0.1640 -0.3090
 4393TIP3    H134670   1.450   0.594  15.072  1.6385 -1.1505 -1.1700
 4393TIP3    H234671   1.405   0.714  14.991  0.9899 -0.0805  0.7134
 4394TIP3   OH234672   3.304   0.694   6.970 -0.2589 -0.0063 -0.0878
 4394TIP3    H134673   3.322   0.719   6.880  0.8963 -0.4957 -0.0062
 4394TIP3    H234674   3.306   0.599   6.970 -0.6481 -0.0217  0.3895
 4395TIP3   OH234675   2.981   2.588  12.199 -0.0606 -0.3875  0.2315
 4395TIP3    H134676   2.948   2.606  12.111 -0.5867  1.6745  0.8144
 4395TIP3    H234677   3.020   2.670  12.228  0.6390 -1.2012  1.7114
 4396TIP3   OH234678   4.964   4.540   4.373  0.1781  0.1762 -0.4525
 4396TIP3    H134679   4.988   4.453   4.341 -1.9722 -0.8240  0.4449
 4396TIP3    H234680   4.888   4.525   4.429  0.1132  2.5818  0.2280
 4397TIP3   OH234681   0.466   2.468   1.108  0.1112 -0.3364  0.2436
 4397TIP3    H134682   0.487   2.379   1.136  0.1725 -0.0882  1.0157
 4397TIP3    H234683   0.386   2.460   1.057  0.3097 -0.8770  0.0143
 4398TIP3   OH234684   3.089   1.285  14.958  0.1041  0.5145  0.3348
 4398TIP3    H134685   3.157   1.241  14.906 -2.0097 -0.6628 -1.6347
 4398TIP3    H234686   3.053   1.216  15.013 -0.0507  0.9511  0.7906
 4399TIP3   OH234687   1.429   2.533   1.233 -0.3262  0.2617  0.4067
 4399TIP3    H134688   1.353   2.488   1.270 -0.5530  1.5327  1.5382
 4399TIP3    H234689   1.417   2.625   1.256 -0.2784  1.1140 -2.4936
 4400TIP3   OH234690   5.581   2.385   1.815  0.4130  0.8816 -0.1825
 4400TIP3    H134691   5.514   2.452   1.802  1.7794  2.1862 -0.8557
 4400TIP3    H234692   5.639   2.394   1.739  1.0619 -0.5630  0.1061
 4401TIP3   OH234693   2.468   6.648  11.309 -0.6844 -0.0116 -0.0147
 4401TIP3    H134694   2.547   6.701  11.319  0.3460 -1.5676  0.3358
 4401TIP3    H234695   2.434   6.672  11.222  0.3309  0.4517 -0.2995
 4402TIP3   OH234696   4.521   5.937   0.770 -0.0257 -0.3315  0.5867
 4402TIP3    H134697   4.557   5.993   0.701  0.6250 -0.1530  1.0609
 4402TIP3    H234698   4.591   5.931   0.835 -0.4472 -0.9098  0.9964
 4403TIP3   OH234699   3.432   5.919  16.765 -0.2106 -0.3817 -0.0550
 4403TIP3    H134700   3.495   5.936  16.696 -0.8361 -0.2475 -0.6084
 4403TIP3    H234701   3.410   5.826  16.755 -2.9973  0.3689 -2.4309
 4404TIP3   OH234702   4.609   0.186  14.839 -0.0060  0.2155  0.3091
 4404TIP3    H134703   4.562   0.219  14.763 -0.6065 -0.1989  0.4881
 4404TIP3    H234704   4.610   0.091  14.827 -0.6036  0.0950  1.0807
 4405TIP3   OH234705   6.375   4.064   4.329  0.4501  0.1646  0.4903
 4405TIP3    H134706   6.305   4.051   4.393  0.4517  1.2522  0.7410
 4405TIP3    H234707   6.424   4.140   4.362  2.1864 -0.9716  0.6909
 4406TIP3   OH234708   4.675   1.074   5.933 -0.0518 -0.0705 -0.1780
 4406TIP3    H134709   4.596   1.025   5.959 -0.1450 -0.5101 -1.2283
 4406TIP3    H234710   4.666   1.159   5.977 -0.3489 -0.6480  0.9284
 4407TIP3   OH234711   3.688   4.188   0.516 -0.4859 -0.2223  0.0847
 4407TIP3    H134712   3.661   4.278   0.536  0.1288 -0.2546  1.1443
 4407TIP3    H234713   3.688   4.143   0.601 -0.0180 -1.0105 -0.3172
 4408TIP3   OH234714   0.191   1.416  15.979  0.0763 -0.3733  0.2738
 4408TIP3    H134715   0.253   1.400  15.907 -0.9341 -0.5977 -0.5772
 4408TIP3    H234716   0.245   1.449  16.050  1.5738 -2.8474  0.4138
 4409TIP3   OH234717   4.554   1.263  11.339  0.2850 -0.5764 -0.2845
 4409TIP3    H134718   4.465   1.284  11.368  0.0515 -0.2125 -1.2488
 4409TIP3    H234719   4.591   1.213  11.412 -1.1532 -1.8863 -0.4088
 4410TIP3   OH234720   3.537   5.357   4.047  0.0630  0.2143  0.3494
 4410TIP3    H134721   3.482   5.295   4.095 -1.1987  1.6556  0.8450
 4410TIP3    H234722   3.476   5.425   4.018  0.9672 -0.0645 -2.4243
 4411TIP3   OH234723   1.786   1.773   4.630  0.5757  0.1933 -0.3640
 4411TIP3    H134724   1.769   1.728   4.547 -1.1547 -0.5578  0.3462
 4411TIP3    H234725   1.702   1.771   4.676  1.8232 -0.8069  2.0682
 4412TIP3   OH234726   6.646   1.734  14.506 -0.2759 -1.0210 -0.5064
 4412TIP3    H134727   6.638   1.827  14.485  1.5016 -1.3709 -3.2152
 4412TIP3    H234728   6.555   1.703  14.511 -0.8870  0.4554 -1.7070
 4413TIP3   OH234729   5.415   4.546  12.782 -0.1133 -0.0157 -0.1224
 4413TIP3    H134730   5.325   4.513  12.784 -0.1037 -0.0482 -0.2335
 4413TIP3    H234731   5.468   4.470  12.807 -0.1288  0.0454  0.0978
 4414TIP3   OH234732   5.641   4.230  16.048  0.1988  0.0723  0.5894
 4414TIP3    H134733   5.625   4.321  16.072 -0.1515 -0.4025  2.2248
 4414TIP3    H234734   5.559   4.201  16.006  0.9838  1.0411 -1.8038
 4415TIP3   OH234735   6.797   4.809   0.762  0.0620  0.0098 -0.2168
 4415TIP3    H134736   6.732   4.742   0.741 -0.5478  0.6548 -0.4282
 4415TIP3    H234737   6.880   4.762   0.762 -0.4421 -0.9071  0.4782
 4416TIP3   OH234738   3.266   3.415  17.154 -0.5500  0.3831  1.0705
 4416TIP3    H134739   3.208   3.484  17.186 -0.6977  1.1842 -0.7873
 4416TIP3    H234740   3.353   3.455  17.153  0.0105 -0.6591  3.3893
 4417TIP3   OH234741   4.277   2.291  12.723  0.3740 -0.5087  0.1315
 4417TIP3    H134742   4.222   2.285  12.645  1.6481 -0.2894 -0.8207
 4417TIP3    H234743   4.228   2.245  12.791 -0.8743 -0.4943 -0.7288
 4418TIP3   OH234744   4.765   6.484   2.090  0.0639 -0.1626 -0.0582
 4418TIP3    H134745   4.825   6.448   2.155  0.1309  0.0241 -0.0139
 4418TIP3    H234746   4.707   6.541   2.141  0.6250  0.6181 -0.2649
 4419TIP3   OH234747   1.915   5.087  16.640 -0.0360 -0.1407 -0.6262
 4419TIP3    H134748   2.008   5.068  16.656  0.4453  1.2055 -1.6037
 4419TIP3    H234749   1.872   5.002  16.643  1.1734 -0.7558  0.1778
 4420TIP3   OH234750   5.950   2.525   6.508 -0.2339 -0.3519 -0.8267
 4420TIP3    H134751   5.984   2.530   6.597  0.0793  0.7187 -0.9952
 4420TIP3    H234752   5.864   2.568   6.512  1.6943  4.2340 -1.9048
 4421TIP3   OH234753   6.474   1.128   6.036  0.1176 -0.5425  0.6352
 4421TIP3    H134754   6.555   1.118   5.985  0.7061 -0.6028  1.5563
 4421TIP3    H234755   6.488   1.074   6.114 -0.8945 -0.6984  0.7239
 4422TIP3   OH234756   1.751   6.340   1.436 -0.3801 -0.4079 -0.1671
 4422TIP3    H134757   1.757   6.255   1.393 -2.4212 -0.1070 -1.1651
 4422TIP3    H234758   1.731   6.320   1.527  1.7775 -1.0071  0.2220
 4423TIP3   OH234759   4.895   6.793  13.055 -0.1000 -0.3141  0.8939
 4423TIP3    H134760   4.892   6.763  12.964  0.1257 -0.4463  0.9281
 4423TIP3    H234761   4.934   6.881  13.049  0.1253 -0.4130  0.8818
 4424TIP3   OH234762   4.097   6.105   5.899 -0.4995 -0.1942 -0.8310
 4424TIP3    H134763   4.119   6.193   5.869 -0.4274 -0.0144 -0.2602
 4424TIP3    H234764   4.142   6.097   5.983 -2.1478 -0.0187  0.1049
 4425TIP3   OH234765   4.729   3.196  13.757  0.4621 -0.7628 -0.0305
 4425TIP3    H134766   4.760   3.108  13.775 -1.0192 -1.5456 -1.0791
 4425TIP3    H234767   4.671   3.217  13.830  0.6236 -0.7448  0.0939
 4426TIP3   OH234768   6.498   3.413   3.956  0.4182  0.1465  0.1833
 4426TIP3    H134769   6.432   3.343   3.959  0.7316 -0.1002  2.5374
 4426TIP3    H234770   6.563   3.382   3.893  0.6243 -1.7773  1.2931
 4427TIP3   OH234771   2.774   0.328  14.234 -0.0536 -0.1524 -0.2168
 4427TIP3    H134772   2.736   0.361  14.153  1.1993 -1.5417 -1.4114
 4427TIP3    H234773   2.708   0.266  14.267 -1.2561  1.5385  0.6918
 4428TIP3   OH234774   2.329   6.325  15.823  0.2869  0.0544 -0.5358
 4428TIP3    H134775   2.266   6.391  15.849 -0.3530 -0.5513 -0.5209
 4428TIP3    H234776   2.292   6.286  15.744  0.0367 -1.1048  0.1249
 4429TIP3   OH234777   2.518   3.784   5.033  0.7104  0.0645  0.1669
 4429TIP3    H134778   2.449   3.717   5.031  0.2676  0.5388 -0.6292
 4429TIP3    H234779   2.475   3.864   5.004  1.9861  0.0010 -2.1110
 4430TIP3   OH234780   2.181   1.752  14.424  0.2738  0.2044 -0.3540
 4430TIP3    H134781   2.266   1.709  14.414  0.1303 -0.1153 -0.2138
 4430TIP3    H234782   2.201   1.836  14.465  0.4232 -0.2940  0.6175
 4431TIP3   OH234783   1.984   2.172  16.898  0.2890 -0.1554  0.1544
 4431TIP3    H134784   1.969   2.263  16.872  0.9062  0.2075  1.0000
 4431TIP3    H234785   1.947   2.166  16.986  1.9882 -0.1577  0.9139
 4432TIP3   OH234786   1.119   6.379   2.161 -0.3189  0.1153  0.4474
 4432TIP3    H134787   1.184   6.410   2.098 -0.9687  0.2515 -0.1653
 4432TIP3    H234788   1.113   6.285   2.144 -0.2811  0.1034  0.5006
 4433TIP3   OH234789   0.322   1.400  12.517 -0.3617 -0.2914  0.2155
 4433TIP3    H134790   0.355   1.311  12.532 -0.5496 -0.3807  0.0981
 4433TIP3    H234791   0.227   1.392  12.526 -0.5068 -0.3891 -1.1648
 4434TIP3   OH234792   6.214   1.298  11.261  0.1856 -0.1145  0.4432
 4434TIP3    H134793   6.252   1.298  11.173  1.3854 -0.2620  0.9463
 4434TIP3    H234794   6.177   1.210  11.271 -2.2808  0.6564 -0.8383
 4435TIP3   OH234795   2.221   5.683  16.143 -0.3042  0.3904 -0.6814
 4435TIP3    H134796   2.261   5.745  16.204 -0.8271 -0.1934  0.2798
 4435TIP3    H234797   2.290   5.663  16.080  1.2732 -1.3036  1.4332
 4436TIP3   OH234798   6.159   0.701   5.147 -0.1095  0.2672 -0.0211
 4436TIP3    H134799   6.153   0.796   5.143  0.3334  0.4726  2.3504
 4436TIP3    H234800   6.083   0.669   5.099 -1.2789  1.8890  0.6755
 4437TIP3   OH234801   0.350   3.379  15.359 -0.1344 -0.0184 -0.4788
 4437TIP3    H134802   0.319   3.346  15.443 -1.5910  3.2056  0.4394
 4437TIP3    H234803   0.438   3.411  15.376 -0.3155  0.3575 -0.2312
 4438TIP3   OH234804   4.984   3.025  12.896 -0.4984 -0.2868  0.0538
 4438TIP3    H134805   5.067   2.979  12.880  1.2446  1.2176  3.4864
 4438TIP3    H234806   4.921   2.956  12.915  0.7954 -1.4349  0.3330
 4439TIP3   OH234807   3.389   6.828   3.525  0.0982 -0.3871  0.3670
 4439TIP3    H134808   3.419   6.897   3.466 -1.7702 -0.5775 -0.8700
 4439TIP3    H234809   3.469   6.779   3.547  0.9590  0.1284 -1.4252
 4440TIP3   OH234810   3.648   6.484   6.429  0.2224 -0.1319 -0.2897
 4440TIP3    H134811   3.605   6.515   6.509 -1.0088  1.2560 -1.4357
 4440TIP3    H234812   3.586   6.421   6.392  1.1515 -1.3826  0.2326
 4441TIP3   OH234813   3.634   1.870   2.336  0.1225  0.4202  0.3822
 4441TIP3    H134814   3.580   1.939   2.298 -1.6280 -0.3137  1.4206
 4441TIP3    H234815   3.607   1.790   2.290  2.2066  0.3777 -0.8875
 4442TIP3   OH234816   0.290   2.218  12.300 -0.6195  0.6896 -0.2812
 4442TIP3    H134817   0.212   2.263  12.268  0.1760  2.6430  0.3492
 4442TIP3    H234818   0.322   2.274  12.371  2.5513  1.1723 -1.9146
 4443TIP3   OH234819   3.988   2.333   0.894 -0.2015 -0.2196  0.0886
 4443TIP3    H134820   4.014   2.283   0.971  1.5829  0.0989 -0.2795
 4443TIP3    H234821   4.041   2.299   0.823  0.1815  1.3475 -0.4291
 4444TIP3   OH234822   5.154   5.580   5.637 -0.3418  0.6365 -0.3008
 4444TIP3    H134823   5.142   5.519   5.710  2.7637  0.9644  0.6228
 4444TIP3    H234824   5.196   5.528   5.568  0.5612  1.2407 -0.2325
 4445TIP3   OH234825   3.090   5.179  14.961  0.3636  0.1062 -0.0338
 4445TIP3    H134826   3.123   5.092  14.938 -1.6934 -0.9131  0.6031
 4445TIP3    H234827   3.026   5.200  14.892 -1.4730 -0.3415  1.4542
 4446TIP3   OH234828   3.475   2.394  13.307 -0.2389 -0.1918 -0.2182
 4446TIP3    H134829   3.402   2.332  13.300 -1.2250  0.9815 -0.4881
 4446TIP3    H234830   3.486   2.428  13.218 -0.2029  0.5725  0.0754
 4447TIP3   OH234831   4.883   5.880   5.940 -0.0438  0.1742 -0.6651
 4447TIP3    H134832   4.802   5.916   5.977  0.1546  0.0493 -0.0897
 4447TIP3    H234833   4.927   5.839   6.015 -0.3724 -1.4694 -1.3247
 4448TIP3   OH234834   2.532   6.054  16.790  0.1850 -0.4821  0.0309
 4448TIP3    H134835   2.486   6.138  16.788 -2.1812 -1.6888  0.1160
 4448TIP3    H234836   2.595   6.062  16.861 -0.4762  0.9850  0.4877
 4449TIP3   OH234837   2.679   1.524  14.754 -0.3665  0.4117 -0.3538
 4449TIP3    H134838   2.611   1.587  14.730 -0.6934  0.5867  0.9313
 4449TIP3    H234839   2.635   1.462  14.813  0.0577 -0.7860 -1.2539
 4450TIP3   OH234840   2.931   5.659  15.994  0.0610 -0.2186 -0.2158
 4450TIP3    H134841   2.877   5.586  15.964  0.8947 -1.2914  0.7866
 4450TIP3    H234842   2.869   5.721  16.031 -0.5355 -1.3292  0.7218
 4451TIP3   OH234843   2.782   2.102   3.342  0.3639  0.1612 -0.2120
 4451TIP3    H134844   2.805   2.073   3.254  0.6304  0.2668 -0.1790
 4451TIP3    H234845   2.776   2.198   3.334 -4.0617 -0.0027 -1.1879
 4452TIP3   OH234846   6.740   3.774   2.122 -0.2441  0.0406 -0.2911
 4452TIP3    H134847   6.672   3.790   2.187 -0.7310  1.2171 -1.0575
 4452TIP3    H234848   6.711   3.696   2.075 -0.0188 -0.6648  0.6867
 4453TIP3   OH234849   0.947   3.550   1.854 -0.1436  0.4010  0.2097
 4453TIP3    H134850   0.951   3.560   1.759  2.2901 -1.0039  0.0554
 4453TIP3    H234851   0.896   3.470   1.868  3.0955 -2.0265 -0.3617
 4454TIP3   OH234852   0.810   0.492  14.590  0.4613 -0.0285  0.6870
 4454TIP3    H134853   0.875   0.524  14.652 -0.6047 -0.0547  1.8551
 4454TIP3    H234854   0.742   0.559  14.589  1.2533  0.8684 -1.8482
 4455TIP3   OH234855   0.010   3.997   5.081 -0.2696 -0.6188 -0.0650
 4455TIP3    H134856  -0.078   3.966   5.059 -0.4465 -0.5240  0.5078
 4455TIP3    H234857   0.065   3.919   5.072 -0.6019 -0.9517  0.6958
 4456TIP3   OH234858   2.742   6.079   3.405 -0.5477  0.2187  0.3983
 4456TIP3    H134859   2.753   5.999   3.353 -0.7929  0.7022 -0.3970
 4456TIP3    H234860   2.654   6.110   3.384 -1.2111 -0.3195  2.1476
 4457TIP3   OH234861   6.051   4.470   5.281 -0.0039 -0.0742 -0.1455
 4457TIP3    H134862   5.997   4.411   5.334 -2.2397  0.5310 -1.6095
 4457TIP3    H234863   6.066   4.422   5.200  0.5455  0.3049 -0.2739
 4458TIP3   OH234864   2.883   0.167   5.561 -0.3957 -0.2041 -1.2791
 4458TIP3    H134865   2.946   0.109   5.603 -2.3388 -1.6624 -0.2364
 4458TIP3    H234866   2.884   0.141   5.469 -0.6087 -1.2995 -0.9817
 4459TIP3   OH234867   2.790   1.796   4.438  0.1981  0.0998  0.2715
 4459TIP3    H134868   2.861   1.860   4.435  0.9391 -0.7638 -1.6078
 4459TIP3    H234869   2.824   1.725   4.494 -1.0036  1.6718  3.2038
 4460TIP3   OH234870   1.844   5.531   1.324  0.4933  0.4537  0.5095
 4460TIP3    H134871   1.752   5.559   1.330  0.8853  1.4864  2.1527
 4460TIP3    H234872   1.854   5.504   1.232 -1.8473 -1.1208  0.6046
 4461TIP3   OH234873   0.682   0.893   3.107  0.4348  0.3852  0.2884
 4461TIP3    H134874   0.635   0.973   3.131  2.0050  0.9159  1.8122
 4461TIP3    H234875   0.716   0.859   3.190  1.5868 -0.6872 -0.5766
 4462TIP3   OH234876   4.647   4.912  17.032 -0.4252 -0.5934  0.1886
 4462TIP3    H134877   4.581   4.969  17.071 -0.5727 -1.5357  1.4128
 4462TIP3    H234878   4.606   4.877  16.953 -1.1099 -0.5855  0.5374
 4463TIP3   OH234879   1.842   5.563  12.555 -0.7481  0.0080 -0.2224
 4463TIP3    H134880   1.853   5.647  12.600 -1.2509 -0.2843  0.4608
 4463TIP3    H234881   1.748   5.550  12.551 -0.6958 -0.1470 -1.0530
 4464TIP3   OH234882   6.113   4.294   1.430 -0.3183  0.1802  0.0224
 4464TIP3    H134883   6.079   4.212   1.467 -2.2889  1.1477  0.5237
 4464TIP3    H234884   6.181   4.322   1.492 -0.5477 -0.4258  0.5603
 4465TIP3   OH234885   6.000   2.062   5.525  0.6223  0.0846 -0.4610
 4465TIP3    H134886   6.025   2.125   5.592  0.3859 -0.7373  0.4152
 4465TIP3    H234887   5.973   2.117   5.450 -0.3030  1.0428  0.5296
 4466TIP3   OH234888   6.762   1.307   5.473  0.0828  0.1956 -0.1994
 4466TIP3    H134889   6.777   1.400   5.460  0.8420  0.0038 -0.7439
 4466TIP3    H234890   6.681   1.289   5.425 -0.2535  0.6314  0.1904
 4467TIP3   OH234891   2.161   1.477  13.000 -0.2710 -0.2686 -0.2862
 4467TIP3    H134892   2.139   1.546  12.938  0.6911  0.2127 -0.1133
 4467TIP3    H234893   2.205   1.411  12.947 -0.3058 -0.2972 -0.2797
 4468TIP3   OH234894   1.072   5.773  12.078 -0.6903 -0.3131  0.0408
 4468TIP3    H134895   1.003   5.806  12.136  0.2503  0.4697  0.7553
 4468TIP3    H234896   1.042   5.686  12.053 -1.1787 -0.6513  1.6712
 4469TIP3   OH234897   3.636   1.604   2.140 -0.3748  0.5177  0.3997
 4469TIP3    H134898   3.697   1.660   2.092 -1.8097  0.8730 -1.1123
 4469TIP3    H234899   3.688   1.566   2.210  1.2927  1.6702 -0.1492
 4470TIP3   OH234900   5.246   0.895  13.810  0.3419  0.0827  0.1397
 4470TIP3    H134901   5.220   0.984  13.830  2.7145  1.2716 -1.5488
 4470TIP3    H234902   5.194   0.871  13.733  1.8764  1.2867 -1.3487
 4471TIP3   OH234903   3.024   6.287  16.761 -0.3387  0.4136  0.1690
 4471TIP3    H134904   2.939   6.295  16.718 -0.1703 -0.3408 -0.3168
 4471TIP3    H234905   3.056   6.200  16.736  1.4478  1.4185 -1.2599
 4472TIP3   OH234906   2.370   4.625  15.634 -0.0954  0.0855  0.4946
 4472TIP3    H134907   2.281   4.608  15.603 -0.1880 -0.4792  1.0418
 4472TIP3    H234908   2.418   4.545  15.613  0.6660  0.8996 -1.0750
 4473TIP3   OH234909   3.421   4.424  15.056  1.0326  0.2310  0.5529
 4473TIP3    H134910   3.475   4.385  15.125 -2.5093 -0.4043  3.2760
 4473TIP3    H234911   3.376   4.350  15.016  0.4222  0.8880 -0.0038
 4474TIP3   OH234912   0.417   2.197  13.703  0.0577  0.2917  0.3195
 4474TIP3    H134913   0.393   2.178  13.613  2.0998  1.6032 -0.5760
 4474TIP3    H234914   0.338   2.235  13.742  0.1583  3.3516 -2.0974
 4475TIP3   OH234915   6.525   3.081  14.147  0.2924  0.0815  0.1803
 4475TIP3    H134916   6.439   3.088  14.106  0.6901 -2.7953 -1.3600
 4475TIP3    H234917   6.507   3.052  14.236 -0.3660 -2.1264 -0.6125
 4476TIP3   OH234918   0.933   4.170  14.204  0.2420  0.2634  0.1487
 4476TIP3    H134919   0.859   4.230  14.216  0.8274  0.9413  0.4693
 4476TIP3    H234920   0.897   4.084  14.225 -1.0110  0.2567 -1.7630
 4477TIP3   OH234921   4.966   6.034   4.516  0.4807 -0.7938 -0.6947
 4477TIP3    H134922   4.923   5.954   4.547  1.0169 -0.2352  1.7238
 4477TIP3    H234923   4.898   6.101   4.519  0.5947 -0.6863 -0.4543
 4478TIP3   OH234924   1.446   1.876  11.362  0.3773  0.4560 -0.4537
 4478TIP3    H134925   1.519   1.913  11.311 -0.2831  2.1232 -0.2402
 4478TIP3    H234926   1.371   1.931  11.340 -1.2068 -2.0411 -1.7162
 4479TIP3   OH234927   4.765   2.573  16.528 -0.4899  0.2409 -0.1723
 4479TIP3    H134928   4.743   2.655  16.485  0.7396  0.8288  0.2595
 4479TIP3    H234929   4.832   2.597  16.592  0.9132 -1.3061 -0.9789
 4480TIP3   OH234930   5.334   4.681  16.708  0.3376  0.7332 -0.2677
 4480TIP3    H134931   5.368   4.602  16.750 -1.2174  0.0800 -0.1530
 4480TIP3    H234932   5.351   4.750  16.771 -0.1050  0.1167  0.5543
 4481TIP3   OH234933   6.100   3.955  13.785  0.1532  0.0853  0.1411
 4481TIP3    H134934   6.120   3.981  13.875  1.1634  2.0120 -0.5821
 4481TIP3    H234935   6.008   3.977  13.773  0.4061  1.2715  0.2654
 4482TIP3   OH234936   0.053   5.523  11.169  0.2423 -0.3785  0.3563
 4482TIP3    H134937   0.068   5.459  11.239 -0.6940 -0.5572  0.3982
 4482TIP3    H234938   0.133   5.576  11.168  1.5692 -2.2785 -0.4726
 4483TIP3   OH234939   5.252   0.024   3.690  0.3926 -0.0272  0.1380
 4483TIP3    H134940   5.208   0.033   3.775  1.4558 -1.0266  0.8303
 4483TIP3    H234941   5.262   0.114   3.659 -0.6508  0.3126  0.7181
 4484TIP3   OH234942   1.907   5.737  15.641 -0.3614 -0.0729 -0.2602
 4484TIP3    H134943   1.850   5.733  15.564 -0.1982  2.0792 -0.5680
 4484TIP3    H234944   1.938   5.828  15.643  0.8929 -0.4842  1.4614
 4485TIP3   OH234945   1.723   2.631   0.737 -0.4794  0.2506  0.5931
 4485TIP3    H134946   1.785   2.683   0.787  0.1328 -0.0631  0.1686
 4485TIP3    H234947   1.714   2.550   0.786  0.3454 -0.1758  0.0508
 4486TIP3   OH234948   6.383   1.245   1.186  0.5812 -0.7708 -0.5135
 4486TIP3    H134949   6.434   1.275   1.110  0.0099 -2.4142 -1.5968
 4486TIP3    H234950   6.298   1.222   1.149 -0.3067  0.0400  0.9509
 4487TIP3   OH234951   2.172   6.336  14.437  0.6856  0.4667 -0.0133
 4487TIP3    H134952   2.128   6.379  14.510  0.9841  2.2449 -0.8368
 4487TIP3    H234953   2.191   6.406  14.375  2.3788 -0.6564 -0.8485
 4488TIP3   OH234954   3.341   0.861  12.930 -0.7175  0.2904 -0.0290
 4488TIP3    H134955   3.428   0.858  12.890 -2.1621 -0.8609 -3.4887
 4488TIP3    H234956   3.310   0.950  12.912 -1.1593 -0.0592 -1.0502
 4489TIP3   OH234957   6.166   1.215  16.107 -0.1736 -0.0544  1.0938
 4489TIP3    H134958   6.145   1.225  16.015 -0.4579  2.7659  1.3646
 4489TIP3    H234959   6.181   1.122  16.119 -1.9623 -0.7473 -1.3868
 4490TIP3   OH234960   5.538   4.359  14.779 -0.2039  0.2295  0.2267
 4490TIP3    H134961   5.501   4.329  14.862  0.0426  0.1605  0.3114
 4490TIP3    H234962   5.563   4.450  14.796 -1.8506  0.8194 -0.3170
 4491TIP3   OH234963   5.810   5.362  17.041 -0.0133  0.2230 -0.1804
 4491TIP3    H134964   5.865   5.427  17.085 -0.3087  0.2923  0.0866
 4491TIP3    H234965   5.744   5.414  16.995 -1.0993  0.0763  1.1596
 4492TIP3   OH234966   3.652   3.981   2.072  0.3240  0.5990 -0.0980
 4492TIP3    H134967   3.672   4.056   2.128  1.2349  0.8056 -0.6782
 4492TIP3    H234968   3.738   3.944   2.049 -0.1071 -0.7564  0.3496
 4493TIP3   OH234969   4.958   3.683  12.990 -0.1807 -0.1996  0.1387
 4493TIP3    H134970   4.949   3.778  12.990 -0.9530 -0.2654 -0.3190
 4493TIP3    H234971   4.892   3.652  12.927 -0.2065 -1.0545  0.5659
 4494TIP3   OH234972   5.295   3.061  11.802 -0.2032 -0.1768 -0.6697
 4494TIP3    H134973   5.355   3.090  11.734 -0.7387  0.2278 -0.9694
 4494TIP3    H234974   5.352   3.039  11.876  0.3080  0.2428 -0.9372
 4495TIP3   OH234975   1.970   2.345  11.396 -0.4724  0.6808  0.3098
 4495TIP3    H134976   2.065   2.353  11.408 -0.4879 -0.2161  1.0800
 4495TIP3    H234977   1.938   2.306  11.477 -1.5465  1.2209  0.1650
 4496TIP3   OH234978   2.543   0.023   1.103  0.2162  0.4157  0.5674
 4496TIP3    H134979   2.588   0.086   1.159  0.9596  0.4068 -0.0121
 4496TIP3    H234980   2.558  -0.061   1.145  0.3769  0.4616  0.6010
 4497TIP3   OH234981   0.169   3.529   2.649 -0.0041 -0.4317 -0.3654
 4497TIP3    H134982   0.198   3.494   2.734 -0.2204 -1.6436 -0.7696
 4497TIP3    H234983   0.183   3.623   2.656  0.8455 -0.6147  0.6877
 4498TIP3   OH234984   0.742   1.942   2.747  0.2929 -0.0963  0.4260
 4498TIP3    H134985   0.695   2.012   2.793  1.4017  0.6995  0.4015
 4498TIP3    H234986   0.734   1.965   2.654  1.7091  0.7170  0.4826
 4499TIP3   OH234987   1.957   6.447   3.684  0.2119 -0.2933 -0.0720
 4499TIP3    H134988   1.965   6.511   3.614  2.0274 -0.5382 -0.1298
 4499TIP3    H234989   1.884   6.391   3.658  0.2368  0.2260 -1.2763
 4500TIP3   OH234990   2.779   0.030  14.900 -0.2305 -0.2469 -0.2351
 4500TIP3    H134991   2.854   0.088  14.918 -0.1565  0.4554 -2.4139
 4500TIP3    H234992   2.709   0.064  14.956  0.6043  0.1506  0.6077
 4501TIP3   OH234993   2.844   0.728   1.359 -0.3623  0.2913 -0.7945
 4501TIP3    H134994   2.782   0.705   1.290 -1.3567 -1.7013  0.6655
 4501TIP3    H234995   2.922   0.677   1.339 -0.7171 -0.4305 -0.3766
 4502TIP3   OH234996   4.611   5.811   5.733  0.4443 -0.1543 -0.3085
 4502TIP3    H134997   4.608   5.905   5.752  0.9786  0.1337 -1.4977
 4502TIP3    H234998   4.704   5.790   5.731  0.3594 -1.4266  2.9542
 4503TIP3   OH234999   1.959   4.348  12.329  0.4153  0.4051  0.5272
 4503TIP3    H135000   2.012   4.286  12.380  0.4493 -1.9326 -2.1185
 4503TIP3    H235001   1.980   4.328  12.238 -2.5527  1.6501 -0.5333
 4504TIP3   OH235002   6.298   2.564   1.144  0.2381 -0.3017 -0.1598
 4504TIP3    H135003   6.286   2.580   1.050 -1.9461  1.7201  0.3660
 4504TIP3    H235004   6.277   2.648   1.185 -1.0417 -1.7156  2.2738
 4505TIP3   OH235005   1.256   5.085  16.707 -0.0054  0.4040 -0.2808
 4505TIP3    H135006   1.237   5.024  16.778 -1.7815 -0.2199 -1.2230
 4505TIP3    H235007   1.288   5.029  16.636 -0.1918  0.7548 -0.6437
 4506TIP3   OH235008   3.804   0.786   1.725 -0.2704  0.0119 -0.2897
 4506TIP3    H135009   3.768   0.873   1.707  0.1465  0.2088 -0.1807
 4506TIP3    H235010   3.729   0.734   1.752 -0.7449 -0.0013 -1.5387
 4507TIP3   OH235011   1.515   4.474   0.990  0.5347 -0.3156 -0.2715
 4507TIP3    H135012   1.590   4.490   1.047  0.4075 -0.0810 -0.1671
 4507TIP3    H235013   1.549   4.419   0.920  0.7572 -0.3732 -0.1181
 4508TIP3   OH235014   4.285   6.680  14.225 -0.2283 -0.2231 -0.3574
 4508TIP3    H135015   4.232   6.710  14.299 -0.1764 -0.5095 -0.2038
 4508TIP3    H235016   4.344   6.753  14.206 -0.4647 -0.0222 -0.3304
 4509TIP3   OH235017   5.405   2.908  10.985  0.1563 -0.3653  0.5378
 4509TIP3    H135018   5.334   2.881  11.044 -1.7901  2.0844 -0.5131
 4509TIP3    H235019   5.414   3.002  10.998  0.5033  0.0569 -2.1234
 4510TIP3   OH235020   5.636   2.264   5.249 -0.0420  0.2333  0.0143
 4510TIP3    H135021   5.581   2.210   5.192  0.7315 -0.1000 -0.4202
 4510TIP3    H235022   5.583   2.277   5.328 -0.3021 -1.0385  0.0672
 4511TIP3   OH235023   3.908   2.769  15.486  0.3884 -0.1624  0.0601
 4511TIP3    H135024   3.932   2.742  15.574  0.8563  0.1605  0.0351
 4511TIP3    H235025   3.841   2.837  15.498  1.4768  0.9116  0.2193
 4512TIP3   OH235026   1.674   0.674   4.788 -0.3425  0.0382  0.2359
 4512TIP3    H135027   1.646   0.672   4.879  0.4284  0.0259  0.4814
 4512TIP3    H235028   1.734   0.749   4.783 -0.8788  0.4389 -0.4105
 4513TIP3   OH235029   5.194   5.530   6.470  0.5347  0.3215  0.4725
 4513TIP3    H135030   5.152   5.484   6.543 -0.7411 -1.5669 -1.3422
 4513TIP3    H235031   5.271   5.478   6.449  0.8740  0.8301  0.4411
 4514TIP3   OH235032   0.764   4.991   3.332  0.1091 -0.5748  0.3379
 4514TIP3    H135033   0.846   4.948   3.354 -0.7997 -2.3892  0.3844
 4514TIP3    H235034   0.700   4.919   3.326 -1.7262  0.8663  1.4955
 4515TIP3   OH235035   2.930   6.101  11.871  0.4393 -0.3210 -0.1206
 4515TIP3    H135036   2.975   6.112  11.788  0.1167 -1.4471 -0.4606
 4515TIP3    H235037   2.841   6.132  11.855  1.4141  3.7354  1.0605
 4516TIP3   OH235038   2.419   3.329  12.306  0.1558  0.1244 -0.3047
 4516TIP3    H135039   2.494   3.299  12.357 -0.6243  1.3035  1.6618
 4516TIP3    H235040   2.457   3.364  12.226  1.6312  0.0626  0.3270
 4517TIP3   OH235041   2.732   3.938  13.107  0.2928 -0.0649  0.0865
 4517TIP3    H135042   2.786   3.885  13.165  3.0868 -0.7951 -2.8555
 4517TIP3    H235043   2.780   4.020  13.097 -1.4689  1.1073  0.7534
 4518TIP3   OH235044   0.951   4.353  15.923  0.0791  0.3510 -0.1591
 4518TIP3    H135045   0.962   4.259  15.907  0.4110  0.5082 -0.9198
 4518TIP3    H235046   0.876   4.359  15.981  1.5230 -0.5320  1.8949
 4519TIP3   OH235047   6.659   1.676   4.622  0.2378 -0.3160 -0.1730
 4519TIP3    H135048   6.728   1.716   4.569 -0.8530  0.8324 -0.7757
 4519TIP3    H235049   6.671   1.714   4.709 -0.3706  0.8747 -0.5782
 4520TIP3   OH235050   6.549   1.112  14.555  0.4850  0.1980  0.1398
 4520TIP3    H135051   6.556   1.194  14.603  0.2791  0.0724  0.3851
 4520TIP3    H235052   6.640   1.084  14.542  0.5357 -0.1742  1.1586
 4521TIP3   OH235053   4.205   0.742  11.801  0.3942 -0.0685 -0.1171
 4521TIP3    H135054   4.143   0.763  11.732  0.3532 -1.3543 -0.4970
 4521TIP3    H235055   4.275   0.693  11.757  0.0297 -1.5016  0.8384
 4522TIP3   OH235056   1.138   6.264   4.779  0.2280 -0.2143  0.5134
 4522TIP3    H135057   1.101   6.180   4.751  0.2788 -0.3971  0.9820
 4522TIP3    H235058   1.069   6.303   4.833 -0.3414  0.6707 -0.7967
 4523TIP3   OH235059   5.995   5.786  15.551  0.1817  0.8032 -0.8190
 4523TIP3    H135060   5.987   5.784  15.455  2.0290  1.5138 -1.0428
 4523TIP3    H235061   6.077   5.832  15.566  1.4544 -1.8029  1.0228
 4524TIP3   OH235062   0.349   0.591  11.350  0.0332 -0.2619 -0.2269
 4524TIP3    H135063   0.426   0.634  11.314  0.1136  0.0253  0.2743
 4524TIP3    H235064   0.378   0.503  11.372  0.4206  0.0774  0.6466
 4525TIP3   OH235065   3.460   4.966   2.563  0.3836  0.0478  0.0447
 4525TIP3    H135066   3.421   4.995   2.481 -1.4678 -0.7140  0.5974
 4525TIP3    H235067   3.539   4.918   2.537  0.1179  0.2768 -1.2353
 4526TIP3   OH235068   3.661   6.718  15.089  0.1932 -0.6795  0.6652
 4526TIP3    H135069   3.611   6.742  15.167  0.2575 -1.9598  1.1091
 4526TIP3    H235070   3.611   6.648  15.048  1.0724 -1.2392  0.5327
 4527TIP3   OH235071   6.347   2.374   1.691  0.0434 -0.2500 -0.4216
 4527TIP3    H135072   6.285   2.302   1.687  0.1997 -0.4865  0.8914
 4527TIP3    H235073   6.403   2.354   1.767 -0.7695  1.9011  0.8309
 4528TIP3   OH235074   5.867   0.181   0.169  0.0711  0.5187 -0.2856
 4528TIP3    H135075   5.953   0.206   0.203 -0.0026  0.4047 -0.0154
 4528TIP3    H235076   5.863   0.086   0.182  0.3842  0.3405 -1.3729
 4529TIP3   OH235077   5.128   2.938   2.999 -0.5663  0.1490 -0.0450
 4529TIP3    H135078   5.212   2.894   3.014 -0.8967 -0.2483  0.6968
 4529TIP3    H235079   5.078   2.876   2.945 -0.1920  0.6279 -0.9741
 4530TIP3   OH235080   4.858   5.912  12.050  0.0790  0.3379  0.5047
 4530TIP3    H135081   4.866   5.902  11.956  0.3034  1.8562  0.3343
 4530TIP3    H235082   4.936   5.961  12.076  0.9101 -1.5519  1.7545
 4531TIP3   OH235083   0.715   0.337   1.945 -0.5492 -0.1028  0.4207
 4531TIP3    H135084   0.773   0.404   1.984  2.4647 -1.3956 -1.4298
 4531TIP3    H235085   0.713   0.266   2.009  0.2597 -0.1860  0.3657
 4532TIP3   OH235086   3.843   1.253   1.405  0.0731  0.1223 -0.3122
 4532TIP3    H135087   3.781   1.325   1.416  0.0107  0.3316 -1.8461
 4532TIP3    H235088   3.790   1.179   1.376  0.2186 -0.4196  0.7183
 4533TIP3   OH235089   1.559   3.698   2.387  0.5131 -0.3412  0.5012
 4533TIP3    H135090   1.589   3.782   2.352 -2.1405  0.1082 -0.9748
 4533TIP3    H235091   1.620   3.634   2.350  1.9671  0.7940  0.8280
 4534TIP3   OH235092   2.687   6.316  16.754 -0.1587  0.6605  0.4369
 4534TIP3    H135093   2.601   6.338  16.787  0.5159 -0.6937  3.4086
 4534TIP3    H235094   2.746   6.325  16.829  2.1824  0.8116 -1.2811
 4535TIP3   OH235095   2.710   6.739   6.623 -0.0241  0.0180  0.4496
 4535TIP3    H135096   2.624   6.702   6.641 -0.3546  0.8577  0.6272
 4535TIP3    H235097   2.699   6.834   6.635  1.0283  0.0992  0.9027
 4536TIP3   OH235098   6.252   3.250   2.991  0.7845  0.3568  0.6582
 4536TIP3    H135099   6.228   3.339   2.966  1.2548  0.7410  1.5231
 4536TIP3    H235100   6.202   3.194   2.932 -1.0772  1.1530  1.4060
 4537TIP3   OH235101   5.078   1.967   3.553 -0.2401 -0.0328  0.0502
 4537TIP3    H135102   5.011   1.901   3.571 -0.0874 -0.3125 -0.3857
 4537TIP3    H235103   5.085   2.017   3.635 -1.3889  0.3762 -0.0814
 4538TIP3   OH235104   6.235   3.722   5.340 -0.4411  0.1334 -0.6127
 4538TIP3    H135105   6.314   3.724   5.287  2.3832 -0.1865  3.1711
 4538TIP3    H235106   6.232   3.808   5.381 -1.2335 -0.3583  0.4065
 4539TIP3   OH235107   0.705   2.926   4.370 -0.0047 -0.8841 -0.2834
 4539TIP3    H135108   0.752   3.007   4.391 -1.9968  0.7943 -1.8185
 4539TIP3    H235109   0.747   2.895   4.290 -0.2944 -0.4050 -0.6310
 4540TIP3   OH235110   1.270   6.061  15.118  0.2571  0.0894 -0.5723
 4540TIP3    H135111   1.362   6.045  15.095  0.7325 -0.9023  1.6648
 4540TIP3    H235112   1.224   5.983  15.087  0.2181  0.4325 -1.3917
 4541TIP3   OH235113   1.790   2.442   4.613 -0.4783 -0.4624 -0.4877
 4541TIP3    H135114   1.754   2.488   4.689 -0.5265  1.4589 -1.5938
 4541TIP3    H235115   1.806   2.511   4.549  1.0190 -1.8203 -1.6773
 4542TIP3   OH235116   4.364   5.402  14.776 -0.0405  0.2807  0.0266
 4542TIP3    H135117   4.403   5.412  14.690 -0.9586 -0.7353 -0.5225
 4542TIP3    H235118   4.416   5.460  14.833  1.2345  0.1541 -0.9755
 4543TIP3   OH235119   4.553   0.508   4.665 -0.4630 -0.3960  0.1131
 4543TIP3    H135120   4.611   0.451   4.615 -0.7111  0.2245 -0.8894
 4543TIP3    H235121   4.611   0.554   4.726  0.1837  0.4893 -1.1264
 4544TIP3   OH235122   6.449   2.606   5.034 -0.2223 -0.6708 -0.0451
 4544TIP3    H135123   6.369   2.655   5.051  0.1556 -0.0971  0.1014
 4544TIP3    H235124   6.455   2.601   4.938 -1.4884 -2.4869 -0.0924
 4545TIP3   OH235125   0.988   6.095  15.540  0.4347  0.3932  0.5657
 4545TIP3    H135126   1.025   6.118  15.454 -0.7231 -0.0241 -0.0578
 4545TIP3    H235127   0.896   6.119  15.534 -0.3084 -2.1757  0.6945
 4546TIP3   OH235128   0.026   5.861   3.564  1.1641 -0.3665 -0.2952
 4546TIP3    H135129   0.045   5.952   3.543  2.5774 -0.3352  0.9089
 4546TIP3    H235130   0.086   5.810   3.509  1.7134 -0.4659  0.3757
 4547TIP3   OH235131   2.637   3.582  13.353  0.2151 -0.0941 -0.2737
 4547TIP3    H135132   2.726   3.610  13.335  0.2216  0.5205  0.6587
 4547TIP3    H235133   2.626   3.596  13.447  0.1206 -2.9690  0.2314
 4548TIP3   OH235134   6.734   2.580  15.420  0.0451 -0.1153  0.1818
 4548TIP3    H135135   6.751   2.584  15.514 -0.1138 -0.1639  0.2123
 4548TIP3    H235136   6.801   2.636  15.382 -0.3789  0.5645  0.3918
 4549TIP3   OH235137   0.143   6.672  15.418  0.3203 -0.0233 -0.8448
 4549TIP3    H135138   0.175   6.759  15.441 -1.5882  0.1767  1.5200
 4549TIP3    H235139   0.047   6.680  15.422  0.0887 -2.3151 -0.0421
 4550TIP3   OH235140   6.420   3.825   3.259  0.8851  0.3867  0.3057
 4550TIP3    H135141   6.505   3.784   3.278  0.2232 -0.7863  0.8494
 4550TIP3    H235142   6.436   3.879   3.182  2.1376  0.2213  0.4319
 4551TIP3   OH235143   6.812   1.030   0.739  0.5698 -0.1927 -0.2589
 4551TIP3    H135144   6.890   1.075   0.705  0.7574 -0.9327 -0.8270
 4551TIP3    H235145   6.773   0.988   0.662 -0.6331  0.5049 -0.0560
 4552TIP3   OH235146   4.143   1.554   0.203 -0.0623 -0.3093 -0.4636
 4552TIP3    H135147   4.194   1.477   0.230 -0.6658 -1.2717 -1.9270
 4552TIP3    H235148   4.074   1.561   0.268  0.5435 -0.4372  0.2041
 4553TIP3   OH235149   3.748   3.173   4.077 -0.4342 -0.9090 -0.6363
 4553TIP3    H135150   3.689   3.240   4.112 -0.4061 -1.5883  0.7766
 4553TIP3    H235151   3.833   3.194   4.114  0.1309 -0.2956 -2.1784
 4554TIP3   OH235152   2.951   5.993   3.671  0.1696 -0.2153  0.2630
 4554TIP3    H135153   2.903   6.020   3.750 -2.3975 -1.4200 -0.7407
 4554TIP3    H235154   2.963   6.073   3.621  0.2898  0.3041  1.1043
 4555TIP3   OH235155   0.613   2.938  14.969 -0.0682  0.4611  0.3119
 4555TIP3    H135156   0.685   2.969  14.915 -0.9140  2.4084  0.2362
 4555TIP3    H235157   0.534   2.975  14.929 -1.0668 -0.9658  0.8474
 4556TIP3   OH235158   2.328   2.794  14.133 -0.3406  0.1249  0.6176
 4556TIP3    H135159   2.373   2.758  14.057 -0.2595  1.7092 -0.1356
 4556TIP3    H235160   2.299   2.718  14.183  3.3424 -1.0285  1.3076
 4557TIP3   OH235161   1.948   4.083  16.279  0.1572  0.2549  0.0342
 4557TIP3    H135162   1.938   4.168  16.321  1.6423  0.9279 -0.9314
 4557TIP3    H235163   1.865   4.069  16.233 -1.3401 -0.2737  2.6312
 4558TIP3   OH235164   3.923   0.096   2.518 -0.1875 -0.7236 -0.2736
 4558TIP3    H135165   4.017   0.109   2.516 -0.3061  0.1259 -0.6086
 4558TIP3    H235166   3.895   0.106   2.427 -0.3502 -2.9965 -0.5317
 4559TIP3   OH235167   2.252   5.484   4.612 -0.1312 -0.2498 -0.1262
 4559TIP3    H135168   2.168   5.445   4.634  1.0214 -2.0971  1.2593
 4559TIP3    H235169   2.289   5.426   4.545  1.1069 -0.9434  1.1090
 4560TIP3   OH235170   3.311   4.361   2.837 -0.3317  0.0267 -0.3796
 4560TIP3    H135171   3.234   4.357   2.894 -1.0922 -1.8680 -1.4295
 4560TIP3    H235172   3.288   4.425   2.770  0.5817  2.2974  1.3710
 4561TIP3   OH235173   2.647   0.342   4.858 -0.2963  0.1571 -0.0160
 4561TIP3    H135174   2.663   0.297   4.941 -0.4438 -1.0431 -0.6050
 4561TIP3    H235175   2.733   0.342   4.814 -0.3931  0.0495 -0.2054
 4562TIP3   OH235176   5.717   1.674   2.266  0.4211  0.4881 -0.1733
 4562TIP3    H135177   5.803   1.646   2.235  2.0321  3.7539  0.8761
 4562TIP3    H235178   5.717   1.651   2.359 -0.5868 -0.9938 -0.5116
 4563TIP3   OH235179   5.878   5.269  11.133  0.3379 -0.4344 -0.2159
 4563TIP3    H135180   5.844   5.256  11.221  0.9885 -1.3111 -0.0688
 4563TIP3    H235181   5.872   5.182  11.092  0.5799 -0.1704 -0.8311
 4564TIP3   OH235182   4.014   0.163   0.163  0.6780 -0.0974  0.1479
 4564TIP3    H135183   4.079   0.117   0.109  0.3057  0.3348 -0.6696
 4564TIP3    H235184   4.049   0.156   0.252  2.2315  0.7669 -0.3628
 4565TIP3   OH235185   4.286   1.513   2.208  0.1052  0.0233  0.0763
 4565TIP3    H135186   4.356   1.523   2.272  1.2370 -1.3476 -0.8946
 4565TIP3    H235187   4.234   1.440   2.241  0.6533 -0.6442 -0.5056
 4566TIP3   OH235188   4.944   0.634  13.537 -0.0654 -0.5429  0.1919
 4566TIP3    H135189   4.912   0.603  13.622 -0.7592  0.1278  0.1909
 4566TIP3    H235190   4.869   0.627  13.479 -0.4701  1.6903  0.3472
 4567TIP3   OH235191   1.764   2.197   2.800  0.4579 -0.4162 -0.4172
 4567TIP3    H135192   1.800   2.138   2.734  1.0710 -1.9278  1.2075
 4567TIP3    H235193   1.669   2.181   2.798  0.2757  0.6243 -1.8931
 4568TIP3   OH235194   5.053   4.450  10.455 -0.0987  0.0951 -0.6344
 4568TIP3    H135195   4.996   4.423  10.526 -0.4182 -2.6154 -1.7934
 4568TIP3    H235196   4.998   4.505  10.399 -0.0456  1.6389  0.7718
 4569TIP3   OH235197   5.968   6.215  14.993  0.0922 -0.0165 -0.2745
 4569TIP3    H135198   5.903   6.160  15.037  0.9751 -1.2680 -0.4775
 4569TIP3    H235199   6.001   6.273  15.061 -0.2785 -0.2867  0.1418
 4570TIP3   OH235200   3.141   4.321  15.252 -0.5169  0.2194 -0.6043
 4570TIP3    H135201   3.210   4.290  15.192  1.0523 -0.1186  1.2795
 4570TIP3    H235202   3.164   4.412  15.270 -0.6090  0.1374 -0.0502
 4571TIP3   OH235203   4.731   0.348  15.025 -0.4010 -0.1403 -0.2071
 4571TIP3    H135204   4.784   0.397  14.962  3.8208 -3.2696  0.4346
 4571TIP3    H235205   4.669   0.298  14.972 -2.2138  2.7736 -1.0868
 4572TIP3   OH235206   4.001   1.931   0.938 -0.3954  0.2996  0.6712
 4572TIP3    H135207   3.942   1.964   0.870  1.0003  0.2776 -0.6045
 4572TIP3    H235208   3.966   1.966   1.020 -0.7310  2.3867 -0.3162
 4573TIP3   OH235209   6.057   4.660   1.835 -0.2852  0.0350  0.5059
 4573TIP3    H135210   6.010   4.712   1.769 -0.3832  0.6655  1.0609
 4573TIP3    H235211   6.067   4.574   1.795  0.8576  0.7742 -0.8948
 4574TIP3   OH235212   2.288   4.995   0.662 -0.2437 -0.3606  0.3555
 4574TIP3    H135213   2.239   5.061   0.710  0.8687  1.2065 -0.5934
 4574TIP3    H235214   2.297   5.030   0.573  2.1524 -0.7870  0.3523
 4575TIP3   OH235215   5.801   2.857   1.081  0.4019  0.0126 -0.0078
 4575TIP3    H135216   5.826   2.940   1.039  1.2904  0.2964  1.0370
 4575TIP3    H235217   5.826   2.790   1.017 -0.2560  0.5388 -0.8306
 4576TIP3   OH235218   1.406   5.357   4.594 -0.0365  0.3437  0.0032
 4576TIP3    H135219   1.360   5.277   4.571 -0.5866  1.1705 -1.9724
 4576TIP3    H235220   1.398   5.412   4.516  0.7386  2.1299  1.1363
 4577TIP3   OH235221   6.133   6.659   3.886  0.3352 -0.3966 -0.3988
 4577TIP3    H135222   6.084   6.664   3.967  0.9428 -2.6132  0.1721
 4577TIP3    H235223   6.218   6.697   3.906  1.2721 -2.9010  0.7343
 4578TIP3   OH235224   1.764   5.275  15.513  0.1733  0.4647  0.4616
 4578TIP3    H135225   1.841   5.293  15.459 -0.1555 -1.1277 -0.5798
 4578TIP3    H235226   1.797   5.218  15.583 -0.1565 -0.8787 -0.4310
 4579TIP3   OH235227   0.583   6.420  14.918 -0.0844  0.4478 -0.1708
 4579TIP3    H135228   0.548   6.497  14.874  0.1930  0.7879  0.1845
 4579TIP3    H235229   0.677   6.423  14.899 -0.2276 -0.3885 -1.0226
 4580TIP3   OH235230   3.572   4.589   3.944 -0.2838 -0.9999 -0.2028
 4580TIP3    H135231   3.589   4.683   3.931  1.5235 -1.2426  0.2518
 4580TIP3    H235232   3.563   4.554   3.855 -1.5162 -0.3305 -0.3678
 4581TIP3   OH235233   1.085   2.783   3.427 -0.3027 -0.1542  0.2811
 4581TIP3    H135234   1.038   2.765   3.508  0.6084 -1.0394  0.6198
 4581TIP3    H235235   1.017   2.782   3.360 -0.7182 -2.1831  0.6579
 4582TIP3   OH235236   1.826   3.579  13.864  0.2276 -0.2547 -0.1221
 4582TIP3    H135237   1.822   3.536  13.949 -1.3791  1.2946  0.6524
 4582TIP3    H235238   1.918   3.603  13.853  0.4154 -0.3109  1.2457
 4583TIP3   OH235239   2.761   6.438  14.415 -0.2494 -0.0667 -0.8575
 4583TIP3    H135240   2.812   6.360  14.438 -0.8969 -0.0342  0.8498
 4583TIP3    H235241   2.826   6.503  14.390  0.5736 -0.1304  0.9530
 4584TIP3   OH235242   2.628   2.147  16.020 -0.2210  0.1823 -0.4632
 4584TIP3    H135243   2.692   2.192  15.964 -0.0989  0.7757  0.1353
 4584TIP3    H235244   2.682   2.092  16.077 -0.3245 -0.1492 -0.6789
 4585TIP3   OH235245   5.733   0.203   0.481 -0.6944  0.0002  0.0435
 4585TIP3    H135246   5.742   0.248   0.565  0.7575 -0.4711  0.1825
 4585TIP3    H235247   5.785   0.123   0.492 -2.3898 -1.2248 -0.5270
 4586TIP3   OH235248   4.251   6.390  16.909  0.0205 -0.1837 -0.4830
 4586TIP3    H135249   4.299   6.392  16.992 -0.7118  0.4114 -0.0668
 4586TIP3    H235250   4.318   6.408  16.843  0.3287  0.9526  0.1195
 4587TIP3   OH235251   6.516   2.895   3.559  0.2204 -0.2232  0.2587
 4587TIP3    H135252   6.557   2.825   3.507  1.4363  1.1583 -0.7260
 4587TIP3    H235253   6.453   2.935   3.499 -1.1144 -0.9887  1.1025
 4588TIP3   OH235254   3.239   6.346  15.467 -0.2149 -0.3856  0.0146
 4588TIP3    H135255   3.324   6.321  15.432 -1.0511 -1.0983 -1.5844
 4588TIP3    H235256   3.214   6.423  15.416 -0.2341  0.2656  0.9724
 4589TIP3   OH235257   0.326   0.249   5.567 -0.0360  0.3800  0.3365
 4589TIP3    H135258   0.239   0.264   5.603  1.0188  2.0356  2.4841
 4589TIP3    H235259   0.314   0.249   5.472 -2.3219  0.8648  0.5803
 4590TIP3   OH235260   3.842   2.258   2.688 -0.1994 -0.1124 -0.2027
 4590TIP3    H135261   3.927   2.214   2.690  0.2522  0.5549 -2.3231
 4590TIP3    H235262   3.789   2.205   2.629 -0.8678  0.1709  0.1321
 4591TIP3   OH235263   5.943   2.137  12.836 -0.0750 -0.4401 -0.3544
 4591TIP3    H135264   5.974   2.123  12.926  2.5344  3.2854 -0.4522
 4591TIP3    H235265   5.981   2.065  12.786  1.4255 -0.6327  0.9804
 4592TIP3   OH235266   4.629   6.615   5.579  0.2085 -0.1790  0.0600
 4592TIP3    H135267   4.596   6.537   5.625 -0.5069 -0.3287 -0.6762
 4592TIP3    H235268   4.557   6.678   5.584  0.3719  0.0377 -0.2778
 4593TIP3   OH235269   5.033   0.845   4.258  1.2282  0.0915  0.1333
 4593TIP3    H135270   4.945   0.881   4.244  0.8445 -0.6981  0.4214
 4593TIP3    H235271   5.083   0.918   4.294  0.7766  0.6400 -0.3300
 4594TIP3   OH235272   3.691   6.597  14.701  0.0605 -0.0137 -0.1630
 4594TIP3    H135273   3.706   6.668  14.763  1.8037  0.4818 -1.1030
 4594TIP3    H235274   3.673   6.521  14.757 -2.1470  1.1391  0.8551
 4595TIP3   OH235275   5.361   4.395  11.645 -0.6836 -0.1881  0.0689
 4595TIP3    H135276   5.371   4.301  11.630  1.3967  0.1584 -1.1310
 4595TIP3    H235277   5.395   4.410  11.733  3.4227 -0.0507 -1.3430
 4596TIP3   OH235278   6.152   0.237  10.328 -0.3350  0.7787 -0.9915
 4596TIP3    H135279   6.153   0.203  10.239  3.7183  0.4949 -0.9783
 4596TIP3    H235280   6.144   0.159  10.384 -4.7698  1.0378 -0.8666
 4597TIP3   OH235281   1.048   4.905  16.425  0.0174  0.2576  0.0871
 4597TIP3    H135282   0.980   4.936  16.484 -0.3666  0.1537 -0.2934
 4597TIP3    H235283   1.002   4.847  16.364  0.6724 -0.9014  0.6546
 4598TIP3   OH235284   1.490   5.972  12.810  0.1803  0.0174 -0.6088
 4598TIP3    H135285   1.493   6.006  12.899 -1.7601 -0.6733 -0.2168
 4598TIP3    H235286   1.450   5.885  12.819 -1.7750  0.6481 -2.2760
 4599TIP3   OH235287   6.516   5.746   3.096  0.3019  0.6069 -0.5117
 4599TIP3    H135288   6.507   5.832   3.053  1.4182  0.5573 -0.8761
 4599TIP3    H235289   6.427   5.711   3.098 -0.2382  1.9633  0.0422
 4600TIP3   OH235290   2.519   2.922   2.417  0.1538  0.1749 -0.1831
 4600TIP3    H135291   2.524   2.923   2.322 -0.4390  0.4594 -0.2166
 4600TIP3    H235292   2.541   3.011   2.443 -0.4897  0.3126 -0.1029
 4601TIP3   OH235293   0.112   5.438   4.227 -0.2090  0.1836 -0.3957
 4601TIP3    H135294   0.201   5.425   4.260 -0.4036 -0.2006 -0.0086
 4601TIP3    H235295   0.056   5.394   4.291 -0.6426 -0.0265 -0.9084
 4602TIP3   OH235296   1.427   0.163   3.798 -0.5272  0.0437  0.5655
 4602TIP3    H135297   1.514   0.193   3.771  0.2778 -2.0601  0.6119
 4602TIP3    H235298   1.426   0.174   3.893  1.4414 -3.7037  1.2320
 4603TIP3   OH235299   3.497   3.175   0.274 -0.0921  0.3342  0.4501
 4603TIP3    H135300   3.519   3.159   0.366  0.6092 -1.5653  0.0016
 4603TIP3    H235301   3.514   3.268   0.261 -0.6704  0.7468  2.3503
 4604TIP3   OH235302   3.999   2.076  13.735 -0.2436 -0.5385 -0.3149
 4604TIP3    H135303   3.940   2.002  13.725 -0.0925 -0.4458 -2.2903
 4604TIP3    H235304   4.087   2.038  13.734 -0.1961 -0.4357 -0.1386
 4605TIP3   OH235305   6.365   3.826   0.041 -0.1268  0.1998 -0.3255
 4605TIP3    H135306   6.458   3.811   0.028 -0.1655 -0.3889  0.0407
 4605TIP3    H235307   6.323   3.781  -0.033 -0.0386  2.2318 -1.6967
 4606TIP3   OH235308   3.015   1.704   1.769  0.1465  0.5628 -0.1136
 4606TIP3    H135309   2.969   1.709   1.853 -1.3144 -0.5668 -0.7994
 4606TIP3    H235310   3.097   1.659   1.790  0.4046  1.4693  0.9242
 4607TIP3   OH235311   3.684   1.688  12.383  0.3571  0.5438  0.5062
 4607TIP3    H135312   3.712   1.650  12.300  0.6958 -0.3202  1.0159
 4607TIP3    H235313   3.719   1.778  12.381  0.5185  0.4710 -0.1986
 4608TIP3   OH235314   2.273   5.975   5.959 -0.6067 -0.1507 -0.2646
 4608TIP3    H135315   2.219   5.962   5.881  1.7792 -0.8877 -1.9000
 4608TIP3    H235316   2.295   5.886   5.988  0.0948  0.1331  0.1030
 4609TIP3   OH235317   4.246   1.341   4.597 -0.5215 -0.2091 -0.2593
 4609TIP3    H135318   4.250   1.437   4.590 -1.9503  0.1798  2.4788
 4609TIP3    H235319   4.205   1.312   4.516 -0.8721  1.6086 -0.7790
 4610TIP3   OH235320   1.607   3.228   1.136 -0.0854  0.0516  0.2799
 4610TIP3    H135321   1.605   3.144   1.089 -1.1494 -0.4553  1.1815
 4610TIP3    H235322   1.698   3.255   1.133  0.2143 -0.9740 -0.3185
 4611TIP3   OH235323   6.576   3.366   4.573  0.2899 -0.3051  0.1846
 4611TIP3    H135324   6.655   3.312   4.567 -0.3074 -1.1875  0.1761
 4611TIP3    H235325   6.543   3.351   4.662 -0.2576 -0.4907 -0.0495
 4612TIP3   OH235326   2.378   5.982   4.350  0.0690  0.1102 -0.2611
 4612TIP3    H135327   2.343   6.026   4.428  1.5779  0.4379  0.2521
 4612TIP3    H235328   2.473   5.987   4.360  0.2791 -1.2498 -1.3464
 4613TIP3   OH235329   3.648   3.614   2.732  0.2710  0.2306  0.1895
 4613TIP3    H135330   3.569   3.653   2.770  0.2766 -0.6860  1.2121
 4613TIP3    H235331   3.633   3.520   2.740  0.6193  0.0126 -1.4384
 4614TIP3   OH235332   0.962   6.585   4.762  0.5263  0.0110 -0.5642
 4614TIP3    H135333   0.989   6.500   4.729  0.5640 -0.3056  0.2645
 4614TIP3    H235334   0.877   6.600   4.721  0.0516 -0.8871  0.0534
 4615TIP3   OH235335   1.215   3.546  17.006 -0.5039  0.4976  0.0550
 4615TIP3    H135336   1.172   3.606  17.067 -2.2210 -0.5954 -0.0216
 4615TIP3    H235337   1.263   3.486  17.063 -2.1015 -0.5197  0.3704
 4616TIP3   OH235338   2.438   6.623   2.181 -0.1029 -0.2107 -0.2847
 4616TIP3    H135339   2.404   6.579   2.102  2.0733 -2.2826 -0.1902
 4616TIP3    H235340   2.450   6.714   2.154 -0.7059 -0.5732 -1.9202
 4617TIP3   OH235341   2.994   5.160   5.599 -0.3807  0.1624 -0.2845
 4617TIP3    H135342   3.030   5.193   5.517 -0.9536 -0.6405 -0.8793
 4617TIP3    H235343   2.931   5.092   5.572 -1.2658  0.5265  0.7643
 4618TIP3   OH235344   4.559   1.491   3.448  0.6845 -0.4484 -0.4600
 4618TIP3    H135345   4.584   1.548   3.375 -0.9796 -0.7981 -1.3306
 4618TIP3    H235346   4.474   1.455   3.424 -0.7498  0.6915  2.3739
 4619TIP3   OH235347   0.405   4.823   3.140 -0.4529  0.2717 -0.6911
 4619TIP3    H135348   0.489   4.806   3.182  0.2171  2.8347 -0.8423
 4619TIP3    H235349   0.340   4.800   3.207  0.4128 -0.0179  0.0783
 4620TIP3   OH235350   4.561   4.654  12.500 -0.1076  0.1289  0.3661
 4620TIP3    H135351   4.537   4.563  12.482  2.3514 -0.5961  0.3849
 4620TIP3    H235352   4.478   4.699  12.511 -1.4277 -1.8513 -0.9093
 4621TIP3   OH235353   1.781   1.392  14.880  0.1826  0.4736  0.2175
 4621TIP3    H135354   1.722   1.374  14.806  1.5563  0.8084 -1.0114
 4621TIP3    H235355   1.850   1.446  14.842  2.8386 -2.1870  0.8582
 4622TIP3   OH235356   3.709   4.569  11.181  0.0576  0.5230  0.3323
 4622TIP3    H135357   3.707   4.664  11.171  1.6760  0.5577  0.0603
 4622TIP3    H235358   3.617   4.542  11.170 -0.3040  1.9594 -0.4977
 4623TIP3   OH235359   0.802   4.578  16.332 -0.1117 -0.0955 -0.0960
 4623TIP3    H135360   0.776   4.491  16.364 -0.0033 -0.1673 -0.2024
 4623TIP3    H235361   0.897   4.581  16.347 -0.2596  0.3956  0.8373
 4624TIP3   OH235362   3.868   6.205  13.680 -0.0618 -0.0077  0.4354
 4624TIP3    H135363   3.836   6.177  13.766  0.6103  0.9555  1.0223
 4624TIP3    H235364   3.963   6.203  13.688  0.0302  2.0302  0.4133
 4625TIP3   OH235365   4.384   2.153  13.260  0.4896  0.5936 -1.0063
 4625TIP3    H135366   4.475   2.182  13.260  0.0281  2.1584  0.3085
 4625TIP3    H235367   4.333   2.231  13.239 -0.5988 -0.1263 -1.1560
 4626TIP3   OH235368   5.534   4.805   5.197 -0.2739 -0.2746 -0.1466
 4626TIP3    H135369   5.580   4.870   5.250 -0.1686  0.5244 -1.1685
 4626TIP3    H235370   5.604   4.749   5.162 -0.3233 -0.6589  0.3588
 4627TIP3   OH235371   4.612   5.444  12.519 -0.2914 -0.0912 -0.1780
 4627TIP3    H135372   4.692   5.452  12.571  0.1943  0.1818 -0.9431
 4627TIP3    H235373   4.624   5.508  12.448 -2.4732  2.1501  1.3112
 4628TIP3   OH235374   3.285   6.506   3.005 -0.3092  0.0369  0.3433
 4628TIP3    H135375   3.196   6.491   2.975 -1.0121  2.4896  1.0235
 4628TIP3    H235376   3.327   6.556   2.934  0.7035 -1.4308 -0.1508
 4629TIP3   OH235377   2.348   0.388  17.051  0.2656 -0.2663 -0.8194
 4629TIP3    H135378   2.288   0.375  16.978 -1.3325  0.2409  0.3593
 4629TIP3    H235379   2.298   0.364  17.129  1.6573 -0.0218  0.1972
 4630TIP3   OH235380   1.068   1.309   4.091 -0.2843 -0.7907  0.0168
 4630TIP3    H135381   1.079   1.248   4.164  0.1255 -0.7306  0.0084
 4630TIP3    H235382   0.974   1.322   4.085 -0.4891 -2.3121 -0.7047
 4631TIP3   OH235383   1.935   6.352   0.794  0.1728 -0.7920  0.3428
 4631TIP3    H135384   1.877   6.379   0.865  2.8118 -0.9849  2.8130
 4631TIP3    H235385   1.931   6.257   0.795 -1.9815 -0.8057 -1.8893
 4632TIP3   OH235386   0.953   5.935   4.281  0.1926  0.0538 -0.1832
 4632TIP3    H135387   0.964   5.898   4.368 -1.2177  0.4881  0.1992
 4632TIP3    H235388   0.900   5.870   4.234  0.1225  0.2716 -0.4047
 4633TIP3   OH235389   2.226   4.686  16.999  0.0480  0.1645  0.3479
 4633TIP3    H135390   2.163   4.616  17.013 -0.5292  0.8758  1.4320
 4633TIP3    H235391   2.245   4.683  16.905 -0.8741 -0.6651  0.1719
 4634TIP3   OH235392   6.417   1.880  16.792  0.2604  0.2174 -0.2186
 4634TIP3    H135393   6.330   1.888  16.832 -0.1796 -0.0667 -1.0821
 4634TIP3    H235394   6.426   1.960  16.739  0.3843  0.0966 -0.3794
 4635TIP3   OH235395   1.661   5.633   0.398 -0.1269  0.3639  0.0247
 4635TIP3    H135396   1.641   5.689   0.324 -3.1542 -2.0634 -1.1935
 4635TIP3    H235397   1.621   5.676   0.473 -2.8104 -0.2165 -0.9653
 4636TIP3   OH235398   1.829   2.239  11.617  0.0385 -0.5846 -0.2279
 4636TIP3    H135399   1.743   2.273  11.592  0.2943  0.1984 -0.0638
 4636TIP3    H235400   1.810   2.154  11.657 -0.5809 -0.7856 -0.9229
 4637TIP3   OH235401   5.253   0.022  15.297 -0.4403 -0.0793 -0.0498
 4637TIP3    H135402   5.180  -0.012  15.245 -1.8601  1.0273  1.1488
 4637TIP3    H235403   5.268   0.110  15.264 -0.4735  0.1507  0.5444
 4638TIP3   OH235404   3.494   1.060  12.596  0.1941 -0.8029 -0.1909
 4638TIP3    H135405   3.550   1.010  12.537  0.0081  0.0531 -1.1142
 4638TIP3    H235406   3.408   1.059  12.554  0.3029  0.7193 -0.5102
 4639TIP3   OH235407   1.850   2.919   2.590 -0.5126 -0.2869  0.0527
 4639TIP3    H135408   1.820   2.879   2.671  0.2128 -0.4988  0.2188
 4639TIP3    H235409   1.906   2.991   2.618 -1.0729  0.2867 -0.2553
 4640TIP3   OH235410   1.225   5.074  14.373 -0.2060 -0.0276 -0.3324
 4640TIP3    H135411   1.155   5.099  14.433 -0.2293  0.5460 -0.5878
 4640TIP3    H235412   1.203   5.118  14.291  0.6588  0.4969 -0.2999
 4641TIP3   OH235413   4.794   0.402   1.532 -0.0879  0.6403  0.1905
 4641TIP3    H135414   4.794   0.413   1.437 -0.0296 -1.6462 -0.1241
 4641TIP3    H235415   4.712   0.357   1.552  0.7977 -0.7103  0.9386
 4642TIP3   OH235416   1.837   6.636   2.071  0.1844 -0.1278  0.1658
 4642TIP3    H135417   1.788   6.718   2.067  1.5035  0.6533 -1.6720
 4642TIP3    H235418   1.771   6.568   2.061 -0.7276  0.8205 -0.4330
 4643TIP3   OH235419   4.245   2.830   5.208 -0.0326 -0.6085 -0.9547
 4643TIP3    H135420   4.226   2.798   5.120 -0.5190 -3.7051  0.1459
 4643TIP3    H235421   4.169   2.803   5.260  0.9113 -0.2304  0.6861
 4644TIP3   OH235422   1.673   4.338  15.613 -0.6338 -0.1932 -0.4478
 4644TIP3    H135423   1.745   4.369  15.668  0.6887  2.3236 -3.2783
 4644TIP3    H235424   1.700   4.251  15.585  1.0439  0.4194 -0.8745
 4645TIP3   OH235425   3.138   0.085   2.270  0.1946 -0.3341  0.3604
 4645TIP3    H135426   3.074   0.156   2.277 -0.6681 -1.2156  1.8949
 4645TIP3    H235427   3.161   0.083   2.177 -0.1731  1.5691  0.1780
 4646TIP3   OH235428   6.050   5.226   5.830 -0.8285 -0.0360  0.3415
 4646TIP3    H135429   6.121   5.230   5.894  2.1635  0.5712 -2.7043
 4646TIP3    H235430   6.012   5.139   5.840  1.9581 -1.3132  0.6212
 4647TIP3   OH235431   3.783   1.417   6.410  0.0506 -0.3836  0.7177
 4647TIP3    H135432   3.777   1.415   6.314 -0.2656  0.2126  0.7192
 4647TIP3    H235433   3.745   1.502   6.434  3.4464  1.1676  1.1225
 4648TIP3   OH235434   5.364   3.221  10.711  0.2722  0.3223 -0.1269
 4648TIP3    H135435   5.310   3.222  10.632  0.5777 -0.1985 -0.3469
 4648TIP3    H235436   5.310   3.263  10.778 -1.1406 -1.7747  0.1337
 4649TIP3   OH235437   3.565   1.886   6.131  0.3798 -0.5410  0.0408
 4649TIP3    H135438   3.486   1.893   6.184 -1.3440 -2.0838 -2.1353
 4649TIP3    H235439   3.593   1.976   6.116 -0.4324 -0.0051  1.5862
 4650TIP3   OH235440   1.417   6.757   2.671  0.1414  0.3636  0.9879
 4650TIP3    H135441   1.326   6.741   2.696 -0.8567 -0.7257 -2.6740
 4650TIP3    H235442   1.463   6.675   2.692 -0.8650 -0.8667 -1.2809
 4651TIP3   OH235443   6.759   4.328  13.360 -1.2080 -0.0156 -0.1588
 4651TIP3    H135444   6.692   4.264  13.383 -2.5256  2.1838  2.7552
 4651TIP3    H235445   6.790   4.362  13.444  1.1943  1.4439 -1.5071
 4652TIP3   OH235446   6.176   4.848  16.533 -0.4002 -0.8336 -0.0499
 4652TIP3    H135447   6.238   4.919  16.517 -1.8911  0.4809 -0.3020
 4652TIP3    H235448   6.222   4.769  16.507  1.2173  0.0743 -0.0330
 4653TIP3   OH235449   6.335   5.140  15.000 -0.3502  0.2307  0.2930
 4653TIP3    H135450   6.395   5.203  14.960 -2.5819  1.5394 -1.2487
 4653TIP3    H235451   6.281   5.193  15.059 -1.3808 -0.4736  0.0020
 4654TIP3   OH235452   6.585   1.531   0.536  0.3250 -0.2742 -0.5054
 4654TIP3    H135453   6.596   1.557   0.444  0.9306 -0.0250 -0.3686
 4654TIP3    H235454   6.617   1.441   0.539 -0.5736 -0.6089 -0.7221
 4655TIP3   OH235455   4.290   6.048  13.116 -0.6182  0.3682 -0.8413
 4655TIP3    H135456   4.366   6.054  13.059 -0.0076  0.8352  0.0050
 4655TIP3    H235457   4.258   6.138  13.124 -0.7985  0.2829 -0.5902
 4656TIP3   OH235458   4.291   2.649   1.182  0.1491  0.1969 -0.0382
 4656TIP3    H135459   4.258   2.616   1.266 -0.9564  3.3790  0.9230
 4656TIP3    H235460   4.333   2.733   1.204  0.9077  0.5502 -2.5300
 4657TIP3   OH235461   0.560   6.288   2.782  0.4234  0.0243 -0.0319
 4657TIP3    H135462   0.477   6.293   2.829  0.1513 -1.2740 -0.3275
 4657TIP3    H235463   0.565   6.370   2.733 -2.1090 -0.9845 -2.2584
 4658TIP3   OH235464   0.974   4.635   2.954 -0.0285  0.0403  0.3878
 4658TIP3    H135465   0.997   4.586   2.876 -0.9003  0.7924 -0.3637
 4658TIP3    H235466   1.051   4.690   2.971 -0.2991  0.8100 -0.7172
 4659TIP3   OH235467   4.524   0.282   2.615 -0.0866  0.0391  0.0281
 4659TIP3    H135468   4.574   0.363   2.629  0.4848 -0.5007  1.2954
 4659TIP3    H235469   4.539   0.231   2.695 -0.3164 -1.3901 -0.8111
 4660TIP3   OH235470   5.051   4.813   3.502 -0.4014 -0.0774  0.7268
 4660TIP3    H135471   5.050   4.763   3.421  0.9934 -0.9290  1.2003
 4660TIP3    H235472   4.968   4.791   3.545 -0.4946 -0.7746  0.2115
 4661TIP3   OH235473   4.922   5.068   4.304 -0.4855 -0.0524 -0.1690
 4661TIP3    H135474   4.953   5.096   4.390 -1.1423  0.2531 -0.0260
 4661TIP3    H235475   4.912   4.973   4.313 -0.1199 -0.0793 -0.0471
 4662TIP3   OH235476   6.780   0.139  15.694 -0.0975 -0.0889  0.4217
 4662TIP3    H135477   6.727   0.068  15.656  0.8936 -1.5936  1.7264
 4662TIP3    H235478   6.718   0.190  15.746 -0.4749 -1.2798  1.1910
 4663TIP3   OH235479   0.618   4.853   3.590 -0.6939 -0.0392  0.3536
 4663TIP3    H135480   0.684   4.920   3.607  0.4887 -0.8071 -0.9677
 4663TIP3    H235481   0.571   4.885   3.513 -2.0473  0.6046  1.4109
 4664TIP3   OH235482   4.059   4.043  11.725  0.0463  0.0825  0.4745
 4664TIP3    H135483   4.021   4.046  11.813  1.5100  2.8128  1.1228
 4664TIP3    H235484   4.153   4.042  11.740  0.3292  0.8610 -1.0755
 4665TIP3   OH235485   3.798   2.217  16.814 -0.9112  0.0131  0.4170
 4665TIP3    H135486   3.876   2.171  16.783 -1.1799  1.0027 -1.9558
 4665TIP3    H235487   3.810   2.224  16.909  0.6955 -1.9609  0.4192
 4666TIP3   OH235488   2.410   5.064  17.143 -0.7447  0.1604  0.0100
 4666TIP3    H135489   2.483   5.004  17.129 -0.4097  0.5166  0.2095
 4666TIP3    H235490   2.410   5.120  17.065  1.0157  2.0358  1.2524
 4667TIP3   OH235491   6.476   1.690  14.805  0.0914  0.3958  0.5243
 4667TIP3    H135492   6.549   1.630  14.823  0.2165  0.4645  0.2552
 4667TIP3    H235493   6.431   1.650  14.730  0.3716  0.8132  0.1336
 4668TIP3   OH235494   3.302   1.720  13.033 -0.1534  0.3425 -0.1007
 4668TIP3    H135495   3.297   1.685  12.944 -0.9528 -0.8683  0.3908
 4668TIP3    H235496   3.395   1.726  13.052  0.0211  0.6840 -1.0469
 4669TIP3   OH235497   3.677   1.640  13.464 -0.1435  0.2435 -0.0199
 4669TIP3    H135498   3.591   1.664  13.498 -0.1944 -0.2578  0.2206
 4669TIP3    H235499   3.659   1.598  13.380 -0.0528  1.0569 -0.4548
 4670TIP3   OH235500   1.049   0.562   3.543 -0.2896  0.1945  0.5952
 4670TIP3    H135501   1.082   0.533   3.629 -2.8867  0.7936  1.8966
 4670TIP3    H235502   1.120   0.542   3.482  1.3458 -0.9989  2.7501
 4671TIP3   OH235503   0.460   3.534  14.326  0.7467  0.4149  0.1894
 4671TIP3    H135504   0.552   3.520  14.305  0.6377 -0.0710  0.0211
 4671TIP3    H235505   0.421   3.567  14.245  0.8146  0.8176  0.3205
 4672TIP3   OH235506   3.636   2.679   2.488  0.3663  0.4362  0.0994
 4672TIP3    H135507   3.666   2.768   2.506 -0.0734  0.5157  0.4644
 4672TIP3    H235508   3.607   2.646   2.573  0.7932 -0.1586  0.0156
 4673TIP3   OH235509   0.372   4.736   5.199 -0.1256  0.3414  0.2604
 4673TIP3    H135510   0.290   4.773   5.234 -0.6816 -1.1676  0.6353
 4673TIP3    H235511   0.346   4.696   5.116  0.5804  1.2538 -0.4165
 4674TIP3   OH235512   6.556   1.480  14.205 -0.2403  0.7021 -0.2289
 4674TIP3    H135513   6.586   1.527  14.127  1.1510 -2.0858 -1.5296
 4674TIP3    H235514   6.475   1.436  14.178  0.6626 -0.9146 -0.4488
 4675TIP3   OH235515   0.467   5.388   2.579 -0.4369 -0.1655  0.0900
 4675TIP3    H135516   0.451   5.296   2.602 -2.3303  0.3950  1.2116
 4675TIP3    H235517   0.400   5.408   2.514  0.5301  0.2038 -0.8153
 4676TIP3   OH235518   5.541   5.277   3.831 -0.4740 -0.0823 -0.5734
 4676TIP3    H135519   5.627   5.238   3.812 -0.1667  0.6453 -0.7062
 4676TIP3    H235520   5.484   5.202   3.846  0.4768 -0.5574  0.8469
 4677TIP3   OH235521   1.444   0.617  11.262 -0.3087  0.3717  0.2032
 4677TIP3    H135522   1.355   0.621  11.228 -0.7891  0.0998  1.4125
 4677TIP3    H235523   1.459   0.525  11.280  1.1354  0.0055 -2.2893
 4678TIP3   OH235524   3.195   3.724  16.846  0.5147  0.0937 -0.2372
 4678TIP3    H135525   3.099   3.732  16.840  0.4164  0.5464  1.4421
 4678TIP3    H235526   3.215   3.644  16.799 -0.6216  0.3026 -1.1433
 4679TIP3   OH235527   1.748   6.378  17.063 -0.4394  0.1637  0.0812
 4679TIP3    H135528   1.778   6.292  17.093  0.4185  0.2025 -0.5983
 4679TIP3    H235529   1.828   6.430  17.058 -1.0150  1.1942  1.0324
 4680TIP3   OH235530   3.237   5.516   5.792  1.1364 -0.6552 -0.2468
 4680TIP3    H135531   3.235   5.561   5.877  1.5444 -1.1008  0.0087
 4680TIP3    H235532   3.229   5.586   5.727 -1.8464 -0.4972  0.1730
 4681TIP3   OH235533   4.851   0.490  15.552 -0.0268 -0.3372  0.4697
 4681TIP3    H135534   4.797   0.427  15.600 -2.1950  0.4656 -0.7918
 4681TIP3    H235535   4.815   0.489  15.464  0.5975  1.8665  0.1506
 4682TIP3   OH235536   5.823   1.351  16.081 -0.0696 -0.1726  0.9698
 4682TIP3    H135537   5.788   1.265  16.061  0.1147 -0.2414  0.9424
 4682TIP3    H235538   5.769   1.412  16.031 -0.5060 -0.2323  1.3540
 4683TIP3   OH235539   2.575   0.793  14.652  0.2209 -0.3946  0.1263
 4683TIP3    H135540   2.624   0.741  14.588 -1.1596 -1.2239 -0.2973
 4683TIP3    H235541   2.541   0.867  14.602 -2.1672 -1.8415 -0.5731
 4684TIP3   OH235542   5.507   5.051  16.379  0.4983  0.2151  0.1124
 4684TIP3    H135543   5.549   5.002  16.450 -1.6492 -0.5487  0.9518
 4684TIP3    H235544   5.490   5.137  16.416  0.7874  0.3207 -0.0057
 4685TIP3   OH235545   3.238   4.009   4.175 -0.1333  0.2246 -0.0429
 4685TIP3    H135546   3.281   4.052   4.101 -1.3155  0.2463 -0.7513
 4685TIP3    H235547   3.219   4.079   4.236  0.3579  0.2958  0.0266
 4686TIP3   OH235548   0.560   1.939  14.326  0.0735  0.0429 -0.0727
 4686TIP3    H135549   0.544   2.032  14.337  1.1681  0.3887 -1.1525
 4686TIP3    H235550   0.566   1.905  14.416 -0.8517  0.8922  0.3278
 4687TIP3   OH235551   4.053   4.406   3.565 -0.2190 -0.3131  0.3339
 4687TIP3    H135552   4.054   4.332   3.626 -1.3924  0.3913  1.2541
 4687TIP3    H235553   4.043   4.365   3.479  0.5615 -1.2840  0.6891
 4688TIP3   OH235554   0.380   2.910  10.620  0.5292  0.6962 -0.2452
 4688TIP3    H135555   0.408   2.868  10.539  1.5615  0.6132  0.1480
 4688TIP3    H235556   0.424   2.995  10.620  1.5408  0.1984  0.8097
 4689TIP3   OH235557   0.741   5.557   2.928  0.0019 -0.5130  0.2824
 4689TIP3    H135558   0.744   5.640   2.880 -1.9316  0.3242  1.4743
 4689TIP3    H235559   0.767   5.579   3.017 -2.1621 -0.7534  1.0416
 4690TIP3   OH235560   0.927   4.827   1.997  0.0178  0.4566  0.1743
 4690TIP3    H135561   0.950   4.813   1.905  1.6555  1.6213  0.3584
 4690TIP3    H235562   0.832   4.839   1.997  0.1044  1.4086 -1.5042
 4691TIP3   OH235563   5.652   3.376  16.246 -0.3529  0.1488  0.0121
 4691TIP3    H135564   5.649   3.417  16.159 -0.7471 -0.7500 -0.4049
 4691TIP3    H235565   5.567   3.333  16.255  0.1000 -0.6662  0.3969
 4692TIP3   OH235566   1.785   6.109  17.134  0.0349  0.3646 -0.2845
 4692TIP3    H135567   1.880   6.110  17.145 -0.1054 -0.3484  1.1996
 4692TIP3    H235568   1.751   6.070  17.215 -1.5320  0.6807 -0.7450
 4693TIP3   OH235569   3.674   3.598   3.779 -0.1686  0.5179 -0.3458
 4693TIP3    H135570   3.615   3.523   3.773  0.0207  0.3342  0.0747
 4693TIP3    H235571   3.631   3.658   3.840  0.2662  0.2030  0.2830
 4694TIP3   OH235572   5.024   3.955  12.492  0.2456 -0.2455 -0.4486
 4694TIP3    H135573   4.961   3.888  12.516 -1.4381  1.1343 -0.8582
 4694TIP3    H235574   5.012   3.967  12.397  1.3660 -0.1730 -0.6068
 4695TIP3   OH235575   4.971   3.783   1.054 -0.1734  0.2101  0.1139
 4695TIP3    H135576   4.990   3.837   0.977 -0.5927  0.7318  0.3652
 4695TIP3    H235577   4.914   3.714   1.021 -2.6719  1.9834  0.3982
 4696TIP3   OH235578   6.457   4.511  11.111  0.2281  0.1872  0.7327
 4696TIP3    H135579   6.489   4.507  11.201  0.3775 -0.8157  0.6521
 4696TIP3    H235580   6.478   4.599  11.082  1.2894  0.1394  1.2815
 4697TIP3   OH235581   1.546   3.339   4.278 -0.4395  0.3803  0.0593
 4697TIP3    H135582   1.597   3.275   4.228 -0.7172  1.3840 -1.5707
 4697TIP3    H235583   1.455   3.317   4.257 -0.6236 -0.1570  1.3746
 4698TIP3   OH235584   2.584   0.725  12.202  0.2784  0.2748  0.3272
 4698TIP3    H135585   2.620   0.673  12.130  0.3732 -1.2371  1.4341
 4698TIP3    H235586   2.554   0.806  12.160  2.7444  0.5853 -1.0117
 4699TIP3   OH235587   2.296   2.789   3.165  0.0973 -0.2520 -0.5434
 4699TIP3    H135588   2.292   2.884   3.151 -1.1879 -0.5199 -2.3302
 4699TIP3    H235589   2.347   2.755   3.092 -1.0586 -1.0814 -1.0104
 4700TIP3   OH235590   2.696   3.374  15.441 -0.4982 -0.2557  0.2267
 4700TIP3    H135591   2.653   3.328  15.369 -0.3897  0.5035 -0.3368
 4700TIP3    H235592   2.737   3.451  15.400  2.4185 -1.5362  0.4964
 4701TIP3   OH235593   5.241   3.134  15.766  0.3995 -0.2489  0.0865
 4701TIP3    H135594   5.214   3.074  15.697 -0.9332 -0.5316  0.8225
 4701TIP3    H235595   5.299   3.082  15.822  1.0403 -0.1797 -0.5084
 4702TIP3   OH235596   1.378   0.650   0.474  0.6959  0.5308  0.6183
 4702TIP3    H135597   1.324   0.690   0.541 -1.1675 -1.6609  0.5279
 4702TIP3    H235598   1.334   0.569   0.451  2.0129  0.4635 -2.2571
 4703TIP3   OH235599   5.184   0.074  12.339  0.1564  0.0196 -0.3932
 4703TIP3    H135600   5.234   0.079  12.420 -0.7687 -0.1071  0.1995
 4703TIP3    H235601   5.120   0.145  12.345 -2.0576 -1.9187  0.5090
 4704TIP3   OH235602   6.597   5.730  14.994  0.3475 -0.3298  0.2054
 4704TIP3    H135603   6.542   5.711  15.070 -0.5071  3.9180  0.9313
 4704TIP3    H235604   6.539   5.716  14.919 -0.5856  0.4575  0.7380
 4705TIP3   OH235605   6.469   1.663  11.414  0.2626 -0.1073  0.4044
 4705TIP3    H135606   6.397   1.689  11.473  0.6719 -1.3156  1.4724
 4705TIP3    H235607   6.461   1.568  11.407  1.9435 -0.3022  0.8079
 4706TIP3   OH235608   3.035   1.878   2.048  0.2559 -0.1884 -0.0894
 4706TIP3    H135609   3.065   1.888   1.958  2.5613  3.0026  0.8686
 4706TIP3    H235610   2.976   1.951   2.062 -0.3314 -0.8282  0.9408
 4707TIP3   OH235611   4.886   1.648   4.452 -0.2288  0.4179  0.2539
 4707TIP3    H135612   4.867   1.690   4.368 -1.2495  3.5137  1.8757
 4707TIP3    H235613   4.860   1.556   4.439 -0.2509  0.7497 -2.7957
 4708TIP3   OH235614   0.156   4.470  14.309  0.0806  0.6784 -0.6934
 4708TIP3    H135615   0.131   4.539  14.248 -1.0879  2.7317  1.9328
 4708TIP3    H235616   0.093   4.477  14.381  2.7998  0.0629  1.9472
 4709TIP3   OH235617   4.835   0.363   2.172  0.4272  0.2209  0.4843
 4709TIP3    H135618   4.743   0.355   2.196  0.5684  0.8730  1.3243
 4709TIP3    H235619   4.835   0.388   2.080 -0.1680 -1.9179 -0.1487
 4710TIP3   OH235620   3.506   2.353  11.897 -0.4126 -0.0413 -0.0282
 4710TIP3    H135621   3.420   2.344  11.937 -1.0211 -3.1492 -1.7693
 4710TIP3    H235622   3.564   2.375  11.971 -2.6439  2.6262  1.1048
 4711TIP3   OH235623   4.885   6.740   1.346  0.4814 -0.2417  0.0565
 4711TIP3    H135624   4.814   6.680   1.368 -2.2726  2.2032 -1.5547
 4711TIP3    H235625   4.928   6.699   1.270  0.9318 -1.7794  1.0940
 4712TIP3   OH235626   4.489   2.517   6.487  0.0023  0.4655  0.7345
 4712TIP3    H135627   4.553   2.461   6.444 -0.7021  0.0071  0.2468
 4712TIP3    H235628   4.508   2.509   6.580  0.6454  0.3318  0.5953
 4713TIP3   OH235629   6.640   4.926  14.989  0.0616  0.4917 -0.0798
 4713TIP3    H135630   6.710   4.908  15.052 -0.2236 -0.9423 -0.1268
 4713TIP3    H235631   6.675   4.893  14.905 -0.7120 -0.4171 -0.0653
 4714TIP3   OH235632   1.974   0.234   0.534  0.1451  0.6228 -0.0789
 4714TIP3    H135633   2.065   0.230   0.564  0.5418  0.2598 -1.2324
 4714TIP3    H235634   1.961   0.325   0.509  0.1828  0.6821  0.1173
 4715TIP3   OH235635   5.777   4.613   5.411  0.1913 -0.4234  0.5064
 4715TIP3    H135636   5.745   4.557   5.341  1.7071  0.0607 -0.6025
 4715TIP3    H235637   5.871   4.599   5.414  0.5760  1.7399  0.4514
 4716TIP3   OH235638   1.345   5.869  13.901  0.1053 -0.1315  0.6036
 4716TIP3    H135639   1.429   5.915  13.910  0.3416 -0.2639 -0.6851
 4716TIP3    H235640   1.357   5.812  13.825 -1.3978  0.4159 -0.0866
 4717TIP3   OH235641   0.907   0.767   0.298 -0.0911  0.4965 -0.2343
 4717TIP3    H135642   0.822   0.761   0.342  0.4252  0.0200  0.7325
 4717TIP3    H235643   0.933   0.676   0.282  0.8917  0.5727  0.7985
 4718TIP3   OH235644   6.324   6.504  14.591  0.5342  0.2120 -0.1309
 4718TIP3    H135645   6.353   6.414  14.604 -0.0227 -0.3084 -2.1869
 4718TIP3    H235646   6.232   6.504  14.618  0.0938 -0.2398 -1.5774
 4719TIP3   OH235647   5.778   2.535   2.979 -0.4225 -0.1707 -0.0081
 4719TIP3    H135648   5.838   2.463   2.999 -0.4605 -0.8433 -2.1148
 4719TIP3    H235649   5.697   2.491   2.952 -0.1968  0.5898 -2.0914
 4720TIP3   OH235650   3.472   2.848   6.550  0.1443  0.0883 -0.4207
 4720TIP3    H135651   3.465   2.923   6.491 -1.1582  2.1579  2.1311
 4720TIP3    H235652   3.555   2.861   6.596  1.0334 -1.3770 -1.5094
 4721TIP3   OH235653   1.367   0.792   3.448 -0.4971 -0.4320 -0.0547
 4721TIP3    H135654   1.289   0.823   3.496  0.9105  2.9469  0.3460
 4721TIP3    H235655   1.440   0.815   3.505  0.8958 -3.6898 -0.3468
 4722TIP3   OH235656   4.930   0.017   0.356 -0.3183 -0.1582  0.0852
 4722TIP3    H135657   4.992  -0.044   0.317 -1.3747 -1.7453  0.7504
 4722TIP3    H235658   4.945   0.100   0.311  0.9935 -0.9752 -1.0507
 4723TIP3   OH235659   3.146   3.678   1.144  0.4680  0.1544 -0.4322
 4723TIP3    H135660   3.146   3.768   1.176  2.6032 -0.2279  0.8050
 4723TIP3    H235661   3.098   3.628   1.210  2.5290 -0.1798  0.8996
 4724TIP3   OH235662   4.552   5.460   3.103  0.0309 -0.2131 -0.8266
 4724TIP3    H135663   4.493   5.531   3.081 -0.7347 -0.6345 -0.1735
 4724TIP3    H235664   4.532   5.391   3.039  0.5854  0.0538 -1.2923
 4725TIP3   OH235665   5.575   0.541  14.908  0.1436 -0.4340 -0.7238
 4725TIP3    H135666   5.559   0.635  14.915 -0.5607 -0.4035 -2.3388
 4725TIP3    H235667   5.531   0.515  14.827 -0.1506 -2.2637 -0.0189
 4726TIP3   OH235668   5.175   6.438  11.589 -0.2421  0.3300 -0.5084
 4726TIP3    H135669   5.192   6.528  11.562  0.2911  0.1289 -0.8479
 4726TIP3    H235670   5.259   6.394  11.581  0.4279  0.6411  3.0583
 4727TIP3   OH235671   6.549   6.054   4.470 -0.5118  0.2500 -0.6167
 4727TIP3    H135672   6.526   6.146   4.460 -2.7052 -0.2103 -0.2121
 4727TIP3    H235673   6.535   6.016   4.383  2.6370  0.6560 -1.4365
 4728TIP3   OH235674   5.614   1.900  14.099  0.0708 -0.1411  0.0404
 4728TIP3    H135675   5.673   1.874  14.028 -0.8687 -1.0532 -0.4486
 4728TIP3    H235676   5.638   1.990  14.119  0.8735 -0.1263 -0.9114
 4729TIP3   OH235677   3.865   3.868  15.549  0.5497  0.1867 -0.1410
 4729TIP3    H135678   3.846   3.785  15.507 -1.2054  0.1525  0.5904
 4729TIP3    H235679   3.903   3.923  15.480 -0.0122 -0.6252 -1.1182
 4730TIP3   OH235680   0.824   4.654  12.405 -0.0359  0.2605  0.1235
 4730TIP3    H135681   0.861   4.577  12.449 -0.0867 -0.5799 -1.2387
 4730TIP3    H235682   0.762   4.690  12.468  0.7651 -0.1857  1.1993
 4731TIP3   OH235683   0.141   0.907   0.958 -0.3731  0.2952 -0.2157
 4731TIP3    H135684   0.094   0.926   0.877  0.6605  0.7246 -0.7427
 4731TIP3    H235685   0.136   0.812   0.968  2.2226 -0.2135 -2.5871
 4732TIP3   OH235686   3.307   6.130  14.824  0.0175 -0.7264  0.1370
 4732TIP3    H135687   3.368   6.144  14.752  0.4780  0.6363  0.7558
 4732TIP3    H235688   3.221   6.127  14.783 -0.0281  2.7056 -0.3068
 4733TIP3   OH235689   1.799   6.676   1.138 -0.6081 -0.1109  0.0262
 4733TIP3    H135690   1.879   6.624   1.138 -0.9904 -0.7518  1.2532
 4733TIP3    H235691   1.826   6.764   1.164 -0.1600 -0.0478 -0.6389
 4734TIP3   OH235692   6.018   3.916  11.767 -0.4485 -0.1118  0.5354
 4734TIP3    H135693   5.927   3.902  11.793 -0.3981 -0.9292  0.3052
 4734TIP3    H235694   6.022   3.884  11.677  0.2570 -0.8604  0.8274
 4735TIP3   OH235695   1.142   0.626  17.191 -0.2838  0.0950 -0.3734
 4735TIP3    H135696   1.218   0.681  17.208  0.1608 -0.1238 -1.5183
 4735TIP3    H235697   1.162   0.543  17.234  0.6269 -0.3169 -1.5345
 4736TIP3   OH235698   1.057   5.122   1.930  0.7484  0.0663  0.0851
 4736TIP3    H135699   1.115   5.057   1.888  0.4203 -0.4849  0.4656
 4736TIP3    H235700   0.974   5.113   1.883  0.0860 -1.2163  1.4086
 4737TIP3   OH235701   4.615   5.811   5.136  0.4168 -0.0689 -0.1814
 4737TIP3    H135702   4.541   5.767   5.178  0.5398 -1.2546 -1.1518
 4737TIP3    H235703   4.583   5.898   5.115 -0.8586 -0.6827 -0.9074
 4738TIP3   OH235704   5.164   3.075   1.052  0.0061  0.1428  0.3339
 4738TIP3    H135705   5.252   3.107   1.036 -0.2539  0.0758 -1.4941
 4738TIP3    H235706   5.163   2.986   1.015 -0.7740  0.0843  0.4640
 4739TIP3   OH235707   4.114   6.360  15.922 -0.1010 -0.3086 -0.0637
 4739TIP3    H135708   4.084   6.442  15.882 -0.5381 -0.9585 -1.1079
 4739TIP3    H235709   4.040   6.300  15.914  0.1452 -0.7693  0.8630
 4740TIP3   OH235710   2.324   2.580   3.346 -0.0453  0.1488 -0.0921
 4740TIP3    H135711   2.310   2.658   3.292 -2.0114  0.9420  1.4562
 4740TIP3    H235712   2.284   2.508   3.296 -3.1206  1.1035  0.7722
 4741TIP3   OH235713   3.065   5.834   4.283  0.0838 -0.1891 -0.6673
 4741TIP3    H135714   2.982   5.816   4.328 -0.4160 -0.1383 -1.5533
 4741TIP3    H235715   3.116   5.885   4.346  0.4852 -2.3731  0.9100
 4742TIP3   OH235716   5.631   1.533   1.068  0.0769  0.5017 -0.0871
 4742TIP3    H135717   5.644   1.539   0.973 -2.3611 -1.2391 -0.6482
 4742TIP3    H235718   5.662   1.445   1.091  0.4618  0.8355  0.7179
 4743TIP3   OH235719   2.495   6.237   1.519  0.1894  0.6753  0.4347
 4743TIP3    H135720   2.446   6.171   1.569  0.0340  1.2606  1.0581
 4743TIP3    H235721   2.587   6.221   1.541  0.3009 -0.3447 -0.6417
 4744TIP3   OH235722   0.287   2.613  12.749 -0.5921 -0.0985 -0.3733
 4744TIP3    H135723   0.211   2.636  12.697 -0.9008 -1.7491 -0.6955
 4744TIP3    H235724   0.253   2.555  12.818  0.4800 -1.6762 -1.1215
 4745TIP3   OH235725   2.665   3.919  11.409 -0.4255 -0.0660 -0.1751
 4745TIP3    H135726   2.572   3.899  11.419  0.3739 -3.8413  1.4229
 4745TIP3    H235727   2.684   3.898  11.317 -1.1421  0.9532 -0.5743
 4746TIP3   OH235728   6.173   6.041  14.014 -0.4547  0.8274 -0.4723
 4746TIP3    H135729   6.201   5.951  14.000 -0.5791  0.8980 -1.2308
 4746TIP3    H235730   6.128   6.065  13.933  2.3464  2.6211 -1.6465
 4747TIP3   OH235731   6.705   5.380  12.484 -0.4715 -0.1630  0.0295
 4747TIP3    H135732   6.671   5.396  12.572 -1.4905 -1.4917 -0.0827
 4747TIP3    H235733   6.647   5.429  12.426  0.7555  1.4676  0.1190
 4748TIP3   OH235734   2.392   1.942   4.015 -0.4113 -0.2654  0.5582
 4748TIP3    H135735   2.440   1.899   3.944 -2.4393 -0.3531 -0.8685
 4748TIP3    H235736   2.330   1.876   4.046 -2.3970  0.9821 -0.5030
 4749TIP3   OH235737   4.360   2.874  15.231  0.1790 -0.5596  0.4383
 4749TIP3    H135738   4.368   2.916  15.317  1.4939  2.0323 -0.8337
 4749TIP3    H235739   4.268   2.881  15.208 -0.4790 -2.5660  2.1546
 4750TIP3   OH235740   5.123   4.682  16.513  0.1085 -0.7188 -0.5575
 4750TIP3    H135741   5.167   4.659  16.595  1.0424 -1.0036 -1.1225
 4750TIP3    H235742   5.149   4.773  16.497 -1.6339  0.0010  0.4317
 4751TIP3   OH235743   6.169   3.953   4.466 -0.1209  0.3475 -0.2913
 4751TIP3    H135744   6.231   3.922   4.532 -0.2259 -0.3366 -0.5073
 4751TIP3    H235745   6.089   3.971   4.515 -0.4409 -0.9015 -0.3468
 4752TIP3   OH235746   5.704   4.982   5.335 -0.2782  0.1005  0.1867
 4752TIP3    H135747   5.709   4.951   5.425 -1.5420  2.6992  1.2389
 4752TIP3    H235748   5.786   5.028   5.321 -1.2420  2.1934  1.0825
 4753TIP3   OH235749   3.268   5.418   0.216  0.3098 -0.1318 -0.2313
 4753TIP3    H135750   3.278   5.365   0.295  1.4514 -0.4117 -0.5484
 4753TIP3    H235751   3.328   5.491   0.227  0.7749 -0.3793 -1.0007
 4754TIP3   OH235752   3.579   1.782  13.138  0.1506 -0.6475  0.0718
 4754TIP3    H135753   3.651   1.724  13.160  0.8118 -0.0810 -0.5501
 4754TIP3    H235754   3.572   1.842  13.212 -0.3250 -1.3016  0.5690
 4755TIP3   OH235755   6.035   1.381  14.184 -0.1637 -0.0662 -0.2912
 4755TIP3    H135756   5.945   1.349  14.185 -0.4138  0.6082  1.5044
 4755TIP3    H235757   6.034   1.453  14.121 -1.1489  0.6170  0.4764
 4756TIP3   OH235758   1.680   6.735  13.010 -0.2595 -0.1879  0.0097
 4756TIP3    H135759   1.610   6.670  13.011  0.0055 -0.5000 -0.9210
 4756TIP3    H235760   1.657   6.796  13.081 -1.2283 -0.5318  0.0064
 4757TIP3   OH235761   1.153   3.359  10.977  0.6432 -0.5676 -0.1393
 4757TIP3    H135762   1.203   3.440  10.988 -2.5215  1.3364  1.8938
 4757TIP3    H235763   1.194   3.297  11.037  1.2946  0.5602  0.6188
 4758TIP3   OH235764   5.010   0.372  15.908  0.2618  0.0905 -0.2227
 4758TIP3    H135765   5.078   0.331  15.856  0.6872 -0.6472  0.8876
 4758TIP3    H235766   4.945   0.303  15.922  0.9542 -0.2426  1.6104
 4759TIP3   OH235767   4.612   4.067  14.826 -0.4531  0.0222 -0.7676
 4759TIP3    H135768   4.602   4.090  14.918 -1.3025 -0.4664 -0.7258
 4759TIP3    H235769   4.698   4.025  14.821 -0.6950 -0.5979 -0.0475
 4760TIP3   OH235770   1.080   4.573  12.086 -0.4313  0.5055  0.1014
 4760TIP3    H135771   1.087   4.556  12.180 -0.8948 -1.0680 -0.1296
 4760TIP3    H235772   1.068   4.668  12.080  1.0664  0.8224  1.5371
 4761TIP3   OH235773   4.490   4.939  14.237  0.3411 -0.2026 -0.2632
 4761TIP3    H135774   4.488   4.847  14.212 -1.8767 -0.2389 -0.0954
 4761TIP3    H235775   4.441   4.943  14.318  0.7443  1.0966 -0.0608
 4762TIP3   OH235776   0.798   3.283   2.619  0.0986 -0.7748 -0.5573
 4762TIP3    H135777   0.741   3.345   2.664  0.6287  0.9302 -2.0819
 4762TIP3    H235778   0.739   3.217   2.583 -0.6248 -0.4741  0.0625
 4763TIP3   OH235779   4.853   5.096   0.307  0.2668  0.0958 -0.0745
 4763TIP3    H135780   4.767   5.053   0.304  0.9406 -1.5828  2.2965
 4763TIP3    H235781   4.841   5.170   0.367  0.4850 -0.1595  0.2845
 4764TIP3   OH235782   4.272   5.909   1.140 -0.2635  0.0265  0.4616
 4764TIP3    H135783   4.281   5.987   1.086  0.2294 -0.7343 -0.6031
 4764TIP3    H235784   4.282   5.836   1.079 -0.5089 -0.8751  1.4553
 4765TIP3   OH235785   5.156   5.737  12.309 -0.2599 -0.0941  0.4152
 4765TIP3    H135786   5.145   5.826  12.341 -0.5337 -0.2978  0.9016
 4765TIP3    H235787   5.236   5.706  12.352  1.3197  0.7735 -1.7302
 4766TIP3   OH235788   1.309   4.803   2.254  0.0055 -0.4972  0.3092
 4766TIP3    H135789   1.350   4.772   2.173  0.7222  0.0511  0.4599
 4766TIP3    H235790   1.216   4.783   2.242  0.2353 -1.2771 -0.2506
 4767TIP3   OH235791   5.630   4.173   4.881  0.6589 -0.1453 -0.2347
 4767TIP3    H135792   5.635   4.226   4.802 -0.5180 -0.2563 -0.4035
 4767TIP3    H235793   5.585   4.228   4.945 -1.6931 -1.3268 -0.7948
 4768TIP3   OH235794   4.122   0.442   0.757 -0.4985  0.1965 -0.4011
 4768TIP3    H135795   4.055   0.407   0.816 -0.7757  0.6028 -0.4699
 4768TIP3    H235796   4.205   0.407   0.791 -0.6857  0.1760  0.0425
 4769TIP3   OH235797   1.414   1.579   6.383 -0.0597 -0.4302 -0.1375
 4769TIP3    H135798   1.470   1.503   6.365 -1.6279 -1.4323 -0.9781
 4769TIP3    H235799   1.354   1.548   6.450 -0.9325 -0.0443 -0.7315
 4770TIP3   OH235800   0.468   3.816   0.631 -0.3761  0.6047  0.2231
 4770TIP3    H135801   0.518   3.752   0.682 -1.3121 -0.1951  0.1676
 4770TIP3    H235802   0.526   3.839   0.559 -0.2895 -0.7560 -0.1709
 4771TIP3   OH235803   4.396   1.367   4.155  0.2719  0.3144  0.5566
 4771TIP3    H135804   4.314   1.318   4.152 -1.1765  2.5867  0.3303
 4771TIP3    H235805   4.410   1.385   4.248 -1.6070  3.0908  0.4091
 4772TIP3   OH235806   2.319   4.158  16.658 -0.3915 -0.1113  0.0341
 4772TIP3    H135807   2.413   4.159  16.672 -0.2123  1.7204 -0.9465
 4772TIP3    H235808   2.306   4.109  16.577 -0.4362 -1.4904  0.8477
 4773TIP3   OH235809   2.142   5.830  17.079  0.0632  0.6097  0.0073
 4773TIP3    H135810   2.063   5.798  17.035  0.5318 -1.5934  0.6724
 4773TIP3    H235811   2.206   5.842  17.009  0.5621 -2.1205 -0.0762
 4774TIP3   OH235812   1.302   5.429  11.310  0.6234 -0.1596  0.7892
 4774TIP3    H135813   1.376   5.406  11.366  1.2580 -0.8338 -0.2840
 4774TIP3    H235814   1.336   5.423  11.221 -0.3566  0.8750  0.3079
 4775TIP3   OH235815   2.169   2.051  15.293 -0.8336  0.3035  0.4779
 4775TIP3    H135816   2.234   2.113  15.325 -0.9758  0.5048  0.3802
 4775TIP3    H235817   2.098   2.106  15.259  0.6422  0.2266 -3.1910
 4776TIP3   OH235818   1.907   1.035   1.009 -0.5719  0.8026  0.3284
 4776TIP3    H135819   1.889   1.123   0.977 -3.2114 -0.5574 -2.3242
 4776TIP3    H235820   1.849   1.024   1.084 -0.0708  1.3373  0.8104
 4777TIP3   OH235821   3.649   5.086   6.531  0.2023 -0.0766  0.2334
 4777TIP3    H135822   3.631   5.066   6.439  2.0225  0.4459 -0.2905
 4777TIP3    H235823   3.714   5.156   6.528  0.7779 -0.4909  1.9082
 4778TIP3   OH235824   1.425   5.318   5.279  0.4761  0.3753 -0.3214
 4778TIP3    H135825   1.423   5.225   5.257 -0.4393  0.1897  0.4437
 4778TIP3    H235826   1.511   5.332   5.318  1.0338  0.1043 -1.4415
 4779TIP3   OH235827   2.935   0.750   4.561 -0.4982 -0.3661  0.0924
 4779TIP3    H135828   2.893   0.674   4.519 -2.1132  0.3661  0.3450
 4779TIP3    H235829   2.923   0.735   4.655 -1.1868  0.4075  0.1275
 4780TIP3   OH235830   6.747   2.504   1.608 -0.2962 -0.0079 -0.1375
 4780TIP3    H135831   6.715   2.500   1.698 -1.8240 -0.5330 -0.6775
 4780TIP3    H235832   6.668   2.517   1.555  0.4095 -1.0373 -1.4991
 4781TIP3   OH235833   3.056   4.583  15.635  0.2631 -0.7358  0.2664
 4781TIP3    H135834   3.088   4.613  15.720 -0.8027  0.3023  0.3278
 4781TIP3    H235835   3.099   4.640  15.572  1.2823 -1.6962  0.0565
 4782TIP3   OH235836   0.163   6.674   3.393  0.2496 -0.3002  0.4097
 4782TIP3    H135837   0.142   6.732   3.466  0.5730 -1.2240  1.2470
 4782TIP3    H235838   0.249   6.705   3.363  0.1361  0.0538  0.4417
 4783TIP3   OH235839   6.215   6.005  15.103 -0.2634 -0.1953 -0.2125
 4783TIP3    H135840   6.205   6.100  15.098  0.7208 -0.1178 -1.9906
 4783TIP3    H235841   6.308   5.991  15.082 -0.0811 -1.4902  1.3358
 4784TIP3   OH235842   4.189   6.658   1.430  0.5752  0.5269 -0.1692
 4784TIP3    H135843   4.268   6.624   1.387  1.3494  1.0503  0.7865
 4784TIP3    H235844   4.158   6.727   1.372  1.2714  0.8305 -0.1977
 4785TIP3   OH235845   6.329   0.579  12.712  0.2385  0.2098 -0.4055
 4785TIP3    H135846   6.340   0.663  12.668  0.9870 -0.4504 -1.5302
 4785TIP3    H235847   6.385   0.584  12.789  0.1609  0.7981 -0.3863
 4786TIP3   OH235848   1.169   3.498  12.118 -0.1801 -0.3370 -0.4276
 4786TIP3    H135849   1.205   3.421  12.074  1.5211  0.5688 -0.7356
 4786TIP3    H235850   1.199   3.571  12.064 -0.4277  0.6325  0.7145
 4787TIP3   OH235851   1.898   4.492  11.567 -0.1861  0.2066 -0.2051
 4787TIP3    H135852   1.825   4.434  11.544  0.5593 -0.7235 -0.2463
 4787TIP3    H235853   1.916   4.540  11.487 -1.0555  0.8019 -0.0685
 4788TIP3   OH235854   2.559   3.789   0.095  0.3317 -0.2035  0.3779
 4788TIP3    H135855   2.529   3.699   0.103 -0.3542  0.0309  0.4508
 4788TIP3    H235856   2.518   3.822   0.015  1.4855 -0.3001 -0.2845
 4789TIP3   OH235857   5.490   5.896  16.935  0.1830  0.3996 -0.3087
 4789TIP3    H135858   5.487   5.842  17.014 -1.8612  0.7733 -0.0872
 4789TIP3    H235859   5.508   5.984  16.966  1.6290  0.2015 -0.5035
 4790TIP3   OH235860   3.793   0.158   4.453  0.4675  0.2924 -0.6260
 4790TIP3    H135861   3.862   0.195   4.508  0.4635 -0.6381  0.0174
 4790TIP3    H235862   3.723   0.135   4.514  0.4473 -0.7221 -1.0148
 4791TIP3   OH235863   2.541   4.353  10.564 -0.1278 -0.0030  0.0675
 4791TIP3    H135864   2.452   4.326  10.591 -0.0211  1.3679  1.9991
 4791TIP3    H235865   2.527   4.420  10.498 -0.4943 -0.2741 -0.1371
 4792TIP3   OH235866   5.021   5.504   2.653  0.2301 -0.1257  0.0693
 4792TIP3    H135867   5.111   5.507   2.623 -0.4811  0.7508 -2.2531
 4792TIP3    H235868   5.022   5.444   2.727  2.4483 -1.3769 -0.8661
 4793TIP3   OH235869   6.761   5.081   2.254 -0.0010  0.8570  0.0895
 4793TIP3    H135870   6.828   5.114   2.195 -1.3822 -0.6230 -2.5139
 4793TIP3    H235871   6.770   4.986   2.249  0.2581  0.6543  2.9017
 4794TIP3   OH235872   3.855   1.240   4.637  0.1633  0.6086  0.2503
 4794TIP3    H135873   3.854   1.222   4.543 -2.4570 -4.1424  0.8222
 4794TIP3    H235874   3.810   1.324   4.646  0.1131  1.0096 -2.7113
 4795TIP3   OH235875   3.354   5.466  13.101 -0.3146  0.3181  0.1832
 4795TIP3    H135876   3.264   5.464  13.134 -0.0853 -0.7819  0.8046
 4795TIP3    H235877   3.352   5.408  13.024 -0.4519  1.4868 -0.7305
 4796TIP3   OH235878   5.849   3.144   4.905  0.4708 -0.3019 -0.1418
 4796TIP3    H135879   5.928   3.189   4.876  0.9618  0.2118  1.8225
 4796TIP3    H235880   5.809   3.203   4.968 -2.3791  0.1372 -2.1681
 4797TIP3   OH235881   5.797   0.331  11.917 -0.5409  0.0497  0.1267
 4797TIP3    H135882   5.852   0.294  11.848  0.7852  1.3405  0.4415
 4797TIP3    H235883   5.770   0.416  11.883 -0.3396  0.4538  0.9520
 4798TIP3   OH235884   0.994   3.401   0.226 -0.4122  0.0635 -0.9427
 4798TIP3    H135885   1.008   3.307   0.214 -0.0573 -0.2103  1.1782
 4798TIP3    H235886   0.910   3.419   0.185  0.6048 -0.6489 -3.5177
 4799TIP3   OH235887   3.096   0.662  13.340 -0.4358 -0.2187 -0.0431
 4799TIP3    H135888   3.089   0.584  13.395 -1.0345  0.4861  0.9214
 4799TIP3    H235889   3.077   0.735  13.399  1.7528  0.8174 -0.5071
 4800TIP3   OH235890   0.125   4.229  15.010 -0.3116 -0.7556  0.4075
 4800TIP3    H135891   0.142   4.309  14.960  1.9083 -1.6502 -0.3966
 4800TIP3    H235892   0.030   4.219  15.007 -0.6053  1.5216  0.0394
 4801TIP3   OH235893   5.772   3.525   4.517  0.3210 -0.0466 -0.5041
 4801TIP3    H135894   5.694   3.480   4.485 -0.7705  1.4065  0.0024
 4801TIP3    H235895   5.765   3.614   4.482  0.8747  0.5950  0.9342
 4802TIP3   OH235896   3.700   3.003   0.207 -0.8654  0.2268  0.0699
 4802TIP3    H135897   3.655   3.086   0.218 -2.1392 -0.5914  1.3536
 4802TIP3    H235898   3.635   2.936   0.228  0.5111 -1.0619  0.4765
 4803TIP3   OH235899   3.348   5.601  12.195 -0.2223  0.1517 -0.1204
 4803TIP3    H135900   3.341   5.597  12.100 -1.1201  1.5009 -0.1440
 4803TIP3    H235901   3.258   5.608  12.226 -0.0840 -2.0542  0.9856
 4804TIP3   OH235902   4.649   2.953  17.050 -0.1280 -0.8320  0.7985
 4804TIP3    H135903   4.685   2.869  17.022 -1.4206 -1.9463  2.2622
 4804TIP3    H235904   4.597   2.983  16.975  1.7185 -0.4417 -0.3744
 4805TIP3   OH235905   3.149   4.521   4.011  0.0510 -0.7990 -0.0712
 4805TIP3    H135906   3.212   4.516   3.938  1.1514 -1.2274  0.8792
 4805TIP3    H235907   3.131   4.430   4.033 -0.7847 -0.6757 -0.2201
 4806TIP3   OH235908   4.985   3.764  16.040 -0.9715  0.4478 -0.0075
 4806TIP3    H135909   5.075   3.738  16.060 -0.3999  1.3415 -1.2568
 4806TIP3    H235910   4.930   3.703  16.089  0.3153 -0.5146  0.2751
 4807TIP3   OH235911   5.733   3.922   2.957  0.2728  0.3157 -0.2031
 4807TIP3    H135912   5.669   3.961   3.016  3.0300  1.4220  2.3032
 4807TIP3    H235913   5.769   3.995   2.908  1.9414  0.2834  0.8959
 4808TIP3   OH235914   1.874   2.434  13.813 -0.1704 -0.0730  0.5378
 4808TIP3    H135915   1.887   2.481  13.896 -0.6508  0.5514  0.2755
 4808TIP3    H235916   1.904   2.496  13.746 -3.2156  0.9755 -0.0071
 4809TIP3   OH235917   4.674   2.446  14.768  0.0868  0.2493 -0.0080
 4809TIP3    H135918   4.729   2.454  14.846 -0.4801  1.4929  0.2959
 4809TIP3    H235919   4.598   2.396  14.798 -0.3895  1.1863  0.4202
 4810TIP3   OH235920   1.611   4.939  10.192 -0.4537 -0.1574 -0.0140
 4810TIP3    H135921   1.582   4.970  10.278  0.3279 -0.0110  0.2034
 4810TIP3    H235922   1.591   4.845  10.193 -0.5135 -0.1433  0.3000
 4811TIP3   OH235923   5.568   4.208  12.541  0.1443  0.2156 -0.4243
 4811TIP3    H135924   5.646   4.199  12.597 -0.2326  2.0050  0.4367
 4811TIP3    H235925   5.571   4.298  12.510  0.7284 -0.8770 -3.9731
 4812TIP3   OH235926   1.901   4.642  11.313 -0.2680  0.5284 -0.4571
 4812TIP3    H135927   1.870   4.733  11.313  2.4475  1.6122 -2.6104
 4812TIP3    H235928   1.846   4.598  11.248 -0.2134  1.2382 -1.0007
 4813TIP3   OH235929   5.617   3.386  15.205  0.2058  0.1771 -0.1562
 4813TIP3    H135930   5.585   3.406  15.293 -1.7373 -0.8794 -0.5670
 4813TIP3    H235931   5.580   3.454  15.150 -0.3266 -0.3425 -0.4507
 4814TIP3   OH235932   4.462   0.155   4.338 -0.2371 -0.5839  0.4505
 4814TIP3    H135933   4.424   0.232   4.380 -0.0952  0.3595 -1.0772
 4814TIP3    H235934   4.546   0.143   4.382 -0.4982 -0.2094  1.0720
 4815TIP3   OH235935   2.106   5.311   1.197 -1.1713  0.4058  0.4601
 4815TIP3    H135936   2.097   5.226   1.155  0.0759 -0.0790  1.1231
 4815TIP3    H235937   2.056   5.371   1.141 -2.0449 -0.7377 -0.0276
 4816TIP3   OH235938   6.643   2.678  12.271 -0.7012 -0.2379  0.4876
 4816TIP3    H135939   6.594   2.752  12.308  0.2146 -0.1059  1.4735
 4816TIP3    H235940   6.680   2.711  12.189 -1.8246 -0.1893 -0.0200
 4817TIP3   OH235941   5.136   1.826  13.683 -0.6353 -0.9722 -0.3645
 4817TIP3    H135942   5.123   1.917  13.709 -1.8423 -1.0384 -0.7189
 4817TIP3    H235943   5.196   1.791  13.750 -0.4640 -0.0366 -0.0136
 4818TIP3   OH235944   0.366   5.652  14.414 -0.2684 -0.0334  0.2232
 4818TIP3    H135945   0.354   5.673  14.507  0.5505  0.5559  0.2005
 4818TIP3    H235946   0.284   5.679  14.373 -0.0492  1.1681  0.5340
 4819TIP3   OH235947   1.170   2.137   2.113 -0.2297  0.1675  0.9013
 4819TIP3    H135948   1.214   2.221   2.099  1.5663 -0.9384 -0.5369
 4819TIP3    H235949   1.090   2.141   2.061  0.7253  0.3760 -0.6074
 4820TIP3   OH235950   1.868   0.066  16.170  0.7483 -0.3452 -0.0015
 4820TIP3    H135951   1.893   0.084  16.080  0.4706  1.3829  0.2365
 4820TIP3    H235952   1.884  -0.028  16.181  1.1350 -0.5122 -1.7202
 4821TIP3   OH235953   6.744   2.591  16.845  0.1786 -0.2509  0.1569
 4821TIP3    H135954   6.836   2.580  16.819  0.1390 -1.3047  0.4200
 4821TIP3    H235955   6.695   2.542  16.779 -0.0384 -1.4629  1.1711
 4822TIP3   OH235956   0.546   2.671   4.469 -0.2683  0.0341 -0.2246
 4822TIP3    H135957   0.626   2.619   4.462  0.4878  1.3917 -2.6264
 4822TIP3    H235958   0.577   2.759   4.488 -1.1510  0.6313 -1.4533
 4823TIP3   OH235959   5.978   0.013   3.571  0.0401 -0.4479  0.2684
 4823TIP3    H135960   5.897   0.062   3.552 -0.0050 -0.1759  1.1194
 4823TIP3    H235961   6.048   0.072   3.543 -0.0069  0.2226  1.4749
 4824TIP3   OH235962   1.469   2.127  12.590  0.1146 -0.1223 -0.8912
 4824TIP3    H135963   1.486   2.217  12.617 -0.6468 -0.1633 -0.2629
 4824TIP3    H235964   1.376   2.113  12.608  0.1190 -0.8867 -1.4157
 4825TIP3   OH235965   0.939   4.749  15.802 -0.0496  0.5382 -0.2694
 4825TIP3    H135966   0.920   4.835  15.840 -0.8802 -0.7162  2.3703
 4825TIP3    H235967   0.853   4.709  15.790  0.4119 -1.0203  1.3611
 4826TIP3   OH235968   3.982   2.650   1.291  0.4156  0.3080  0.4415
 4826TIP3    H135969   4.035   2.576   1.263 -0.3206 -0.1445  0.2118
 4826TIP3    H235970   3.894   2.629   1.261  0.1925  1.2724  0.3881
 4827TIP3   OH235971   2.486   2.529  16.496  0.2031 -0.0861 -0.0712
 4827TIP3    H135972   2.538   2.516  16.417  1.1563 -2.1856  0.8556
 4827TIP3    H235973   2.530   2.600  16.542  0.4585  0.1937 -0.7276
 4828TIP3   OH235974   0.653   4.283   4.952 -0.5281 -0.4093  0.1462
 4828TIP3    H135975   0.599   4.272   5.030  0.8076  0.6059  1.2603
 4828TIP3    H235976   0.735   4.321   4.984 -0.4861  1.4416 -1.9051
 4829TIP3   OH235977   5.440   0.960  16.616 -0.6163 -0.6431 -0.3463
 4829TIP3    H135978   5.445   0.879  16.565 -0.0260 -0.9234  0.1418
 4829TIP3    H235979   5.350   0.963  16.648 -0.1888 -2.0467  1.1244
 4830TIP3   OH235980   6.629   0.450  11.907  0.5097 -0.2997  1.0645
 4830TIP3    H135981   6.603   0.361  11.884  1.3120  0.2072 -2.3851
 4830TIP3    H235982   6.552   0.503  11.887  1.3335  0.1975 -1.1447
 4831TIP3   OH235983   0.394   6.205  13.240  0.6690 -0.2556  0.0606
 4831TIP3    H135984   0.401   6.301  13.242  0.5075 -0.2536  1.2093
 4831TIP3    H235985   0.416   6.182  13.150 -0.5492  0.9604 -0.5855
 4832TIP3   OH235986   6.170   3.788   3.146 -0.3149  0.6718 -0.1143
 4832TIP3    H135987   6.112   3.862   3.126  0.8268  1.1951 -1.6662
 4832TIP3    H235988   6.252   3.828   3.171  0.2362 -0.0538 -0.7092
 4833TIP3   OH235989   6.752   5.113  15.605 -0.3341 -0.7165  0.0726
 4833TIP3    H135990   6.789   5.097  15.518  2.5755 -0.1298  1.1117
 4833TIP3    H235991   6.726   5.205  15.603  1.6551 -0.1041  0.4029
 4834TIP3   OH235992   4.037   2.749   0.636  0.2125 -0.5888  0.3845
 4834TIP3    H135993   3.946   2.772   0.616  0.0748 -1.8379 -0.5484
 4834TIP3    H235994   4.084   2.833   0.634 -1.1899  0.3687  2.7799
 4835TIP3   OH235995   6.456   5.469  14.560  0.5376  0.7703 -0.2456
 4835TIP3    H135996   6.384   5.500  14.505  1.3105 -0.6087 -2.1270
 4835TIP3    H235997   6.448   5.374  14.559  2.3401  0.5892 -0.4861
 4836TIP3   OH235998   6.404   6.737   5.637 -0.4628  0.0094  0.0934
 4836TIP3    H135999   6.438   6.758   5.724  0.2259  0.5410 -0.2926
 4836TIP3    H236000   6.424   6.814   5.584 -1.4025 -0.0637 -0.4035
 4837TIP3   OH236001   1.366   2.714  11.303  0.0925  0.3642 -0.6725
 4837TIP3    H136002   1.335   2.624  11.318  2.0710 -0.1599  0.6171
 4837TIP3    H236003   1.340   2.733  11.213 -2.1184 -0.7325 -0.3470
 4838TIP3   OH236004   3.006   0.954  14.650  0.5315  0.4553 -0.0139
 4838TIP3    H136005   2.938   0.955  14.583 -0.6502 -1.4871  1.0782
 4838TIP3    H236006   2.969   1.005  14.723  0.7547  0.4388  0.1122
 4839TIP3   OH236007   0.492   4.322  14.928 -0.7436  0.3885 -0.0939
 4839TIP3    H136008   0.560   4.368  14.878  0.2733 -0.2220  0.6702
 4839TIP3    H236009   0.470   4.381  14.999  1.3849 -0.6656  1.5531
 4840TIP3   OH236010   3.639   5.027   6.264 -0.3760 -0.6263  0.3163
 4840TIP3    H136011   3.631   5.106   6.210  0.7100  0.0505  1.0977
 4840TIP3    H236012   3.552   4.987   6.261 -1.1605  0.9787  0.4665
 4841TIP3   OH236013   1.680   4.210   6.195  0.1929 -0.1351  0.1958
 4841TIP3    H136014   1.699   4.303   6.179  0.6405  0.0372  1.6003
 4841TIP3    H236015   1.679   4.202   6.291 -0.2974 -1.4927  0.0962
 4842TIP3   OH236016   1.645   3.162  14.389  0.7823 -0.0803  0.0162
 4842TIP3    H136017   1.636   3.244  14.437 -1.1190 -1.6359  2.6074
 4842TIP3    H236018   1.738   3.155  14.369  1.2335  1.9084  1.1861
 4843TIP3   OH236019   3.214   2.958  15.921 -0.1982 -0.3612  0.6467
 4843TIP3    H136020   3.127   2.925  15.902 -0.0980  0.2847 -1.1910
 4843TIP3    H236021   3.274   2.894  15.883  0.0166  1.0659 -1.5981
 4844TIP3   OH236022   2.545   0.885   5.329 -0.1955 -0.0509 -0.1274
 4844TIP3    H136023   2.564   0.792   5.319  2.0804  0.0887  2.0307
 4844TIP3    H236024   2.449   0.890   5.329 -0.3743 -2.1932 -1.4874
 4845TIP3   OH236025   3.016   4.194   2.812  0.2780 -0.2144  0.0381
 4845TIP3    H136026   3.027   4.117   2.868 -1.3624 -2.3194 -2.3151
 4845TIP3    H236027   2.924   4.217   2.820  0.1171 -0.2688 -1.3766
 4846TIP3   OH236028   1.694   1.800  15.959 -0.3800  0.0488  0.9656
 4846TIP3    H136029   1.774   1.791  15.907 -0.4831 -2.0630  1.0756
 4846TIP3    H236030   1.704   1.884  16.003  0.1302  1.4860 -1.6937
 4847TIP3   OH236031   1.878   6.668   4.276  0.3628 -0.4321 -0.1531
 4847TIP3    H136032   1.825   6.710   4.208 -0.3869  0.5269  0.9737
 4847TIP3    H236033   1.951   6.628   4.229 -0.3571 -0.1543 -1.5507
 4848TIP3   OH236034   3.430   0.792   5.407  0.4796  0.5669 -0.1969
 4848TIP3    H136035   3.400   0.789   5.498 -0.5889  0.3200 -0.5459
 4848TIP3    H236036   3.493   0.864   5.405  1.1285  0.0442  0.9157
 4849TIP3   OH236037   1.653   0.051  16.718 -0.2492 -0.2191  0.4296
 4849TIP3    H136038   1.659   0.092  16.805 -1.8482  0.0451  0.4449
 4849TIP3    H236039   1.630   0.123  16.659  0.7562 -0.4118 -0.2173
 4850TIP3   OH236040   5.081   4.302  15.593  0.1059  0.0466 -0.5222
 4850TIP3    H136041   5.029   4.372  15.553 -0.8096 -1.2499 -1.6969
 4850TIP3    H236042   5.135   4.269  15.521  1.7103  0.5647  0.4027
 4851TIP3   OH236043   3.109   4.731  15.874  0.0150  0.3101 -0.4652
 4851TIP3    H136044   3.079   4.671  15.942  1.1466  0.5766  0.3022
 4851TIP3    H236045   3.070   4.815  15.896  1.3015  0.6695  0.5631
 4852TIP3   OH236046   1.374   1.013   3.046  0.2444 -1.0084  0.0101
 4852TIP3    H136047   1.290   1.039   3.008  1.2894 -0.6523 -2.2497
 4852TIP3    H236048   1.362   1.024   3.140 -1.5657  1.1196 -0.3675
 4853TIP3   OH236049   5.643   5.299   6.281 -0.0204 -0.2040 -0.1915
 4853TIP3    H136050   5.697   5.313   6.358 -0.2624  1.6295 -0.3159
 4853TIP3    H236051   5.701   5.257   6.218  1.2082  1.4274 -0.2084
 4854TIP3   OH236052   1.998   2.427  11.811  0.0444  1.0964  0.1772
 4854TIP3    H136053   2.059   2.359  11.785 -0.0206  1.5784 -1.2975
 4854TIP3    H236054   1.921   2.380  11.843  0.3315  0.4843 -0.0320
 4855TIP3   OH236055   3.608   3.113   4.961  0.1623 -0.1154  0.3669
 4855TIP3    H136056   3.655   3.039   4.999 -0.5145 -0.4259  0.6203
 4855TIP3    H236057   3.624   3.185   5.022 -0.1541 -0.3683  0.7561
 4856TIP3   OH236058   4.793   6.543   2.402 -0.2727  0.0891 -0.4953
 4856TIP3    H136059   4.704   6.527   2.372 -1.2648  0.3039  2.0381
 4856TIP3    H236060   4.808   6.636   2.382 -0.7138  0.1097 -0.7495
 4857TIP3   OH236061   3.335   2.635   4.567  0.1761  0.2148 -0.0938
 4857TIP3    H136062   3.252   2.608   4.528 -0.0752 -1.0953  1.2525
 4857TIP3    H236063   3.401   2.580   4.525  0.1129 -0.0648  0.1698
 4858TIP3   OH236064   2.141   6.224  10.817 -0.0153 -0.1130  0.4773
 4858TIP3    H136065   2.053   6.219  10.781 -0.1257 -0.6475  0.8177
 4858TIP3    H236066   2.177   6.136  10.805 -0.1575 -0.3931  1.9177
 4859TIP3   OH236067   0.607   4.077   3.368 -0.2393  0.0913  0.7816
 4859TIP3    H136068   0.543   4.062   3.437  1.9031 -0.3560  2.7876
 4859TIP3    H236069   0.650   4.159   3.393 -0.1868  0.5386 -0.6818
 4860TIP3   OH236070   5.100   1.017  15.818  0.5496  0.5743 -0.5446
 4860TIP3    H136071   5.062   1.085  15.762 -1.9318 -0.7000 -0.5430
 4860TIP3    H236072   5.119   0.945  15.758  0.2070  0.1345 -0.1382
 4861TIP3   OH236073   1.315   1.047   3.307  0.0906  0.2800  0.3956
 4861TIP3    H136074   1.253   1.111   3.341 -1.8227  0.3016 -2.7179
 4861TIP3    H236075   1.325   0.983   3.377  0.6753  2.9705  2.9254
 4862TIP3   OH236076   3.724   1.483  12.558  0.5709  0.5583  0.2292
 4862TIP3    H136077   3.724   1.403  12.506 -1.3502  0.7739 -0.2029
 4862TIP3    H236078   3.720   1.554  12.494 -0.6645  0.8694  0.6246
 4863TIP3   OH236079   6.818   2.517  11.496 -0.1646  0.0604 -0.5093
 4863TIP3    H136080   6.857   2.475  11.572  1.5268  0.8814 -0.8874
 4863TIP3    H236081   6.829   2.454  11.425 -1.8884 -0.7736 -0.0829
 4864TIP3   OH236082   5.397   6.635   3.646  0.2226 -0.4879 -0.2844
 4864TIP3    H136083   5.350   6.715   3.666  0.7000 -0.1449 -0.5142
 4864TIP3    H236084   5.490   6.659   3.650  0.3611 -0.8410 -1.0993
 4865TIP3   OH236085   3.503   4.649  11.430 -0.5813 -0.6483 -0.2091
 4865TIP3    H136086   3.487   4.584  11.362  2.7298 -1.0365 -0.7577
 4865TIP3    H236087   3.527   4.728  11.382 -2.5795  0.4791  0.5083
 4866TIP3   OH236088   3.827   6.479   0.663 -0.6229  0.3809  0.2670
 4866TIP3    H136089   3.827   6.392   0.702  0.2808  0.5200  0.6125
 4866TIP3    H236090   3.847   6.538   0.736 -0.3375  0.7801 -0.1260
 4867TIP3   OH236091   4.221   1.070   5.004  0.6511  0.0097 -0.3553
 4867TIP3    H136092   4.232   1.133   5.076  1.1352 -1.0698  0.5587
 4867TIP3    H236093   4.127   1.052   5.002  0.6443 -0.0321  0.0941
 4868TIP3   OH236094   1.849   0.217  15.526  0.0755 -0.2948  0.2322
 4868TIP3    H136095   1.795   0.157  15.474 -0.6240  0.8619 -0.4056
 4868TIP3    H236096   1.860   0.172  15.610  0.8174 -1.9762 -0.7170
 4869TIP3   OH236097   4.322   6.596   1.901  0.3252  0.3712 -0.8154
 4869TIP3    H136098   4.348   6.658   1.969 -0.5609 -0.4743  0.3274
 4869TIP3    H236099   4.353   6.512   1.933 -0.8986 -0.1653 -1.0125
 4870TIP3   OH236100   5.776   6.758   0.555  0.4508 -0.1111 -0.4056
 4870TIP3    H136101   5.812   6.735   0.641  2.4580  0.1399 -1.1428
 4870TIP3    H236102   5.701   6.814   0.576 -0.0773 -1.3184  1.2041
 4871TIP3   OH236103   1.613   1.169   1.481 -0.1813  0.4810 -0.6687
 4871TIP3    H136104   1.683   1.187   1.544  0.6554 -0.3439 -1.3400
 4871TIP3    H236105   1.600   1.075   1.485  0.3221  0.3247 -2.1665
 4872TIP3   OH236106   3.785   3.160  14.200 -0.3502  0.5294 -0.2240
 4872TIP3    H136107   3.875   3.140  14.226 -0.9321 -1.0362  0.7133
 4872TIP3    H236108   3.766   3.243  14.243  0.0951  0.0271  0.9861
 4873TIP3   OH236109   3.616   0.513   5.855 -0.0084 -0.5265  0.0362
 4873TIP3    H136110   3.549   0.567   5.896  1.3046  1.7109 -0.5483
 4873TIP3    H236111   3.695   0.531   5.906  0.6961 -1.0842 -0.8251
 4874TIP3   OH236112   0.736   3.944  10.284 -0.1882 -0.3339  0.0613
 4874TIP3    H136113   0.672   3.878  10.256  1.0769 -1.0628 -1.2142
 4874TIP3    H236114   0.698   4.027  10.255 -1.1954 -0.5976  0.5563
 4875TIP3   OH236115   4.116   1.281  14.816 -0.1802  0.4995 -0.3783
 4875TIP3    H136116   4.162   1.204  14.783  0.4428  1.0172 -0.7463
 4875TIP3    H236117   4.084   1.256  14.902 -1.2082 -0.6452 -1.0690
 4876TIP3   OH236118   2.239   0.146  11.583  0.3404  0.3364  0.0013
 4876TIP3    H136119   2.248   0.052  11.570  0.1915  0.4829 -1.2484
 4876TIP3    H236120   2.223   0.156  11.677  0.0895 -0.8996  0.1001
 4877TIP3   OH236121   1.867   2.658   5.431  0.0417 -0.1202 -0.2447
 4877TIP3    H136122   1.860   2.745   5.471 -1.0699 -0.1170 -0.4142
 4877TIP3    H236123   1.779   2.640   5.397 -0.8505 -2.8868  3.0110
 4878TIP3   OH236124   0.511   3.246   1.100  0.0347  0.0861 -0.4460
 4878TIP3    H136125   0.475   3.159   1.114  1.8209 -0.5769  0.2069
 4878TIP3    H236126   0.452   3.304   1.148 -0.4123 -0.8936  0.2135
 4879TIP3   OH236127   2.177   4.856   1.947 -0.0528  0.4026 -0.2049
 4879TIP3    H136128   2.096   4.889   1.908  0.1340 -0.0404 -1.0019
 4879TIP3    H236129   2.197   4.917   2.017 -2.0618 -0.5038  1.2436
 4880TIP3   OH236130   1.237   3.883  15.763 -0.4671 -0.3072  0.4343
 4880TIP3    H136131   1.246   3.810  15.824  1.5042 -0.2294  0.2922
 4880TIP3    H236132   1.241   3.961  15.818  3.1174 -0.1613  0.1929
 4881TIP3   OH236133   2.461   1.585   6.095 -0.2847 -0.0887  0.5859
 4881TIP3    H136134   2.396   1.537   6.043  0.9480  0.5951 -1.7201
 4881TIP3    H236135   2.408   1.639   6.154 -1.7818 -0.7974 -0.0492
 4882TIP3   OH236136   3.107   5.687  15.371  0.0231 -0.7231  0.0747
 4882TIP3    H136137   3.132   5.726  15.288  1.8766 -0.2394  0.8196
 4882TIP3    H236138   3.166   5.612  15.381 -1.6056 -2.0721 -0.0158
 4883TIP3   OH236139   1.700   3.652   5.912 -0.2041  0.0991  0.4643
 4883TIP3    H136140   1.750   3.709   5.854  0.2342 -1.9700 -1.3075
 4883TIP3    H236141   1.756   3.640   5.988  0.3822  0.7027  0.1384
 4884TIP3   OH236142   3.784   5.122  14.291 -0.3139  0.2320 -0.3014
 4884TIP3    H136143   3.849   5.097  14.226 -0.0050 -1.2619  0.5406
 4884TIP3    H236144   3.702   5.085  14.259  0.1309 -1.9637  0.9109
 4885TIP3   OH236145   4.624   3.626   2.742  0.4610 -0.2939  0.6924
 4885TIP3    H136146   4.590   3.555   2.797 -0.6504  0.6255  1.2513
 4885TIP3    H236147   4.566   3.626   2.665  0.4428  0.0167  0.7063
 4886TIP3   OH236148   3.467   5.246  11.147  0.0179  0.2283  0.1066
 4886TIP3    H136149   3.494   5.277  11.234 -0.9083 -1.6632  1.1393
 4886TIP3    H236150   3.373   5.232  11.155 -0.2280  0.8191 -1.4959
 4887TIP3   OH236151   5.516   5.312  12.688 -0.6378  0.6295 -0.2152
 4887TIP3    H136152   5.435   5.328  12.736  0.4008  1.8463  1.2348
 4887TIP3    H236153   5.541   5.223  12.711 -0.7559  0.7992  0.5945
 4888TIP3   OH236154   2.013   5.400   4.688  0.1371  0.2214  0.1927
 4888TIP3    H136155   2.006   5.320   4.740  0.5536  0.8105  1.1956
 4888TIP3    H236156   1.926   5.439   4.693 -0.2012 -0.3763 -0.6864
 4889TIP3   OH236157   2.849   3.995   2.366 -0.3459 -0.7860 -0.9015
 4889TIP3    H136158   2.923   4.010   2.426 -2.2945 -0.6882  1.6323
 4889TIP3    H236159   2.825   4.083   2.336 -2.0594 -0.2292  1.7442
 4890TIP3   OH236160   4.542   0.287   3.989 -0.4168 -0.6297 -0.2719
 4890TIP3    H136161   4.480   0.300   4.061 -1.5720 -1.1443 -1.1550
 4890TIP3    H236162   4.618   0.340   4.013 -1.0515 -0.2595  0.9934
 4891TIP3   OH236163   0.985   2.778   3.988 -0.2363  0.4701  0.3631
 4891TIP3    H136164   0.942   2.777   4.074  2.2440 -2.1601  1.7335
 4891TIP3    H236165   0.998   2.686   3.966 -0.7697  1.0500 -2.9248
 4892TIP3   OH236166   0.786   1.625  11.381  0.3311  0.3271  0.3383
 4892TIP3    H136167   0.813   1.556  11.321 -4.2221 -0.8548 -0.7729
 4892TIP3    H236168   0.801   1.589  11.469 -0.8539 -1.6536 -0.2262
 4893TIP3   OH236169   6.651   4.200  14.309 -0.0035 -0.1935  0.2638
 4893TIP3    H136170   6.636   4.294  14.310 -1.4218 -0.4047  0.5911
 4893TIP3    H236171   6.692   4.181  14.393 -0.0884  0.0824  0.3671
 4894TIP3   OH236172   1.045   6.341  16.475 -0.7782  0.4321  0.1579
 4894TIP3    H136173   1.073   6.317  16.387 -0.2918 -0.5719  0.5652
 4894TIP3    H236174   1.097   6.418  16.497 -1.6891  1.3565 -0.8291
 4895TIP3   OH236175   4.650   0.930  13.535  0.1024 -0.0490  0.3267
 4895TIP3    H136176   4.650   0.884  13.452 -0.6567 -0.5072  0.5770
 4895TIP3    H236177   4.736   0.912  13.572  1.7547  2.7135 -1.7199
 4896TIP3   OH236178   6.554   5.352   1.931  0.4000 -0.6428 -0.3533
 4896TIP3    H136179   6.637   5.334   1.976  0.4953  0.6900  0.0466
 4896TIP3    H236180   6.489   5.303   1.981  1.0492 -2.6067 -1.3195
 4897TIP3   OH236181   1.354   6.234  16.297 -0.1794 -0.0771 -0.0069
 4897TIP3    H136182   1.382   6.325  16.293  1.0271 -0.2991  1.8486
 4897TIP3    H236183   1.348   6.206  16.206  0.3018  1.5947 -0.5890
 4898TIP3   OH236184   1.356   2.419  14.636  0.4767  0.0525  0.2111
 4898TIP3    H136185   1.419   2.357  14.597 -0.8831 -0.2420 -1.6981
 4898TIP3    H236186   1.371   2.413  14.730  3.3621  0.0975 -0.1594
 4899TIP3   OH236187   5.192   2.451   2.859 -0.0326 -0.0129  0.7241
 4899TIP3    H136188   5.114   2.397   2.867 -0.2568 -0.0992 -1.4411
 4899TIP3    H236189   5.239   2.415   2.784  1.1685  1.1460  0.8778
 4900TIP3   OH236190   0.189   4.946  10.944  0.2525 -0.1859 -0.4630
 4900TIP3    H136191   0.284   4.947  10.956  0.3354  3.2877 -0.4399
 4900TIP3    H236192   0.176   4.906  10.857  1.6471 -1.1538 -0.2628
 4901TIP3   OH236193   3.368   6.566   4.368 -0.6627  0.2727  0.3381
 4901TIP3    H136194   3.464   6.570   4.361 -0.5494 -2.1943 -0.8569
 4901TIP3    H236195   3.339   6.657   4.360  1.6974  1.7310  4.9701
 4902TIP3   OH236196   3.326   0.205  12.238 -0.5196  0.1873  0.0275
 4902TIP3    H136197   3.404   0.158  12.210 -0.0935 -0.1572  1.6610
 4902TIP3    H236198   3.304   0.261  12.164  0.4406 -0.7368 -0.9987
 4903TIP3   OH236199   3.779   6.344   1.511  0.3814  0.6259 -0.0569
 4903TIP3    H136200   3.813   6.434   1.512  0.2099  0.7145  1.5771
 4903TIP3    H236201   3.688   6.353   1.482 -0.4419  1.3764  2.4601
 4904TIP3   OH236202   6.551   2.068  14.120  0.5393 -0.4054 -0.3431
 4904TIP3    H136203   6.566   2.057  14.026  0.3702  0.1286 -0.4374
 4904TIP3    H236204   6.633   2.105  14.153  0.3010  0.2058 -0.4306
 4905TIP3   OH236205   5.021   0.671   3.856  0.0447 -0.4524  0.1999
 4905TIP3    H136206   5.040   0.606   3.924  0.2283  0.6129  1.1967
 4905TIP3    H236207   4.959   0.627   3.798 -0.1330 -1.3889  1.0666
 4906TIP3   OH236208   3.773   5.968  16.341  0.0149 -0.3658  0.6524
 4906TIP3    H136209   3.732   5.929  16.265 -1.7092 -0.3791  1.5454
 4906TIP3    H236210   3.823   6.043  16.306 -1.6037  0.2817 -0.3798
 4907TIP3   OH236211   3.507   6.053  12.308  0.1970  0.2117  0.6089
 4907TIP3    H136212   3.474   6.005  12.232 -1.0122 -0.7030  1.6674
 4907TIP3    H236213   3.433   6.108  12.336  0.6652  0.6238  1.0671
 4908TIP3   OH236214   5.664   5.833  12.034  0.1583 -0.1772 -0.3891
 4908TIP3    H136215   5.617   5.881  12.102  1.6383 -0.6222  1.0432
 4908TIP3    H236216   5.638   5.742  12.047  0.7465 -0.3169 -0.1077
 4909TIP3   OH236217   3.287   0.997   0.318  0.6180  0.3404 -0.1353
 4909TIP3    H136218   3.332   1.026   0.398 -0.0643 -0.4709  0.5712
 4909TIP3    H236219   3.355   0.999   0.250  0.9466  2.1115  0.1908
 4910TIP3   OH236220   4.486   5.114   0.808 -0.2623  0.1307 -0.6477
 4910TIP3    H136221   4.549   5.047   0.781  0.7456  1.4108 -1.6119
 4910TIP3    H236222   4.536   5.172   0.866 -1.1937 -0.0730  0.3952
 4911TIP3   OH236223   5.888   3.978   2.546 -0.2165 -0.1313 -0.3058
 4911TIP3    H136224   5.907   3.998   2.454  1.6811 -0.6793 -0.0808
 4911TIP3    H236225   5.796   3.952   2.547 -1.3644  3.3306 -1.4541
 4912TIP3   OH236226   2.009   3.244  13.226 -0.0496  1.0326  0.2888
 4912TIP3    H136227   1.964   3.161  13.209  0.7331  0.3715  1.3027
 4912TIP3    H236228   1.958   3.286  13.295  0.7513  0.3577  1.3241
 4913TIP3   OH236229   2.108   6.389   4.599 -0.2977 -0.0305 -0.1375
 4913TIP3    H136230   2.154   6.369   4.680 -0.2626 -0.5700 -0.2810
 4913TIP3    H236231   2.176   6.386   4.532 -0.8717 -3.5614 -0.7674
 4914TIP3   OH236232   6.423   6.810   6.134  0.2678 -0.2752 -0.3135
 4914TIP3    H136233   6.356   6.779   6.073 -0.0967 -2.7112  1.1716
 4914TIP3    H236234   6.393   6.778   6.220  1.2240  2.2035  1.0427
 4915TIP3   OH236235   6.732   6.006  11.689 -0.0931 -0.2200 -0.7370
 4915TIP3    H136236   6.776   5.997  11.773  1.6268 -0.3867 -1.6277
 4915TIP3    H236237   6.685   5.924  11.677 -0.6187 -0.0691  0.1901
 4916TIP3   OH236238   2.396   0.710   1.488 -0.5682  0.3764  0.1614
 4916TIP3    H136239   2.476   0.741   1.530 -0.0332 -0.7540 -0.0024
 4916TIP3    H236240   2.426   0.655   1.416 -1.4939  0.1274 -0.0455
 4917TIP3   OH236241   4.497   4.586   1.415  0.7656 -0.1140 -0.1116
 4917TIP3    H136242   4.485   4.563   1.323 -1.0288  2.0487 -0.5260
 4917TIP3    H236243   4.447   4.520   1.462  1.0457 -0.7922 -0.7478
 4918TIP3   OH236244   0.778   3.787  16.424 -0.3230  0.4946  0.9572
 4918TIP3    H136245   0.853   3.805  16.367  0.7628  1.0470  2.4786
 4918TIP3    H236246   0.741   3.706  16.390  1.2398 -0.0382  0.4199
 4919TIP3   OH236247   6.147   4.364  14.808  0.3079  0.1406 -0.1238
 4919TIP3    H136248   6.119   4.454  14.792 -0.6399 -0.3911 -1.7809
 4919TIP3    H236249   6.164   4.360  14.902 -0.6860  1.7597  0.1723
 4920TIP3   OH236250   0.039   5.760  16.042  0.1008  0.1242  0.1984
 4920TIP3    H136251   0.083   5.735  16.123 -1.3785 -2.3950  0.3111
 4920TIP3    H236252  -0.054   5.745  16.059 -0.4431  1.4202 -1.3518
 4921TIP3   OH236253   4.853   4.427   3.568 -0.1093  0.1173 -0.0608
 4921TIP3    H136254   4.814   4.472   3.643  0.4243  0.5542 -0.0424
 4921TIP3    H236255   4.874   4.339   3.601  1.3389  0.7091  0.7176
 4922TIP3   OH236256   4.869   5.304   6.290 -0.3005  0.2465 -0.4121
 4922TIP3    H136257   4.809   5.379   6.299 -1.5640 -0.8210  0.5011
 4922TIP3    H236258   4.811   5.230   6.272  0.7897 -0.7585  0.1345
 4923TIP3   OH236259   0.850   6.505   4.281 -0.2773 -0.2250  0.2293
 4923TIP3    H136260   0.855   6.571   4.212  1.4393 -0.7179 -0.1815
 4923TIP3    H236261   0.881   6.424   4.239 -1.2409 -1.0279  1.0229
 4924TIP3   OH236262   2.323   5.531  10.442 -0.1951  0.7339  0.2894
 4924TIP3    H136263   2.366   5.449  10.417  1.4869  1.2130  1.4490
 4924TIP3    H236264   2.231   5.516  10.423  0.3711 -0.5570 -1.7762
 4925TIP3   OH236265   6.415   2.129  12.632  0.3652  0.1910  0.2459
 4925TIP3    H136266   6.467   2.118  12.712  1.5102 -2.1481 -0.7366
 4925TIP3    H236267   6.411   2.223  12.619  2.7529  0.5356  1.4185
 4926TIP3   OH236268   2.474   0.422  15.097  0.3115 -0.0522 -0.2652
 4926TIP3    H136269   2.522   0.467  15.166 -0.9832  1.0470 -0.0502
 4926TIP3    H236270   2.434   0.492  15.046 -1.6505 -0.9381  0.0028
 4927TIP3   OH236271   5.642   5.987   1.724  0.0203 -0.2868  0.3931
 4927TIP3    H136272   5.589   6.066   1.724 -0.3651 -0.5343 -0.8377
 4927TIP3    H236273   5.665   5.972   1.632 -0.0465 -1.6833  0.5783
 4928TIP3   OH236274   0.312   1.054   0.586  0.1156 -0.1776  0.5795
 4928TIP3    H136275   0.291   0.975   0.636 -0.7863  0.9715  2.1017
 4928TIP3    H236276   0.361   1.108   0.647 -1.0744  1.3029  0.2784
 4929TIP3   OH236277   0.754   3.767   0.336 -0.0226 -0.3421  0.3837
 4929TIP3    H136278   0.795   3.703   0.394 -0.8987  0.4284  1.8940
 4929TIP3    H236279   0.778   3.852   0.374 -0.2924  0.1928 -0.6160
 4930TIP3   OH236280   2.651   1.593  17.134 -0.6717 -0.0142  0.2624
 4930TIP3    H136281   2.591   1.555  17.199 -0.6920  0.4618  0.5280
 4930TIP3    H236282   2.722   1.630  17.187 -0.4490 -0.0404 -0.0167
 4931TIP3   OH236283   5.033   4.003   2.093  0.3196  0.0696 -0.4531
 4931TIP3    H136284   5.044   4.036   2.182 -0.9845  0.0695 -0.2734
 4931TIP3    H236285   5.119   4.013   2.052  1.0219 -0.2247  0.9018
 4932TIP3   OH236286   6.640   2.988   0.158 -0.1534  0.4033 -0.4927
 4932TIP3    H136287   6.631   2.909   0.104 -0.6460  0.0012  0.1647
 4932TIP3    H236288   6.722   3.028   0.128 -0.5258  0.3130 -1.6842
 4933TIP3   OH236289   4.253   2.098   2.249  0.2561 -0.0651 -0.0474
 4933TIP3    H136290   4.250   2.010   2.210  2.8812 -0.1854 -0.1120
 4933TIP3    H236291   4.292   2.084   2.336 -0.7199  0.8805  0.5731
 4934TIP3   OH236292   2.223   2.639   1.490  0.4496 -0.1999  0.5249
 4934TIP3    H136293   2.290   2.579   1.457  0.3552  0.7245 -1.5148
 4934TIP3    H236294   2.269   2.723   1.500 -0.0713  0.0977  0.4581
 4935TIP3   OH236295   0.107   0.345   4.653 -0.3074  0.2853  0.5089
 4935TIP3    H136296   0.041   0.280   4.629 -0.0981 -0.3762  1.6522
 4935TIP3    H236297   0.059   0.428   4.657 -0.3759  0.4307 -1.9763
 4936TIP3   OH236298   2.034   2.082  14.337 -0.1876 -0.0491  0.2307
 4936TIP3    H136299   1.978   2.088  14.414  0.2434 -0.3172  0.5700
 4936TIP3    H236300   2.025   2.167  14.294 -1.6068 -0.4150 -0.2588
 4937TIP3   OH236301   2.331   2.526   2.165  1.3590 -0.4738 -0.2573
 4937TIP3    H136302   2.241   2.548   2.189  1.4969  1.9461 -1.6003
 4937TIP3    H236303   2.326   2.494   2.075  1.8294 -0.4358 -0.3036
 4938TIP3   OH236304   4.536   6.517   2.621  0.2119  0.0954  0.3794
 4938TIP3    H136305   4.520   6.595   2.568  0.8327 -0.5473 -0.8066
 4938TIP3    H236306   4.583   6.549   2.697  1.6735  0.7363 -0.7463
 4939TIP3   OH236307   0.725   2.401   3.876  0.0489  0.1925 -0.0391
 4939TIP3    H136308   0.690   2.486   3.901 -0.2767  0.3568 -1.0232
 4939TIP3    H236309   0.819   2.408   3.892 -0.0905  0.4408  0.6954
 4940TIP3   OH236310   5.325   6.542   0.168 -0.1103 -0.6578 -0.1395
 4940TIP3    H136311   5.415   6.569   0.186 -0.2310 -0.5434  0.3200
 4940TIP3    H236312   5.331   6.491   0.088 -0.1644  2.5602 -2.3902
 4941TIP3   OH236313   1.039   6.092  12.700  0.4469 -0.0619  0.0637
 4941TIP3    H136314   0.950   6.125  12.685 -0.0001 -1.8602 -1.5547
 4941TIP3    H236315   1.052   6.102  12.794 -1.7475 -0.3877  0.4647
 4942TIP3   OH236316   6.824   4.309   6.113 -0.1968  0.0178  0.2227
 4942TIP3    H136317   6.755   4.252   6.148 -0.7736 -0.2622 -1.3149
 4942TIP3    H236318   6.875   4.335   6.190 -0.4215 -1.9128  1.0805
 4943TIP3   OH236319   5.028   5.932   2.002 -0.2641  0.1177 -0.7882
 4943TIP3    H136320   5.011   5.892   2.088  0.7796 -1.9755 -1.4583
 4943TIP3    H236321   4.957   5.901   1.947 -0.1780  0.3071 -1.0052
 4944TIP3   OH236322   4.297   2.615  10.866 -0.0829 -0.1361  0.4493
 4944TIP3    H136323   4.234   2.686  10.877  0.3733  0.7002 -1.7713
 4944TIP3    H236324   4.282   2.584  10.776  1.5604 -1.0048  0.4401
 4945TIP3   OH236325   4.485   0.056   1.751 -0.1305 -0.0356  0.1524
 4945TIP3    H136326   4.480  -0.017   1.690 -0.5340 -1.9186  2.3118
 4945TIP3    H236327   4.578   0.063   1.773 -0.1701 -0.3510  0.4331
 4946TIP3   OH236328   4.082   2.286  15.006  0.1928 -0.1452 -0.1749
 4946TIP3    H136329   4.067   2.334  14.925 -0.0019 -0.8883 -0.5866
 4946TIP3    H236330   4.001   2.297  15.055  0.6728  1.1448  0.3748
 4947TIP3   OH236331   3.281   2.626  10.905  0.2310  0.3773  0.3883
 4947TIP3    H136332   3.223   2.562  10.946  1.8925 -0.7352  1.0975
 4947TIP3    H236333   3.223   2.698  10.880 -1.2696 -0.1347  2.1644
 4948TIP3   OH236334   6.503   6.386  12.611  0.3263  0.8744 -0.2577
 4948TIP3    H136335   6.577   6.358  12.664  0.7851 -0.6133 -1.6181
 4948TIP3    H236336   6.435   6.407  12.675  1.4392  0.9016  0.9662
 4949TIP3   OH236337   2.938   3.323   1.394 -0.1116  0.1521  0.1127
 4949TIP3    H136338   2.852   3.331   1.352 -0.6286 -0.3725  1.0226
 4949TIP3    H236339   2.926   3.252   1.457  1.9980 -2.5390 -2.2407
 4950TIP3   OH236340   4.250   1.646   1.624 -0.1582  0.1808  0.3179
 4950TIP3    H136341   4.300   1.695   1.689 -0.3114  3.2528 -1.6700
 4950TIP3    H236342   4.158   1.658   1.650 -0.2279  1.5410 -0.4768
 4951TIP3   OH236343   4.291   4.095  12.877 -0.1986  1.0966  0.4740
 4951TIP3    H136344   4.246   4.024  12.831  1.7735 -0.4102  0.7391
 4951TIP3    H236345   4.225   4.130  12.937 -1.2204 -0.5724  0.3886
 4952TIP3   OH236346   0.505   3.367   2.465 -0.3304  0.6623 -0.1394
 4952TIP3    H136347   0.509   3.329   2.552  0.6282 -0.2617 -0.5697
 4952TIP3    H236348   0.595   3.363   2.432 -0.9042 -0.4036 -1.7321
 4953TIP3   OH236349   0.030   2.231  13.334  0.0575 -0.1753 -0.1237
 4953TIP3    H136350   0.098   2.290  13.366 -0.5949  0.7295 -0.3630
 4953TIP3    H236351   0.074   2.177  13.267  0.3587  0.9617 -0.8716
 4954TIP3   OH236352   2.782   6.102  10.673 -0.3669  0.3588 -0.7800
 4954TIP3    H136353   2.823   6.181  10.709 -0.3793  1.0649 -2.1994
 4954TIP3    H236354   2.688   6.119  10.678 -0.3771  0.3180 -0.8318
 4955TIP3   OH236355   5.665   1.875  12.767  0.5738 -0.1423  0.2679
 4955TIP3    H136356   5.666   1.781  12.781  0.5905 -0.1144  0.4615
 4955TIP3    H236357   5.676   1.913  12.855  0.1354  0.0427  0.2469
 4956TIP3   OH236358   0.486   1.560  14.071  0.2373  0.4651  0.2273
 4956TIP3    H136359   0.563   1.513  14.038 -0.3457 -0.6356  0.3684
 4956TIP3    H236360   0.521   1.641  14.106  1.4031 -0.2189  0.7149
 4957TIP3   OH236361   4.055   0.838  15.685  0.2502 -0.0132 -0.3766
 4957TIP3    H136362   3.963   0.814  15.680 -0.0517  0.7928  0.7478
 4957TIP3    H236363   4.063   0.917  15.632 -0.2012  1.1398  1.1712
 4958TIP3   OH236364   5.565   3.307   5.719  0.1036  0.2509 -0.9565
 4958TIP3    H136365   5.615   3.241   5.671 -0.3702 -0.0806 -0.9995
 4958TIP3    H236366   5.478   3.305   5.679 -0.2361  0.1192 -0.2120
 4959TIP3   OH236367   2.894   2.661   4.099 -0.3177 -0.4755 -0.1843
 4959TIP3    H136368   2.812   2.620   4.129  0.2787 -0.8698  0.9359
 4959TIP3    H236369   2.943   2.588   4.060 -0.7860 -0.1010 -1.5448
 4960TIP3   OH236370   4.940   0.140  16.797  0.0630 -0.3765 -0.3326
 4960TIP3    H136371   4.900   0.162  16.713  1.8497  1.4409 -0.7637
 4960TIP3    H236372   4.893   0.194  16.861 -0.4721 -0.8486 -0.3185
 4961TIP3   OH236373   0.653   2.640  14.749 -0.5758  0.0043 -0.0224
 4961TIP3    H136374   0.725   2.692  14.713  0.1989 -0.7651  0.3858
 4961TIP3    H236375   0.574   2.680  14.712  0.1198  0.0872 -1.4740
 4962TIP3   OH236376   3.793   5.459   2.320  0.1654 -0.2613  0.3677
 4962TIP3    H136377   3.753   5.546   2.330  0.9411 -0.1326  2.7614
 4962TIP3    H236378   3.827   5.438   2.406  0.2242 -2.8740 -0.2221
 4963TIP3   OH236379   3.724   0.441   0.752  0.7889 -0.5188 -0.0787
 4963TIP3    H136380   3.654   0.424   0.690  0.6267 -0.3160  0.0485
 4963TIP3    H236381   3.728   0.537   0.758  1.5264 -0.4988 -0.6065
 4964TIP3   OH236382   5.416   6.403  12.861 -0.6949 -0.0831 -0.2787
 4964TIP3    H136383   5.353   6.370  12.797 -1.2446 -0.8605  0.6458
 4964TIP3    H236384   5.433   6.329  12.919 -0.2490  0.6222  0.5211
 4965TIP3   OH236385   4.500   6.136  14.658  0.0127 -0.3180 -0.1321
 4965TIP3    H136386   4.451   6.082  14.721  0.6869  2.5900  3.2115
 4965TIP3    H236387   4.570   6.176  14.710  1.0844  1.7943 -2.9403
 4966TIP3   OH236388   5.760   3.054   0.354  0.5465  0.5580  0.0026
 4966TIP3    H136389   5.853   3.034   0.352  0.8640  1.3900 -4.2739
 4966TIP3    H236390   5.716   2.970   0.340  0.5470  0.1432  2.1691
 4967TIP3   OH236391   2.556   3.066  13.755  0.1933  0.4902 -0.1974
 4967TIP3    H136392   2.595   3.154  13.752  2.3106 -0.4242 -2.7841
 4967TIP3    H236393   2.630   3.008  13.773 -0.7814 -0.9438 -0.7012
 4968TIP3   OH236394   4.488   6.455  14.851 -0.4265 -0.0066 -0.1057
 4968TIP3    H136395   4.401   6.462  14.890 -1.1157 -0.2975 -1.5236
 4968TIP3    H236396   4.498   6.362  14.830  0.5321 -0.0993  0.6516
 4969TIP3   OH236397   1.594   4.586  13.518  0.0153  0.8035  0.0666
 4969TIP3    H136398   1.553   4.650  13.460 -1.2096  0.6996  0.7798
 4969TIP3    H236399   1.642   4.528  13.460  0.0750  1.6073 -0.7017
 4970TIP3   OH236400   3.631   2.168   1.035  0.1225 -0.5134  0.1271
 4970TIP3    H136401   3.646   2.114   0.957 -1.0706 -0.9042  0.1403
 4970TIP3    H236402   3.619   2.257   1.000  0.1951 -0.5851 -0.0843
 4971TIP3   OH236403   3.271   1.087   2.615 -0.1055  0.3392  0.3884
 4971TIP3    H136404   3.321   1.006   2.628  0.0031  0.3133 -0.1816
 4971TIP3    H236405   3.316   1.151   2.670  0.0095  0.0966  0.5829
 4972TIP3   OH236406   4.154   2.265  15.683  0.8154  0.2417  0.0387
 4972TIP3    H136407   4.242   2.280  15.650  0.6106 -0.5864 -0.9422
 4972TIP3    H236408   4.167   2.228  15.770  1.4367  0.2564 -0.0449
 4973TIP3   OH236409   3.317   5.824   0.489  0.0157  0.2055  0.5516
 4973TIP3    H136410   3.346   5.755   0.429  0.6136 -0.9568  2.1063
 4973TIP3    H236411   3.364   5.902   0.461  0.1702 -0.2756 -0.5667
 4974TIP3   OH236412   1.576   3.954  16.943 -0.4438 -0.2035 -0.2336
 4974TIP3    H136413   1.646   3.932  17.004 -0.5527  0.9046  0.3341
 4974TIP3    H236414   1.519   3.877  16.942  0.3291 -0.7857 -0.0513
 4975TIP3   OH236415   2.870   0.084   2.391 -0.1637  0.3291 -0.0205
 4975TIP3    H136416   2.930   0.036   2.446  0.3015  1.9276  0.9453
 4975TIP3    H236417   2.783   0.061   2.423  0.0329 -0.2097  0.1193
 4976TIP3   OH236418   4.673   2.009  16.845 -0.3998  0.1291  0.5693
 4976TIP3    H136419   4.701   2.050  16.763  1.9516 -2.1001  0.1352
 4976TIP3    H236420   4.578   2.005  16.838 -0.2661 -0.5030 -2.3806
 4977TIP3   OH236421   6.705   1.232   4.208 -0.0423 -0.3412 -0.2340
 4977TIP3    H136422   6.675   1.252   4.296 -0.7925 -1.7599 -0.1493
 4977TIP3    H236423   6.796   1.205   4.219 -1.2314 -4.6386  0.7866
 4978TIP3   OH236424   5.556   5.032  11.701  0.5889  0.2474 -0.6908
 4978TIP3    H136425   5.622   5.096  11.727 -0.5740  1.0805  0.3339
 4978TIP3    H236426   5.545   4.976  11.778  2.2102 -1.8159 -1.8441
 4979TIP3   OH236427   6.424   5.534   3.856  0.2541 -0.3374 -0.3224
 4979TIP3    H136428   6.366   5.465   3.824  0.0498 -0.0525 -0.5787
 4979TIP3    H236429   6.374   5.615   3.845  0.3904 -0.1750  0.2222
 4980TIP3   OH236430   0.376   5.071  13.072 -0.1603 -0.0031 -0.5271
 4980TIP3    H136431   0.443   5.051  13.006 -0.0930 -0.9075 -0.1958
 4980TIP3    H236432   0.397   5.159  13.101  0.3000  0.0973 -1.1332
 4981TIP3   OH236433   0.346   3.881  12.914  0.0466 -0.2207 -0.7111
 4981TIP3    H136434   0.352   3.878  13.010 -0.9079  1.0417 -0.5802
 4981TIP3    H236435   0.410   3.947  12.888 -0.3755  0.1451 -0.8432
 4982TIP3   OH236436   1.374   3.914  12.117  0.3849  0.6153 -0.0617
 4982TIP3    H136437   1.346   3.941  12.204 -0.2530  0.7520 -0.3016
 4982TIP3    H236438   1.467   3.895  12.126 -0.2682 -2.4444  1.3872
 4983TIP3   OH236439   6.087   5.749   3.709  0.7858 -0.3518 -0.1562
 4983TIP3    H136440   5.993   5.767   3.703  0.5256 -0.9744  1.4314
 4983TIP3    H236441   6.096   5.660   3.676  0.3337 -1.3618  2.2091
 4984TIP3   OH236442   3.669   3.798   3.456  0.1515  0.1952 -0.5050
 4984TIP3    H136443   3.678   3.705   3.474 -1.1388  0.1373 -0.0043
 4984TIP3    H236444   3.758   3.830   3.444  0.7564 -0.7701  1.0856
 4985TIP3   OH236445   3.941   5.656   4.631 -0.1954 -0.1498  0.3125
 4985TIP3    H136446   3.918   5.564   4.641  2.0679 -0.6981  1.1117
 4985TIP3    H236447   4.027   5.654   4.588  0.5017  1.5180  1.5192
 4986TIP3   OH236448   3.050   6.126   0.106  0.1421 -0.5969 -0.2642
 4986TIP3    H136449   3.055   6.217   0.078  2.3294 -0.7516 -0.5819
 4986TIP3    H236450   3.062   6.130   0.201 -0.6070 -0.5077 -0.1702
 4987TIP3   OH236451   3.265   5.383  15.930 -0.5421  0.3284  0.1340
 4987TIP3    H136452   3.285   5.291  15.947 -1.9426 -0.1918 -0.8191
 4987TIP3    H236453   3.343   5.417  15.886  0.0492 -0.3457  0.6347
 4988TIP3   OH236454   4.333   1.899  15.180 -0.1179  0.1173 -0.1761
 4988TIP3    H136455   4.405   1.896  15.116  0.9837 -0.3039  1.0247
 4988TIP3    H236456   4.309   1.991  15.186  0.4143  0.2800 -0.5223
 4989TIP3   OH236457   4.663   2.185   4.478  0.7167 -0.1287  0.5837
 4989TIP3    H136458   4.702   2.108   4.520  1.1285 -1.2670 -1.7563
 4989TIP3    H236459   4.728   2.212   4.414 -0.1844  1.1202  0.1716
 4990TIP3   OH236460   4.089   0.717  16.009  0.1781 -0.0366 -0.3360
 4990TIP3    H136461   4.136   0.643  15.971 -0.5531 -1.2608  1.0273
 4990TIP3    H236462   4.148   0.791  15.997  1.9593 -1.2736  0.2689
 4991TIP3   OH236463   0.084   4.213  14.173  0.3810 -0.1346 -0.8558
 4991TIP3    H136464   0.006   4.237  14.124  0.8688  2.2983 -0.5729
 4991TIP3    H236465   0.102   4.289  14.229  0.8083 -2.1134  1.8974
 4992TIP3   OH236466   6.478   2.534   4.219 -0.2138  0.5781  0.0158
 4992TIP3    H136467   6.530   2.510   4.296  2.7338  2.2180 -1.3108
 4992TIP3    H236468   6.481   2.456   4.164  1.1009  0.6757 -0.1025
 4993TIP3   OH236469   2.005   1.599   0.908 -0.0034  0.4383  0.0690
 4993TIP3    H136470   2.055   1.566   0.833  1.0527 -0.2511  1.0397
 4993TIP3    H236471   1.930   1.540   0.915 -1.4927  1.9759 -1.9101
 4994TIP3   OH236472   4.093   3.699   3.891 -0.0760  0.1900 -0.6088
 4994TIP3    H136473   4.028   3.717   3.823  1.2563  1.5436 -1.6024
 4994TIP3    H236474   4.052   3.729   3.973 -1.7310 -1.5353 -0.7641
 4995TIP3   OH236475   0.987   6.659   4.086 -0.2640 -0.1012 -1.2731
 4995TIP3    H136476   1.016   6.743   4.124 -0.1703 -0.3311 -0.8322
 4995TIP3    H236477   0.899   6.678   4.053 -0.9840 -0.2664  0.4117
 4996TIP3   OH236478   4.317   2.375  15.992  0.0506 -0.4284  0.1598
 4996TIP3    H136479   4.233   2.331  15.975 -0.8227  0.5912  1.6394
 4996TIP3    H236480   4.383   2.307  15.975 -1.1924 -2.0042  1.2756
 4997TIP3   OH236481   4.649   4.875  14.509 -0.2423  0.0434  0.1468
 4997TIP3    H136482   4.657   4.960  14.466 -0.4442 -0.2022 -0.3773
 4997TIP3    H236483   4.567   4.881  14.559  0.1946  0.4712  0.8402
 4998TIP3   OH236484   1.729   2.423   0.987 -0.7029 -0.1109 -0.3709
 4998TIP3    H136485   1.708   2.387   1.073 -1.3471  0.6125 -0.2245
 4998TIP3    H236486   1.819   2.456   0.996 -0.8110  0.0655  0.0550
 4999TIP3   OH236487   0.068   0.278  16.112 -0.2040 -0.9815 -0.1876
 4999TIP3    H136488   0.124   0.336  16.060 -0.2623 -0.1609  0.6417
 4999TIP3    H236489  -0.021   0.310  16.096 -0.0860  0.7659  2.1220
 5000TIP3   OH236490   0.522   3.886   4.460  0.0592  0.5403  0.7355
 5000TIP3    H136491   0.609   3.848   4.447  0.3699  0.4801  2.7323
 5000TIP3    H236492   0.510   3.888   4.555 -2.1348  0.5675  0.5109
 5001TIP3   OH236493   0.423   1.673   3.298  0.3979  1.1753  0.0848
 5001TIP3    H136494   0.378   1.638   3.221  0.8891  1.1610 -0.2044
 5001TIP3    H236495   0.360   1.665   3.369  0.0885  0.7961 -0.2282
 5002TIP3   OH236496   0.100   3.040  15.385  0.0927  0.3848 -0.5236
 5002TIP3    H136497   0.116   2.965  15.441 -0.6410  0.2485 -0.4883
 5002TIP3    H236498   0.186   3.061  15.348 -0.0232 -1.7595 -2.1772
 5003TIP3   OH236499   4.016   5.203  15.478  0.0423  0.3087 -0.3222
 5003TIP3    H136500   4.072   5.125  15.478  0.7245  0.7842 -0.5604
 5003TIP3    H236501   4.015   5.231  15.570 -0.3411 -0.0699 -0.2066
 5004TIP3   OH236502   0.114   1.620   1.444  0.2532 -0.0723 -0.1185
 5004TIP3    H136503   0.075   1.633   1.357  0.5696  1.6326 -0.0515
 5004TIP3    H236504   0.164   1.701   1.459 -0.0332 -0.2210  1.7688
 5005TIP3   OH236505   4.944   3.939   0.795 -0.1433  0.3649 -0.1707
 5005TIP3    H136506   4.885   4.014   0.800  1.3783  1.7439 -1.6143
 5005TIP3    H236507   4.926   3.900   0.710 -0.9431 -0.9728  0.5843
 5006TIP3   OH236508   3.032   5.535  17.084 -0.5323  0.4514  0.1308
 5006TIP3    H136509   2.966   5.539  17.152 -0.6418  1.1020 -0.0054
 5006TIP3    H236510   3.074   5.450  17.096 -0.8799  0.3553  0.6947
 5007TIP3   OH236511   3.340   0.473  13.615  0.0561  0.0167 -0.2027
 5007TIP3    H136512   3.324   0.551  13.562 -0.2704  0.2231  0.1858
 5007TIP3    H236513   3.435   0.463  13.616  0.1017  0.4210 -0.2439
 5008TIP3   OH236514   3.229   2.742   2.263 -0.0443 -0.5277  0.7055
 5008TIP3    H136515   3.165   2.795   2.311 -1.3993 -1.5436  0.0845
 5008TIP3    H236516   3.300   2.803   2.242 -0.7984  0.6285  1.4163
 5009TIP3   OH236517   0.524   6.228   5.252  0.0831  0.1852 -0.4002
 5009TIP3    H136518   0.462   6.293   5.219 -0.3358  0.0364  0.0832
 5009TIP3    H236519   0.481   6.190   5.328  1.8611  2.0000  1.6639
 5010TIP3   OH236520   3.601   4.855   0.197 -0.6461 -0.4300 -0.2304
 5010TIP3    H136521   3.645   4.939   0.186  0.1944 -0.9084 -0.6113
 5010TIP3    H236522   3.565   4.859   0.286  0.2189 -0.0423  0.1207
 5011TIP3   OH236523   3.811   1.494   1.139 -1.1489  0.0339  0.2965
 5011TIP3    H136524   3.717   1.480   1.127 -1.3892  0.1444  1.7626
 5011TIP3    H236525   3.816   1.559   1.209  0.0266  0.7537 -0.4302
 5012TIP3   OH236526   1.850   4.324   3.675  0.6481  0.3896  0.1732
 5012TIP3    H136527   1.929   4.283   3.708  1.5335  1.9577  0.1034
 5012TIP3    H236528   1.827   4.389   3.742 -0.7276 -0.1974  0.3047
 5013TIP3   OH236529   4.867   4.722   5.034  0.2756 -0.1068 -0.3652
 5013TIP3    H136530   4.916   4.805   5.032 -0.5248  0.3680 -0.6592
 5013TIP3    H236531   4.922   4.661   4.985 -1.5196  1.6216 -5.0748
 5014TIP3   OH236532   0.467   4.505  15.116  0.1520  0.0468 -0.2757
 5014TIP3    H136533   0.546   4.533  15.161  1.5657 -0.1506 -2.5005
 5014TIP3    H236534   0.399   4.566  15.147  1.6907  1.7453 -0.1147
 5015TIP3   OH236535   5.470   0.087  14.333  0.0829  0.2810  0.1271
 5015TIP3    H136536   5.449   0.064  14.423 -1.2945 -0.8779 -0.4660
 5015TIP3    H236537   5.394   0.137  14.302  0.1290 -0.1309 -0.6747
 5016TIP3   OH236538   0.730   4.370  15.287  0.3448  0.1400 -0.1482
 5016TIP3    H136539   0.712   4.459  15.256 -2.5138 -0.3091 -0.0639
 5016TIP3    H236540   0.720   4.315  15.210  1.3030 -0.2043 -0.0354
 5017TIP3   OH236541   1.349   3.166  15.518  0.7341 -0.5029  0.5288
 5017TIP3    H136542   1.263   3.185  15.480  1.2922  1.7610  0.2170
 5017TIP3    H236543   1.332   3.153  15.611  0.0035 -0.5531  0.3916
 5018TIP3   OH236544   0.853   0.684  17.012 -0.6496  0.0228  0.0844
 5018TIP3    H136545   0.939   0.700  16.975 -0.5355  2.0081  1.0898
 5018TIP3    H236546   0.860   0.595  17.049  1.0459  0.2353  0.3708
 5019TIP3   OH236547   4.424   6.635   1.258 -0.1408  0.3915  0.0110
 5019TIP3    H136548   4.448   6.547   1.229 -0.3225  0.7045 -1.1044
 5019TIP3    H236549   4.454   6.692   1.188  0.4199  1.2822  0.9512
 5020TIP3   OH236550   4.624   3.620   4.518 -0.0133 -0.3952  0.0256
 5020TIP3    H136551   4.696   3.561   4.541 -0.1748 -1.4158 -1.8641
 5020TIP3    H236552   4.660   3.676   4.450 -0.8387 -0.6043 -0.6073
 5021TIP3   OH236553   6.192   4.089  11.361 -0.4164 -0.5150 -0.1672
 5021TIP3    H136554   6.129   4.133  11.303  0.0959  1.4404  0.6875
 5021TIP3    H236555   6.144   4.076  11.443 -0.6555 -1.8830 -0.5020
 5022TIP3   OH236556   5.306   3.348  15.196  0.2576 -0.2068  0.3040
 5022TIP3    H136557   5.354   3.278  15.153  1.1222  1.0149 -0.8008
 5022TIP3    H236558   5.364   3.423  15.192 -1.7123  1.3644 -1.1678
 5023TIP3   OH236559   0.212   2.212   5.860  0.0342  0.4405  0.2425
 5023TIP3    H136560   0.180   2.302   5.850  2.1018  1.0329 -1.9499
 5023TIP3    H236561   0.300   2.222   5.896  0.9113 -0.5491 -1.5220
 5024TIP3   OH236562   3.592   4.289   1.952 -0.0049  0.6374  0.5916
 5024TIP3    H136563   3.639   4.221   1.904 -0.2749  1.5228 -0.9962
 5024TIP3    H236564   3.567   4.248   2.034  1.2448 -0.6671  0.3625
 5025TIP3   OH236565   6.747   5.836  16.937  0.3767  0.3237  0.5420
 5025TIP3    H136566   6.701   5.903  16.988 -1.3897 -0.0942 -0.4418
 5025TIP3    H236567   6.796   5.786  17.002  1.0199  1.9905  1.4049
 5026TIP3   OH236568   3.911   5.885   5.859 -0.2748 -0.0508 -0.1274
 5026TIP3    H136569   3.950   5.841   5.934 -0.5612  2.0836  1.3700
 5026TIP3    H236570   3.955   5.970   5.856 -1.1613  0.3942 -1.6297
 5027TIP3   OH236571   6.284   3.611  15.724 -0.3516  0.2973 -0.1285
 5027TIP3    H136572   6.262   3.694  15.680 -0.0069  0.1601 -0.5652
 5027TIP3    H236573   6.269   3.544  15.658 -0.2802  0.0422  0.1125
 5028TIP3   OH236574   2.337   1.349  13.889 -0.3301 -0.1736 -0.5334
 5028TIP3    H136575   2.316   1.431  13.934 -2.0579 -0.0692 -1.4580
 5028TIP3    H236576   2.336   1.283  13.958 -2.5357  0.0489 -0.2626
 5029TIP3   OH236577   1.421   5.924   3.407 -0.1056 -0.0500  0.7852
 5029TIP3    H136578   1.480   5.872   3.352  0.0611 -0.2567  1.1498
 5029TIP3    H236579   1.340   5.930   3.356 -0.1182 -0.6475  0.7180
 5030TIP3   OH236580   2.825   3.680  14.275  0.0236  0.1465  0.4351
 5030TIP3    H136581   2.845   3.759  14.325 -1.5935  1.0785 -0.3061
 5030TIP3    H236582   2.869   3.693  14.191  0.9789 -0.4489  0.8236
 5031TIP3   OH236583   0.612   1.875  13.897 -0.4685 -0.3687  0.5523
 5031TIP3    H136584   0.639   1.816  13.967 -2.7841 -0.0879  1.7862
 5031TIP3    H236585   0.593   1.818  13.823  0.9056 -0.7806  0.5028
 5032TIP3   OH236586   1.347   2.003   4.665 -0.4859 -0.1592  0.5081
 5032TIP3    H136587   1.297   2.077   4.700 -0.6442 -0.5738  1.1817
 5032TIP3    H236588   1.282   1.934   4.654 -0.1071 -0.6328  1.1791
 5033TIP3   OH236589   4.789   1.922   4.578 -0.5183  0.3490  0.0550
 5033TIP3    H136590   4.776   1.973   4.659  3.0534  0.1720  0.8988
 5033TIP3    H236591   4.805   1.833   4.608  0.9381  0.2973 -0.7904
 5034TIP3   OH236592   3.886   3.251   1.611 -0.2364 -0.2994 -0.5566
 5034TIP3    H136593   3.891   3.265   1.517  1.3333 -0.5136 -0.5338
 5034TIP3    H236594   3.821   3.181   1.622 -1.3257  0.5573 -1.3604
 5035TIP3   OH236595   5.298   3.358   4.500  0.0188  0.0962  0.2513
 5035TIP3    H136596   5.252   3.388   4.578 -2.2406 -0.6604 -0.7264
 5035TIP3    H236597   5.256   3.405   4.428  0.9217 -0.4892 -0.6758
 5036TIP3   OH236598   4.685   2.371  15.804  0.9552  0.2239 -0.5995
 5036TIP3    H136599   4.714   2.283  15.780  0.2370 -0.2901  0.3257
 5036TIP3    H236600   4.656   2.363  15.895 -0.0056  1.1955 -0.7953
 5037TIP3   OH236601   0.588   0.367   0.039 -0.1182  0.0193  0.1105
 5037TIP3    H136602   0.549   0.378   0.125 -1.7663  0.5120 -0.6536
 5037TIP3    H236603   0.533   0.302  -0.005  0.5697 -0.0824 -0.6344
 5038TIP3   OH236604   6.575   4.255  14.629  0.0506  0.1914  0.1641
 5038TIP3    H136605   6.516   4.220  14.563 -0.1803  1.1495 -0.1535
 5038TIP3    H236606   6.572   4.191  14.701 -0.7297 -0.1784 -0.1856
 5039TIP3   OH236607   6.420   5.122  11.921  0.0310  0.0967  0.5354
 5039TIP3    H136608   6.506   5.124  11.964  0.3309  0.1560 -0.0534
 5039TIP3    H236609   6.358   5.137  11.992  0.3487 -2.1154  1.3842
 5040TIP3   OH236610   2.261   0.590  12.162 -0.2727  0.8651 -0.2456
 5040TIP3    H136611   2.189   0.534  12.135 -1.5447  1.0474  2.4142
 5040TIP3    H236612   2.304   0.616  12.080 -2.8086  0.2355 -1.8838
 5041TIP3   OH236613   5.225   3.265  14.307 -0.1906 -0.3520 -0.2549
 5041TIP3    H136614   5.242   3.347  14.353 -0.7884 -0.5300  0.2869
 5041TIP3    H236615   5.221   3.290  14.214 -0.6789  0.2806 -0.0679
 5042TIP3   OH236616   4.230   6.456   1.652 -0.5275  0.3758  0.3676
 5042TIP3    H136617   4.226   6.498   1.738  1.5844 -0.5904  0.9881
 5042TIP3    H236618   4.237   6.529   1.590  0.9681  1.0391  1.2712
 5043TIP3   OH236619   0.953   6.781  16.116 -0.3613  0.2299 -0.1382
 5043TIP3    H136620   0.905   6.863  16.126  0.0342  0.7090 -1.8364
 5043TIP3    H236621   0.995   6.788  16.030  1.0763 -1.0417  0.4172
 5044TIP3   OH236622   0.323   1.542   0.803  0.0715 -0.1072 -0.3370
 5044TIP3    H136623   0.327   1.615   0.865 -1.6067 -0.8191  0.6939
 5044TIP3    H236624   0.409   1.501   0.809  0.3894  0.6396  0.4998
 5045TIP3   OH236625   4.502   1.652   6.731  0.4385  0.2387  0.2603
 5045TIP3    H136626   4.502   1.744   6.756  0.4901  0.4155 -0.3595
 5045TIP3    H236627   4.587   1.638   6.689  0.0786  0.1480 -0.4640
 5046TIP3   OH236628   3.840   5.717  12.387  0.3561  0.4521  0.2696
 5046TIP3    H136629   3.748   5.697  12.375  0.1625  1.2433  0.3989
 5046TIP3    H236630   3.872   5.741  12.300  0.6407 -0.5933  0.0739
 5047TIP3   OH236631   5.966   3.140  13.018 -0.1939  0.8021 -0.2686
 5047TIP3    H136632   6.042   3.091  13.051 -0.0271  0.5873 -0.9605
 5047TIP3    H236633   5.898   3.125  13.083  0.6417  1.8020  0.8892
 5048TIP3   OH236634   4.186   4.565  15.513  0.1679 -0.3232 -0.3249
 5048TIP3    H136635   4.222   4.653  15.504  1.4819 -1.0534 -3.7247
 5048TIP3    H236636   4.259   4.508  15.488 -0.9440 -2.3493  0.8410
 5049TIP3   OH236637   6.214   0.440   3.745 -0.0495  1.0598  0.3231
 5049TIP3    H136638   6.257   0.443   3.830 -1.6158  0.7044  1.1767
 5049TIP3    H236639   6.274   0.391   3.689  0.9587  1.2016  1.2408
 5050TIP3   OH236640   4.912   4.976   5.037 -0.4424 -0.2036  0.7452
 5050TIP3    H136641   4.949   5.050   5.085  1.5036 -0.3781 -0.3608
 5050TIP3    H236642   4.892   5.011   4.950  0.6447 -0.9582  0.1552
 5051TIP3   OH236643   3.548   1.647   0.810  0.0787  0.1441  0.3806
 5051TIP3    H136644   3.509   1.657   0.722  1.0871 -0.3454 -0.1363
 5051TIP3    H236645   3.479   1.605   0.861 -0.1082 -0.6814 -0.5138
 5052TIP3   OH236646   2.684   6.756   2.924  0.3433  0.3211  0.0289
 5052TIP3    H136647   2.617   6.727   2.987 -1.8971  1.4797 -1.6706
 5052TIP3    H236648   2.668   6.849   2.914  1.2206  0.3235 -1.6166
 5053TIP3   OH236649   1.621   2.149  13.911 -0.2520  0.5217 -0.1685
 5053TIP3    H136650   1.571   2.120  13.834 -1.6113  1.1064  0.4736
 5053TIP3    H236651   1.558   2.152  13.982  1.1237 -0.6556  1.1730
 5054TIP3   OH236652   1.540   1.340   6.329  0.3561 -0.5011 -0.0170
 5054TIP3    H136653   1.502   1.348   6.242 -0.3518  0.5958  0.3672
 5054TIP3    H236654   1.621   1.291   6.316 -0.7486 -2.2047 -0.9922
 5055TIP3   OH236655   5.505   4.542   2.653  0.0901  0.2500 -0.2000
 5055TIP3    H136656   5.551   4.568   2.733 -1.9944 -0.5985  1.3954
 5055TIP3    H236657   5.562   4.475   2.614  1.1754  0.7025  0.5484
 5056TIP3   OH236658   5.437   2.398   0.819  0.3608  0.4518 -0.1049
 5056TIP3    H136659   5.384   2.449   0.880 -0.8074  0.3137 -0.9613
 5056TIP3    H236660   5.524   2.439   0.822  0.4063  0.2938  1.7946
 5057TIP3   OH236661   0.924   1.735   0.566  0.5824  0.7948 -0.2977
 5057TIP3    H136662   0.905   1.687   0.485  1.0788  1.0179 -0.5511
 5057TIP3    H236663   1.018   1.722   0.581  0.2402 -0.3598  0.9829
 5058TIP3   OH236664   4.636   5.373   1.991 -0.6590 -0.1497  0.6904
 5058TIP3    H136665   4.694   5.310   1.951 -0.0225  1.0111 -0.2897
 5058TIP3    H236666   4.693   5.444   2.021 -1.5726  1.6899 -1.5428
 5059TIP3   OH236667   2.224   0.768  16.449 -0.2395  0.2390  0.4115
 5059TIP3    H136668   2.189   0.777  16.537  0.1348 -0.3839  0.6276
 5059TIP3    H236669   2.173   0.697  16.410  0.1896 -0.0773  0.4277
 5060TIP3   OH236670   5.449   2.935  15.542 -0.7471  0.2382 -0.3144
 5060TIP3    H136671   5.441   2.888  15.625 -0.7587  1.9659  0.7206
 5060TIP3    H236672   5.541   2.960  15.537 -0.5281 -0.7188 -1.3380
 5061TIP3   OH236673   3.129   3.115  15.038 -1.0038  0.2572 -0.0634
 5061TIP3    H136674   3.116   3.126  14.944 -1.5983  1.3187  0.1296
 5061TIP3    H236675   3.162   3.025  15.047 -1.1338  0.0708 -1.2566
 5062TIP3   OH236676   5.318   1.878   3.917  0.1328  0.0660 -0.3035
 5062TIP3    H136677   5.366   1.958   3.940 -0.5396  0.7717 -1.3061
 5062TIP3    H236678   5.265   1.859   3.994  1.1344 -0.0655  0.3717
 5063TIP3   OH236679   0.759   4.203  15.650 -0.4173 -0.8871 -0.6430
 5063TIP3    H136680   0.769   4.114  15.683 -2.9739 -1.6860 -1.8005
 5063TIP3    H236681   0.673   4.204  15.610  0.4081  1.5049 -2.5858
 5064TIP3   OH236682   3.334   3.694   3.708  0.0682 -0.0782 -0.6762
 5064TIP3    H136683   3.392   3.745   3.765 -0.2348  0.2231 -0.6353
 5064TIP3    H236684   3.340   3.604   3.743  0.6380 -0.0851 -0.7775
 5065TIP3   OH236685   1.205   3.748  17.162 -0.0780 -0.7136  0.3523
 5065TIP3    H136686   1.197   3.709  17.248  0.6248 -1.3378  0.1384
 5065TIP3    H236687   1.192   3.842  17.177 -0.5606 -0.8834  1.0370
 5066TIP3   OH236688   6.674   3.222  16.719  0.4998 -0.2530 -0.1127
 5066TIP3    H136689   6.637   3.305  16.751  1.4653  0.0136  0.3710
 5066TIP3    H236690   6.625   3.154  16.765 -0.8003  0.0186 -1.0642
 5067TIP3   OH236691   3.161   3.902  12.055 -0.3601 -0.7847 -0.3539
 5067TIP3    H136692   3.176   3.976  11.996 -3.6582 -0.2258 -0.6862
 5067TIP3    H236693   3.136   3.942  12.138  1.4752 -1.5999  0.6607
 5068TIP3   OH236694   1.300   4.474   4.325 -0.2927  0.1632  0.0966
 5068TIP3    H136695   1.309   4.481   4.230 -0.0562 -0.7400  0.0459
 5068TIP3    H236696   1.366   4.533   4.360 -0.9471  1.1437 -0.2964
 5069TIP3   OH236697   2.020   1.229  15.654 -0.3709 -0.2995 -0.6113
 5069TIP3    H136698   1.991   1.195  15.569  1.6069 -1.2721 -0.9573
 5069TIP3    H236699   2.116   1.227  15.649 -0.2001  1.1827  1.0456
 5070TIP3   OH236700   2.929   0.127   1.042  0.2252  0.8689  0.8569
 5070TIP3    H136701   2.993   0.104   0.975 -2.0675 -0.6027 -0.9605
 5070TIP3    H236702   2.855   0.163   0.994 -1.0401  0.8882  2.7076
 5071TIP3   OH236703   2.026   0.548   3.731 -0.0511  0.0491 -0.1131
 5071TIP3    H136704   2.041   0.608   3.658  0.2995  1.9022  1.3725
 5071TIP3    H236705   1.932   0.554   3.748 -0.2684 -0.9998 -0.8892
 5072TIP3   OH236706   5.695   3.817  12.283  0.3089  0.8059 -0.0386
 5072TIP3    H136707   5.609   3.831  12.245 -0.1837 -0.2788  0.6230
 5072TIP3    H236708   5.752   3.798  12.208 -0.9071 -2.6174 -0.2912
 5073TIP3   OH236709   2.046   1.641  13.566  0.0869 -0.0587 -0.0875
 5073TIP3    H136710   1.959   1.680  13.557 -0.3290 -1.0493 -0.4940
 5073TIP3    H236711   2.055   1.625  13.660  0.1178  0.6756  0.0401
 5074TIP3   OH236712   3.558   1.185   5.159 -0.3785  0.4022 -0.0422
 5074TIP3    H136713   3.508   1.263   5.186  1.6439  2.2964 -1.4552
 5074TIP3    H236714   3.647   1.203   5.189  0.4259 -0.7151 -1.6708
 5075TIP3   OH236715   0.409   6.746   3.277  0.3854 -0.7540  0.1093
 5075TIP3    H136716   0.407   6.785   3.365  0.3393 -2.7239  1.0397
 5075TIP3    H236717   0.502   6.741   3.255  0.3781  0.1282 -0.1495
 5076TIP3   OH236718   4.394   5.927   3.176  0.1872 -0.2306  0.0445
 5076TIP3    H136719   4.391   6.022   3.183 -2.6346 -0.1306 -1.3069
 5076TIP3    H236720   4.440   5.911   3.093 -0.3360  0.0060 -0.2942
 5077TIP3   OH236721   5.096   1.757   1.098  0.3538 -0.1119  0.0328
 5077TIP3    H136722   5.115   1.698   1.171  0.8076 -2.2117 -1.6798
 5077TIP3    H236723   5.180   1.767   1.053  0.0994  1.2010 -0.2043
 5078TIP3   OH236724   4.896   4.180   5.754 -0.1686  0.1833 -0.9625
 5078TIP3    H136725   4.973   4.143   5.711  0.0410 -0.3962 -0.1159
 5078TIP3    H236726   4.843   4.104   5.777 -0.9632  0.5785 -1.4742
 5079TIP3   OH236727   6.745   4.362   1.843  0.4076 -0.2125  0.3208
 5079TIP3    H136728   6.677   4.424   1.818 -0.2167 -0.8374  0.4123
 5079TIP3    H236729   6.819   4.383   1.787 -0.9218 -1.5500 -2.1134
 5080TIP3   OH236730   4.736   4.732  12.278 -0.4769  0.3462 -0.2835
 5080TIP3    H136731   4.764   4.813  12.321  0.9048  0.2442 -0.9268
 5080TIP3    H236732   4.650   4.714  12.315 -1.1070  2.4370 -0.5775
 5081TIP3   OH236733   6.045   5.273  15.842  0.4735  0.2698  0.3638
 5081TIP3    H136734   5.979   5.342  15.846 -0.8797 -0.8587 -1.1448
 5081TIP3    H236735   5.995   5.192  15.845  1.7618 -0.6288 -0.9561
 5082TIP3   OH236736   0.393   1.209   5.420 -0.0342  1.0130 -0.0113
 5082TIP3    H136737   0.396   1.304   5.428  3.4838  1.2831 -2.1007
 5082TIP3    H236738   0.363   1.193   5.330 -1.2537  0.0921  0.5379
 5083TIP3   OH236739   5.817   5.346   6.045 -0.2873 -0.0980 -0.1116
 5083TIP3    H136740   5.899   5.367   6.090 -1.1160  0.6887  1.1004
 5083TIP3    H236741   5.805   5.252   6.058  0.6939 -0.3339 -0.7991
 5084TIP3   OH236742   0.927   5.014  15.124 -0.4100 -0.2656  0.4796
 5084TIP3    H136743   0.833   4.996  15.120 -0.4896 -0.3866  2.1090
 5084TIP3    H236744   0.932   5.100  15.166  0.2150 -0.5401  0.9776
 5085TIP3   OH236745   3.055   4.679  12.919  0.0380  0.2150 -0.0311
 5085TIP3    H136746   3.122   4.649  12.857  1.3030  0.9264  0.9583
 5085TIP3    H236747   2.973   4.672  12.870  0.6636 -1.7632 -0.9082
 5086TIP3   OH236748   4.797   2.290  15.328 -0.1430 -0.1426  0.2915
 5086TIP3    H136749   4.751   2.352  15.270 -1.3704 -0.9582  0.3572
 5086TIP3    H236750   4.836   2.346  15.396  0.6516  0.7508 -0.8645
 5087TIP3   OH236751   2.977   2.397   5.356  0.6465  0.4894 -0.7357
 5087TIP3    H136752   2.943   2.486   5.366  0.5285  0.3148  0.6215
 5087TIP3    H236753   2.905   2.341   5.384  1.3969  0.0508  0.3799
 5088TIP3   OH236754   5.532   0.972   3.124 -0.3810  0.6853 -0.1067
 5088TIP3    H136755   5.459   1.000   3.068 -0.4516  0.6216 -0.0459
 5088TIP3    H236756   5.493   0.964   3.211 -1.3279 -3.3194 -0.7224
 5089TIP3   OH236757   2.384   2.841   1.890 -0.1192  0.1651 -0.3772
 5089TIP3    H136758   2.365   2.834   1.984  1.3344  0.0118 -0.0667
 5089TIP3    H236759   2.471   2.802   1.880 -0.5676 -0.5270 -1.9284
 5090TIP3   OH236760   5.830   1.293  11.398 -0.6625 -0.5601  0.2394
 5090TIP3    H136761   5.873   1.215  11.432  1.1298 -0.1373 -0.9057
 5090TIP3    H236762   5.749   1.260  11.358  0.5177 -2.0374 -1.1121
 5091TIP3   OH236763   3.240   4.539  10.435  0.3600  0.6379 -0.1364
 5091TIP3    H136764   3.195   4.464  10.473  1.0052  0.6412  0.6660
 5091TIP3    H236765   3.170   4.596  10.403 -0.1482 -0.0608 -0.2794
 5092TIP3   OH236766   3.143   6.394   5.985  0.3985 -0.1599 -0.2749
 5092TIP3    H136767   3.051   6.386   6.010  0.6389 -1.9636  0.1569
 5092TIP3    H236768   3.140   6.436   5.899 -0.7477  0.7658  0.1801
 5093TIP3   OH236769   4.514   3.327  10.841 -0.1730  0.1683 -0.0395
 5093TIP3    H136770   4.584   3.393  10.850 -1.8019  2.1784 -1.1065
 5093TIP3    H236771   4.435   3.374  10.866 -1.2105 -1.9872  0.8975
 5094TIP3   OH236772   3.789   5.734   3.390  0.0839 -0.2084  0.4566
 5094TIP3    H136773   3.824   5.689   3.313 -0.9539  1.2449 -0.9417
 5094TIP3    H236774   3.728   5.672   3.429  1.5833 -1.4499  0.8900
 5095TIP3   OH236775   0.676   4.268  12.376  0.7318  0.2135 -0.1455
 5095TIP3    H136776   0.593   4.299  12.412 -0.0713  0.9015 -2.4115
 5095TIP3    H236777   0.709   4.342  12.325  1.4186 -0.8947 -1.3764
 5096TIP3   OH236778   2.794   4.804  13.351 -0.1602  0.1555  0.6923
 5096TIP3    H136779   2.730   4.755  13.402  0.0207 -0.0763  0.6973
 5096TIP3    H236780   2.876   4.796  13.400  0.7005 -2.3986 -0.9870
 5097TIP3   OH236781   1.191   1.474  14.523  0.0099  0.1079 -0.1996
 5097TIP3    H136782   1.272   1.478  14.473  0.2534  0.9127  0.2389
 5097TIP3    H236783   1.128   1.524  14.471  0.2055  0.7597  0.1741
 5098TIP3   OH236784   0.414   2.498   3.265 -0.2634 -0.1386  0.3196
 5098TIP3    H136785   0.358   2.480   3.190 -0.1703 -1.7772  0.6163
 5098TIP3    H236786   0.491   2.443   3.251  0.6113  0.9416  0.6887
 5099TIP3   OH236787   0.979   1.258  11.764  0.3020  0.2141  0.5754
 5099TIP3    H136788   0.904   1.262  11.704 -0.2607  0.4255  1.2848
 5099TIP3    H236789   0.998   1.165  11.772  0.0545  0.1534  0.4635
 5100TIP3   OH236790   4.314   5.288   5.999 -0.6494 -0.5414 -0.3247
 5100TIP3    H136791   4.237   5.321   6.044 -0.9817 -2.0489  0.2833
 5100TIP3    H236792   4.363   5.240   6.066  0.6856  0.1481 -0.7657
 5101TIP3   OH236793   5.607   6.808   3.369  0.8803 -0.6881  0.3121
 5101TIP3    H136794   5.641   6.872   3.432  0.2461  0.0884 -0.1115
 5101TIP3    H236795   5.636   6.724   3.403 -0.2934 -0.3909  2.2342
 5102TIP3   OH236796   2.529   1.355  13.240  0.3601 -0.5852 -0.4900
 5102TIP3    H136797   2.498   1.279  13.289  0.5035  0.5761  1.5087
 5102TIP3    H236798   2.477   1.428  13.273  1.4598  0.4784 -1.0205
 5103TIP3   OH236799   5.728   5.972  11.803 -0.5300  0.3799 -0.5037
 5103TIP3    H136800   5.725   5.925  11.886 -0.3605  0.8561 -0.2310
 5103TIP3    H236801   5.659   5.931  11.750 -0.8399  0.2821 -0.0302
 5104TIP3   OH236802   6.499   6.729  14.103  0.5337  0.1366 -0.6505
 5104TIP3    H136803   6.525   6.821  14.101 -0.5683  0.5642  1.3115
 5104TIP3    H236804   6.404   6.730  14.091  0.6061 -0.8419 -1.4943
 5105TIP3   OH236805   3.945   6.222  11.580  0.0260 -1.0004  0.1540
 5105TIP3    H136806   3.953   6.157  11.511 -1.4837 -1.4579  0.3764
 5105TIP3    H236807   3.851   6.228  11.597  0.3112 -0.3783  1.6763
 5106TIP3   OH236808   6.276   3.407   0.693 -0.1574 -0.2070 -0.3918
 5106TIP3    H136809   6.324   3.446   0.620  0.4563 -0.9181 -0.3744
 5106TIP3    H236810   6.214   3.475   0.720 -0.1744  0.1770 -1.3661
 5107TIP3   OH236811   3.302   3.325  15.598 -1.0664 -0.1718  0.0872
 5107TIP3    H136812   3.346   3.372  15.527 -1.4106  1.5328  0.9401
 5107TIP3    H236813   3.260   3.394  15.649 -2.6167 -1.5306  0.7414
 5108TIP3   OH236814   3.535   2.747  14.039 -0.4088  0.4502  0.3219
 5108TIP3    H136815   3.457   2.787  14.001  1.4300  2.0072 -2.1727
 5108TIP3    H236816   3.510   2.656  14.056 -3.9623  1.7646  3.6800
 5109TIP3   OH236817   0.153   3.686   5.749  0.1446  0.1470  0.7342
 5109TIP3    H136818   0.155   3.692   5.654 -2.2856 -1.3293  0.4989
 5109TIP3    H236819   0.217   3.619   5.771 -0.5743 -0.8167 -0.0508
 5110TIP3   OH236820   5.622   2.597  15.039  0.2053 -0.3452  0.2852
 5110TIP3    H136821   5.540   2.596  14.989 -0.2535  0.5782  0.9733
 5110TIP3    H236822   5.677   2.532  14.997 -1.3462 -1.9290  0.5691
 5111TIP3   OH236823   3.444   4.434  11.225  0.0318  0.0282  0.4840
 5111TIP3    H136824   3.496   4.360  11.192  1.2722  0.2968  1.7444
 5111TIP3    H236825   3.375   4.446  11.160  0.2882 -1.7207 -0.1553
 5112TIP3   OH236826   6.733   0.182   6.196 -0.1967  0.0200  0.5008
 5112TIP3    H136827   6.683   0.175   6.116  0.6591 -0.7512  0.0209
 5112TIP3    H236828   6.715   0.271   6.228 -0.3446  0.4200 -0.6720
 5113TIP3   OH236829   1.322   2.836  13.863 -0.2899  0.0680  0.1361
 5113TIP3    H136830   1.263   2.761  13.868  0.4054 -0.8037 -2.9779
 5113TIP3    H236831   1.404   2.804  13.900 -1.0902  0.6911  2.6700
 5114TIP3   OH236832   5.627   2.514  11.576 -0.2000  0.1262 -0.4202
 5114TIP3    H136833   5.638   2.534  11.483  0.8988 -1.7578 -0.7506
 5114TIP3    H236834   5.706   2.551  11.617  0.3848 -0.8846 -0.5939
 5115TIP3   OH236835   6.022   4.697   1.294 -0.0792 -0.3336 -0.0583
 5115TIP3    H136836   5.953   4.760   1.314 -0.0872  0.2636 -1.7978
 5115TIP3    H236837   5.992   4.615   1.334 -1.8183 -0.0913 -0.7937
 5116TIP3   OH236838   3.550   5.503   5.412  0.2265 -0.5145  0.0843
 5116TIP3    H136839   3.593   5.587   5.395 -0.2666 -0.5295 -1.3418
 5116TIP3    H236840   3.611   5.438   5.376 -0.6504 -0.5713 -1.3992
 5117TIP3   OH236841   0.560   4.809   1.664  0.6090 -0.2216  0.4870
 5117TIP3    H136842   0.578   4.727   1.709 -2.2862 -0.9561  0.4643
 5117TIP3    H236843   0.493   4.852   1.717 -1.5034 -0.2067 -2.0083
 5118TIP3   OH236844   5.166   0.393  14.329 -0.1103 -0.7347  0.1127
 5118TIP3    H136845   5.165   0.312  14.277 -0.6826 -0.2271 -0.6951
 5118TIP3    H236846   5.233   0.447  14.288 -1.9964  0.5204 -1.5065
 5119TIP3   OH236847   4.807   5.150  15.083  0.6824 -0.0376 -0.6526
 5119TIP3    H136848   4.889   5.160  15.034  0.1140  1.5395 -1.3356
 5119TIP3    H236849   4.738   5.169  15.019 -0.3583 -3.0808 -0.5761
 5120TIP3   OH236850   5.890   1.976  11.563 -0.3105 -0.2059  0.0171
 5120TIP3    H136851   5.963   2.034  11.543  0.3697 -1.4799 -1.3913
 5120TIP3    H236852   5.927   1.909  11.621 -0.1770 -1.2093 -1.2025
 5121TIP3   OH236853   5.901   3.106  11.840 -0.1133 -0.1965  0.2005
 5121TIP3    H136854   5.929   3.180  11.787  1.3234  0.1099  1.3018
 5121TIP3    H236855   5.945   3.031  11.801  0.8549  0.0118  0.8597
 5122TIP3   OH236856   6.062   0.288   0.913 -0.3506  0.4845  0.6403
 5122TIP3    H136857   6.148   0.249   0.898 -0.1990  0.9390  0.3045
 5122TIP3    H236858   6.071   0.378   0.882 -0.9519  0.5304  0.5879
 5123TIP3   OH236859   3.882   4.622   2.086  0.2132  0.5223 -0.2726
 5123TIP3    H136860   3.855   4.698   2.137 -3.7390 -1.1436  0.4686
 5123TIP3    H236861   3.917   4.561   2.151 -0.7247  0.0738 -0.1761
 5124TIP3   OH236862   2.774   2.812  13.545  0.4956  0.4491  0.5280
 5124TIP3    H136863   2.861   2.845  13.525  0.7842  0.9954  2.4793
 5124TIP3    H236864   2.715   2.884  13.523  0.5923  0.3302 -0.1383
 5125TIP3   OH236865   5.883   4.146  17.012 -0.0264  0.5602 -0.1405
 5125TIP3    H136866   5.900   4.225  17.063 -0.7711  0.1462  0.7795
 5125TIP3    H236867   5.808   4.105  17.055 -0.0723 -0.3025 -1.0039
 5126TIP3   OH236868   6.112   3.840  15.654 -0.2044  0.4295 -0.6539
 5126TIP3    H136869   6.059   3.856  15.576  1.3293 -0.3550 -1.9130
 5126TIP3    H236870   6.075   3.759  15.691  0.0341 -0.0747 -1.4821
 5127TIP3   OH236871   6.620   0.523  10.657 -0.4859  0.0489 -0.3245
 5127TIP3    H136872   6.637   0.496  10.567  1.2107  0.9547 -0.3026
 5127TIP3    H236873   6.647   0.614  10.660 -1.0865  0.2025  0.9725
 5128TIP3   OH236874   1.143   0.572  12.617  0.5147 -0.2526 -0.3489
 5128TIP3    H136875   1.097   0.581  12.701 -2.5111  0.4673 -1.9660
 5128TIP3    H236876   1.193   0.491  12.627 -0.7242 -0.8558  1.7374
 5129TIP3   OH236877   1.991   1.805   3.773 -0.1828 -0.2750 -1.0663
 5129TIP3    H136878   2.027   1.887   3.807  0.7379 -0.8292 -0.6548
 5129TIP3    H236879   1.921   1.782   3.834 -0.9357  0.5728 -1.6001
 5130TIP3   OH236880   6.126   1.449  10.773  0.0937 -1.0134  0.2755
 5130TIP3    H136881   6.071   1.483  10.702  2.7594 -1.8385 -2.3929
 5130TIP3    H236882   6.139   1.523  10.832 -1.2025  0.0827 -0.7578
 5131TIP3   OH236883   0.333   6.541  17.167  0.0078 -0.5649  0.6987
 5131TIP3    H136884   0.277   6.470  17.134  0.6114 -0.7740  0.0909
 5131TIP3    H236885   0.277   6.591  17.226 -1.4748  0.4500 -1.4302
 5132TIP3   OH236886   6.437   2.394   0.755  1.1181 -0.5231  0.5077
 5132TIP3    H136887   6.395   2.308   0.742  0.7059 -0.3057  0.3876
 5132TIP3    H236888   6.365   2.452   0.780  1.6419 -0.5483  2.1177
 5133TIP3   OH236889   0.052   6.668  13.929 -0.2102  1.0044 -0.1418
 5133TIP3    H136890   0.003   6.627  13.857 -0.8725 -0.5057  1.1212
 5133TIP3    H236891   0.137   6.625  13.928 -0.4461  0.5175  0.3684
 5134TIP3   OH236892   6.780   4.256   0.695 -0.0676  0.1139  0.0499
 5134TIP3    H136893   6.821   4.282   0.613 -0.6464  0.3177 -0.1799
 5134TIP3    H236894   6.853   4.240   0.754  0.3401  0.5792 -0.3204
 5135TIP3   OH236895   5.085   1.019   3.165 -0.2246  0.3120  0.2443
 5135TIP3    H136896   5.105   0.926   3.179 -1.0782 -0.1722 -1.4982
 5135TIP3    H236897   5.067   1.053   3.253 -1.4311 -1.5512  0.7850
 5136TIP3   OH236898   3.835   4.093  12.665  0.2942 -0.3330  0.0150
 5136TIP3    H136899   3.861   4.043  12.742  0.9847 -1.1082 -0.7043
 5136TIP3    H236900   3.909   4.151  12.648  0.4289 -0.6393 -0.4553
 5137TIP3   OH236901   4.637   5.252   0.990  0.0360 -0.2095  0.0114
 5137TIP3    H136902   4.591   5.324   1.033  2.1083  0.7186  0.8342
 5137TIP3    H236903   4.727   5.259   1.022  1.4195 -0.2749 -3.4268
 5138TIP3   OH236904   1.457   4.452   5.605 -0.5046  0.6101 -0.0150
 5138TIP3    H136905   1.467   4.524   5.667  1.7598  1.7208 -1.5522
 5138TIP3    H236906   1.465   4.493   5.519 -0.0188 -1.3760 -0.9758
 5139TIP3   OH236907   2.619   5.602   0.004 -0.4039  0.2406 -0.1925
 5139TIP3    H136908   2.681   5.557   0.061 -0.0973  0.7241 -0.1414
 5139TIP3    H236909   2.670   5.671  -0.038 -0.8672  0.5533 -0.2551
 5140TIP3   OH236910   0.248   0.190  16.925  0.2267 -0.0280 -0.1962
 5140TIP3    H136911   0.223   0.104  16.894  0.1984  0.1008 -0.5299
 5140TIP3    H236912   0.223   0.250  16.855  1.0014  0.1604 -0.3237
 5141TIP3   OH236913   4.608   5.213  14.897  0.2515  0.3658 -0.0762
 5141TIP3    H136914   4.546   5.144  14.921  1.4639 -0.8222 -0.2445
 5141TIP3    H236915   4.610   5.211  14.801 -1.1177  1.9665 -0.1942
 5142TIP3   OH236916   0.041   6.176  12.270 -0.4007 -0.4318  0.7644
 5142TIP3    H136917   0.058   6.187  12.364  1.4507  0.7234  0.3349
 5142TIP3    H236918   0.127   6.164  12.231 -0.8799  1.3783 -1.0565
 5143TIP3   OH236919   1.735   4.233   2.527  0.1311 -0.1397  0.1581
 5143TIP3    H136920   1.729   4.220   2.432 -0.9314 -2.7657  0.4905
 5143TIP3    H236921   1.826   4.214   2.548  0.3535  0.3771 -0.3165
 5144TIP3   OH236922   2.076   1.340  15.934  0.0365  0.1580  0.1475
 5144TIP3    H136923   2.043   1.278  15.869 -0.2522 -0.1512  0.5869
 5144TIP3    H236924   2.162   1.365  15.901 -0.4300  0.6048 -0.7581
 5145TIP3   OH236925   5.346   4.246   4.279 -0.0729  0.1191  0.6152
 5145TIP3    H136926   5.403   4.313   4.243 -2.0017  1.0626 -0.9277
 5145TIP3    H236927   5.378   4.164   4.240  0.8696  0.4718  0.6329
 5146TIP3   OH236928   1.115   4.839  14.776  0.3755 -0.2007 -0.1769
 5146TIP3    H136929   1.141   4.882  14.858  1.9822  0.7191 -1.1211
 5146TIP3    H236930   1.136   4.903  14.708 -1.1386 -0.8528 -1.3241
 5147TIP3   OH236931   3.132   2.034   1.210  0.3725 -0.0321 -0.1687
 5147TIP3    H136932   3.059   1.993   1.163 -0.7824  2.4081 -0.6317
 5147TIP3    H236933   3.126   2.000   1.299 -0.4709 -0.9051 -0.5408
 5148TIP3   OH236934   6.163   3.706  14.885 -0.3944  0.9215 -0.1290
 5148TIP3    H136935   6.198   3.778  14.832 -0.8544  1.6093  0.4907
 5148TIP3    H236936   6.230   3.692  14.952  0.8100 -0.8157 -1.5947
 5149TIP3   OH236937   0.457   5.844  13.845  0.1253  0.1464  0.1199
 5149TIP3    H136938   0.526   5.837  13.780 -1.3966 -1.5526 -1.4153
 5149TIP3    H236939   0.398   5.772  13.826 -2.4980  1.9417  0.8724
 5150TIP3   OH236940   5.436   5.757  14.371  0.1117  0.1196 -0.1889
 5150TIP3    H136941   5.375   5.805  14.426  0.9442 -0.6727  1.5247
 5150TIP3    H236942   5.381   5.705  14.313 -0.8098  0.7617  0.0864
 5151TIP3   OH236943   1.950   0.425   4.877 -0.4857  0.1454  0.3281
 5151TIP3    H136944   1.919   0.515   4.890 -0.5242 -0.3294  4.7708
 5151TIP3    H236945   1.891   0.371   4.929  1.0596 -2.1661 -0.1630
 5152TIP3   OH236946   6.478   3.121  16.421  0.3843  0.0589 -0.4622
 5152TIP3    H136947   6.424   3.180  16.473 -0.1872 -1.0449  0.2359
 5152TIP3    H236948   6.460   3.034  16.456 -0.7408 -0.8867 -3.0920
 5153TIP3   OH236949   3.516   2.171  12.589  0.5933  0.2660  0.1307
 5153TIP3    H136950   3.466   2.240  12.544 -3.9451 -2.3079  0.5665
 5153TIP3    H236951   3.472   2.161  12.673  1.9236 -2.2167  0.6217
 5154TIP3   OH236952   1.762   6.682  14.090  0.5325  0.2285 -0.1003
 5154TIP3    H136953   1.822   6.742  14.135  1.1917  0.3676 -1.1257
 5154TIP3    H236954   1.689   6.672  14.150  1.2572  0.6171  0.8792
 5155TIP3   OH236955   1.369   2.078   2.282  0.4948 -0.0868  0.2766
 5155TIP3    H136956   1.435   2.112   2.221 -0.9669 -1.1170 -2.0140
 5155TIP3    H236957   1.288   2.074   2.230 -0.0720 -4.4649  1.1233
 5156TIP3   OH236958   4.430   1.698   1.895  0.1378  0.4763  0.1589
 5156TIP3    H136959   4.480   1.706   1.977 -1.9104  1.4483  1.3873
 5156TIP3    H236960   4.495   1.669   1.831  2.0189  0.5453  1.9069
 5157TIP3   OH236961   6.504   0.080  11.046  0.6170 -0.0233  0.5110
 5157TIP3    H136962   6.408   0.082  11.046  0.6092  1.1303  1.8130
 5157TIP3    H236963   6.528   0.057  10.957 -0.8832 -1.0280  0.3341
 5158TIP3   OH236964   6.252   3.213  12.102  0.0686 -0.5197 -0.1973
 5158TIP3    H136965   6.333   3.168  12.126  1.0564  0.7367 -1.0690
 5158TIP3    H236966   6.222   3.254  12.183  0.8982 -0.0926 -0.0967
 5159TIP3   OH236967   3.629   1.236  15.421  0.0033 -0.1896 -0.4925
 5159TIP3    H136968   3.725   1.240  15.427  0.0316 -1.9734  0.7741
 5159TIP3    H236969   3.607   1.309  15.363  1.8898  2.0632  1.4029
 5160TIP3   OH236970   6.280   0.373  14.476 -0.1261  0.3810 -0.1087
 5160TIP3    H136971   6.247   0.290  14.441 -0.8714  1.3604 -1.7751
 5160TIP3    H236972   6.202   0.426  14.492  0.4282  1.6805 -1.4661
 5161TIP3   OH236973   0.960   6.760   5.460 -0.6028 -0.8143 -0.6603
 5161TIP3    H136974   0.981   6.793   5.372 -2.9494 -0.9607 -1.3666
 5161TIP3    H236975   0.932   6.670   5.445 -0.5672 -0.9978  0.3230
 5162TIP3   OH236976   0.250   2.738  16.156 -0.0906 -0.4123 -0.0828
 5162TIP3    H136977   0.302   2.799  16.103  0.8568 -1.1741 -0.0629
 5162TIP3    H236978   0.201   2.793  16.216  0.1287  0.3744 -0.6143
 5163TIP3   OH236979   1.373   5.861  14.348  0.1724  0.0438  0.7922
 5163TIP3    H136980   1.430   5.887  14.276 -0.4719  0.2025  0.3320
 5163TIP3    H236981   1.285   5.868  14.313 -0.1102 -0.8139  1.2972
 5164TIP3   OH236982   4.063   2.429   6.853  0.1324  0.5896 -0.0544
 5164TIP3    H136983   4.035   2.357   6.796  1.6026  0.6372 -0.9038
 5164TIP3    H236984   4.149   2.400   6.886  0.5669  1.7807 -0.1024
 5165TIP3   OH236985   0.073   1.746  14.541  0.4997  0.7193  0.3707
 5165TIP3    H136986   0.128   1.698  14.479  0.3062  0.0454  0.7052
 5165TIP3    H236987  -0.016   1.715  14.524  0.3844  0.8856  0.6555
 5166TIP3   OH236988   3.178   6.159  14.077 -0.1398  0.5038  0.2878
 5166TIP3    H136989   3.220   6.139  13.994  0.1144  0.0362  0.5212
 5166TIP3    H236990   3.091   6.118  14.070 -1.0785  2.5366 -0.6821
 5167TIP3   OH236991   5.195   0.716  14.448  0.3396 -0.0510 -0.1513
 5167TIP3    H136992   5.189   0.738  14.355  1.0229 -0.7075 -0.3643
 5167TIP3    H236993   5.283   0.744  14.474  0.3119 -0.2591  0.1813
 5168TIP3   OH236994   4.069   2.924  13.997 -0.0586 -0.0964 -0.2928
 5168TIP3    H136995   4.078   3.011  14.034 -0.0816  0.3004 -1.2041
 5168TIP3    H236996   4.033   2.871  14.069 -3.9767  1.5268 -0.7869
 5169TIP3   OH236997   1.680   6.814  11.742 -0.0108  0.2590  0.0146
 5169TIP3    H136998   1.710   6.730  11.777 -1.8486 -1.2070 -1.7112
 5169TIP3    H236999   1.680   6.801  11.647 -0.3314  2.2314 -0.2822
 5170TIP3   OH237000   0.242   6.437  10.652  0.3051  0.9158 -0.0338
 5170TIP3    H137001   0.222   6.529  10.670 -0.2709  0.7115  0.4223
 5170TIP3    H237002   0.315   6.416  10.710 -2.1439 -0.0057  3.0042
 5171TIP3   OH237003   5.344   5.417  15.298 -0.2565 -0.1926 -0.6127
 5171TIP3    H137004   5.347   5.372  15.383 -0.8739 -0.5821 -0.7907
 5171TIP3    H237005   5.427   5.394  15.257 -1.4018 -3.0547 -1.6142
 5172TIP3   OH237006   3.934   4.981  10.298  0.1811 -0.1859  0.5355
 5172TIP3    H137007   3.924   5.042  10.371  0.5334 -0.4229  0.7867
 5172TIP3    H237008   3.871   5.011  10.233 -0.0082  0.1384  0.8632
 5173TIP3   OH237009   2.534   0.226  11.708 -0.0522 -0.4329  0.1376
 5173TIP3    H137010   2.474   0.239  11.781 -0.0339  0.3533  0.0257
 5173TIP3    H237011   2.618   0.206  11.749 -0.3083 -1.1956  0.3012
 5174TIP3   OH237012   1.761   3.897  11.864 -0.1929 -0.7026 -0.1299
 5174TIP3    H137013   1.843   3.937  11.894 -1.0408  1.0520 -0.0702
 5174TIP3    H237014   1.777   3.878  11.771  0.1082  0.1388 -0.2620
 5175TIP3   OH237015   0.173   2.492  14.896 -0.6337 -0.1297  0.1588
 5175TIP3    H137016   0.196   2.528  14.810  0.0540  0.0893  0.4232
 5175TIP3    H237017   0.258   2.473  14.937 -0.9513 -0.1106  0.8341
 5176TIP3   OH237018   2.516   1.517   0.883  0.0421  0.2475  0.7551
 5176TIP3    H137019   2.517   1.507   0.978  3.1585 -0.8835  0.7162
 5176TIP3    H237020   2.516   1.428   0.849 -1.6037  0.6301 -0.3725
 5177TIP3   OH237021   0.518   3.046  13.887  0.2971 -0.0378  0.0545
 5177TIP3    H137022   0.508   3.041  13.792 -0.9809 -0.3182  0.1926
 5177TIP3    H237023   0.519   3.139  13.907  0.2631  0.0171 -0.1979
 5178TIP3   OH237024   4.826   2.959  14.616 -0.2807  0.4846 -0.2936
 5178TIP3    H137025   4.821   2.910  14.534 -0.8749  1.2330 -0.7252
 5178TIP3    H237026   4.916   2.991  14.620 -0.5032  1.2761 -1.1753
 5179TIP3   OH237027   5.124   6.132  16.558 -0.3181  0.0122 -0.5128
 5179TIP3    H137028   5.164   6.167  16.479 -0.5788  0.0058 -0.6481
 5179TIP3    H237029   5.197   6.093  16.607 -0.2328 -0.4392 -0.9877
 5180TIP3   OH237030   4.645   4.729  11.833 -0.0645  0.6465 -0.0586
 5180TIP3    H137031   4.565   4.735  11.885 -0.3169  1.4775 -0.5175
 5180TIP3    H237032   4.661   4.635  11.824 -2.0058  0.3867 -1.4757
 5181TIP3   OH237033   0.956   4.309   2.530 -0.4812  0.2111 -0.2053
 5181TIP3    H137034   1.007   4.363   2.470  1.4417  0.7498  1.7745
 5181TIP3    H237035   0.866   4.338   2.517  0.2436  2.5099 -0.6437
 5182TIP3   OH237036   6.430   4.489  14.630  0.0636 -0.6137  0.3777
 5182TIP3    H137037   6.474   4.405  14.643  1.5749 -0.3784 -2.4546
 5182TIP3    H237038   6.502   4.552  14.617 -0.9969  1.3476  3.0565
 5183TIP3   OH237039   3.299   6.714  13.703 -0.4847 -0.3547  0.4477
 5183TIP3    H137040   3.358   6.778  13.741  0.9135 -0.2953 -1.6555
 5183TIP3    H237041   3.219   6.763  13.684 -0.1091  0.3171  0.5705
 5184TIP3   OH237042   4.431   0.143  13.625 -0.0059 -0.3602  0.5743
 5184TIP3    H137043   4.376   0.214  13.656  0.6371  0.1881  0.4743
 5184TIP3    H237044   4.370   0.074  13.600 -0.5887 -1.2180  3.8647
 5185TIP3   OH237045   2.653   0.467   0.332  0.1659 -0.4846  0.1660
 5185TIP3    H137046   2.739   0.462   0.374  1.7239  2.5268 -2.2081
 5185TIP3    H237047   2.650   0.390   0.275  0.4208 -1.6146  1.6199
 5186TIP3   OH237048   3.012   0.963   0.266 -0.0151 -0.1498  0.0743
 5186TIP3    H137049   3.006   1.017   0.187  0.6760 -0.8152 -0.4481
 5186TIP3    H237050   3.105   0.945   0.276  0.0841  1.1336  1.9095
 5187TIP3   OH237051   5.233   2.189   5.134 -0.2963 -0.1823 -0.0079
 5187TIP3    H137052   5.219   2.151   5.220 -1.0485 -0.0273 -0.0496
 5187TIP3    H237053   5.167   2.147   5.078 -0.7419  0.7255 -0.1839
 5188TIP3   OH237054   4.967   5.568  16.115 -0.1863 -0.3760 -0.0525
 5188TIP3    H137055   5.055   5.577  16.077  0.9498 -2.0379  1.9575
 5188TIP3    H237056   4.923   5.650  16.093  2.4280  1.1984  0.1685
 5189TIP3   OH237057   3.957   0.090  12.296 -0.0071  0.1641 -0.1426
 5189TIP3    H137058   3.868   0.080  12.329  1.1549 -0.3586  3.2054
 5189TIP3    H237059   3.970   0.184  12.287 -1.0453  0.2192 -1.2553
 5190TIP3   OH237060   4.110   3.950   5.700 -0.2743 -0.4724  0.0362
 5190TIP3    H137061   4.036   4.006   5.676  0.9124  1.5260  0.7740
 5190TIP3    H237062   4.069   3.873   5.740 -1.9722  0.1336 -0.4134
 5191TIP3   OH237063   6.242   3.046  13.034 -0.1807 -0.4303 -0.4076
 5191TIP3    H137064   6.314   2.999  13.074 -0.1359 -0.4517 -0.5125
 5191TIP3    H237065   6.276   3.135  13.020  0.7491 -1.0881 -2.8523
 5192TIP3   OH237066   0.510   1.269  15.618 -0.9552  0.3910  0.0917
 5192TIP3    H137067   0.561   1.350  15.615 -0.9796  0.4025 -0.0352
 5192TIP3    H237068   0.421   1.295  15.591 -0.8628  0.2475 -0.3693
 5193TIP3   OH237069   1.144   3.667   3.100  0.1639 -0.3335  0.1614
 5193TIP3    H137070   1.226   3.692   3.058 -1.1936  2.1164 -1.2602
 5193TIP3    H237071   1.139   3.720   3.179 -1.0789  1.3931 -1.0056
 5194TIP3   OH237072   2.530   5.481  11.700 -0.1121  0.5830  0.0100
 5194TIP3    H137073   2.480   5.399  11.691  0.7453 -0.2151  1.8427
 5194TIP3    H237074   2.477   5.547  11.656 -0.4730 -1.0764 -2.1957
 5195TIP3   OH237075   1.167   5.866   2.148  0.5069 -0.5300  0.3745
 5195TIP3    H137076   1.158   5.784   2.100  0.5660 -1.2176  1.4922
 5195TIP3    H237077   1.107   5.856   2.223  1.4409 -0.0849  1.2080
 5196TIP3   OH237078   0.753   1.239  13.733  0.5766  0.2651  0.3692
 5196TIP3    H137079   0.696   1.166  13.708  2.1310 -0.1161 -2.6151
 5196TIP3    H237080   0.701   1.317  13.714  0.5214 -0.0849 -1.0667
 5197TIP3   OH237081   3.615   6.472  11.219 -0.2845 -0.5471  0.1618
 5197TIP3    H137082   3.595   6.381  11.197  0.1090 -0.9080  1.2456
 5197TIP3    H237083   3.565   6.523  11.155 -0.9636 -1.5119 -0.1061
 5198TIP3   OH237084   4.738   2.287  11.704  0.4942 -0.5091  0.0161
 5198TIP3    H137085   4.703   2.329  11.626 -0.1049  0.6687  0.8891
 5198TIP3    H237086   4.833   2.287  11.690  0.4730  0.6479 -0.2690
 5199TIP3   OH237087   3.925   3.706   5.624 -0.2918 -0.4364 -0.4220
 5199TIP3    H137088   3.962   3.722   5.537 -0.4275  1.0775 -0.2172
 5199TIP3    H237089   3.857   3.772   5.634 -1.0250 -1.2847  0.4203
 5200TIP3   OH237090   6.698   0.426  15.138  0.0430 -0.1054 -0.1738
 5200TIP3    H137091   6.679   0.423  15.231 -1.0673 -0.2335 -0.3911
 5200TIP3    H237092   6.621   0.466  15.099 -0.2971 -1.6843 -1.2278
 5201TIP3   OH237093   2.748   5.830  17.106 -0.0884  0.3644  0.2953
 5201TIP3    H137094   2.719   5.914  17.069 -0.0560 -0.0668 -0.7323
 5201TIP3    H237095   2.839   5.846  17.132  0.1211  0.4882 -0.4692
 5202TIP3   OH237096   4.139   1.343  12.465 -0.1759  0.3635 -0.3124
 5202TIP3    H137097   4.178   1.261  12.497 -0.3745 -0.1688 -1.3834
 5202TIP3    H237098   4.053   1.346  12.507  0.3407  0.7035  0.7622
 5203TIP3   OH237099   4.754   5.683   4.931 -0.1870 -0.1336 -0.1492
 5203TIP3    H137100   4.815   5.633   4.984 -1.4554 -0.5346  0.9842
 5203TIP3    H237101   4.697   5.727   4.995 -0.5287  0.9510 -1.1544
 5204TIP3   OH237102   2.815   0.996   0.464  0.0826  0.2343  0.0975
 5204TIP3    H137103   2.853   1.075   0.503  2.0534 -0.4534 -0.3155
 5204TIP3    H237104   2.880   0.967   0.400 -0.1222 -2.2509  0.9201
 5205TIP3   OH237105   0.746   3.762  14.014  0.2173  0.1650  0.0767
 5205TIP3    H137106   0.760   3.708  13.937  1.3822  2.1301 -1.1729
 5205TIP3    H237107   0.651   3.766  14.024  0.0823 -2.1775  0.3411
 5206TIP3   OH237108   1.947   2.318   1.929  0.1687  0.6922  0.3249
 5206TIP3    H137109   1.866   2.284   1.891  0.5562 -0.4231  0.4561
 5206TIP3    H237110   1.946   2.411   1.909 -0.8166  0.5652 -0.2696
 5207TIP3   OH237111   3.045   2.657   1.611 -0.0212 -0.6914 -0.4307
 5207TIP3    H137112   3.136   2.662   1.639  0.1981 -1.8222 -0.8781
 5207TIP3    H237113   2.995   2.656   1.693  0.2643  1.0505 -0.1884
 5208TIP3   OH237114   0.525   1.464   5.398 -0.4803 -0.3263 -0.3982
 5208TIP3    H137115   0.553   1.428   5.314  1.7996  1.7169 -0.6079
 5208TIP3    H237116   0.576   1.544   5.409  0.0066 -0.9414  3.3360
 5209TIP3   OH237117   2.754   2.416   3.018 -0.0926  0.4608  0.4033
 5209TIP3    H137118   2.753   2.423   3.113 -1.1466  0.0616  0.4346
 5209TIP3    H237119   2.690   2.348   2.998  0.4803  0.1885 -0.5669
 5210TIP3   OH237120   3.334   6.302  12.281  0.2551  0.2123  0.3380
 5210TIP3    H137121   3.324   6.313  12.187  0.1670  0.4119  0.3694
 5210TIP3    H237122   3.420   6.339  12.301 -1.1505  3.5784  0.8514
 5211TIP3   OH237123   6.813   1.829   6.296 -0.3691  0.1923  0.2554
 5211TIP3    H137124   6.804   1.920   6.323  1.3232  0.8186 -1.1683
 5211TIP3    H237125   6.890   1.827   6.240 -2.1985 -1.4820 -2.4654
 5212TIP3   OH237126   5.166   5.798   4.424 -0.4739 -0.2765  0.3687
 5212TIP3    H137127   5.107   5.865   4.457 -1.0629  0.2580 -1.6362
 5212TIP3    H237128   5.109   5.733   4.384  0.1595 -1.3700  1.1659
 5213TIP3   OH237129   2.627   0.520   0.013  0.4300 -0.5312 -0.1433
 5213TIP3    H137130   2.709   0.489   0.052  0.7310  1.6869  1.1694
 5213TIP3    H237131   2.635   0.498  -0.080  2.5171 -0.4554 -0.0359
 5214TIP3   OH237132   0.484   2.284  17.050  0.1080 -0.5582  0.0127
 5214TIP3    H137133   0.481   2.364  17.103 -0.1340 -0.8606  0.4572
 5214TIP3    H237134   0.411   2.292  16.990  0.4913 -0.1285 -0.4028
 5215TIP3   OH237135   5.666   2.576   0.782 -0.5411  0.6024 -0.2323
 5215TIP3    H137136   5.729   2.571   0.854 -0.6194  1.3644 -0.0981
 5215TIP3    H237137   5.633   2.666   0.786 -0.5621  0.6434 -1.2109
 5216TIP3   OH237138   6.707   4.282  11.154 -0.9003  0.3645 -0.2710
 5216TIP3    H137139   6.612   4.281  11.142 -1.2932 -1.4299  2.2302
 5216TIP3    H237140   6.735   4.191  11.144  0.5390  0.8202 -0.7298
 5217TIP3   OH237141   4.444   6.484  12.165  0.6986  0.0840 -0.5792
 5217TIP3    H137142   4.523   6.435  12.141  0.7426  1.2453 -3.1572
 5217TIP3    H237143   4.372   6.431  12.129  0.1605 -1.1918  2.1280
 5218TIP3   OH237144   4.856   2.926  16.080  0.0930  0.4349  0.2557
 5218TIP3    H137145   4.779   2.873  16.056 -0.3472  1.3325 -0.3716
 5218TIP3    H237146   4.931   2.873  16.053 -0.3185 -0.1961  0.3235
 5219TIP3   OH237147   6.148   1.826   4.469 -0.3042  0.3168  0.2966
 5219TIP3    H137148   6.233   1.814   4.512 -0.1226 -0.7571 -0.3361
 5219TIP3    H237149   6.170   1.837   4.376 -0.8802 -0.2533  0.0902
 5220TIP3   OH237150   2.656   1.536  15.904 -0.2664  0.8541  0.1423
 5220TIP3    H137151   2.563   1.518  15.914 -0.1105  0.5313  1.0885
 5220TIP3    H237152   2.684   1.567  15.989  0.7029 -0.0197  0.1630
 5221TIP3   OH237153   3.526   4.062   2.404 -0.2503 -0.1843  0.3903
 5221TIP3    H137154   3.576   4.104   2.334 -1.9954  0.7395 -0.3470
 5221TIP3    H237155   3.448   4.027   2.361 -1.2764  0.2300  1.8244
 5222TIP3   OH237156   2.719   5.116  16.018  0.1563  0.4326  0.3033
 5222TIP3    H137157   2.802   5.099  16.062  0.7041  1.2626 -0.3836
 5222TIP3    H237158   2.653   5.103  16.086  1.0473  2.8613  1.7575
 5223TIP3   OH237159   0.317   2.471   3.022  0.2304  0.1654  0.9343
 5223TIP3    H137160   0.312   2.409   2.949 -1.8455 -0.4991  1.5687
 5223TIP3    H237161   0.317   2.557   2.981 -1.8638 -0.1714  0.0978
 5224TIP3   OH237162   5.510   2.697   1.649  0.0045  0.2203 -0.2685
 5224TIP3    H137163   5.576   2.655   1.595 -0.1321 -0.2724 -0.0512
 5224TIP3    H237164   5.552   2.710   1.734 -0.4878 -0.9843  0.1741
 5225TIP3   OH237165   5.105   6.158   3.755 -0.1647  0.5875 -0.2703
 5225TIP3    H137166   5.037   6.133   3.817  0.0535 -0.8697 -0.5869
 5225TIP3    H237167   5.153   6.229   3.799 -0.1055 -0.3163  1.1832
 5226TIP3   OH237168   1.189   2.694  15.522 -0.4350  0.2446  0.6385
 5226TIP3    H137169   1.243   2.615  15.524  1.7824  1.6830  1.7297
 5226TIP3    H237170   1.106   2.666  15.483  0.8213 -2.2488 -0.4588
 5227TIP3   OH237171   1.767   5.314   0.252 -0.9772 -0.0818  0.4531
 5227TIP3    H137172   1.695   5.274   0.300 -0.7600 -2.3533 -0.9687
 5227TIP3    H237173   1.724   5.375   0.191 -1.3718  1.2837  2.0125
 5228TIP3   OH237174   4.518   2.155   5.532 -0.6543  0.5500 -0.1956
 5228TIP3    H137175   4.555   2.159   5.620 -1.2324  2.0696  0.0088
 5228TIP3    H237176   4.452   2.087   5.536  0.7907 -0.8976 -0.0659
 5229TIP3   OH237177   1.594   6.561  10.923 -0.6662  0.5804  0.9798
 5229TIP3    H137178   1.552   6.645  10.906 -0.4005  0.4927 -0.1665
 5229TIP3    H237179   1.521   6.499  10.932 -0.8990  1.0335  2.6069
 5230TIP3   OH237180   2.550   6.581  15.005 -0.0614 -0.0267  0.4405
 5230TIP3    H137181   2.474   6.637  14.994 -0.4500 -0.8667 -1.6049
 5230TIP3    H237182   2.596   6.617  15.081 -1.0725  2.1181  0.0925
 5231TIP3   OH237183   4.211   6.443   4.702  0.2201 -0.3143  0.1761
 5231TIP3    H137184   4.198   6.532   4.669 -1.5272  0.6803  3.1593
 5231TIP3    H237185   4.142   6.392   4.661 -1.6537  0.7954  1.7869
 5232TIP3   OH237186   4.468   2.743   5.651  0.0373 -0.3717  0.5567
 5232TIP3    H137187   4.414   2.817   5.679 -0.3982 -0.3135 -0.4082
 5232TIP3    H237188   4.540   2.783   5.603  0.1916 -0.5366  0.6493
 5233TIP3   OH237189   2.639   5.151   2.357 -0.8316  0.1816 -0.4001
 5233TIP3    H137190   2.717   5.104   2.385  0.4892  0.1542 -3.7275
 5233TIP3    H237191   2.665   5.243   2.355 -2.2201  0.7468  2.2965
 5234TIP3   OH237192   4.872   1.198   2.538 -0.2441  0.2063 -0.1035
 5234TIP3    H137193   4.875   1.162   2.626 -1.5260  0.1008 -0.0841
 5234TIP3    H237194   4.962   1.226   2.520  1.1992 -4.1212 -0.6393
 5235TIP3   OH237195   0.197   2.451  17.172  0.5392  0.4961  0.1178
 5235TIP3    H137196   0.223   2.429  17.082  0.6927  0.2873  0.2133
 5235TIP3    H237197   0.264   2.411  17.227 -1.2443 -2.2502  0.5383
 5236TIP3   OH237198   1.759   3.234   2.153  0.3401  0.0369  0.7832
 5236TIP3    H137199   1.820   3.197   2.215 -0.8749 -0.6590  1.5955
 5236TIP3    H237200   1.784   3.196   2.068  3.2193  2.4454  0.3945
 5237TIP3   OH237201   6.509   0.961  10.313  0.3950  0.3900 -0.4963
 5237TIP3    H137202   6.427   1.007  10.326  0.4782  0.7494 -1.1838
 5237TIP3    H237203   6.496   0.912  10.232  0.7433  0.1930 -0.4359
 5238TIP3   OH237204   6.101   4.469   2.507 -0.0834  0.5148 -0.2487
 5238TIP3    H137205   6.059   4.538   2.558  1.4909  0.9868  0.4647
 5238TIP3    H237206   6.116   4.398   2.570  0.1012  0.3051 -0.5240
 5239TIP3   OH237207   2.545   0.079  15.420  0.4295  0.8347  0.3686
 5239TIP3    H137208   2.458   0.092  15.458 -0.0764  1.2141 -0.8895
 5239TIP3    H237209   2.576   0.168  15.400  1.5621  0.7939  1.7408
 5240TIP3   OH237210   4.275   1.140   6.037 -0.7561  0.7946  0.1629
 5240TIP3    H137211   4.191   1.099   6.056 -0.8326  0.7087 -0.3365
 5240TIP3    H237212   4.254   1.212   5.977 -0.5619  1.2581  0.6458
 5241TIP3   OH237213   1.343   2.377   2.105 -0.2034  0.4908 -0.4897
 5241TIP3    H137214   1.420   2.334   2.142  1.4566  4.0375  0.6497
 5241TIP3    H237215   1.362   2.470   2.113 -4.6960  1.6008 -0.0317
 5242TIP3   OH237216   1.839   6.449   3.958 -0.1153 -1.0611  0.2952
 5242TIP3    H137217   1.886   6.468   3.877  1.1734 -1.0476  1.0302
 5242TIP3    H237218   1.907   6.444   4.025 -1.0351 -2.2217  1.1858
 5243TIP3   OH237219   0.170   4.661   0.768  0.2565  0.2086 -1.1747
 5243TIP3    H137220   0.244   4.695   0.718  1.6222  2.7616  2.1965
 5243TIP3    H237221   0.210   4.609   0.838 -1.0077  1.7078  0.7780
 5244TIP3   OH237222   0.108   4.108   0.263 -0.1976 -0.4316  0.2252
 5244TIP3    H137223   0.019   4.086   0.234 -0.3951 -0.2882  0.7098
 5244TIP3    H237224   0.165   4.067   0.198 -0.6415  0.5920 -0.8402
 5245TIP3   OH237225   4.286   3.137  15.827 -0.3571 -0.0053  0.2338
 5245TIP3    H137226   4.307   3.229  15.811 -0.5343  0.2082  1.1286
 5245TIP3    H237227   4.370   3.092  15.818 -0.5849 -0.0500 -2.0194
 5246TIP3   OH237228   5.467   4.255  11.310  0.3510  0.4252  0.0317
 5246TIP3    H137229   5.530   4.269  11.381  0.9815 -2.6257  0.2215
 5246TIP3    H237230   5.520   4.253  11.230 -0.1896  2.5357 -0.4321
 5247TIP3   OH237231   4.489   6.446  11.127 -0.3582  0.3506 -0.0369
 5247TIP3    H137232   4.568   6.491  11.096 -0.0237  0.1532  0.5084
 5247TIP3    H237233   4.424   6.461  11.059  0.5151 -0.5189 -1.0830
 5248TIP3   OH237234   1.403   3.118   2.445  0.4255  0.3332  0.5026
 5248TIP3    H137235   1.319   3.141   2.485 -0.3147  0.1404 -0.8757
 5248TIP3    H237236   1.437   3.047   2.499 -0.4426  0.2177  0.9090
 5249TIP3   OH237237   6.232   2.729   3.244 -0.2617 -0.0987 -0.4790
 5249TIP3    H137238   6.162   2.672   3.274 -0.6184  0.5151 -0.1358
 5249TIP3    H237239   6.306   2.669   3.228 -0.2319 -0.5308  1.0636
 5250TIP3   OH237240   3.034   3.364   6.133 -0.4269 -1.1291 -0.4380
 5250TIP3    H137241   2.968   3.428   6.156 -0.0273 -0.6763 -0.5308
 5250TIP3    H237242   3.062   3.327   6.216 -0.2658 -0.7841 -0.3373
 5251TIP3   OH237243   4.495   0.579   3.648  0.4950  0.3400  1.1298
 5251TIP3    H137244   4.543   0.654   3.684  2.1576 -0.2549  0.2975
 5251TIP3    H237245   4.520   0.578   3.555  1.8530 -2.1743  1.4336
 5252TIP3   OH237246   4.447   6.113  14.940  0.6462 -0.3686 -0.0998
 5252TIP3    H137247   4.352   6.117  14.928  0.2986 -3.8011  0.3374
 5252TIP3    H237248   4.463   6.158  15.023 -1.1584 -2.4390  1.5049
 5253TIP3   OH237249   1.516   4.508   2.016  0.2199 -0.1359  0.4046
 5253TIP3    H137250   1.608   4.489   1.996  1.0669  2.0990  1.8606
 5253TIP3    H237251   1.511   4.502   2.111 -1.1311 -0.0891  0.3440
 5254TIP3   OH237252   6.108   1.624  11.718  0.7604  0.1797  0.5295
 5254TIP3    H137253   6.047   1.598  11.648 -0.2458  1.8450  0.7218
 5254TIP3    H237254   6.183   1.659  11.671  0.5288  0.3381  0.2691
 5255TIP3   OH237255   5.981   4.011  14.823 -0.8828  0.3761  0.0859
 5255TIP3    H137256   5.911   4.061  14.781  0.8071  1.5030 -1.5728
 5255TIP3    H237257   6.036   3.981  14.750  0.1210 -0.8816  1.2963
 5256TIP3   OH237258   1.547   0.425  13.027  0.1020  0.1734 -0.1236
 5256TIP3    H137259   1.551   0.373  13.107  1.0524 -0.4060 -0.5359
 5256TIP3    H237260   1.574   0.365  12.958 -1.8047  0.3296 -1.0609
 5257TIP3   OH237261   4.187   4.284  13.694  0.0078  0.0971 -1.0520
 5257TIP3    H137262   4.124   4.230  13.741 -0.6185  1.5128 -0.2054
 5257TIP3    H237263   4.265   4.283  13.749 -0.3040  0.7387 -0.5795
 5258TIP3   OH237264   2.195   0.503   4.103  0.3524  0.3108 -0.1743
 5258TIP3    H137265   2.247   0.439   4.150 -1.0114 -1.6167 -1.1440
 5258TIP3    H237266   2.186   0.577   4.164  1.4728 -0.6489  1.2125
 5259TIP3   OH237267   1.917   6.090  14.040 -0.5969 -0.3543  0.3353
 5259TIP3    H137268   1.971   6.110  14.116  1.7780  0.9132 -1.5839
 5259TIP3    H237269   1.902   5.995  14.046 -1.3087 -0.1654  2.8139
 5260TIP3   OH237270   0.827   2.722  14.992 -0.3522  0.5450  0.3299
 5260TIP3    H137271   0.835   2.628  15.006  1.3277  0.5435 -0.3773
 5260TIP3    H237272   0.757   2.731  14.927  0.4529 -0.3456 -0.6965
 5261TIP3   OH237273   4.258   2.807   4.098 -0.5605  0.2745 -0.1799
 5261TIP3    H137274   4.213   2.892   4.102  1.2437  1.5060 -3.0373
 5261TIP3    H237275   4.258   2.784   4.006  1.5337 -1.3948  0.1621
 5262TIP3   OH237276   4.971   2.210  15.706  0.5678 -0.4007  0.9287
 5262TIP3    H137277   4.893   2.218  15.651  0.7485 -0.2728  0.6870
 5262TIP3    H237278   5.020   2.137  15.667  1.0015  0.0911  0.5372
 5263TIP3   OH237279   6.745   6.469  13.292  0.2013  0.3048 -0.1515
 5263TIP3    H137280   6.812   6.523  13.334  1.2275 -0.9038 -0.1707
 5263TIP3    H237281   6.788   6.436  13.213 -0.3779 -0.6037 -0.0903
 5264TIP3   OH237282   1.895   6.093  15.898 -0.0586  0.0542 -0.5077
 5264TIP3    H137283   1.931   6.177  15.927  2.1959 -0.1723 -2.3259
 5264TIP3    H237284   1.952   6.027  15.940 -0.2167 -0.4450 -1.0587
 5265TIP3   OH237285   5.569   0.098  15.728  0.0484  0.1543  0.1462
 5265TIP3    H137286   5.500   0.052  15.681 -0.8285  0.2658  1.2796
 5265TIP3    H237287   5.532   0.184  15.747  1.0327  0.7232 -0.4579
 5266TIP3   OH237288   4.241   5.060   2.967  0.6910 -0.2382 -0.0966
 5266TIP3    H137289   4.281   5.007   3.035  0.7298 -0.7842 -0.5426
 5266TIP3    H237290   4.198   4.997   2.909 -1.2227  0.3366  0.6036
 5267TIP3   OH237291   4.523   4.973  13.464 -0.0631 -0.7437  0.4736
 5267TIP3    H137292   4.486   4.925  13.538 -1.5445  0.1181  0.3344
 5267TIP3    H237293   4.483   5.060  13.470  0.0426 -0.5635 -1.1440
 5268TIP3   OH237294   5.005   5.805  14.155 -0.0549 -0.0750  0.2030
 5268TIP3    H137295   4.961   5.889  14.152  1.6899  0.9044  0.5343
 5268TIP3    H237296   5.008   5.782  14.247 -0.1490 -0.2908  0.1530
 5269TIP3   OH237297   4.071   2.716   5.716  0.0030  0.6907 -0.0645
 5269TIP3    H137298   4.100   2.800   5.752  0.4198  1.2871 -1.7039
 5269TIP3    H237299   4.022   2.739   5.638 -2.1862 -0.4812  0.8707
 5270TIP3   OH237300   4.754   0.085   4.411  0.6678  0.2547  0.2843
 5270TIP3    H137301   4.839   0.042   4.399  0.4722 -0.0572  0.0017
 5270TIP3    H237302   4.698   0.015   4.445 -0.1300 -0.1992 -1.8500
 5271TIP3   OH237303   6.495   0.911  12.933 -0.6558 -0.0661  0.1348
 5271TIP3    H137304   6.515   0.958  13.014  0.7131 -1.7277  0.8415
 5271TIP3    H237305   6.518   0.973  12.863 -1.2761  1.1718  0.9875
 5272TIP3   OH237306   1.500   2.570  16.327  0.2057 -0.2796  0.1598
 5272TIP3    H137307   1.583   2.547  16.370  1.1450 -0.5367 -1.6815
 5272TIP3    H237308   1.434   2.520  16.375  1.3412 -1.3683  0.6631
 5273TIP3   OH237309   5.377   5.324  13.920  0.0133  0.3701 -0.3327
 5273TIP3    H137310   5.439   5.261  13.884  0.9555  1.8068 -1.2744
 5273TIP3    H237311   5.313   5.269  13.966  1.0270 -1.2463 -0.7469
 5274TIP3   OH237312   2.682   6.331   4.915 -0.1377 -0.0532  0.1734
 5274TIP3    H137313   2.721   6.258   4.867  0.9893  0.7578 -0.1711
 5274TIP3    H237314   2.756   6.385   4.940 -1.0707  2.0733 -1.3780
 5275TIP3   OH237315   5.118   2.904   3.480  0.6806 -0.9376  0.6696
 5275TIP3    H137316   5.108   2.882   3.572  1.6412 -0.9071  0.7869
 5275TIP3    H237317   5.052   2.850   3.435 -0.8167  0.1209  1.4954
 5276TIP3   OH237318   4.481   1.972   0.066 -0.1561 -0.1582  0.5933
 5276TIP3    H137319   4.553   2.015   0.111  1.8374 -0.7585 -1.7820
 5276TIP3    H237320   4.464   2.027  -0.011 -3.2177  0.6828  1.7173
 5277TIP3   OH237321   3.365   1.383   4.421 -0.4961 -0.2699  0.7934
 5277TIP3    H137322   3.310   1.340   4.356  0.2704 -1.0845  0.6652
 5277TIP3    H237323   3.435   1.320   4.439  0.7084  0.9558  0.5362
 5278TIP3   OH237324   1.933   1.373   3.152  0.0265  0.3645  0.7287
 5278TIP3    H137325   2.007   1.433   3.142  0.2597  0.0477  0.5689
 5278TIP3    H237326   1.856   1.430   3.150  0.2468  0.6581  0.5641
 5279TIP3   OH237327   0.129   3.327   1.919 -0.2313 -0.2981 -0.1747
 5279TIP3    H137328   0.145   3.364   2.006  0.6637  0.0777 -0.4876
 5279TIP3    H237329   0.202   3.359   1.865 -1.8060  1.1614 -1.5864
 5280TIP3   OH237330   4.575   3.884   2.441 -0.5482  0.7100 -0.0361
 5280TIP3    H137331   4.589   3.942   2.516  0.9327 -0.4105  0.6111
 5280TIP3    H237332   4.528   3.809   2.477 -0.0023  0.2563 -0.2472
 5281TIP3   OH237333   1.951   1.581  16.019 -0.0238  0.2436 -0.2361
 5281TIP3    H137334   2.009   1.506  16.009 -0.9897 -0.4906 -0.5013
 5281TIP3    H237335   1.974   1.639  15.946  0.6584  0.1724 -0.0859
 5282TIP3   OH237336   6.418   6.348  11.495  0.3591 -0.7758 -0.4630
 5282TIP3    H137337   6.343   6.294  11.520 -0.1387  0.3925  0.6841
 5282TIP3    H237338   6.488   6.321  11.554  0.1237 -0.2380  0.0789
 5283TIP3   OH237339   4.370   5.031  16.297 -0.1369  0.3854 -0.0522
 5283TIP3    H137340   4.444   5.037  16.358 -0.3813 -0.1862  0.3076
 5283TIP3    H237341   4.316   5.108  16.317 -0.5250 -0.1165  0.8752
 5284TIP3   OH237342   1.514   4.461   5.999  0.6122  0.0449 -0.2596
 5284TIP3    H137343   1.443   4.443   6.061  0.9661  1.8505  0.7365
 5284TIP3    H237344   1.587   4.490   6.054  0.9677  1.6277 -1.5116
 5285TIP3   OH237345   4.599   5.621  12.310  0.5524  0.3803  0.4458
 5285TIP3    H137346   4.584   5.701  12.360 -0.7662  0.8225 -0.6022
 5285TIP3    H237347   4.688   5.629  12.277  0.7512  0.9773  1.1078
 5286TIP3   OH237348   5.432   0.841  11.218  0.3622 -0.2472  0.0100
 5286TIP3    H137349   5.342   0.870  11.201  0.4296 -0.7028 -1.2018
 5286TIP3    H237350   5.471   0.912  11.268 -0.1863  0.6820 -0.8448
 5287TIP3   OH237351   2.148   1.249  14.785 -0.3042  0.0308 -0.5041
 5287TIP3    H137352   2.138   1.190  14.710  0.3857 -0.7706  0.0029
 5287TIP3    H237353   2.107   1.201  14.858 -2.1105  1.3513 -0.6044
 5288TIP3   OH237354   4.289   5.685   3.632  0.7705 -0.2983 -0.0786
 5288TIP3    H137355   4.298   5.598   3.669 -1.9096 -0.5692  0.1010
 5288TIP3    H237356   4.204   5.716   3.663  0.7208  1.5337 -1.8442
 5289TIP3   OH237357   2.621   2.582   5.057  0.5686 -0.4835 -0.9882
 5289TIP3    H137358   2.609   2.488   5.070 -0.0861 -0.1198  1.6070
 5289TIP3    H237359   2.714   2.597   5.074  0.7078 -0.6699 -1.5685
 5290TIP3   OH237360   2.209   4.978   5.499  0.3201  0.6304  0.0149
 5290TIP3    H137361   2.198   4.906   5.560 -0.8894  0.4105 -0.4437
 5290TIP3    H237362   2.221   5.055   5.555 -0.2368  0.3497  0.5266
 5291TIP3   OH237363   3.353   0.368  12.470 -0.4081  0.1324  0.0672
 5291TIP3    H137364   3.321   0.458  12.456 -0.1145  0.0937 -0.9318
 5291TIP3    H237365   3.352   0.329  12.383  5.1535  1.0317 -0.7843
 5292TIP3   OH237366   6.209   4.428  13.465  0.0005  0.3003  0.1050
 5292TIP3    H137367   6.202   4.361  13.534  0.6321 -0.2756 -0.3842
 5292TIP3    H237368   6.147   4.399  13.398 -0.4236  0.7243  0.3048
 5293TIP3   OH237369   0.941   0.466   2.058 -0.1133 -0.1129 -0.0508
 5293TIP3    H137370   0.987   0.475   1.974  0.6812  1.4491  0.5195
 5293TIP3    H237371   0.968   0.543   2.108 -0.2801 -1.2066  1.7888
 5294TIP3   OH237372   3.439   5.517  15.737  0.1205  0.3096  0.1101
 5294TIP3    H137373   3.491   5.533  15.815 -0.0919  1.7015 -0.0043
 5294TIP3    H237374   3.473   5.434  15.702  0.6930  0.0311  1.2729
 5295TIP3   OH237375   0.425   4.771  15.626  0.7418  0.3218  0.5995
 5295TIP3    H137376   0.504   4.824  15.614  0.9428  0.0746  0.8330
 5295TIP3    H237377   0.456   4.690  15.665  0.4946 -0.1505 -0.1629
 5296TIP3   OH237378   1.985   5.706  16.916 -0.7305  0.2955  0.2911
 5296TIP3    H137379   1.942   5.726  16.833  0.1416  0.3263 -0.1561
 5296TIP3    H237380   1.932   5.636  16.954 -0.0881 -1.0423 -1.1577
 5297TIP3   OH237381   0.044   2.525   3.078 -0.3544 -0.1317 -0.2990
 5297TIP3    H137382   0.131   2.493   3.099 -0.0323  1.1378  0.3653
 5297TIP3    H237383  -0.002   2.528   3.161 -0.4968  0.7545 -0.4018
 5298TIP3   OH237384   5.847   5.059  14.431 -0.9823  0.0857  0.1509
 5298TIP3    H137385   5.759   5.095  14.442 -1.2478 -0.2069 -0.8854
 5298TIP3    H237386   5.871   5.082  14.341  0.0324  0.2237  0.4519
 5299TIP3   OH237387   5.571   5.072  12.532 -0.5175 -0.5326 -0.4742
 5299TIP3    H137388   5.553   5.011  12.461 -0.5846 -1.2514  0.1460
 5299TIP3    H237389   5.639   5.130  12.497 -1.6501  0.1305 -1.6658
 5300TIP3   OH237390   5.514   2.401   2.972  0.5542  0.1479 -0.0602
 5300TIP3    H137391   5.474   2.448   2.898 -0.3094 -0.7560 -0.2030
 5300TIP3    H237392   5.523   2.311   2.940  0.0541 -0.2827  0.9686
 5301TIP3   OH237393   6.019   6.384   5.648 -0.2647 -0.2292  0.1542
 5301TIP3    H137394   5.942   6.419   5.603  0.1111  1.9091  1.0486
 5301TIP3    H237395   6.085   6.453   5.638  0.5304 -0.6675  2.0588
 5302TIP3   OH237396   0.251   4.581  16.488  0.2231 -0.0193  0.5842
 5302TIP3    H137397   0.265   4.557  16.579  1.0633  0.4661  0.5888
 5302TIP3    H237398   0.268   4.675  16.484 -2.9836  0.6615  0.5576
 5303TIP3   OH237399   6.548   2.947  13.345  0.0200 -0.1070 -0.2068
 5303TIP3    H137400   6.544   2.859  13.383  2.3528 -0.1417  0.0873
 5303TIP3    H237401   6.580   3.002  13.416 -2.2372  1.2092 -0.1260
 5304TIP3   OH237402   2.627   4.222  16.652  0.2772  0.4339  0.1790
 5304TIP3    H137403   2.585   4.298  16.612 -1.5859 -0.1613  0.8924
 5304TIP3    H237404   2.704   4.258  16.697 -1.4771  2.2231  1.9454
 5305TIP3   OH237405   0.650   3.011   5.468  0.1919 -0.0426 -0.1467
 5305TIP3    H137406   0.626   3.048   5.553 -0.9873 -1.1346  0.0351
 5305TIP3    H237407   0.715   2.944   5.489  1.2365  0.9111 -0.3123
 5306TIP3   OH237408   3.730   0.525  16.417 -0.9795  0.2854 -0.1668
 5306TIP3    H137409   3.667   0.470  16.462  0.5285 -1.6939 -0.3493
 5306TIP3    H237410   3.777   0.571  16.487 -0.4832 -0.6832  0.1436
 5307TIP3   OH237411   0.804   3.994  16.081 -0.4679  0.2620 -0.1731
 5307TIP3    H137412   0.713   3.966  16.083 -1.4225  3.0088 -1.3121
 5307TIP3    H237413   0.801   4.088  16.096  2.1874  0.4489 -0.3399
 5308TIP3   OH237414   5.104   5.706   3.673  0.4825  0.0552  0.1095
 5308TIP3    H137415   5.175   5.669   3.725  1.1989  1.6463  0.3220
 5308TIP3    H237416   5.037   5.729   3.738  0.1841 -0.5174  0.0128
 5309TIP3   OH237417   0.230   0.233   0.585 -0.0110 -0.5446  0.1608
 5309TIP3    H137418   0.213   0.248   0.678  0.1373 -0.0845  0.1123
 5309TIP3    H237419   0.293   0.160   0.584  0.4362 -0.1665  0.4427
 5310TIP3   OH237420   3.086   3.341  12.296 -0.0525  0.3003 -0.4386
 5310TIP3    H137421   3.038   3.422  12.313 -0.6764 -0.3509  1.1925
 5310TIP3    H237422   3.147   3.362  12.226  1.2775  2.7664  1.3397
 5311TIP3   OH237423   2.435   3.172   1.312 -0.0198 -0.5929 -0.1115
 5311TIP3    H137424   2.478   3.123   1.243 -0.5436 -1.7806  0.3840
 5311TIP3    H237425   2.344   3.182   1.282 -0.3044 -1.2925  0.4656
 5312TIP3   OH237426   4.994   4.860   5.839  0.2743  0.0729  0.4977
 5312TIP3    H137427   4.990   4.777   5.791  1.7123 -0.6343  1.5154
 5312TIP3    H237428   5.047   4.840   5.917 -0.9771  1.4576  1.7798
 5313TIP3   OH237429   5.444   1.334  13.654  0.3529  0.2781 -1.0741
 5313TIP3    H137430   5.507   1.274  13.614  0.1257  0.3988 -1.6221
 5313TIP3    H237431   5.440   1.409  13.595  0.3160  0.6434 -0.6112
 5314TIP3   OH237432   2.553   2.052  13.340  0.4114 -0.6528 -1.0813
 5314TIP3    H137433   2.544   1.989  13.411  0.5809 -2.8672 -2.9118
 5314TIP3    H237434   2.647   2.069  13.334  0.1694  2.2528  1.3384
 5315TIP3   OH237435   4.441   5.666   2.953 -0.1766 -0.0947  0.4017
 5315TIP3    H137436   4.462   5.644   2.862  1.3417 -2.6382  1.2482
 5315TIP3    H237437   4.510   5.726   2.980  0.6995 -1.1255  0.4976
 5316TIP3   OH237438   2.345   3.858  14.470  0.0734 -0.1155  0.5348
 5316TIP3    H137439   2.269   3.914  14.487  0.3622  0.9437 -1.4196
 5316TIP3    H237440   2.310   3.779  14.430 -0.0591  0.0656  0.2962
 5317TIP3   OH237441   2.715   5.811   5.537  0.2142 -0.2030  0.2684
 5317TIP3    H137442   2.729   5.731   5.588  2.2701  0.0938  0.2416
 5317TIP3    H237443   2.758   5.880   5.588  0.6283  0.4425 -0.9185
 5318TIP3   OH237444   1.857   1.239   4.443  0.0967 -0.1954  0.3600
 5318TIP3    H137445   1.827   1.247   4.533  1.1498  0.6820  0.6447
 5318TIP3    H237446   1.868   1.145   4.429 -1.9001 -0.5059  0.5092
 5319TIP3   OH237447   2.350   1.243  11.531  0.3747 -0.3121 -0.0153
 5319TIP3    H137448   2.315   1.192  11.604  0.2991 -0.1044  0.0954
 5319TIP3    H237449   2.282   1.308  11.512  0.9527  0.4931  0.6106
 5320TIP3   OH237450   0.857   0.123   1.759  0.0840 -0.2903 -0.0161
 5320TIP3    H137451   0.888   0.059   1.823  1.8134  3.0745  2.9021
 5320TIP3    H237452   0.797   0.179   1.809  0.7599  1.9570 -1.5666
 5321TIP3   OH237453   5.485   6.119   0.787  0.0226  0.1231  0.4986
 5321TIP3    H137454   5.412   6.179   0.795 -0.1706 -0.1403  0.7343
 5321TIP3    H237455   5.523   6.138   0.701 -1.1820 -0.6935 -0.2508
 5322TIP3   OH237456   1.735   3.213  11.784 -0.2776  0.3007 -0.4999
 5322TIP3    H137457   1.669   3.175  11.841  0.8113 -0.2659  0.4325
 5322TIP3    H237458   1.686   3.269  11.724 -1.6271 -0.3738 -0.0711
 5323TIP3   OH237459   6.654   0.614  16.558  0.1162 -0.5031 -0.0935
 5323TIP3    H137460   6.675   0.535  16.508 -0.0169 -1.4086  1.2177
 5323TIP3    H237461   6.715   0.612  16.632 -1.5021 -0.7246  1.2963
 5324TIP3   OH237462   5.746   4.125  12.749  0.1157 -0.1569  0.4944
 5324TIP3    H137463   5.786   4.045  12.716  1.8841  0.2987  1.3906
 5324TIP3    H237464   5.730   4.108  12.841 -1.2893 -0.1246  0.2727
 5325TIP3   OH237465   0.855   0.762  14.591  0.5644 -0.1069  0.2658
 5325TIP3    H137466   0.835   0.756  14.685  0.6691  0.7402  0.3432
 5325TIP3    H237467   0.869   0.855  14.575 -3.0803  0.3364 -1.3219
 5326TIP3   OH237468   3.751   3.106  12.990  0.0423 -0.2809  0.4119
 5326TIP3    H137469   3.835   3.127  12.951  1.0676 -0.4621  2.3883
 5326TIP3    H237470   3.706   3.191  12.997  0.5585 -0.0069  0.4385
 5327TIP3   OH237471   3.288   1.162  14.816  0.3039  0.0518  0.4093
 5327TIP3    H137472   3.343   1.086  14.793 -0.1389 -0.5697  1.3678
 5327TIP3    H237473   3.341   1.237  14.791  0.8723 -0.5611 -0.3065
 5328TIP3   OH237474   2.050   2.250   5.737  0.2201 -0.1029 -0.1332
 5328TIP3    H137475   2.099   2.327   5.767 -0.7903  0.5589 -0.1613
 5328TIP3    H237476   2.050   2.257   5.642 -2.5002  1.5901 -0.1066
 5329TIP3   OH237477   2.017   0.056  12.677  0.5218  0.5256  0.0398
 5329TIP3    H137478   2.030   0.020  12.765  1.8437 -0.2845 -0.4624
 5329TIP3    H237479   1.993  -0.019  12.624  0.0432  0.9590 -0.3687
 5330TIP3   OH237480   3.928   5.719   4.222 -0.0753 -0.1077 -0.4588
 5330TIP3    H137481   3.855   5.748   4.168 -0.3104  1.3146  0.5583
 5330TIP3    H237482   4.006   5.755   4.179  0.0508 -1.5300 -1.4806
 5331TIP3   OH237483   2.452   1.129   2.209 -0.0872 -0.0863  0.7282
 5331TIP3    H137484   2.492   1.216   2.204  0.6400 -0.4505 -0.1918
 5331TIP3    H237485   2.523   1.072   2.239 -0.1478 -0.5919 -0.0492
 5332TIP3   OH237486   3.548   4.283   2.552  0.1653 -0.2334 -0.1165
 5332TIP3    H137487   3.549   4.206   2.494  2.2028  0.0257 -0.5074
 5332TIP3    H237488   3.639   4.290   2.583 -0.6748  0.0987  2.5408
 5333TIP3   OH237489   4.416   3.170  12.795  0.1140 -0.2193  0.0847
 5333TIP3    H137490   4.424   3.207  12.707  0.6767 -1.1038 -0.2518
 5333TIP3    H237491   4.383   3.243  12.849  1.2146  0.7842 -0.5442
 5334TIP3   OH237492   6.736   4.532  12.658 -0.2880 -0.3784  0.6095
 5334TIP3    H137493   6.746   4.582  12.739 -1.6980  0.1288  0.4970
 5334TIP3    H237494   6.694   4.451  12.685 -0.2040 -0.4670  0.4730
 5335TIP3   OH237495   2.740   1.282   3.388  0.2367 -0.0783  0.3305
 5335TIP3    H137496   2.667   1.338   3.361  0.9364  1.2248  0.9976
 5335TIP3    H237497   2.817   1.327   3.354  0.9528  0.3593  2.3965
 5336TIP3   OH237498   6.601   1.022  15.910 -0.0589 -0.1546 -0.8070
 5336TIP3    H137499   6.626   0.967  15.835 -0.2095 -0.8585 -0.3477
 5336TIP3    H237500   6.580   0.960  15.979 -3.0846  0.3369 -1.1430
 5337TIP3   OH237501   1.268   3.905  11.391  0.1606  0.2357  0.3724
 5337TIP3    H137502   1.270   3.927  11.298  0.6299 -1.3088 -0.0067
 5337TIP3    H237503   1.266   3.990  11.435 -0.5367  0.9896 -1.0443
 5338TIP3   OH237504   5.818   1.760   6.108  0.3761  0.1848  0.1536
 5338TIP3    H137505   5.880   1.693   6.081 -1.0254 -1.4246  0.7535
 5338TIP3    H237506   5.819   1.824   6.037  0.8954 -1.0782 -1.0223
 5339TIP3   OH237507   0.330   5.911   0.584  0.5052 -0.3070  0.0602
 5339TIP3    H137508   0.271   5.854   0.635  1.5803 -1.7561 -0.2456
 5339TIP3    H237509   0.282   5.994   0.576 -0.2358 -0.4322  2.3509
 5340TIP3   OH237510   1.896   5.700  11.967  0.1001  0.5828  0.5273
 5340TIP3    H137511   1.935   5.620  12.002  0.2436 -0.9535 -2.7296
 5340TIP3    H237512   1.804   5.694  11.994  0.1685 -0.5627  0.5921
 5341TIP3   OH237513   1.190   4.526   1.409 -0.4779 -0.4200  0.5311
 5341TIP3    H137514   1.200   4.491   1.497  1.0348 -0.0480  0.5338
 5341TIP3    H237515   1.264   4.491   1.360 -0.0362  1.1290  0.0148
 5342TIP3   OH237516   1.136   5.548   3.326  0.4973 -0.2418 -0.4139
 5342TIP3    H137517   1.085   5.618   3.367 -0.0568 -0.3078 -0.9802
 5342TIP3    H237518   1.171   5.498   3.399 -0.3374 -0.2521 -0.0050
 5343TIP3   OH237519   0.150   5.974  14.762  0.7400 -0.5446 -0.1563
 5343TIP3    H137520   0.124   5.947  14.674  1.3610 -2.1170  0.0985
 5343TIP3    H237521   0.159   5.891  14.810  2.5894  0.1264  0.7565
 5344TIP3   OH237522   4.142   0.595  14.759 -0.2382 -0.4926  0.1822
 5344TIP3    H137523   4.160   0.614  14.851  1.5843 -1.8579  0.1807
 5344TIP3    H237524   4.101   0.675  14.725  0.8451  0.7789  1.7047
 5345TIP3   OH237525   6.422   3.839   4.619  0.2293  0.1685  0.2798
 5345TIP3    H137526   6.467   3.805   4.541 -0.5012 -1.3701  0.4949
 5345TIP3    H237527   6.434   3.772   4.685 -0.4066  0.7962  1.0582
 5346TIP3   OH237528   3.789   2.730   2.804  0.1902  0.1040 -0.7016
 5346TIP3    H137529   3.810   2.645   2.766 -1.3386 -0.4059 -0.4587
 5346TIP3    H237530   3.821   2.726   2.894 -0.0271 -0.2801 -0.6412
 5347TIP3   OH237531   5.296   2.506   1.832 -0.5523 -0.0167  0.2937
 5347TIP3    H137532   5.302   2.524   1.738  2.0598 -0.7492  0.2590
 5347TIP3    H237533   5.208   2.469   1.843 -0.4569 -1.1771 -2.0968
 5348TIP3   OH237534   3.986   4.094   1.215 -0.1019  0.0872  0.4004
 5348TIP3    H137535   4.074   4.095   1.177 -0.8852  0.2945 -1.5059
 5348TIP3    H237536   3.997   4.050   1.299  1.8185  0.1102  0.2064
 5349TIP3   OH237537   4.142   2.643  12.724 -0.3711  0.3279 -0.2871
 5349TIP3    H137538   4.079   2.576  12.749 -0.2162 -0.1704 -1.1719
 5349TIP3    H237539   4.228   2.603  12.738 -0.2745  0.4168 -0.6012
 5350TIP3   OH237540   5.148   4.561   5.927 -0.0979 -0.3107  0.2554
 5350TIP3    H137541   5.163   4.647   5.968  0.0459  1.2159 -2.7454
 5350TIP3    H237542   5.065   4.531   5.963 -0.0528  0.9849  1.5249
 5351TIP3   OH237543   1.850   0.144   1.137 -0.0207 -0.2468 -0.7873
 5351TIP3    H137544   1.852   0.158   1.042 -2.9519  3.3019 -0.5343
 5351TIP3    H237545   1.930   0.186   1.169 -0.3242  0.9187 -1.5034
 5352TIP3   OH237546   3.326   1.490   5.637  0.5383 -0.2172  0.0190
 5352TIP3    H137547   3.301   1.544   5.712 -1.3075  0.4107 -0.9814
 5352TIP3    H237548   3.261   1.420   5.635  0.6038 -0.2698 -0.9282
 5353TIP3   OH237549   2.807   1.161   3.723  0.6926  0.4599 -0.0480
 5353TIP3    H137550   2.852   1.102   3.784 -0.5679  0.4005  0.8824
 5353TIP3    H237551   2.874   1.223   3.695  1.7328 -0.6317 -0.0323
 5354TIP3   OH237552   5.806   6.819  12.418 -1.0887 -0.1134  0.2403
 5354TIP3    H137553   5.772   6.805  12.330 -1.2367 -1.2541  0.4709
 5354TIP3    H237554   5.867   6.746  12.433  1.3554  1.7255 -0.0880
 5355TIP3   OH237555   4.816   1.900   2.398 -0.0524  0.0571 -0.0045
 5355TIP3    H137556   4.878   1.873   2.331 -1.9770 -0.5600 -1.6609
 5355TIP3    H237557   4.749   1.949   2.350 -1.4353 -0.2842  1.4837
 5356TIP3   OH237558   5.263   5.777  13.054 -0.2917 -0.1608 -0.4064
 5356TIP3    H137559   5.177   5.814  13.075  0.4755  0.8718  1.1472
 5356TIP3    H237560   5.283   5.719  13.128  1.2907  1.3512  0.4182
 5357TIP3   OH237561   2.382   1.816   3.266 -0.2662 -0.2791  0.0246
 5357TIP3    H137562   2.448   1.786   3.329  0.0156 -0.5686 -0.4021
 5357TIP3    H237563   2.301   1.819   3.317  0.1547  0.5322  0.6756
 5358TIP3   OH237564   6.569   5.185  14.231  0.1154  0.2824 -0.5963
 5358TIP3    H137565   6.647   5.209  14.281 -1.0112  3.4820 -0.1675
 5358TIP3    H237566   6.598   5.185  14.140  0.6278  1.4329 -0.4371
 5359TIP3   OH237567   5.084   6.608   4.796  0.6803  0.1138 -0.4573
 5359TIP3    H137568   5.082   6.540   4.863  0.1898  0.3751 -0.1989
 5359TIP3    H237569   4.993   6.621   4.772  0.3826  2.8350  1.7206
 5360TIP3   OH237570   2.961   2.969  15.235 -0.9123 -0.0386  0.5048
 5360TIP3    H137571   3.004   2.970  15.150 -0.7249 -1.1854  0.5602
 5360TIP3    H237572   3.025   3.007  15.295 -0.2811 -0.9481  0.4411
 5361TIP3   OH237573   0.797   3.451   3.403  0.0556  0.1379  0.7411
 5361TIP3    H137574   0.855   3.402   3.345 -0.0375  1.6425 -0.7117
 5361TIP3    H237575   0.828   3.431   3.491  1.6364 -0.4955  0.0775
 5362TIP3   OH237576   5.985   2.272   0.998 -0.4572 -0.0458  0.0413
 5362TIP3    H137577   5.976   2.357   0.955  1.3101  0.2068  0.0676
 5362TIP3    H237578   6.033   2.291   1.079  0.8786 -1.1561 -0.4464
 5363TIP3   OH237579   3.882   1.469   1.832 -0.6122 -0.0111  0.1718
 5363TIP3    H137580   3.791   1.440   1.833 -0.0920 -1.7569  0.7152
 5363TIP3    H237581   3.899   1.496   1.923 -0.2063 -1.0519  0.4200
 5364TIP3   OH237582   0.617   3.325   3.610  0.5181  0.2569 -0.0736
 5364TIP3    H137583   0.706   3.335   3.576 -0.0418  2.5137 -1.0557
 5364TIP3    H237584   0.560   3.339   3.534 -0.7289 -1.5162  0.4521
 5365TIP3   OH237585   5.882   2.890  16.770  0.5034  0.3116  0.6660
 5365TIP3    H137586   5.867   2.961  16.708  1.5489 -0.5051 -0.5827
 5365TIP3    H237587   5.925   2.930  16.845 -0.2583  1.2221  0.6287
 5366TIP3   OH237588   6.413   3.416   3.271 -0.4531  0.0577 -0.2733
 5366TIP3    H137589   6.501   3.382   3.282 -0.0420  1.2926  0.4726
 5366TIP3    H237590   6.414   3.457   3.184  0.0691  1.0435  0.1798
 5367TIP3   OH237591   4.524   6.757  16.090 -0.5084 -0.1499  0.3317
 5367TIP3    H137592   4.504   6.663  16.095  0.5254 -0.4459 -0.7190
 5367TIP3    H237593   4.486   6.785  16.007  2.5674 -0.5550 -1.3343
 5368TIP3   OH237594   0.245   5.086  12.481  0.0774 -0.2745  0.1014
 5368TIP3    H137595   0.292   5.160  12.443  0.0078  0.2383  0.9646
 5368TIP3    H237596   0.153   5.103  12.460 -0.0062  0.2273  0.8165
 5369TIP3   OH237597   5.970   2.706  13.157  0.3271 -0.3651  0.5671
 5369TIP3    H137598   6.046   2.720  13.100 -0.7630  2.0079 -0.4353
 5369TIP3    H237599   6.008   2.690  13.244  1.9739 -0.5905 -0.1580
 5370TIP3   OH237600   3.146   0.720   0.734  0.0386  0.9736  0.4956
 5370TIP3    H137601   3.197   0.796   0.708  1.7237 -0.0218  0.7372
 5370TIP3    H237602   3.081   0.710   0.665  0.7470  1.7473 -0.3070
 5371TIP3   OH237603   5.675   5.597   0.531  0.5724 -0.2751  0.6069
 5371TIP3    H137604   5.684   5.654   0.608  0.4898  0.6409 -0.0385
 5371TIP3    H237605   5.740   5.631   0.469 -1.3743  0.9532 -0.8830
 5372TIP3   OH237606   2.015   1.815  13.928  0.2824 -0.0997 -0.1121
 5372TIP3    H137607   2.070   1.738  13.912  0.7676  0.2541 -0.1748
 5372TIP3    H237608   2.019   1.828  14.023 -1.3709 -1.2935  0.1747
 5373TIP3   OH237609   6.369   0.719   0.409 -0.2267  0.5566  0.0553
 5373TIP3    H137610   6.437   0.689   0.469 -0.8342 -0.7406  0.1203
 5373TIP3    H237611   6.403   0.802   0.374  0.8990  0.4629  0.8813
 5374TIP3   OH237612   3.189   6.453   5.700 -0.3596 -0.7523  0.3314
 5374TIP3    H137613   3.220   6.542   5.685 -0.0813 -0.7106  1.0819
 5374TIP3    H237614   3.262   6.397   5.672 -0.1908 -0.7061  0.6654
 5375TIP3   OH237615   3.324   6.321  11.995 -0.0548  0.0330 -0.0033
 5375TIP3    H137616   3.249   6.333  11.937  0.3999  0.7005 -0.4734
 5375TIP3    H237617   3.390   6.278  11.940  0.0686 -0.1297  0.2711
 5376TIP3   OH237618   0.863   0.396  13.952  0.2687 -0.9004 -0.2206
 5376TIP3    H137619   0.780   0.349  13.958 -0.9348  1.0912 -0.2392
 5376TIP3    H237620   0.911   0.353  13.882 -1.8947 -0.5042 -2.0787
 5377TIP3   OH237621   6.802   0.685   2.959 -0.3557 -0.0115  0.0239
 5377TIP3    H137622   6.761   0.627   2.895  0.0419  0.5617 -0.7692
 5377TIP3    H237623   6.894   0.690   2.932 -0.3025  0.6664  0.3059
 5378TIP3   OH237624   3.641   1.175  17.188 -0.2520 -0.3144 -0.1769
 5378TIP3    H137625   3.695   1.236  17.238  0.6810 -1.4897  0.2793
 5378TIP3    H237626   3.642   1.210  17.099  1.3283 -0.3301 -0.1946
 5379TIP3   OH237627   0.621   3.108   0.493  0.1181 -0.3157  0.2098
 5379TIP3    H137628   0.716   3.121   0.494  0.9413 -4.2277 -2.6614
 5379TIP3    H237629   0.590   3.165   0.422  0.6591 -0.4280 -0.1228
 5380TIP3   OH237630   6.120   2.528   5.375  0.7487  0.3233  0.5101
 5380TIP3    H137631   6.056   2.510   5.306  0.2105  1.6678  0.6250
 5380TIP3    H237632   6.204   2.502   5.337  0.5905  1.8766 -1.0461
 5381TIP3   OH237633   2.445   5.063   1.923 -0.1181 -0.4369  0.5889
 5381TIP3    H137634   2.456   5.153   1.890  1.1422 -0.1900  1.5885
 5381TIP3    H237635   2.376   5.069   1.988 -1.0441 -0.4927 -0.3605
 5382TIP3   OH237636   6.722   0.820  16.349  0.4750  0.3491  0.4120
 5382TIP3    H137637   6.639   0.862  16.325  0.5389 -0.0023 -0.4483
 5382TIP3    H237638   6.703   0.773  16.430  0.4794  2.2757  1.6111
 5383TIP3   OH237639   3.996   4.000  11.299  0.4609  0.2287  0.3390
 5383TIP3    H137640   3.944   4.046  11.233 -0.8935  0.9959  1.8724
 5383TIP3    H237641   4.085   4.034  11.288  0.0068  1.2627 -0.2698
 5384TIP3   OH237642   5.318   5.298  11.953 -0.0961  0.1939 -0.5609
 5384TIP3    H137643   5.247   5.356  11.982  1.5251  1.3719  1.2368
 5384TIP3    H237644   5.309   5.295  11.858 -1.7554  1.3522 -0.4854
 5385TIP3   OH237645   1.303   1.016  14.618  0.2400  0.9025 -0.8402
 5385TIP3    H137646   1.229   1.042  14.673  0.8267  2.2207 -0.6363
 5385TIP3    H237647   1.279   0.929  14.586  0.1618 -0.2302  2.0082
 5386TIP3   OH237648   0.516   0.747  11.182 -0.1024 -0.1840 -1.1340
 5386TIP3    H137649   0.497   0.778  11.094 -0.4694  0.3274 -0.8798
 5386TIP3    H237650   0.462   0.802  11.239  0.4640 -0.2097 -0.5589
 5387TIP3   OH237651   3.391   1.626  13.454 -0.1071 -0.3995  0.7656
 5387TIP3    H137652   3.332   1.680  13.400 -0.1266  0.1998  1.3761
 5387TIP3    H237653   3.389   1.540  13.412  1.6365  0.5900 -1.5653
 5388TIP3   OH237654   5.577   5.052  16.976  0.3142 -0.1280  0.3519
 5388TIP3    H137655   5.653   5.049  17.034 -0.9429 -0.8639  2.0411
 5388TIP3    H237656   5.536   5.137  16.993  0.4926  0.0824 -0.2325
 5389TIP3   OH237657   1.780   3.463  15.187 -0.1125 -0.0958  1.1240
 5389TIP3    H137658   1.687   3.458  15.166 -0.0606 -1.0511  1.0616
 5389TIP3    H237659   1.810   3.544  15.145 -0.5699 -0.6224 -0.2949
 5390TIP3   OH237660   5.192   2.082   0.511 -0.1753  0.9007 -0.2051
 5390TIP3    H137661   5.227   2.168   0.534 -2.6683  1.6969  1.0181
 5390TIP3    H237662   5.160   2.092   0.421  1.6174  0.5055 -0.9126
 5391TIP3   OH237663   6.394   3.589  17.061  0.3400 -0.0654  0.2692
 5391TIP3    H137664   6.486   3.568  17.076  0.7260  1.0795 -0.3696
 5391TIP3    H237665   6.395   3.643  16.982 -1.0394 -1.3335 -0.6619
 5392TIP3   OH237666   1.687   0.314   1.457 -0.4386 -0.0094  0.1393
 5392TIP3    H137667   1.711   0.222   1.472  0.2838  0.2898  0.9564
 5392TIP3    H237668   1.690   0.353   1.545  1.1988  1.2347 -0.4391
 5393TIP3   OH237669   2.062   6.276   4.909 -0.1013 -0.2919  0.4969
 5393TIP3    H137670   2.034   6.187   4.931 -0.9807 -0.2336 -0.2793
 5393TIP3    H237671   2.071   6.321   4.993 -1.2660 -0.6611  0.8433
 5394TIP3   OH237672   5.866   5.654  13.120 -0.2471  0.1376  0.6713
 5394TIP3    H137673   5.785   5.640  13.070  0.1417  3.1032 -1.0289
 5394TIP3    H237674   5.868   5.582  13.183 -3.1840 -1.1532 -0.5199
 5395TIP3   OH237675   1.199   0.739   0.646 -0.1698  0.4386 -0.3148
 5395TIP3    H137676   1.174   0.826   0.676  0.5679  0.4976  0.1679
 5395TIP3    H237677   1.124   0.683   0.668 -0.3450  0.8155  0.0554
 5396TIP3   OH237678   1.098   0.756  11.355  1.0405 -0.3519  0.5192
 5396TIP3    H137679   1.134   0.745  11.443  0.6767  0.9474  0.8510
 5396TIP3    H237680   1.004   0.743  11.365  0.9755 -0.0105  0.3600
 5397TIP3   OH237681   1.480   0.487   1.141  0.0422 -0.1748  0.6106
 5397TIP3    H137682   1.545   0.471   1.210  0.2620 -3.7105 -0.1902
 5397TIP3    H237683   1.531   0.500   1.062 -0.2308  0.7504  0.5783
 5398TIP3   OH237684   5.517   4.113   3.513 -0.5373  0.2463  0.0047
 5398TIP3    H137685   5.427   4.084   3.531 -0.7046  0.7773  0.0366
 5398TIP3    H237686   5.516   4.207   3.529  0.3045  0.0879  1.1146
 5399TIP3   OH237687   2.804   4.489  13.354 -0.1192  0.1765  0.2460
 5399TIP3    H137688   2.737   4.543  13.396 -1.4679 -0.3509 -1.1014
 5399TIP3    H237689   2.817   4.416  13.415  0.8998  1.3970  1.5499
 5400TIP3   OH237690   5.581   2.125   0.880 -0.3602 -0.2329  0.4707
 5400TIP3    H137691   5.641   2.190   0.916  0.0113 -0.2206 -0.1717
 5400TIP3    H237692   5.501   2.174   0.860  0.5920  0.4608 -1.8804
 5401TIP3   OH237693   1.290   2.959   3.160  0.0456 -0.0615  0.1149
 5401TIP3    H137694   1.268   3.047   3.128 -0.2783  0.1315  0.8438
 5401TIP3    H237695   1.361   2.930   3.103 -1.1946 -0.1476 -1.4416
 5402TIP3   OH237696   5.904   0.806  15.770 -0.9153 -0.5408 -0.0457
 5402TIP3    H137697   5.869   0.790  15.858 -0.4625  0.8679  0.4304
 5402TIP3    H237698   5.856   0.883  15.739 -0.1987 -0.2674 -0.5092
 5403TIP3   OH237699   4.311   0.370  16.190  0.4588 -0.0697  0.2755
 5403TIP3    H137700   4.244   0.311  16.225  0.5559  0.5089  1.4933
 5403TIP3    H237701   4.262   0.435  16.140  0.3326 -1.0119 -0.8759
 5404TIP3   OH237702   1.400   2.524  11.631 -0.5651  0.8935 -0.1760
 5404TIP3    H137703   1.473   2.505  11.572 -0.2218  0.6215  0.3293
 5404TIP3    H237704   1.344   2.447  11.624 -0.2109  0.5858  0.3165
 5405TIP3   OH237705   1.966   5.062  11.779  0.3781 -0.2758 -0.4310
 5405TIP3    H137706   1.903   5.114  11.730 -0.0113 -0.6737 -0.3604
 5405TIP3    H237707   1.980   4.984  11.725 -0.3913 -0.9320  0.2704
 5406TIP3   OH237708   0.034   5.622  14.664  0.0662  0.3898  0.1388
 5406TIP3    H137709  -0.053   5.660  14.651 -0.0131 -0.2906 -1.4793
 5406TIP3    H237710   0.016   5.533  14.694  0.1845 -0.0034 -0.9396
 5407TIP3   OH237711   4.590   4.309  15.627 -0.3951  0.6701  0.8093
 5407TIP3    H137712   4.625   4.255  15.698 -0.8634  2.9573  2.9207
 5407TIP3    H237713   4.633   4.275  15.548  0.5065 -1.6984  2.2017
 5408TIP3   OH237714   2.783   3.860  14.850 -0.2632 -0.4103  0.2052
 5408TIP3    H137715   2.775   3.907  14.933 -2.3389 -2.2488  1.1400
 5408TIP3    H237716   2.773   3.928  14.783 -0.8948  0.7858  1.4740
 5409TIP3   OH237717   2.886   4.596   1.935  0.3478  0.3721  0.0531
 5409TIP3    H137718   2.979   4.580   1.946  0.2749 -0.3016 -0.2576
 5409TIP3    H237719   2.879   4.691   1.924  1.2186  0.2784 -1.7759
 5410TIP3   OH237720   4.996   1.053   5.404  0.1931 -0.1259 -0.0878
 5410TIP3    H137721   4.956   0.985   5.348 -1.5127  0.6398  0.1379
 5410TIP3    H237722   4.928   1.074   5.468  1.5994  0.0603  1.3900
 5411TIP3   OH237723   1.983   0.515  12.494 -0.1104 -0.4394  0.0101
 5411TIP3    H137724   1.959   0.430  12.456 -1.9609 -1.3313  2.8395
 5411TIP3    H237725   2.046   0.493  12.563  0.0459  0.6130  0.2141
 5412TIP3   OH237726   6.484   2.064  13.679 -0.3664  0.6261 -0.4789
 5412TIP3    H137727   6.472   2.032  13.769 -2.0725  2.0204 -0.1607
 5412TIP3    H237728   6.565   2.116  13.683  1.0218 -1.4094 -0.4200
 5413TIP3   OH237729   4.221   1.071   2.864 -0.5810 -0.1114  0.2438
 5413TIP3    H137730   4.216   0.976   2.875  1.1550 -0.3025 -0.3969
 5413TIP3    H237731   4.219   1.106   2.953  1.9583 -0.9780  0.7239
 5414TIP3   OH237732   3.412   6.318   1.437 -0.2182 -0.0143  0.0868
 5414TIP3    H137733   3.436   6.405   1.470  3.7685 -1.3432  1.2548
 5414TIP3    H237734   3.430   6.324   1.343  1.9695 -0.0126  0.4490
 5415TIP3   OH237735   1.752   4.532   1.115  0.2180  0.1012  0.6437
 5415TIP3    H137736   1.799   4.583   1.049  0.6425  0.0813  0.9266
 5415TIP3    H237737   1.737   4.593   1.186 -0.3479  0.1544  0.4811
 5416TIP3   OH237738   5.298   0.692  15.208 -0.2987  0.4971 -0.2905
 5416TIP3    H137739   5.224   0.632  15.204  0.2011 -0.1135 -0.5145
 5416TIP3    H237740   5.268   0.763  15.265 -0.6958 -0.2372  0.4298
 5417TIP3   OH237741   4.430   4.857   1.793  0.1981 -0.3659  0.2192
 5417TIP3    H137742   4.510   4.892   1.832  0.0129 -0.5609  0.7830
 5417TIP3    H237743   4.420   4.906   1.711  0.7922 -0.2139  0.2335
 5418TIP3   OH237744   2.478   6.584  15.404 -0.8716  0.3377 -0.9444
 5418TIP3    H137745   2.441   6.499  15.379 -0.8820  0.7609 -2.4595
 5418TIP3    H237746   2.571   6.576  15.384 -0.6061  0.2370  0.2250
 5419TIP3   OH237747   3.001   0.662  14.766  0.5455 -0.4198  0.1395
 5419TIP3    H137748   3.087   0.701  14.782  0.3646 -0.8106  2.4520
 5419TIP3    H237749   2.939   0.726  14.803 -0.1422 -0.4294 -0.9445
 5420TIP3   OH237750   5.701   2.337   2.698  0.0128 -0.0117  0.1006
 5420TIP3    H137751   5.643   2.408   2.725  0.9914  1.2750 -1.0129
 5420TIP3    H237752   5.668   2.311   2.611 -0.3262 -0.9392  0.4893
 5421TIP3   OH237753   2.360   4.737  14.688  0.1025 -0.3386 -0.3597
 5421TIP3    H137754   2.385   4.714  14.778  0.9914  1.6834 -0.0229
 5421TIP3    H237755   2.277   4.691  14.674 -0.2154 -0.4779  1.6033
 5422TIP3   OH237756   5.505   5.609   4.650 -0.3219 -0.2438 -0.0433
 5422TIP3    H137757   5.587   5.651   4.675  0.6555 -2.1376  0.1249
 5422TIP3    H237758   5.509   5.604   4.555 -0.7226  0.5434 -0.1110
 5423TIP3   OH237759   5.709   5.219   1.951  0.2617 -0.6030 -0.0355
 5423TIP3    H137760   5.701   5.294   2.009 -1.8258  0.3727 -1.4548
 5423TIP3    H237761   5.761   5.252   1.877 -1.2840 -0.2617 -1.0138
 5424TIP3   OH237762   6.806   1.369  14.283 -0.3419  0.0527  0.0530
 5424TIP3    H137763   6.732   1.423  14.257 -0.7514 -0.2184  0.6427
 5424TIP3    H237764   6.876   1.394  14.222 -1.0600 -0.0536 -0.8367
 5425TIP3   OH237765   1.708   2.144   4.895  0.3527  0.1060  0.5305
 5425TIP3    H137766   1.757   2.143   4.978  0.8301  0.1805  0.2501
 5425TIP3    H237767   1.619   2.169   4.921  0.7086  1.0039  0.9131
 5426TIP3   OH237768   0.594   1.566  11.832  0.2857  0.2523  0.0795
 5426TIP3    H137769   0.585   1.472  11.849  0.4380  0.1982 -0.1342
 5426TIP3    H237770   0.666   1.572  11.769 -1.2766  0.3291 -1.7805
 5427TIP3   OH237771   2.835   5.448   3.783  0.0806 -0.3750  0.4631
 5427TIP3    H137772   2.816   5.366   3.828  0.1759 -0.9804 -0.5574
 5427TIP3    H237773   2.922   5.473   3.815 -0.3323 -0.1864  1.4581
 5428TIP3   OH237774   1.992   6.530  14.481  0.2182 -0.6789  0.4783
 5428TIP3    H137775   2.008   6.545  14.574  0.2537  1.8431  0.1242
 5428TIP3    H237776   2.058   6.583  14.436 -1.6720  0.5958 -0.9475
 5429TIP3   OH237777   6.570   6.401  15.911 -0.1625  0.4238  0.1237
 5429TIP3    H137778   6.515   6.414  15.834 -0.6811  0.4473  0.4881
 5429TIP3    H237779   6.601   6.311  15.904 -0.5045  0.3078  0.0729
 5430TIP3   OH237780   6.220   2.204   0.793  0.2557 -0.4113  0.1804
 5430TIP3    H137781   6.170   2.164   0.723  0.0982 -1.0468  0.6432
 5430TIP3    H237782   6.161   2.269   0.831 -0.4818 -1.5819  1.1249
 5431TIP3   OH237783   1.881   5.139   5.487 -0.1485  0.5568  0.4555
 5431TIP3    H137784   1.874   5.170   5.577  0.2308 -1.7350  1.3418
 5431TIP3    H237785   1.961   5.179   5.453 -0.7070  2.0446  0.8522
 5432TIP3   OH237786   6.211   0.636  17.196  0.3848 -0.6453 -0.1412
 5432TIP3    H137787   6.232   0.647  17.103 -0.5972 -0.3959 -0.3464
 5432TIP3    H237788   6.116   0.623  17.197  0.6028 -2.4827  0.6676
 5433TIP3   OH237789   5.779   5.783   2.507  0.0398 -0.1957 -0.4635
 5433TIP3    H137790   5.714   5.715   2.523  0.1222 -0.6604 -1.8962
 5433TIP3    H237791   5.785   5.831   2.589 -1.6504 -0.5243 -0.1162
 5434TIP3   OH237792   3.071   4.775  13.389 -0.4045  0.0215 -0.4253
 5434TIP3    H137793   3.096   4.859  13.349 -2.0133  0.3112 -0.8751
 5434TIP3    H237794   3.150   4.721  13.382 -0.0361  0.7266 -2.2348
 5435TIP3   OH237795   4.956   1.573  14.816 -0.4953 -0.3973 -0.2901
 5435TIP3    H137796   4.876   1.609  14.778 -1.0012 -0.5697  0.5636
 5435TIP3    H237797   4.967   1.622  14.898  0.8862  0.3756 -0.8945
 5436TIP3   OH237798   0.569   0.972  12.351  0.3454 -0.0294  0.3014
 5436TIP3    H137799   0.538   0.883  12.338 -0.3019  0.3381 -0.7934
 5436TIP3    H237800   0.652   0.976  12.302 -0.7614  0.5888 -1.6305
 5437TIP3   OH237801   6.718   6.693  16.446 -0.1223  0.2762  0.6690
 5437TIP3    H137802   6.782   6.714  16.378 -0.3522  0.2415  0.4408
 5437TIP3    H237803   6.709   6.774  16.496  0.8206  0.0017  1.3017
 5438TIP3   OH237804   0.797   3.914  13.683  0.1694 -0.0627  0.0119
 5438TIP3    H137805   0.803   3.970  13.760 -0.8023  1.1330 -0.7426
 5438TIP3    H237806   0.782   3.974  13.610  2.5354 -1.0180 -1.3861
 5439TIP3   OH237807   1.356   3.314  10.763  0.0256 -0.3688 -0.5126
 5439TIP3    H137808   1.300   3.267  10.825 -2.6096  0.8604 -1.8167
 5439TIP3    H237809   1.428   3.253  10.745 -1.3356 -2.4182  0.5739
 5440TIP3   OH237810   4.623   5.512   0.799 -0.0896  0.3198  0.7378
 5440TIP3    H137811   4.564   5.459   0.852  0.3996 -1.2730 -0.2480
 5440TIP3    H237812   4.707   5.507   0.845  0.4664 -1.4856 -0.3644
 5441TIP3   OH237813   4.383   1.001   4.250  0.1706 -0.1880 -0.6378
 5441TIP3    H137814   4.428   0.923   4.280  0.0310 -0.7535 -1.8380
 5441TIP3    H237815   4.425   1.073   4.298  3.1534 -0.5450 -2.4542
 5442TIP3   OH237816   3.450   4.683   1.382 -0.0511 -0.0304 -0.0076
 5442TIP3    H137817   3.514   4.639   1.438  0.1598  0.0409 -0.1915
 5442TIP3    H237818   3.490   4.682   1.295  1.4209  3.3504  0.5000
 5443TIP3   OH237819   4.459   6.457  11.468 -0.1285  0.3588  0.8133
 5443TIP3    H137820   4.521   6.391  11.438  0.7389  1.5263 -0.0933
 5443TIP3    H237821   4.427   6.425  11.552  2.6983  0.3022  1.9655
 5444TIP3   OH237822   0.903   3.670   4.208 -0.7760  0.1031  0.4303
 5444TIP3    H137823   0.963   3.738   4.177 -2.6121  1.5389 -0.1787
 5444TIP3    H237824   0.945   3.587   4.185 -0.1149  1.0784 -2.1294
 5445TIP3   OH237825   3.156   1.671  17.171  1.3501  0.1223 -0.1267
 5445TIP3    H137826   3.252   1.675  17.169  1.4095 -1.1898 -0.3091
 5445TIP3    H237827   3.136   1.602  17.234  0.5221  0.1788 -0.3153
 5446TIP3   OH237828   4.605   2.604   5.011  0.4088 -0.2584  0.2580
 5446TIP3    H137829   4.569   2.690   5.032 -0.5855 -0.3950 -0.7359
 5446TIP3    H237830   4.542   2.542   5.049 -0.1517 -0.5087 -1.0185
 5447TIP3   OH237831   6.237   2.515  14.492 -0.0853  0.3406 -0.4766
 5447TIP3    H137832   6.264   2.505  14.401 -2.1066 -0.9818 -0.9991
 5447TIP3    H237833   6.236   2.426  14.527 -2.5343  0.3848 -0.2172
 5448TIP3   OH237834   5.650   2.606  13.973 -0.2705  0.1156  0.0959
 5448TIP3    H137835   5.731   2.640  13.935 -0.5056  1.2916  0.6054
 5448TIP3    H237836   5.653   2.512  13.956  0.0423  0.4776 -2.0259
 5449TIP3   OH237837   0.318   6.682   3.009  0.5274 -0.1551 -0.0086
 5449TIP3    H137838   0.291   6.598   3.044  1.0314 -0.4224 -0.2532
 5449TIP3    H237839   0.337   6.736   3.086  0.1511 -0.2415  0.1469
 5450TIP3   OH237840   1.528   5.496   1.094 -0.3292 -0.4372  0.2485
 5450TIP3    H137841   1.535   5.418   1.039 -0.4174 -0.0224 -0.3581
 5450TIP3    H237842   1.502   5.565   1.034  2.9863  0.8498  0.0861
 5451TIP3   OH237843   3.233   2.812   3.843 -0.7633 -0.5160  0.5207
 5451TIP3    H137844   3.270   2.833   3.929 -1.0685  2.9408 -0.0433
 5451TIP3    H237845   3.303   2.764   3.799  0.8944  0.9161  1.4444
 5452TIP3   OH237846   6.629   3.325  13.495 -0.0805 -0.2207 -0.2474
 5452TIP3    H137847   6.665   3.398  13.445  1.1827 -0.2616  0.5392
 5452TIP3    H237848   6.575   3.366  13.562 -1.2006 -0.1343 -1.1781
 5453TIP3   OH237849   0.787   0.296   4.827  0.2170 -0.4054  0.0389
 5453TIP3    H137850   0.844   0.221   4.844  1.3553  0.3397 -0.3728
 5453TIP3    H237851   0.846   0.371   4.827 -0.8598  0.4560  0.1268
 5454TIP3   OH237852   5.412   6.092   2.428 -0.4089 -0.3343 -0.4717
 5454TIP3    H137853   5.413   6.103   2.333  0.5594  1.4396 -0.3005
 5454TIP3    H237854   5.380   6.176   2.461 -3.0514 -1.7007  0.7444
 5455TIP3   OH237855   3.877   1.589  16.957 -0.0606 -0.3589 -0.0668
 5455TIP3    H137856   3.950   1.646  16.931  1.6734 -1.3356  2.2508
 5455TIP3    H237857   3.890   1.509  16.905  0.1706 -0.3125 -0.0821
 5456TIP3   OH237858   4.473   0.603  11.982 -0.1562  0.1476  0.2602
 5456TIP3    H137859   4.559   0.584  12.018 -0.9410  0.9146  2.7594
 5456TIP3    H237860   4.489   0.663  11.909  1.4220  0.3592  0.7599
 5457TIP3   OH237861   5.162   3.374   5.097 -0.6667 -0.6770  0.3850
 5457TIP3    H137862   5.230   3.410   5.040 -2.9138  0.9685 -1.3896
 5457TIP3    H237863   5.150   3.284   5.065  0.0388 -0.6907  0.1377
 5458TIP3   OH237864   4.653   4.088  15.846  0.5641 -0.5351  0.2975
 5458TIP3    H137865   4.725   4.031  15.819 -0.5794 -0.9727 -2.0735
 5458TIP3    H237866   4.590   4.029  15.888  0.4983 -0.5595  0.1626
 5459TIP3   OH237867   0.700   0.827   0.460  0.3888  0.3431  0.3365
 5459TIP3    H137868   0.720   0.920   0.473  1.6574 -0.1349  2.2436
 5459TIP3    H237869   0.747   0.783   0.531 -2.3917 -1.5116  1.1604
 5460TIP3   OH237870   5.943   5.899   4.794 -0.0047  0.3691  0.2198
 5460TIP3    H137871   5.920   5.961   4.864 -0.5571  0.3545  0.0545
 5460TIP3    H237872   6.036   5.916   4.777  0.7473 -1.1233  2.4550
 5461TIP3   OH237873   2.595   2.289  14.353 -0.0608  0.2157  0.3088
 5461TIP3    H137874   2.622   2.368  14.305 -0.8178 -0.5501 -1.4421
 5461TIP3    H237875   2.610   2.217  14.292  1.5337 -1.1579  2.2266
 5462TIP3   OH237876   3.434   6.564  15.280 -0.4566  0.4387 -0.2510
 5462TIP3    H137877   3.459   6.633  15.341 -0.6623 -1.9316  2.7989
 5462TIP3    H237878   3.502   6.497  15.291 -2.0249 -1.2718 -0.4790
 5463TIP3   OH237879   2.679   4.342   3.452  0.3036  0.3313  0.3944
 5463TIP3    H137880   2.676   4.295   3.536  1.2054 -0.1651  0.1637
 5463TIP3    H237881   2.590   4.375   3.441  0.2157  0.5862  1.6430
 5464TIP3   OH237882   1.028   2.359   4.549  0.3846  0.1414  0.0725
 5464TIP3    H137883   0.981   2.327   4.472 -1.6947  0.8825  0.9777
 5464TIP3    H237884   1.067   2.443   4.520 -1.1695  0.8868  0.0620
 5465TIP3   OH237885   1.572   6.471  16.509  0.2729  0.0074 -0.3529
 5465TIP3    H137886   1.543   6.540  16.569 -0.5061  0.4180 -1.1756
 5465TIP3    H237887   1.597   6.519  16.430  1.4476 -0.5130 -0.3196
 5466TIP3   OH237888   4.520   3.124   0.336  0.4283 -0.5659 -0.1819
 5466TIP3    H137889   4.462   3.192   0.301 -0.9643 -2.7188 -2.3667
 5466TIP3    H237890   4.483   3.104   0.423  0.0109  0.4695 -0.1140
 5467TIP3   OH237891   2.454   4.359  14.555  0.2440 -0.3041  0.0282
 5467TIP3    H137892   2.384   4.417  14.523  1.0192  1.7594  1.8071
 5467TIP3    H237893   2.535   4.405  14.534  0.9080 -0.8164  1.3513
 5468TIP3   OH237894   4.261   2.563  12.214  0.2851 -0.2167  0.1073
 5468TIP3    H137895   4.166   2.575  12.225  0.0200  1.3706 -2.8797
 5468TIP3    H237896   4.301   2.634  12.264 -0.3693  1.4350 -1.5893
 5469TIP3   OH237897   4.923   2.240   4.743 -0.5023  0.0987  0.0513
 5469TIP3    H137898   5.016   2.252   4.762 -0.1785  2.1911 -2.2926
 5469TIP3    H237899   4.883   2.324   4.767 -1.7412 -0.6249  0.6145
 5470TIP3   OH237900   1.064   0.408   6.001 -0.1977  0.0045 -0.0633
 5470TIP3    H137901   0.983   0.394   5.951 -1.2265  0.6789  1.3355
 5470TIP3    H237902   1.090   0.320   6.028 -0.4522 -0.2207 -0.5248
 5471TIP3   OH237903   0.961   1.829  11.325 -0.5591 -0.5249  0.3067
 5471TIP3    H137904   0.924   1.863  11.244 -0.6686 -2.3571 -0.4360
 5471TIP3    H237905   0.898   1.764  11.356  1.2267 -2.5995 -0.1781
 5472TIP3   OH237906   6.289   2.813   0.761 -0.2491 -0.5158 -0.6585
 5472TIP3    H137907   6.256   2.867   0.833  1.5475  1.2768 -1.0629
 5472TIP3    H237908   6.367   2.770   0.797  0.2290 -0.2006 -1.2976
 5473TIP3   OH237909   3.626   3.832   5.555  0.2176 -0.4318 -0.5558
 5473TIP3    H137910   3.681   3.852   5.631 -0.5764  1.8759 -0.4900
 5473TIP3    H237911   3.679   3.773   5.502  0.9930 -1.7363  1.5322
 5474TIP3   OH237912   4.540   1.229  11.055 -0.4414 -0.7827  0.3912
 5474TIP3    H137913   4.520   1.227  11.149 -1.2305 -0.0566  0.2558
 5474TIP3    H237914   4.634   1.245  11.051 -0.4974 -0.2262  1.0630
 5475TIP3   OH237915   2.487   6.420   5.828 -0.0328  0.1801  0.2256
 5475TIP3    H137916   2.424   6.349   5.837  1.3037 -1.6318 -2.8772
 5475TIP3    H237917   2.565   6.378   5.791  1.4912  2.9898 -0.0720
 5476TIP3   OH237918   0.756   0.145  11.889 -0.8442 -0.2724  0.7059
 5476TIP3    H137919   0.833   0.139  11.947  1.0091 -1.6647 -1.6880
 5476TIP3    H237920   0.793   0.153  11.801 -3.5223  2.4466 -0.3317
 5477TIP3   OH237921   0.057   1.209  12.726  0.5093  0.3012 -0.2553
 5477TIP3    H137922   0.069   1.279  12.661 -0.7703  1.0817  0.2956
 5477TIP3    H237923   0.010   1.251  12.798  3.2336 -0.1283  1.9493
 5478TIP3   OH237924   6.282   3.291  14.903 -0.1812 -0.1777 -0.3434
 5478TIP3    H137925   6.238   3.207  14.894  0.1879 -0.2118 -2.0787
 5478TIP3    H237926   6.242   3.346  14.836 -0.7623  1.2274  1.0705
 5479TIP3   OH237927   3.417   0.622  13.866  0.5185 -0.4283 -0.1792
 5479TIP3    H137928   3.383   0.708  13.844  0.4705 -0.1660  0.8735
 5479TIP3    H237929   3.470   0.597  13.790  0.1389  0.3115 -0.6968
 5480TIP3   OH237930   1.920   0.614   5.960  0.7860  0.2276 -0.6736
 5480TIP3    H137931   1.866   0.686   5.992  1.3196 -0.6031  2.3576
 5480TIP3    H237932   2.003   0.655   5.936  0.5124  0.8389 -0.5896
 5481TIP3   OH237933   3.223   6.081   1.915 -0.3176  0.2484 -0.0199
 5481TIP3    H137934   3.166   6.142   1.866  1.3473 -0.2089 -2.7343
 5481TIP3    H237935   3.162   6.020   1.956 -1.8566  0.9340 -1.1659
 5482TIP3   OH237936   6.762   0.970   3.727  0.0645 -0.3050  0.3459
 5482TIP3    H137937   6.795   1.052   3.762 -0.5388 -0.3326  0.9982
 5482TIP3    H237938   6.692   0.945   3.787 -0.1584 -0.9860 -0.1903
 5483TIP3   OH237939   5.946   0.376   3.657  0.2218  0.0756  0.2259
 5483TIP3    H137940   6.018   0.398   3.716  1.4110  1.2255 -1.5365
 5483TIP3    H237941   5.989   0.360   3.573 -1.4360 -1.0853 -0.4512
 5484TIP3   OH237942   4.673   0.322  12.092 -0.5201  0.2771  0.2881
 5484TIP3    H137943   4.752   0.362  12.128 -0.9165 -1.2704  3.2198
 5484TIP3    H237944   4.601   0.364  12.140 -1.4478  0.7477 -1.4150
 5485TIP3   OH237945   2.427   6.475   0.453 -0.2044 -0.3452 -0.0214
 5485TIP3    H137946   2.485   6.542   0.417 -2.5244  1.9200  0.1834
 5485TIP3    H237947   2.340   6.498   0.421 -1.3589 -2.2782  1.4766
 5486TIP3   OH237948   5.585   2.874  16.709  0.5263  0.0345  0.4077
 5486TIP3    H137949   5.530   2.949  16.731  0.6260  0.6310 -1.2544
 5486TIP3    H237950   5.543   2.835  16.632 -1.0432 -3.2479  2.6717
 5487TIP3   OH237951   2.221   2.305   2.611  0.8740 -0.4107 -0.4299
 5487TIP3    H137952   2.131   2.307   2.644  0.3567 -1.3286 -1.6713
 5487TIP3    H237953   2.214   2.340   2.522  1.7344 -0.5691 -0.5639
 5488TIP3   OH237954   0.453   5.033  10.943 -0.3393  0.2150 -0.2382
 5488TIP3    H137955   0.543   5.008  10.924  0.4973  0.8223  2.5098
 5488TIP3    H237956   0.441   5.117  10.899  1.1944  1.1635  1.0464
 5489TIP3   OH237957   0.922   0.334  16.796  0.6100  0.0360  0.3336
 5489TIP3    H137958   1.008   0.356  16.832  1.2275  1.3529 -1.7412
 5489TIP3    H237959   0.931   0.242  16.768  1.0752 -0.0788  0.8432
 5490TIP3   OH237960   3.794   0.412  11.257 -0.7006  0.3921  0.6070
 5490TIP3    H137961   3.830   0.328  11.225 -0.6958 -0.2654  2.2561
 5490TIP3    H237962   3.846   0.478  11.212 -0.8257 -0.4653 -0.8849
 5491TIP3   OH237963   1.139   5.460   4.330 -0.5310  0.0948  0.2524
 5491TIP3    H137964   1.102   5.467   4.242 -1.6672  0.0274  0.7059
 5491TIP3    H237965   1.216   5.403   4.319  2.7139  4.2847 -1.6591
 5492TIP3   OH237966   3.993   0.056  12.609 -0.3314 -0.9006 -0.2474
 5492TIP3    H137967   3.903   0.084  12.624 -0.0359  0.6896 -1.2175
 5492TIP3    H237968   4.001   0.046  12.514  0.3436 -1.7006 -0.1242
 5493TIP3   OH237969   6.089   1.391   3.988  0.1133  0.0565 -0.5663
 5493TIP3    H137970   6.059   1.377   3.898  2.6183  4.2610 -2.3819
 5493TIP3    H237971   6.015   1.433   4.032 -0.5365 -0.3978 -1.1923
 5494TIP3   OH237972   4.580   1.754   1.521  0.3941 -0.4297 -0.1334
 5494TIP3    H137973   4.590   1.722   1.611 -1.1005  0.1488  0.2654
 5494TIP3    H237974   4.517   1.693   1.481  0.8530 -0.5321 -0.7194
 5495TIP3   OH237975   3.479   5.713   4.993 -0.0228  0.8382  1.0712
 5495TIP3    H137976   3.540   5.639   4.996 -1.6079 -0.7725 -1.6452
 5495TIP3    H237977   3.422   5.701   5.068  0.4500 -0.0281  1.3049
 5496TIP3   OH237978   3.824   0.069   1.657  0.5816  0.0575 -0.0644
 5496TIP3    H137979   3.730   0.053   1.666  0.6205  0.5416  1.4055
 5496TIP3    H237980   3.858  -0.012   1.618 -0.6142  0.4085 -1.9899
 5497TIP3   OH237981   4.684   1.154  13.284 -0.2389 -0.2101 -0.5446
 5497TIP3    H137982   4.592   1.144  13.259  0.1216 -0.7980 -1.7333
 5497TIP3    H237983   4.729   1.175  13.202  1.0118 -2.1881 -0.4297
 5498TIP3   OH237984   4.166   1.777  11.946  0.0440  0.3751  0.8211
 5498TIP3    H137985   4.152   1.777  11.851 -0.9721  0.6324  0.9545
 5498TIP3    H237986   4.183   1.869  11.967 -0.4883  0.4368  0.9858
 5499TIP3   OH237987   0.190   5.635  14.186 -0.1307  0.4649 -0.2145
 5499TIP3    H137988   0.169   5.648  14.093 -0.7043 -0.1431 -0.1765
 5499TIP3    H237989   0.138   5.702  14.231  2.2717  2.6732 -0.4922
 5500TIP3   OH237990   0.703   2.503  12.853  0.4165 -0.7044  0.2490
 5500TIP3    H137991   0.707   2.596  12.834 -0.3388 -0.4525  1.2267
 5500TIP3    H237992   0.661   2.498  12.939 -0.8933 -2.0068 -0.4199
 5501TIP3   OH237993   3.626   5.257   5.224 -0.3769 -0.2601 -0.0382
 5501TIP3    H137994   3.645   5.184   5.165  1.7996  0.0996  0.1416
 5501TIP3    H237995   3.669   5.234   5.306  1.1250  1.5382 -0.2388
 5502TIP3   OH237996   5.442   5.091  14.399  0.2359  0.1938  0.2143
 5502TIP3    H137997   5.400   5.082  14.313 -2.5605  0.3407  1.4681
 5502TIP3    H237998   5.477   5.180  14.399 -0.9512  0.6835 -0.3131
 5503TIP3   OH237999   1.166   0.785   4.359  0.1528 -0.2172  0.3499
 5503TIP3    H138000   1.189   0.787   4.452 -0.2823 -0.3185  0.4644
 5503TIP3    H238001   1.102   0.855   4.349 -0.4168 -0.7302  0.3044
 5504TIP3   OH238002   4.475   3.352  16.475 -0.3151  0.2407 -0.3306
 5504TIP3    H138003   4.382   3.338  16.464 -0.7421  2.4273 -0.0500
 5504TIP3    H238004   4.488   3.358  16.570  0.1985 -0.5195 -0.3447
 5505TIP3   OH238005   2.088   5.359   0.737  0.4485 -0.2135  0.4943
 5505TIP3    H138006   2.146   5.308   0.794  1.2334  0.3120  0.1835
 5505TIP3    H238007   2.090   5.311   0.654 -0.2266 -0.6517  0.7244
 5506TIP3   OH238008   6.484   0.876   1.207  0.2567 -0.3084 -0.2089
 5506TIP3    H138009   6.567   0.910   1.240  0.0396  0.7805 -0.7622
 5506TIP3    H238010   6.460   0.934   1.135 -1.7172  0.3097  0.8561
 5507TIP3   OH238011   2.458   0.210   4.688  0.6562 -0.2104 -0.3123
 5507TIP3    H138012   2.502   0.265   4.752 -0.3975 -2.5023  2.5851
 5507TIP3    H238013   2.521   0.201   4.616  3.0003  0.3717  1.5673
 5508TIP3   OH238014   0.932   5.262   5.695 -0.3972  0.2814 -0.2061
 5508TIP3    H138015   1.001   5.322   5.725 -1.6904  0.8399  1.9191
 5508TIP3    H238016   0.964   5.175   5.717  0.5653  0.3312 -1.3224
 5509TIP3   OH238017   2.820   4.848  12.658 -0.4571  0.3746  0.1745
 5509TIP3    H138018   2.907   4.853  12.697 -0.9794  0.4121  1.3546
 5509TIP3    H238019   2.810   4.930  12.610 -0.0700  0.6265  0.5199
 5510TIP3   OH238020   2.798   6.792  14.630  0.2384  0.4916 -0.1274
 5510TIP3    H138021   2.718   6.740  14.641 -0.2968  1.1915 -0.6962
 5510TIP3    H238022   2.797   6.852  14.705  0.9017 -0.3453  0.5782
 5511TIP3   OH238023   0.526   5.014   0.603 -0.2634 -0.1487  0.3708
 5511TIP3    H138024   0.594   5.023   0.536  0.1324 -0.9689  0.6593
 5511TIP3    H238025   0.534   5.094   0.656  0.9458 -0.5645  0.8323
 5512TIP3   OH238026   5.625   3.827  16.210  0.2759 -0.0380  0.1416
 5512TIP3    H138027   5.695   3.871  16.162  0.7978  1.3633  2.0542
 5512TIP3    H238028   5.554   3.892  16.214 -0.0329 -0.3978  0.6346
 5513TIP3   OH238029   1.285   0.227   3.255 -0.4964  0.2489 -0.1919
 5513TIP3    H138030   1.340   0.158   3.218 -0.3200  0.7091 -0.7986
 5513TIP3    H238031   1.347   0.285   3.300 -0.2952  1.5068 -2.0203
 5514TIP3   OH238032   2.630   2.740  16.633 -0.2145 -0.4244  0.0142
 5514TIP3    H138033   2.680   2.782  16.563 -0.7113  0.4640  0.1828
 5514TIP3    H238034   2.694   2.683  16.677  1.3919  2.5023  1.7957
 5515TIP3   OH238035   5.137   6.459   5.116  0.1232 -0.0263  0.8104
 5515TIP3    H138036   5.114   6.441   5.207  0.5760 -1.6052  0.6351
 5515TIP3    H238037   5.158   6.374   5.079  1.0537  0.7283 -0.4720
 5516TIP3   OH238038   1.533   4.733   2.732  0.1010  0.0567  0.5710
 5516TIP3    H138039   1.511   4.764   2.644 -1.5825  1.2503  1.3625
 5516TIP3    H238040   1.587   4.655   2.717 -1.2726 -0.5815 -1.5303
 5517TIP3   OH238041   4.921   4.652  15.987 -0.4327 -0.3853 -0.1383
 5517TIP3    H138042   4.924   4.739  15.946 -3.9428 -0.4016 -0.7422
 5517TIP3    H238043   4.870   4.598  15.926 -1.7190 -1.7545  2.0097
 5518TIP3   OH238044   2.683   1.353  16.983 -0.2330  0.2343 -0.0826
 5518TIP3    H138045   2.684   1.447  16.998  0.5611  0.1269  0.6341
 5518TIP3    H238046   2.636   1.317  17.059 -0.5239  0.0437 -0.3461
 5519TIP3   OH238047   6.355   3.487  13.954 -0.1615 -0.6986 -0.0308
 5519TIP3    H138048   6.264   3.470  13.978  0.1521 -0.1700  1.6220
 5519TIP3    H238049   6.399   3.403  13.966  0.4562  0.0069  3.6860
 5520TIP3   OH238050   3.952   2.027  15.593  0.0626  0.5566 -0.1964
 5520TIP3    H138051   4.019   2.095  15.598 -0.5545  1.1242  0.9557
 5520TIP3    H238052   3.870   2.075  15.579 -0.2169 -0.0531 -0.6800
 5521TIP3   OH238053   3.378   4.908   0.009 -0.0151  0.0936  0.3394
 5521TIP3    H138054   3.467   4.921   0.042  0.7165  0.8067 -1.7493
 5521TIP3    H238055   3.331   4.988   0.034  0.7213  0.9322 -0.8667
 5522TIP3   OH238056   6.818   2.829  17.000  0.3391 -0.6270  0.3296
 5522TIP3    H138057   6.732   2.825  16.958  0.2538 -0.6153  0.5029
 5522TIP3    H238058   6.871   2.883  16.941  0.3358 -0.9460  0.0308
 5523TIP3   OH238059   0.283   0.812   1.431  0.0363  0.4589  0.1468
 5523TIP3    H138060   0.231   0.887   1.457 -1.4958  0.2870 -2.0625
 5523TIP3    H238061   0.275   0.809   1.335 -2.6099 -4.1801  0.1756
 5524TIP3   OH238062   1.318   5.061   2.601  0.9818 -0.2603 -0.4231
 5524TIP3    H138063   1.272   5.009   2.667  0.3811 -0.8903 -1.2965
 5524TIP3    H238064   1.367   5.126   2.650 -1.7273  1.2174  0.5681
 5525TIP3   OH238065   4.691   4.914   1.500  0.1320 -0.0206  0.3346
 5525TIP3    H138066   4.598   4.901   1.480  0.3546 -0.1788 -0.6192
 5525TIP3    H238067   4.736   4.843   1.455  0.5777 -1.0406  2.2842
 5526TIP3   OH238068   3.516   0.542   6.152 -0.1004 -0.0910  0.2080
 5526TIP3    H138069   3.503   0.513   6.242 -1.1997 -1.3454 -0.3264
 5526TIP3    H238070   3.604   0.511   6.128  1.6791  3.1261  1.8546
 5527TIP3   OH238071   2.885   2.554   1.105 -0.1974 -0.2637  0.4826
 5527TIP3    H138072   2.918   2.466   1.123 -1.3862 -1.2629 -1.8481
 5527TIP3    H238073   2.846   2.548   1.018 -1.9149  2.1186  0.9841
 5528TIP3   OH238074   0.773   6.369   5.218 -0.0813 -0.0967 -0.5492
 5528TIP3    H138075   0.753   6.394   5.128  0.5799  0.3785 -0.5681
 5528TIP3    H238076   0.693   6.327   5.250 -1.5434  2.7002 -0.2626
 5529TIP3   OH238077   1.176   0.161   5.456  0.0198 -0.3618  0.1177
 5529TIP3    H138078   1.199   0.096   5.522 -0.3191 -0.9847 -0.3613
 5529TIP3    H238079   1.170   0.111   5.375 -1.1084  0.1118 -0.1086
 5530TIP3   OH238080   2.675   6.822  12.805  0.0315  0.1690  0.5538
 5530TIP3    H138081   2.652   6.766  12.879 -1.6992 -0.6337 -0.5231
 5530TIP3    H238082   2.660   6.767  12.728 -1.7315  2.0633 -0.5503
 5531TIP3   OH238083   4.928   5.573   3.471  0.0388 -0.1404  0.0505
 5531TIP3    H138084   4.864   5.556   3.401 -2.1582 -2.5645  2.4060
 5531TIP3    H238085   4.883   5.633   3.530  1.9119  1.9657 -0.5327
 5532TIP3   OH238086   2.861   2.395   2.570 -0.4004  0.0034  0.1340
 5532TIP3    H138087   2.939   2.451   2.576  0.6568 -1.5556  2.4949
 5532TIP3    H238088   2.873   2.331   2.640 -2.5763 -1.8925 -1.1228
 5533TIP3   OH238089   3.025   5.063  16.083  0.5242 -0.1633  0.0020
 5533TIP3    H138090   3.078   5.088  16.007  1.0891 -0.0144  0.4415
 5533TIP3    H238091   3.073   5.097  16.158 -0.9120  1.2318  0.3428
 5534TIP3   OH238092   0.486   1.509  15.858 -0.3265 -0.3390 -0.6150
 5534TIP3    H138093   0.574   1.516  15.819  0.0670  1.7787  0.5027
 5534TIP3    H238094   0.457   1.600  15.867 -0.9952 -0.7657  2.6012
 5535TIP3   OH238095   4.161   1.275  16.862 -0.7539  0.0510 -0.5619
 5535TIP3    H138096   4.158   1.370  16.854  1.2898  0.2175  0.0979
 5535TIP3    H238097   4.136   1.243  16.775  0.8084  1.2800 -1.5164
 5536TIP3   OH238098   1.403   3.214  13.438 -0.1194  0.1021  0.1282
 5536TIP3    H138099   1.421   3.158  13.513 -0.6474 -1.1257 -0.6282
 5536TIP3    H238100   1.315   3.248  13.454  0.8676  2.2374  1.4709
 5537TIP3   OH238101   4.246   2.346   2.010  0.1520  0.9879  0.0980
 5537TIP3    H138102   4.260   2.295   1.930  1.4263 -0.0227  0.9197
 5537TIP3    H238103   4.298   2.301   2.077  0.1141  2.5063  1.2169
 5538TIP3   OH238104   1.702   4.163   4.770  0.1206 -0.3711  0.0851
 5538TIP3    H138105   1.643   4.230   4.737  0.8210  0.2987  0.1796
 5538TIP3    H238106   1.785   4.208   4.784  0.3045 -1.0089  1.1680
 5539TIP3   OH238107   2.351   1.369   1.840 -0.0240  0.0828  0.8025
 5539TIP3    H138108   2.294   1.430   1.793  0.3443  0.0939  0.3671
 5539TIP3    H238109   2.312   1.363   1.928 -0.8660 -0.1288  0.4329
 5540TIP3   OH238110   2.808   4.790   4.550  0.1387 -0.1951 -0.0763
 5540TIP3    H138111   2.794   4.867   4.494 -1.0271  1.2746  2.0905
 5540TIP3    H238112   2.870   4.819   4.616 -0.7762 -0.8953  1.1356
 5541TIP3   OH238113   0.101   3.991   3.460 -0.2402 -0.4918  0.2412
 5541TIP3    H138114   0.179   3.956   3.417 -0.6883 -0.1642 -0.8782
 5541TIP3    H238115   0.124   4.082   3.481 -0.7256  0.0035 -1.2389
 5542TIP3   OH238116   3.963   2.904   4.852  0.2171 -0.1664 -0.6018
 5542TIP3    H138117   3.900   2.832   4.860 -0.4454  0.3882 -0.6550
 5542TIP3    H238118   4.030   2.871   4.792 -0.7816 -0.2766 -1.7158
 5543TIP3   OH238119   3.807   2.282   3.534 -0.1950 -0.6944  0.4345
 5543TIP3    H138120   3.752   2.254   3.607 -0.6919 -1.7610 -0.3194
 5543TIP3    H238121   3.837   2.369   3.558  1.6195 -1.9003  3.0621
 5544TIP3   OH238122   2.319   0.603   2.079 -0.2264 -0.1507 -0.0788
 5544TIP3    H138123   2.251   0.536   2.082 -0.0920 -0.2842 -0.0405
 5544TIP3    H238124   2.351   0.609   2.169  0.8522 -1.1472 -0.3810
 5545TIP3   OH238125   6.542   3.625   4.455  0.5437 -0.3018 -0.0523
 5545TIP3    H138126   6.560   3.533   4.471 -1.2820 -0.4520  1.5265
 5545TIP3    H238127   6.623   3.671   4.480  0.4638 -1.2531  2.1985
 5546TIP3   OH238128   6.242   1.051  12.707 -0.4273 -0.2172  0.5835
 5546TIP3    H138129   6.175   1.087  12.650  1.1288  0.4462 -0.9104
 5546TIP3    H238130   6.304   1.123  12.720 -0.8103 -0.2670  3.3488
 5547TIP3   OH238131   4.172   6.375   5.621 -0.3513 -0.0639  0.2614
 5547TIP3    H138132   4.192   6.400   5.711 -1.1783  1.0986  0.1457
 5547TIP3    H238133   4.239   6.420   5.569  1.2206 -2.1256  0.3691
 5548TIP3   OH238134   5.823   4.351   3.934 -0.9014  0.7558 -0.2799
 5548TIP3    H138135   5.755   4.285   3.944  1.6210 -2.1092 -0.5927
 5548TIP3    H238136   5.849   4.373   4.024  1.1812 -2.1501 -0.0257
 5549TIP3   OH238137   2.802   1.454   5.645  0.4041 -0.0890  0.4566
 5549TIP3    H138138   2.865   1.400   5.694  0.1052 -0.0856  0.8530
 5549TIP3    H238139   2.797   1.536   5.695  0.3411  0.0418  0.2364
 5550TIP3   OH238140   2.359   1.589  16.778 -0.0745 -1.4657  0.1558
 5550TIP3    H138141   2.382   1.672  16.736 -2.8229 -0.3893  0.5634
 5550TIP3    H238142   2.441   1.539  16.777  1.5885  1.0285 -0.5329
 5551TIP3   OH238143   5.759   3.936   1.504  0.1528  0.2265  0.5433
 5551TIP3    H138144   5.717   4.022   1.499 -2.8795 -1.1776 -1.1396
 5551TIP3    H238145   5.832   3.941   1.443 -0.7423  1.2625 -0.4797
 5552TIP3   OH238146   2.431   3.184  14.873  0.2332 -0.1684 -0.0730
 5552TIP3    H138147   2.467   3.267  14.842 -0.5845  0.4658  0.6172
 5552TIP3    H238148   2.375   3.208  14.947 -1.3191 -1.1274 -0.8730
 5553TIP3   OH238149   0.930   6.330   1.788 -0.3506  0.0839  0.5499
 5553TIP3    H138150   0.942   6.238   1.764 -0.4530  0.6414 -1.9636
 5553TIP3    H238151   1.019   6.366   1.790 -0.4068  0.2963 -0.2764
 5554TIP3   OH238152   1.268   4.289  12.756 -0.2710  0.3249 -0.1444
 5554TIP3    H138153   1.310   4.255  12.835 -0.6572 -0.5983 -0.3189
 5554TIP3    H238154   1.289   4.225  12.688 -1.3734  0.1930 -0.3904
 5555TIP3   OH238155   4.780   2.972  15.210  0.2555 -0.2661 -0.1563
 5555TIP3    H138156   4.780   2.897  15.269  1.1742  0.0582  0.2775
 5555TIP3    H238157   4.873   2.993  15.198  0.0275  0.4885 -0.6685
 5556TIP3   OH238158   6.229   1.088   2.922 -0.0320 -0.3098 -0.3804
 5556TIP3    H138159   6.158   1.130   2.970 -0.1575  0.8105 -1.4874
 5556TIP3    H238160   6.227   0.996   2.951 -0.8227  0.0754  0.8589
 5557TIP3   OH238161   4.382   3.901  13.560 -0.4389 -0.4564  0.2699
 5557TIP3    H138162   4.300   3.946  13.543 -0.3055 -0.5190 -0.5836
 5557TIP3    H238163   4.356   3.812  13.583 -0.5993 -0.6199 -0.5048
 5558TIP3   OH238164   6.716   4.265  12.741 -0.6058  0.1407 -0.0670
 5558TIP3    H138165   6.793   4.218  12.772 -0.3499  0.6015  0.0036
 5558TIP3    H238166   6.642   4.209  12.766 -0.2222 -1.1337 -1.6198
 5559TIP3   OH238167   6.123   5.749  13.268  0.4388  0.2726  0.3560
 5559TIP3    H138168   6.135   5.778  13.358 -0.5174  1.3094  0.1705
 5559TIP3    H238169   6.041   5.789  13.240  0.3847 -0.5502 -0.7758
 5560TIP3   OH238170   5.514   4.238  13.203 -0.1293 -0.2654 -0.1400
 5560TIP3    H138171   5.428   4.265  13.235 -0.5088 -0.2428 -1.1303
 5560TIP3    H238172   5.569   4.316  13.212  0.1332 -0.6122  1.5967
 5561TIP3   OH238173   3.308   0.282   5.740  0.2402  0.4322 -0.0902
 5561TIP3    H138174   3.316   0.296   5.834  0.6725  1.3981 -0.2553
 5561TIP3    H238175   3.220   0.246   5.728  0.3940 -0.2433  0.7290
 5562TIP3   OH238176   2.046   5.504  12.359 -0.3154 -0.0682 -0.3474
 5562TIP3    H138177   1.992   5.540  12.429 -0.6721 -0.9986 -0.1273
 5562TIP3    H238178   2.103   5.440  12.403 -1.4409 -1.6210 -1.0678
 5563TIP3   OH238179   0.123   1.200  10.463  0.0552 -0.0662 -0.0590
 5563TIP3    H138180   0.181   1.274  10.483  1.2085 -1.4335  2.0412
 5563TIP3    H238181   0.170   1.151  10.395  0.1251  0.2050 -0.2085
 5564TIP3   OH238182   1.683   1.761   0.426 -0.1651 -0.2960 -0.6286
 5564TIP3    H138183   1.718   1.688   0.477  2.2046  2.2506  1.7493
 5564TIP3    H238184   1.591   1.768   0.453  0.1275 -1.1406  0.6568
 5565TIP3   OH238185   1.612   4.970   4.003  0.0009  0.4064  0.0329
 5565TIP3    H138186   1.704   4.954   4.024 -0.0177  0.5745  0.2423
 5565TIP3    H238187   1.568   4.888   4.026 -0.0531  0.6601  0.8631
 5566TIP3   OH238188   6.041   1.054  11.833  0.5156 -0.3767  0.4233
 5566TIP3    H138189   6.006   1.081  11.918  1.2732  1.4173  0.1944
 5566TIP3    H238190   6.045   1.134  11.782 -0.4739 -1.5084 -1.5445
 5567TIP3   OH238191   1.951   0.295  13.646 -0.1032 -0.2997 -0.2731
 5567TIP3    H138192   1.865   0.312  13.685 -0.9742 -2.5938 -1.0224
 5567TIP3    H238193   1.987   0.222  13.697  1.3760  0.5519 -0.0462
 5568TIP3   OH238194   1.851   1.002   1.363  0.2033 -0.2596 -0.6094
 5568TIP3    H138195   1.773   0.946   1.365  0.7172 -1.0098 -0.8257
 5568TIP3    H238196   1.840   1.062   1.436 -0.3436 -0.6794 -0.3385
 5569TIP3   OH238197   1.575   4.444   3.040 -0.0702 -0.7985 -0.0189
 5569TIP3    H138198   1.519   4.521   3.043  0.7133 -0.2047 -0.4825
 5569TIP3    H238199   1.533   4.386   2.976 -0.0327 -0.2568 -0.5431
 5570TIP3   OH238200   1.882   1.740   2.706  0.3381  0.5658  0.5000
 5570TIP3    H138201   1.825   1.785   2.768 -1.2247 -1.1631  0.4046
 5570TIP3    H238202   1.968   1.739   2.749 -1.0463 -2.2195  3.7123
 5571TIP3   OH238203   3.082   5.870   3.150 -0.0655  0.3846 -0.2565
 5571TIP3    H138204   3.074   5.806   3.080 -0.1166  1.1836 -0.9981
 5571TIP3    H238205   3.103   5.952   3.105 -2.5755  1.4865  0.4017
 5572TIP3   OH238206   1.309   5.822  13.460 -0.2967 -0.2712 -0.1920
 5572TIP3    H138207   1.290   5.754  13.396  0.5612 -1.3746  0.6790
 5572TIP3    H238208   1.231   5.878  13.460 -1.2943 -1.6098 -0.4653
 5573TIP3   OH238209   2.821   3.113   1.143  0.0175  0.5812  0.2388
 5573TIP3    H138210   2.839   3.199   1.181 -1.6341  0.3164  1.7996
 5573TIP3    H238211   2.818   3.054   1.219 -3.8780  0.0891 -0.0825
 5574TIP3   OH238212   5.210   4.265  16.796 -0.2504  1.0075  0.1442
 5574TIP3    H138213   5.270   4.339  16.804  0.1279  0.5797  1.6970
 5574TIP3    H238214   5.244   4.201  16.858 -0.1049 -0.8182 -1.7214
 5575TIP3   OH238215   1.899   4.357   4.202 -0.7685 -0.6314 -0.0254
 5575TIP3    H138216   1.821   4.381   4.152 -1.2461 -1.7524  0.1457
 5575TIP3    H238217   1.899   4.416   4.277 -0.3434  0.6998 -1.0435
 5576TIP3   OH238218   3.765   1.628  11.809 -0.0237 -0.1872  0.5397
 5576TIP3    H138219   3.831   1.564  11.786 -1.0106 -0.2754 -2.5371
 5576TIP3    H238220   3.815   1.707  11.832  1.1406 -0.7789  0.1047
 5577TIP3   OH238221   2.591   2.336  12.728 -0.3629 -0.1045 -0.3472
 5577TIP3    H138222   2.566   2.252  12.768  0.9137 -0.7558 -0.8810
 5577TIP3    H238223   2.649   2.312  12.656 -0.5816  1.2144 -0.9823
 5578TIP3   OH238224   0.014   1.429  13.398 -0.2035  0.7256 -0.4435
 5578TIP3    H138225   0.081   1.404  13.334 -1.9706 -0.4186 -1.9690
 5578TIP3    H238226  -0.004   1.350  13.448 -0.0805  1.1535  0.2994
 5579TIP3   OH238227   4.045   2.231  12.594  0.1506 -0.3237 -0.2782
 5579TIP3    H138228   4.053   2.136  12.590 -0.7572 -0.4293 -0.0061
 5579TIP3    H238229   4.034   2.258  12.503  0.2610 -0.5011 -0.3441
 5580TIP3   OH238230   2.797   0.841   6.147  0.2262  0.7004  0.1911
 5580TIP3    H138231   2.780   0.771   6.084 -0.8057  0.5581  0.6009
 5580TIP3    H238232   2.857   0.802   6.211 -1.2564 -0.2294  1.0724
 5581TIP3   OH238233   5.263   2.892  14.078 -0.0940  0.2537 -0.3390
 5581TIP3    H138234   5.188   2.894  14.138  0.4827  0.4971  0.3735
 5581TIP3    H238235   5.242   2.957  14.011  0.9857  2.8068  1.6755
 5582TIP3   OH238236   5.999   5.050   4.036  0.3791 -0.3609  0.1233
 5582TIP3    H138237   5.952   5.099   3.970  2.5924  0.0276 -1.2875
 5582TIP3    H238238   6.040   4.977   3.989  0.2619 -1.3590  1.4739
 5583TIP3   OH238239   3.056   2.353  11.538  0.3808  0.5396 -0.1189
 5583TIP3    H138240   3.038   2.444  11.514 -1.5401 -0.0215 -1.0739
 5583TIP3    H238241   3.121   2.324  11.474 -0.1311  0.8221 -0.7808
 5584TIP3   OH238242   5.368   4.157   1.425 -0.5540  0.1052 -0.5051
 5584TIP3    H138243   5.412   4.155   1.340  0.4669 -0.2303  0.0027
 5584TIP3    H238244   5.322   4.074   1.430  0.5385 -0.4972 -0.1657
 5585TIP3   OH238245   1.698   2.470   2.704 -0.0251 -0.1205  0.1120
 5585TIP3    H138246   1.712   2.391   2.756 -2.1243 -0.9060 -0.4016
 5585TIP3    H238247   1.780   2.483   2.656  0.9069 -1.0499  1.3773
 5586TIP3   OH238248   4.109   0.071  14.415  0.1444 -0.9578  0.1505
 5586TIP3    H138249   4.190   0.042  14.456 -0.6605 -0.8838  1.8692
 5586TIP3    H238250   4.040   0.039  14.473 -1.0331 -0.4333 -0.9121
 5587TIP3   OH238251   3.666   5.093  17.204 -0.7105  0.1843 -0.4631
 5587TIP3    H138252   3.584   5.105  17.156 -0.7507  2.6560  0.1363
 5587TIP3    H238253   3.655   5.144  17.284  1.9816  1.9401 -1.1012
 5588TIP3   OH238254   3.509   2.968  13.149 -0.1436  0.1421  0.6101
 5588TIP3    H138255   3.433   2.970  13.091  1.2174 -0.1298 -1.3020
 5588TIP3    H238256   3.530   3.060  13.165  1.3863  0.3662 -2.1179
 5589TIP3   OH238257   5.194   1.228  17.124 -0.2558  0.9672 -0.2079
 5589TIP3    H138258   5.270   1.268  17.167  0.5059  0.5875 -1.1701
 5589TIP3    H238259   5.227   1.144  17.092 -1.5337  0.0348  0.8275
 5590TIP3   OH238260   4.757   2.711   2.428 -0.6047 -0.0839  0.3688
 5590TIP3    H138261   4.852   2.716   2.440 -0.6164 -0.0431  0.4476
 5590TIP3    H238262   4.725   2.667   2.507 -0.9047  2.0496  1.5425
 5591TIP3   OH238263   4.018   4.856  13.039  0.2341 -0.0659  0.3436
 5591TIP3    H138264   4.099   4.826  13.082  0.5942  0.9287  0.3654
 5591TIP3    H238265   4.034   4.947  13.017 -0.5652 -0.1036 -0.4535
 5592TIP3   OH238266   2.491   1.076   6.408  0.2508  0.0581  0.5562
 5592TIP3    H138267   2.578   1.102   6.377 -0.6368  0.6479 -1.6122
 5592TIP3    H238268   2.456   1.155   6.449  0.2148  0.2507  0.1635
 5593TIP3   OH238269   4.971   3.614  13.327  0.2933  0.1773  0.1460
 5593TIP3    H138270   4.934   3.675  13.263 -0.8501  1.7652  2.2046
 5593TIP3    H238271   5.051   3.657  13.358  0.9974 -0.7147 -0.3980
 5594TIP3   OH238272   2.362   6.341   2.642  0.0604 -0.0013  0.2490
 5594TIP3    H138273   2.446   6.329   2.598 -1.1900 -1.9158 -1.8568
 5594TIP3    H238274   2.298   6.306   2.581 -2.1916  0.4190  2.2198
 5595TIP3   OH238275   4.858   2.385  10.778  0.2938  0.0468 -0.2235
 5595TIP3    H138276   4.909   2.465  10.766  1.3935 -0.8028 -1.3594
 5595TIP3    H238277   4.836   2.356  10.690  0.4391 -1.2450  0.1358
 5596TIP3   OH238278   1.877   1.861  11.478  0.3282  0.2552 -0.6057
 5596TIP3    H138279   1.786   1.843  11.503 -0.0599  0.5389 -1.7503
 5596TIP3    H238280   1.875   1.949  11.441  1.0079  0.1536 -0.8999
 5597TIP3   OH238281   3.229   5.748   0.777 -0.3587  0.0539 -0.0696
 5597TIP3    H138282   3.251   5.684   0.845  0.0655 -0.0971 -0.3470
 5597TIP3    H238283   3.311   5.794   0.760 -0.6643  0.6900  0.1409
 5598TIP3   OH238284   6.444   1.812   1.903 -0.2610 -0.5620  0.1626
 5598TIP3    H138285   6.380   1.876   1.935 -0.1536  0.9279 -2.2877
 5598TIP3    H238286   6.501   1.863   1.845  0.8248 -2.6003 -0.6614
 5599TIP3   OH238287   0.155   4.921  13.158 -0.4026  0.4444  0.1039
 5599TIP3    H138288   0.235   4.973  13.164 -1.0097  1.5112 -0.6135
 5599TIP3    H238289   0.123   4.937  13.070 -1.7487  0.5550  0.5906
 5600TIP3   OH238290   3.653   6.267   4.021 -0.0038  0.2417 -0.4366
 5600TIP3    H138291   3.725   6.297   3.965  1.6021  0.4435  1.5922
 5600TIP3    H238292   3.643   6.175   4.000  0.7755  0.2421 -0.8617
 5601TIP3   OH238293   5.888   1.866   5.849 -0.3781 -0.2100  0.3820
 5601TIP3    H138294   5.872   1.855   5.755  1.4308 -2.4588  0.2522
 5601TIP3    H238295   5.858   1.955   5.868 -4.0870 -0.8646 -1.5335
 5602TIP3   OH238296   5.864   5.554  14.967 -0.4891 -0.1002 -0.2961
 5602TIP3    H138297   5.863   5.649  14.958 -0.1183  0.1647  1.9325
 5602TIP3    H238298   5.772   5.530  14.984 -0.2863  0.1778  1.4061
 5603TIP3   OH238299   0.631   3.218   3.154  0.4409 -0.1167 -0.2598
 5603TIP3    H138300   0.643   3.131   3.115  1.2091  0.3220 -1.0297
 5603TIP3    H238301   0.720   3.252   3.165  0.1167  0.9630 -0.8732
 5604TIP3   OH238302   5.402   1.691  14.968  0.0628  0.5324  0.5353
 5604TIP3    H138303   5.446   1.734  14.895 -1.0632  1.9804  0.6641
 5604TIP3    H238304   5.471   1.678  15.033  1.4099 -2.0864 -1.2430
 5605TIP3   OH238305   4.249   4.386   4.880 -0.0506 -0.7046  0.4601
 5605TIP3    H138306   4.255   4.322   4.810  2.9473 -1.2299  1.0389
 5605TIP3    H238307   4.262   4.470   4.836 -0.1475 -0.8474  0.1530
 5606TIP3   OH238308   3.520   4.531  12.886  0.4362 -0.0833  0.3657
 5606TIP3    H138309   3.517   4.615  12.840  2.0594 -0.0012  0.3519
 5606TIP3    H238310   3.466   4.545  12.964  0.1606  0.7704  0.0364
 5607TIP3   OH238311   0.873   0.106  13.700  0.5516 -0.1258  0.5370
 5607TIP3    H138312   0.795   0.141  13.657 -0.7162 -3.5509 -0.2585
 5607TIP3    H238313   0.933   0.086  13.627  0.5772 -1.0415  0.8006
 5608TIP3   OH238314   0.731   1.088   4.529 -0.4926 -0.3103  0.0452
 5608TIP3    H138315   0.679   1.074   4.450  1.1579  0.7103 -1.3044
 5608TIP3    H238316   0.730   1.183   4.542  0.2581 -0.3515  0.5033
 5609TIP3   OH238317   5.171   2.125   1.417  0.0757 -0.0168  0.1742
 5609TIP3    H138318   5.181   2.033   1.440  1.8276 -0.3094 -1.5169
 5609TIP3    H238319   5.081   2.133   1.386 -0.1339 -1.1165  0.4797
 5610TIP3   OH238320   1.105   3.055  11.867 -0.0593 -0.4039  0.5217
 5610TIP3    H138321   1.136   3.061  11.777  1.1182 -0.0277  0.9327
 5610TIP3    H238322   1.069   2.967  11.874  0.1579 -0.5596 -0.2172
 5611TIP3   OH238323   2.077   0.689  11.266 -0.0435  0.3603 -0.2269
 5611TIP3    H138324   2.160   0.736  11.271  0.4721 -0.5555 -0.0389
 5611TIP3    H238325   2.027   0.736  11.199  1.7934 -0.8700 -2.6362
 5612TIP3   OH238326   5.787   1.875  13.834 -0.6036 -0.1517 -0.0018
 5612TIP3    H138327   5.805   1.798  13.781 -0.5612 -0.0979 -0.0660
 5612TIP3    H238328   5.862   1.882  13.893 -0.4119  0.0745 -0.2710
 5613TIP3   OH238329   0.427   1.413  15.299 -0.1225 -0.5715  0.1063
 5613TIP3    H138330   0.520   1.390  15.300 -0.2075 -1.0025 -0.7819
 5613TIP3    H238331   0.400   1.408  15.391  0.5905 -1.0342  0.3012
 5614TIP3   OH238332   2.281   5.825  16.566  0.3148  0.6967  0.4583
 5614TIP3    H138333   2.268   5.857  16.655 -0.9594  0.7908  0.2651
 5614TIP3    H238334   2.347   5.756  16.574  0.4731  0.9486  1.4169
 5615TIP3   OH238335   3.969   2.296   4.381 -0.1734 -0.3221 -0.6154
 5615TIP3    H138336   4.000   2.218   4.335  1.0143 -0.9738  1.1667
 5615TIP3    H238337   4.047   2.350   4.392 -0.9714  1.1258 -1.7706
 5616TIP3   OH238338   5.402   5.689   4.166 -0.3158 -0.2330  0.9919
 5616TIP3    H138339   5.409   5.748   4.241  0.0641  0.3011  0.5471
 5616TIP3    H238340   5.470   5.720   4.105  0.4017 -1.5904  1.0579
 5617TIP3   OH238341   3.493   5.652   6.413 -0.4031 -0.1278 -0.2059
 5617TIP3    H138342   3.498   5.615   6.325 -1.0437  0.6006 -0.5660
 5617TIP3    H238343   3.447   5.736   6.401  0.9206  0.7448  0.5775
 5618TIP3   OH238344   6.627   0.605   2.468 -0.0645  0.5332 -0.2526
 5618TIP3    H138345   6.550   0.630   2.518 -0.1201 -0.6394  0.2693
 5618TIP3    H238346   6.654   0.686   2.424 -0.9478  1.2052  0.4060
 5619TIP3   OH238347   0.845   2.699   4.566 -0.6278  0.8257  0.1971
 5619TIP3    H138348   0.814   2.749   4.490  0.8501  1.2318 -0.1554
 5619TIP3    H238349   0.936   2.725   4.577 -0.5169 -0.0222  1.4796
 5620TIP3   OH238350   5.192   2.835  11.342  0.5379  0.1277 -0.4251
 5620TIP3    H138351   5.188   2.892  11.266  0.9431 -0.6121 -1.0128
 5620TIP3    H238352   5.102   2.807  11.356  0.7754 -1.7463 -2.2118
 5621TIP3   OH238353   1.285   3.760   2.446  0.2625  0.0245  0.5242
 5621TIP3    H138354   1.379   3.748   2.433  0.1155  0.9456 -1.9273
 5621TIP3    H238355   1.249   3.671   2.442  0.7077 -0.1296 -2.3866
 5622TIP3   OH238356   2.481   6.444   0.171  0.1321  0.2465 -0.4852
 5622TIP3    H138357   2.417   6.424   0.102  0.3960  0.1878 -0.7149
 5622TIP3    H238358   2.493   6.361   0.216 -0.4083  0.3964 -0.0543
 5623TIP3   OH238359   0.307   2.623  12.304  0.0779 -0.1867 -0.4226
 5623TIP3    H138360   0.400   2.644  12.311  0.5011 -1.5634 -1.5472
 5623TIP3    H238361   0.272   2.685  12.240  1.1289 -2.1492 -3.0658
 5624TIP3   OH238362   4.129   4.884   1.596 -0.0755  0.4037  0.3462
 5624TIP3    H138363   4.113   4.974   1.568 -2.1391  0.2183  0.7975
 5624TIP3    H238364   4.130   4.889   1.692 -0.2217 -0.0700  0.3740
 5625TIP3   OH238365   6.573   4.874  14.300  0.4240  0.2678  0.1613
 5625TIP3    H138366   6.561   4.947  14.239 -0.6198 -0.0869 -0.0758
 5625TIP3    H238367   6.522   4.802  14.262  0.8622 -0.3717  0.7574
 5626TIP3   OH238368   1.489   4.124   2.128 -0.1624  0.3361 -0.2824
 5626TIP3    H138369   1.423   4.191   2.107  0.2472  1.4037  1.5935
 5626TIP3    H238370   1.441   4.059   2.179 -0.7654 -1.3696 -2.8261
 5627TIP3   OH238371   0.428   6.814   1.445  0.2612 -0.4530 -0.3138
 5627TIP3    H138372   0.363   6.749   1.472  1.0443 -1.5276 -0.9054
 5627TIP3    H238373   0.498   6.807   1.510  0.8192 -0.9787 -0.9417
 5628TIP3   OH238374   3.419   3.234   5.781 -0.2952 -0.5239 -0.5257
 5628TIP3    H138375   3.477   3.175   5.830 -0.7491 -2.0357 -1.7411
 5628TIP3    H238376   3.339   3.238   5.833  0.8501  1.7139  1.2578
 5629TIP3   OH238377   0.002   6.164  13.071  0.0486 -0.5860  0.4550
 5629TIP3    H138378   0.046   6.242  13.105 -0.3454  0.0048 -0.3521
 5629TIP3    H238379   0.049   6.142  12.991 -2.2408  1.2576 -1.5616
 5630TIP3   OH238380   2.248   2.168  11.775 -0.2976 -0.2389 -0.6247
 5630TIP3    H138381   2.317   2.175  11.708  1.1279  0.2053  0.8339
 5630TIP3    H238382   2.294   2.175  11.858 -2.4219  3.5306  0.4535
 5631TIP3   OH238383   5.606   6.798  16.858  0.0922  0.2950 -0.0785
 5631TIP3    H138384   5.603   6.710  16.822 -0.7646  0.5401 -0.6118
 5631TIP3    H238385   5.699   6.814  16.875  0.3934 -0.2023 -1.2223
 5632TIP3   OH238386   5.253   4.387   2.183  0.1693 -0.1621 -0.5746
 5632TIP3    H138387   5.304   4.467   2.197  1.0626 -0.4576 -1.9554
 5632TIP3    H238388   5.293   4.346   2.106 -1.4383 -0.9990 -1.0070
 5633TIP3   OH238389   2.688   2.982  15.268  0.5702 -1.1941 -0.2003
 5633TIP3    H138390   2.652   2.949  15.350  0.0829  0.5368  0.3200
 5633TIP3    H238391   2.781   2.998  15.287  0.0971  0.9205  0.6416
 5634TIP3   OH238392   6.170   5.784  12.251  0.3296  0.1567  0.5358
 5634TIP3    H138393   6.113   5.811  12.324  1.3435  0.7934  1.1146
 5634TIP3    H238394   6.110   5.770  12.178 -0.4407  2.4346  0.6567
 5635TIP3   OH238395   4.965   2.519   1.179  1.0546 -0.0580  0.7469
 5635TIP3    H138396   4.941   2.496   1.269  1.3050  1.3528  1.1991
 5635TIP3    H238397   4.885   2.560   1.143  1.4287  0.7982  0.8606
 5636TIP3   OH238398   0.357   4.509  13.781 -0.5167  0.1638  0.8884
 5636TIP3    H138399   0.344   4.495  13.687  0.0717  0.1612  0.8080
 5636TIP3    H238400   0.413   4.586  13.786 -2.8687  1.9704  1.3076
 5637TIP3   OH238401   5.067   5.547  15.083 -0.4958 -0.2200  0.2044
 5637TIP3    H138402   5.059   5.472  15.143  3.6460 -0.7645  0.3492
 5637TIP3    H238403   5.039   5.513  14.998 -0.8319 -1.2113  0.6949
 5638TIP3   OH238404   6.382   0.575  10.867 -0.2381  0.8860 -0.2497
 5638TIP3    H138405   6.406   0.487  10.838  1.7204  1.8533 -1.8171
 5638TIP3    H238406   6.384   0.628  10.787  0.1074  2.6343  0.8638
 5639TIP3   OH238407   3.659   2.171  15.887  0.3000  0.3093  0.3509
 5639TIP3    H138408   3.701   2.257  15.877 -1.1451  1.0441  0.2797
 5639TIP3    H238409   3.585   2.173  15.826  1.0402 -1.5520 -0.6805
 5640TIP3   OH238410   6.175   2.714  13.791 -0.4257  0.3754  0.2124
 5640TIP3    H138411   6.113   2.770  13.744 -0.5899  0.7126  0.8254
 5640TIP3    H238412   6.231   2.774  13.839  0.5051  0.0816 -0.4759
 5641TIP3   OH238413   4.975   0.242   1.651  0.0086 -0.3947 -0.0127
 5641TIP3    H138414   4.894   0.275   1.613  0.7199 -0.0729 -1.2766
 5641TIP3    H238415   4.945   0.185   1.722 -1.3266 -0.3358 -0.4853
 5642TIP3   OH238416   6.566   3.802   2.355 -0.2860 -0.2245  0.1620
 5642TIP3    H138417   6.564   3.887   2.310  0.1878 -0.9373 -1.2344
 5642TIP3    H238418   6.480   3.763   2.337  0.7253 -1.5562 -2.2934
 5643TIP3   OH238419   2.835   0.503  13.211  0.3511 -0.2326 -0.4395
 5643TIP3    H138420   2.914   0.451  13.226  1.0242  0.4079 -1.6144
 5643TIP3    H238421   2.830   0.511  13.116 -0.3215  0.9689 -0.3113
 5644TIP3   OH238422   6.669   6.075  13.906 -1.0419 -0.5307  0.2885
 5644TIP3    H138423   6.673   5.979  13.912  0.2039 -0.6697 -1.7755
 5644TIP3    H238424   6.759   6.103  13.922 -1.7689  0.5321  3.0203
 5645TIP3   OH238425   4.042   3.859   6.343 -0.4173 -0.0055  0.0070
 5645TIP3    H138426   3.986   3.927   6.304 -0.3733 -0.8262 -1.6014
 5645TIP3    H238427   3.993   3.778   6.330  0.2384 -0.4847  0.4535
 5646TIP3   OH238428   3.155   5.947  14.490 -0.1807 -0.2187  0.6355
 5646TIP3    H138429   3.063   5.941  14.465 -0.3320  2.4075  0.2626
 5646TIP3    H238430   3.202   5.916  14.412 -0.7143 -1.0445  0.6235
 5647TIP3   OH238431   2.690   6.226  13.251  0.1169 -0.0030  0.0690
 5647TIP3    H138432   2.773   6.219  13.203 -0.6842  1.1802 -1.5556
 5647TIP3    H238433   2.626   6.251  13.185 -1.4986 -0.5779  1.3598
 5648TIP3   OH238434   5.729   3.253  10.514 -0.5193 -0.7782  0.0133
 5648TIP3    H138435   5.772   3.186  10.566  0.3660 -0.2024  0.0451
 5648TIP3    H238436   5.753   3.232  10.424 -3.2479 -2.6582 -0.4203
 5649TIP3   OH238437   3.688   1.263  11.843 -0.1115 -0.0444  0.1725
 5649TIP3    H138438   3.654   1.337  11.892 -0.3219 -1.0698  1.6153
 5649TIP3    H238439   3.612   1.228  11.797 -0.2362 -0.0437  0.3763
 5650TIP3   OH238440   5.118   6.090   3.268  0.2563 -0.3267  0.1966
 5650TIP3    H138441   5.147   6.108   3.357 -0.7669 -1.6659  0.8433
 5650TIP3    H238442   5.076   6.172   3.240  0.7306  0.1634  0.8793
 5651TIP3   OH238443   4.529   1.905  14.989 -0.6565  0.1441 -0.2648
 5651TIP3    H138444   4.531   1.823  14.939 -0.7281  0.4697 -0.7979
 5651TIP3    H238445   4.496   1.970  14.928 -0.7966  0.5334  0.2234
 5652TIP3   OH238446   2.203   0.471  16.653  0.3564  0.2175 -0.4310
 5652TIP3    H138447   2.188   0.433  16.566  1.9178  1.1965 -1.1812
 5652TIP3    H238448   2.156   0.554  16.651 -1.3969 -0.7026  0.4842
 5653TIP3   OH238449   5.639   5.686  13.498 -0.0190  0.3372  0.1273
 5653TIP3    H138450   5.637   5.604  13.549 -0.5221 -0.3103 -0.8823
 5653TIP3    H238451   5.615   5.754  13.561  0.3015 -0.3091  0.9679
 5654TIP3   OH238452   6.050   6.058  16.071  0.4467  0.0457  0.0923
 5654TIP3    H138453   6.016   6.131  16.021  1.0073  0.3706  0.1748
 5654TIP3    H238454   6.145   6.059  16.054  0.4828 -0.5558  0.2245
 5655TIP3   OH238455   5.623   2.521  15.820 -0.1269 -0.3335 -0.6006
 5655TIP3    H138456   5.595   2.493  15.907 -0.2887  0.2142 -0.4728
 5655TIP3    H238457   5.613   2.444  15.765  0.0028 -0.6909 -0.1267
 5656TIP3   OH238458   1.294   5.257  14.763 -0.2468  0.3765 -0.3614
 5656TIP3    H138459   1.202   5.249  14.790  0.5648  0.1861  2.7100
 5656TIP3    H238460   1.323   5.167  14.751 -0.2464  0.4039 -0.5709
 5657TIP3   OH238461   1.059   5.560   4.053 -0.1378 -0.6447 -0.0737
 5657TIP3    H138462   1.076   5.633   3.994  0.3781 -1.0686 -0.4542
 5657TIP3    H238463   0.990   5.510   4.011  1.1387 -1.6872 -1.0009
 5658TIP3   OH238464   6.411   0.118  10.551  0.3217  0.1536  0.1917
 5658TIP3    H138465   6.393   0.193  10.608 -0.7174  0.5175 -0.5980
 5658TIP3    H238466   6.328   0.100  10.507  0.9513 -0.5048 -0.7653
 5659TIP3   OH238467   1.453   1.385   6.019  0.3060 -0.2611  0.2416
 5659TIP3    H138468   1.425   1.476   6.006  0.6533 -0.3253 -1.0551
 5659TIP3    H238469   1.374   1.338   6.044  0.0023  0.2675  0.2830
 5660TIP3   OH238470   1.884   0.340   6.506  0.1977  0.3105 -0.5177
 5660TIP3    H138471   1.835   0.348   6.588  1.5094  0.6602  0.2714
 5660TIP3    H238472   1.850   0.260   6.466 -1.3100  0.7828 -0.2310
 5661TIP3   OH238473   6.091   3.877  12.408 -0.2381  0.0111  0.5089
 5661TIP3    H138474   6.161   3.943  12.410  0.0104 -0.2354  3.5204
 5661TIP3    H238475   6.105   3.831  12.325  1.7458  1.4530 -0.0431
 5662TIP3   OH238476   1.972   1.752  15.790 -0.3193  0.0131  0.2572
 5662TIP3    H138477   2.038   1.822  15.791 -1.5102  1.2006 -0.8408
 5662TIP3    H238478   2.002   1.692  15.722 -0.4507  0.6495 -0.3743
 5663TIP3   OH238479   3.930   1.462   2.120 -0.3130  0.1324  0.3437
 5663TIP3    H138480   3.999   1.396   2.127 -0.2533  0.0886 -0.5188
 5663TIP3    H238481   3.902   1.477   2.210  0.1921 -0.5203  0.6198
 5664TIP3   OH238482   4.012   4.525   6.284 -0.6098 -0.0325  0.3608
 5664TIP3    H138483   3.969   4.442   6.265  1.1448 -0.9069  0.0032
 5664TIP3    H238484   4.096   4.500   6.323  0.0816  1.5526 -0.0316
 5665TIP3   OH238485   1.567   0.174  12.502 -0.0545  0.3133  0.5603
 5665TIP3    H138486   1.512   0.211  12.433  0.7114 -0.2582 -0.3958
 5665TIP3    H238487   1.612   0.249  12.540  1.6516  0.4637 -1.5042
 5666TIP3   OH238488   2.702   3.116  13.123 -0.1217 -0.5997  0.6838
 5666TIP3    H138489   2.606   3.119  13.123 -0.1470 -1.1127  1.3426
 5666TIP3    H238490   2.728   3.175  13.194  0.0222 -1.0494  1.0051
 5667TIP3   OH238491   0.231   2.140  14.748 -0.0619  0.1872  0.7786
 5667TIP3    H138492   0.324   2.151  14.767 -0.0172  1.7073 -0.0992
 5667TIP3    H238493   0.220   2.047  14.730  0.9645 -0.2971  2.4048
 5668TIP3   OH238494   0.042   5.820   0.640  0.7299 -0.0909 -0.3983
 5668TIP3    H138495   0.053   5.914   0.647  0.4240 -0.1686  2.4011
 5668TIP3    H238496  -0.048   5.804   0.667  1.5267 -1.2978  1.8784
 5669TIP3   OH238497   4.730   2.002   5.463  0.1952 -0.1679  0.1909
 5669TIP3    H138498   4.647   1.977   5.421 -0.1963 -1.0526  1.4282
 5669TIP3    H238499   4.715   1.988   5.556  1.2431  1.1818  0.5955
 5670TIP3   OH238500   4.523   1.781  16.246  0.2315  0.8360  0.5514
 5670TIP3    H138501   4.451   1.763  16.307  1.4740  1.2758  2.2489
 5670TIP3    H238502   4.599   1.737  16.286  0.7105 -0.6440 -1.7977
 5671TIP3   OH238503   0.051   3.291   0.433  0.4756 -0.0812 -0.3602
 5671TIP3    H138504  -0.002   3.370   0.441 -0.2084 -0.7235  2.5572
 5671TIP3    H238505   0.135   3.315   0.473 -0.1034 -1.0684  1.5525
 5672TIP3   OH238506   2.012   6.371   5.206  0.2648  0.1235 -0.0780
 5672TIP3    H138507   2.009   6.286   5.250  0.5780  0.7260  1.1517
 5672TIP3    H238508   1.966   6.430   5.265 -0.6679  0.6627 -1.3012
 5673TIP3   OH238509   4.924   2.059   1.338  0.0608 -0.1752  0.1252
 5673TIP3    H138510   4.902   2.059   1.431 -2.2286  1.6777 -0.3357
 5673TIP3    H238511   4.902   1.971   1.308 -1.9487  0.0540  0.7961
 5674TIP3   OH238512   3.981   6.453  17.149 -0.1129  0.3767 -0.6483
 5674TIP3    H138513   3.886   6.439  17.142  0.0645 -1.4014 -0.1433
 5674TIP3    H238514   4.017   6.418  17.067  0.1928 -0.2595 -0.2563
 5675TIP3   OH238515   4.669   2.501   3.523 -0.4665  0.1349  0.6527
 5675TIP3    H138516   4.609   2.565   3.561 -0.4276  1.0350 -0.7050
 5675TIP3    H238517   4.742   2.554   3.489  0.3101 -0.7841  0.8306
 5676TIP3   OH238518   4.704   2.475   1.524  0.0353  0.3653 -0.4475
 5676TIP3    H138519   4.797   2.487   1.505  0.2433  0.3591  0.5488
 5676TIP3    H238520   4.676   2.558   1.563 -0.3093  0.2681 -0.4884
 5677TIP3   OH238521   6.671   0.376  12.179 -0.1344 -0.2777  0.0581
 5677TIP3    H138522   6.616   0.309  12.219  0.1325  0.9035  2.5777
 5677TIP3    H238523   6.636   0.387  12.090 -0.3917 -3.4376 -0.3338
 5678TIP3   OH238524   5.488   5.418   4.054  0.1160 -0.3878 -0.2156
 5678TIP3    H138525   5.530   5.363   4.120 -2.7241 -2.2929  0.2151
 5678TIP3    H238526   5.515   5.379   3.970  0.9287 -0.1821 -0.0556
 5679TIP3   OH238527   6.642   2.972  13.649  0.7717 -0.3150 -0.1296
 5679TIP3    H138528   6.552   3.003  13.636  0.9076  0.1102 -0.0541
 5679TIP3    H238529   6.686   3.045  13.693  1.4064 -0.1607 -1.0176
 5680TIP3   OH238530   0.125   0.026   3.606 -0.0433 -0.0922 -0.2983
 5680TIP3    H138531   0.163  -0.027   3.676  1.6897  2.2541  0.6411
 5680TIP3    H238532   0.036   0.046   3.636  0.5559  0.5643  1.0785
 5681TIP3   OH238533   3.833   1.277   3.275  0.1800  0.3644 -0.1003
 5681TIP3    H138534   3.922   1.250   3.296  0.3742 -0.4580 -1.7748
 5681TIP3    H238535   3.778   1.223   3.332  0.7159 -0.3953 -0.2832
 5682TIP3   OH238536   3.719   6.100  12.463  0.3310 -0.3985 -0.3581
 5682TIP3    H138537   3.673   6.165  12.515  1.1346 -0.7861  0.8961
 5682TIP3    H238538   3.663   6.084  12.387 -1.6562 -0.9622  1.1767
 5683TIP3   OH238539   1.800   4.861   1.596  0.2849 -0.1414  0.1585
 5683TIP3    H138540   1.824   4.886   1.507  0.1496 -1.5224 -0.2886
 5683TIP3    H238541   1.765   4.941   1.635  0.8537  0.6171 -0.8383
 5684TIP3   OH238542   5.230   6.614   4.249 -0.5601  0.5767 -0.0390
 5684TIP3    H138543   5.244   6.624   4.343  0.6493 -0.4075 -0.0826
 5684TIP3    H238544   5.135   6.607   4.239 -0.6913  0.5162  1.1365
 5685TIP3   OH238545   0.828   4.943  12.576 -0.2301 -0.2444  0.3200
 5685TIP3    H138546   0.761   4.880  12.549 -1.8348 -0.0116  3.3123
 5685TIP3    H238547   0.902   4.888  12.603 -0.2249 -0.6386 -0.4642
 5686TIP3   OH238548   0.187   0.427   3.203  0.3206  0.0803 -0.4259
 5686TIP3    H138549   0.254   0.376   3.248 -2.0482 -0.2356  3.0907
 5686TIP3    H238550   0.119   0.364   3.180 -0.8021  1.0005  0.2282
 5687TIP3   OH238551   0.808   0.473  12.677 -0.3063  0.3423  0.5183
 5687TIP3    H138552   0.789   0.462  12.584 -0.0291  2.4958  0.1650
 5687TIP3    H238553   0.904   0.475  12.682 -0.1437 -3.1711  1.3617
 5688TIP3   OH238554   6.724   3.765  13.622 -0.4317  0.2258  0.2044
 5688TIP3    H138555   6.808   3.808  13.634 -1.2617  2.1690 -0.4731
 5688TIP3    H238556   6.737   3.706  13.548  0.1325  1.2245 -0.5265
 5689TIP3   OH238557   3.245   1.170  12.446  0.4228  0.1248 -0.1745
 5689TIP3    H138558   3.223   1.090  12.398 -0.5142  0.9569 -1.1794
 5689TIP3    H238559   3.273   1.231  12.378 -0.9241  1.3302  0.3182
 5690TIP3   OH238560   5.683   4.107   0.237 -0.4128 -0.3037  0.2777
 5690TIP3    H138561   5.616   4.124   0.170 -1.3593  0.3731  1.3541
 5690TIP3    H238562   5.652   4.155   0.313  2.0846  1.2968  0.3858
 5691TIP3   OH238563   2.168   5.082   0.295  0.0301 -0.3392  0.7764
 5691TIP3    H138564   2.257   5.045   0.298  1.3848  2.6394  1.0507
 5691TIP3    H238565   2.167   5.134   0.215 -1.8816 -1.1221  0.2445
 5692TIP3   OH238566   2.935   2.146   3.073 -0.2049  0.4114  0.6229
 5692TIP3    H138567   2.961   2.230   3.111  0.7839  0.2081  0.4357
 5692TIP3    H238568   2.885   2.168   2.995  0.4572  0.8287  0.3112
 5693TIP3   OH238569   0.347   6.359  11.693 -0.7528 -0.0689  0.3135
 5693TIP3    H138570   0.252   6.367  11.702 -0.6857 -0.3842  1.6184
 5693TIP3    H238571   0.362   6.265  11.685 -0.6455  0.0793 -1.6327
 5694TIP3   OH238572   4.844   5.110  11.081 -0.0316 -0.3387 -0.0557
 5694TIP3    H138573   4.883   5.026  11.103  0.0313  0.0548  1.5198
 5694TIP3    H238574   4.877   5.131  10.994  0.0022 -1.8956 -0.4314
 5695TIP3   OH238575   3.270   1.210   4.760  0.4116 -0.1909  0.0864
 5695TIP3    H138576   3.365   1.208   4.747  0.7554  0.4989  2.0632
 5695TIP3    H238577   3.251   1.302   4.781 -0.7515 -0.2603 -0.5934
 5696TIP3   OH238578   5.754   3.892   2.095 -0.0173 -0.1435 -0.3184
 5696TIP3    H138579   5.692   3.854   2.157  0.1237 -0.6201 -0.4628
 5696TIP3    H238580   5.821   3.934   2.150 -0.3911  0.2478 -0.1627
 5697TIP3   OH238581   4.513   1.823  13.334 -0.0305 -0.1422 -0.3298
 5697TIP3    H138582   4.496   1.852  13.245 -0.4572 -1.0130 -0.5503
 5697TIP3    H238583   4.426   1.801  13.369  0.3733 -2.6308 -0.7287
 5698TIP3   OH238584   5.325   0.548   4.428  0.1201  0.1186  0.3506
 5698TIP3    H138585   5.358   0.623   4.380 -1.0724  0.7369  0.4541
 5698TIP3    H238586   5.241   0.527   4.386  0.2316 -0.8902  0.5925
 5699TIP3   OH238587   3.261   5.800   2.513  0.1395  0.1701 -0.2027
 5699TIP3    H138588   3.191   5.813   2.449  0.8638  0.0196 -1.0502
 5699TIP3    H238589   3.297   5.714   2.493  1.3901  0.7606 -0.6214
 5700TIP3   OH238590   4.878   5.131   4.595 -0.0253  0.2638 -0.0969
 5700TIP3    H138591   4.945   5.118   4.663  0.0594  0.0787 -0.2160
 5700TIP3    H238592   4.912   5.201   4.541 -0.2999  0.7213  0.3132
 5701TIP3   OH238593   4.898   1.789   6.601 -0.9287  0.5216  0.0314
 5701TIP3    H138594   4.838   1.862   6.586 -2.1348 -0.4162  0.1200
 5701TIP3    H238595   4.849   1.712   6.572  0.3718 -0.2347 -0.1938
 5702TIP3   OH238596   2.473   0.890   3.128  0.5779 -0.3763  0.0934
 5702TIP3    H138597   2.388   0.857   3.157 -0.5339  1.6360 -0.7134
 5702TIP3    H238598   2.505   0.943   3.200  0.5777 -0.1304 -0.0880
 5703TIP3   OH238599   4.735   6.404  13.174 -0.0601 -0.2200  0.6902
 5703TIP3    H138600   4.754   6.394  13.080 -0.1792  1.1280  0.5140
 5703TIP3    H238601   4.807   6.457  13.208 -0.5333  0.1155  1.1746
 5704TIP3   OH238602   4.542   1.261   2.761 -0.4951  0.6085 -0.0574
 5704TIP3    H138603   4.567   1.341   2.715 -2.1305 -0.3188 -2.7621
 5704TIP3    H238604   4.453   1.243   2.732  0.3325 -3.0500 -0.8793
 5705TIP3   OH238605   5.870   4.721  11.635  0.2328 -0.0923 -0.0273
 5705TIP3    H138606   5.880   4.790  11.701 -1.6195 -1.4047  1.7020
 5705TIP3    H238607   5.893   4.640  11.681  0.5499 -0.8770 -1.5041
 5706TIP3   OH238608   2.963   5.853   1.753  0.1727 -0.0704  0.1794
 5706TIP3    H138609   2.926   5.932   1.715  1.1935 -0.7393 -2.4142
 5706TIP3    H238610   2.894   5.820   1.811 -2.4494 -0.0472 -2.6774
 5707TIP3   OH238611   0.741   3.386   2.228  0.4884  0.5822  0.1702
 5707TIP3    H138612   0.747   3.385   2.132 -0.1571  1.2166  0.1192
 5707TIP3    H238613   0.728   3.478   2.251 -0.3831  0.3075  0.8011
 5708TIP3   OH238614   6.288   6.595   1.132 -0.5563 -0.0043  0.5535
 5708TIP3    H138615   6.213   6.626   1.082  0.3177  1.0754 -0.1321
 5708TIP3    H238616   6.274   6.630   1.221 -0.2115  1.3496  0.0990
 5709TIP3   OH238617   4.395   5.340   2.166  0.5952 -0.1516 -0.0771
 5709TIP3    H138618   4.444   5.357   2.086 -0.2724  1.1021 -0.3682
 5709TIP3    H238619   4.307   5.374   2.149  0.9206  2.1151  2.1266
 5710TIP3   OH238620   2.208   5.773   4.671  0.8031 -0.1373 -0.5722
 5710TIP3    H138621   2.193   5.826   4.593 -0.9358 -2.0133 -1.6055
 5710TIP3    H238622   2.243   5.691   4.638 -1.8100 -1.7249  0.3201
 5711TIP3   OH238623   4.347   3.156   4.008 -0.3990 -0.1305  0.2823
 5711TIP3    H138624   4.302   3.215   3.948 -1.2078  0.7294  1.6770
 5711TIP3    H238625   4.277   3.103   4.047 -0.0710  0.2005  1.3769
 5712TIP3   OH238626   5.566   1.679  13.027 -0.1278 -0.0718  0.6548
 5712TIP3    H138627   5.566   1.771  13.052 -0.9445  0.4927 -1.2211
 5712TIP3    H238628   5.656   1.650  13.042 -0.1145  0.7088  2.2602
 5713TIP3   OH238629   5.148   5.816  11.111 -0.2355  0.3775 -0.1779
 5713TIP3    H138630   5.139   5.886  11.046  0.6132  0.0981 -0.6021
 5713TIP3    H238631   5.200   5.749  11.068 -1.7078 -0.9031 -0.0764
 5714TIP3   OH238632   4.700   2.223   3.588 -1.0607  0.2538 -0.0604
 5714TIP3    H138633   4.670   2.314   3.587 -1.9307  0.0256  1.4704
 5714TIP3    H238634   4.690   2.196   3.680 -0.8844 -1.3960 -0.5004
 5715TIP3   OH238635   2.361   3.049  15.271  0.0906  0.3865 -0.3423
 5715TIP3    H138636   2.314   3.034  15.353  1.2628 -0.3573  0.2356
 5715TIP3    H238637   2.365   2.962  15.230  0.3089  0.5745 -0.7256
 5716TIP3   OH238638   2.164   5.621   5.425  0.1374  0.2495  0.5325
 5716TIP3    H138639   2.219   5.603   5.349 -0.9031  1.6027 -0.6050
 5716TIP3    H238640   2.204   5.572   5.496  0.1928 -2.4999 -1.2389
 5717TIP3   OH238641   6.227   5.594  11.803 -0.0602 -0.2798 -0.0519
 5717TIP3    H138642   6.165   5.656  11.764  0.6676 -0.0028 -0.7893
 5717TIP3    H238643   6.302   5.593  11.743  0.7289 -0.4893  0.9109
 5718TIP3   OH238644   6.210   2.239  14.562 -0.1646 -0.1206  0.0767
 5718TIP3    H138645   6.300   2.218  14.588 -0.8064  0.7358  3.4911
 5718TIP3    H238646   6.156   2.174  14.607 -1.3489 -0.3339 -1.5409
 5719TIP3   OH238647   2.007   1.615  11.472 -0.1841 -0.0089 -0.9022
 5719TIP3    H138648   1.959   1.695  11.491 -0.8668 -0.4981 -0.5429
 5719TIP3    H238649   2.099   1.642  11.470 -0.4284  0.8258 -1.0447
 5720TIP3   OH238650   0.593   2.396   5.272 -0.1797 -0.4665 -0.4342
 5720TIP3    H138651   0.622   2.469   5.326 -0.8329 -1.6868  1.6686
 5720TIP3    H238652   0.514   2.429   5.228  0.9156  0.8660 -1.4907
 5721TIP3   OH238653   1.910   6.747  15.724 -0.6418  0.5464  0.2618
 5721TIP3    H138654   1.849   6.708  15.787  0.5394  1.6276  2.1665
 5721TIP3    H238655   1.996   6.720  15.755 -0.0165  1.2978 -0.7698
 5722TIP3   OH238656   4.344   1.433  14.791  0.1447 -0.8192  0.3549
 5722TIP3    H138657   4.384   1.368  14.732 -1.3153 -0.8383 -0.6910
 5722TIP3    H238658   4.256   1.399  14.806  0.2050 -0.3504  1.8741
 5723TIP3   OH238659   3.133   2.269   0.604 -0.3632 -0.1396  0.1266
 5723TIP3    H138660   3.084   2.267   0.686  0.7772 -1.4471  0.8323
 5723TIP3    H238661   3.091   2.203   0.549  0.8721 -1.7082  0.9584
 5724TIP3   OH238662   5.742   0.111  14.236  0.0728 -0.4239 -0.1652
 5724TIP3    H138663   5.653   0.118  14.268  0.2393 -1.3407  0.5236
 5724TIP3    H238664   5.791   0.178  14.284 -0.0848 -0.4431  0.0208
 5725TIP3   OH238665   6.480   4.288  15.150 -0.2542  0.4530  0.1357
 5725TIP3    H138666   6.390   4.291  15.117 -0.0688 -0.5117 -0.4749
 5725TIP3    H238667   6.474   4.323  15.239 -1.6739 -1.8220  1.0182
 5726TIP3   OH238668   0.307   1.139   0.884 -0.2917 -0.0210  0.1070
 5726TIP3    H138669   0.241   1.089   0.932 -0.2826  0.7143  0.8949
 5726TIP3    H238670   0.387   1.130   0.936 -0.1320  0.3030 -0.0776
 5727TIP3   OH238671   3.225   4.375  15.739 -0.6373 -0.2625 -0.0212
 5727TIP3    H138672   3.268   4.435  15.799 -2.1317 -0.5932  1.4286
 5727TIP3    H238673   3.223   4.423  15.655 -2.4269  2.0757  1.2394
 5728TIP3   OH238674   1.292   1.425  16.675  0.0705  0.4797 -0.4943
 5728TIP3    H138675   1.233   1.414  16.750  0.4439 -1.3187 -0.4187
 5728TIP3    H238676   1.236   1.461  16.606 -1.2247 -1.3020 -0.4712
 5729TIP3   OH238677   1.118   0.680   5.690  0.1863 -0.3217  0.3238
 5729TIP3    H138678   1.121   0.588   5.665  2.1368 -0.6059  1.4199
 5729TIP3    H238679   1.024   0.700   5.695 -0.3184 -1.5388 -2.2317
 5730TIP3   OH238680   2.256   5.366   6.456 -0.1810  0.9421 -0.4796
 5730TIP3    H138681   2.216   5.394   6.374  0.6477  2.9507 -0.2600
 5730TIP3    H238682   2.342   5.408   6.457  0.1699  0.2698  1.0305
 5731TIP3   OH238683   5.993   0.686   0.947 -0.7226  0.3689  0.3181
 5731TIP3    H138684   6.024   0.761   0.998  0.1901  0.5788 -0.5220
 5731TIP3    H238685   5.899   0.700   0.938 -0.1754  3.1723 -2.5625
 5732TIP3   OH238686   1.517   0.819  16.568  0.3742 -0.5687  0.4880
 5732TIP3    H138687   1.488   0.735  16.603 -0.9900  0.1228  1.0823
 5732TIP3    H238688   1.567   0.860  16.639 -0.8397  0.0502  1.0061
 5733TIP3   OH238689   4.872   4.230  12.370  0.3108  0.3030  0.2280
 5733TIP3    H138690   4.889   4.317  12.406 -0.4167  0.1909  0.8688
 5733TIP3    H238691   4.859   4.174  12.447 -0.5389 -0.0939 -0.1812
 5734TIP3   OH238692   3.046   4.970   2.140  0.0286 -0.1609 -0.0936
 5734TIP3    H138693   2.989   4.920   2.198  0.1074 -0.7616 -0.5221
 5734TIP3    H238694   3.052   5.057   2.180 -0.7857 -0.2441  0.2148
 5735TIP3   OH238695   1.515   2.349  16.593 -0.3221  0.1079 -0.2616
 5735TIP3    H138696   1.444   2.388  16.645 -1.6548 -1.5804 -0.7064
 5735TIP3    H238697   1.484   2.260  16.575  1.6680 -0.4701 -1.0057
 5736TIP3   OH238698   6.213   0.978   3.335  0.2806  0.6153 -0.1033
 5736TIP3    H138699   6.251   1.062   3.359  1.9914  0.5144 -2.2109
 5736TIP3    H238700   6.199   0.984   3.240  0.6699 -1.5487 -0.3496
 5737TIP3   OH238701   2.049   0.984   4.851  0.3511 -0.6750 -0.3632
 5737TIP3    H138702   2.056   1.040   4.773 -1.5417 -1.2408 -0.9981
 5737TIP3    H238703   2.021   1.043   4.921 -1.7241 -0.7319 -1.0510
 5738TIP3   OH238704   6.465   6.158  13.688 -0.0819  0.2652  0.2368
 5738TIP3    H138705   6.540   6.133  13.742 -0.1161 -1.8499 -0.5969
 5738TIP3    H238706   6.502   6.214  13.620  1.1163 -1.9916 -1.0896
 5739TIP3   OH238707   6.193   0.989  10.302  0.3870 -0.1015 -0.3465
 5739TIP3    H138708   6.213   0.958  10.390  2.3097 -0.7119 -0.9361
 5739TIP3    H238709   6.164   0.911  10.254  1.2756 -0.1937 -0.7560
 5740TIP3   OH238710   3.514   2.278   4.749 -0.5083 -0.2680 -0.0414
 5740TIP3    H138711   3.514   2.183   4.760  2.0403 -0.4847 -1.2205
 5740TIP3    H238712   3.449   2.295   4.680 -0.8409 -1.1492  0.0470
 5741TIP3   OH238713   2.502   5.659  16.573 -0.5015  0.1045 -0.3689
 5741TIP3    H138714   2.585   5.707  16.575 -0.7890  0.5904  0.3368
 5741TIP3    H238715   2.518   5.584  16.515  0.8311 -0.5520  0.8025
 5742TIP3   OH238716   6.256   6.056  17.111 -0.3241  0.1346  0.0558
 5742TIP3    H138717   6.315   6.120  17.070 -0.3821  0.0815 -0.1132
 5742TIP3    H238718   6.168   6.084  17.084 -0.3943  0.3620  0.5163
 5743TIP3   OH238719   0.682   2.314   4.172 -0.1144  0.2844 -0.0426
 5743TIP3    H138720   0.755   2.258   4.144  0.5022  0.1522  1.7096
 5743TIP3    H238721   0.698   2.398   4.130  0.2943 -0.1460 -0.7576
 5744TIP3   OH238722   2.586   0.343  16.439  0.0140 -0.4827 -0.2427
 5744TIP3    H138723   2.679   0.364  16.446 -0.1755  0.4482 -0.4715
 5744TIP3    H238724   2.547   0.418  16.396 -1.2323  0.2100  1.9196
 5745TIP3   OH238725   1.735   5.928  12.138 -0.3359 -0.2517 -0.4998
 5745TIP3    H138726   1.767   6.012  12.171 -4.0440  0.8140  0.9447
 5745TIP3    H238727   1.734   5.871  12.215 -0.6561 -0.6313 -0.7812
 5746TIP3   OH238728   2.560   1.181  15.543 -0.0236  0.5625 -0.4184
 5746TIP3    H138729   2.533   1.125  15.615 -0.6589 -0.2606 -1.2587
 5746TIP3    H238730   2.647   1.213  15.567 -0.1637  0.1804  0.6228
 5747TIP3   OH238731   1.221   1.447   0.627  0.8100  0.7457  0.1089
 5747TIP3    H138732   1.210   1.441   0.722 -0.4295  1.6564  0.0433
 5747TIP3    H238733   1.169   1.374   0.593  2.3367 -0.4191  0.1481
 5748TIP3   OH238734   0.663   1.173  15.867  0.0498 -0.2928 -0.5175
 5748TIP3    H138735   0.658   1.196  15.960  0.3166  0.5474 -0.6992
 5748TIP3    H238736   0.612   1.241  15.824 -0.2185 -0.7805 -0.9763
 5749TIP3   OH238737   1.444   5.281  14.993 -0.5630 -0.0092  0.1936
 5749TIP3    H138738   1.441   5.200  14.942 -0.1473 -0.3891  0.7615
 5749TIP3    H238739   1.426   5.350  14.929 -1.3146 -0.5768 -0.2268
 5750TIP3   OH238740   4.982   0.172  16.305  0.0699 -0.1371 -0.6777
 5750TIP3    H138741   4.957   0.255  16.346  2.8482 -0.0113  1.0238
 5750TIP3    H238742   5.061   0.145  16.351  0.2084 -2.9374 -2.2934
 5751TIP3   OH238743   2.212   0.035   1.408  0.4341 -0.5852 -0.3201
 5751TIP3    H138744   2.164  -0.006   1.335  0.9671  0.2555 -1.1714
 5751TIP3    H238745   2.183  -0.013   1.486 -1.3664 -0.4849 -0.8733
 5752TIP3   OH238746   6.529   1.314   0.787 -0.6089 -0.0906 -0.1438
 5752TIP3    H138747   6.543   1.229   0.831  0.1800  0.8415  1.5105
 5752TIP3    H238748   6.496   1.291   0.701 -1.5862 -2.0667  0.6817
 5753TIP3   OH238749   4.464   4.299   3.583  0.8417  0.0633 -0.8117
 5753TIP3    H138750   4.531   4.248   3.538 -0.4306 -0.8863 -1.6954
 5753TIP3    H238751   4.394   4.311   3.518  0.2444  1.2257 -0.0007
 5754TIP3   OH238752   6.268   1.372  14.670  0.1175 -0.2660 -0.4351
 5754TIP3    H138753   6.248   1.279  14.684 -1.1170  0.3083  2.4222
 5754TIP3    H238754   6.225   1.394  14.588 -0.2440 -2.0380 -0.7724
 5755TIP3   OH238755   1.175   4.922   4.016 -0.3928 -0.4934 -0.0519
 5755TIP3    H138756   1.117   4.872   4.074 -1.1254  0.6369  0.2152
 5755TIP3    H238757   1.116   4.968   3.957  0.1346  1.5173  0.9052
 5756TIP3   OH238758   4.725   3.270   2.755 -0.4671  0.4529 -0.2513
 5756TIP3    H138759   4.646   3.292   2.804 -1.0125 -1.7359 -0.0391
 5756TIP3    H238760   4.732   3.338   2.687 -2.6328  0.5880 -0.3893
 5757TIP3   OH238761   0.380   0.004   6.489  0.0525 -0.5851 -0.4511
 5757TIP3    H138762   0.327   0.036   6.562 -0.5462 -2.1319 -0.1482
 5757TIP3    H238763   0.320   0.003   6.414  0.7796  1.3871 -1.0959
 5758TIP3   OH238764   3.477   5.836   5.276  0.2659  0.0812  0.2750
 5758TIP3    H138765   3.480   5.829   5.371  0.7421  1.6447  0.3934
 5758TIP3    H238766   3.568   5.845   5.249  0.1526 -0.5603 -0.3557
 5759TIP3   OH238767   5.187   0.836   5.912 -0.0100  0.1656  0.3679
 5759TIP3    H138768   5.212   0.749   5.880  1.7344  1.1110 -1.0029
 5759TIP3    H238769   5.120   0.819   5.978 -0.8083 -2.1215 -0.9399
 5760TIP3   OH238770   5.553   0.700  15.693 -0.1463 -0.6916  0.1798
 5760TIP3    H138771   5.609   0.673  15.620 -0.9274  3.5722 -2.3208
 5760TIP3    H238772   5.471   0.652  15.680  0.7541 -2.3315  0.2382
 5761TIP3   OH238773   1.463   1.493  12.178 -0.2964  0.3848  0.6611
 5761TIP3    H138774   1.554   1.498  12.151 -0.1917  4.0863  1.1659
 5761TIP3    H238775   1.466   1.472  12.271  0.3753  3.4854  1.4595
 5762TIP3   OH238776   4.721   1.097   0.403  0.1196  0.5832  0.0884
 5762TIP3    H138777   4.693   1.049   0.480  0.4030  1.6738  0.9020
 5762TIP3    H238778   4.764   1.175   0.437 -0.0397  1.2639 -1.1681
 5763TIP3   OH238779   3.502   5.541  16.616 -0.1568 -0.0842 -0.6418
 5763TIP3    H138780   3.433   5.575  16.673  1.0766  0.9813  0.2752
 5763TIP3    H238781   3.493   5.446  16.622 -0.6584  0.0207  0.6063
 5764TIP3   OH238782   2.293   5.569  14.031 -0.2023 -0.3285  0.6492
 5764TIP3    H138783   2.371   5.588  13.979  0.3951 -0.2232  1.5756
 5764TIP3    H238784   2.266   5.481  14.003  0.4840 -0.5320  0.6172
 5765TIP3   OH238785   6.110   4.172  12.498 -0.0481 -0.4812  0.4872
 5765TIP3    H138786   6.176   4.135  12.556  2.2360  0.8328 -1.1060
 5765TIP3    H238787   6.068   4.241  12.549 -0.4975 -1.6055  1.6607
 5766TIP3   OH238788   2.225   4.789   0.041  0.4807  0.2188 -0.0547
 5766TIP3    H138789   2.318   4.810   0.048  0.5620  0.3247 -1.1309
 5766TIP3    H238790   2.216   4.753  -0.048 -0.3248 -0.7775  0.4155
 5767TIP3   OH238791   5.080   1.189  13.335  0.1053  0.2342 -0.1595
 5767TIP3    H138792   5.032   1.232  13.264  1.6513  0.5628 -1.0621
 5767TIP3    H238793   5.095   1.100  13.303  1.4298  0.5905 -0.6004
 5768TIP3   OH238794   6.178   2.829  14.743 -0.2121 -0.1818 -0.7560
 5768TIP3    H138795   6.183   2.802  14.651 -0.9874 -3.1997 -0.0228
 5768TIP3    H238796   6.233   2.766  14.789  1.1066  1.9789  0.8051
 5769TIP3   OH238797   1.635   0.979  13.902 -0.1407  0.0502 -0.0777
 5769TIP3    H138798   1.562   0.938  13.857 -0.9157  1.7968 -0.5014
 5769TIP3    H238799   1.621   1.073  13.890  2.3006  0.4369 -0.3776
 5770TIP3   OH238800   4.182   5.591   1.069 -0.6673 -0.3118 -0.6537
 5770TIP3    H138801   4.198   5.547   1.152 -2.1948  1.9104  0.9458
 5770TIP3    H238802   4.269   5.617   1.038 -0.1286 -0.4976  0.6442
 5771TIP3   OH238803   5.580   3.576   3.854  0.6915  0.0554  0.0590
 5771TIP3    H138804   5.559   3.589   3.947  0.8193  0.6318  0.0113
 5771TIP3    H238805   5.506   3.616   3.808 -1.5895 -3.8969 -0.1180
 5772TIP3   OH238806   1.770   3.859  10.845  0.0750  0.7004  0.4170
 5772TIP3    H138807   1.762   3.941  10.893 -0.3565  1.3997 -0.7975
 5772TIP3    H238808   1.855   3.864  10.802 -0.3268  0.9355 -0.3778
 5773TIP3   OH238809   3.497   1.206  15.078 -0.8108 -0.1110 -0.6469
 5773TIP3    H138810   3.547   1.276  15.120 -1.3541  0.4618 -0.9315
 5773TIP3    H238811   3.406   1.234  15.086 -1.0580 -0.9459 -0.4889
 5774TIP3   OH238812   0.596   5.822   4.965 -0.2852  0.3851  0.4524
 5774TIP3    H138813   0.509   5.813   4.925 -0.6910  2.6595  0.7040
 5774TIP3    H238814   0.585   5.890   5.031  1.8893  1.4010 -0.1562
 5775TIP3   OH238815   2.813   5.124  15.431 -0.2746 -0.3239  0.1934
 5775TIP3    H138816   2.841   5.068  15.503  0.3438  0.1653  0.3439
 5775TIP3    H238817   2.774   5.064  15.368  1.2497 -1.0725 -0.0935
 5776TIP3   OH238818   5.676   1.825   2.920 -0.0314  0.0529  0.3899
 5776TIP3    H138819   5.748   1.781   2.966 -0.6361  0.1521  1.4578
 5776TIP3    H238820   5.599   1.806   2.973 -0.3403  2.2802  0.8195
 5777TIP3   OH238821   5.106   5.913  16.268 -0.1680 -0.1786 -0.4837
 5777TIP3    H138822   5.090   6.005  16.247  0.2791 -0.0258 -0.1746
 5777TIP3    H238823   5.035   5.889  16.327 -0.9529 -0.3706 -1.4877
 5778TIP3   OH238824   1.369   1.628   1.203  0.1089 -0.0213 -0.6803
 5778TIP3    H138825   1.315   1.569   1.151  0.4339 -0.2371 -0.7738
 5778TIP3    H238826   1.332   1.715   1.187 -0.8259 -0.2749  0.0243
 5779TIP3   OH238827   5.283   4.342  15.374 -0.3953 -0.4558  0.5256
 5779TIP3    H138828   5.315   4.287  15.302 -0.7154 -1.5526  1.2054
 5779TIP3    H238829   5.295   4.432  15.343  0.5238 -0.8987 -0.4429
 5780TIP3   OH238830   2.909   3.211   5.304 -0.1247 -0.0191 -0.0352
 5780TIP3    H138831   2.891   3.117   5.313  3.7500 -1.1190 -1.6462
 5780TIP3    H238832   2.921   3.224   5.210 -0.6476  2.1717  0.1488
 5781TIP3   OH238833   1.997   2.931  12.010  0.0861 -0.2048 -0.1416
 5781TIP3    H138834   2.032   2.854  11.964 -0.9314 -0.8417  0.1098
 5781TIP3    H238835   1.957   2.894  12.089  0.4741  0.7054  0.4852
 5782TIP3   OH238836   1.438   0.793   0.934 -0.0767  0.0924 -0.4052
 5782TIP3    H138837   1.379   0.810   1.008  1.1965  1.2232  0.3861
 5782TIP3    H238838   1.462   0.701   0.944  2.0086  0.7811  2.1151
 5783TIP3   OH238839   0.547   3.401  12.887 -0.0341 -0.2252 -0.4592
 5783TIP3    H138840   0.564   3.324  12.833 -0.5196  0.8229 -2.2152
 5783TIP3    H238841   0.490   3.456  12.832 -1.7310  0.2950  1.6902
 5784TIP3   OH238842   1.860   6.069   5.601 -0.1166  0.5170 -0.6845
 5784TIP3    H138843   1.853   6.106   5.689  0.3036  1.1819 -0.9270
 5784TIP3    H238844   1.787   6.008   5.596  0.0628  0.1967  0.2562
 5785TIP3   OH238845   1.273   0.620   4.850 -0.1960  0.0748  0.5615
 5785TIP3    H138846   1.205   0.610   4.917 -0.9689  1.1605 -0.0154
 5785TIP3    H238847   1.350   0.578   4.887 -0.9503 -0.4449  1.5987
 5786TIP3   OH238848   1.975   6.078  12.982  0.4096  0.2482  0.2311
 5786TIP3    H138849   2.038   6.108  13.048  0.4906  0.0912  0.2259
 5786TIP3    H238850   2.029   6.037  12.915  0.4762  1.8393 -0.7298
 5787TIP3   OH238851   2.874   4.279   1.125  0.1600  0.1614 -0.1166
 5787TIP3    H138852   2.954   4.315   1.162 -0.0126  0.4477 -0.0238
 5787TIP3    H238853   2.816   4.266   1.200 -0.8192  2.3055 -0.4287
 5788TIP3   OH238854   3.118   0.562  16.917 -0.0332  0.4068  0.2953
 5788TIP3    H138855   3.129   0.654  16.941 -0.1271  0.4549  0.1571
 5788TIP3    H238856   3.203   0.522  16.936 -0.2657  0.3226  1.2060
 5789TIP3   OH238857   0.720   2.300   4.857 -0.7047 -0.0975  0.6694
 5789TIP3    H138858   0.735   2.309   4.951  0.0295 -0.3917  0.5920
 5789TIP3    H238859   0.721   2.389   4.823  1.7592 -0.0775  0.5713
 5790TIP3   OH238860   3.247   1.416   1.507  0.3541  0.5548 -0.1047
 5790TIP3    H138861   3.245   1.336   1.454  0.0199  1.2420 -1.1516
 5790TIP3    H238862   3.157   1.448   1.506  0.3957  0.7166  0.6734
 5791TIP3   OH238863   3.987   1.061   2.129  0.1547  0.1829 -0.3055
 5791TIP3    H138864   3.962   0.994   2.065  0.6589 -0.8744  0.5570
 5791TIP3    H238865   3.916   1.061   2.193  0.2821  0.2878 -0.1635
 5792TIP3   OH238866   5.069   2.420   2.545  1.3272 -0.1525 -0.3164
 5792TIP3    H138867   5.032   2.340   2.509 -1.7088  1.0234 -0.0720
 5792TIP3    H238868   5.140   2.390   2.603 -0.5317 -2.7786  0.7954
 5793TIP3   OH238869   1.409   2.364  13.750 -0.3052  0.1527 -0.9870
 5793TIP3    H138870   1.402   2.269  13.750  2.5241 -0.1573  0.3167
 5793TIP3    H238871   1.403   2.389  13.843  1.4737  0.9114 -1.0230
 5794TIP3   OH238872   4.034   2.257  16.314  0.1760  0.1280  0.3433
 5794TIP3    H138873   3.992   2.322  16.370  1.4605 -0.0974  1.6128
 5794TIP3    H238874   3.961   2.210  16.273 -0.7682  1.5967  0.2941
 5795TIP3   OH238875   2.875   0.428   4.703 -0.0081  0.3797  0.1999
 5795TIP3    H138876   2.931   0.503   4.724 -1.6017  0.8577  3.5425
 5795TIP3    H238877   2.796   0.467   4.665  0.2296  0.1273 -0.5587
 5796TIP3   OH238878   4.510   2.225  16.409  0.1247 -0.7418  0.5030
 5796TIP3    H138879   4.514   2.149  16.351  0.2481 -0.2943 -0.0857
 5796TIP3    H238880   4.417   2.235  16.430 -0.0900 -0.1181 -0.6904
 5797TIP3   OH238881   4.999   5.599   6.057 -0.2685 -0.5100  0.2340
 5797TIP3    H138882   5.087   5.616   6.090  0.1724 -1.3164 -0.4774
 5797TIP3    H238883   4.949   5.571   6.134 -0.0356  0.4227  0.7284
 5798TIP3   OH238884   2.055   2.507  17.011  0.0910 -0.0946 -0.1785
 5798TIP3    H138885   1.985   2.552  17.059 -0.1253  1.5189 -1.9085
 5798TIP3    H238886   2.009   2.451  16.949  0.3752 -1.4777  0.8100
 5799TIP3   OH238887   5.177   5.249   5.633  0.0042 -0.0059 -0.4990
 5799TIP3    H138888   5.260   5.279   5.597 -0.0943 -0.6527 -1.3133
 5799TIP3    H238889   5.154   5.313   5.700  1.8790 -0.6183  0.7876
 5800TIP3   OH238890   5.523   1.435  14.849  0.1884 -0.0828  0.0153
 5800TIP3    H138891   5.482   1.358  14.888  0.3782  0.3303  1.0498
 5800TIP3    H238892   5.608   1.441  14.891  0.0323  0.9005  0.2224
 5801TIP3   OH238893   2.134   5.956   3.042 -0.2466 -0.4014  0.1225
 5801TIP3    H138894   2.149   5.976   2.949 -0.4449  0.8965  0.3564
 5801TIP3    H238895   2.042   5.928   3.046 -0.5232  0.4778  0.0648
 5802TIP3   OH238896   2.884   0.850  12.634 -0.7097  0.2871  0.4893
 5802TIP3    H138897   2.839   0.934  12.629 -1.0813  0.0866  0.4098
 5802TIP3    H238898   2.944   0.851  12.559 -2.3183 -0.4328 -0.9002
 5803TIP3   OH238899   4.059   0.126   5.119  0.0411 -0.2591 -0.5334
 5803TIP3    H138900   3.991   0.162   5.176 -0.2056  0.3510 -1.2062
 5803TIP3    H238901   4.031   0.036   5.103  0.0518 -0.4024  0.2114
 5804TIP3   OH238902   3.110   2.765   1.091 -0.1099 -0.5800  0.5697
 5804TIP3    H138903   3.054   2.702   1.137  0.1374 -1.3121 -0.1206
 5804TIP3    H238904   3.106   2.844   1.145 -0.5331 -1.1399  1.3760
 5805TIP3   OH238905   5.354   2.300   2.309  0.2642  0.0739 -0.2275
 5805TIP3    H138906   5.303   2.360   2.364  0.5207  0.7045 -0.6636
 5805TIP3    H238907   5.445   2.324   2.326  0.3567  0.0341 -0.6679
 5806TIP3   OH238908   1.798   3.856  17.078  0.4191  0.3432  0.1576
 5806TIP3    H138909   1.857   3.922  17.042  0.5564 -0.1621 -0.5834
 5806TIP3    H238910   1.793   3.876  17.172  2.0082  0.2295  0.3029
 5807TIP3   OH238911   5.700   0.264   4.083 -0.2821  0.0884  1.3123
 5807TIP3    H138912   5.661   0.178   4.094  1.9822 -1.3764 -0.9098
 5807TIP3    H238913   5.740   0.262   3.996 -2.1555  4.2898  0.0666
 5808TIP3   OH238914   0.281   0.121   5.044 -0.0445 -0.4126 -0.3223
 5808TIP3    H138915   0.346   0.051   5.035 -0.0048 -0.2430 -1.5723
 5808TIP3    H238916   0.241   0.127   4.957 -1.2865 -0.0779  0.2576
 5809TIP3   OH238917   3.289   5.683   3.295  0.1495  0.1305 -0.7025
 5809TIP3    H138918   3.247   5.605   3.258 -1.2442  0.6233 -0.2440
 5809TIP3    H238919   3.217   5.746   3.304  0.8847  0.8129  0.6843
 5810TIP3   OH238920   2.603   1.010   0.920 -0.2197  0.4784 -0.4297
 5810TIP3    H138921   2.675   0.948   0.923  0.6989  1.4895 -0.8991
 5810TIP3    H238922   2.540   0.971   0.860  0.1355 -0.1989 -0.3749
 5811TIP3   OH238923   1.268   1.534  15.458  0.1592 -0.0879  0.2433
 5811TIP3    H138924   1.329   1.597  15.497 -0.8090  0.7017  0.5171
 5811TIP3    H238925   1.255   1.468  15.526  0.8204 -0.3530  0.1244
 5812TIP3   OH238926   1.096   0.999  11.757 -0.9675 -0.2752 -0.4431
 5812TIP3    H138927   1.121   0.909  11.778  1.0106 -0.2160 -2.2766
 5812TIP3    H238928   1.143   1.052  11.821  2.2494 -0.3062 -2.5699
 5813TIP3   OH238929   1.958   2.114   1.697  0.4472 -0.0535  0.4440
 5813TIP3    H138930   1.872   2.139   1.731  0.3610  1.2746 -0.6549
 5813TIP3    H238931   1.941   2.089   1.606  0.8881 -2.0997  0.8617
 5814TIP3   OH238932   5.539   0.514  14.618 -0.7225 -0.3211 -0.2132
 5814TIP3    H138933   5.491   0.433  14.632 -1.4408  0.0112 -0.6684
 5814TIP3    H238934   5.572   0.508  14.529  0.6351 -0.8132  0.2989
 5815TIP3   OH238935   1.574   1.435   3.512  0.1015  0.5050 -0.1294
 5815TIP3    H138936   1.492   1.393   3.486 -0.9412  1.7864  0.9113
 5815TIP3    H238937   1.629   1.364   3.544 -0.3089 -0.4709 -1.5199
 5816TIP3   OH238938   5.262   1.827   5.716  0.0581 -0.3069  0.0651
 5816TIP3    H138939   5.263   1.731   5.714  1.7642 -0.3076 -1.8955
 5816TIP3    H238940   5.174   1.851   5.686 -0.6453 -1.2101  1.2819
 5817TIP3   OH238941   5.258   2.366   0.563  0.1112 -0.4195  0.3750
 5817TIP3    H138942   5.170   2.397   0.582  0.1467 -0.0153 -0.1082
 5817TIP3    H238943   5.299   2.357   0.650 -0.2092 -0.0253  0.5703
 5818TIP3   OH238944   3.731   0.645  13.443 -0.0175 -0.1486 -0.1679
 5818TIP3    H138945   3.710   0.560  13.483  0.0740  0.2221  0.6879
 5818TIP3    H238946   3.762   0.623  13.355  0.8411 -1.0815  0.3400
 5819TIP3   OH238947   6.506   1.291  10.438 -0.5312 -0.0242 -0.1867
 5819TIP3    H138948   6.463   1.347  10.503 -0.6209 -1.2560  0.8535
 5819TIP3    H238949   6.440   1.278  10.370 -0.3014  1.6148 -0.7726
 5820TIP3   OH238950   3.506   3.551  16.987  0.1821 -0.1507  0.3100
 5820TIP3    H138951   3.600   3.546  16.971  0.2630  1.6097  0.0634
 5820TIP3    H238952   3.489   3.643  17.004 -1.5707 -0.3482 -0.1409
 5821TIP3   OH238953   0.175   4.596   0.425  0.0335  0.0101 -0.5604
 5821TIP3    H138954   0.104   4.534   0.407  0.9305 -1.0387 -0.6171
 5821TIP3    H238955   0.130   4.677   0.452 -1.1651 -1.0546  0.8338
 5822TIP3   OH238956   2.624   3.538   4.239  0.1944  0.3695  0.9201
 5822TIP3    H138957   2.540   3.509   4.205  1.5316  0.6542 -3.1324
 5822TIP3    H238958   2.620   3.633   4.238  1.3907  0.4920 -2.1424
 5823TIP3   OH238959   6.559   2.382  15.960  0.5998 -0.3775  0.9563
 5823TIP3    H138960   6.466   2.367  15.978  0.5860 -2.6399 -0.6321
 5823TIP3    H238961   6.562   2.473  15.930 -1.3823 -0.7324 -0.5301
 5824TIP3   OH238962   1.662   4.203  15.014 -0.3603  0.3910 -0.3350
 5824TIP3    H138963   1.577   4.160  15.009 -0.1089 -0.4195  1.6774
 5824TIP3    H238964   1.726   4.133  15.002  0.0491  0.7450 -0.2864
 5825TIP3   OH238965   5.477   5.053   0.899  0.2045 -0.1878 -0.5182
 5825TIP3    H138966   5.392   5.097   0.893 -0.1972 -0.7745  0.5499
 5825TIP3    H238967   5.538   5.122   0.925 -0.0529  0.1228 -0.7324
 5826TIP3   OH238968   0.985   6.562  14.194  0.9929 -0.4171 -0.5689
 5826TIP3    H138969   0.915   6.550  14.129  1.0205  0.1332 -0.7063
 5826TIP3    H238970   1.006   6.474  14.223 -0.2348 -0.5453 -0.0146
 5827TIP3   OH238971   5.350   0.326  11.053  0.7459 -1.0828 -0.0408
 5827TIP3    H138972   5.259   0.297  11.051  0.1695  0.1767  2.6972
 5827TIP3    H238973   5.345   0.420  11.068  2.5439 -0.6067 -2.0347
 5828TIP3   OH238974   3.263   1.469  12.600  0.2969  0.2425  0.4256
 5828TIP3    H138975   3.335   1.492  12.542 -0.5243 -0.7165 -1.0359
 5828TIP3    H238976   3.269   1.531  12.673 -0.4432  3.5727 -2.1031
 5829TIP3   OH238977   4.044   3.824  15.903  0.7444  0.3329 -0.2858
 5829TIP3    H138978   4.103   3.809  15.977  2.4394  2.7600 -1.0031
 5829TIP3    H238979   4.034   3.920  15.900 -2.3646  0.0819 -0.9246
 5830TIP3   OH238980   2.563   0.723   0.406  0.2316 -0.1641  0.3730
 5830TIP3    H138981   2.579   0.629   0.391  0.8132 -0.1436  0.8306
 5830TIP3    H238982   2.649   0.763   0.396 -0.3116  0.6100 -1.7635
 5831TIP3   OH238983   4.815   5.689   2.680  0.5833 -0.2735  0.1900
 5831TIP3    H138984   4.885   5.625   2.672  1.3352  0.6078 -0.4924
 5831TIP3    H238985   4.846   5.752   2.746 -0.1662 -0.6072  0.8914
 5832TIP3   OH238986   4.299   4.461  12.701  0.4077  0.0121 -0.5012
 5832TIP3    H138987   4.390   4.476  12.723  0.0871  0.4643  0.5349
 5832TIP3    H238988   4.249   4.515  12.762 -0.5602 -0.3103 -0.9794
 5833TIP3   OH238989   5.773   6.536   4.427 -0.4145  0.8428 -0.5656
 5833TIP3    H138990   5.826   6.503   4.355 -0.6823  0.9001 -0.7878
 5833TIP3    H238991   5.817   6.617   4.455 -0.7524  1.2488 -1.1869
 5834TIP3   OH238992   3.441   6.650   1.479 -0.3206 -0.3662 -0.0231
 5834TIP3    H138993   3.499   6.727   1.477 -0.3186 -0.3680 -0.0308
 5834TIP3    H238994   3.355   6.685   1.455 -0.2212 -0.4536 -0.5169
 5835TIP3   OH238995   1.138   0.666   5.084 -1.0035  0.0435  0.7014
 5835TIP3    H138996   1.130   0.759   5.106  0.7006  0.6882 -1.1101
 5835TIP3    H238997   1.207   0.633   5.142 -0.3188  0.3887  0.0971
 5836TIP3   OH238998   5.213   1.596  14.212  0.2323 -0.4378  0.2630
 5836TIP3    H138999   5.185   1.594  14.120 -1.7506  0.2679  0.7965
 5836TIP3    H239000   5.249   1.684  14.224  2.2589 -1.1296 -0.2512
 5837TIP3   OH239001   3.815   1.974   0.711  0.3217 -0.0387  0.0116
 5837TIP3    H139002   3.797   1.957   0.618  1.8459  2.9443 -0.9849
 5837TIP3    H239003   3.730   1.966   0.754 -0.6228 -0.4532 -1.8270
 5838TIP3   OH239004   4.958   2.847   0.177 -0.4211  0.3569 -0.2646
 5838TIP3    H139005   5.013   2.776   0.211 -0.7797  1.1614  2.1877
 5838TIP3    H239006   4.905   2.874   0.251 -3.8490 -0.0185 -2.3625
 5839TIP3   OH239007   3.185   1.749  12.470 -0.3554 -0.1452  0.0254
 5839TIP3    H139008   3.254   1.703  12.423 -0.0831 -0.6975  0.9543
 5839TIP3    H239009   3.200   1.729  12.562 -1.7039 -0.2128  0.2567
 5840TIP3   OH239010   1.357   0.584  11.978 -0.2953 -0.5975 -0.2136
 5840TIP3    H139011   1.437   0.542  11.948  0.7509  1.2625 -0.0940
 5840TIP3    H239012   1.291   0.558  11.913  0.4585 -1.7966 -0.5418
 5841TIP3   OH239013   3.643   5.707   1.912 -0.3614 -0.4658  0.4081
 5841TIP3    H139014   3.685   5.674   1.832 -2.7159 -1.9033 -0.3186
 5841TIP3    H239015   3.708   5.692   1.981  1.3861 -0.0094 -1.0771
 5842TIP3   OH239016   0.314   0.783  15.020 -0.4291 -0.4456 -0.3491
 5842TIP3    H139017   0.261   0.823  15.088 -0.8319  0.9182 -1.4195
 5842TIP3    H239018   0.398   0.767  15.062 -1.7357 -3.1139  1.5326
 5843TIP3   OH239019   5.715   3.377   5.355 -0.3621  0.0877 -0.2416
 5843TIP3    H139020   5.769   3.384   5.434 -0.8544  0.9840  0.0236
 5843TIP3    H239021   5.769   3.326   5.294  0.8647  1.0893 -0.0328
 5844TIP3   OH239022   2.256   5.989  16.774 -0.2427 -0.0381 -0.0929
 5844TIP3    H139023   2.330   6.035  16.814 -0.7226 -0.3462  1.2013
 5844TIP3    H239024   2.200   6.058  16.739  0.0582  0.2544  0.0051
 5845TIP3   OH239025   1.222   3.934  16.118  0.2757 -0.3306  0.0520
 5845TIP3    H139026   1.277   4.012  16.113 -0.7331  0.5780  2.0575
 5845TIP3    H239027   1.282   3.864  16.147  0.9264 -0.0223 -0.5286
 5846TIP3   OH239028   0.759   2.786   1.333 -0.7385 -0.0590 -0.1951
 5846TIP3    H139029   0.830   2.812   1.274  0.8859 -2.2905  0.6474
 5846TIP3    H239030   0.697   2.741   1.277 -1.7412  2.1820 -0.9968
 5847TIP3   OH239031   6.616   1.165  16.326 -0.5045  0.0319  0.3228
 5847TIP3    H139032   6.678   1.126  16.264 -0.1802  1.2717 -0.1531
 5847TIP3    H239033   6.533   1.120  16.309  0.1949 -1.5912  0.9098
 5848TIP3   OH239034   4.446   4.474   2.282  0.6143  0.0352  0.1898
 5848TIP3    H139035   4.374   4.472   2.219  1.2333 -0.7273 -0.5100
 5848TIP3    H239036   4.422   4.545   2.342 -0.8041 -0.3139  0.0838
 5849TIP3   OH239037   1.609   1.393  11.770  0.0525 -0.5982 -1.2460
 5849TIP3    H139038   1.628   1.369  11.860  0.9935  2.6338 -0.4318
 5849TIP3    H239039   1.628   1.315  11.719  0.6039 -2.1776  1.2239
 5850TIP3   OH239040   6.464   0.893   2.372  0.8227 -0.4091  0.5410
 5850TIP3    H139041   6.441   0.869   2.462  0.3971 -0.8281  0.3227
 5850TIP3    H239042   6.384   0.879   2.322  1.1333 -0.4456  0.0448
 5851TIP3   OH239043   1.210   4.621  13.729  0.3066  0.3165 -0.1982
 5851TIP3    H139044   1.275   4.553  13.746 -1.1923 -0.9193  0.8461
 5851TIP3    H239045   1.166   4.592  13.648 -0.3805 -0.0393  0.2867
 5852TIP3   OH239046   2.815   2.679   6.646 -0.3306  0.0432 -0.4387
 5852TIP3    H139047   2.740   2.738   6.642  0.6501  1.4350  0.6691
 5852TIP3    H239048   2.785   2.599   6.602 -0.9718  2.0870 -4.1182
 5853TIP3   OH239049   6.789   0.449  12.629 -0.1305  0.8612 -0.0284
 5853TIP3    H139050   6.734   0.426  12.704  0.3528 -0.3424 -0.0262
 5853TIP3    H239051   6.730   0.439  12.554  0.2493 -1.1838 -0.0997
 5854TIP3   OH239052   3.413   5.794   2.012  0.2102  0.5337  0.3091
 5854TIP3    H139053   3.441   5.831   2.096  0.8012 -2.0540  1.3533
 5854TIP3    H239054   3.494   5.777   1.965 -0.0387  0.5268 -0.1189
 5855TIP3   OH239055   4.728   3.397   0.245 -0.1367 -0.1309 -0.0777
 5855TIP3    H139056   4.812   3.353   0.234  0.1749  0.4872 -0.2257
 5855TIP3    H239057   4.700   3.417   0.156 -2.1869 -3.4624 -0.3492
 5856TIP3   OH239058   5.184   0.306   5.301  0.4347 -0.5655 -0.6604
 5856TIP3    H139059   5.132   0.229   5.277  2.1105 -1.6996 -0.8159
 5856TIP3    H239060   5.252   0.311   5.235  0.8392  0.5787 -0.1784
 5857TIP3   OH239061   0.872   5.786   1.460 -0.6906 -0.1365 -0.0717
 5857TIP3    H139062   0.837   5.801   1.548 -1.7675 -1.5134 -0.2282
 5857TIP3    H239063   0.805   5.733   1.417 -0.4101  0.9425 -1.9093
 5858TIP3   OH239064   2.607   0.438   3.726 -0.1262 -0.7723 -0.1031
 5858TIP3    H139065   2.568   0.445   3.639 -0.0433  3.8817  0.0019
 5858TIP3    H239066   2.618   0.343   3.740 -1.2450 -1.7846 -4.5681
 5859TIP3   OH239067   0.683   1.271  14.573 -0.5458 -0.6773 -0.1096
 5859TIP3    H139068   0.596   1.297  14.604 -0.3843 -1.7348  1.3386
 5859TIP3    H239069   0.728   1.354  14.555 -2.2536 -0.1128 -2.1846
 5860TIP3   OH239070   2.006   6.644  12.508  0.3588 -0.0585 -0.1913
 5860TIP3    H139071   2.087   6.595  12.504 -0.5570 -1.6068 -0.3665
 5860TIP3    H239072   1.941   6.582  12.541 -0.6825  1.2444  0.3050
 5861TIP3   OH239073   2.079   6.462  16.697  0.5362 -0.2180 -0.3810
 5861TIP3    H139074   2.123   6.546  16.686 -1.2953  0.7495 -0.6575
 5861TIP3    H239075   2.011   6.461  16.630 -1.0673 -0.8177  1.1836
 5862TIP3   OH239076   5.745   4.848   5.570 -0.6245  0.0443 -0.7297
 5862TIP3    H139077   5.705   4.823   5.653  1.5287  1.1046  0.7347
 5862TIP3    H239078   5.756   4.766   5.523 -2.3062 -0.5220 -0.1961
 5863TIP3   OH239079   3.493   4.325  14.185 -0.3221  0.1756 -0.1294
 5863TIP3    H139080   3.504   4.420  14.181 -0.8576  0.1805 -2.4798
 5863TIP3    H239081   3.582   4.290  14.191 -0.1170  0.8008  0.5326
 5864TIP3   OH239082   4.250   3.123   3.149 -0.2307  0.5608  0.4670
 5864TIP3    H139083   4.219   3.142   3.061 -0.8327  0.1876  0.5904
 5864TIP3    H239084   4.315   3.054   3.138  0.3612  1.1470  0.2329
 5865TIP3   OH239085   2.380   0.782  14.985  0.1570 -0.1742  0.6733
 5865TIP3    H139086   2.309   0.718  14.989 -0.9238  0.9197 -0.3982
 5865TIP3    H239087   2.450   0.737  14.938 -0.7267 -0.4698 -0.3925
 5866TIP3   OH239088   5.075   5.878   4.097 -0.1472 -0.5191  0.3040
 5866TIP3    H139089   5.043   5.803   4.147  0.1245 -0.6786  0.2382
 5866TIP3    H239090   5.060   5.854   4.005 -2.8574  0.7372  0.3199
 5867TIP3   OH239091   2.868   3.145  12.627  0.3896 -0.4907  0.0904
 5867TIP3    H139092   2.866   3.169  12.720 -0.6373  0.6579 -0.2029
 5867TIP3    H239093   2.955   3.173  12.597  0.5728 -0.4982  0.6091
 5868TIP3   OH239094   6.828   3.940   1.004 -0.0342 -0.0279  0.3844
 5868TIP3    H139095   6.770   3.911   0.934  0.0737 -0.3637  0.4347
 5868TIP3    H239096   6.778   4.008   1.049  1.2122  2.8130 -2.1791
 5869TIP3   OH239097   4.520   4.485  12.869  0.1463  0.5552 -0.0064
 5869TIP3    H139098   4.466   4.494  12.947 -1.1221  0.2759 -0.8245
 5869TIP3    H239099   4.592   4.547  12.882 -1.1842  2.0662  0.4295
 5870TIP3   OH239100   6.372   3.188  11.235 -0.0050 -0.4894  0.3397
 5870TIP3    H139101   6.279   3.164  11.244 -0.1001 -0.5056 -0.5837
 5870TIP3    H239102   6.383   3.206  11.142  0.6546  0.6463  0.6224
 5871TIP3   OH239103   5.651   1.232   2.472  0.1801  0.0652 -0.3254
 5871TIP3    H139104   5.591   1.170   2.515 -1.3188  0.3675 -1.8562
 5871TIP3    H239105   5.669   1.193   2.387  1.0951  0.6479 -0.4094
 5872TIP3   OH239106   1.996   4.999  11.269 -0.3054  0.2000 -0.5022
 5872TIP3    H139107   1.964   4.987  11.358 -0.6079  0.4692 -0.5759
 5872TIP3    H239108   2.068   5.062  11.277 -0.5256  0.4488 -0.4899
 5873TIP3   OH239109   5.697   1.602  11.334 -0.3708 -0.2713  0.5220
 5873TIP3    H139110   5.628   1.643  11.282 -1.2032  1.4580  2.8563
 5873TIP3    H239111   5.777   1.616  11.282 -1.3445  0.0281 -0.9690
 5874TIP3   OH239112   4.700   6.573   1.462  0.2344  0.0005  0.2530
 5874TIP3    H139113   4.646   6.642   1.499 -0.0043 -0.4151  0.6947
 5874TIP3    H239114   4.720   6.515   1.536  0.8812 -0.1119  0.0008
 5875TIP3   OH239115   4.083   2.037  13.183 -0.2416 -0.1795 -0.1449
 5875TIP3    H139116   4.103   1.977  13.254 -1.5911  0.9649  1.2832
 5875TIP3    H239117   4.103   2.124  13.219 -0.9337  0.4231 -1.1588
 5876TIP3   OH239118   1.062   2.199  15.606  0.0185 -0.0458  0.0925
 5876TIP3    H139119   1.035   2.216  15.516 -0.4082 -1.8800 -0.1752
 5876TIP3    H239120   0.981   2.199  15.656  0.4532  3.7105  1.0851
 5877TIP3   OH239121   3.371   3.376  13.476 -0.2547 -0.4678 -0.2357
 5877TIP3    H139122   3.446   3.318  13.462 -0.5084 -0.8059 -0.2039
 5877TIP3    H239123   3.316   3.330  13.539  1.1314  1.2808  2.4417
 5878TIP3   OH239124   4.297   4.143  11.158  0.3998  0.0216  0.3788
 5878TIP3    H139125   4.243   4.223  11.159  1.5273  0.8058  0.4711
 5878TIP3    H239126   4.309   4.121  11.250  0.8702  0.3022  0.3894
 5879TIP3   OH239127   5.731   2.279  12.755  0.1082 -0.0029  0.2198
 5879TIP3    H139128   5.811   2.228  12.768  0.1863  0.2432  0.7637
 5879TIP3    H239129   5.663   2.229  12.800 -0.1030 -0.3528 -0.4816
 5880TIP3   OH239130   0.980   2.892  13.070 -0.0585 -0.5000  0.1613
 5880TIP3    H139131   0.941   2.840  13.000 -1.9189  0.1118  0.6904
 5880TIP3    H239132   1.044   2.833  13.111  2.1845 -0.4231 -2.8669
 5881TIP3   OH239133   2.767   3.782  12.255  0.0845  0.1346 -1.0369
 5881TIP3    H139134   2.791   3.823  12.172 -1.5272  1.9595 -0.6769
 5881TIP3    H239135   2.736   3.855  12.310  0.7431 -1.0667  1.0417
 5882TIP3   OH239136   4.355   2.329   3.916 -0.6772  0.2416  0.3731
 5882TIP3    H139137   4.388   2.369   3.836 -1.7520  1.8069  0.6632
 5882TIP3    H239138   4.410   2.366   3.986 -0.5824 -0.1160  0.4923
 5883TIP3   OH239139   1.895   4.415  10.836 -0.7090  0.2052  0.6278
 5883TIP3    H139140   1.990   4.423  10.830 -0.5871 -1.8691 -1.3029
 5883TIP3    H239141   1.880   4.364  10.916 -0.0532 -0.9988  0.0106
 5884TIP3   OH239142   0.524   6.446   2.138 -0.6543 -0.0799 -0.1507
 5884TIP3    H139143   0.499   6.538   2.128 -0.6694 -0.1703 -1.0539
 5884TIP3    H239144   0.611   6.449   2.177  0.6036  0.4451 -2.7564
 5885TIP3   OH239145   4.562   4.056   1.931  0.0483 -0.1677  0.3477
 5885TIP3    H139146   4.541   3.964   1.949 -0.2444 -0.0250  0.7412
 5885TIP3    H239147   4.658   4.061   1.940  0.2398 -0.7334 -1.0582
 5886TIP3   OH239148   2.421   4.677  12.896 -0.0716  0.2633 -0.1068
 5886TIP3    H139149   2.421   4.614  12.824  1.7290 -0.4736  0.4830
 5886TIP3    H239150   2.355   4.644  12.956  1.1100 -1.3298  0.3730
 5887TIP3   OH239151   2.349   2.419  15.582 -0.2829 -0.5339  0.2034
 5887TIP3    H139152   2.376   2.509  15.602 -1.4449 -0.2004  0.3632
 5887TIP3    H239153   2.255   2.425  15.568  0.0377 -1.1556 -3.0892
 5888TIP3   OH239154   4.919   3.769   0.569  0.2059  0.1148 -0.5269
 5888TIP3    H139155   5.005   3.730   0.586  0.8299  2.2145  1.5564
 5888TIP3    H239156   4.857   3.696   0.583  1.5024 -0.9100  0.1036
 5889TIP3   OH239157   3.973   3.350   2.918  0.0575  0.9956  0.0327
 5889TIP3    H139158   4.010   3.429   2.957  1.3249 -0.0740  1.0912
 5889TIP3    H239159   3.982   3.283   2.985  0.3487 -0.4153 -1.3428
 5890TIP3   OH239160   4.645   0.332  15.651 -0.7346  0.0643 -0.3079
 5890TIP3    H139161   4.670   0.250  15.692 -0.9214 -0.0823 -0.4847
 5890TIP3    H239162   4.550   0.336  15.659 -0.6501  0.6667  0.4460
 5891TIP3   OH239163   1.288   0.004   4.326 -0.2303 -0.2506 -0.3973
 5891TIP3    H139164   1.383  -0.004   4.317 -0.0297  1.8062 -0.5871
 5891TIP3    H239165   1.274   0.025   4.419 -0.1704  2.5814 -0.9554
 5892TIP3   OH239166   0.211   3.224  15.569 -0.2725 -0.0974  0.3296
 5892TIP3    H139167   0.161   3.158  15.522 -0.5988 -0.5498  1.2913
 5892TIP3    H239168   0.277   3.174  15.617  2.4075  0.5828 -2.3560
 5893TIP3   OH239169   0.478   4.938   4.860  0.4643 -0.5280  0.3977
 5893TIP3    H139170   0.439   4.850   4.857 -1.9054  0.4606 -0.4653
 5893TIP3    H239171   0.518   4.943   4.947 -0.6046 -1.9627  1.0274
 5894TIP3   OH239172   4.216   0.922   1.755  0.6783  0.7278 -0.9318
 5894TIP3    H139173   4.295   0.891   1.711  0.4021 -0.7313 -0.4776
 5894TIP3    H239174   4.158   0.951   1.685  1.4398  1.3856 -1.2965
 5895TIP3   OH239175   3.434   4.841  15.917  0.4430  0.5165 -0.4489
 5895TIP3    H139176   3.437   4.756  15.873 -0.1075  1.3149 -2.1075
 5895TIP3    H239177   3.521   4.851  15.956  0.7529 -0.4913 -0.8371
 5896TIP3   OH239178   4.094   5.578  15.561  0.6626 -0.2013  0.1505
 5896TIP3    H139179   4.013   5.613  15.598  0.5610 -0.4008  0.1163
 5896TIP3    H239180   4.136   5.532  15.634  1.6563  1.4497  0.6919
 5897TIP3   OH239181   3.381   2.832   0.697 -0.4568  0.1667 -0.3099
 5897TIP3    H139182   3.330   2.844   0.617  0.2381 -1.4891 -1.0421
 5897TIP3    H239183   3.316   2.839   0.768 -1.2370  0.6861 -1.0509
 5898TIP3   OH239184   5.563   1.183   0.262 -0.4243  0.5677 -0.2861
 5898TIP3    H139185   5.480   1.137   0.253 -0.1391 -0.1300  0.4946
 5898TIP3    H239186   5.574   1.195   0.356 -0.2695  1.8573 -0.4393
 5899TIP3   OH239187   1.853   3.843   5.278  0.4348 -0.1148  0.4817
 5899TIP3    H139188   1.807   3.919   5.313  0.8558  0.6390 -0.5645
 5899TIP3    H239189   1.833   3.844   5.184  1.9928 -0.1920  0.1351
 5900TIP3   OH239190   3.732   1.693   3.984 -0.3103  0.0090 -0.4941
 5900TIP3    H139191   3.797   1.652   3.927 -0.4711  0.4858 -1.0349
 5900TIP3    H239192   3.714   1.627   4.052  0.5422 -0.2179 -0.4830
 5901TIP3   OH239193   4.191   6.152   4.010 -0.4130 -0.2920 -0.1018
 5901TIP3    H139194   4.275   6.198   4.015 -0.3374 -0.2783 -1.1444
 5901TIP3    H239195   4.206   6.070   4.058  0.4918 -0.6913 -1.0198
 5902TIP3   OH239196   3.371   4.260   4.605 -0.5031  0.0354  0.1037
 5902TIP3    H139197   3.400   4.293   4.520 -1.8656  1.1740  0.0442
 5902TIP3    H239198   3.422   4.309   4.669 -2.6091  2.5417  0.0251
 5903TIP3   OH239199   6.451   2.958  15.553 -0.0476 -0.7546 -0.4780
 5903TIP3    H139200   6.489   3.004  15.627 -1.7509  0.5091 -0.3493
 5903TIP3    H239201   6.489   3.000  15.476 -1.8371  1.1934 -0.3714
 5904TIP3   OH239202   4.612   6.090   1.770 -0.2024  0.7772  0.5765
 5904TIP3    H139203   4.682   6.140   1.813 -0.2482 -0.7717  2.5889
 5904TIP3    H239204   4.658   6.034   1.708 -0.1074  2.8187 -1.3215
 5905TIP3   OH239205   1.168   6.198   3.254  0.0993 -0.2012 -0.1149
 5905TIP3    H139206   1.111   6.150   3.194 -0.5751 -1.3562  1.3587
 5905TIP3    H239207   1.125   6.188   3.340  0.9050  1.5440  0.5415
 5906TIP3   OH239208   5.489   3.611  12.826  0.7137 -0.2093 -0.4614
 5906TIP3    H139209   5.526   3.692  12.860 -0.4149  0.9020 -1.8058
 5906TIP3    H239210   5.403   3.604  12.868  2.1594 -2.7141  2.5478
 5907TIP3   OH239211   4.682   1.196  16.645 -0.0677 -0.1283 -0.8445
 5907TIP3    H139212   4.760   1.215  16.592 -0.5643 -2.3963 -2.5389
 5907TIP3    H239213   4.616   1.257  16.613  0.9566  1.8362  0.6286
 5908TIP3   OH239214   3.924   5.852  13.833 -0.0628 -0.9338  0.2663
 5908TIP3    H139215   3.934   5.854  13.738  0.1357 -0.5875  0.2921
 5908TIP3    H239216   3.830   5.844  13.847 -0.1924 -0.0053  0.0373
 5909TIP3   OH239217   6.707   3.689  16.978 -0.1267 -0.6080 -0.0000
 5909TIP3    H139218   6.711   3.610  16.925  1.6316 -0.2709 -0.4514
 5909TIP3    H239219   6.767   3.750  16.934 -0.0071  0.3055  1.3785
 5910TIP3   OH239220   3.348   1.077   5.652  0.2431  0.2143  0.2815
 5910TIP3    H139221   3.350   1.125   5.735  0.2115 -0.6838  0.8150
 5910TIP3    H239222   3.256   1.050   5.642 -0.0116  1.3738 -0.6773
 5911TIP3   OH239223   0.526   4.184   5.162  0.1684  0.0931  0.5049
 5911TIP3    H139224   0.444   4.184   5.113 -0.6597 -1.3694  1.8224
 5911TIP3    H239225   0.504   4.227   5.245  0.2228 -1.9229  1.6083
 5912TIP3   OH239226   2.409   2.906  13.086 -0.3275 -0.8830  0.4913
 5912TIP3    H139227   2.370   2.958  13.155  1.5350  1.0895  0.1480
 5912TIP3    H239228   2.484   2.863  13.127  2.8591  2.8804 -0.7611
 5913TIP3   OH239229   1.527   1.624   5.907 -0.1492  0.1351  0.3955
 5913TIP3    H139230   1.574   1.685   5.850  0.6239 -0.2807  0.5621
 5913TIP3    H239231   1.462   1.583   5.850  0.5384 -0.1926 -0.1734
 5914TIP3   OH239232   0.374   5.000  11.479 -0.0904 -0.5632  0.1888
 5914TIP3    H139233   0.449   4.944  11.501  0.5256  0.2527  0.1764
 5914TIP3    H239234   0.396   5.038  11.395  0.2776  1.0156  0.9682
 5915TIP3   OH239235   5.316   3.990   5.496  0.5170 -0.0389 -0.0425
 5915TIP3    H139236   5.410   3.977   5.493  0.2851 -1.8490 -0.1159
 5915TIP3    H239237   5.298   4.054   5.427  1.4845 -1.0185 -1.2317
 5916TIP3   OH239238   3.149   5.938   5.702 -0.5930  0.5028 -0.6017
 5916TIP3    H139239   3.196   5.999   5.758 -2.5384  1.6045 -0.0626
 5916TIP3    H239240   3.076   5.908   5.756 -0.4849 -1.2243 -1.3579
 5917TIP3   OH239241   5.970   0.566  17.014 -0.2118 -0.5823  0.0947
 5917TIP3    H139242   5.960   0.649  16.968  1.2787 -1.6690 -2.4144
 5917TIP3    H239243   5.902   0.510  16.976 -1.0305 -0.6257  1.5667
 5918TIP3   OH239244   4.155   3.792  11.134  0.3855  0.0111  0.4094
 5918TIP3    H139245   4.154   3.699  11.114 -0.1514 -0.1200  1.0081
 5918TIP3    H239246   4.246   3.819  11.121  0.4719 -0.5173 -0.0991
 5919TIP3   OH239247   1.574   5.936   4.371  0.0424 -0.1025 -0.7391
 5919TIP3    H139248   1.584   5.949   4.465 -0.9750 -0.8966 -0.5077
 5919TIP3    H239249   1.586   6.024   4.333 -0.8517  0.4656  0.2457
 5920TIP3   OH239250   1.315   6.632   3.014 -0.1096 -0.1329  0.5910
 5920TIP3    H139251   1.312   6.664   3.104 -0.3273  1.4078  0.0571
 5920TIP3    H239252   1.375   6.691   2.969  0.0159 -0.8966 -0.2851
 5921TIP3   OH239253   4.552   2.170  10.647 -0.8522 -0.2737 -0.1128
 5921TIP3    H139254   4.565   2.166  10.742 -0.7977  1.5316  0.0079
 5921TIP3    H239255   4.539   2.080  10.620  1.2527 -1.0798  1.3145
 5922TIP3   OH239256   0.156   3.571   3.466 -0.1650 -0.0917 -0.5495
 5922TIP3    H139257   0.233   3.524   3.499 -0.5844 -0.5012 -0.1319
 5922TIP3    H239258   0.177   3.593   3.376  1.0401  1.0861 -0.0233
 5923TIP3   OH239259   3.405   3.741  12.113  0.1736 -0.3612  0.2081
 5923TIP3    H139260   3.317   3.769  12.088  0.0280 -1.5313 -0.6857
 5923TIP3    H239261   3.404   3.743  12.209 -0.7172 -0.0540  0.2051
 5924TIP3   OH239262   5.992   6.698  12.146  0.2839 -0.2658  0.3419
 5924TIP3    H139263   6.021   6.788  12.162  0.0267 -0.0728 -0.2730
 5924TIP3    H239264   5.897   6.704  12.139  0.3161 -0.4921 -0.3110
 5925TIP3   OH239265   0.188   3.021   1.912 -0.3382  0.1016 -0.2046
 5925TIP3    H139266   0.125   3.094   1.914 -0.0023  0.3863  1.0315
 5925TIP3    H239267   0.267   3.060   1.874 -0.2945  0.2711  0.0561
 5926TIP3   OH239268   4.547   5.401   3.685 -0.1474  0.1045  0.4568
 5926TIP3    H139269   4.469   5.390   3.631  0.6463  1.7513 -1.1519
 5926TIP3    H239270   4.620   5.377   3.627  0.5912 -2.9223  2.3724
 5927TIP3   OH239271   4.458   5.198   5.102 -0.0025  0.7254 -0.4081
 5927TIP3    H139272   4.510   5.277   5.114 -0.9831  0.9811  3.1713
 5927TIP3    H239273   4.518   5.126   5.119  0.2229  0.7790 -0.9329
 5928TIP3   OH239274   5.068   3.170  14.548 -0.1586  0.1532  0.8567
 5928TIP3    H139275   5.132   3.189  14.479  1.5612  1.7735  2.7651
 5928TIP3    H239276   5.104   3.092  14.591  0.1590  0.6424  1.4835
 5929TIP3   OH239277   3.163   1.869  16.714 -0.1481  0.4156  0.0530
 5929TIP3    H139278   3.104   1.853  16.641 -0.0721  0.0829  0.0646
 5929TIP3    H239279   3.107   1.900  16.784 -0.5198 -1.2617  0.5275
 5930TIP3   OH239280   0.619   5.999  14.766  0.4298  0.1052  0.2139
 5930TIP3    H139281   0.692   6.058  14.745  0.2374  0.0221 -0.7245
 5930TIP3    H239282   0.579   6.038  14.843  1.9605 -0.2924  1.2683
 5931TIP3   OH239283   1.688   1.607  13.539 -0.4586  0.0255  0.1542
 5931TIP3    H139284   1.706   1.522  13.498  0.7270  0.5080 -0.3749
 5931TIP3    H239285   1.743   1.669  13.490 -0.5634  0.9371  1.1629
 5932TIP3   OH239286   2.227   0.079  13.895 -0.3847 -0.0659  0.7562
 5932TIP3    H139287   2.294   0.041  13.952 -0.7417 -1.9616  0.0118
 5932TIP3    H239288   2.227   0.172  13.916  1.6544 -0.1962  1.6129
 5933TIP3   OH239289   0.803   3.662  10.947 -0.3105  0.0414  0.4954
 5933TIP3    H139290   0.844   3.600  11.007  0.9148 -1.3869 -1.6658
 5933TIP3    H239291   0.873   3.723  10.924 -0.4034 -0.1501 -0.3407
 5934TIP3   OH239292   1.230   3.071   6.631  0.1190 -0.1775  0.3857
 5934TIP3    H139293   1.191   3.061   6.718 -0.7546 -2.6878 -0.2193
 5934TIP3    H239294   1.285   2.994   6.620  0.9714  0.5839 -0.9525
 5935TIP3   OH239295   4.697   3.109   1.482  0.2319 -0.0696  1.0408
 5935TIP3    H139296   4.658   3.127   1.568 -0.8547 -1.0582  0.7763
 5935TIP3    H239297   4.791   3.118   1.496  0.0151  0.8880  2.0603
 5936TIP3   OH239298   4.712   3.746  14.398  0.4086 -0.6988 -0.3934
 5936TIP3    H139299   4.661   3.674  14.435  0.0052 -0.4739 -0.5155
 5936TIP3    H239300   4.675   3.760  14.311  0.6170 -0.4721 -0.4472
 5937TIP3   OH239301   3.723   5.152   1.548  0.0639 -0.3076  0.5703
 5937TIP3    H139302   3.644   5.106   1.575 -0.0404  0.0479  0.8809
 5937TIP3    H239303   3.769   5.090   1.492  0.3227 -1.0911  1.6289
 5938TIP3   OH239304   6.310   5.317  14.276  0.7682 -0.7492  0.5546
 5938TIP3    H139305   6.360   5.391  14.243  1.1739 -0.6337  1.4001
 5938TIP3    H239306   6.376   5.254  14.305  0.4232 -1.2777  0.2134
 5939TIP3   OH239307   6.354   0.365   5.485  0.2070  0.3193  0.2356
 5939TIP3    H139308   6.436   0.414   5.483  0.1516  0.3978 -0.6817
 5939TIP3    H239309   6.288   0.427   5.454 -0.5701  0.8529  2.7308
 5940TIP3   OH239310   3.011   5.243  15.803 -0.0921  0.2223 -0.1477
 5940TIP3    H139311   2.994   5.255  15.710  0.7571 -0.5651 -0.4164
 5940TIP3    H239312   3.090   5.294  15.821  0.1194 -0.1493 -0.0053
 5941TIP3   OH239313   2.077   6.295   2.024 -0.1906 -0.1877 -0.1560
 5941TIP3    H139314   2.004   6.233   2.017 -0.9099  0.6681 -0.3880
 5941TIP3    H239315   2.143   6.260   1.964 -1.0044 -0.1897 -1.0988
 5942TIP3   OH239316   5.119   0.162   3.374  0.2416 -0.6034 -0.5541
 5942TIP3    H139317   5.066   0.105   3.429  1.3161  0.6205  1.8980
 5942TIP3    H239318   5.191   0.190   3.431  0.8936  1.5272 -2.2865
 5943TIP3   OH239319   0.212   0.117  15.701  0.4047 -0.1349  0.2413
 5943TIP3    H139320   0.117   0.116  15.709 -0.0882 -0.5734 -3.7015
 5943TIP3    H239321   0.236   0.210  15.702 -0.2947  0.0577 -0.4335
 5944TIP3   OH239322   6.449   5.874   2.137  0.4712  0.4875 -0.1917
 5944TIP3    H139323   6.371   5.890   2.190  1.9271  0.2860  2.1994
 5944TIP3    H239324   6.444   5.782   2.113  0.4855  0.1794  0.9235
 5945TIP3   OH239325   5.010   3.828   5.621  0.0133  0.9505  0.5000
 5945TIP3    H139326   5.058   3.905   5.590  1.0592  1.5393  3.3522
 5945TIP3    H239327   4.949   3.863   5.686 -3.9832  0.1360 -2.3647
 5946TIP3   OH239328   1.226   2.209   3.566 -0.0533  0.0155 -0.2165
 5946TIP3    H139329   1.319   2.228   3.580  0.5576 -2.9106  0.4331
 5946TIP3    H239330   1.204   2.144   3.633 -1.5017 -2.2086 -2.6079
 5947TIP3   OH239331   6.431   0.146  13.859 -0.1578  0.7123 -0.0192
 5947TIP3    H139332   6.382   0.094  13.922 -0.6485  1.3974  0.1819
 5947TIP3    H239333   6.420   0.100  13.775 -2.3999  1.6025 -0.2942
 5948TIP3   OH239334   6.544   3.073  16.939  0.2362 -0.8052 -0.0339
 5948TIP3    H139335   6.471   3.080  16.878 -0.1414  1.1404  0.5607
 5948TIP3    H239336   6.554   2.979  16.956 -0.8567 -1.2323 -1.6097
 5949TIP3   OH239337   1.069   6.497   5.357  0.9300 -0.0374  0.4698
 5949TIP3    H139338   1.135   6.431   5.335 -1.2683 -2.1459 -0.1728
 5949TIP3    H239339   1.019   6.510   5.277 -0.4546  0.3048  1.3461
 5950TIP3   OH239340   2.513   6.097   2.594 -0.3613  0.1200  0.2919
 5950TIP3    H139341   2.565   6.132   2.522  0.1071  0.3232  0.7309
 5950TIP3    H239342   2.435   6.061   2.551  0.2961 -0.5052 -0.4052
 5951TIP3   OH239343   5.220   2.403  11.714 -0.1084  0.3783  0.8912
 5951TIP3    H139344   5.235   2.420  11.807 -2.4845 -2.6096  1.9714
 5951TIP3    H239345   5.217   2.308  11.707  0.7380  0.4876 -2.4334
 5952TIP3   OH239346   4.473   5.341   0.495  0.2885 -0.4613 -0.2260
 5952TIP3    H139347   4.411   5.346   0.422 -0.9997  2.0164  0.9197
 5952TIP3    H239348   4.531   5.417   0.483 -0.1228  0.1671  1.4151
 5953TIP3   OH239349   6.002   1.314   5.348 -0.1703 -0.3659 -0.0573
 5953TIP3    H139350   5.995   1.392   5.403 -0.5804 -0.4035 -0.0572
 5953TIP3    H239351   5.913   1.298   5.316 -0.2544 -1.3375  0.6236
 5954TIP3   OH239352   5.792   6.492  11.868 -0.4969  0.7689 -0.1493
 5954TIP3    H139353   5.862   6.521  11.927  0.1344  0.9712 -0.9856
 5954TIP3    H239354   5.818   6.403  11.843  0.1788  1.3220 -1.5102
 5955TIP3   OH239355   3.034   0.009  14.478  0.0944 -0.3949  0.5316
 5955TIP3    H139356   3.061   0.099  14.459  0.6951 -1.1781 -2.9063
 5955TIP3    H239357   2.954   0.018  14.530  0.0382  2.1112  0.1143
 5956TIP3   OH239358   4.695   0.998  15.864 -0.1875 -0.4084  0.0305
 5956TIP3    H139359   4.759   1.057  15.823  2.9662 -2.6703  1.2633
 5956TIP3    H239360   4.725   0.911  15.839 -1.7386 -1.6419  2.2160
 5957TIP3   OH239361   6.238   5.590  14.463  0.6022 -0.2120  0.2858
 5957TIP3    H139362   6.277   5.660  14.516 -0.2716  0.4701  0.0536
 5957TIP3    H239363   6.253   5.618  14.372 -0.2158 -0.0416  0.1928
 5958TIP3   OH239364   2.062   2.957   6.036  0.3446  0.1429  0.5191
 5958TIP3    H139365   2.007   2.946   6.113  2.7054 -1.2753  2.1204
 5958TIP3    H239366   2.087   3.050   6.038  2.4963 -0.3906  3.0965
 5959TIP3   OH239367   3.553   3.728  16.736 -0.2280  0.5061  0.5132
 5959TIP3    H139368   3.476   3.784  16.744  0.1549  0.7366  3.8730
 5959TIP3    H239369   3.532   3.651  16.788  0.7806 -0.7351 -0.8369
 5960TIP3   OH239370   0.707   4.657  11.017  0.3031  0.2269 -0.0264
 5960TIP3    H139371   0.651   4.583  11.040  1.6056 -2.0165 -3.4312
 5960TIP3    H239372   0.782   4.649  11.076  1.1112 -2.1307 -1.2872
 5961TIP3   OH239373   2.288   3.380   3.969 -0.4210  0.3002 -0.1271
 5961TIP3    H139374   2.318   3.426   4.048  0.5758 -1.4113  0.5439
 5961TIP3    H239375   2.204   3.422   3.948  0.0657  1.8854  0.8730
 5962TIP3   OH239376   3.849   4.456   5.712  0.1630 -0.4345 -0.2477
 5962TIP3    H139377   3.869   4.524   5.647  0.0862 -0.7844 -0.6437
 5962TIP3    H239378   3.925   4.455   5.770  0.7411 -0.8828 -0.9935
 5963TIP3   OH239379   3.728   4.761  10.322 -0.7737  0.0863  0.1331
 5963TIP3    H139380   3.729   4.847  10.280 -0.6521 -1.4277 -3.3034
 5963TIP3    H239381   3.812   4.722  10.298 -1.0749 -1.2448  1.1121
 5964TIP3   OH239382   5.995   2.314  13.910  0.1038 -0.4482 -0.4294
 5964TIP3    H139383   5.993   2.360  13.994  1.2589  1.4843 -1.3959
 5964TIP3    H239384   6.075   2.261  13.913 -0.4404 -1.2652  0.0944
 5965TIP3   OH239385   1.945   5.493   2.231 -0.6549  0.5123  0.0106
 5965TIP3    H139386   1.972   5.469   2.142  0.3967  0.3046  0.3734
 5965TIP3    H239387   1.896   5.574   2.220  0.4625  1.1270 -0.6439
 5966TIP3   OH239388   5.024   3.290  12.207 -0.1500 -0.1250  0.6747
 5966TIP3    H139389   5.010   3.200  12.237  2.0689 -0.0032  2.3667
 5966TIP3    H239390   5.060   3.281  12.119 -1.3404 -0.7862  0.2277
 5967TIP3   OH239391   4.458   2.361   4.302 -0.5572  0.4847  0.1973
 5967TIP3    H139392   4.503   2.399   4.226 -1.1065  1.0158  0.1295
 5967TIP3    H239393   4.513   2.382   4.376  0.7994 -1.3736 -0.2091
 5968TIP3   OH239394   6.731   0.142  15.307  0.2888  0.1601  0.4782
 5968TIP3    H139395   6.673   0.093  15.248 -1.1001  0.3084  1.6580
 5968TIP3    H239396   6.681   0.148  15.389  2.3912 -0.5818  1.8877
 5969TIP3   OH239397   1.191   5.217  12.778  0.1487 -0.0976  0.6077
 5969TIP3    H139398   1.195   5.163  12.699  0.8319  0.7442  0.0515
 5969TIP3    H239399   1.098   5.220  12.799 -0.1290  0.2072 -0.5635
 5970TIP3   OH239400   3.635   4.831  11.202 -0.1169 -0.5930  0.4741
 5970TIP3    H139401   3.724   4.854  11.175  0.0607 -1.7139  0.0467
 5970TIP3    H239402   3.579   4.880  11.142  0.2657 -1.8910 -1.0173
 5971TIP3   OH239403   0.023   4.122  14.483  0.1572 -0.0564 -0.4741
 5971TIP3    H139404   0.097   4.065  14.505  0.0489 -0.3513 -0.8550
 5971TIP3    H239405   0.061   4.209  14.476  0.3957 -0.1428 -0.2674
 5972TIP3   OH239406   1.379   0.000  14.725  0.7641 -0.1984 -0.2509
 5972TIP3    H139407   1.340  -0.033  14.645 -0.4737  1.0500 -0.2104
 5972TIP3    H239408   1.316  -0.024  14.794  0.1089  1.6287 -0.1535
 5973TIP3   OH239409   4.732   1.988  16.384  0.4757 -0.1251  0.0376
 5973TIP3    H139410   4.675   1.991  16.308  0.0458 -1.0155  0.3125
 5973TIP3    H239411   4.673   1.978  16.459  0.7267  2.8137  0.7592
 5974TIP3   OH239412   5.620   6.186  16.906 -0.2226 -0.2325  0.3871
 5974TIP3    H139413   5.715   6.198  16.900 -0.4063  1.6876  0.6311
 5974TIP3    H239414   5.587   6.214  16.820 -0.8319  2.9939  1.5449
 5975TIP3   OH239415   5.302   6.320   3.851 -0.1531  0.0799 -0.1653
 5975TIP3    H139416   5.284   6.320   3.945  0.1182 -0.6361 -0.1073
 5975TIP3    H239417   5.376   6.261   3.840  0.5951  1.0797 -0.6995
 5976TIP3   OH239418   5.272   2.582  15.907  0.1505  0.5045 -0.4747
 5976TIP3    H139419   5.271   2.510  15.971  2.7934 -0.7233 -1.6710
 5976TIP3    H239420   5.238   2.543  15.826  1.2023  0.7142 -1.0235
 5977TIP3   OH239421   4.340   2.605   5.865 -0.2090  0.3031  0.5428
 5977TIP3    H139422   4.396   2.655   5.806 -0.0650  2.1144  2.1059
 5977TIP3    H239423   4.251   2.625   5.835 -0.1730  1.9006  1.3598
 5978TIP3   OH239424   1.085   1.520  11.760  0.3676 -0.2163  0.1187
 5978TIP3    H139425   1.094   1.425  11.772 -1.0774 -0.3228  0.5733
 5978TIP3    H239426   1.131   1.558  11.835 -0.4694 -0.6249  0.8587
 5979TIP3   OH239427   3.669   2.047  11.271  0.1831  0.0720  0.1211
 5979TIP3    H139428   3.626   2.103  11.207 -0.1009 -0.6013 -0.2913
 5979TIP3    H239429   3.675   2.100  11.350 -1.5458  0.1377  0.2376
 5980TIP3   OH239430   2.947   0.716   2.654 -0.2459 -0.7670 -0.1713
 5980TIP3    H139431   2.942   0.641   2.713 -0.6581 -0.3821  0.3004
 5980TIP3    H239432   2.876   0.703   2.591 -0.7544 -0.4355  0.3252
 5981TIP3   OH239433   6.808   4.582  11.470  0.3958 -0.0242  0.0987
 5981TIP3    H139434   6.896   4.571  11.507 -0.1148 -1.7958  0.9115
 5981TIP3    H239435   6.751   4.597  11.545 -0.2268 -0.5811 -0.2475
 5982TIP3   OH239436   0.932   3.010  13.452  0.0685  0.0302 -0.3007
 5982TIP3    H139437   0.992   2.935  13.455 -1.3344 -1.1192  1.6656
 5982TIP3    H239438   0.983   3.081  13.413  2.0812 -1.4065 -0.4053
 5983TIP3   OH239439   1.186   4.281  16.486 -0.2456 -0.2464  1.0274
 5983TIP3    H139440   1.217   4.194  16.462 -1.3049 -0.4402  0.2828
 5983TIP3    H239441   1.260   4.321  16.533  0.6737 -1.0974  0.3447
 5984TIP3   OH239442   2.223   2.143   0.630 -0.0466 -0.3573 -0.4318
 5984TIP3    H139443   2.237   2.079   0.699  0.1559  0.4304  0.2708
 5984TIP3    H239444   2.133   2.173   0.642 -0.8289 -1.8734 -1.9520
 5985TIP3   OH239445   2.475   0.121   5.312 -0.0019 -0.1351 -0.1015
 5985TIP3    H139446   2.411   0.138   5.243  0.1247 -2.9361 -1.0522
 5985TIP3    H239447   2.422   0.101   5.390 -0.1822  1.0357  0.0874
 5986TIP3   OH239448   0.268   4.014   0.046 -0.2792 -0.0839 -0.5732
 5986TIP3    H139449   0.342   4.073   0.062 -0.1793 -0.0019 -1.2748
 5986TIP3    H239450   0.305   3.943  -0.007 -0.7888  0.1957 -1.3308
 5987TIP3   OH239451   3.328   0.285  15.962 -0.3305  0.8691  0.5254
 5987TIP3    H139452   3.352   0.260  16.052 -0.3351 -3.1778 -0.3838
 5987TIP3    H239453   3.409   0.320  15.925  0.5055 -0.1224  1.3382
 5988TIP3   OH239454   6.610   1.692  16.727  0.4038  0.5221 -0.2332
 5988TIP3    H139455   6.556   1.659  16.655  0.9882  0.9080 -0.8530
 5988TIP3    H239456   6.558   1.763  16.764 -0.5009 -0.5222  0.5997
 5989TIP3   OH239457   3.753   2.516  16.537 -0.4183 -0.1935 -0.2330
 5989TIP3    H139458   3.790   2.598  16.568 -1.9740  0.1736  0.7973
 5989TIP3    H239459   3.666   2.540  16.503 -1.1737 -1.4691  0.6845
 5990TIP3   OH239460   2.665   2.253   1.718  0.6221 -0.4729 -0.0141
 5990TIP3    H139461   2.583   2.293   1.689  1.1043  0.7661  0.2360
 5990TIP3    H239462   2.661   2.259   1.814  1.5496  0.8049 -0.0315
 5991TIP3   OH239463   6.270   1.533   3.285  0.0319  0.0717  0.4870
 5991TIP3    H139464   6.314   1.571   3.208  1.2560 -0.0495  1.0957
 5991TIP3    H239465   6.181   1.566   3.280  0.5291  1.4125 -0.0948
 5992TIP3   OH239466   6.578   2.962  10.790  0.7027  0.4265 -0.0230
 5992TIP3    H139467   6.628   2.881  10.788 -0.4339 -0.2837 -0.4005
 5992TIP3    H239468   6.635   3.027  10.749  0.8401 -0.6357 -1.5757
 5993TIP3   OH239469   3.824   0.967  16.839  0.1360 -0.0487  0.4038
 5993TIP3    H139470   3.746   0.913  16.829  0.4193 -0.5650  0.8748
 5993TIP3    H239471   3.841   1.001  16.752 -1.6067  1.5086  0.6052
 5994TIP3   OH239472   5.219   0.976   1.694  0.5233 -0.2152  0.0881
 5994TIP3    H139473   5.183   1.007   1.610  2.2459 -0.6119 -0.8422
 5994TIP3    H239474   5.284   1.041   1.717 -1.7604  1.3999  2.6170
 5995TIP3   OH239475   5.459   4.065   0.876 -0.0931 -0.3495 -0.5743
 5995TIP3    H139476   5.513   4.001   0.923  1.6648  1.8985  0.7147
 5995TIP3    H239477   5.375   4.022   0.864  0.6880 -2.5232  1.1085
 5996TIP3   OH239478   5.352   2.650   0.362  0.1069  0.2530  0.3727
 5996TIP3    H139479   5.299   2.724   0.333  0.4845  1.3219  2.2917
 5996TIP3    H239480   5.320   2.576   0.310 -3.7165  0.6829  1.8094
 5997TIP3   OH239481   6.445   2.291  11.895 -0.3471  0.5019 -0.2349
 5997TIP3    H139482   6.367   2.346  11.891 -1.4900 -0.9504  0.8934
 5997TIP3    H239483   6.439   2.234  11.819  0.8398  1.8483 -1.4066
 5998TIP3   OH239484   5.099   1.103   0.614 -0.1794  0.0613  0.2424
 5998TIP3    H139485   5.015   1.131   0.651 -0.5894  0.0636 -0.6690
 5998TIP3    H239486   5.135   1.182   0.574  0.9016  0.3887  1.7535
 5999TIP3   OH239487   6.759   4.086  10.696  0.4933 -0.0831  0.1563
 5999TIP3    H139488   6.814   4.161  10.718  3.5899 -0.9475 -3.4448
 5999TIP3    H239489   6.817   4.010  10.703 -1.3180 -1.6039 -0.3674
 6000TIP3   OH239490   5.420   5.709  10.522 -0.2098  0.9541 -0.2448
 6000TIP3    H139491   5.515   5.697  10.514  0.0609  1.2070  2.0814
 6000TIP3    H239492   5.390   5.633  10.572 -1.7325 -0.5050 -3.0684
 6001TIP3   OH239493   2.653   5.704  15.897 -0.5015 -0.0229  0.1937
 6001TIP3    H139494   2.701   5.749  15.828 -2.9224  2.0885 -0.2679
 6001TIP3    H239495   2.635   5.617  15.862  1.1272 -0.1521 -0.4162
 6002TIP3   OH239496   5.128   0.564  12.800  0.2780 -0.2600 -0.2625
 6002TIP3    H139497   5.196   0.581  12.735 -0.7786 -1.3292 -1.7133
 6002TIP3    H239498   5.080   0.646  12.808  0.2437 -0.1963 -1.0711
 6003TIP3   OH239499   2.192   1.740   4.023  0.4083 -0.2429  0.3845
 6003TIP3    H139500   2.260   1.674   4.009 -1.9932 -2.8285  0.3140
 6003TIP3    H239501   2.149   1.749   3.938 -1.4374 -1.1420  1.1794
 6004TIP3   OH239502   3.001   4.980   2.653 -0.5567 -0.0784 -0.4420
 6004TIP3    H139503   2.958   4.946   2.731  1.9131  0.5016  1.3133
 6004TIP3    H239504   3.085   5.014   2.685 -0.5630  2.7006 -2.9358
 6005TIP3   OH239505   4.860   1.133  14.960  0.0160  0.2597 -0.5827
 6005TIP3    H139506   4.921   1.195  14.921 -1.2695  2.7370  1.0454
 6005TIP3    H239507   4.774   1.160  14.928 -0.6693 -0.1517  0.7985
 6006TIP3   OH239508   6.304   5.166  11.272 -0.2122 -0.0481  0.6496
 6006TIP3    H139509   6.267   5.122  11.348  0.0850  0.6455  1.2035
 6006TIP3    H239510   6.256   5.129  11.197 -1.0302 -0.1774  1.2272
 6007TIP3   OH239511   3.944   0.763  13.019 -0.2501  0.3387 -0.1039
 6007TIP3    H139512   3.911   0.852  13.009  0.7888  0.8213  0.6210
 6007TIP3    H239513   4.039   0.773  13.027 -0.1172 -0.8365 -0.0159
 6008TIP3   OH239514   1.044   1.348   0.174  0.2199 -0.2172 -0.0937
 6008TIP3    H139515   1.083   1.415   0.230  0.6498  0.5808 -1.2801
 6008TIP3    H239516   0.955   1.338   0.206  0.0110  1.2486 -0.1282
 6009TIP3   OH239517   6.004   2.885  12.525  0.0651 -0.4122  0.0766
 6009TIP3    H139518   6.011   2.809  12.582 -0.4040 -0.4432  0.0973
 6009TIP3    H239519   5.981   2.957  12.583  1.9053  0.0563  0.2750
 6010TIP3   OH239520   5.866   3.511   2.250 -0.3397 -0.0670 -1.0285
 6010TIP3    H139521   5.821   3.427   2.245 -0.4366 -0.3019  2.1365
 6010TIP3    H239522   5.808   3.572   2.204 -0.8958 -1.4279 -2.2338
 6011TIP3   OH239523   3.160   2.670  13.657  0.2848  0.0653  0.0954
 6011TIP3    H139524   3.182   2.710  13.573 -1.7730 -1.0951 -1.0843
 6011TIP3    H239525   3.115   2.740  13.705 -1.0842 -0.0352 -0.9604
 6012TIP3   OH239526   1.115   0.313  17.009 -0.0116  0.4564 -0.0882
 6012TIP3    H139527   1.122   0.218  17.003 -2.5903  0.1683  0.0881
 6012TIP3    H239528   1.102   0.329  17.103 -1.7139  0.7176 -0.3346
 6013TIP3   OH239529   5.170   5.279   1.080 -0.2872  0.1223  0.4852
 6013TIP3    H139530   5.252   5.282   1.129  0.4506 -0.4652 -0.6518
 6013TIP3    H239531   5.161   5.367   1.043 -0.2658  0.2448  0.7743
 6014TIP3   OH239532   1.987   1.485   2.860  0.1921  0.2811  0.0731
 6014TIP3    H139533   1.896   1.456   2.866  0.3152  0.2554  2.5725
 6014TIP3    H239534   1.992   1.530   2.775 -1.9744 -0.2304 -0.3815
 6015TIP3   OH239535   0.795   4.584   5.912  0.5661  0.4888  0.3926
 6015TIP3    H139536   0.826   4.650   5.974  0.5970  1.4883 -0.6426
 6015TIP3    H239537   0.699   4.588   5.919  0.5636  0.7656  0.2177
 6016TIP3   OH239538   5.729   1.277  11.820  0.5634  0.2466 -0.8298
 6016TIP3    H139539   5.747   1.222  11.744  1.4324  0.9190 -1.1250
 6016TIP3    H239540   5.730   1.366  11.786 -3.2007  0.4599 -0.8584
 6017TIP3   OH239541   4.537   3.387   2.903 -0.2944 -0.9065  0.1155
 6017TIP3    H139542   4.518   3.386   2.997 -0.3927 -2.5583  0.1137
 6017TIP3    H239543   4.450   3.384   2.861 -0.2909  0.7386 -0.0725
 6018TIP3   OH239544   5.057   2.055  16.674 -0.3462 -0.0289 -0.2122
 6018TIP3    H139545   5.147   2.087  16.680 -0.5495  0.5962 -0.4113
 6018TIP3    H239546   5.045   2.035  16.581 -0.6556  0.6109 -0.3085
 6019TIP3   OH239547   1.733   1.755  14.626 -0.8636 -0.5055  0.5211
 6019TIP3    H139548   1.817   1.732  14.665 -0.2582  0.0232 -0.4331
 6019TIP3    H239549   1.696   1.821  14.685  0.2701  0.6610 -0.0293
 6020TIP3   OH239550   0.689   4.549   1.857  0.1735  0.0265  0.0745
 6020TIP3    H139551   0.674   4.639   1.886 -0.5603  0.1680 -0.6976
 6020TIP3    H239552   0.762   4.518   1.910 -0.3350  0.6760  1.1870
 6021TIP3   OH239553   6.374   2.775  11.555 -0.2604 -1.1269  0.5637
 6021TIP3    H139554   6.363   2.813  11.468  0.3925  0.0521  0.9805
 6021TIP3    H239555   6.450   2.820  11.592 -0.4004 -1.7630  1.6699
 6022TIP3   OH239556   1.766   1.185  14.427 -0.6321  0.1152  0.4280
 6022TIP3    H139557   1.818   1.106  14.442  0.1746  0.9612  2.5564
 6022TIP3    H239558   1.680   1.165  14.464 -1.7757 -1.0872 -2.5955
 6023TIP3   OH239559   4.839   4.103   1.941  0.3518  0.5329  0.0678
 6023TIP3    H139560   4.917   4.054   1.968  0.5252  0.4378 -0.5785
 6023TIP3    H239561   4.858   4.194   1.964  0.1014  0.3338  1.1167
 6024TIP3   OH239562   5.216   0.383   2.031  0.3517 -0.1032 -0.3061
 6024TIP3    H139563   5.199   0.364   1.939  0.1168 -0.3542 -0.2107
 6024TIP3    H239564   5.172   0.314   2.079 -0.1947  0.4651  0.0309
 6025TIP3   OH239565   5.208   3.735  14.309  0.3426  0.0436 -0.1340
 6025TIP3    H139566   5.124   3.740  14.355  0.5616 -0.0695  0.2787
 6025TIP3    H239567   5.254   3.662  14.351 -0.0092 -0.9812 -1.4528
 6026TIP3   OH239568   4.567   3.785   0.547  0.7020  0.1079  0.3796
 6026TIP3    H139569   4.539   3.770   0.637 -0.8520  2.4318  0.3546
 6026TIP3    H239570   4.487   3.774   0.495  1.1886  0.6104 -0.4877
 6027TIP3   OH239571   1.002   0.098   1.539  0.2382  0.1377  0.3505
 6027TIP3    H139572   0.962   0.117   1.624 -2.0491  1.0383 -0.8379
 6027TIP3    H239573   0.957   0.019   1.509 -1.2161  1.4888 -1.2730
 6028TIP3   OH239574   0.954   1.696   5.448 -0.0186  0.1828  0.3438
 6028TIP3    H139575   0.953   1.626   5.382 -0.0714 -0.2850  0.8305
 6028TIP3    H239576   0.958   1.777   5.397 -2.9846  0.0021 -0.3594
 6029TIP3   OH239577   2.640   4.541   0.628 -0.5627 -0.2081 -0.3402
 6029TIP3    H139578   2.598   4.620   0.662 -0.3580 -0.1999 -0.1034
 6029TIP3    H239579   2.646   4.555   0.534  1.9131  1.2639 -0.0687
 6030TIP3   OH239580   5.279   2.679   0.623 -0.4310  0.4409 -0.1613
 6030TIP3    H139581   5.310   2.650   0.537 -0.2054 -1.3905  0.5080
 6030TIP3    H239582   5.356   2.716   0.666 -0.2557  0.1971 -0.2662
 6031TIP3   OH239583   2.527   0.476  13.757 -0.3143  0.4846  0.5298
 6031TIP3    H139584   2.618   0.506  13.756  0.1770 -0.9326 -0.5499
 6031TIP3    H239585   2.477   0.548  13.719  0.3468  1.2703  1.1209
 6032TIP3   OH239586   4.795   6.099   1.132  0.7524  0.0062 -0.2669
 6032TIP3    H139587   4.823   6.176   1.182  1.0388  0.1711 -0.6770
 6032TIP3    H239588   4.779   6.132   1.044 -0.8415 -0.0592 -0.0437
 6033TIP3   OH239589   4.234   2.500   2.673 -0.2884  0.5078 -0.1608
 6033TIP3    H139590   4.245   2.427   2.613 -0.6229 -0.7937  1.3143
 6033TIP3    H239591   4.299   2.565   2.644  1.4220 -1.1841 -0.2687
 6034TIP3   OH239592   5.930   0.660  13.449 -0.1801 -0.5457  0.0354
 6034TIP3    H139593   5.964   0.706  13.526  0.7070  0.8769 -1.1377
 6034TIP3    H239594   5.905   0.574  13.481  0.2642 -0.0269  1.8847
 6035TIP3   OH239595   1.622   4.893  12.063 -0.0265 -0.3800  0.0152
 6035TIP3    H139596   1.709   4.855  12.076 -0.4957 -1.3410  0.5115
 6035TIP3    H239597   1.592   4.857  11.980 -0.3872 -0.9534  0.3836
 6036TIP3   OH239598   4.361   5.598  13.786 -0.0270  0.5515 -0.1629
 6036TIP3    H139599   4.313   5.604  13.868  0.3697  1.2448  0.0207
 6036TIP3    H239600   4.445   5.640  13.803  0.6546 -0.6089 -0.4892
 6037TIP3   OH239601   4.876   3.720   2.801 -0.3861  0.0767 -0.2442
 6037TIP3    H139602   4.877   3.815   2.794 -0.7692  0.0707 -0.3844
 6037TIP3    H239603   4.796   3.693   2.756 -0.9688 -0.2281  0.9475
 6038TIP3   OH239604   1.696   6.426  14.451 -0.2666  0.1901  0.5104
 6038TIP3    H139605   1.696   6.371  14.529 -1.7155  1.6146  1.5787
 6038TIP3    H239606   1.785   6.461  14.448 -0.0224 -0.3347  1.1986
 6039TIP3   OH239607   6.427   5.149  12.369  0.0960 -0.1810  0.0698
 6039TIP3    H139608   6.490   5.078  12.380  0.4842  0.3804  1.7572
 6039TIP3    H239609   6.425   5.193  12.454 -0.2570  1.7448 -0.8791
 6040TIP3   OH239610   0.614   0.641  16.878 -0.3814 -0.0033 -0.1282
 6040TIP3    H139611   0.695   0.629  16.928 -0.8425 -0.2616  0.5670
 6040TIP3    H239612   0.546   0.653  16.945 -0.9537 -0.0057 -0.7014
 6041TIP3   OH239613   5.430   3.806   0.026  0.4186  0.2437  0.1256
 6041TIP3    H139614   5.502   3.868   0.033  0.7739 -0.2285  0.8487
 6041TIP3    H239615   5.439   3.750   0.103 -0.4855 -0.0781  0.0136
 6042TIP3   OH239616   3.686   3.033   6.183 -0.9613  1.1456 -0.6103
 6042TIP3    H139617   3.612   3.047   6.242 -0.3051  0.0046  0.5375
 6042TIP3    H239618   3.759   3.011   6.241  0.0177  1.2192 -1.7786
 6043TIP3   OH239619   3.187   0.103  16.454  0.0506 -0.5327 -0.2608
 6043TIP3    H139620   3.130   0.112  16.531  1.2041  0.0783  0.5544
 6043TIP3    H239621   3.259   0.048  16.485  1.3597  1.0384 -0.3863
 6044TIP3   OH239622   6.453   6.662   2.132 -0.5618 -0.2910  0.1267
 6044TIP3    H139623   6.472   6.755   2.123 -2.0880 -0.0822 -1.7072
 6044TIP3    H239624   6.474   6.625   2.046  0.7494 -1.8052  1.0557
 6045TIP3   OH239625   4.510   4.348  12.358  0.0934 -0.3025 -0.0624
 6045TIP3    H139626   4.540   4.279  12.416 -2.4083 -0.5998  1.0173
 6045TIP3    H239627   4.453   4.303  12.295 -0.5717  0.6053 -0.1294
 6046TIP3   OH239628   2.188   5.776   3.615  0.3523  0.9228 -0.6652
 6046TIP3    H139629   2.099   5.755   3.643  0.4437 -0.1269 -1.0926
 6046TIP3    H239630   2.177   5.839   3.544  0.0567  2.4475  0.6957
 6047TIP3   OH239631   2.552   2.021   0.374 -0.3964 -0.1417 -0.1303
 6047TIP3    H139632   2.580   1.947   0.320 -1.8199 -0.4113 -0.5379
 6047TIP3    H239633   2.541   1.983   0.462  2.0999  0.3359  0.4739
 6048TIP3   OH239634   3.349   6.476  14.466  0.0600  0.0748  0.3806
 6048TIP3    H139635   3.324   6.407  14.406 -0.1409  1.2424 -0.9267
 6048TIP3    H239636   3.444   6.465  14.477 -0.2261 -1.4300  1.5601
 6049TIP3   OH239637   0.269   1.035   0.149 -0.3234  0.3427  0.1605
 6049TIP3    H139638   0.268   1.118   0.101 -0.1982 -0.5364 -1.4397
 6049TIP3    H239639   0.243   1.058   0.238 -3.4085  1.6781 -0.9455
 6050TIP3   OH239640   6.485   1.911   3.174  0.1276  0.3311 -0.0214
 6050TIP3    H139641   6.473   1.963   3.095 -0.5388  0.5967  0.2488
 6050TIP3    H239642   6.522   1.972   3.238 -1.4245  0.7083  0.5508
 6051TIP3   OH239643   4.792   5.299  13.999 -0.3458  0.1900  0.5345
 6051TIP3    H139644   4.826   5.298  13.909  1.1348  1.4982  1.0383
 6051TIP3    H239645   4.781   5.206  14.020 -0.6053 -0.1525 -0.9393
 6052TIP3   OH239646   5.354   5.473   1.950  0.3118  0.2509 -0.3100
 6052TIP3    H139647   5.375   5.531   2.024  0.4638  1.7544 -1.4669
 6052TIP3    H239648   5.308   5.399   1.989  0.1007  1.1595  1.2492
 6053TIP3   OH239649   1.616   0.585  14.370 -0.1290  0.2605 -0.2133
 6053TIP3    H139650   1.672   0.652  14.409 -1.3139  1.0363  0.1987
 6053TIP3    H239651   1.643   0.581  14.278  0.9192  0.2805  0.0875
 6054TIP3   OH239652   2.836   0.295  14.697 -0.5039  0.3134  0.1187
 6054TIP3    H139653   2.831   0.352  14.774  2.9035  0.7775  0.1525
 6054TIP3    H239654   2.876   0.350  14.629  0.1361 -1.1829 -0.7661
 6055TIP3   OH239655   0.785   1.289   1.152  0.3958 -0.0528 -0.0932
 6055TIP3    H139656   0.871   1.329   1.145 -0.4826  1.6812 -1.8284
 6055TIP3    H239657   0.725   1.362   1.166 -0.9088 -1.0956 -0.0098
 6056TIP3   OH239658   1.385   5.081  11.196 -0.4275 -1.0945  0.2310
 6056TIP3    H139659   1.354   5.144  11.131 -2.1521  0.1459  2.1623
 6056TIP3    H239660   1.455   5.127  11.243 -1.0268 -0.9543  1.0043
 6057TIP3   OH239661   3.143   5.033   0.795  0.4594 -0.1602  0.0369
 6057TIP3    H139662   3.162   5.058   0.705  2.7207 -1.0331  0.1958
 6057TIP3    H239663   3.220   5.061   0.844  0.2804 -1.6973  1.2845
 6058TIP3   OH239664   2.605   6.200   4.251 -0.3499 -1.0007 -0.1615
 6058TIP3    H139665   2.527   6.194   4.197 -1.3664 -2.2843  1.3873
 6058TIP3    H239666   2.573   6.227   4.337  0.8671 -1.7655  0.5593
 6059TIP3   OH239667   1.914   4.555  16.651 -0.8321  0.1724 -0.0603
 6059TIP3    H139668   1.975   4.519  16.715 -1.6902  1.5245  1.6071
 6059TIP3    H239669   1.921   4.497  16.576  1.4526 -0.5241  0.5999
 6060TIP3   OH239670   3.170   0.752  11.849 -0.2913 -0.2575  0.5542
 6060TIP3    H139671   3.154   0.827  11.791  0.7749 -0.7525 -0.4264
 6060TIP3    H239672   3.126   0.679  11.806  0.2064 -0.5559  0.5483
 6061TIP3   OH239673   0.179   1.387   1.028  0.0204 -0.2101  0.4803
 6061TIP3    H139674   0.086   1.390   1.004  0.3090 -0.3560 -0.7065
 6061TIP3    H239675   0.225   1.374   0.945  1.1156 -0.0282  1.0413
 6062TIP3   OH239676   2.265   3.137  13.748 -0.3243 -0.3054  0.0077
 6062TIP3    H139677   2.226   3.221  13.774  0.5038  0.0243  0.2393
 6062TIP3    H239678   2.353   3.139  13.787  0.1122 -0.8002 -0.9129
 6063TIP3   OH239679   5.819   6.574   1.009  0.5232  0.4452 -0.0456
 6063TIP3    H139680   5.780   6.560   0.923  0.7807 -0.4849 -0.0222
 6063TIP3    H239681   5.754   6.538   1.071  1.3829 -1.1406 -0.0083
 6064TIP3   OH239682   2.820   1.069  15.737  0.3580 -0.2299 -0.2966
 6064TIP3    H139683   2.784   0.981  15.723  0.6188 -0.2370 -0.9602
 6064TIP3    H239684   2.915   1.056  15.734  0.4304 -0.1792  1.2205
 6065TIP3   OH239685   5.771   5.593   1.108 -0.2337  0.0841 -0.2627
 6065TIP3    H139686   5.862   5.613   1.084  0.7502 -0.6194  2.4680
 6065TIP3    H239687   5.720   5.616   1.030  2.4994 -1.8291 -2.8737
 6066TIP3   OH239688   0.455   3.364   3.003 -0.3029 -0.3062  0.0070
 6066TIP3    H139689   0.471   3.299   3.072  0.1996 -1.4315 -1.1258
 6066TIP3    H239690   0.521   3.431   3.018 -0.8073 -0.0470  1.1806
 6067TIP3   OH239691   4.476   5.497  15.534  0.0766 -0.7770  0.4890
 6067TIP3    H139692   4.436   5.578  15.503  1.3513 -0.3939 -0.2223
 6067TIP3    H239693   4.404   5.449  15.575 -0.4046  1.4074  2.4149
 6068TIP3   OH239694   5.035   4.501   2.954  0.0603  0.0655 -0.5375
 6068TIP3    H139695   5.115   4.524   2.906 -0.1601 -0.2875 -1.0759
 6068TIP3    H239696   5.043   4.408   2.972 -0.3239 -0.0183 -0.7799
 6069TIP3   OH239697   1.168   5.888  15.679  0.1987  0.0148 -0.4952
 6069TIP3    H139698   1.242   5.852  15.630  1.4238  1.4563  0.2149
 6069TIP3    H239699   1.128   5.952  15.619  1.4769  1.5134  0.1850
 6070TIP3   OH239700   1.289   1.971   0.181 -0.2607  0.2987 -0.3531
 6070TIP3    H139701   1.358   2.027   0.217  0.0506 -0.7151  0.6789
 6070TIP3    H239702   1.209   2.001   0.224 -0.3809  1.0639 -1.0857
 6071TIP3   OH239703   2.914   0.831   4.843  0.0078  0.4673  0.1483
 6071TIP3    H139704   2.825   0.864   4.839 -0.0573  0.7708  2.6698
 6071TIP3    H239705   2.969   0.907   4.824 -0.2490  0.9647  1.2858
 6072TIP3   OH239706   4.352   3.311  14.986 -0.0407  0.0849  0.2009
 6072TIP3    H139707   4.358   3.326  14.891 -0.6857 -0.0937  0.1252
 6072TIP3    H239708   4.409   3.378  15.024  1.3044 -0.7046 -0.3667
 6073TIP3   OH239709   2.990   3.333  11.616  0.0586  0.1192  0.1150
 6073TIP3    H139710   2.925   3.328  11.686 -0.1559 -0.1798 -0.1013
 6073TIP3    H239711   2.964   3.265  11.555 -0.0310  0.6806 -0.4862
 6074TIP3   OH239712   4.423   2.244  13.849  0.0324 -0.0120  0.2161
 6074TIP3    H139713   4.424   2.299  13.771  0.9573 -0.7412 -0.3103
 6074TIP3    H239714   4.330   2.233  13.869 -0.1800  1.3527  0.0759
 6075TIP3   OH239715   3.665   6.169  13.506 -0.3519 -0.0295 -0.0194
 6075TIP3    H139716   3.738   6.169  13.568 -0.1660  0.4751 -0.2321
 6075TIP3    H239717   3.680   6.093  13.450  1.2073  1.2577 -1.4490
 6076TIP3   OH239718   5.177   3.300  13.518 -0.0602 -0.4883 -0.1477
 6076TIP3    H139719   5.137   3.214  13.507 -0.2834 -0.4389  0.2544
 6076TIP3    H239720   5.105   3.357  13.544  0.1338 -0.2356 -0.1614
 6077TIP3   OH239721   1.958   2.797  15.500  0.3609 -0.1275  0.0388
 6077TIP3    H139722   1.888   2.858  15.476 -0.5295 -1.6608 -1.3940
 6077TIP3    H239723   2.038   2.843  15.477 -0.3437 -0.0772 -2.5948
 6078TIP3   OH239724   0.904   2.386  14.453  0.6486  0.0687 -0.4518
 6078TIP3    H139725   0.988   2.420  14.485  1.7231 -1.3054 -1.6979
 6078TIP3    H239726   0.844   2.399  14.527  2.3213 -0.3475  1.0578
 6079TIP3   OH239727   3.127   1.452   4.543 -0.6886  0.0140 -0.3867
 6079TIP3    H139728   3.188   1.453   4.470  0.0915  0.6097  0.2651
 6079TIP3    H239729   3.092   1.362   4.544 -2.3649  0.5367 -2.8175
 6080TIP3   OH239730   4.807   6.029  10.369 -0.5758 -0.1632 -0.1452
 6080TIP3    H139731   4.859   5.954  10.340  0.1226  0.3444 -0.2300
 6080TIP3    H239732   4.872   6.095  10.394 -1.1794  0.3750  0.0344
 6081TIP3   OH239733   3.111   6.581  12.657  0.4899  0.2633  0.0504
 6081TIP3    H139734   3.138   6.636  12.731 -0.3814  0.4800  0.2162
 6081TIP3    H239735   3.113   6.492  12.692 -0.2338  0.3913  0.4516
 6082TIP3   OH239736   4.377   5.600  16.458 -0.4628  0.1339  0.3150
 6082TIP3    H139737   4.434   5.538  16.413 -1.3389 -1.6945  1.5787
 6082TIP3    H239738   4.426   5.682  16.461  1.3268 -0.8845 -0.1944
 6083TIP3   OH239739   3.049   5.110  13.430  0.2102 -0.2560  0.5177
 6083TIP3    H139740   2.984   5.138  13.366 -0.5394 -0.2836  1.2596
 6083TIP3    H239741   3.100   5.042  13.385  0.2115  0.2886 -0.3146
 6084TIP3   OH239742   5.637   0.800   4.619 -0.4795 -0.1524  0.1212
 6084TIP3    H139743   5.644   0.793   4.714  0.0048  2.0927  0.3128
 6084TIP3    H239744   5.648   0.710   4.587  1.4528 -0.6917  2.0605
 6085TIP3   OH239745   3.824   2.763   3.076  0.6385 -0.6123 -0.0398
 6085TIP3    H139746   3.896   2.732   3.130  1.9778  0.2192 -1.2451
 6085TIP3    H239747   3.836   2.858   3.072 -0.2402 -0.5086 -0.6486
 6086TIP3   OH239748   3.959   1.319  12.066  0.5487  0.3793  0.3368
 6086TIP3    H139749   3.985   1.409  12.081 -2.8691  1.1291  3.0628
 6086TIP3    H239750   3.895   1.323  11.995 -0.4190  0.3258  1.1812
 6087TIP3   OH239751   1.367   3.597   1.942 -0.2803 -0.1528  0.1491
 6087TIP3    H139752   1.361   3.605   1.847 -0.2697  2.3174  0.2765
 6087TIP3    H239753   1.416   3.675   1.969  2.1879 -2.1613  1.9896
 6088TIP3   OH239754   2.063   3.291   4.658  0.9137  0.3534  0.3269
 6088TIP3    H139755   1.988   3.294   4.599 -0.8546 -1.2809  2.3502
 6088TIP3    H239756   2.094   3.382   4.662 -1.7696  1.3419  0.4005
 6089TIP3   OH239757   2.785   5.679  13.933 -0.1355 -0.0077 -0.5736
 6089TIP3    H139758   2.746   5.595  13.956  1.5930 -0.7492 -0.2036
 6089TIP3    H239759   2.855   5.657  13.872 -0.0977  1.2406 -1.0074
 6090TIP3   OH239760   2.413   5.971  11.812  0.8843  0.1473  0.5675
 6090TIP3    H139761   2.364   6.053  11.814  3.3307  1.7104  1.0732
 6090TIP3    H239762   2.362   5.910  11.866 -1.4613  0.9981 -0.5889
 6091TIP3   OH239763   3.729   2.888   1.287 -0.2060  0.2435  0.6879
 6091TIP3    H139764   3.775   2.968   1.261 -0.7405  0.5189  0.5670
 6091TIP3    H239765   3.764   2.820   1.230  0.7025  0.2629  1.2134
 6092TIP3   OH239766   6.488   1.001   0.942  0.3044 -1.1344 -0.1515
 6092TIP3    H139767   6.523   0.942   0.875 -1.2354 -1.8636 -0.3717
 6092TIP3    H239768   6.406   1.033   0.904  0.2268 -0.2742  0.7210
 6093TIP3   OH239769   5.069   6.366   1.576  0.4990 -0.3313  0.9098
 6093TIP3    H139770   5.038   6.296   1.633  2.0356 -1.3056  0.6136
 6093TIP3    H239771   5.025   6.445   1.608 -2.1341 -1.5513  0.5660
 6094TIP3   OH239772   1.263   2.021   3.148 -0.2787 -0.4781  0.4279
 6094TIP3    H139773   1.221   1.938   3.124  0.6607 -1.1576  1.0764
 6094TIP3    H239774   1.190   2.079   3.169 -0.9821 -0.8981 -0.7270
 6095TIP3   OH239775   5.328   5.718   1.788  0.6519  0.5819  0.0102
 6095TIP3    H139776   5.419   5.732   1.814  1.5074  0.1693 -2.5513
 6095TIP3    H239777   5.302   5.637   1.833  1.4474  0.8139  0.9267
 6096TIP3   OH239778   4.077   5.224  15.864  0.3786  0.2406 -0.2572
 6096TIP3    H139779   4.094   5.130  15.872  0.5635  0.4455  2.5886
 6096TIP3    H239780   3.983   5.230  15.845 -0.5500 -0.5592  3.2870
 6097TIP3   OH239781   4.853   5.607   0.253 -0.0121  0.2356  0.2292
 6097TIP3    H139782   4.765   5.570   0.261 -0.4832  1.5825  1.6481
 6097TIP3    H239783   4.906   5.534   0.220 -1.1613 -1.3282  1.6433
 6098TIP3   OH239784   2.722   1.354  15.718  0.0027 -0.0798 -0.1672
 6098TIP3    H139785   2.695   1.407  15.793  1.6200  1.3386 -0.5317
 6098TIP3    H239786   2.752   1.271  15.757 -1.3413 -0.2662  0.5203
 6099TIP3   OH239787   0.549   2.527  15.185  0.5190 -0.0392 -0.2128
 6099TIP3    H139788   0.602   2.605  15.204  2.0087 -1.0700 -0.0284
 6099TIP3    H239789   0.477   2.532  15.248  0.5251  1.2434 -0.2784
 6100TIP3   OH239790   0.869   6.826   1.991  0.0084 -0.3207 -0.1620
 6100TIP3    H139791   0.838   6.736   1.995 -0.5319 -0.1043  0.7235
 6100TIP3    H239792   0.853   6.862   2.078 -1.7209  1.2467 -1.0351
 6101TIP3   OH239793   1.970   1.243  14.062  0.6111  0.0090  0.5026
 6101TIP3    H139794   1.892   1.187  14.061 -0.1982  1.1199  0.0986
 6101TIP3    H239795   2.003   1.242  13.972  0.6885  0.0568  0.5296
 6102TIP3   OH239796   2.622   2.442  14.588  0.6732  0.7326 -0.1324
 6102TIP3    H139797   2.633   2.535  14.608 -1.3564  0.8664  0.6385
 6102TIP3    H239798   2.600   2.440  14.494 -0.7438  1.2267  0.1573
 6103TIP3   OH239799   2.105   2.660  15.038 -0.1572  0.1331  0.7432
 6103TIP3    H139800   2.017   2.662  15.000 -0.2132 -2.2416  0.5806
 6103TIP3    H239801   2.091   2.654  15.132 -0.2848 -2.1796  0.6246
 6104TIP3   OH239802   1.593   6.796   0.389 -0.0080 -0.5384  0.0638
 6104TIP3    H139803   1.664   6.759   0.442  0.4319  0.2865  0.0637
 6104TIP3    H239804   1.617   6.888   0.377 -0.7464 -0.4075 -0.4969
 6105TIP3   OH239805   3.270   4.915   3.762  0.0111 -0.7359 -0.1801
 6105TIP3    H139806   3.274   5.007   3.738  2.0442 -0.8848 -0.6016
 6105TIP3    H239807   3.333   4.906   3.833 -2.4691 -1.2406  2.1123
 6106TIP3   OH239808   0.774   3.611   1.421  0.2748  0.0161  0.6923
 6106TIP3    H139809   0.838   3.682   1.428 -0.9915  1.0836  2.2492
 6106TIP3    H239810   0.815   3.537   1.465  0.6196  0.5602  1.3083
 6107TIP3   OH239811   5.414   2.772   3.157 -0.2744  1.0026 -0.1005
 6107TIP3    H139812   5.431   2.847   3.100  0.8185 -0.1506 -1.3598
 6107TIP3    H239813   5.365   2.710   3.102  0.1382  0.1762  0.4392
 6108TIP3   OH239814   6.372   3.106  11.514 -0.4426  0.3213  0.4765
 6108TIP3    H139815   6.370   3.030  11.455  0.9372 -0.1451  0.9937
 6108TIP3    H239816   6.413   3.073  11.594  1.2848  1.8896  0.2914
 6109TIP3   OH239817   4.966   4.554  16.939 -0.0962 -0.2582  0.9186
 6109TIP3    H139818   4.898   4.581  17.000  0.5087  1.0182  1.0494
 6109TIP3    H239819   5.042   4.607  16.962  0.1876  0.1773 -0.8461
 6110TIP3   OH239820   6.813   2.859  13.465 -0.4114 -0.4507  0.0936
 6110TIP3    H139821   6.902   2.882  13.493 -0.3668 -1.8703  1.2655
 6110TIP3    H239822   6.756   2.903  13.528 -0.7138  1.9432 -1.6913
 6111TIP3   OH239823   6.644   0.766   3.518  0.2519 -0.7299  0.1832
 6111TIP3    H139824   6.714   0.778   3.454  0.7847  1.4771  1.0871
 6111TIP3    H239825   6.688   0.739   3.598 -0.0149 -0.1124  0.5415
 6112TIP3   OH239826   4.632   2.297  16.054  0.2448 -0.3988  0.1786
 6112TIP3    H139827   4.639   2.326  16.145 -1.2902  0.8383 -0.0569
 6112TIP3    H239828   4.587   2.213  16.059  2.5345 -1.6725  0.6957
 6113TIP3   OH239829   3.998   1.035  11.665  0.0178 -0.1713  0.5299
 6113TIP3    H139830   4.032   0.962  11.615  0.5286  0.1392  0.4216
 6113TIP3    H239831   4.063   1.051  11.733  0.0017  0.2949  0.4435
 6114TIP3   OH239832   5.142   6.215   1.205  0.2972 -0.2053 -0.3920
 6114TIP3    H139833   5.077   6.265   1.156  1.8068 -0.0562 -2.3288
 6114TIP3    H239834   5.184   6.279   1.262 -0.3893 -0.0680 -0.0260
 6115TIP3   OH239835   3.289   6.510   1.966 -0.2812 -0.7605 -0.6463
 6115TIP3    H139836   3.357   6.481   2.026 -1.0233 -1.1065  0.0451
 6115TIP3    H239837   3.318   6.481   1.879  0.1558 -1.4298 -0.2785
 6116TIP3   OH239838   2.746   3.110  16.567  0.1123  0.1977  0.3715
 6116TIP3    H139839   2.838   3.127  16.589  0.7514  2.2562 -3.0599
 6116TIP3    H239840   2.748   3.026  16.521  0.4747  0.7077 -0.5615
 6117TIP3   OH239841   5.913   5.668   5.697  0.0410 -0.0856  0.0734
 6117TIP3    H139842   6.000   5.702   5.677 -0.9226  1.4543 -1.8524
 6117TIP3    H239843   5.921   5.573   5.683  1.5353 -0.0582  0.5615
 6118TIP3   OH239844   1.318   5.522   3.936  0.4800  0.4796 -0.5309
 6118TIP3    H139845   1.320   5.616   3.956  0.0523  0.2574  0.6287
 6118TIP3    H239846   1.248   5.487   3.991  1.5666 -0.7572  0.1338
 6119TIP3   OH239847   3.840   3.282  14.703  0.1803  0.4657 -0.4305
 6119TIP3    H139848   3.769   3.341  14.730  0.7372  1.5199 -1.1989
 6119TIP3    H239849   3.884   3.329  14.632  0.1210 -1.2508 -1.6550
 6120TIP3   OH239850   6.820   3.734  12.933 -0.1580  0.2690 -0.0359
 6120TIP3    H139851   6.759   3.774  12.995  0.1823 -0.3382  0.7026
 6120TIP3    H239852   6.882   3.686  12.987 -0.9691 -1.9134 -0.9099
 6121TIP3   OH239853   4.170   3.553  12.180  0.2035 -0.2359  0.0007
 6121TIP3    H139854   4.235   3.506  12.129 -1.1373  0.3110 -2.3380
 6121TIP3    H239855   4.087   3.509  12.160 -0.5608  0.8672  0.6293
 6122TIP3   OH239856   4.702   6.460   6.548 -0.1795 -0.2435  0.7600
 6122TIP3    H139857   4.646   6.522   6.500  0.3294 -0.9687 -0.8456
 6122TIP3    H239858   4.766   6.515   6.592  0.7625  0.3904 -1.2775
 6123TIP3   OH239859   4.101   3.874  14.327 -0.1783 -0.5710 -0.6398
 6123TIP3    H139860   4.147   3.849  14.408 -0.3755  0.6074 -0.1391
 6123TIP3    H239861   4.009   3.863  14.348 -0.2096 -0.7465 -0.8729
 6124TIP3   OH239862   3.370   4.982  13.804 -0.1672 -0.4379 -0.2190
 6124TIP3    H139863   3.318   4.957  13.728 -0.9693 -1.9542  0.7706
 6124TIP3    H239864   3.343   5.072  13.823 -0.5016 -0.3019 -1.2809
 6125TIP3   OH239865   1.627   0.999   4.093 -0.0529  0.0255  0.3392
 6125TIP3    H139866   1.608   1.092   4.105 -2.0688 -0.4814  1.4644
 6125TIP3    H239867   1.571   0.954   4.157 -1.5046 -2.1497 -2.2577
 6126TIP3   OH239868   1.252   2.544  12.916  0.0557 -0.5081 -0.3338
 6126TIP3    H139869   1.236   2.460  12.959  1.1470 -0.2268  0.6703
 6126TIP3    H239870   1.208   2.609  12.973  0.9981 -0.1985  0.0638
 6127TIP3   OH239871   5.612   5.475   2.386 -0.1141 -0.2914 -0.2555
 6127TIP3    H139872   5.579   5.411   2.449  1.9112 -0.6787  0.4933
 6127TIP3    H239873   5.704   5.488   2.411 -0.1403  2.0255 -1.1206
 6128TIP3   OH239874   4.364   0.938  15.974  0.0902  0.0584  0.3939
 6128TIP3    H139875   4.365   1.005  16.042 -0.3992  0.1486  0.3147
 6128TIP3    H239876   4.411   0.864  16.013  1.1037  0.6326  0.2819
 6129TIP3   OH239877   1.103   2.214  16.870  0.2030 -0.1338  0.3177
 6129TIP3    H139878   1.117   2.164  16.950  0.0461  1.1143  1.1586
 6129TIP3    H239879   1.188   2.255  16.852  0.0914  0.0302  0.1575
 6130TIP3   OH239880   0.868   4.618  17.026 -0.6409 -0.1344 -0.0638
 6130TIP3    H139881   0.777   4.591  17.015  0.6385 -5.0120 -1.0201
 6130TIP3    H239882   0.881   4.621  17.121 -1.3849 -1.4402  0.1097
 6131TIP3   OH239883   3.133   5.068  14.002 -0.0954 -0.0025  0.1346
 6131TIP3    H139884   3.079   5.001  13.961 -0.3049  0.5870 -0.5655
 6131TIP3    H239885   3.166   5.121  13.930 -1.0964  1.5282  0.7287
 6132TIP3   OH239886   6.797   1.975   0.359  0.2794 -0.0589  0.0291
 6132TIP3    H139887   6.857   1.915   0.403  1.2558  0.0895 -1.0399
 6132TIP3    H239888   6.715   1.926   0.353  0.5531 -0.6234  0.6928
 6133TIP3   OH239889   6.299   4.892   5.557  0.3334  0.0076 -0.1712
 6133TIP3    H139890   6.249   4.840   5.494 -1.0879 -1.6283  2.1558
 6133TIP3    H239891   6.388   4.894   5.521 -0.4169 -0.8228 -2.2151
 6134TIP3   OH239892   0.018   6.011   5.847  0.0816  0.0870 -0.2028
 6134TIP3    H139893   0.043   6.058   5.767  0.4669  0.9746  0.4251
 6134TIP3    H239894   0.098   5.966   5.874 -0.2905 -0.9793 -0.8124
 6135TIP3   OH239895   1.879   2.081  11.333 -0.1302 -0.1258  0.3866
 6135TIP3    H139896   1.925   2.165  11.330  1.4282 -0.9547 -0.6468
 6135TIP3    H239897   1.870   2.055  11.241 -1.8826 -0.4492  0.6132
 6136TIP3   OH239898   2.966   5.426   5.634 -0.0911  0.2027  0.0689
 6136TIP3    H139899   2.955   5.332   5.628 -1.8201  0.2004  2.0170
 6136TIP3    H239900   3.029   5.439   5.705 -2.1809  0.4680  1.9899
 6137TIP3   OH239901   2.175   2.521   4.674  0.2133  0.1685  0.0483
 6137TIP3    H139902   2.163   2.572   4.755 -0.7492  1.2472 -0.7304
 6137TIP3    H239903   2.117   2.446   4.685 -0.6395  0.7932  0.0030
 6138TIP3   OH239904   6.183   4.066   2.660  0.4872  0.1483 -0.0700
 6138TIP3    H139905   6.258   4.013   2.633  0.5821 -0.1803  0.8269
 6138TIP3    H239906   6.115   4.046   2.595  1.1123  0.3329 -0.8003
 6139TIP3   OH239907   3.856   2.535   1.570 -0.2198 -0.1157 -0.8665
 6139TIP3    H139908   3.898   2.505   1.489  1.8710 -0.9858  0.4799
 6139TIP3    H239909   3.867   2.630   1.569 -2.4748  0.2278 -2.7491
 6140TIP3   OH239910   3.949   5.022  14.851  0.3255  0.7402 -0.0497
 6140TIP3    H139911   3.970   4.929  14.850 -1.1719  0.3887 -1.2492
 6140TIP3    H239912   4.034   5.066  14.840  1.1342 -0.4210  1.2202
 6141TIP3   OH239913   6.108   5.140   0.447 -0.2359 -0.0581 -0.0639
 6141TIP3    H139914   6.123   5.219   0.396  0.5222  1.5700  2.4527
 6141TIP3    H239915   6.188   5.128   0.498 -0.4377 -2.3266 -0.1516
 6142TIP3   OH239916   0.793   3.999   0.481 -0.7048 -0.1219  0.4987
 6142TIP3    H139917   0.849   4.023   0.555 -1.7374 -0.9343  1.5939
 6142TIP3    H239918   0.758   4.082   0.450 -1.2713  0.1553  1.7860
 6143TIP3   OH239919   3.955   2.448  11.777 -0.0844 -0.0347  0.2689
 6143TIP3    H139920   3.875   2.404  11.748 -0.3144 -0.4805  1.5146
 6143TIP3    H239921   3.962   2.525  11.720  0.0614 -1.3806 -1.6277
 6144TIP3   OH239922   0.185   2.068   5.412 -0.5967  0.4026  0.1654
 6144TIP3    H139923   0.201   2.033   5.499  0.3410  0.6171  0.0991
 6144TIP3    H239924   0.124   2.006   5.371 -0.2696 -0.2360  0.6314
 6145TIP3   OH239925   5.056   2.803   5.731  0.1934 -0.3307 -0.3893
 6145TIP3    H139926   4.962   2.784   5.738  0.7413 -2.6666  2.1864
 6145TIP3    H239927   5.088   2.738   5.669  0.2467  0.0200 -0.7351
 6146TIP3   OH239928   1.747   3.690   4.234 -0.3452 -0.2898 -0.6001
 6146TIP3    H139929   1.657   3.707   4.205 -0.4602  0.1821  0.0184
 6146TIP3    H239930   1.740   3.683   4.330  0.3270  0.0491 -0.5253
 6147TIP3   OH239931   0.744   4.000  13.174  0.0856 -0.1103  0.2204
 6147TIP3    H139932   0.657   4.040  13.166 -0.3812 -1.3309 -1.3110
 6147TIP3    H239933   0.786   4.017  13.090  2.0765  1.9777  1.5081
 6148TIP3   OH239934   1.546   6.504   5.612  0.3654  0.1003  0.5432
 6148TIP3    H139935   1.485   6.440   5.649 -0.0609 -0.9002 -1.7168
 6148TIP3    H239936   1.632   6.464   5.626  0.1178 -0.9355 -0.6431
 6149TIP3   OH239937   2.944   4.069   5.894  0.2726  0.1982 -0.1470
 6149TIP3    H139938   2.910   4.144   5.847  0.6528  0.3109 -0.2455
 6149TIP3    H239939   3.011   4.105   5.953  0.5272 -0.0722 -0.2657
 6150TIP3   OH239940   4.972   0.815  11.404 -0.0222  0.0164 -0.1883
 6150TIP3    H139941   4.925   0.780  11.328 -1.6773  0.0379  0.7584
 6150TIP3    H239942   4.926   0.777  11.479 -1.0259  3.0527  0.8598
 6151TIP3   OH239943   2.110   1.094   3.831 -0.2502 -0.4684  0.0645
 6151TIP3    H139944   2.049   1.128   3.766 -1.1328 -2.5527 -0.2805
 6151TIP3    H239945   2.196   1.104   3.791 -0.4541  1.2296 -0.0244
 6152TIP3   OH239946   6.142   3.509   2.246 -0.1148  0.2018  0.4683
 6152TIP3    H139947   6.159   3.498   2.152  1.1745  1.7856  0.4714
 6152TIP3    H239948   6.047   3.502   2.254 -0.4767  2.0451 -1.2917
 6153TIP3   OH239949   5.855   6.632   5.042  0.1879  0.2281  0.1209
 6153TIP3    H139950   5.896   6.714   5.069 -0.2467 -0.0256  1.6496
 6153TIP3    H239951   5.767   6.636   5.078 -0.9563  0.4335 -2.4663
 6154TIP3   OH239952   0.075   6.302  15.850  0.1765  0.3812  0.2735
 6154TIP3    H139953   0.085   6.279  15.758  0.2144 -0.6423  0.5194
 6154TIP3    H239954   0.006   6.243  15.882  0.2328  0.6609  0.9247
 6155TIP3   OH239955   1.938   5.613  16.152 -0.1652  0.2033 -0.5227
 6155TIP3    H139956   2.031   5.630  16.138 -0.5110  0.7801 -2.5624
 6155TIP3    H239957   1.928   5.519  16.136  0.0556  0.1676 -0.4480
 6156TIP3   OH239958   4.287   6.457  16.114 -0.4439  0.2905 -0.3121
 6156TIP3    H139959   4.232   6.393  16.069  0.5572 -0.8090 -0.0196
 6156TIP3    H239960   4.372   6.451  16.070  0.5783 -0.8534  1.6857
 6157TIP3   OH239961   1.685   2.012   6.106  0.2584  0.6474 -0.0886
 6157TIP3    H139962   1.676   2.107   6.099  0.0946  0.7913  1.7355
 6157TIP3    H239963   1.600   1.982   6.137  0.2004 -0.1556 -0.9780
 6158TIP3   OH239964   2.579   2.683   0.982  0.1095  0.1891 -0.2868
 6158TIP3    H139965   2.555   2.667   0.891  0.6124  0.1146 -0.4088
 6158TIP3    H239966   2.641   2.756   0.978 -0.5934  0.8246  0.0822
 6159TIP3   OH239967   0.908   3.789   1.151 -0.7466 -0.0804  0.5114
 6159TIP3    H139968   0.947   3.702   1.164  0.9485  0.4600 -0.5963
 6159TIP3    H239969   0.977   3.850   1.175 -1.4762  0.9564  0.0440
 6160TIP3   OH239970   4.924   2.214   0.067 -0.1438 -0.8641 -0.0196
 6160TIP3    H139971   4.875   2.296   0.055  1.1516 -0.3751 -2.7141
 6160TIP3    H239972   4.967   2.200  -0.017  1.8583 -2.9144  1.2584
 6161TIP3   OH239973   2.517   5.417   5.030 -0.2476 -0.0605 -0.6869
 6161TIP3    H139974   2.603   5.375   5.025 -0.9388 -1.7454  0.4809
 6161TIP3    H239975   2.455   5.349   5.005 -1.2163  1.5270 -2.9250
 6162TIP3   OH239976   3.691   1.124   3.682 -0.2148 -0.2492  0.3032
 6162TIP3    H139977   3.773   1.075   3.689 -0.4832 -0.9592 -1.1595
 6162TIP3    H239978   3.643   1.103   3.762  0.2226 -1.3707  0.2895
 6163TIP3   OH239979   0.666   1.982   3.181  0.3016  0.3868  0.2326
 6163TIP3    H139980   0.686   2.074   3.161 -0.6975  1.0068  1.8708
 6163TIP3    H239981   0.698   1.970   3.271  1.7349 -1.3179 -0.4480
 6164TIP3   OH239982   3.282   3.114  16.730 -0.0050  0.1761 -0.0558
 6164TIP3    H139983   3.280   3.097  16.824 -2.3417  0.8073  0.0780
 6164TIP3    H239984   3.313   3.033  16.690  1.2379 -0.0180  1.2447
 6165TIP3   OH239985   5.195   4.098   0.254 -0.2147 -0.6368  0.0597
 6165TIP3    H139986   5.162   4.020   0.298  1.5092 -1.0011  0.8215
 6165TIP3    H239987   5.261   4.133   0.315  0.0139  0.6243 -0.8787
 6166TIP3   OH239988   4.093   5.120  12.916  0.2016 -0.1141 -0.4004
 6166TIP3    H139989   4.139   5.148  12.995  1.5518 -0.6874 -0.9610
 6166TIP3    H239990   4.047   5.199  12.887 -0.0146  0.2018  0.7270
 6167TIP3   OH239991   0.356   4.141  15.436 -0.4111  0.5662 -0.8006
 6167TIP3    H139992   0.314   4.204  15.377 -1.4857  0.4389 -0.2124
 6167TIP3    H239993   0.396   4.076  15.378 -1.4921  0.4075 -1.3979
 6168TIP3   OH239994   6.642   0.159  10.807  0.2968 -0.0991 -0.1980
 6168TIP3    H139995   6.673   0.202  10.887  2.0745 -1.0099 -0.3445
 6168TIP3    H239996   6.711   0.096  10.786 -0.3542 -0.2025 -2.2007
 6169TIP3   OH239997   2.306   1.664   7.019  0.0981 -0.3543 -0.4582
 6169TIP3    H139998   2.218   1.644   6.986  0.1241  1.0367 -1.4311
 6169TIP3    H239999   2.364   1.647   6.945  0.8909 -2.6593  0.5784
 6170TIP3   OH240000   3.043   0.769   4.261  0.9206  0.2656 -0.5110
 6170TIP3    H140001   3.069   0.833   4.328 -0.9765 -0.4864  1.0360
 6170TIP3    H240002   2.955   0.796   4.234  0.9240 -0.5097 -1.3615
 6171TIP3   OH240003   2.800   2.805   1.653  0.0589 -0.0165  0.2370
 6171TIP3    H140004   2.792   2.755   1.734 -0.9456 -0.1835  0.0413
 6171TIP3    H240005   2.836   2.743   1.590  0.2891 -0.0504  0.4006
 6172TIP3   OH240006   2.362   2.800  15.154  0.6994 -0.2136  0.0637
 6172TIP3    H140007   2.357   2.722  15.208  0.0190 -0.4643 -0.3473
 6172TIP3    H240008   2.290   2.791  15.091 -0.7325  1.7279  1.3214
 6173TIP3   OH240009   5.004   2.105  11.452 -0.6326 -0.3522 -0.5443
 6173TIP3    H140010   5.013   2.177  11.514 -0.7113 -0.8023 -0.0068
 6173TIP3    H240011   4.973   2.147  11.371  1.1188  0.4859 -0.8263
 6174TIP3   OH240012   4.729   5.550  15.626 -0.6765  0.1156  0.0658
 6174TIP3    H140013   4.786   5.531  15.552 -1.0212  0.4898 -0.3016
 6174TIP3    H240014   4.645   5.509  15.603 -0.5652 -0.4410  0.6065
 6175TIP3   OH240015   5.112   4.068   2.502 -0.0697 -0.0172  0.4455
 6175TIP3    H140016   5.094   4.118   2.422  0.8616 -0.2695  0.0668
 6175TIP3    H240017   5.079   3.980   2.483  0.0242 -0.0401  0.3857
 6176TIP3   OH240018   1.482   1.233   0.495 -0.6156  0.5168  0.8437
 6176TIP3    H140019   1.403   1.183   0.517  0.1931 -1.5144 -0.6155
 6176TIP3    H240020   1.543   1.215   0.566 -0.0235 -1.3442 -0.0987
 6177TIP3   OH240021   4.505   1.173  12.319 -0.2699  0.2414  0.2499
 6177TIP3    H140022   4.589   1.165  12.273  0.9521  2.8462  1.8396
 6177TIP3    H240023   4.452   1.229  12.262 -1.2270 -1.7543 -0.9714
 6178TIP3   OH240024   2.132   3.805  13.211 -0.3722  0.0819  0.0888
 6178TIP3    H140025   2.218   3.768  13.190 -0.3549  0.5823 -0.7257
 6178TIP3    H240026   2.135   3.894  13.177 -2.2064 -0.7461 -2.5201
 6179TIP3   OH240027   4.465   3.137   0.620 -0.4765 -0.4691  0.8698
 6179TIP3    H140028   4.519   3.117   0.696 -1.6664 -1.8474  1.3929
 6179TIP3    H240029   4.431   3.225   0.638  1.0836  0.1875  0.7874
 6180TIP3   OH240030   0.976   5.432   5.960 -0.2924  0.6807 -0.1763
 6180TIP3    H140031   1.048   5.412   5.899 -1.3003 -0.1376 -1.1358
 6180TIP3    H240032   1.001   5.388   6.041  0.1100  0.0413 -0.6310
 6181TIP3   OH240033   6.659   6.671   0.590 -0.1369  0.2101 -0.1461
 6181TIP3    H140034   6.691   6.760   0.603 -0.4127  0.3017 -0.0817
 6181TIP3    H240035   6.564   6.677   0.604 -0.2688  0.0639 -0.9087
 6182TIP3   OH240036   4.431   6.546   4.432 -0.0054 -0.0920  0.5609
 6182TIP3    H140037   4.433   6.451   4.436  0.6986 -0.0410  2.2025
 6182TIP3    H240038   4.347   6.567   4.391  1.0491 -1.4192 -2.6648
 6183TIP3   OH240039   6.039   5.124   1.732 -0.4920  0.3092  0.3623
 6183TIP3    H140040   5.971   5.111   1.666 -0.0862 -1.9657  0.3047
 6183TIP3    H240041   6.018   5.209   1.772 -2.8207  0.1007 -0.2672
 6184TIP3   OH240042   5.302   3.488  14.447  0.5104 -0.1982 -0.1538
 6184TIP3    H140043   5.384   3.471  14.400  1.9072  2.2881  1.1357
 6184TIP3    H240044   5.329   3.506  14.537 -1.4712  0.5600  0.3444
 6185TIP3   OH240045   3.457   2.128  13.136  0.1982  0.3357  0.0409
 6185TIP3    H140046   3.452   2.103  13.228 -0.8224  0.1754 -0.0548
 6185TIP3    H240047   3.370   2.160  13.114 -0.2831 -1.7885 -1.4785
 6186TIP3   OH240048   6.437   2.051   2.917 -0.1828  0.2112  0.5382
 6186TIP3    H140049   6.425   1.980   2.854 -1.2897  0.3020  0.6283
 6186TIP3    H240050   6.531   2.065   2.920  0.0319 -1.0568  0.3004
 6187TIP3   OH240051   0.905   4.469  12.922 -0.0349 -0.2301 -0.6073
 6187TIP3    H140052   0.905   4.495  13.014  1.2373  0.3258 -0.7391
 6187TIP3    H240053   0.824   4.504  12.887  0.3300  1.1560 -0.1223
 6188TIP3   OH240054   3.087   0.436   5.829  0.4083 -0.0548 -0.1849
 6188TIP3    H140055   3.071   0.457   5.737 -0.9329 -2.1630 -0.5011
 6188TIP3    H240056   3.001   0.441   5.870  0.9501  0.5895  0.9327
 6189TIP3   OH240057   4.494   4.241   5.536 -0.2216 -0.0976  0.0149
 6189TIP3    H140058   4.551   4.310   5.502  1.3783 -0.9258  0.9206
 6189TIP3    H240059   4.446   4.209   5.459  1.1478  0.0640 -0.9321
 6190TIP3   OH240060   3.077   2.525   6.469  0.3825 -0.1009 -0.5368
 6190TIP3    H140061   3.047   2.451   6.521  0.3255  0.0764 -0.3128
 6190TIP3    H240062   3.154   2.557   6.516  0.8846 -0.5141 -1.0747
 6191TIP3   OH240063   1.239   6.781  14.254 -0.1846  0.1075  0.2264
 6191TIP3    H140064   1.146   6.775  14.235  0.0047 -1.1296 -0.4291
 6191TIP3    H240065   1.274   6.838  14.185 -0.4552  0.5794  0.4793
 6192TIP3   OH240066   3.160   6.412   4.231  0.0734 -0.2795  0.2166
 6192TIP3    H140067   3.198   6.324   4.224 -0.6180 -0.6206  0.6710
 6192TIP3    H240068   3.150   6.427   4.325 -1.1685 -0.3120  0.0952
 6193TIP3   OH240069   2.722   1.411  12.771  0.5037  0.4636 -0.2306
 6193TIP3    H140070   2.717   1.354  12.848 -0.5337 -0.6394 -1.0663
 6193TIP3    H240071   2.810   1.448  12.774  1.2662 -1.2736  0.3232
 6194TIP3   OH240072   2.167   0.132  12.447  0.1833 -0.5249 -0.0303
 6194TIP3    H140073   2.140   0.125  12.538  2.6058 -0.4896  0.7743
 6194TIP3    H240074   2.262   0.148  12.451  0.3308 -0.2754 -2.5503
 6195TIP3   OH240075   1.546   2.681  13.129  0.5052  0.2390 -0.1622
 6195TIP3    H140076   1.576   2.736  13.056  0.9542  0.1964 -0.0120
 6195TIP3    H240077   1.626   2.661  13.178  0.3856 -0.7783 -0.3631
 6196TIP3   OH240078   4.634   3.884  17.062 -0.5360  0.2703 -0.3103
 6196TIP3    H140079   4.643   3.796  17.027 -2.0792  0.3719 -1.0481
 6196TIP3    H240080   4.673   3.879  17.149  1.6764 -0.4622 -1.2771
 6197TIP3   OH240081   0.375   6.316   2.970  0.4092 -0.3668 -0.5249
 6197TIP3    H140082   0.345   6.392   3.020  2.5971  3.1737 -3.9902
 6197TIP3    H240083   0.323   6.243   3.003 -4.7930  3.2731  0.5432
 6198TIP3   OH240084   0.510   1.031   4.340  0.3794 -0.7771  0.9863
 6198TIP3    H140085   0.515   0.936   4.349  2.0810 -0.8595 -0.2015
 6198TIP3    H240086   0.457   1.046   4.262  0.3935 -0.7641  0.9791
 6199TIP3   OH240087   2.954   3.983   3.891  0.0528 -0.1025 -0.1288
 6199TIP3    H140088   2.933   4.048   3.823 -2.7525  0.8245  1.4671
 6199TIP3    H240089   2.969   3.902   3.842  0.5329  1.0424 -1.9814
 6200TIP3   OH240090   0.351   2.158   4.616 -0.0306  0.0617 -0.0834
 6200TIP3    H140091   0.273   2.179   4.668  2.0231 -1.4252  4.0732
 6200TIP3    H240092   0.391   2.243   4.598 -0.4862  0.6555  1.4951
 6201TIP3   OH240093   3.962   1.226   0.997  0.2877  0.0607  0.2771
 6201TIP3    H140094   3.917   1.295   1.045 -1.8748 -0.8962 -0.2553
 6201TIP3    H240095   3.978   1.264   0.911 -1.0760 -0.1103 -0.0816
 6202TIP3   OH240096   0.125   6.457  16.072 -0.4586  0.6598 -0.5074
 6202TIP3    H140097   0.135   6.404  15.993  1.0839 -0.3489  0.3058
 6202TIP3    H240098   0.118   6.393  16.143  0.8741  1.5067  0.4446
 6203TIP3   OH240099   3.393   1.842   5.200  0.3786  0.3830 -0.1886
 6203TIP3    H140100   3.482   1.857   5.230  0.5332 -1.5774  0.4669
 6203TIP3    H240101   3.378   1.748   5.214 -1.4231  0.4591 -1.2567
 6204TIP3   OH240102   6.741   4.686  12.931 -0.2293  0.0304  0.0918
 6204TIP3    H140103   6.770   4.777  12.939 -0.2493  0.1276 -0.8167
 6204TIP3    H240104   6.688   4.671  13.009 -0.0322  0.7250  0.3697
 6205TIP3   OH240105   2.077   2.695  13.264  0.5088  0.4823  0.1288
 6205TIP3    H140106   2.157   2.725  13.221  0.5226 -1.5046 -1.4032
 6205TIP3    H240107   2.016   2.680  13.191 -0.5259 -0.0422  1.0798
 6206TIP3   OH240108   2.777   0.740   3.538 -0.2595 -0.4133 -0.0626
 6206TIP3    H140109   2.812   0.656   3.508  1.6325  0.1089  0.5620
 6206TIP3    H240110   2.823   0.806   3.487 -2.6466  0.2941 -1.4760
 6207TIP3   OH240111   1.513   4.814   6.041 -0.5023  0.0234 -0.2926
 6207TIP3    H140112   1.518   4.766   6.124 -0.7078  0.6012  0.0602
 6207TIP3    H240113   1.573   4.888   6.052 -1.3213  0.7024 -0.2466
 6208TIP3   OH240114   5.447   4.833  13.583  0.2546  0.4465 -0.0115
 6208TIP3    H140115   5.440   4.855  13.490  1.8414  0.6384 -0.1217
 6208TIP3    H240116   5.361   4.799  13.606 -0.8077  2.2136 -1.0514
 6209TIP3   OH240117   5.692   2.379   3.285  0.2824  0.5691 -0.3164
 6209TIP3    H140118   5.779   2.383   3.247  0.7408 -0.3294  0.5696
 6209TIP3    H240119   5.684   2.288   3.316 -0.8561  0.7140 -0.1377
 6210TIP3   OH240120   3.282   0.005  12.407  0.0627 -0.4939  0.0503
 6210TIP3    H140121   3.363   0.036  12.448  2.0376 -1.8376 -2.5404
 6210TIP3    H240122   3.257   0.076  12.348  0.3365 -0.7536 -0.3844
 6211TIP3   OH240123   3.598   4.334  12.705 -0.3329 -0.5260  0.3153
 6211TIP3    H140124   3.617   4.392  12.778  0.9463  0.0245 -0.4282
 6211TIP3    H240125   3.673   4.343  12.646 -0.9416 -1.5819 -0.6751
 6212TIP3   OH240126   3.059   4.273   4.094 -0.1818 -0.7847 -0.1569
 6212TIP3    H140127   2.976   4.252   4.051  0.7706 -4.4880 -0.4665
 6212TIP3    H240128   3.042   4.258   4.187  0.5228 -3.5066 -0.3862
 6213TIP3   OH240129   3.057   2.834  12.296 -0.0880 -0.4885  0.3905
 6213TIP3    H140130   3.117   2.868  12.362 -0.0421  0.6997 -0.2416
 6213TIP3    H240131   2.973   2.825  12.342  0.2408 -0.8914  0.9280
 6214TIP3   OH240132   2.691   0.007   6.901  0.5582 -0.3724  0.5976
 6214TIP3    H140133   2.716   0.055   6.980 -0.4582 -0.4165  0.9580
 6214TIP3    H240134   2.599   0.030   6.887  0.1917 -1.8143  0.4993
 6215TIP3   OH240135   1.171   4.077   3.248 -0.0626 -0.3678 -0.2125
 6215TIP3    H140136   1.081   4.104   3.228 -0.2376  1.1228  2.1974
 6215TIP3    H240137   1.223   4.156   3.239  0.4679 -0.5135  1.2667
 6216TIP3   OH240138   5.956   3.969   2.261 -0.4151 -0.3453  0.6023
 6216TIP3    H140139   5.986   4.060   2.264  0.6658 -0.7017  1.3642
 6216TIP3    H240140   6.035   3.918   2.241 -1.4598 -0.9435 -2.4727
 6217TIP3   OH240141   5.771   3.101  10.961  0.2907 -0.1791  0.5054
 6217TIP3    H140142   5.832   3.034  10.991  0.6358 -0.0258  0.1643
 6217TIP3    H240143   5.770   3.091  10.865 -0.6570 -0.5560  0.5436
 6218TIP3   OH240144   4.870   4.786  16.682 -0.2582  0.2968 -0.4709
 6218TIP3    H140145   4.915   4.849  16.627 -0.6213  1.7909  0.8744
 6218TIP3    H240146   4.929   4.773  16.757 -0.5308 -0.3751 -0.3623
 6219TIP3   OH240147   5.022   3.089  16.872  0.3670 -0.1236  0.2879
 6219TIP3    H140148   5.037   3.148  16.946  0.0362 -0.2717  0.4758
 6219TIP3    H240149   4.954   3.134  16.820  1.9351  0.9192 -0.9642
 6220TIP3   OH240150   4.007   5.962   4.888 -0.0950  0.2726 -0.3354
 6220TIP3    H140151   3.918   5.972   4.854 -0.5613 -1.0431  0.4145
 6220TIP3    H240152   4.029   5.870   4.872 -0.1574 -0.3114  2.3391
 6221TIP3   OH240153   3.251   1.564   2.886 -0.3297 -0.5604  0.8206
 6221TIP3    H140154   3.300   1.483   2.870 -2.2228 -1.4977 -0.6340
 6221TIP3    H240155   3.179   1.537   2.944  0.0230  0.4738  1.7715
 6222TIP3   OH240156   3.945   6.545  13.778 -0.4266 -0.0100 -0.3686
 6222TIP3    H140157   4.007   6.498  13.722 -0.6570 -0.3967 -0.3019
 6222TIP3    H240158   3.860   6.532  13.735 -0.6833 -0.7362  0.3386
 6223TIP3   OH240159   2.264   4.297  13.424 -0.2241  0.3212 -0.1301
 6223TIP3    H140160   2.313   4.372  13.389  0.9582 -0.7106 -0.7817
 6223TIP3    H240161   2.176   4.307  13.387 -0.2652  1.6803  0.2588
 6224TIP3   OH240162   1.629   2.202   5.569  0.6530  0.4704  0.7414
 6224TIP3    H140163   1.575   2.127   5.594  1.1812 -0.7807 -1.5852
 6224TIP3    H240164   1.600   2.224   5.481  0.5968  3.0055  1.2991
 6225TIP3   OH240165   2.691   1.687  13.809 -0.3365  0.4129  0.3090
 6225TIP3    H140166   2.648   1.605  13.787  0.6439  0.6037 -2.7206
 6225TIP3    H240167   2.674   1.699  13.902 -0.8347 -2.9963  0.7636
 6226TIP3   OH240168   4.241   6.540   2.361 -0.6904 -0.0191  0.5303
 6226TIP3    H140169   4.254   6.609   2.426 -1.3559  0.7378 -0.1330
 6226TIP3    H240170   4.156   6.502   2.383 -2.0717  1.7950 -1.2453
 6227TIP3   OH240171   4.127   4.624  12.868  0.1071 -0.7195  0.3441
 6227TIP3    H140172   4.143   4.673  12.787  1.0319  0.2385  1.0807
 6227TIP3    H240173   4.039   4.587  12.857 -0.0145 -0.1169 -0.8479
 6228TIP3   OH240174   6.523   3.000  11.915 -0.2973  0.6275  0.0746
 6228TIP3    H140175   6.617   3.011  11.903 -0.1491 -0.3081  0.2944
 6228TIP3    H240176   6.490   3.089  11.928  0.2815  1.1519 -1.7760
 6229TIP3   OH240177   1.802   4.890   4.233 -0.4238 -0.0824  0.5230
 6229TIP3    H140178   1.737   4.940   4.283 -0.6039 -0.8440  1.0726
 6229TIP3    H240179   1.875   4.951   4.221 -0.2053  0.0065  2.0898
 6230TIP3   OH240180   3.725   1.493   4.660  0.1483  0.2091 -0.3041
 6230TIP3    H140181   3.721   1.582   4.693  0.8229  0.6952 -1.4817
 6230TIP3    H240182   3.640   1.478   4.618 -0.1983  0.0580  0.4237
 6231TIP3   OH240183   1.656   2.701  11.752 -0.5597  0.3569  0.0576
 6231TIP3    H140184   1.612   2.786  11.747 -2.0172 -0.3469  0.2388
 6231TIP3    H240185   1.586   2.639  11.774  0.6952 -0.7073  1.2423
 6232TIP3   OH240186   3.809   4.889  13.350 -0.1363 -0.0191 -0.0498
 6232TIP3    H140187   3.750   4.954  13.313  0.5505 -1.0764 -3.3136
 6232TIP3    H240188   3.893   4.904  13.307  1.4709  0.0090  2.8213
 6233TIP3   OH240189   4.051   0.110   2.948  0.0482  0.6059  0.1816
 6233TIP3    H140190   4.099   0.189   2.976 -0.1904  0.1083  2.1578
 6233TIP3    H240191   4.114   0.039   2.959 -0.4445  0.2352  0.6738
 6234TIP3   OH240192   4.076   6.212   0.038  0.2570  0.5920  0.3667
 6234TIP3    H140193   4.037   6.300   0.038 -0.2054  0.4304  2.3163
 6234TIP3    H240194   4.029   6.164  -0.030  1.0109  2.0156 -1.2597
 6235TIP3   OH240195   4.589   2.568  12.160 -0.7502 -0.1630  0.6063
 6235TIP3    H140196   4.622   2.640  12.215 -0.2329 -0.8120  1.1684
 6235TIP3    H240197   4.665   2.511  12.148 -1.0894 -0.4789 -0.0629
 6236TIP3   OH240198   4.565   0.516  16.093 -0.5077  0.2774 -0.1939
 6236TIP3    H140199   4.538   0.552  16.008  1.0016 -0.7163 -1.1531
 6236TIP3    H240200   4.579   0.422  16.076  0.5573  0.1963  0.9444
 6237TIP3   OH240201   4.368   2.572   2.134 -0.4119 -0.0553  0.1606
 6237TIP3    H140202   4.316   2.539   2.060 -1.3039  0.7716  0.4044
 6237TIP3    H240203   4.389   2.494   2.185 -1.3426 -0.4135  0.0120
 6238TIP3   OH240204   6.786   3.756   3.512  0.2467 -0.2492 -0.4073
 6238TIP3    H140205   6.831   3.840   3.522 -0.5344  0.1036  0.2432
 6238TIP3    H240206   6.856   3.691   3.509  0.8308  0.3709 -0.3250
 6239TIP3   OH240207   1.235   0.308  15.297 -0.1853 -0.8819 -0.3694
 6239TIP3    H140208   1.177   0.383  15.312  0.2048 -0.6983  0.2516
 6239TIP3    H240209   1.313   0.328  15.348 -0.0742 -1.7090 -0.2086
 6240TIP3   OH240210   0.446   5.030  11.218 -0.4928  0.2424  0.5777
 6240TIP3    H140211   0.540   5.034  11.200 -0.7598  0.5617 -0.9273
 6240TIP3    H240212   0.405   5.042  11.132 -1.9029 -1.7353  0.9180
 6241TIP3   OH240213   3.290   5.441   5.098 -0.3719  0.0713  0.5607
 6241TIP3    H140214   3.328   5.437   5.186 -1.7507  1.1732  1.2460
 6241TIP3    H240215   3.211   5.494   5.108 -1.0812 -0.5772 -1.1721
 6242TIP3   OH240216   4.389   4.417  14.205  0.2243  0.8948 -0.3362
 6242TIP3    H140217   4.395   4.462  14.290  0.5573 -0.5683  0.4457
 6242TIP3    H240218   4.479   4.403  14.179  0.1214  0.9799 -0.7407
 6243TIP3   OH240219   4.592   2.844   4.552  0.3126  0.4723  0.2752
 6243TIP3    H140220   4.594   2.938   4.533 -1.0360  0.3491 -0.6182
 6243TIP3    H240221   4.625   2.803   4.471  0.7784  0.1563  0.6161
 6244TIP3   OH240222   5.002   0.405  13.817  0.2625 -0.0484  0.4398
 6244TIP3    H140223   5.081   0.443  13.857 -0.1530  1.5278 -0.1717
 6244TIP3    H240224   5.029   0.384  13.727  0.9764 -2.8821  1.2158
 6245TIP3   OH240225   5.429   5.273   1.190  0.0059 -0.2186 -0.1594
 6245TIP3    H140226   5.421   5.225   1.273 -0.5654 -0.6801 -0.4731
 6245TIP3    H240227   5.521   5.297   1.186 -0.1473  0.7057  1.1013
 6246TIP3   OH240228   5.935   4.006   1.294  0.0148  0.2215 -0.4846
 6246TIP3    H140229   5.987   3.994   1.374 -0.7795 -0.5188 -0.0700
 6246TIP3    H240230   5.939   3.921   1.251 -1.9311 -0.2779  0.2186
 6247TIP3   OH240231   2.366   3.883   0.628  0.6085  0.5231  0.4607
 6247TIP3    H140232   2.390   3.822   0.559  1.6458 -1.8960  2.7829
 6247TIP3    H240233   2.319   3.829   0.692  0.2452  2.4940  1.9480
 6248TIP3   OH240234   2.946   5.850   5.275  0.0897  0.6096  1.0965
 6248TIP3    H140235   2.918   5.772   5.323 -1.3232  1.0272  0.9859
 6248TIP3    H240236   2.890   5.851   5.198  1.4923  0.6340  0.0459
 6249TIP3   OH240237   6.540   5.632  15.765 -0.3135  0.5774 -0.2287
 6249TIP3    H140238   6.557   5.654  15.673 -0.9922 -1.1705 -0.8117
 6249TIP3    H240239   6.445   5.626  15.771 -0.2427 -0.0584  0.3922
 6250TIP3   OH240240   1.454   5.745  10.774  0.4396  0.3903 -0.0090
 6250TIP3    H140241   1.359   5.745  10.786  0.2911  0.8021 -1.1383
 6250TIP3    H240242   1.474   5.658  10.739  0.3617  0.6084 -0.6058
 6251TIP3   OH240243   4.641   3.872  16.279 -0.1929  0.3191  0.2541
 6251TIP3    H140244   4.594   3.814  16.218  2.1446 -0.9906 -0.4210
 6251TIP3    H240245   4.718   3.900  16.231  0.7503  0.8090  1.9624
 6252TIP3   OH240246   6.530   3.564  11.652 -0.5115  0.2813  0.0269
 6252TIP3    H140247   6.477   3.494  11.615  1.7663 -2.2199  1.1436
 6252TIP3    H240248   6.584   3.594  11.579  0.7657 -1.4590  0.1928
 6253TIP3   OH240249   6.558   4.690   2.319 -0.5577  0.4671  0.2744
 6253TIP3    H140250   6.622   4.760   2.302  0.1717 -0.1952  0.2472
 6253TIP3    H240251   6.480   4.737   2.348 -0.0387  1.2953  0.3958
 6254TIP3   OH240252   4.870   1.358   2.810  0.1413  0.1110  0.3412
 6254TIP3    H140253   4.791   1.354   2.863 -0.2752  0.1734 -0.2624
 6254TIP3    H240254   4.936   1.311   2.861 -0.6828 -1.2668  0.1741
 6255TIP3   OH240255   5.381   1.377  12.535 -0.0082  0.7124 -0.5660
 6255TIP3    H140256   5.362   1.396  12.627 -0.0235  2.1934 -0.8513
 6255TIP3    H240257   5.407   1.461  12.498  4.7240 -0.6104 -0.8484
 6256TIP3   OH240258   4.413   1.576   0.313 -0.2354 -0.4957 -0.0102
 6256TIP3    H140259   4.341   1.635   0.292 -0.7954 -0.6244  1.3933
 6256TIP3    H240260   4.476   1.587   0.242 -1.0231  0.6300 -0.5555
 6257TIP3   OH240261   5.903   4.519  11.174  0.4406 -0.6226 -0.0980
 6257TIP3    H140262   5.873   4.537  11.084  0.3948  1.4620  0.2734
 6257TIP3    H240263   5.977   4.580  11.186  0.6556 -1.1176  1.1738
 6258TIP3   OH240264   0.035   0.835  14.430 -0.2274  0.3382 -0.3203
 6258TIP3    H140265   0.046   0.754  14.380  1.2385 -0.6232  1.4406
 6258TIP3    H240266  -0.055   0.832  14.461 -0.8271  0.4295 -1.9439
 6259TIP3   OH240267   5.679   5.549   5.105 -0.0511 -0.3157  0.0979
 6259TIP3    H140268   5.729   5.499   5.041 -0.3474 -1.9540  1.0837
 6259TIP3    H240269   5.700   5.640   5.086 -0.3084 -0.7043 -2.4749
 6260TIP3   OH240270   1.549   3.181   5.625  0.6317  0.2768  0.0732
 6260TIP3    H140271   1.583   3.093   5.607  1.3080  0.7095 -0.8122
 6260TIP3    H240272   1.497   3.203   5.548  1.7540  1.2728 -0.4294
 6261TIP3   OH240273   5.878   3.621  17.190 -0.2386  0.0534  0.1652
 6261TIP3    H140274   5.947   3.597  17.128 -0.4332 -0.0516 -0.0110
 6261TIP3    H240275   5.830   3.539  17.205 -0.8302  0.2920 -0.3478
 6262TIP3   OH240276   0.996   4.963   2.389 -0.2676  0.2764 -0.3556
 6262TIP3    H140277   1.049   5.035   2.357 -0.2696  0.6597  0.4645
 6262TIP3    H240278   0.942   5.002   2.458 -0.1443 -0.5402  0.2217
 6263TIP3   OH240279   4.617   3.363   4.256 -0.0262 -0.5633 -0.6914
 6263TIP3    H140280   4.665   3.366   4.174 -1.0720 -0.8821 -1.3399
 6263TIP3    H240281   4.534   3.406   4.237 -0.2449 -0.5537  0.2268
 6264TIP3   OH240282   2.383   3.447   1.287 -0.5070 -0.2347 -0.0157
 6264TIP3    H140283   2.456   3.501   1.318  1.0406 -1.6336 -1.0622
 6264TIP3    H240284   2.388   3.367   1.339 -1.0126 -0.5449 -0.4287
 6265TIP3   OH240285   4.123   4.544  13.897 -0.2757  0.6849  0.1155
 6265TIP3    H140286   4.056   4.492  13.853  0.9617  0.5455 -1.7319
 6265TIP3    H240287   4.083   4.631  13.907 -1.8672 -0.1910  2.0255
 6266TIP3   OH240288   4.625   0.227  16.076 -0.2840 -0.1042  0.1351
 6266TIP3    H140289   4.715   0.195  16.082 -0.3130 -0.0805  0.7700
 6266TIP3    H240290   4.571   0.149  16.088 -0.3701 -0.4360 -2.0299
 6267TIP3   OH240291   5.962   3.403  13.270  0.0263  0.1737 -0.3141
 6267TIP3    H140292   5.977   3.327  13.327  0.0800  1.0019  0.8045
 6267TIP3    H240293   5.982   3.478  13.325 -1.0590  1.0484 -1.0864
 6268TIP3   OH240294   4.050   2.880   0.960 -0.4612 -0.5098 -0.4813
 6268TIP3    H140295   4.141   2.873   0.929 -0.2999 -1.4886  0.1631
 6268TIP3    H240296   4.011   2.796   0.936 -1.1694 -0.1365 -0.6395
 6269TIP3   OH240297   0.007   2.635  12.645 -0.0021 -0.0772  0.4316
 6269TIP3    H140298   0.033   2.587  12.566 -0.9275  1.8492 -1.1299
 6269TIP3    H240299  -0.087   2.619  12.653  0.1858 -0.7207  1.5177
 6270TIP3   OH240300   3.336   4.064  15.354  0.1922 -0.4013  0.1814
 6270TIP3    H140301   3.415   4.016  15.330 -0.4005 -1.3404  0.0562
 6270TIP3    H240302   3.368   4.151  15.380  1.4188 -1.2533  1.6534
 6271TIP3   OH240303   5.827   1.774   3.944 -0.1343 -0.0023 -0.1989
 6271TIP3    H140304   5.743   1.727   3.936 -0.2180 -0.3986  2.1307
 6271TIP3    H240305   5.872   1.728   4.015  1.4730  1.0802 -0.4853
 6272TIP3   OH240306   2.567   5.091  16.252  0.1640  0.0455  0.3473
 6272TIP3    H140307   2.568   5.135  16.338  1.3791  0.6821  0.0302
 6272TIP3    H240308   2.576   4.998  16.273 -0.2224  0.1324  0.9370
 6273TIP3   OH240309   2.065   4.541   5.517  0.1298  0.4627  0.0080
 6273TIP3    H140310   2.159   4.527   5.529  0.5090  1.3826 -1.6119
 6273TIP3    H240311   2.040   4.476   5.451 -0.4030  0.1599  0.5015
 6274TIP3   OH240312   4.958   5.930  16.491  0.2544  0.4912 -0.1316
 6274TIP3    H140313   4.870   5.965  16.480 -0.1626 -0.5914 -0.3680
 6274TIP3    H240314   5.010   6.004  16.524 -0.6156  1.2728 -0.4850
 6275TIP3   OH240315   5.944   5.771   0.612 -0.1743 -0.2865  0.1133
 6275TIP3    H140316   5.970   5.820   0.690 -1.4611 -0.3279  0.5890
 6275TIP3    H240317   5.881   5.827   0.568 -1.3267 -1.2868  0.4237
 6276TIP3   OH240318   6.299   2.191   4.605  0.3658  0.2283  0.6128
 6276TIP3    H140319   6.265   2.182   4.516  0.3248 -0.2978  0.6780
 6276TIP3    H240320   6.249   2.128   4.657 -0.2475  1.1696  1.1937
 6277TIP3   OH240321   4.588   0.179  13.384 -0.0602 -0.3272  0.1720
 6277TIP3    H140322   4.522   0.204  13.319 -0.4810 -1.3562  0.1854
 6277TIP3    H240323   4.537   0.169  13.465  0.0934 -1.1537  0.1761
 6278TIP3   OH240324   6.641   2.406  13.896 -0.1493 -0.1532  0.3051
 6278TIP3    H140325   6.632   2.459  13.817  0.2476 -1.1846 -0.4664
 6278TIP3    H240326   6.691   2.329  13.867 -0.9659 -1.0976  1.2873
 6279TIP3   OH240327   6.116   1.854  16.453 -0.6201  0.1821 -1.1076
 6279TIP3    H140328   6.032   1.863  16.407 -1.5862 -0.7382  0.4247
 6279TIP3    H240329   6.132   1.941  16.490 -1.4669  0.0581 -0.4512
 6280TIP3   OH240330   0.397   3.639  16.492  0.6052  0.2361 -0.1899
 6280TIP3    H140331   0.473   3.631  16.549  0.5778  0.3735 -0.1319
 6280TIP3    H240332   0.368   3.549  16.477  1.4427  0.0981 -1.1188
 6281TIP3   OH240333   3.286   4.555  13.062 -0.6727 -0.3857  0.2136
 6281TIP3    H140334   3.198   4.555  13.025 -0.9495  1.5910  0.7420
 6281TIP3    H240335   3.298   4.466  13.095 -2.1732 -0.8984 -0.5036
 6282TIP3   OH240336   4.222   3.282  16.430 -0.4236 -0.4559 -0.6706
 6282TIP3    H140337   4.212   3.377  16.419  1.8428 -0.1607 -0.6909
 6282TIP3    H240338   4.134   3.247  16.418 -1.3697  1.6639 -0.4032
 6283TIP3   OH240339   4.817   2.972  13.398 -0.0169 -0.0868 -0.1563
 6283TIP3    H140340   4.873   2.971  13.320  0.0195 -1.3454 -0.1420
 6283TIP3    H240341   4.730   2.993  13.364  0.1860  0.3878 -0.3898
 6284TIP3   OH240342   0.947   2.778   4.268 -0.1427  0.3303 -0.2392
 6284TIP3    H140343   1.008   2.832   4.318 -0.9235  0.2979  0.8047
 6284TIP3    H240344   0.963   2.689   4.299 -3.1728  0.6572  2.9750
 6285TIP3   OH240345   6.300   1.764  14.599  0.4678 -0.0575 -0.2310
 6285TIP3    H140346   6.322   1.697  14.535 -0.1434 -0.1395 -0.3584
 6285TIP3    H240347   6.322   1.846  14.556  3.4186 -0.2016  0.7506
 6286TIP3   OH240348   1.698   3.997  15.270  0.3486  0.5366  0.2270
 6286TIP3    H140349   1.767   3.972  15.210 -1.3255 -1.7117 -0.8940
 6286TIP3    H240350   1.654   3.915  15.292 -1.4933  1.7826  1.4919
 6287TIP3   OH240351   6.481   6.648  10.771 -0.0719 -0.8253 -0.3466
 6287TIP3    H140352   6.555   6.693  10.732  0.0298 -0.9644 -0.3147
 6287TIP3    H240353   6.405   6.680  10.723  0.0694 -1.1339 -0.7882
 6288TIP3   OH240354   2.029   2.839  16.755  0.0031 -0.3629  0.7636
 6288TIP3    H140355   1.973   2.849  16.679  0.2991 -1.7818  0.3330
 6288TIP3    H240356   2.003   2.910  16.814 -2.7834 -1.3896  0.9028
 6289TIP3   OH240357   1.148   6.261   2.803 -0.1146 -0.1121  0.4276
 6289TIP3    H140358   1.145   6.308   2.886 -0.5256  1.2018 -0.2979
 6289TIP3    H240359   1.235   6.222   2.800 -0.5630 -1.3414  2.0687
 6290TIP3   OH240360   6.109   1.162  12.494 -0.2929 -0.4429  0.9046
 6290TIP3    H140361   6.026   1.122  12.467  1.3816 -4.3983  1.0119
 6290TIP3    H240362   6.156   1.177  12.412 -0.1301 -0.6289  0.9626
 6291TIP3   OH240363   3.678   1.037   3.069 -0.1617  0.1990 -0.3840
 6291TIP3    H140364   3.709   1.114   3.022 -2.2830  0.4281 -1.5233
 6291TIP3    H240365   3.605   1.069   3.123 -2.1147 -1.1879 -2.0547
 6292TIP3   OH240366   1.479   3.276  12.257  0.2428  0.4425  0.3149
 6292TIP3    H140367   1.451   3.195  12.299 -0.9129  1.0864  0.8125
 6292TIP3    H240368   1.573   3.264  12.242  0.0878 -0.9622  0.4226
 6293TIP3   OH240369   0.287   1.752   3.708 -0.2909  0.0496  0.0663
 6293TIP3    H140370   0.279   1.707   3.624 -0.5314  2.1858 -1.1110
 6293TIP3    H240371   0.202   1.740   3.750  0.1205 -1.7965  0.4700
 6294TIP3   OH240372   4.463   2.284  12.133  0.0487 -0.3554 -0.0245
 6294TIP3    H140373   4.462   2.198  12.092 -0.5589  0.3168 -1.5118
 6294TIP3    H240374   4.553   2.315  12.122  0.0726 -0.4854 -0.2056
 6295TIP3   OH240375   1.722   4.905  12.616  0.0085  0.1383  0.2204
 6295TIP3    H140376   1.633   4.904  12.652  0.0388 -0.2543  0.2920
 6295TIP3    H240377   1.710   4.885  12.523  0.0436 -0.1742  0.2828
 6296TIP3   OH240378   0.477   3.311  14.498  0.1410 -0.4086  0.1429
 6296TIP3    H140379   0.456   3.360  14.419 -0.1704 -0.0930  0.4195
 6296TIP3    H240380   0.395   3.269  14.523 -0.3377  1.2054  1.4881
 6297TIP3   OH240381   1.686   0.292   5.699  0.3725  0.1530  0.4162
 6297TIP3    H140382   1.781   0.297   5.693  0.7175  0.0813  3.9729
 6297TIP3    H240383   1.656   0.382   5.689  0.8899  0.3133  0.2966
 6298TIP3   OH240384   2.988   3.277   4.598  0.0313  0.3864  0.1937
 6298TIP3    H140385   3.032   3.244   4.676 -2.5519  1.2549  2.1561
 6298TIP3    H240386   2.949   3.360   4.625 -2.2365  0.0035 -1.5196
 6299TIP3   OH240387   6.567   4.791  16.609 -0.4236 -0.0092  0.5467
 6299TIP3    H140388   6.569   4.700  16.639  0.1350  0.3732  1.7495
 6299TIP3    H240389   6.645   4.831  16.648 -0.4915  0.9087 -0.2188
 6300TIP3   OH240390   2.770   1.076   1.961  0.0371  0.0465  0.0377
 6300TIP3    H140391   2.829   1.001   1.959 -0.8171 -0.6236 -0.7800
 6300TIP3    H240392   2.829   1.152   1.957  0.9419 -0.5281  1.4914
 6301TIP3   OH240393   4.091   4.964  15.862 -0.6474 -0.6526 -0.6594
 6301TIP3    H140394   4.041   4.889  15.895  0.0794 -0.9889 -0.3037
 6301TIP3    H240395   4.163   4.974  15.924 -1.5093  1.2373  0.1054
 6302TIP3   OH240396   5.412   6.359  14.892 -0.3001 -0.4640  0.3127
 6302TIP3    H140397   5.379   6.299  14.826 -0.7143  0.6664 -0.5405
 6302TIP3    H240398   5.446   6.302  14.961 -1.9116 -1.6652  0.1720
 6303TIP3   OH240399   2.469   0.006  12.123 -0.7030  0.1409  0.3942
 6303TIP3    H140400   2.559   0.022  12.094 -0.9982  0.6731 -0.2448
 6303TIP3    H240401   2.477  -0.005  12.218  0.1979 -1.0358  0.2088
 6304TIP3   OH240402   5.639   0.332   5.463  0.0543 -0.3070 -0.5890
 6304TIP3    H140403   5.620   0.239   5.448 -0.9568 -0.2651  0.3368
 6304TIP3    H240404   5.642   0.341   5.558  1.8775  0.2978 -0.6561
 6305TIP3   OH240405   5.409   4.040   4.116  0.3446 -0.3061 -0.4458
 6305TIP3    H140406   5.323   4.000   4.103  0.0273  0.1630  0.1538
 6305TIP3    H240407   5.470   3.979   4.075 -0.1738 -1.1927  0.0703
 6306TIP3   OH240408   0.439   0.683   3.825  0.1861  0.1506 -0.4273
 6306TIP3    H140409   0.524   0.678   3.782  0.0767 -0.2769 -0.6003
 6306TIP3    H240410   0.451   0.637   3.908 -0.0474 -0.4728 -0.7363
 6307TIP3   OH240411   3.362   5.800   4.759 -0.0731  0.3863 -0.0018
 6307TIP3    H140412   3.393   5.742   4.828 -0.5051  1.2267  0.9410
 6307TIP3    H240413   3.441   5.840   4.723  0.4387 -2.2655 -2.1265
 6308TIP3   OH240414   1.729   3.479   2.312 -0.3867 -0.1800 -0.2765
 6308TIP3    H140415   1.769   3.439   2.389  1.7953  1.9215 -0.1979
 6308TIP3    H240416   1.753   3.421   2.239 -0.3791 -0.8925  0.2846
 6309TIP3   OH240417   0.419   3.619   5.208  0.1042  0.3149 -0.0731
 6309TIP3    H140418   0.501   3.665   5.226  0.8475 -0.7048 -0.7374
 6309TIP3    H240419   0.422   3.542   5.266  2.8729 -3.4282 -4.4777
 6310TIP3   OH240420   5.100   4.658   2.075  0.2825  0.1470 -0.2746
 6310TIP3    H140421   5.104   4.585   2.012  0.7630 -1.6320  1.7256
 6310TIP3    H240422   5.010   4.655   2.108  0.5868 -0.1704  0.5285
 6311TIP3   OH240423   5.650   2.549   5.086 -0.1629  0.7335 -0.1695
 6311TIP3    H140424   5.607   2.621   5.040  1.4635  1.2637 -0.9177
 6311TIP3    H240425   5.588   2.476   5.079 -0.6778  1.2765 -1.7657
 6312TIP3   OH240426   0.169   6.036   0.006 -0.0358  0.2706 -1.0075
 6312TIP3    H140427   0.100   5.970   0.015  0.4783 -0.3029 -1.2223
 6312TIP3    H240428   0.206   6.044   0.094  0.5672 -0.4680 -1.1864
 6313TIP3   OH240429   6.071   6.128  10.444 -0.7233  0.5633  0.4387
 6313TIP3    H140430   6.116   6.083  10.372  0.6701  3.6374 -0.7571
 6313TIP3    H240431   6.121   6.104  10.522 -1.0784 -1.2613  0.1508
 6314TIP3   OH240432   2.592   2.933  12.470 -0.2241  0.0236 -0.0915
 6314TIP3    H140433   2.499   2.928  12.490 -0.4712  0.6596 -1.0038
 6314TIP3    H240434   2.603   2.880  12.391  0.3327 -0.6764  0.4419
 6315TIP3   OH240435   0.304   0.724   1.959 -0.5004 -0.4938  0.2627
 6315TIP3    H140436   0.338   0.644   1.999 -0.6191 -0.3615  0.6267
 6315TIP3    H240437   0.377   0.785   1.963 -0.6827 -0.3032  0.7822
 6316TIP3   OH240438   0.914   1.254   5.450  0.4924 -0.3586  0.4060
 6316TIP3    H140439   0.981   1.319   5.471 -0.2611  0.6013 -0.1075
 6316TIP3    H240440   0.838   1.281   5.500 -1.1082  1.5182 -2.7444
 6317TIP3   OH240441   0.161   2.696   3.765  0.2613  0.7814 -0.0255
 6317TIP3    H140442   0.194   2.611   3.736 -1.4608 -0.0552  0.3225
 6317TIP3    H240443   0.083   2.675   3.817  0.3905  2.5247  0.9631
 6318TIP3   OH240444   0.238   4.008   1.428  0.1783 -0.2259 -0.7854
 6318TIP3    H140445   0.240   3.919   1.395 -0.3700 -0.4325 -0.2605
 6318TIP3    H240446   0.146   4.027   1.443  0.4533 -0.6678  2.0174
 6319TIP3   OH240447   5.039   5.554  14.809  0.0554  0.4563 -0.2762
 6319TIP3    H140448   5.108   5.491  14.787  1.4752  1.5528  0.7984
 6319TIP3    H240449   5.057   5.630  14.754 -1.1748  0.2401 -1.0066
 6320TIP3   OH240450   4.421   5.694   5.562 -0.1138  0.1749  0.1813
 6320TIP3    H140451   4.446   5.607   5.530 -0.8551  0.7949 -2.2657
 6320TIP3    H240452   4.491   5.718   5.623  0.6211 -1.7095  0.1570
 6321TIP3   OH240453   5.518   2.479  11.847 -0.6612 -0.2134  0.6967
 6321TIP3    H140454   5.606   2.444  11.858 -0.6098 -0.5450 -0.5847
 6321TIP3    H240455   5.521   2.525  11.764 -1.7864 -0.5246  0.4653
 6322TIP3   OH240456   0.722   5.306   3.234 -0.6507 -0.2934  0.1514
 6322TIP3    H140457   0.732   5.217   3.267 -1.0654 -0.8343 -1.1255
 6322TIP3    H240458   0.681   5.295   3.148  0.3027  1.0686 -0.5037
 6323TIP3   OH240459   2.787   0.546  15.675 -0.7413 -0.2370 -0.1783
 6323TIP3    H140460   2.707   0.507  15.710 -0.6173 -1.3366 -1.0490
 6323TIP3    H240461   2.808   0.617  15.735 -1.4264 -1.0250  1.0338
 6324TIP3   OH240462   2.152   5.933  14.211  0.0346 -0.4508  0.1278
 6324TIP3    H140463   2.166   5.842  14.239  1.8443 -0.1729  0.1927
 6324TIP3    H240464   2.185   5.937  14.122 -0.0644  0.1401  0.1132
 6325TIP3   OH240465   4.540   2.851   1.454 -0.3707 -0.4581 -0.0354
 6325TIP3    H140466   4.604   2.923   1.458 -1.2724  0.4381 -1.0419
 6325TIP3    H240467   4.467   2.887   1.403 -0.9779 -2.0065 -0.3084
 6326TIP3   OH240468   3.752   0.597   4.465 -0.7434  0.4809  0.7431
 6326TIP3    H140469   3.730   0.626   4.553 -2.5234  1.2894  0.0815
 6326TIP3    H240470   3.669   0.567   4.428 -0.1169  0.5124 -0.7867
 6327TIP3   OH240471   5.815   3.131   4.551  0.3168 -0.2801 -0.5848
 6327TIP3    H140472   5.831   3.204   4.612  1.0504 -0.9238  0.0147
 6327TIP3    H240473   5.807   3.172   4.466 -0.1595  0.5947 -0.1307
 6328TIP3   OH240474   2.503   3.890   5.362  0.3033  0.0932 -0.0220
 6328TIP3    H140475   2.554   3.923   5.288 -0.2771 -0.3710 -0.6420
 6328TIP3    H240476   2.471   3.805   5.334  1.6717 -0.9845  1.5207
 6329TIP3   OH240477   5.267   1.804   4.811 -0.2025  0.0494 -0.3644
 6329TIP3    H140478   5.210   1.728   4.814  0.4697 -0.5113 -1.3008
 6329TIP3    H240479   5.249   1.845   4.727 -0.6209  0.9898  0.1670
 6330TIP3   OH240480   3.532   5.438  10.953  0.2548  0.3412 -0.3646
 6330TIP3    H140481   3.477   5.433  10.874 -1.1433  0.8146  0.5421
 6330TIP3    H240482   3.504   5.364  11.006  1.0976  0.1045 -0.2345
 6331TIP3   OH240483   3.638   6.492   4.236 -0.1478  0.3588 -0.3623
 6331TIP3    H140484   3.619   6.402   4.212  0.6063  0.1374 -0.1722
 6331TIP3    H240485   3.641   6.539   4.153 -1.4471  0.4023 -0.3998
 6332TIP3   OH240486   2.641   6.415   2.128  0.0387  0.1012  0.0922
 6332TIP3    H140487   2.695   6.458   2.061  1.3863 -0.2808  0.8991
 6332TIP3    H240488   2.587   6.486   2.163 -0.7356  0.3042 -1.3951
 6333TIP3   OH240489   2.523   1.215  10.728 -0.5729  0.0693  0.2304
 6333TIP3    H140490   2.547   1.304  10.706  2.0506 -0.2927  1.2717
 6333TIP3    H240491   2.598   1.181  10.777 -1.5041 -2.6851 -0.0655
 6334TIP3   OH240492   2.618   4.138  15.618 -0.2988  0.4766  0.0029
 6334TIP3    H140493   2.670   4.115  15.695 -0.7141  0.2430  0.2188
 6334TIP3    H240494   2.542   4.080  15.623 -1.1584  1.6031  0.3277
 6335TIP3   OH240495   6.154   0.717  15.770 -0.1239 -0.1987  0.9342
 6335TIP3    H140496   6.062   0.734  15.790 -0.1373 -0.8418  1.4501
 6335TIP3    H240497   6.198   0.801  15.786 -0.7166  0.3293 -0.0424
 6336TIP3   OH240498   0.499   2.842  13.367  0.5126  0.2837  0.8823
 6336TIP3    H140499   0.527   2.929  13.397  2.6532 -0.0225 -0.0485
 6336TIP3    H240500   0.560   2.820  13.297 -1.3455 -1.0798 -0.3947
 6337TIP3   OH240501   1.132   4.446  15.704 -0.5307  0.1616 -0.2491
 6337TIP3    H140502   1.196   4.476  15.768 -0.4229 -0.0095 -0.2763
 6337TIP3    H240503   1.056   4.420  15.756 -1.0459  1.5154 -0.2902
 6338TIP3   OH240504   1.511   6.629   2.304 -0.2029 -0.3440 -0.2423
 6338TIP3    H140505   1.461   6.563   2.352 -0.6435  0.4264  0.3853
 6338TIP3    H240506   1.593   6.637   2.352  0.9632 -2.2329 -1.7593
 6339TIP3   OH240507   2.397   6.574   0.996 -0.2936  0.3999  0.3934
 6339TIP3    H140508   2.309   6.581   0.960 -0.8882 -0.4710  1.6006
 6339TIP3    H240509   2.383   6.561   1.090  1.1087 -0.1069  0.5493
 6340TIP3   OH240510   0.134   4.812   3.934 -0.4806 -0.0865 -0.0995
 6340TIP3    H140511   0.096   4.726   3.915  0.5887 -0.6940  0.4822
 6340TIP3    H240512   0.220   4.810   3.893  0.1800  0.1169  1.2219
 6341TIP3   OH240513   0.479   2.158  13.969 -0.2991 -0.3486  0.0823
 6341TIP3    H140514   0.558   2.108  13.987  0.6321  0.6860 -0.9697
 6341TIP3    H240515   0.457   2.137  13.878 -1.6676 -1.1664  0.5733
 6342TIP3   OH240516   3.522   6.723   3.173 -0.2121  0.1900  0.1440
 6342TIP3    H140517   3.588   6.791   3.190 -1.4128  0.9695  1.9154
 6342TIP3    H240518   3.442   6.771   3.155 -0.4522 -0.7609 -1.5531
 6343TIP3   OH240519   5.547   3.113   5.965 -0.0524 -0.1722 -0.5523
 6343TIP3    H140520   5.478   3.079   6.021 -1.2819  0.8437 -1.3796
 6343TIP3    H240521   5.508   3.190   5.923  0.8204 -0.8350 -2.7233
 6344TIP3   OH240522   4.456   6.452  13.180  0.5471  0.3269  0.1495
 6344TIP3    H140523   4.478   6.534  13.225  1.0670 -0.0453  0.5902
 6344TIP3    H240524   4.536   6.399  13.188 -0.7476 -1.4375  2.5910
 6345TIP3   OH240525   2.071   3.113   1.140  0.7501 -0.2036 -0.0133
 6345TIP3    H140526   2.131   3.178   1.103  0.4397 -0.2451 -0.5975
 6345TIP3    H240527   2.050   3.055   1.067 -0.5325  0.2033  0.0014
 6346TIP3   OH240528   6.781   3.523  16.773 -0.5659  0.7359 -0.2467
 6346TIP3    H140529   6.852   3.499  16.833 -0.7451  1.2583  0.1877
 6346TIP3    H240530   6.824   3.569  16.701 -0.5676  2.2387  0.6617
 6347TIP3   OH240531   0.043   3.535   4.387  0.0187 -0.2313  0.1209
 6347TIP3    H140532  -0.033   3.490   4.350  0.7104 -2.2804  1.0705
 6347TIP3    H240533   0.026   3.538   4.481  1.6266 -1.8437  0.5118
 6348TIP3   OH240534   6.620   0.454   0.651  0.5305 -0.3580  0.0907
 6348TIP3    H140535   6.579   0.535   0.621 -2.1189 -1.6725 -0.1779
 6348TIP3    H240536   6.675   0.427   0.577  0.2046  0.3864 -0.4429
 6349TIP3   OH240537   6.663   5.880  13.598 -0.0775  0.6696 -0.2965
 6349TIP3    H140538   6.571   5.864  13.579  0.0404 -1.3336  0.5711
 6349TIP3    H240539   6.710   5.821  13.539  0.5484  0.0538  0.7908
 6350TIP3   OH240540   6.460   4.403   2.995  0.2740 -0.5257  0.4475
 6350TIP3    H140541   6.378   4.357   2.976  0.7490 -0.7223 -1.3476
 6350TIP3    H240542   6.433   4.494   3.009 -0.1269 -0.0021 -2.7898
 6351TIP3   OH240543   4.665   6.025  17.174  0.0478 -0.3566  0.0084
 6351TIP3    H140544   4.620   5.942  17.190 -2.0695  0.6145 -0.4691
 6351TIP3    H240545   4.632   6.083  17.243 -0.0075  0.5853 -0.7897
 6352TIP3   OH240546   3.841   5.636  15.110 -0.1183 -0.1141  0.2153
 6352TIP3    H140547   3.771   5.630  15.176 -0.5460 -1.5111 -0.3152
 6352TIP3    H240548   3.798   5.612  15.028  0.7004  0.3119 -0.3507
 6353TIP3   OH240549   6.170   4.912   1.858 -0.4096  0.4586  1.0819
 6353TIP3    H140550   6.099   4.957   1.812  1.0379  0.3214 -1.4743
 6353TIP3    H240551   6.148   4.819   1.851  1.2515  0.1517 -2.3156
 6354TIP3   OH240552   4.432   0.467  11.258  0.3914  0.3367 -0.3860
 6354TIP3    H140553   4.431   0.411  11.181 -0.2271  1.4271 -1.2086
 6354TIP3    H240554   4.518   0.508  11.258  0.0593  1.0751 -1.0874
 6355TIP3   OH240555   1.757   4.014   0.335 -0.2888 -0.1800  0.0759
 6355TIP3    H140556   1.706   4.095   0.331  0.1704  0.2240  1.7841
 6355TIP3    H240557   1.773   4.000   0.428 -0.1860 -2.1435 -0.1992
 6356TIP3   OH240558   4.559   6.684   3.229 -0.1219  0.0133  0.2666
 6356TIP3    H140559   4.512   6.716   3.306 -0.2635  0.5453 -0.0373
 6356TIP3    H240560   4.578   6.592   3.249 -1.8704 -0.4072  0.1098
 6357TIP3   OH240561   1.146   4.198   5.234  0.1217  0.2097  0.9352
 6357TIP3    H140562   1.232   4.158   5.221 -0.1456  0.2745 -1.3788
 6357TIP3    H240563   1.161   4.292   5.226 -0.1991  0.2052  0.2421
 6358TIP3   OH240564   2.834   3.307  11.838 -0.0494  0.3601  0.3627
 6358TIP3    H140565   2.806   3.221  11.805  1.5706 -0.8830  2.0165
 6358TIP3    H240566   2.796   3.312  11.926  0.2676  1.1205  0.4584
 6359TIP3   OH240567   1.546   0.400   6.408 -0.2391 -0.1218  0.1644
 6359TIP3    H140568   1.535   0.335   6.339 -1.4195  1.2337 -0.9736
 6359TIP3    H240569   1.457   0.424   6.435  0.0372  2.4347 -0.8708
 6360TIP3   OH240570   1.341   1.962  16.096  0.3874  0.3132 -0.3769
 6360TIP3    H140571   1.319   2.050  16.128  0.4077 -0.0512  0.6800
 6360TIP3    H240572   1.297   1.903  16.157 -0.5309 -0.4346 -1.6996
 6361TIP3   OH240573   4.625   3.213  11.865  0.2469 -0.5208 -0.2269
 6361TIP3    H140574   4.558   3.164  11.913  0.8933 -2.9529 -1.6705
 6361TIP3    H240575   4.606   3.305  11.886 -2.2832 -1.2158  0.9809
 6362TIP3   OH240576   4.809   2.555  17.130 -0.3935  0.5414 -0.6161
 6362TIP3    H140577   4.718   2.544  17.102  0.0949 -0.2423 -2.0285
 6362TIP3    H240578   4.859   2.555  17.048  1.0507 -0.9306  0.1999
 6363TIP3   OH240579   1.925   3.811  16.386 -0.4734 -0.3718 -0.2736
 6363TIP3    H140580   1.927   3.904  16.363  0.0661  0.0650  1.3810
 6363TIP3    H240581   2.005   3.797  16.437 -1.5311 -1.2476  1.2195
 6364TIP3   OH240582   2.053   5.451  13.307 -0.2528 -0.3328 -0.4457
 6364TIP3    H140583   1.972   5.476  13.352  0.6628 -1.0687  1.7325
 6364TIP3    H240584   2.023   5.411  13.225 -2.0192  0.5113 -0.2592
 6365TIP3   OH240585   3.955   5.716  16.729  0.1737 -0.5879  0.8080
 6365TIP3    H140586   4.002   5.737  16.810 -0.9256  2.0192  0.8792
 6365TIP3    H240587   3.868   5.689  16.758 -0.1130  0.0260  0.5575
 6366TIP3   OH240588   1.424   1.738  16.952 -0.2709 -0.3623  0.2221
 6366TIP3    H140589   1.455   1.670  17.012 -1.2413 -1.8040 -0.8195
 6366TIP3    H240590   1.351   1.779  16.997  0.0134 -0.3273  0.6602
 6367TIP3   OH240591   1.369   0.669   2.752 -0.2082 -0.3770 -0.1616
 6367TIP3    H140592   1.439   0.731   2.729  1.6061 -1.5261  1.9695
 6367TIP3    H240593   1.402   0.584   2.724 -1.1244 -0.8365  0.1251
 6368TIP3   OH240594   6.749   2.366  12.613 -0.4668 -0.0405  0.1779
 6368TIP3    H140595   6.741   2.274  12.586 -1.1021  0.1314 -0.2331
 6368TIP3    H240596   6.794   2.408  12.540 -0.8778  0.1324  0.0245
 6369TIP3   OH240597   1.319   4.671   0.012  0.6083 -0.0791  0.2643
 6369TIP3    H140598   1.232   4.639  -0.013  0.3730 -0.8594  1.9511
 6369TIP3    H240599   1.376   4.641  -0.059 -0.1431 -1.4818  0.2153
 6370TIP3   OH240600   3.842   2.693   4.377  0.0616 -0.6949  0.2560
 6370TIP3    H140601   3.877   2.704   4.466  0.7499 -0.9899  0.0249
 6370TIP3    H240602   3.783   2.767   4.366  1.1172  0.2079  0.4200
 6371TIP3   OH240603   5.778   1.406  16.993 -0.2948 -0.2913  0.5602
 6371TIP3    H140604   5.828   1.369  16.920 -0.9200  0.8627 -0.4898
 6371TIP3    H240605   5.814   1.495  17.003 -1.0457 -0.0190  0.8494
 6372TIP3   OH240606   4.722   4.918   4.537  0.2702  0.2473  0.0999
 6372TIP3    H140607   4.782   4.991   4.554  1.1277 -0.3539 -0.2536
 6372TIP3    H240608   4.780   4.843   4.523 -0.6052 -0.6124  0.9267
 6373TIP3   OH240609   5.452   6.077  13.706 -0.7816 -0.4724 -0.2339
 6373TIP3    H140610   5.473   5.985  13.725 -0.3725 -0.0430  1.5683
 6373TIP3    H240611   5.423   6.112  13.790  1.9770  1.8228 -0.0801
 6374TIP3   OH240612   5.569   5.549  12.585 -0.1882  0.0387 -0.2170
 6374TIP3    H140613   5.613   5.534  12.501 -1.8612  1.1469 -1.3712
 6374TIP3    H240614   5.552   5.461  12.620  1.6558 -0.4155 -0.3925
 6375TIP3   OH240615   5.919   0.647   1.811 -0.1155  0.4289 -0.2040
 6375TIP3    H140616   5.924   0.724   1.754 -0.9972  1.5997  1.2353
 6375TIP3    H240617   5.919   0.683   1.900  0.1218 -1.2881  0.5330
 6376TIP3   OH240618   4.117   5.399  14.958  0.1501  0.7213 -0.2459
 6376TIP3    H140619   4.104   5.324  15.017 -1.6292  0.6224 -0.7185
 6376TIP3    H240620   4.200   5.380  14.914 -0.7713 -1.5896 -1.1805
 6377TIP3   OH240621   0.868   2.970  11.113  0.4492  0.9706  0.0719
 6377TIP3    H140622   0.845   2.988  11.204  2.2493  1.5252  0.4521
 6377TIP3    H240623   0.793   3.001  11.063 -0.1610  1.5607  1.3095
 6378TIP3   OH240624   1.573   5.527  15.931 -0.8392 -0.1601  0.2229
 6378TIP3    H140625   1.498   5.584  15.913 -1.4858 -0.6506  1.2025
 6378TIP3    H240626   1.649   5.584  15.923 -1.3346  0.4235 -0.5078
 6379TIP3   OH240627   0.799   5.258  13.933  0.3345 -0.4101 -0.2330
 6379TIP3    H140628   0.819   5.243  14.026 -3.1378 -1.1872  0.5367
 6379TIP3    H240629   0.823   5.350  13.918  1.8655 -0.5425  1.1226
 6380TIP3   OH240630   2.880   3.681   3.765  0.0982  0.3533  0.0502
 6380TIP3    H140631   2.791   3.661   3.792  0.1312  0.9742  0.6219
 6380TIP3    H240632   2.936   3.638   3.831  0.2219  0.2316 -0.1302
 6381TIP3   OH240633   1.629   2.955  16.573 -0.0023  0.2221  0.3758
 6381TIP3    H140634   1.606   2.927  16.662 -1.5382 -0.0118 -0.0685
 6381TIP3    H240635   1.585   2.892  16.516  1.1051  0.2691 -0.5582
 6382TIP3   OH240636   5.884   5.782  11.152  1.1085  0.5437  0.1868
 6382TIP3    H140637   5.904   5.767  11.059 -0.1019 -0.4583  0.0636
 6382TIP3    H240638   5.968   5.809  11.190  2.3196 -1.7311 -0.6331
 6383TIP3   OH240639   3.008   5.348  15.555 -0.2284 -0.6277 -0.5439
 6383TIP3    H140640   2.947   5.419  15.533 -1.3587 -1.4008 -0.0381
 6383TIP3    H240641   2.999   5.286  15.483 -1.2477 -1.4836  0.2944
 6384TIP3   OH240642   0.708   6.629   1.612  0.8671 -0.1211 -0.0126
 6384TIP3    H140643   0.704   6.534   1.623 -0.4603 -0.0496  0.3143
 6384TIP3    H240644   0.758   6.643   1.532  2.3444 -1.0323  0.7166
 6385TIP3   OH240645   1.482   3.742   5.723 -0.1349 -0.1464 -0.3611
 6385TIP3    H140646   1.538   3.818   5.741 -1.7482  1.2682 -0.9425
 6385TIP3    H240647   1.537   3.684   5.670  0.5586  1.5645 -1.6155
 6386TIP3   OH240648   3.209   5.995  13.328  0.1958  0.4189 -0.0703
 6386TIP3    H140649   3.200   5.916  13.275  1.2311  0.3922 -0.2206
 6386TIP3    H240650   3.270   5.971  13.397 -1.9807  0.1143  1.8647
 6387TIP3   OH240651   0.812   5.701   5.074  0.2766  0.0320  0.0192
 6387TIP3    H140652   0.739   5.753   5.039  0.8426  1.2929  0.6472
 6387TIP3    H240653   0.886   5.761   5.074  0.7741 -0.5386  1.5013
 6388TIP3   OH240654   4.152   0.818   2.578 -0.1280  0.2730 -1.2530
 6388TIP3    H140655   4.082   0.854   2.632 -0.5330 -0.6256 -1.1658
 6388TIP3    H240656   4.181   0.893   2.525 -0.4850  0.8905 -0.6035
 6389TIP3   OH240657   6.300   5.437  13.239  0.1406 -0.0486 -0.1492
 6389TIP3    H140658   6.273   5.477  13.322 -1.2897 -1.0787 -0.0703
 6389TIP3    H240659   6.223   5.387  13.212  0.7453 -0.0745 -1.8893
 6390TIP3   OH240660   2.289   1.240  15.529  0.3311  0.3575  0.4420
 6390TIP3    H140661   2.275   1.240  15.434 -0.1059  0.7119  0.5051
 6390TIP3    H240662   2.380   1.211  15.539  0.3855  0.3261 -0.0849
 6391TIP3   OH240663   2.958   1.630  15.191 -0.3843  0.1450 -0.0480
 6391TIP3    H140664   2.877   1.675  15.213 -0.6671 -0.0402 -0.6841
 6391TIP3    H240665   3.023   1.667  15.250 -0.5717  1.5038 -0.6640
 6392TIP3   OH240666   4.073   4.386   3.260  0.2271  0.4189 -0.1686
 6392TIP3    H140667   4.036   4.429   3.183 -0.9844  0.4851  0.4271
 6392TIP3    H240668   4.025   4.303   3.266  2.8705 -1.3536 -1.5989
 6393TIP3   OH240669   6.340   4.094   5.912  0.1155  0.5341 -0.2001
 6393TIP3    H140670   6.433   4.085   5.934  0.4044  1.7125 -0.8536
 6393TIP3    H240671   6.327   4.039   5.835 -0.4132 -1.8971  1.5121
 6394TIP3   OH240672   3.440   1.478  14.488  0.7178 -0.5111 -0.0098
 6394TIP3    H140673   3.526   1.476  14.446  0.7526 -1.8748  0.0631
 6394TIP3    H240674   3.377   1.484  14.416  0.8697  0.9993 -0.0396
 6395TIP3   OH240675   5.337   3.948   2.890  0.3894  0.3306 -0.1090
 6395TIP3    H140676   5.348   3.864   2.845 -1.1815 -1.0441  1.8641
 6395TIP3    H240677   5.425   3.971   2.919  1.2412  0.6364 -2.6616
 6396TIP3   OH240678   0.294   6.407   3.643  0.5124  0.2152  0.2383
 6396TIP3    H140679   0.321   6.488   3.599 -0.2954  0.7554  0.6993
 6396TIP3    H240680   0.199   6.409   3.639  0.4562 -0.1711  1.2084
 6397TIP3   OH240681   6.695   4.447  10.913  0.3235 -0.0299  0.0953
 6397TIP3    H140682   6.621   4.506  10.932  1.8731  1.5030  1.6953
 6397TIP3    H240683   6.715   4.405  10.996  1.5599 -0.0674 -0.2082
 6398TIP3   OH240684   5.806   0.150  14.601 -0.3863  0.5994 -0.0485
 6398TIP3    H140685   5.790   0.069  14.552 -0.0966  1.6265 -1.9411
 6398TIP3    H240686   5.725   0.199  14.595  0.1178  1.3706 -0.7973
 6399TIP3   OH240687   3.725   0.412  14.512  0.0159  0.0326 -0.7117
 6399TIP3    H140688   3.745   0.408  14.418  1.8828 -0.9966 -0.3264
 6399TIP3    H240689   3.766   0.333  14.548  0.8295  1.2673  1.2117
 6400TIP3   OH240690   4.571   5.370  13.850  0.2555 -0.2212 -0.2643
 6400TIP3    H140691   4.526   5.289  13.827 -0.5959 -0.2732  1.3927
 6400TIP3    H240692   4.637   5.343  13.914  0.5310  0.2786 -0.3335
 6401TIP3   OH240693   5.528   3.639   4.753 -0.3363  0.2955  0.6027
 6401TIP3    H140694   5.494   3.654   4.664 -2.3582  1.8830  1.5651
 6401TIP3    H240695   5.529   3.726   4.793 -2.8528 -0.7695  3.2561
 6402TIP3   OH240696   3.227   0.955   5.285 -0.3768 -0.7503 -0.4415
 6402TIP3    H140697   3.282   0.880   5.307 -1.3022 -1.1204  0.7228
 6402TIP3    H240698   3.228   0.957   5.189  3.4994  0.6815 -0.5634
 6403TIP3   OH240699   0.577   6.533  13.015  0.8919  0.5164  0.0031
 6403TIP3    H140700   0.508   6.582  12.969  0.1037  2.4172  2.9472
 6403TIP3    H240701   0.647   6.597  13.029  2.5042 -0.8766 -1.2318
 6404TIP3   OH240702   0.502   3.183   4.597 -0.1930 -0.1639 -0.0318
 6404TIP3    H140703   0.486   3.161   4.689  0.7011 -0.3347  0.0999
 6404TIP3    H240704   0.430   3.240   4.572 -1.3991 -1.5067  0.2631
 6405TIP3   OH240705   2.695   1.652  11.320 -0.2129  0.2282  0.1105
 6405TIP3    H140706   2.654   1.732  11.289 -0.7933  0.7356  2.0873
 6405TIP3    H240707   2.672   1.646  11.412  2.7616 -0.3583  0.9259
 6406TIP3   OH240708   5.683   0.390   5.206 -0.6969  0.2043  0.4276
 6406TIP3    H140709   5.736   0.467   5.226  0.2750 -0.4442  0.4223
 6406TIP3    H240710   5.677   0.343   5.290 -0.5966 -0.1229  0.2526
 6407TIP3   OH240711   3.266   5.617   1.006 -0.3296 -0.0371  0.2716
 6407TIP3    H140712   3.347   5.611   1.056 -0.2968  1.8042  0.5226
 6407TIP3    H240713   3.203   5.655   1.067 -0.9321  0.0457 -0.3958
 6408TIP3   OH240714   6.030   4.447   0.514  0.3736  0.2788  0.1786
 6408TIP3    H140715   6.110   4.419   0.469 -0.3718 -0.1142 -0.9321
 6408TIP3    H240716   6.005   4.529   0.470  0.3116  0.5434  0.7031
 6409TIP3   OH240717   5.193   2.859  16.188 -0.2266 -0.0570 -0.2666
 6409TIP3    H140718   5.193   2.771  16.226  2.5040 -0.8072 -1.7326
 6409TIP3    H240719   5.168   2.917  16.260  0.9239 -1.7716  1.5949
 6410TIP3   OH240720   0.935   1.031  11.363  1.2153 -0.0268 -0.2622
 6410TIP3    H140721   1.020   1.053  11.399  2.4660 -0.5904 -2.6383
 6410TIP3    H240722   0.946   0.944  11.325 -0.5233 -0.2566 -0.3613
 6411TIP3   OH240723   2.344   4.329   3.759 -0.2588 -0.1448  0.3500
 6411TIP3    H140724   2.275   4.268   3.735  0.3125  0.3373 -2.9916
 6411TIP3    H240725   2.302   4.415   3.759 -0.0154 -0.0244 -0.0169
 6412TIP3   OH240726   3.898   6.762  13.519 -0.2967  0.4103 -0.5560
 6412TIP3    H140727   3.814   6.722  13.495 -1.0844 -0.3061  2.8272
 6412TIP3    H240728   3.930   6.707  13.591  0.3876  3.6919  1.8648
 6413TIP3   OH240729   5.375   0.885   1.422  0.2852  0.6029  0.3587
 6413TIP3    H140730   5.328   0.964   1.448 -0.6742 -0.1773  1.0495
 6413TIP3    H240731   5.313   0.813   1.438  0.5821 -0.1702 -1.6777
 6414TIP3   OH240732   0.024   0.377   4.011  0.0795 -0.4252  0.3689
 6414TIP3    H140733   0.012   0.440   3.940 -1.5183  0.3371  1.2530
 6414TIP3    H240734   0.028   0.292   3.966  0.9230  0.1730 -0.7412
 6415TIP3   OH240735   5.326   2.900   1.926 -0.5236 -0.1161 -0.1947
 6415TIP3    H140736   5.276   2.947   1.992  0.9847  0.6592  0.4422
 6415TIP3    H240737   5.308   2.947   1.844 -1.2952 -0.2260 -0.0938
 6416TIP3   OH240738   1.502   4.087   5.486 -0.2762 -0.2882 -0.1150
 6416TIP3    H140739   1.484   4.130   5.402 -2.6438 -0.3820  0.2594
 6416TIP3    H240740   1.481   3.995   5.470 -0.3325 -0.3734  0.4459
 6417TIP3   OH240741   4.641   1.411  13.680  0.2123  0.3369  0.1549
 6417TIP3    H140742   4.677   1.341  13.734  0.0933  0.1710  0.0215
 6417TIP3    H240743   4.694   1.408  13.600  3.4909  3.5246  1.9692
 6418TIP3   OH240744   1.106   0.852   3.649  0.6601 -0.1732 -0.8699
 6418TIP3    H140745   1.080   0.764   3.622  3.5636 -1.1191 -0.9630
 6418TIP3    H240746   1.069   0.862   3.737 -0.9641 -0.8568 -1.4482
 6419TIP3   OH240747   2.044   4.542   5.838  0.3117  0.2498  1.0010
 6419TIP3    H140748   1.972   4.604   5.829  0.1528  0.1581  1.5789
 6419TIP3    H240749   2.050   4.527   5.933  0.5883 -0.3302  0.8939
 6420TIP3   OH240750   3.678   5.690   4.085 -0.0237 -0.0643 -0.4447
 6420TIP3    H140751   3.640   5.636   4.016  0.6261 -0.7278 -0.2978
 6420TIP3    H240752   3.710   5.768   4.040  0.5796 -0.5866 -0.9410
 6421TIP3   OH240753   4.015   2.390  14.755 -0.1154  0.1620  0.0167
 6421TIP3    H140754   4.060   2.332  14.694  2.3617  0.2116  1.6822
 6421TIP3    H240755   4.026   2.477  14.717  1.2672  0.1737  0.3901
 6422TIP3   OH240756   6.216   5.475   1.035  0.5523  0.0094  0.0017
 6422TIP3    H140757   6.179   5.407   0.978 -0.0524  0.2972  0.0521
 6422TIP3    H240758   6.195   5.557   0.991  2.2135  0.1545 -0.6326
 6423TIP3   OH240759   6.157   1.701  10.878  0.4917  0.1821 -0.0711
 6423TIP3    H140760   6.226   1.751  10.921  0.7028  0.3274 -0.5633
 6423TIP3    H240761   6.082   1.760  10.877  0.6527  0.3839 -0.3910
 6424TIP3   OH240762   1.119   0.902   5.356 -0.0671 -0.1913  0.1254
 6424TIP3    H140763   1.108   0.926   5.264  0.3223  1.0464  0.3780
 6424TIP3    H240764   1.040   0.936   5.399 -0.3846 -1.0230  0.2080
 6425TIP3   OH240765   3.622   5.304   1.802  0.5808 -0.0219 -0.0685
 6425TIP3    H140766   3.589   5.357   1.874 -1.1351 -0.5316 -0.4393
 6425TIP3    H240767   3.560   5.319   1.730  0.5139 -1.8546 -0.4483
 6426TIP3   OH240768   6.459   2.919  15.121  0.1504 -0.0565 -0.4436
 6426TIP3    H140769   6.552   2.899  15.122  0.2358  0.2400  1.5545
 6426TIP3    H240770   6.454   3.014  15.130 -0.3115 -0.1725  0.8402
 6427TIP3   OH240771   3.252   2.840   4.895  0.2704 -0.3050 -0.5399
 6427TIP3    H140772   3.281   2.772   4.957  2.0656 -0.1755 -1.1758
 6427TIP3    H240773   3.160   2.821   4.880 -0.4330  0.0102  2.6285
 6428TIP3   OH240774   2.135   3.352  12.368  0.0512  0.5341 -0.0809
 6428TIP3    H140775   2.228   3.374  12.369 -0.3229  2.3313 -1.2222
 6428TIP3    H240776   2.120   3.312  12.283  0.1055 -1.5593  0.8235
 6429TIP3   OH240777   6.096   2.549  12.689 -0.0335 -0.3380  0.0657
 6429TIP3    H140778   6.070   2.543  12.781 -1.4494  0.9888 -0.1900
 6429TIP3    H240779   6.025   2.505  12.641 -0.4545  0.8645 -0.4826
 6430TIP3   OH240780   1.410   3.009   0.450 -0.0542 -0.1226 -0.0578
 6430TIP3    H140781   1.471   3.082   0.459  0.1030 -0.2903  0.2373
 6430TIP3    H240782   1.446   2.956   0.378 -0.2924  0.2076 -0.4293
 6431TIP3   OH240783   6.015   4.611  17.106  0.4307 -0.1311  0.3325
 6431TIP3    H140784   5.926   4.630  17.137  0.3453 -0.0274  0.0276
 6431TIP3    H240785   6.067   4.684  17.139  0.3724 -0.1045  0.3672
 6432TIP3   OH240786   4.790   2.276   5.419 -0.0182  0.1683 -0.6451
 6432TIP3    H140787   4.756   2.347   5.475  0.9038 -0.5966  0.9566
 6432TIP3    H240788   4.744   2.198   5.449 -0.7879 -0.0154 -2.1826
 6433TIP3   OH240789   3.024   0.280  14.313 -0.0497  0.6310  0.9046
 6433TIP3    H140790   3.057   0.369  14.324  0.0719  0.7556 -0.3360
 6433TIP3    H240791   2.932   0.291  14.289 -1.0750  0.2907  4.2455
 6434TIP3   OH240792   5.858   0.492   3.047  0.2251  0.1959  0.3769
 6434TIP3    H140793   5.775   0.447   3.061 -0.0231  0.3119 -0.6493
 6434TIP3    H240794   5.890   0.513   3.135  0.3845 -2.0402  0.9072
 6435TIP3   OH240795   2.495   3.365  11.647 -0.1905 -0.0603  0.6889
 6435TIP3    H140796   2.535   3.441  11.689 -1.2520  1.1647 -0.4382
 6435TIP3    H240797   2.550   3.347  11.571  0.4272 -0.8558  1.3017
 6436TIP3   OH240798   6.221   5.233   3.972 -0.4099  0.1441 -0.0902
 6436TIP3    H140799   6.150   5.194   4.024 -1.5595 -0.1333 -1.7844
 6436TIP3    H240800   6.216   5.326   3.991 -0.0606 -0.0739  1.1563
 6437TIP3   OH240801   1.644   3.061  16.046 -0.0449 -0.4534 -0.3484
 6437TIP3    H140802   1.642   2.966  16.051 -0.7374 -0.5232 -1.6362
 6437TIP3    H240803   1.583   3.083  15.975  0.7985  0.8946 -0.6874
 6438TIP3   OH240804   3.479   3.623   1.775 -0.5622  0.2382 -0.5428
 6438TIP3    H140805   3.488   3.697   1.714  0.3427 -0.1099 -0.8426
 6438TIP3    H240806   3.568   3.598   1.797 -0.8744  1.1968  2.0126
 6439TIP3   OH240807   6.169   3.310   1.560  0.0510  0.0839 -0.0732
 6439TIP3    H140808   6.095   3.272   1.607 -0.9573  0.9494 -0.8958
 6439TIP3    H240809   6.212   3.366   1.624  0.2120 -0.6942  0.5091
 6440TIP3   OH240810   2.102   1.655   5.422 -0.1343 -0.2663 -0.0408
 6440TIP3    H140811   2.039   1.720   5.453  0.5918  0.3272  0.2435
 6440TIP3    H240812   2.124   1.604   5.501  0.5271  0.2212  0.1029
 6441TIP3   OH240813   1.518   2.155  10.852 -0.0534 -0.0649  0.1225
 6441TIP3    H140814   1.493   2.069  10.817 -1.8299 -0.3029  1.8122
 6441TIP3    H240815   1.567   2.196  10.781 -2.1416 -1.0889 -2.0780
 6442TIP3   OH240816   5.273   5.870  12.077 -1.0743  0.2332  0.1793
 6442TIP3    H140817   5.298   5.962  12.068 -3.3518  0.9670  0.7462
 6442TIP3    H240818   5.246   5.862  12.169  1.3624 -1.6604  0.8322
 6443TIP3   OH240819   4.626   4.004  15.499  0.5700 -0.3615  0.3043
 6443TIP3    H140820   4.632   4.089  15.457 -1.3087  0.7875  2.2017
 6443TIP3    H240821   4.717   3.984  15.524  0.9344  1.4937  0.5971
 6444TIP3   OH240822   6.655   1.360  13.699 -0.5796 -0.2935 -0.0880
 6444TIP3    H140823   6.626   1.286  13.645 -1.5297  0.2534 -0.3403
 6444TIP3    H240824   6.605   1.352  13.780  1.8566 -1.9310  1.3725
 6445TIP3   OH240825   0.903   5.144  15.526 -0.0323 -0.8940 -0.4885
 6445TIP3    H140826   0.927   5.235  15.543 -2.0075 -0.3965 -0.0810
 6445TIP3    H240827   0.922   5.098  15.608  0.3218 -0.7025 -0.4628
 6446TIP3   OH240828   0.047   5.914   5.428  0.3459  0.4917  0.6564
 6446TIP3    H140829   0.099   5.925   5.349 -0.5632 -1.0777 -0.2172
 6446TIP3    H240830   0.106   5.939   5.499  1.8973 -0.0830 -0.3761
 6447TIP3   OH240831   5.760   4.227   3.381  0.0927 -0.3490  0.2483
 6447TIP3    H140832   5.846   4.266   3.392 -0.7631  1.4805  0.8103
 6447TIP3    H240833   5.731   4.206   3.470 -0.0909 -0.9036  0.0664
 6448TIP3   OH240834   1.049   5.229  13.272 -0.3348 -0.4010 -0.3396
 6448TIP3    H140835   1.018   5.183  13.194 -0.6761 -2.0767  0.7301
 6448TIP3    H240836   1.143   5.239  13.259 -0.5768  0.4304 -1.4978
 6449TIP3   OH240837   4.603   5.002  16.459 -0.3373 -0.1535  0.2264
 6449TIP3    H140838   4.605   4.907  16.444  1.4738 -0.3993  1.6888
 6449TIP3    H240839   4.677   5.036  16.407 -1.4043  0.5962 -0.8662
 6450TIP3   OH240840   6.287   0.104  17.094 -0.4685  0.5967  0.2863
 6450TIP3    H140841   6.371   0.127  17.135 -0.9040  1.0477  0.9516
 6450TIP3    H240842   6.311   0.049  17.020  0.4092  0.5821  0.5641
 6451TIP3   OH240843   4.592   0.533   5.136 -0.1577 -0.1421  0.2371
 6451TIP3    H140844   4.527   0.490   5.192 -0.2988 -2.4498 -1.5129
 6451TIP3    H240845   4.670   0.478   5.145  0.8405  1.2769  0.5402
 6452TIP3   OH240846   2.282   4.364   2.055 -0.3644  0.0392  0.0733
 6452TIP3    H140847   2.230   4.288   2.029 -1.5350 -0.0687  2.5027
 6452TIP3    H240848   2.364   4.328   2.086 -0.8831 -0.2831  1.1330
 6453TIP3   OH240849   3.152   1.448  13.925  0.0781 -0.1023 -0.6785
 6453TIP3    H140850   3.210   1.523  13.937  1.6994 -1.2631 -0.9378
 6453TIP3    H240851   3.140   1.441  13.831 -0.7066  0.2940 -0.6088
 6454TIP3   OH240852   3.702   5.887   0.318  0.4048  0.0688  0.2903
 6454TIP3    H140853   3.780   5.940   0.302  0.7080 -0.4641 -0.0446
 6454TIP3    H240854   3.733   5.814   0.372  0.1973 -0.2783 -0.0481
 6455TIP3   OH240855   1.524   5.060  15.641 -0.2403  0.0197  0.3707
 6455TIP3    H140856   1.428   5.063  15.640 -0.2460  2.2560  1.6241
 6455TIP3    H240857   1.544   4.989  15.703 -1.0583 -0.5387  0.0249
 6456TIP3   OH240858   6.065   6.710   1.009  0.3817 -0.7014 -0.5996
 6456TIP3    H140859   6.035   6.790   1.052  1.3527 -1.6369  1.9450
 6456TIP3    H240860   5.984   6.663   0.988 -0.2012 -1.4362  2.7383
 6457TIP3   OH240861   6.412   6.474  13.639  0.3455  0.1397 -0.4113
 6457TIP3    H140862   6.435   6.540  13.705  2.0980 -0.8981  0.0938
 6457TIP3    H240863   6.493   6.424  13.626 -0.6979 -1.3962 -1.3615
 6458TIP3   OH240864   3.321   4.212  13.481  0.3491  0.0357 -0.0503
 6458TIP3    H140865   3.276   4.271  13.542  0.2688  0.7202 -0.7649
 6458TIP3    H240866   3.414   4.227  13.497  0.3281 -0.0562  0.1625
 6459TIP3   OH240867   0.851   0.058   3.668 -0.6592 -0.1716 -0.1519
 6459TIP3    H140868   0.929   0.019   3.706  0.4028  0.9593 -1.0898
 6459TIP3    H240869   0.826  -0.002   3.598 -0.6779 -0.5637  0.1838
 6460TIP3   OH240870   2.784   5.882   2.437  0.2420  0.4790 -0.4218
 6460TIP3    H140871   2.735   5.814   2.391 -0.2326 -0.3834  1.2870
 6460TIP3    H240872   2.778   5.959   2.379 -2.1985  0.0947 -0.7810
 6461TIP3   OH240873   0.349   0.764  12.257 -0.5810 -0.1837 -0.6393
 6461TIP3    H140874   0.279   0.721  12.208 -1.0116  0.7910 -0.8965
 6461TIP3    H240875   0.306   0.797  12.336 -0.1978 -0.4423 -0.3189
 6462TIP3   OH240876   0.786   6.451   2.245 -0.0217  0.1529  0.1252
 6462TIP3    H140877   0.770   6.389   2.316 -0.9929  0.8443  0.5414
 6462TIP3    H240878   0.880   6.466   2.246 -0.1137  0.9462  1.9865
 6463TIP3   OH240879   0.574   6.145  15.902  0.3443 -0.2750  0.1832
 6463TIP3    H140880   0.547   6.235  15.883  0.9324 -0.0137  0.5471
 6463TIP3    H240881   0.499   6.106  15.946 -0.0793 -0.1030 -0.3741
 6464TIP3   OH240882   0.862   4.319   4.339 -0.4830  0.3155  0.0149
 6464TIP3    H140883   0.832   4.252   4.400 -0.9722  0.2160 -0.3274
 6464TIP3    H240884   0.879   4.272   4.257  2.1724  0.0994  0.6265
 6465TIP3   OH240885   0.365   3.596   2.480  0.1331  0.4288 -0.7153
 6465TIP3    H140886   0.424   3.524   2.458  0.8461  0.3269  1.3161
 6465TIP3    H240887   0.294   3.554   2.530 -0.3172  0.9093 -0.9432
 6466TIP3   OH240888   1.194   0.757   4.631 -0.1955 -0.0882  0.2855
 6466TIP3    H140889   1.109   0.714   4.632  0.0958 -0.6671  0.1845
 6466TIP3    H240890   1.242   0.717   4.703  0.4454 -0.6895 -0.4599
 6467TIP3   OH240891   1.359   6.342   0.479 -0.0253 -0.3312 -0.0259
 6467TIP3    H140892   1.422   6.344   0.552 -0.1004 -1.4882  0.0857
 6467TIP3    H240893   1.395   6.278   0.418  0.9512  1.8640 -1.8964
 6468TIP3   OH240894   3.805   4.190  14.494  0.5548  0.5191  0.0902
 6468TIP3    H140895   3.900   4.186  14.503  0.7159  0.0718 -1.5023
 6468TIP3    H240896   3.787   4.149  14.410 -1.1649 -0.5637  0.9209
 6469TIP3   OH240897   2.837   0.500  11.719  0.3490 -0.0611 -0.3119
 6469TIP3    H140898   2.817   0.412  11.750  2.6034  0.2034  2.3100
 6469TIP3    H240899   2.759   0.527  11.671 -0.9989 -2.8997  0.0784
 6470TIP3   OH240900   0.377   2.445   4.880  0.0703 -0.2557 -0.1541
 6470TIP3    H140901   0.383   2.524   4.934 -0.0281 -1.1419  1.2128
 6470TIP3    H240902   0.351   2.376   4.941 -0.4399 -1.2379 -1.4251
 6471TIP3   OH240903   3.445   5.806   4.248 -0.1752 -0.7457  0.4556
 6471TIP3    H140904   3.504   5.779   4.178 -0.2558 -1.6036  0.6984
 6471TIP3    H240905   3.469   5.896   4.267 -1.8892  0.4688 -2.4643
 6472TIP3   OH240906   1.878   0.863  16.567 -0.0225 -0.0779 -0.3279
 6472TIP3    H140907   1.811   0.903  16.623  0.0937 -1.5317  0.9267
 6472TIP3    H240908   1.952   0.848  16.626  1.2354  0.9625 -1.5553
 6473TIP3   OH240909   5.836   3.416  11.970  0.0835  0.2267 -0.6210
 6473TIP3    H140910   5.895   3.344  11.990  0.7189  0.5834 -1.1944
 6473TIP3    H240911   5.881   3.468  11.904  0.1492  1.7937  0.5781
 6474TIP3   OH240912   4.917   6.368  11.613 -0.3214  0.0570 -0.7838
 6474TIP3    H140913   5.008   6.364  11.583 -0.4351 -2.7506 -1.0605
 6474TIP3    H240914   4.865   6.341  11.537 -1.3530  0.9841 -0.4428
 6475TIP3   OH240915   1.287   3.601  15.880  0.7039  0.1816  0.2765
 6475TIP3    H140916   1.361   3.541  15.892  0.6134  0.1309  0.5970
 6475TIP3    H240917   1.233   3.559  15.813  0.0607 -0.6739  1.2913
 6476TIP3   OH240918   6.042   5.998  12.995  0.7396  0.0650  0.9407
 6476TIP3    H140919   6.061   6.059  12.924 -2.2694 -0.3017 -0.3141
 6476TIP3    H240920   6.038   6.053  13.073  0.8110  1.0241  0.2823
 6477TIP3   OH240921   1.645   1.159   3.718 -0.3923 -0.3827 -0.1717
 6477TIP3    H140922   1.551   1.154   3.732 -0.1486 -0.3924  1.6687
 6477TIP3    H240923   1.666   1.081   3.666 -1.4744  0.0280 -1.2781
 6478TIP3   OH240924   3.494   3.666  14.998 -0.0915 -0.7088  0.1738
 6478TIP3    H140925   3.423   3.728  14.979 -0.7195 -1.5000 -0.1744
 6478TIP3    H240926   3.571   3.703  14.955 -1.2016 -1.8278 -3.1204
 6479TIP3   OH240927   0.017   1.576   2.546  0.0726 -0.0787 -0.3788
 6479TIP3    H140928   0.005   1.533   2.631 -2.5268  0.8640 -0.1742
 6479TIP3    H240929   0.061   1.658   2.567 -0.3319  0.0390  0.0366
 6480TIP3   OH240930   0.442   1.481  10.717 -0.3868  0.6467  0.2693
 6480TIP3    H140931   0.408   1.392  10.725 -1.5598  0.9943 -0.6471
 6480TIP3    H240932   0.527   1.478  10.761  0.8466 -1.5932 -2.0531
 6481TIP3   OH240933   4.528   0.775  11.768  0.2697 -0.3619  0.0504
 6481TIP3    H140934   4.522   0.808  11.678 -1.0344 -0.4751  0.0742
 6481TIP3    H240935   4.517   0.852  11.823  0.3534 -0.3912  0.1081
 6482TIP3   OH240936   5.469   6.760  11.856 -0.4486  0.1128 -0.1979
 6482TIP3    H140937   5.415   6.831  11.891  1.2902  0.8146  1.2357
 6482TIP3    H240938   5.547   6.805  11.820  1.1542 -1.0605  1.6306
 6483TIP3   OH240939   5.771   0.990  13.703  0.6424 -0.1160  0.2463
 6483TIP3    H140940   5.678   0.971  13.718  0.7577 -0.6220  0.3493
 6483TIP3    H240941   5.775   1.017  13.611  0.5676 -1.3322 -0.1365
 6484TIP3   OH240942   3.216   6.437   4.605  0.2970  0.1447  0.2660
 6484TIP3    H140943   3.190   6.416   4.695 -1.3731 -0.7871 -0.3711
 6484TIP3    H240944   3.172   6.520   4.587 -0.1597 -0.1396  0.0299
 6485TIP3   OH240945   1.521   2.979   3.907 -0.5123 -0.7701 -0.1612
 6485TIP3    H140946   1.447   2.977   3.846  0.3636  0.0437 -1.2824
 6485TIP3    H240947   1.591   2.933   3.861  0.0536 -0.4700  0.3917
 6486TIP3   OH240948   4.810   3.881   1.301 -0.5715  0.0062 -0.0018
 6486TIP3    H140949   4.806   3.950   1.236 -0.1414 -0.4438 -0.5189
 6486TIP3    H240950   4.891   3.833   1.280 -1.2117 -1.0734 -0.0858
 6487TIP3   OH240951   4.508   5.810  13.865  0.3765  0.2969 -0.2509
 6487TIP3    H140952   4.462   5.892  13.886 -0.8031 -0.3173 -0.3717
 6487TIP3    H240953   4.600   5.835  13.862  0.1504  1.3875  0.9050
 6488TIP3   OH240954   0.981   2.645   0.776  0.3819 -0.0782 -0.1200
 6488TIP3    H140955   0.941   2.659   0.862 -2.0513  2.3295 -1.5074
 6488TIP3    H240956   1.009   2.732   0.747  0.1057 -0.6363 -2.2361
 6489TIP3   OH240957   2.453   1.839  14.951  0.1063 -0.1593 -0.1895
 6489TIP3    H140958   2.364   1.852  14.985  0.1897 -0.6788  0.2340
 6489TIP3    H240959   2.494   1.779  15.013  1.4173  1.5961  0.7335
 6490TIP3   OH240960   1.031   0.699  16.300 -0.0831 -1.1566  0.1092
 6490TIP3    H140961   0.971   0.714  16.373 -0.8258 -3.7016  0.1399
 6490TIP3    H240962   1.102   0.763  16.312 -2.1522  1.1562  0.7237
 6491TIP3   OH240963   0.668   1.933  11.701 -0.9027  0.1688  0.0338
 6491TIP3    H140964   0.597   1.880  11.738 -0.2346 -0.6268  0.2072
 6491TIP3    H240965   0.634   1.965  11.618 -0.8137 -1.7360 -0.7671
 6492TIP3   OH240966   4.072   5.329   3.358 -0.0746  0.0718 -0.3290
 6492TIP3    H140967   4.102   5.253   3.408 -1.0381 -0.3050 -0.3059
 6492TIP3    H240968   4.078   5.302   3.266  0.0395  0.1466 -0.3447
 6493TIP3   OH240969   0.721   6.337   6.241 -0.2816 -0.1163  0.2440
 6493TIP3    H140970   0.668   6.320   6.164 -0.3534  1.1384 -0.0040
 6493TIP3    H240971   0.798   6.281   6.230 -1.4539 -1.8864  0.5578
 6494TIP3   OH240972   5.542   1.494   2.710 -0.1480  0.0104 -0.2744
 6494TIP3    H140973   5.584   1.580   2.706  2.0757 -1.0300 -1.7897
 6494TIP3    H240974   5.519   1.475   2.619 -1.5652 -0.5831  0.1946
 6495TIP3   OH240975   0.605   2.701  12.146  0.1764 -0.0870 -0.0366
 6495TIP3    H140976   0.677   2.640  12.127 -0.5778 -1.5982  1.6789
 6495TIP3    H240977   0.531   2.667  12.096 -0.4258 -1.0405  1.4351
 6496TIP3   OH240978   5.652   2.662  11.317  0.1207  0.5637 -0.7435
 6496TIP3    H140979   5.691   2.721  11.381  1.7592 -0.7617 -0.4617
 6496TIP3    H240980   5.661   2.708  11.234  0.3415  1.1754 -0.3938
 6497TIP3   OH240981   5.651   1.862   5.135 -1.0372 -0.1501  0.1128
 6497TIP3    H140982   5.559   1.860   5.109 -1.0673  3.1692 -0.4864
 6497TIP3    H240983   5.650   1.841   5.229 -2.4713  0.2119  0.1981
 6498TIP3   OH240984   0.806   3.889   3.371  0.1933  0.1171 -0.1526
 6498TIP3    H140985   0.751   3.967   3.367 -1.1213 -0.8487 -2.1215
 6498TIP3    H240986   0.773   3.839   3.445 -2.2485 -0.8341 -1.7614
 6499TIP3   OH240987   4.678   4.871   3.770 -0.3306 -0.0578  0.0083
 6499TIP3    H140988   4.637   4.954   3.793 -1.8096 -0.3851 -1.2835
 6499TIP3    H240989   4.733   4.891   3.694  0.4070 -0.0176  0.5349
 6500TIP3   OH240990   2.427   4.127   2.841  0.2925 -0.2030 -0.4846
 6500TIP3    H140991   2.478   4.208   2.838  2.0972 -1.2595  0.0152
 6500TIP3    H240992   2.381   4.125   2.757  4.1961 -1.0402 -2.8709
 6501TIP3   OH240993   0.541   3.424  16.134  0.3560 -0.6695  0.7942
 6501TIP3    H140994   0.516   3.358  16.070  0.7759 -0.8952  0.8583
 6501TIP3    H240995   0.527   3.381  16.219  0.5958 -0.6676  0.8356
 6502TIP3   OH240996   1.057   0.240   0.467 -0.1019  0.6098 -0.5418
 6502TIP3    H140997   1.144   0.276   0.454  0.2634 -0.4857 -1.3292
 6502TIP3    H240998   1.029   0.274   0.552  1.2208  0.7354 -0.1372
 6503TIP3   OH240999   4.573   0.282   2.190  0.1444 -0.2272  0.0064
 6503TIP3    H141000   4.522   0.236   2.256 -1.2614 -0.4414 -1.1694
 6503TIP3    H241001   4.509   0.306   2.122  0.8328  3.2174  0.3859
 6504TIP3   OH241002   0.501   6.565   4.711 -0.0704  0.1122 -0.3567
 6504TIP3    H141003   0.571   6.628   4.723  0.1005 -0.1332 -0.0576
 6504TIP3    H241004   0.442   6.606   4.648 -0.2464  0.8084  0.2558
 6505TIP3   OH241005   2.225   1.782  15.586  0.2915 -0.2096  0.8385
 6505TIP3    H141006   2.278   1.786  15.507 -0.3451 -0.2894  0.4048
 6505TIP3    H241007   2.284   1.812  15.656  1.8582 -2.9425  0.8639
 6506TIP3   OH241008   0.123   2.072  13.605 -0.3594 -0.2845  0.0403
 6506TIP3    H141009   0.132   2.020  13.684  1.2531  1.7197  1.3046
 6506TIP3    H241010   0.135   2.163  13.635  2.6067  0.4321 -2.6998
 6507TIP3   OH241011   1.002   4.592   6.348  0.4278 -0.2860  0.8315
 6507TIP3    H141012   0.912   4.562   6.362 -0.3075  2.3952  2.9754
 6507TIP3    H241013   1.048   4.517   6.311 -2.2716 -2.3158  1.2991
 6508TIP3   OH241014   5.171   6.745   3.146  0.1517  0.1957 -0.1922
 6508TIP3    H141015   5.246   6.719   3.200  0.2183  1.3437  0.3180
 6508TIP3    H241016   5.096   6.730   3.203  0.1066  0.1499 -0.2656
 6509TIP3   OH241017   6.556   6.257  10.910 -0.2720 -0.1641 -0.5581
 6509TIP3    H141018   6.541   6.351  10.898 -2.3376 -0.5262 -1.3536
 6509TIP3    H241019   6.566   6.223  10.821  0.1197 -0.7441 -0.2963
 6510TIP3   OH241020   2.974   1.362  15.931  0.0963  0.1226 -0.3597
 6510TIP3    H141021   2.947   1.303  16.001  1.7870  0.6556  0.8242
 6510TIP3    H241022   2.940   1.447  15.958  0.4615  0.2639 -0.3322
 6511TIP3   OH241023   4.656   4.815   4.215  0.1124  0.6188 -0.6986
 6511TIP3    H141024   4.706   4.853   4.142  1.8767 -0.9667 -0.3903
 6511TIP3    H241025   4.715   4.823   4.290 -0.2892 -0.8683 -0.2099
 6512TIP3   OH241026   2.615   0.899  16.829  0.0144  0.6808 -0.8077
 6512TIP3    H141027   2.683   0.924  16.766  0.7260  0.1592 -0.2754
 6512TIP3    H241028   2.664   0.854  16.898 -0.9853 -0.4235 -0.8036
 6513TIP3   OH241029   0.593   4.588   5.306 -0.2313 -0.4280 -0.8428
 6513TIP3    H141030   0.524   4.641   5.265 -0.1917 -1.3681 -2.1837
 6513TIP3    H241031   0.554   4.501   5.315 -0.3620 -0.2166  1.5000
 6514TIP3   OH241032   5.933   2.308   3.646 -0.1595  0.0037 -0.1117
 6514TIP3    H141033   5.943   2.402   3.632 -0.0934  0.1227  0.6999
 6514TIP3    H241034   5.856   2.300   3.702  0.7298 -0.3125  1.1068
 6515TIP3   OH241035   2.182   6.471  16.391 -0.2474  0.0021 -0.2089
 6515TIP3    H141036   2.103   6.417  16.396 -0.7059  0.6713 -0.1456
 6515TIP3    H241037   2.244   6.417  16.342 -1.3360  0.1482 -1.8311
 6516TIP3   OH241038   5.494   5.313  16.235  0.2836 -0.3149 -0.3748
 6516TIP3    H141039   5.585   5.291  16.252 -0.5667 -2.6856  1.6505
 6516TIP3    H241040   5.452   5.313  16.321 -1.7311  0.3375 -1.2779
 6517TIP3   OH241041   6.350   4.057  13.250  0.0780 -0.2568  0.0249
 6517TIP3    H141042   6.360   3.962  13.260  0.4178 -0.1157  1.1199
 6517TIP3    H241043   6.440   4.090  13.244 -0.0517 -0.1378 -1.9493
 6518TIP3   OH241044   6.540   2.900  15.887 -0.0441 -0.0700 -0.0757
 6518TIP3    H141045   6.596   2.889  15.810  0.7770 -1.1073  0.6233
 6518TIP3    H241046   6.541   2.994  15.905  0.4019  0.0810 -0.8648
 6519TIP3   OH241047   2.058   6.511   4.154 -0.3562  0.2338 -0.4616
 6519TIP3    H141048   2.118   6.467   4.214 -0.2477 -1.0817 -1.4835
 6519TIP3    H241049   2.113   6.571   4.104 -0.0088 -0.4243 -0.8841
 6520TIP3   OH241050   4.338   0.542   5.892  0.5344  0.2914 -0.0628
 6520TIP3    H141051   4.267   0.548   5.957 -0.4620  0.3383 -1.1272
 6520TIP3    H241052   4.345   0.630   5.856 -0.0121 -0.0768 -1.1214
 6521TIP3   OH241053   5.277   0.225   4.129  0.0255 -0.2855  0.0222
 6521TIP3    H141054   5.274   0.130   4.142 -0.8525 -0.2612  0.0327
 6521TIP3    H241055   5.322   0.258   4.207  0.7728 -0.7289 -0.2114
 6522TIP3   OH241056   3.406   1.712   2.044  0.4683 -0.3299 -0.1185
 6522TIP3    H141057   3.468   1.656   2.090  0.2740 -2.0594 -1.8259
 6522TIP3    H241058   3.341   1.734   2.110  2.8051  1.5308  1.7124
 6523TIP3   OH241059   4.598   1.884   6.462 -0.0038  0.0050 -0.0122
 6523TIP3    H141060   4.539   1.816   6.430  0.2181 -0.1553 -0.0833
 6523TIP3    H241061   4.539   1.953   6.495 -0.2700  0.6841 -1.7986
 6524TIP3   OH241062   6.669   0.842   4.795  0.2030  0.1620 -0.6443
 6524TIP3    H141063   6.740   0.838   4.860  0.1184  2.5001 -0.3291
 6524TIP3    H241064   6.709   0.883   4.719 -0.8912  2.0068 -0.2738
 6525TIP3   OH241065   5.236   6.471   1.838 -0.2774  0.6435  0.1312
 6525TIP3    H141066   5.140   6.468   1.847 -0.2465  1.2013  0.6681
 6525TIP3    H241067   5.265   6.383   1.864 -0.4665  1.1771  2.2921
 6526TIP3   OH241068   0.969   2.946   6.309  0.3574  0.0958  0.1443
 6526TIP3    H141069   0.928   2.973   6.391  0.0003 -2.2238  0.8049
 6526TIP3    H241070   0.895   2.921   6.253  0.6461  0.8054 -0.5690
 6527TIP3   OH241071   0.946   4.440  14.729 -0.2217 -0.1398 -0.3746
 6527TIP3    H141072   0.932   4.379  14.801 -1.4229  0.7563  0.1869
 6527TIP3    H241073   1.033   4.476  14.743 -0.7706  0.6803  1.1693
 6528TIP3   OH241074   0.051   4.541  15.109 -0.3996 -0.0252  0.2409
 6528TIP3    H141075  -0.028   4.527  15.057 -0.7276 -1.6619  1.0947
 6528TIP3    H241076   0.123   4.521  15.050 -0.6662  0.4835 -0.2560
 6529TIP3   OH241077   0.865   0.714  13.119 -0.2743  0.1858 -0.2190
 6529TIP3    H141078   0.898   0.776  13.054 -0.3212 -0.0029 -0.4221
 6529TIP3    H241079   0.862   0.765  13.201 -2.4187  1.1435 -0.8039
 6530TIP3   OH241080   1.869   5.196  12.925 -0.2649  0.1665 -0.0273
 6530TIP3    H141081   1.820   5.175  13.005 -2.2267  1.0582 -0.9380
 6530TIP3    H241082   1.839   5.284  12.901  0.2923 -0.0833 -1.7329
 6531TIP3   OH241083   1.937   5.918   2.753 -0.1794 -0.4505  0.0874
 6531TIP3    H141084   1.857   5.928   2.702 -0.3742 -0.4036  0.4027
 6531TIP3    H241085   1.910   5.929   2.844  0.5215  1.8093  0.0904
 6532TIP3   OH241086   4.441   0.820  16.626 -0.4426  0.3728  0.0268
 6532TIP3    H141087   4.435   0.729  16.654  0.0820  0.2740 -0.1759
 6532TIP3    H241088   4.441   0.870  16.707  0.5954  0.1133  0.2025
 6533TIP3   OH241089   4.862   5.155   5.857 -0.0439 -0.3669  0.0818
 6533TIP3    H141090   4.929   5.176   5.922  0.8532 -1.8599 -0.3024
 6533TIP3    H241091   4.875   5.062   5.839 -0.1130  0.0487 -2.4144
 6534TIP3   OH241092   5.597   1.892   3.472 -0.7650 -0.2250 -0.5098
 6534TIP3    H141093   5.509   1.866   3.500  0.0903 -1.3379  1.4055
 6534TIP3    H241094   5.639   1.810   3.445  0.2334 -0.0167  0.3284
 6535TIP3   OH241095   2.407   5.205  11.512 -0.5410  0.4769  0.2388
 6535TIP3    H141096   2.366   5.201  11.598 -0.5555 -1.8602  0.1662
 6535TIP3    H241097   2.469   5.133  11.510 -1.5224 -0.4401 -2.1499
 6536TIP3   OH241098   4.562   6.742  12.061  0.3194  0.1342 -0.1719
 6536TIP3    H141099   4.515   6.659  12.073  0.3911  0.0044 -0.7637
 6536TIP3    H241100   4.514   6.804  12.116 -0.1678 -0.1393 -0.2782
 6537TIP3   OH241101   1.014   0.946  12.557  0.1026  0.2665  0.0562
 6537TIP3    H141102   1.068   0.963  12.634 -0.5756  0.8190  0.4145
 6537TIP3    H241103   1.018   1.028  12.507 -1.0554  0.6065  0.4922
 6538TIP3   OH241104   2.641   6.668   1.590  0.2514 -0.2641  0.0118
 6538TIP3    H141105   2.571   6.702   1.534  0.6741  0.6390  0.0088
 6538TIP3    H241106   2.690   6.609   1.534  1.5936  1.7759 -1.1092
 6539TIP3   OH241107   0.663   4.690   0.882  0.1989 -0.3095 -0.5010
 6539TIP3    H141108   0.712   4.705   0.963 -0.3380 -0.5981 -0.1110
 6539TIP3    H241109   0.728   4.656   0.820  0.8498  0.9972 -0.5550
 6540TIP3   OH241110   0.191   6.784   4.799  0.0616 -0.5334 -0.6441
 6540TIP3    H141111   0.173   6.774   4.892  0.7847  0.8774 -0.3304
 6540TIP3    H241112   0.107   6.805   4.759  0.2353  2.2858  0.2473
 6541TIP3   OH241113   6.632   0.996   5.374  0.1555 -0.1589  0.3409
 6541TIP3    H141114   6.646   1.089   5.386 -0.2608 -0.0645  0.1365
 6541TIP3    H241115   6.542   0.981   5.404 -0.5706 -0.0886 -1.6019
 6542TIP3   OH241116   1.417   4.425  11.262  0.2293  0.4352 -0.4914
 6542TIP3    H141117   1.337   4.390  11.223  0.6436  0.0985 -1.0469
 6542TIP3    H241118   1.386   4.479  11.334 -0.5175  0.5698 -0.9009
 6543TIP3   OH241119   1.499   2.025  17.060 -0.7423  0.6182  0.2043
 6543TIP3    H141120   1.513   2.006  17.153 -1.1712 -1.4420 -0.0863
 6543TIP3    H241121   1.570   1.979  17.016 -2.2531 -1.0431 -0.6316
 6544TIP3   OH241122   0.833   2.341  11.582 -0.2312 -0.3916 -0.0409
 6544TIP3    H141123   0.820   2.256  11.625 -2.1178 -0.9522 -1.5700
 6544TIP3    H241124   0.927   2.346  11.567 -0.0156 -1.9447  0.6077
 6545TIP3   OH241125   0.042   1.043   3.478 -0.0229  0.0593  0.1717
 6545TIP3    H141126  -0.014   1.029   3.554 -0.8844  3.4255  0.3227
 6545TIP3    H241127   0.105   1.110   3.507 -0.6474  1.7775 -2.1217
 6546TIP3   OH241128   5.967   5.796   1.504 -0.0213 -0.2731  0.3650
 6546TIP3    H141129   5.975   5.890   1.523 -2.7202 -0.0531  0.8356
 6546TIP3    H241130   6.025   5.781   1.429 -1.2924  2.2991 -1.2569
 6547TIP3   OH241131   0.895   6.257  11.857 -0.1967 -0.7353  0.0909
 6547TIP3    H141132   0.915   6.305  11.938  1.0521 -3.0797  1.2785
 6547TIP3    H241133   0.803   6.232  11.866 -0.4860  0.2650  0.0664
 6548TIP3   OH241134   0.328   2.772  16.845 -0.0556 -0.3343 -0.5316
 6548TIP3    H141135   0.311   2.802  16.934  1.2035 -0.1837 -0.3171
 6548TIP3    H241136   0.397   2.706  16.855  1.0717  0.6517 -1.4916
 6549TIP3   OH241137   0.596   6.412  17.173 -0.0538  0.0912  0.0337
 6549TIP3    H141138   0.536   6.486  17.177 -1.2918 -0.9290  1.2606
 6549TIP3    H241139   0.541   6.335  17.182  1.3544 -0.9266  0.3441
 6550TIP3   OH241140   4.008   2.615  12.331  0.0417  0.1091  0.5747
 6550TIP3    H141141   4.037   2.675  12.399 -1.4194 -0.8844  2.1561
 6550TIP3    H241142   3.965   2.672  12.266  1.0111  1.0220  0.7102
 6551TIP3   OH241143   3.091   4.423  16.862 -0.0053 -0.3866  0.1369
 6551TIP3    H141144   3.104   4.485  16.790 -0.9318  0.9591  1.0541
 6551TIP3    H241145   3.163   4.361  16.855 -0.1648 -0.3962 -2.0270
 6552TIP3   OH241146   1.123   2.243   0.948 -0.3645 -0.4715 -0.6787
 6552TIP3    H141147   1.123   2.337   0.965  3.1428 -0.6563  1.1281
 6552TIP3    H241148   1.080   2.204   1.024 -0.7751 -0.4286 -0.8827
 6553TIP3   OH241149   3.458   2.935  11.693 -0.1471  1.0249 -0.0043
 6553TIP3    H141150   3.499   2.879  11.628 -0.0781  0.4817  0.5039
 6553TIP3    H241151   3.381   2.971  11.648 -0.1255  0.6169 -0.3729
 6554TIP3   OH241152   3.888   5.192  13.648 -0.2706 -0.0451 -0.0399
 6554TIP3    H141153   3.799   5.226  13.661 -0.1715 -0.1133  0.8423
 6554TIP3    H241154   3.937   5.226  13.722  0.1699 -0.9675  0.0949
 6555TIP3   OH241155   6.152   5.413   4.813  0.0488 -0.7303 -0.0479
 6555TIP3    H141156   6.239   5.379   4.795  0.4258 -0.0008  0.3417
 6555TIP3    H241157   6.134   5.473   4.741  1.1786  1.4839  1.3928
 6556TIP3   OH241158   4.255   2.507  10.600  0.3857  0.1345 -0.1060
 6556TIP3    H141159   4.292   2.428  10.639 -0.5928 -0.6857 -0.7769
 6556TIP3    H241160   4.270   2.495  10.506  1.3042  1.3365 -0.1415
 6557TIP3   OH241161   3.881   0.797  11.846  0.3070 -0.1209 -0.2590
 6557TIP3    H141162   3.969   0.800  11.885  1.0725 -0.5440 -1.8826
 6557TIP3    H241163   3.894   0.756  11.760 -1.5748 -0.7209 -0.3024
 6558TIP3   OH241164   5.420   4.012  16.277  0.0778 -0.2079 -0.7442
 6558TIP3    H141165   5.410   3.971  16.363 -0.4461 -1.9755 -1.5982
 6558TIP3    H241166   5.331   4.016  16.243  0.0532  2.0819 -0.5563
 6559TIP3   OH241167   0.321   1.157  11.183  0.2999  0.3054  0.0805
 6559TIP3    H141168   0.308   1.069  11.219 -1.1397  1.1908  1.9282
 6559TIP3    H241169   0.271   1.158  11.102 -0.0555 -0.4263  0.2838
 6560TIP3   OH241170   1.381   3.442  15.447 -0.0706 -0.1565 -0.0536
 6560TIP3    H141171   1.371   3.359  15.494  1.2548 -0.5507 -0.4435
 6560TIP3    H241172   1.442   3.493  15.500  1.8889 -0.8203 -1.5380
 6561TIP3   OH241173   5.824   4.663   0.078  0.0524  0.7619  0.3851
 6561TIP3    H141174   5.782   4.616   0.150 -1.3657 -1.2447 -1.6237
 6561TIP3    H241175   5.848   4.748   0.116 -0.8834 -0.0873  3.1114
 6562TIP3   OH241176   4.530   4.998   5.995  0.2393  0.1739 -0.6080
 6562TIP3    H141177   4.617   4.971   6.023 -0.3002  0.3580  1.4536
 6562TIP3    H241178   4.500   5.057   6.064 -1.6865 -0.2114 -1.0452
 6563TIP3   OH241179   4.477   6.335  11.709 -0.7472 -0.5374 -0.4701
 6563TIP3    H141180   4.497   6.250  11.749 -2.4029 -1.7213 -2.0007
 6563TIP3    H241181   4.528   6.398  11.760  1.0545 -2.4998  0.3233
 6564TIP3   OH241182   3.761   5.963  12.754  0.2526  0.0720 -0.2111
 6564TIP3    H141183   3.710   5.931  12.680  0.9301 -0.3323 -0.5205
 6564TIP3    H241184   3.764   6.058  12.743 -0.0718  0.0587 -0.4229
 6565TIP3   OH241185   2.943   2.671  12.902 -0.3469 -0.2689  0.4016
 6565TIP3    H141186   2.852   2.670  12.871 -0.8077 -0.4829  1.6991
 6565TIP3    H241187   2.958   2.582  12.935  0.9281 -0.7708 -1.3675
 6566TIP3   OH241188   1.037   4.653   6.635 -0.2044  0.1294 -0.0969
 6566TIP3    H141189   1.030   4.633   6.542  1.5487  0.7710 -0.4149
 6566TIP3    H241190   1.106   4.595   6.667  0.2644  0.9522  0.4357
 6567TIP3   OH241191   2.496   6.695   6.301  0.3838  0.2572  0.1363
 6567TIP3    H141192   2.429   6.655   6.357  1.1647 -1.2371  0.0627
 6567TIP3    H241193   2.544   6.621   6.264  2.3481  1.2700  0.5008
 6568TIP3   OH241194   0.771   6.299  16.938 -0.0888 -0.6901 -0.6538
 6568TIP3    H141195   0.811   6.355  16.872 -0.4540  0.9747  0.4863
 6568TIP3    H241196   0.744   6.359  17.008 -0.4991 -2.2851  0.6208
 6569TIP3   OH241197   6.022   2.446  14.739 -0.3302 -0.0288  0.1935
 6569TIP3    H141198   6.021   2.541  14.733 -0.9391  0.0441  1.2853
 6569TIP3    H241199   6.111   2.425  14.767 -0.5312  0.3042  1.1018
 6570TIP3   OH241200   1.949   3.215  16.044  0.5984 -0.0707 -0.4309
 6570TIP3    H141201   1.869   3.225  16.097  0.1854 -1.4660 -0.7423
 6570TIP3    H241202   2.020   3.238  16.103  0.0252  0.1789  0.1758
 6571TIP3   OH241203   2.906   4.539   0.489  0.4647 -0.1292 -0.5161
 6571TIP3    H141204   2.875   4.517   0.577  0.2276  1.0117 -0.3016
 6571TIP3    H241205   2.882   4.631   0.477 -0.0683 -0.4267 -2.0190
 6572TIP3   OH241206   1.329   6.391   4.643  0.1841 -0.1640 -0.0467
 6572TIP3    H141207   1.316   6.336   4.566 -0.7690 -0.9253  0.6422
 6572TIP3    H241208   1.259   6.365   4.704 -0.3843  1.8719  0.2513
 6573TIP3   OH241209   0.988   5.954  14.513 -0.1619  0.1188 -0.1888
 6573TIP3    H141210   0.932   6.030  14.530 -0.9781  0.2095 -2.9037
 6573TIP3    H241211   0.934   5.878  14.536 -0.3178  0.2854 -0.0036
 6574TIP3   OH241212   0.374   6.588  14.800  0.1946  0.1856  0.1562
 6574TIP3    H141213   0.447   6.636  14.761  1.0866  0.3378  1.8764
 6574TIP3    H241214   0.308   6.654  14.818 -0.0397  0.1816 -0.6753
 6575TIP3   OH241215   3.101   1.257  12.690  0.0349  0.3979  0.7303
 6575TIP3    H141216   3.110   1.195  12.618  1.8026 -2.5237  3.2163
 6575TIP3    H241217   3.125   1.341  12.653  0.6926 -0.9226 -2.0976
 6576TIP3   OH241218   1.441   0.525   1.499  0.5117  0.4735 -0.2153
 6576TIP3    H141219   1.353   0.554   1.477  0.7759  1.0780 -0.5071
 6576TIP3    H241220   1.448   0.437   1.462  0.6926  1.1788 -1.9267
 6577TIP3   OH241221   3.198   3.583   5.624 -0.1261 -0.0659 -0.1162
 6577TIP3    H141222   3.184   3.656   5.564 -1.5913  0.0285  0.3235
 6577TIP3    H241223   3.289   3.594   5.652 -0.1681  1.3077 -0.4201
 6578TIP3   OH241224   6.609   1.210  12.481 -0.3820  0.1321 -0.0099
 6578TIP3    H141225   6.526   1.254  12.466 -1.0720 -1.2158 -0.3241
 6578TIP3    H241226   6.675   1.273  12.452 -1.3577  0.6337 -1.2548
 6579TIP3   OH241227   0.163   2.009   1.238 -0.3422  0.9282  0.2057
 6579TIP3    H141228   0.108   2.064   1.182  0.4229  0.2176 -1.2915
 6579TIP3    H241229   0.131   1.920   1.223  2.2518  0.2454 -2.1195
 6580TIP3   OH241230   2.007   5.426  15.496 -0.3618  0.2621  0.5734
 6580TIP3    H141231   2.083   5.485  15.497 -0.2661  0.1552  1.5691
 6580TIP3    H241232   1.971   5.433  15.585 -2.3618  1.3640 -0.2813
 6581TIP3   OH241233   0.090   0.361  11.190  0.3573  0.5607  0.1180
 6581TIP3    H141234   0.011   0.348  11.137  1.0819  0.2926 -0.9518
 6581TIP3    H241235   0.074   0.441  11.239 -0.6060  0.4706 -0.0287
 6582TIP3   OH241236   5.087   5.714   0.544  0.0826  0.8380 -0.2072
 6582TIP3    H141237   5.117   5.706   0.635  2.9913  1.2330 -1.0168
 6582TIP3    H241238   5.097   5.626   0.508 -0.0181  0.9190 -0.4340
 6583TIP3   OH241239   5.399   5.303  16.490  0.1485  0.3515 -0.6420
 6583TIP3    H141240   5.420   5.288  16.582  2.3159  1.7674 -0.8216
 6583TIP3    H241241   5.321   5.358  16.492 -0.7166 -0.8625  0.2740
 6584TIP3   OH241242   1.047   5.636  14.718 -0.6919  0.0059  0.0184
 6584TIP3    H141243   0.973   5.656  14.661  0.7171  1.8845 -1.2839
 6584TIP3    H241244   1.088   5.559  14.678 -1.0235 -0.0719 -0.1758
 6585TIP3   OH241245   6.220   5.357  11.922  0.8983 -0.2101  0.0940
 6585TIP3    H141246   6.232   5.446  11.890  2.1092 -0.2600  0.3560
 6585TIP3    H241247   6.285   5.347  11.992  0.0422 -0.9392  0.8240
 6586TIP3   OH241248   4.438   5.655   4.797 -0.3344  0.3093  0.2399
 6586TIP3    H141249   4.413   5.703   4.876  1.5436  2.6539 -0.4701
 6586TIP3    H241250   4.515   5.604   4.824 -0.1475  0.5249  0.1184
 6587TIP3   OH241251   5.228   1.579  16.283  0.3356  0.1012 -0.2942
 6587TIP3    H141252   5.244   1.494  16.242 -2.5496 -0.1871 -1.0373
 6587TIP3    H241253   5.260   1.569  16.372  2.7288 -0.7314 -1.1693
 6588TIP3   OH241254   3.281   3.169  13.652 -0.0644 -0.3888  0.2558
 6588TIP3    H141255   3.341   3.157  13.726  0.3396  0.5399  0.0951
 6588TIP3    H241256   3.193   3.164  13.692  0.1398  1.6511  1.1179
 6589TIP3   OH241257   5.383   0.516  14.161 -0.0605 -0.6486  0.2631
 6589TIP3    H141258   5.460   0.559  14.198 -1.1457 -0.4511  2.4150
 6589TIP3    H241259   5.359   0.571  14.086  1.5219 -0.3877 -0.0865
 6590TIP3   OH241260   3.123   1.329   5.540 -0.0823  0.3173  0.0265
 6590TIP3    H141261   3.084   1.253   5.498  0.3155 -0.3857  0.9022
 6590TIP3    H241262   3.106   1.402   5.480  0.3028 -0.6167 -1.2466
 6591TIP3   OH241263   0.920   4.355   5.005  0.3034  0.4500 -0.1837
 6591TIP3    H141264   0.983   4.403   5.058  0.6685  1.3171 -1.3614
 6591TIP3    H241265   0.971   4.323   4.930  0.0566 -1.7624  0.5308
 6592TIP3   OH241266   1.166   6.217  13.476 -0.2158  0.2976  0.2244
 6592TIP3    H141267   1.186   6.226  13.383 -1.5483  0.3624 -0.0746
 6592TIP3    H241268   1.189   6.302  13.514  4.0349 -0.8554  0.7566
 6593TIP3   OH241269   5.060   3.408   1.601  0.0013  0.7370  0.2701
 6593TIP3    H141270   5.071   3.338   1.536  0.8283 -0.3135  1.4915
 6593TIP3    H241271   4.999   3.469   1.560  0.3393  0.0105 -1.4044
 6594TIP3   OH241272   2.425   0.673   3.496 -0.3118  0.6011  0.3922
 6594TIP3    H141273   2.515   0.668   3.529 -0.1763 -0.6290 -0.1241
 6594TIP3    H241274   2.397   0.762   3.518  1.7530  1.7901 -1.2727
 6595TIP3   OH241275   5.024   3.514  15.555  0.0505 -0.3667  0.1449
 6595TIP3    H141276   4.979   3.451  15.610 -0.0601 -0.0393  0.4326
 6595TIP3    H241277   4.956   3.575  15.528  0.1649 -0.3473 -0.1000
 6596TIP3   OH241278   5.928   4.452  14.246  0.3087 -0.0230 -0.3663
 6596TIP3    H141279   5.917   4.446  14.341  0.8663 -0.0988 -0.3060
 6596TIP3    H241280   5.898   4.541  14.225  1.0607  0.3354  0.0141
 6597TIP3   OH241281   2.105   2.896  14.010 -0.1597 -0.7196  0.2514
 6597TIP3    H141282   2.191   2.872  14.045  0.2003  0.0477 -0.0845
 6597TIP3    H241283   2.102   2.856  13.923 -0.6716 -1.8211  0.7490
 6598TIP3   OH241284   1.480   1.681   1.599 -0.2010 -0.4172  0.1809
 6598TIP3    H141285   1.508   1.645   1.683  1.4192  0.8706  0.2311
 6598TIP3    H241286   1.385   1.669   1.599 -0.0848 -1.7485  1.5482
 6599TIP3   OH241287   4.552   1.936  16.585  0.8097 -0.0816 -0.6244
 6599TIP3    H141288   4.567   1.873  16.656  0.7066 -0.0632 -0.5868
 6599TIP3    H241289   4.458   1.954  16.588  1.1494  1.7115  0.7424
 6600TIP3   OH241290   4.169   6.365   5.918  0.2205 -0.1378  0.1608
 6600TIP3    H141291   4.128   6.451   5.930  0.6598  0.2354 -0.8800
 6600TIP3    H241292   4.263   6.382   5.929  0.4297 -0.2107 -1.3468
 6601TIP3   OH241293   6.106   4.213   3.186  0.1722  0.0130  0.0142
 6601TIP3    H141294   6.046   4.138   3.182  0.2801 -0.1803  1.4278
 6601TIP3    H241295   6.119   4.238   3.095 -0.4636 -1.2191 -0.4441
 6602TIP3   OH241296   5.443   4.597   2.231  0.3020 -1.0715  0.2648
 6602TIP3    H141297   5.378   4.666   2.242  0.5444 -0.2235 -2.7780
 6602TIP3    H241298   5.523   4.634   2.269  0.3119  0.1875 -0.9110
 6603TIP3   OH241299   5.968   2.070   1.341 -0.1606  0.3754  0.2140
 6603TIP3    H141300   5.931   2.157   1.352 -1.4579 -0.0252 -0.7162
 6603TIP3    H241301   5.993   2.043   1.429 -1.0944  1.1086  0.7156
 6604TIP3   OH241302   6.386   5.878  16.972  0.3295 -0.0793 -0.5372
 6604TIP3    H141303   6.331   5.925  17.034  0.2778 -3.0117  1.8618
 6604TIP3    H241304   6.371   5.922  16.888 -5.6092 -0.4927 -0.1311
 6605TIP3   OH241305   4.437   2.409   5.051  0.3097  0.2042 -0.3261
 6605TIP3    H141306   4.450   2.369   5.137  2.9581  0.3103 -0.5863
 6605TIP3    H241307   4.392   2.342   5.000 -0.3038 -0.2784  0.7984
 6606TIP3   OH241308   1.627   3.282   0.613 -0.4772  0.4095  1.0092
 6606TIP3    H141309   1.606   3.374   0.629  1.3534  0.8445  1.1229
 6606TIP3    H241310   1.619   3.273   0.518  2.2412  1.5598  0.5534
 6607TIP3   OH241311   0.990   6.005  14.890  0.1444  0.1269 -0.0492
 6607TIP3    H141312   0.962   6.083  14.939 -1.3479 -0.9814  0.9625
 6607TIP3    H241313   0.944   6.012  14.806  2.6909  2.0200 -1.4375
 6608TIP3   OH241314   5.049   5.797  15.645 -0.2386 -0.4592 -0.0512
 6608TIP3    H141315   5.090   5.729  15.591  0.0877 -1.7015  1.6726
 6608TIP3    H241316   4.958   5.769  15.654 -1.1247  1.3116 -2.3069
 6609TIP3   OH241317   3.079   4.374  11.736 -0.2638 -0.0154 -0.0896
 6609TIP3    H141318   3.168   4.391  11.704 -0.0611  0.0590  0.5021
 6609TIP3    H241319   3.029   4.452  11.710  0.7614  1.8626  3.0037
 6610TIP3   OH241320   2.981   4.965  12.340 -0.1390  0.4155  0.1590
 6610TIP3    H141321   3.075   4.973  12.359 -0.5643  0.6799  2.5090
 6610TIP3    H241322   2.943   5.047  12.372 -1.1563  0.4864 -1.1303
 6611TIP3   OH241323   2.280   2.099   1.423  0.4594  0.3259 -0.6912
 6611TIP3    H141324   2.249   2.127   1.509 -2.1121 -0.7144 -1.1931
 6611TIP3    H241325   2.302   2.181   1.378 -3.3908  1.4587 -0.8459
 6612TIP3   OH241326   5.528   4.942  12.302 -0.1536 -0.0775 -0.7862
 6612TIP3    H141327   5.596   4.877  12.284  0.4819  1.1194 -3.2763
 6612TIP3    H241328   5.541   5.009  12.234 -3.2179  0.6870 -0.7762
 6613TIP3   OH241329   0.658   0.521   1.366  0.2458 -0.4845  0.0463
 6613TIP3    H141330   0.562   0.523   1.371  0.2470 -0.1542 -0.0994
 6613TIP3    H241331   0.683   0.466   1.440 -0.0354 -0.1764  0.3783
 6614TIP3   OH241332   4.038   2.984   4.473  0.0416  0.3017 -0.5748
 6614TIP3    H141333   4.038   2.923   4.546  0.5314 -1.1463 -1.7271
 6614TIP3    H241334   4.051   3.070   4.513 -2.0984 -0.1172  1.2407
 6615TIP3   OH241335   4.338   5.575  14.456  0.3144 -0.2676  0.2842
 6615TIP3    H141336   4.302   5.634  14.390  1.0904 -1.1062 -0.9241
 6615TIP3    H241337   4.325   5.621  14.539 -1.8372  0.2566 -0.2924
 6616TIP3   OH241338   3.535   3.349   2.030 -0.1836 -0.5717 -0.4009
 6616TIP3    H141339   3.588   3.269   2.036  0.5264 -0.3219 -2.4163
 6616TIP3    H241340   3.577   3.400   1.960 -0.0398  2.0417  1.4456
 6617TIP3   OH241341   4.017   6.340  11.914 -0.1045 -0.7588 -0.2739
 6617TIP3    H141342   3.957   6.395  11.863 -1.7699 -1.9812  0.2751
 6617TIP3    H241343   4.099   6.390  11.916 -1.1020  1.0186 -0.9958
 6618TIP3   OH241344   0.916   4.609   1.125  0.4965 -0.1506  1.0433
 6618TIP3    H141345   0.947   4.680   1.070  2.9574 -1.4839  0.5653
 6618TIP3    H241346   0.905   4.535   1.065 -2.3899 -0.1511  1.4556
 6619TIP3   OH241347   2.232   0.681  15.850  0.6417 -0.4029  0.2670
 6619TIP3    H141348   2.177   0.739  15.901 -0.1280 -0.2868 -0.6500
 6619TIP3    H241349   2.184   0.598  15.847  0.8859 -0.5439  0.1107
 6620TIP3   OH241350   0.129   1.173   1.205  0.4014  0.2317  0.3837
 6620TIP3    H141351   0.140   1.247   1.145  1.8195  0.9016  1.4077
 6620TIP3    H241352   0.127   1.212   1.292  1.0962 -0.9142  0.9419
 6621TIP3   OH241353   5.908   1.670  14.262  0.1835  0.1167 -0.4322
 6621TIP3    H141354   5.898   1.663  14.167  0.4600  2.9151 -0.7507
 6621TIP3    H241355   5.984   1.726  14.274 -1.5015  2.1723  1.3547
 6622TIP3   OH241356   2.187   2.530   3.574 -0.3481  0.5168 -0.5296
 6622TIP3    H141357   2.241   2.576   3.510  0.4371 -0.5651 -0.6700
 6622TIP3    H241358   2.149   2.457   3.525 -0.8271  0.4641 -0.0883
 6623TIP3   OH241359   1.126   6.507   2.405  0.1924  0.1865 -0.1021
 6623TIP3    H141360   1.140   6.464   2.320  0.1606 -0.8465  0.3990
 6623TIP3    H241361   1.213   6.537   2.431  1.2230 -3.6507  1.6450
 6624TIP3   OH241362   6.039   4.075   1.942 -0.3454  0.3408  0.2729
 6624TIP3    H141363   5.962   4.102   1.991 -0.9152 -0.2462 -0.2695
 6624TIP3    H241364   6.009   4.071   1.851  0.5407  0.8745 -0.0564
 6625TIP3   OH241365   6.027   5.493  15.180  0.1628 -0.3053  0.5378
 6625TIP3    H141366   6.057   5.571  15.133  0.2230  0.1690  1.3591
 6625TIP3    H241367   5.955   5.459  15.127 -0.5103  0.8665  0.6919
 6626TIP3   OH241368   1.837   1.276   3.388  0.1377 -0.0205 -0.1898
 6626TIP3    H141369   1.748   1.284   3.353  0.0068  0.1544  0.1836
 6626TIP3    H241370   1.893   1.311   3.319 -0.2422  1.9785  0.4537
 6627TIP3   OH241371   4.128   2.601   3.241  0.8414 -0.1960 -0.0408
 6627TIP3    H141372   4.202   2.561   3.195  0.6525 -1.1461  0.4554
 6627TIP3    H241373   4.147   2.590   3.334  0.3713  0.0957  0.0963
 6628TIP3   OH241374   1.064   2.281   1.489  0.0484 -0.4185 -0.1147
 6628TIP3    H141375   0.975   2.303   1.518  0.0890  0.8087 -0.8535
 6628TIP3    H241376   1.097   2.222   1.556 -0.5294  0.8640  1.3574
 6629TIP3   OH241377   6.568   2.262  13.318  0.0722 -0.3904 -0.7524
 6629TIP3    H141378   6.662   2.255  13.300  0.0176 -1.2342 -0.7453
 6629TIP3    H241379   6.563   2.273  13.413  0.1513 -0.7192 -0.7083
 6630TIP3   OH241380   6.323   5.902   5.308 -0.4187 -0.3833 -0.7119
 6630TIP3    H141381   6.374   5.931   5.384 -1.0585  0.5999 -0.6387
 6630TIP3    H241382   6.381   5.841   5.262 -0.7167 -2.5312  1.5656
 6631TIP3   OH241383   3.039   4.799   0.226 -0.4602 -0.1461 -0.3094
 6631TIP3    H141384   3.025   4.877   0.279  2.2632  1.0046 -1.1006
 6631TIP3    H241385   3.057   4.730   0.289  1.3535  0.8895  0.3742
 6632TIP3   OH241386   3.318   6.780   2.573 -0.4240 -0.4723 -0.0441
 6632TIP3    H141387   3.395   6.836   2.588  0.1355 -1.4050  0.6454
 6632TIP3    H241388   3.264   6.831   2.512 -0.1469  1.0168  0.8974
 6633TIP3   OH241389   5.514   4.662   1.313  0.0542  0.0546  0.6174
 6633TIP3    H141390   5.497   4.671   1.219 -1.7531 -1.3684  0.7659
 6633TIP3    H241391   5.454   4.593   1.342  0.9695  0.0778  2.7218
 6634TIP3   OH241392   4.640   5.696  16.836 -0.0700  0.1585 -0.2591
 6634TIP3    H141393   4.650   5.690  16.741  0.2875 -0.8071 -0.1751
 6634TIP3    H241394   4.632   5.605  16.865 -2.2522  0.5140  0.4353
 6635TIP3   OH241395   3.643   3.115   0.927 -0.5486  0.5642 -0.5417
 6635TIP3    H141396   3.648   3.028   0.965  0.3431  0.9101  0.1838
 6635TIP3    H241397   3.617   3.101   0.836 -0.7970 -0.4216 -0.3263
 6636TIP3   OH241398   1.705   4.178  12.521  0.2751 -0.0313 -0.1775
 6636TIP3    H141399   1.699   4.134  12.606  2.8734 -0.9715 -0.3609
 6636TIP3    H241400   1.690   4.270  12.540  0.5223 -0.2591  1.2711
 6637TIP3   OH241401   4.230   2.922   5.946  0.4129 -0.4580 -0.3444
 6637TIP3    H141402   4.185   2.852   5.994 -0.3241 -0.2412 -0.7041
 6637TIP3    H241403   4.298   2.952   6.006 -0.5219 -0.1539  0.6023
 6638TIP3   OH241404   0.897   1.497  12.884 -0.0467 -0.4804 -0.2479
 6638TIP3    H141405   0.898   1.568  12.820 -0.9716 -0.6002 -0.4044
 6638TIP3    H241406   0.981   1.504  12.929 -0.9659  2.1720  1.3196
 6639TIP3   OH241407   6.026   1.342   0.248  0.4762  0.2990 -0.3630
 6639TIP3    H141408   5.993   1.306   0.165  0.0270  1.6327 -0.7885
 6639TIP3    H241409   6.017   1.437   0.238 -0.0795  0.4657  1.4241
 6640TIP3   OH241410   3.690   1.475  14.082  0.4223  0.2800 -0.1391
 6640TIP3    H141411   3.624   1.511  14.141  0.6582  0.5463 -0.0332
 6640TIP3    H241412   3.671   1.381  14.079  1.3718 -0.0132  1.6299
 6641TIP3   OH241413   4.946   1.636   3.426 -0.7496  0.1760 -0.3932
 6641TIP3    H141414   4.919   1.707   3.485  2.9855  2.3506 -0.9834
 6641TIP3    H241415   4.998   1.578   3.481 -1.1015 -0.3588 -0.6166
 6642TIP3   OH241416   3.129   2.141   2.405 -0.1460  0.0361 -0.1332
 6642TIP3    H141417   3.035   2.162   2.405  0.1165  1.3368 -0.7993
 6642TIP3    H241418   3.170   2.219   2.444  0.7871  0.2195 -1.4334
 6643TIP3   OH241419   2.797   5.771   1.463  0.0896  0.2520 -0.5490
 6643TIP3    H141420   2.851   5.845   1.438 -0.8630  0.4314 -2.2367
 6643TIP3    H241421   2.803   5.711   1.389 -0.4768 -0.5912  0.0698
 6644TIP3   OH241422   0.847   3.451   5.767  0.3072  0.3092 -0.1192
 6644TIP3    H141423   0.897   3.429   5.846 -0.1962  0.3919  0.2331
 6644TIP3    H241424   0.756   3.454   5.797 -0.7903 -5.2184 -1.7226
 6645TIP3   OH241425   6.073   4.696   4.764  0.1382  0.6025 -0.4993
 6645TIP3    H141426   6.059   4.695   4.670 -0.8577 -2.4919 -0.4066
 6645TIP3    H241427   6.162   4.730   4.775  1.0686 -0.9031 -2.7171
 6646TIP3   OH241428   3.120   3.131  15.465  0.0990 -0.7740 -0.0326
 6646TIP3    H141429   3.148   3.085  15.544 -2.4805 -1.7574  0.4210
 6646TIP3    H241430   3.058   3.197  15.496 -0.0117 -0.3298 -1.1313
 6647TIP3   OH241431   2.513   4.152   1.977 -0.1846 -0.1725 -0.4950
 6647TIP3    H141432   2.568   4.230   1.967 -1.2554  0.6053 -0.4802
 6647TIP3    H241433   2.431   4.174   1.933 -1.2713 -0.4900  1.2674
 6648TIP3   OH241434   5.434   3.455  13.462  0.4627  0.2216  0.3192
 6648TIP3    H141435   5.482   3.383  13.505  1.0367  0.3141 -0.1449
 6648TIP3    H241436   5.353   3.415  13.431  0.3920 -0.0243  0.8066
 6649TIP3   OH241437   1.329   3.030  12.942 -0.2356  0.3275  0.2091
 6649TIP3    H141438   1.326   3.027  13.037 -0.3663  0.1734  0.1999
 6649TIP3    H241439   1.422   3.017  12.921 -0.1404  0.8050  0.3298
 6650TIP3   OH241440   4.663   0.440  11.688  0.0986  0.3814 -0.3396
 6650TIP3    H141441   4.616   0.516  11.655  1.1798  0.5142 -1.6407
 6650TIP3    H241442   4.611   0.365  11.658  0.3788  0.5448 -1.2656
 6651TIP3   OH241443   2.455   0.949   4.264  0.7216  0.2653  0.3001
 6651TIP3    H141444   2.474   0.914   4.177 -0.2368  1.0537 -0.2394
 6651TIP3    H241445   2.519   1.019   4.276 -0.1606  1.2299 -0.4588
 6652TIP3   OH241446   4.818   2.211  14.064 -0.0564  0.3847 -0.5641
 6652TIP3    H141447   4.912   2.229  14.072 -0.3037  0.8648  2.0678
 6652TIP3    H241448   4.790   2.267  13.992  1.2919  2.0611  0.1078
 6653TIP3   OH241449   4.050   5.901   0.009  0.2824 -0.8157  0.6630
 6653TIP3    H141450   4.010   5.896   0.096  1.6492  1.3080  1.4995
 6653TIP3    H241451   3.993   5.960  -0.040  0.6643 -0.3161  0.8191
 6654TIP3   OH241452   0.645   3.567  15.154  0.7451 -0.2397 -0.2526
 6654TIP3    H141453   0.587   3.637  15.123  1.9708  1.0059  0.1756
 6654TIP3    H241454   0.610   3.488  15.114 -1.4361  0.4109  0.2433
 6655TIP3   OH241455   1.839   0.231   3.453 -0.1942  0.2750  0.3076
 6655TIP3    H141456   1.895   0.186   3.389 -1.5489 -1.2189  0.1044
 6655TIP3    H241457   1.853   0.324   3.436  0.2607 -0.0868 -1.4849
 6656TIP3   OH241458   4.587   1.281   3.956  0.5799 -0.0904  0.0258
 6656TIP3    H141459   4.667   1.287   4.007 -0.3399 -1.7407  1.7995
 6656TIP3    H241460   4.521   1.328   4.008  0.1684  0.3938 -0.9119
 6657TIP3   OH241461   0.619   2.079   0.728  0.0490 -0.2201  0.4644
 6657TIP3    H141462   0.559   2.019   0.773 -0.1324  0.4223  1.1011
 6657TIP3    H241463   0.566   2.117   0.658 -0.3894  0.5504  1.1946
 6658TIP3   OH241464   1.070   3.936  15.004 -0.8171 -0.0397 -0.3715
 6658TIP3    H141465   1.157   3.907  14.976 -0.2436 -0.7135  1.9256
 6658TIP3    H241466   1.087   3.991  15.081 -2.4739 -1.0002  0.7264
 6659TIP3   OH241467   3.196   4.607  15.214  0.4668 -0.3587  0.3065
 6659TIP3    H141468   3.245   4.619  15.295  2.4275 -1.6186 -0.6316
 6659TIP3    H241469   3.178   4.696  15.184  0.8778  0.1287  1.4326
 6660TIP3   OH241470   3.870   4.048  13.917 -0.1163 -0.3301 -0.2333
 6660TIP3    H141471   3.956   4.080  13.888 -0.6380  1.7065  0.2687
 6660TIP3    H241472   3.808   4.100  13.866 -1.1489 -3.0127 -1.9266
 6661TIP3   OH241473   0.573   2.096  11.072 -0.1167  0.0012 -0.5794
 6661TIP3    H141474   0.484   2.094  11.039 -0.5480  2.7914  0.1531
 6661TIP3    H241475   0.626   2.123  10.997  0.0365 -1.0484 -0.8564
 6662TIP3   OH241476   5.227   3.871  15.476 -0.4378 -0.2047  0.9893
 6662TIP3    H141477   5.151   3.901  15.427 -0.5677  2.4861  2.6283
 6662TIP3    H241478   5.299   3.926  15.445  0.5151 -1.5597  0.6729
 6663TIP3   OH241479   3.571   1.900  16.526  0.0728 -0.1611 -0.0522
 6663TIP3    H141480   3.575   1.806  16.506 -1.1117 -0.4824  1.0733
 6663TIP3    H241481   3.478   1.922  16.519  0.3143  0.8858 -0.0801
 6664TIP3   OH241482   5.554   4.117   2.730  0.4509  0.0846 -0.2405
 6664TIP3    H141483   5.622   4.133   2.796  0.5974 -0.4355 -0.2605
 6664TIP3    H241484   5.506   4.200   2.724 -0.1850 -0.1424  1.2400
 6665TIP3   OH241485   3.164   5.630  15.780  0.0940 -0.2842  0.0151
 6665TIP3    H141486   3.225   5.584  15.722  0.9398  1.2678 -0.3676
 6665TIP3    H241487   3.199   5.615  15.868  0.6066 -0.0320 -0.1416
 6666TIP3   OH241488   2.979   3.349   3.490  0.1849  0.3057  0.3346
 6666TIP3    H141489   2.952   3.270   3.444 -0.6575  0.0077  1.3022
 6666TIP3    H241490   2.916   3.358   3.561  1.6127  0.5588  1.6427
 6667TIP3   OH241491   4.864   2.292  16.401  0.1437 -0.1192  0.3195
 6667TIP3    H141492   4.868   2.201  16.430  0.5025 -0.1411  0.2045
 6667TIP3    H241493   4.933   2.299  16.335  0.9714  0.5562  1.2163
 6668TIP3   OH241494   5.977   0.614  11.651  0.3192  0.2516 -0.3873
 6668TIP3    H141495   5.917   0.540  11.640  1.1025 -0.7202  1.4685
 6668TIP3    H241496   5.957   0.672  11.577 -3.6282  0.4918  0.6480
 6669TIP3   OH241497   0.879   5.120   2.591 -0.1442 -0.3904 -0.1691
 6669TIP3    H141498   0.808   5.117   2.655  0.3116  2.2871  0.6025
 6669TIP3    H241499   0.957   5.098   2.641  0.0521  0.5013 -0.0708
 6670TIP3   OH241500   4.075   5.988  14.692  0.3063 -0.5138  0.4596
 6670TIP3    H141501   4.109   6.028  14.612 -2.1119 -0.0303 -0.4169
 6670TIP3    H241502   3.980   5.984  14.679  0.1349 -4.0646  1.6655
 6671TIP3   OH241503   1.574   4.667  15.572  0.8067 -0.6041  0.2527
 6671TIP3    H141504   1.603   4.576  15.579  1.6321 -0.4358 -0.7576
 6671TIP3    H241505   1.574   4.700  15.662  1.9067 -1.1819  0.4796
 6672TIP3   OH241506   0.208   3.777  12.726 -1.0926 -0.2891  0.8917
 6672TIP3    H141507   0.141   3.746  12.787 -0.2300  0.7584  2.4336
 6672TIP3    H241508   0.274   3.818  12.782 -0.9260  1.9509 -0.8320
 6673TIP3   OH241509   3.716   1.075   1.813  0.3120  0.5767  0.0553
 6673TIP3    H141510   3.788   1.123   1.772 -1.4106  1.8208 -1.7025
 6673TIP3    H241511   3.699   1.122   1.894  0.2966  1.4263 -0.4275
 6674TIP3   OH241512   4.838   0.682   3.179  0.1339 -0.1884  0.1471
 6674TIP3    H141513   4.930   0.706   3.191  0.2956 -0.3078 -0.7839
 6674TIP3    H241514   4.840   0.591   3.150 -0.2698 -0.1364 -0.0529
 6675TIP3   OH241515   3.134   3.233  12.541 -0.0772 -0.4730 -0.0864
 6675TIP3    H141516   3.105   3.270  12.458 -2.5121 -0.3330  0.7559
 6675TIP3    H241517   3.196   3.298  12.576 -0.2286  0.2086 -1.0483
 6676TIP3   OH241518   6.808   6.792   1.929 -0.3457 -0.0555 -0.1280
 6676TIP3    H141519   6.762   6.876   1.919 -0.1171  0.0208 -0.5584
 6676TIP3    H241520   6.869   6.807   2.001  0.4963  0.5100 -0.9368
 6677TIP3   OH241521   5.213   6.228   4.991  0.1575 -0.7870 -0.4690
 6677TIP3    H141522   5.297   6.200   5.027  0.9133 -0.8525 -2.1644
 6677TIP3    H241523   5.165   6.147   4.975 -0.1818 -0.7570  0.3638
 6678TIP3   OH241524   3.008   0.651   0.486  0.2868 -0.0636  0.3305
 6678TIP3    H141525   3.098   0.667   0.458 -0.0348  2.1064  0.3505
 6678TIP3    H241526   2.959   0.644   0.404  0.3679 -0.7182  0.3283
 6679TIP3   OH241527   4.670   6.244  10.925  0.0941 -0.6457 -0.7384
 6679TIP3    H141528   4.665   6.295  11.006 -2.1784 -1.0754 -0.5309
 6679TIP3    H241529   4.763   6.245  10.902  0.8075 -0.4256  1.8013
 6680TIP3   OH241530   5.568   6.298   5.298  0.6583  0.6513 -0.0032
 6680TIP3    H141531   5.542   6.390   5.306 -0.2462  0.2804  1.8126
 6680TIP3    H241532   5.584   6.270   5.388  0.0070 -1.2267 -0.4299
 6681TIP3   OH241533   3.354   0.166   2.877  0.0326  0.9082 -0.1854
 6681TIP3    H141534   3.303   0.088   2.859 -1.8151  1.5203  1.9157
 6681TIP3    H241535   3.316   0.234   2.821 -3.0124  1.8396  2.6642
 6682TIP3   OH241536   4.183   2.952  12.044  0.0274  0.0179  0.5784
 6682TIP3    H141537   4.108   2.940  11.986  0.0258  0.8777  0.3876
 6682TIP3    H241538   4.145   2.986  12.125  0.1426 -0.1685  0.7113
 6683TIP3   OH241539   1.839   4.391  11.180  0.7226  0.0953  0.1008
 6683TIP3    H141540   1.758   4.348  11.207  0.0487  0.4097 -1.3093
 6683TIP3    H241541   1.898   4.319  11.157 -0.0863 -0.1432 -1.3736
 6684TIP3   OH241542   3.077   1.437  12.347 -0.0423  0.1855 -0.6450
 6684TIP3    H141543   3.140   1.465  12.413 -1.3562  0.2875  0.6147
 6684TIP3    H241544   3.128   1.432  12.266  1.8351 -0.8087  0.5184
 6685TIP3   OH241545   6.487   0.386   6.274  0.2488  0.0289  0.3980
 6685TIP3    H141546   6.455   0.420   6.358  0.1041 -0.6585  0.6245
 6685TIP3    H241547   6.582   0.398   6.278  0.4153 -1.3659  1.2972
 6686TIP3   OH241548   4.774   2.727   0.456  0.1168 -0.3892  0.5174
 6686TIP3    H141549   4.838   2.770   0.512  0.8166 -1.7655  0.8297
 6686TIP3    H241550   4.745   2.651   0.507  0.0884 -1.1626 -0.6080
 6687TIP3   OH241551   5.765   3.666   0.255 -0.3247 -0.2136  0.0901
 6687TIP3    H141552   5.819   3.611   0.197 -1.0639 -1.1963  0.3186
 6687TIP3    H241553   5.737   3.607   0.325 -1.3259  0.3938  0.2176
 6688TIP3   OH241554   2.673   1.049  13.522  0.4782  0.5057 -0.0901
 6688TIP3    H141555   2.728   1.018  13.594  2.0858  1.3804 -0.8741
 6688TIP3    H241556   2.666   1.143  13.536 -1.0917  0.3781  0.1341
 6689TIP3   OH241557   0.177   4.873   5.338  0.2295  0.6948 -0.0936
 6689TIP3    H141558   0.137   4.959   5.323  2.3963  1.7967  0.0773
 6689TIP3    H241559   0.229   4.885   5.418 -1.7711 -1.6886  1.7268
 6690TIP3   OH241560   4.951   2.109   5.306 -0.1770  0.7230 -0.0141
 6690TIP3    H141561   4.894   2.036   5.327 -0.1362  0.6028 -0.3157
 6690TIP3    H241562   4.910   2.185   5.347 -1.3174  0.8885 -1.3787
 6691TIP3   OH241563   4.059   4.901   0.888 -0.0126 -0.3768  0.8109
 6691TIP3    H141564   4.119   4.860   0.951 -0.8533 -0.7303  1.4076
 6691TIP3    H241565   4.115   4.951   0.830  0.9821 -1.8003  0.5142
 6692TIP3   OH241566   0.326   3.695   3.717  0.4330 -0.3885  0.6901
 6692TIP3    H141567   0.245   3.650   3.693  0.4554  0.2409 -0.6669
 6692TIP3    H241568   0.372   3.634   3.774 -0.0658 -1.6037 -0.1714
 6693TIP3   OH241569   3.660   6.389  15.263  0.5879 -0.1163  0.1976
 6693TIP3    H141570   3.602   6.313  15.266  1.4533 -1.0893 -3.3722
 6693TIP3    H241571   3.731   6.366  15.323 -1.6932  0.3896  3.3600
 6694TIP3   OH241572   4.621   0.432  14.488 -0.4205  0.7087  0.0343
 6694TIP3    H141573   4.598   0.339  14.498 -0.1710  0.8435  2.3918
 6694TIP3    H241574   4.697   0.431  14.430  0.8243 -0.7902  1.5763
 6695TIP3   OH241575   1.421   4.042  12.724 -0.2695  0.3236  0.4004
 6695TIP3    H141576   1.513   4.031  12.751 -0.3895  0.4116  0.8687
 6695TIP3    H241577   1.388   3.953  12.714 -0.1820  0.2889  0.4139
 6696TIP3   OH241578   6.606   1.216   2.085 -0.3176  0.0294 -0.2815
 6696TIP3    H141579   6.650   1.224   2.001  0.1059 -0.5992 -0.1291
 6696TIP3    H241580   6.537   1.283   2.083  0.3090  0.6814 -0.7316
 6697TIP3   OH241581   3.562   1.051  13.331 -0.2518  0.4388 -0.6957
 6697TIP3    H141582   3.467   1.043  13.346 -0.1003  0.5080  0.3481
 6697TIP3    H241583   3.569   1.070  13.238 -1.2650  0.3068 -0.8169
 6698TIP3   OH241584   0.179   1.761   4.068  0.2477  0.4920 -0.2957
 6698TIP3    H141585   0.132   1.710   4.003  0.1006 -1.3786  1.2014
 6698TIP3    H241586   0.251   1.705   4.097  0.4295  1.3382  1.0166
 6699TIP3   OH241587   2.637   4.952   2.834 -0.2386  0.5163 -0.3555
 6699TIP3    H141588   2.542   4.950   2.840 -0.2357  0.1574 -0.3954
 6699TIP3    H241589   2.659   4.872   2.786  0.0985  0.4580 -0.1076
 6700TIP3   OH241590   6.779   2.381  14.944  0.9054  0.1306  0.2164
 6700TIP3    H141591   6.746   2.454  14.997 -1.0681  1.0190 -2.0448
 6700TIP3    H241592   6.866   2.409  14.916  0.1626  1.6698 -0.6440
 6701TIP3   OH241593   4.487   1.916   5.359 -0.6182  0.0279 -0.2726
 6701TIP3    H141594   4.527   1.832   5.382 -0.4996  0.7134  2.3075
 6701TIP3    H241595   4.404   1.892   5.317  0.4845 -1.3579 -1.7877
 6702TIP3   OH241596   0.304   0.202  12.222 -0.4126 -0.3806 -0.4525
 6702TIP3    H141597   0.398   0.212  12.233 -0.2850 -0.7376 -1.2015
 6702TIP3    H241598   0.266   0.267  12.281  0.2924 -0.4746  0.1114
 6703TIP3   OH241599   4.244   0.176  12.097  0.8838  0.2221 -0.0653
 6703TIP3    H141600   4.281   0.108  12.153 -0.4920  0.3121  1.0004
 6703TIP3    H241601   4.152   0.153  12.087  0.5533  1.5238 -0.2850
 6704TIP3   OH241602   5.427   2.373  16.889 -0.1736  0.5813 -0.0457
 6704TIP3    H141603   5.518   2.368  16.858  0.5284 -0.9522  1.9629
 6704TIP3    H241604   5.433   2.420  16.972 -1.5891  2.4080 -0.9315
 6705TIP3   OH241605   3.735   6.725  12.009  0.5868 -0.2145 -0.3506
 6705TIP3    H141606   3.831   6.720  12.011  0.6016  0.3057  0.6968
 6705TIP3    H241607   3.707   6.675  12.085  0.0124 -0.3589 -0.6529
 6706TIP3   OH241608   2.127   3.873   2.843  0.2242  0.5349 -0.4228
 6706TIP3    H141609   2.145   3.803   2.780  0.1959  0.3343 -0.2143
 6706TIP3    H241610   2.039   3.854   2.875  0.1903  0.7063 -0.4150
 6707TIP3   OH241611   3.732   0.712   0.224 -0.0336  0.5943 -0.2511
 6707TIP3    H141612   3.720   0.761   0.142  3.1034 -1.8803 -2.4503
 6707TIP3    H241613   3.811   0.749   0.263 -0.9519  1.0887  1.1992
 6708TIP3   OH241614   3.110   4.435   5.437 -0.3538 -0.8184  0.3240
 6708TIP3    H141615   3.039   4.436   5.501 -0.4230  0.4876  0.2661
 6708TIP3    H241616   3.181   4.388   5.479 -0.2131  0.4558  1.5870
 6709TIP3   OH241617   5.517   3.650   3.066 -0.1092 -0.1129 -0.3974
 6709TIP3    H141618   5.450   3.702   3.111  0.0275 -1.4110  1.4090
 6709TIP3    H241619   5.596   3.662   3.118  0.5489 -0.2273 -1.3410
 6710TIP3   OH241620   5.536   4.845  11.921 -0.7298 -0.6180 -0.1275
 6710TIP3    H141621   5.594   4.779  11.884  1.5525  1.4661 -0.4610
 6710TIP3    H241622   5.553   4.842  12.015  0.4595  0.4346 -0.2922
 6711TIP3   OH241623   6.412   4.297  16.143 -0.3544  0.1772 -0.3495
 6711TIP3    H141624   6.368   4.219  16.110  0.6801 -0.2465 -0.7518
 6711TIP3    H241625   6.489   4.264  16.188  0.6350  1.0006 -1.3799
 6712TIP3   OH241626   0.744   2.476   4.444 -0.1639  0.3239  0.0371
 6712TIP3    H141627   0.788   2.525   4.513  1.7324 -0.4893 -0.5166
 6712TIP3    H241628   0.753   2.384   4.469 -0.4224  0.0730 -0.7313
 6713TIP3   OH241629   4.863   0.431   3.095  0.0340 -0.4185  0.0850
 6713TIP3    H141630   4.878   0.341   3.123  1.3497 -0.9492 -2.0846
 6713TIP3    H241631   4.929   0.447   3.028 -0.4916  2.0102  0.0494
 6714TIP3   OH241632   0.042   0.454  15.620  0.4215 -0.2741 -0.4959
 6714TIP3    H141633   0.040   0.457  15.524 -2.6419  1.0365 -0.5019
 6714TIP3    H241634  -0.012   0.379  15.643 -1.1837  1.0352  0.1561
 6715TIP3   OH241635   4.233   1.262   6.556  0.0448 -0.0907  0.5394
 6715TIP3    H141636   4.224   1.225   6.468 -1.9972  0.4130  0.4799
 6715TIP3    H241637   4.143   1.281   6.583  0.5928 -0.4911  2.8705
 6716TIP3   OH241638   0.082   4.864  13.421  0.1160 -0.0010  0.0504
 6716TIP3    H141639   0.146   4.927  13.453  1.4821 -1.6362  0.6770
 6716TIP3    H241640   0.077   4.880  13.327  0.0660  1.3207  0.2525
 6717TIP3   OH241641   0.863   5.154  14.208 -0.2734 -0.4754 -0.1012
 6717TIP3    H141642   0.935   5.210  14.238  0.7164 -2.2685  1.0244
 6717TIP3    H241643   0.807   5.144  14.285 -1.8631  0.9763 -0.9902
 6718TIP3   OH241644   1.615   4.002   1.788  0.2391 -0.3709 -0.0179
 6718TIP3    H141645   1.605   3.923   1.841 -1.3629  1.2936  2.3050
 6718TIP3    H241646   1.527   4.039   1.782  1.1186  1.8598 -0.0609
 6719TIP3   OH241647   2.234   1.939   2.686 -0.0471 -0.2067  0.3349
 6719TIP3    H141648   2.248   1.974   2.598 -0.0068 -0.9132  0.0585
 6719TIP3    H241649   2.209   1.848   2.672  1.1560 -0.6709  1.1114
 6720TIP3   OH241650   1.863   0.865   0.592  0.3472  0.1701 -0.2145
 6720TIP3    H141651   1.846   0.958   0.580  0.5145  0.3886  1.1563
 6720TIP3    H241652   1.777   0.823   0.583  0.6156  0.0452 -3.8631
 6721TIP3   OH241653   1.092   1.787   2.055 -0.6444 -0.1531  0.3566
 6721TIP3    H141654   1.012   1.789   2.002 -0.2165  0.4641 -0.2896
 6721TIP3    H241655   1.140   1.710   2.023 -0.8752 -0.3941  0.5885
 6722TIP3   OH241656   5.232   4.822  15.433  0.6281 -0.3026  0.0275
 6722TIP3    H141657   5.211   4.893  15.372  0.2564  0.4895  1.0569
 6722TIP3    H241658   5.321   4.841  15.463  1.0945 -1.0924 -0.7883
 6723TIP3   OH241659   5.340   1.352   1.893  0.0301 -0.3795 -0.2286
 6723TIP3    H141660   5.357   1.446   1.884  0.2938 -0.4969 -1.0602
 6723TIP3    H241661   5.412   1.310   1.846 -1.0796 -0.9461 -1.4682
 6724TIP3   OH241662   5.451   4.755   4.051  0.0749  0.5253 -0.0475
 6724TIP3    H141663   5.452   4.793   4.139 -1.5806  0.1487  0.1487
 6724TIP3    H241664   5.383   4.689   4.053  0.5608 -0.0557 -1.3989
 6725TIP3   OH241665   0.412   3.232   6.180 -0.0594 -0.5316 -0.0442
 6725TIP3    H141666   0.506   3.218   6.193 -0.3059 -0.9142  1.5823
 6725TIP3    H241667   0.375   3.143   6.179 -0.6579 -0.3523  1.8435
 6726TIP3   OH241668   2.327   0.157  16.092 -0.5052  0.0276 -0.2109
 6726TIP3    H141669   2.295   0.092  16.154  2.8341 -0.2715  1.4158
 6726TIP3    H241670   2.354   0.105  16.016 -2.4110  0.1577 -1.0480
 6727TIP3   OH241671   4.207   1.332   5.873  0.7561 -0.2438 -0.3096
 6727TIP3    H141672   4.267   1.372   5.809  2.1364  0.1875  1.1851
 6727TIP3    H241673   4.188   1.403   5.934 -0.5374 -0.6570 -0.2051
 6728TIP3   OH241674   1.868   1.860  13.417 -0.1328  0.2618 -0.5871
 6728TIP3    H141675   1.868   1.856  13.512  2.4100  2.0754 -0.4116
 6728TIP3    H241676   1.854   1.953  13.397 -0.2311 -0.0278 -1.9669
 6729TIP3   OH241677   2.964   6.289  14.633 -0.1080 -0.1940  0.1863
 6729TIP3    H141678   2.912   6.350  14.686  2.0843  1.6525  0.4041
 6729TIP3    H241679   2.998   6.225  14.696 -1.2607 -0.8275  0.1933
 6730TIP3   OH241680   0.598   1.114   0.969  0.5071  0.1990 -0.7009
 6730TIP3    H141681   0.657   1.165   1.024  1.4391 -0.3818 -1.1228
 6730TIP3    H241682   0.652   1.042   0.936 -0.6620 -0.8603 -0.4195
 6731TIP3   OH241683   4.482   4.068   0.125  0.2900 -0.7603 -0.7603
 6731TIP3    H141684   4.471   4.132   0.195 -2.9425 -0.3658 -1.4808
 6731TIP3    H241685   4.555   4.014   0.153  1.6943  1.8250  0.9554
 6732TIP3   OH241686   0.429   5.811   0.142  0.0458 -0.1769  0.2387
 6732TIP3    H141687   0.354   5.773   0.189  0.2738 -0.2320  0.5609
 6732TIP3    H241688   0.398   5.819   0.052 -0.7804  0.9597  0.5939
 6733TIP3   OH241689   1.764   2.832   4.081 -0.6273  1.0279 -0.2228
 6733TIP3    H141690   1.814   2.836   3.999 -1.7559  1.2808 -0.9215
 6733TIP3    H241691   1.786   2.747   4.118 -0.2979  0.7978 -0.9273
 6734TIP3   OH241692   6.110   5.306  13.078  0.5434 -0.2677  0.0911
 6734TIP3    H141693   6.106   5.386  13.026  1.9102  0.0799  0.4992
 6734TIP3    H241694   6.020   5.294  13.109 -0.1408 -0.0629 -1.6873
 6735TIP3   OH241695   5.479   4.262   5.122  0.1617  0.6405  0.0541
 6735TIP3    H141696   5.437   4.180   5.147  1.4550 -0.0136  0.1467
 6735TIP3    H241697   5.407   4.325   5.115 -0.5534  0.2534  2.8595
 6736TIP3   OH241698   6.040   4.552  15.173 -0.2710 -0.0309  0.2933
 6736TIP3    H141699   5.989   4.496  15.114 -0.7518  0.3888  0.3024
 6736TIP3    H241700   5.977   4.617  15.203  0.8071  1.9540 -1.5157
 6737TIP3   OH241701   4.025   1.052   2.625 -0.6489 -0.3313  0.2714
 6737TIP3    H141702   4.092   1.066   2.692 -1.1344 -0.9380  0.8900
 6737TIP3    H241703   3.945   1.087   2.663 -0.7277  0.2849 -0.4213
 6738TIP3   OH241704   1.175   5.427  15.744 -0.2276 -0.3652 -0.1733
 6738TIP3    H141705   1.109   5.495  15.732  0.7261  0.3686 -1.5264
 6738TIP3    H241706   1.250   5.457  15.693 -0.2256 -3.0584 -1.9228
 6739TIP3   OH241707   3.840   4.726   3.988 -0.2900  0.0543 -0.3207
 6739TIP3    H141708   3.879   4.650   3.944 -0.8245 -0.4108 -0.0044
 6739TIP3    H241709   3.863   4.715   4.080  1.6726  1.5446 -0.5622
 6740TIP3   OH241710   3.377   4.891   2.289 -0.0898 -0.1873  0.0800
 6740TIP3    H141711   3.304   4.848   2.334 -1.0465  0.9408 -0.3648
 6740TIP3    H241712   3.380   4.850   2.203  0.3443 -0.8021  0.3742
 6741TIP3   OH241713   6.450   2.086  16.639 -0.5499 -0.1709 -0.2306
 6741TIP3    H141714   6.425   2.145  16.567  2.2038  2.4639  0.7140
 6741TIP3    H241715   6.449   2.142  16.717  1.1637 -1.6421  0.9258
 6742TIP3   OH241716   3.751   4.126  14.900 -0.0786 -0.0261 -0.3840
 6742TIP3    H141717   3.829   4.080  14.872 -0.1678 -0.9193  0.7618
 6742TIP3    H241718   3.684   4.100  14.837  0.2713 -0.1569 -0.7056
 6743TIP3   OH241719   0.797   0.191   4.495  0.0966  0.0085  0.3301
 6743TIP3    H141720   0.705   0.207   4.474  0.2020 -1.3299 -1.4166
 6743TIP3    H241721   0.823   0.121   4.436  1.9699 -0.3848  1.5253
 6744TIP3   OH241722   1.550   6.574   0.760 -0.1623  0.5543  0.4764
 6744TIP3    H141723   1.611   6.554   0.689 -0.9045 -1.9383  0.4421
 6744TIP3    H241724   1.605   6.602   0.833  1.1270 -1.7381  0.4944
 6745TIP3   OH241725   5.687   0.706   4.177 -0.3248 -0.1073 -1.1109
 6745TIP3    H141726   5.733   0.659   4.108  2.0974 -1.8425  1.4723
 6745TIP3    H241727   5.751   0.715   4.248 -2.7108  1.2935  1.0599
 6746TIP3   OH241728   3.796   1.609   5.339  0.3707 -0.2284  0.8825
 6746TIP3    H141729   3.857   1.547   5.379  1.4465 -0.4599 -1.0001
 6746TIP3    H241730   3.831   1.624   5.251 -1.4502  0.8500  0.2841
 6747TIP3   OH241731   2.458   5.421  12.676 -0.0648  0.5739  0.0006
 6747TIP3    H141732   2.438   5.514  12.663  3.0011  1.1449 -1.3842
 6747TIP3    H241733   2.535   5.420  12.732 -0.0948 -1.1618  0.0543
 6748TIP3   OH241734   1.151   3.783   0.905 -0.0052 -0.2036  0.4403
 6748TIP3    H141735   1.182   3.723   0.837 -0.7788 -0.3284  0.1862
 6748TIP3    H241736   1.077   3.829   0.865  1.3338  1.8654  0.1941
 6749TIP3   OH241737   6.529   4.191   3.583 -0.1795  0.0587 -0.4906
 6749TIP3    H141738   6.488   4.198   3.497  0.5344 -1.3749 -0.9728
 6749TIP3    H241739   6.613   4.148   3.567  0.0071 -0.1484  0.9030
 6750TIP3   OH241740   1.365   4.559  11.999 -0.0937  0.0475  0.4809
 6750TIP3    H141741   1.414   4.477  12.001  0.0201  0.0086 -1.6785
 6750TIP3    H241742   1.284   4.539  12.046  1.0686 -0.4588  2.3644
 6751TIP3   OH241743   0.871   4.737   6.114 -0.3304  0.0587 -0.9771
 6751TIP3    H141744   0.878   4.813   6.171  0.7275  0.5900 -1.7840
 6751TIP3    H241745   0.955   4.692   6.124 -0.3480 -0.1427 -1.6777
 6752TIP3   OH241746   2.381   4.074   6.052  0.4273  0.2531 -0.1258
 6752TIP3    H141747   2.324   4.129   5.998 -0.3567 -0.6328 -0.2241
 6752TIP3    H241748   2.433   4.136   6.103 -1.2377  1.1045  0.6191
 6753TIP3   OH241749   2.405   6.061   4.655 -0.5743  0.1089  0.1938
 6753TIP3    H141750   2.426   5.994   4.720  1.2550 -0.5142 -0.9798
 6753TIP3    H241751   2.312   6.046   4.635 -1.0596  0.0146  2.2610
 6754TIP3   OH241752   3.071   1.035   5.654 -0.0385  0.0808 -0.0746
 6754TIP3    H141753   3.064   1.014   5.561 -0.5553 -1.5345  0.3013
 6754TIP3    H241754   3.011   0.975   5.697  1.3865 -0.3422  1.4486
 6755TIP3   OH241755   3.594   1.232  14.165 -0.4018  0.1419 -0.0996
 6755TIP3    H141756   3.590   1.208  14.072  1.3835 -0.2075 -0.1200
 6755TIP3    H241757   3.505   1.217  14.197 -0.2896 -3.0919 -0.9644
 6756TIP3   OH241758   2.007   4.488  11.851  0.5917 -0.4732  0.3585
 6756TIP3    H141759   2.081   4.439  11.888  1.3748  0.6071  0.2612
 6756TIP3    H241760   2.014   4.474  11.757 -0.1969 -1.5412  0.4352
 6757TIP3   OH241761   3.812   1.640   3.112 -0.4923 -0.1205  0.4645
 6757TIP3    H141762   3.797   1.659   3.019 -0.8771  2.9466  1.0578
 6757TIP3    H241763   3.908   1.641   3.121 -0.4653 -0.0020  0.1789
 6758TIP3   OH241764   0.909   3.776  12.736  0.0909 -0.1736  0.0320
 6758TIP3    H141765   0.859   3.817  12.665 -1.7788  0.3408  1.5643
 6758TIP3    H241766   0.996   3.815  12.729  0.2981 -0.9091 -2.5789
 6759TIP3   OH241767   1.917   0.856  13.045  0.5545 -0.2907  0.3323
 6759TIP3    H141768   1.961   0.882  12.965  0.1440  2.2492  0.8136
 6759TIP3    H241769   1.984   0.812  13.097  1.1629 -0.8066 -0.8544
 6760TIP3   OH241770   5.407   5.622  12.096  0.3447  0.0120 -0.7519
 6760TIP3    H141771   5.373   5.705  12.063 -1.8967 -0.5906 -0.1524
 6760TIP3    H241772   5.329   5.568  12.109  1.7486 -2.3314 -1.4334
 6761TIP3   OH241773   6.461   1.978  15.548  0.1112 -0.1201  0.0709
 6761TIP3    H141774   6.485   1.896  15.503 -0.2016 -0.1365 -0.0695
 6761TIP3    H241775   6.529   1.990  15.614 -0.3448 -0.9897  0.7147
 6762TIP3   OH241776   3.970   2.046   4.662  0.2260  0.3433 -0.3333
 6762TIP3    H141777   4.029   2.091   4.601  1.9700  0.3009  1.2393
 6762TIP3    H241778   4.013   1.962   4.680 -2.1261 -1.3362 -1.8850
 6763TIP3   OH241779   1.947   2.786   4.919 -0.6272  0.2910 -0.0956
 6763TIP3    H141780   1.920   2.702   4.881 -0.9877  0.8989 -1.2372
 6763TIP3    H241781   2.040   2.793   4.898  0.2675 -1.2285  2.7568
 6764TIP3   OH241782   3.234   6.096   3.372  0.3300 -0.0421  0.7978
 6764TIP3    H141783   3.234   6.001   3.370  0.3563 -0.0826  2.0804
 6764TIP3    H241784   3.153   6.121   3.328  0.3546 -0.6541  0.3994
 6765TIP3   OH241785   1.052   2.434   3.600 -0.2339  0.2463  0.0377
 6765TIP3    H141786   1.044   2.450   3.694  0.8003 -0.4975  0.2714
 6765TIP3    H241787   1.115   2.362   3.593 -1.5889 -0.9025 -1.1317
 6766TIP3   OH241788   3.834   5.453   5.368 -0.0065  0.2648 -0.0405
 6766TIP3    H141789   3.883   5.531   5.344  1.9389 -0.6009  0.8725
 6766TIP3    H241790   3.836   5.398   5.290  1.4146 -0.1868  0.2905
 6767TIP3   OH241791   3.528   6.789  12.582 -0.0911 -0.1319  0.4371
 6767TIP3    H141792   3.490   6.816  12.666 -1.0168  0.0115 -0.0176
 6767TIP3    H241793   3.485   6.705  12.563  1.1427 -0.8597  0.7667
 6768TIP3   OH241794   2.585   5.750  10.271 -0.1581  0.6439  0.3096
 6768TIP3    H141795   2.528   5.818  10.235  0.3819  0.8004 -0.2674
 6768TIP3    H241796   2.653   5.738  10.205  1.6411  1.9086  1.8482
 6769TIP3   OH241797   5.012   5.581  13.556 -0.1930  0.1207 -0.0471
 6769TIP3    H141798   5.055   5.661  13.524 -1.1323  1.0680  1.0158
 6769TIP3    H241799   4.954   5.555  13.484  0.6059  0.0013 -0.6631
 6770TIP3   OH241800   1.542   0.449  12.188 -0.0777  0.0643  0.7449
 6770TIP3    H141801   1.636   0.468  12.199 -0.5591  2.5480  1.0741
 6770TIP3    H241802   1.528   0.452  12.093  0.1793 -0.4462  0.6850
 6771TIP3   OH241803   4.836   1.259  11.103  0.0127 -0.9355 -0.0746
 6771TIP3    H141804   4.884   1.268  11.186 -1.5673 -0.1937  0.7884
 6771TIP3    H241805   4.895   1.208  11.048  0.9777 -1.7365  1.6076
 6772TIP3   OH241806   2.450   1.980   5.999 -0.2044  0.1888 -0.2061
 6772TIP3    H141807   2.476   1.943   6.083 -1.4064 -0.3948 -0.0642
 6772TIP3    H241808   2.357   2.004   6.011  0.3807  2.9452 -0.4064
 6773TIP3   OH241809   2.332   5.352  13.553  0.7028  0.1889  0.0771
 6773TIP3    H141810   2.407   5.401  13.516  0.7937 -0.6469 -0.8982
 6773TIP3    H241811   2.262   5.417  13.559  0.7792  0.4360 -1.3367
 6774TIP3   OH241812   1.206   2.085  12.523 -0.0291  0.2600 -0.1470
 6774TIP3    H141813   1.192   2.157  12.461 -0.1917  0.7001  0.3954
 6774TIP3    H241814   1.233   2.011  12.468 -2.8162 -0.1573 -1.0670
 6775TIP3   OH241815   1.333   1.842   4.386 -0.2919 -0.5158 -0.6348
 6775TIP3    H141816   1.322   1.832   4.481  0.1228  2.6283 -0.1322
 6775TIP3    H241817   1.274   1.777   4.348 -0.8599 -1.5254  1.7687
 6776TIP3   OH241818   5.797   4.950   3.639 -0.2322 -0.0194 -0.5134
 6776TIP3    H141819   5.778   4.862   3.671  0.8586 -0.0058  0.2231
 6776TIP3    H241820   5.887   4.945   3.607  0.1550  1.0326  0.3413
 6777TIP3   OH241821   6.228   0.555   3.108 -0.1862 -0.1373 -0.5379
 6777TIP3    H141822   6.273   0.485   3.060 -1.0255 -0.7454 -0.4606
 6777TIP3    H241823   6.158   0.510   3.156  0.7775  0.4102  1.4972
 6778TIP3   OH241824   4.960   4.248   4.373 -0.2580  0.3940 -0.8025
 6778TIP3    H141825   4.904   4.188   4.422 -0.5082  0.4833 -0.9807
 6778TIP3    H241826   4.916   4.260   4.289 -0.4751  1.2239 -0.5806
 6779TIP3   OH241827   1.553   5.955   5.886  0.3106 -0.5190  0.0570
 6779TIP3    H141828   1.627   5.903   5.919  1.0630 -0.3782 -1.3376
 6779TIP3    H241829   1.486   5.946   5.953  1.1557 -1.6555  0.7894
 6780TIP3   OH241830   2.429   2.819  13.741  0.0696 -0.5030  0.3255
 6780TIP3    H141831   2.474   2.904  13.745  0.3540 -0.6225 -0.2944
 6780TIP3    H241832   2.372   2.826  13.665 -0.1623 -0.7465  0.4774
 6781TIP3   OH241833   4.091   3.975   4.110 -0.4768  0.2352  0.1005
 6781TIP3    H141834   4.156   3.914   4.145 -1.2952 -1.0329 -0.5168
 6781TIP3    H241835   4.020   3.919   4.078 -1.8098  1.5642  0.5883
 6782TIP3   OH241836   3.256   3.306   2.839  0.1860 -0.1673 -0.7213
 6782TIP3    H141837   3.256   3.397   2.810 -1.1297  0.2508  0.4830
 6782TIP3    H241838   3.334   3.268   2.798  0.8620  1.5332 -1.1066
 6783TIP3   OH241839   3.919   6.807  13.872 -0.0413 -0.8043 -0.7242
 6783TIP3    H141840   3.852   6.746  13.840 -0.2212 -1.1402  0.2751
 6783TIP3    H241841   3.996   6.752  13.887 -0.0541 -0.7050 -0.2854
 6784TIP3   OH241842   6.587   5.805  12.672  0.2743 -0.6883 -0.1824
 6784TIP3    H141843   6.552   5.777  12.757 -0.2628 -1.2263 -0.5682
 6784TIP3    H241844   6.665   5.751  12.660  1.1048  0.3104  0.5487
 6785TIP3   OH241845   6.801   6.032  15.547 -0.3669  0.2342 -0.3404
 6785TIP3    H141846   6.850   6.106  15.582  1.0113 -0.8389  0.0587
 6785TIP3    H241847   6.865   5.981  15.498 -1.3937 -0.4825 -0.9929
 6786TIP3   OH241848   2.643   2.387   3.986  0.2517  0.2388 -0.2770
 6786TIP3    H141849   2.697   2.322   4.032 -2.1008  1.0558  4.2712
 6786TIP3    H241850   2.561   2.342   3.968  0.1082  0.7913 -1.0506
 6787TIP3   OH241851   4.135   5.729  13.957  0.4629 -0.1740 -0.2429
 6787TIP3    H141852   4.193   5.805  13.959 -1.6240  1.4915  0.2198
 6787TIP3    H241853   4.071   5.749  13.889 -0.8946 -0.8848  0.7888
 6788TIP3   OH241854   4.483   3.518  10.469 -0.0917  0.2105 -0.0168
 6788TIP3    H141855   4.531   3.445  10.430 -1.6583 -0.8387 -0.0360
 6788TIP3    H241856   4.517   3.595  10.422  1.8260 -0.4145  0.2394
 6789TIP3   OH241857   3.136   2.029   1.525  0.2165 -0.0655  0.3327
 6789TIP3    H141858   3.198   2.036   1.597 -1.5255  1.3502  1.7975
 6789TIP3    H241859   3.061   2.081   1.553 -0.6250  0.3844 -2.4525
 6790TIP3   OH241860   1.527   4.046   4.128  0.0816 -0.7865 -0.5891
 6790TIP3    H141861   1.507   4.095   4.049  0.9302  0.6777  0.0678
 6790TIP3    H241862   1.610   4.002   4.108  1.5834  1.4977  0.2390
 6791TIP3   OH241863   0.752   4.818  12.129  0.3016  0.2772 -0.2768
 6791TIP3    H141864   0.822   4.827  12.064 -0.4714  0.5977 -1.0772
 6791TIP3    H241865   0.798   4.809  12.213  1.4408 -3.5771 -1.1637
 6792TIP3   OH241866   3.591   5.045   2.218  0.0901  0.4306  0.1813
 6792TIP3    H141867   3.556   5.075   2.134 -0.5664  2.2948  1.0546
 6792TIP3    H241868   3.521   4.990   2.255  1.2239 -2.2338 -1.3441
 6793TIP3   OH241869   2.680   2.114  15.693  0.6915  0.3352 -0.2157
 6793TIP3    H141870   2.627   2.150  15.623 -0.1748 -3.0172 -1.4632
 6793TIP3    H241871   2.617   2.093  15.763  1.0002  0.2112  0.0285
 6794TIP3   OH241872   3.358   6.590  12.478 -0.5153 -0.0301  0.0936
 6794TIP3    H141873   3.324   6.676  12.452  0.4736  0.5524  0.6259
 6794TIP3    H241874   3.292   6.553  12.536 -0.0711  1.2848  1.5100
 6795TIP3   OH241875   2.924   6.624  14.944 -0.1708  0.1227  0.0646
 6795TIP3    H141876   2.897   6.713  14.920  2.3229  0.6639 -1.0204
 6795TIP3    H241877   2.977   6.636  15.023  0.8078 -0.2904 -0.5223
 6796TIP3   OH241878   2.935   2.568   5.081 -0.1538  0.3664 -0.2963
 6796TIP3    H141879   2.988   2.604   5.009  0.4273  0.9718  0.4260
 6796TIP3    H241880   2.915   2.643   5.136  0.1597 -0.2416  0.6556
 6797TIP3   OH241881   1.785   5.249   3.093  0.6147  0.0282 -0.4500
 6797TIP3    H141882   1.747   5.226   3.178  0.3128 -0.4961 -0.7199
 6797TIP3    H241883   1.709   5.258   3.035  0.7742  0.9719 -0.5371
 6798TIP3   OH241884   6.612   5.414   1.664 -0.4780  0.6257  0.4129
 6798TIP3    H141885   6.541   5.435   1.603  1.0933  1.0544 -1.3635
 6798TIP3    H241886   6.568   5.398   1.748 -2.8035 -0.5336 -0.9224
 6799TIP3   OH241887   4.130   6.358   0.978 -0.1906 -0.1259  0.7819
 6799TIP3    H141888   4.160   6.385   0.891 -2.0681 -0.5398 -0.0532
 6799TIP3    H241889   4.210   6.343   1.028  0.9623 -1.0919 -1.2578
 6800TIP3   OH241890   1.739   2.571   6.479  0.2965 -0.1017  0.2945
 6800TIP3    H141891   1.770   2.588   6.568 -0.9587 -0.4176  0.8160
 6800TIP3    H241892   1.652   2.611   6.476 -0.1093 -1.0097 -0.4500
 6801TIP3   OH241893   0.950   2.854   1.118  0.0823  0.0803  0.1156
 6801TIP3    H141894   1.030   2.824   1.162 -0.0498  0.1555  0.4119
 6801TIP3    H241895   0.962   2.948   1.109  0.3971 -0.0274 -0.6079
 6802TIP3   OH241896   4.440   0.960   4.840  0.4522 -0.1579 -0.0709
 6802TIP3    H141897   4.394   0.974   4.923 -0.2762 -0.2236 -0.4506
 6802TIP3    H241898   4.377   0.988   4.773  0.1595 -2.2412 -0.7164
 6803TIP3   OH241899   3.023   5.772   2.367  0.1006 -0.0439 -0.2678
 6803TIP3    H141900   2.954   5.838   2.372 -0.0704 -0.3120  1.3144
 6803TIP3    H241901   3.007   5.727   2.284 -0.4559  1.1546 -0.8287
 6804TIP3   OH241902   5.643   2.804  16.976 -0.2935 -0.2579 -0.4852
 6804TIP3    H141903   5.557   2.830  17.008  0.5032  0.7120  0.9818
 6804TIP3    H241904   5.649   2.844  16.889 -0.2968  2.0346  0.4925
 6805TIP3   OH241905   0.934   5.420  15.561 -0.5208  0.3194  0.0152
 6805TIP3    H141906   0.916   5.447  15.651 -0.4717 -2.0447  0.8156
 6805TIP3    H241907   0.952   5.501  15.515 -1.8029  1.7293  1.8324
 6806TIP3   OH241908   2.496   6.059  12.903 -0.3062  0.5026  0.2637
 6806TIP3    H141909   2.546   6.123  12.852 -1.0630  2.4964  1.9263
 6806TIP3    H241910   2.418   6.042  12.850  0.8412 -0.6956 -1.1462
 6807TIP3   OH241911   6.516   2.111   2.152  0.0121  0.3861  0.8572
 6807TIP3    H141912   6.523   2.020   2.181 -0.0694  0.0275 -0.1815
 6807TIP3    H241913   6.606   2.138   2.135 -0.0832 -1.0155 -3.0972
 6808TIP3   OH241914   5.723   4.755  16.373  0.3113  0.4401  0.0771
 6808TIP3    H141915   5.648   4.763  16.315 -0.8508 -0.1471  1.4335
 6808TIP3    H241916   5.751   4.664  16.363 -1.8818 -0.6667  2.6373
 6809TIP3   OH241917   3.847   6.550   3.516  1.1263  0.4139  0.2509
 6809TIP3    H141918   3.878   6.634   3.549 -0.7520  0.6055  1.7470
 6809TIP3    H241919   3.833   6.497   3.595  1.1205 -0.8800 -0.5847
 6810TIP3   OH241920   3.773   0.680  14.622  0.0181 -0.1532  0.0015
 6810TIP3    H141921   3.692   0.729  14.605 -0.2159 -0.3415  0.5535
 6810TIP3    H241922   3.750   0.589  14.609  0.5502 -0.1176 -1.3921
 6811TIP3   OH241923   4.218   4.187   0.922  0.0103  0.8545  0.0116
 6811TIP3    H141924   4.218   4.128   0.997 -2.0064 -0.5335 -0.9818
 6811TIP3    H241925   4.140   4.242   0.935  0.6133  1.7692 -0.2104
 6812TIP3   OH241926   0.544   1.720   2.720  0.1942 -0.5658  0.0901
 6812TIP3    H141927   0.527   1.744   2.811 -1.9552  1.7983 -0.8387
 6812TIP3    H241928   0.633   1.751   2.704 -0.0135  0.5273  0.9350
 6813TIP3   OH241929   0.558   1.316   5.183  0.0322 -0.0305 -0.3395
 6813TIP3    H141930   0.519   1.345   5.101 -0.2805  3.0936  0.8001
 6813TIP3    H241931   0.621   1.249   5.156 -0.8449  0.0710 -2.9771
 6814TIP3   OH241932   5.278   0.280   3.578 -0.1374 -0.2500  0.6532
 6814TIP3    H141933   5.360   0.327   3.562 -0.2857 -0.6058 -1.5343
 6814TIP3    H241934   5.256   0.300   3.669  1.5594  1.1177  0.8232
 6815TIP3   OH241935   0.686   1.621   5.047  0.3316 -0.7750 -0.3686
 6815TIP3    H141936   0.590   1.611   5.048  0.2060  0.3114  1.0152
 6815TIP3    H241937   0.702   1.682   4.975 -0.0806 -0.4127 -0.1597
 6816TIP3   OH241938   3.944   0.913   0.296 -0.2372  0.2050 -0.6451
 6816TIP3    H141939   4.024   0.867   0.320 -0.9695 -0.0955  1.4100
 6816TIP3    H241940   3.974   0.996   0.258  1.0433 -0.6626 -1.5679
 6817TIP3   OH241941   1.106   1.917  15.139 -0.5565 -0.3654  0.6555
 6817TIP3    H141942   1.170   1.907  15.208  1.2025  2.6727 -0.3538
 6817TIP3    H241943   1.127   1.848  15.076  1.7694  0.5022  0.3858
 6818TIP3   OH241944   5.356   3.748  13.825  0.1398 -0.0330  0.0589
 6818TIP3    H141945   5.282   3.734  13.884  0.3752 -1.1238  0.1054
 6818TIP3    H241946   5.433   3.722  13.876  0.7795  2.5014  0.5593
 6819TIP3   OH241947   4.787   0.779   3.662 -0.1649  0.3481  0.3524
 6819TIP3    H141948   4.707   0.798   3.710 -0.6288  0.7960 -0.5718
 6819TIP3    H241949   4.764   0.792   3.570  0.7944 -0.1455  0.0258
 6820TIP3   OH241950   2.276   3.384  12.003  0.4862 -0.4145  0.3224
 6820TIP3    H141951   2.182   3.396  12.020  0.5736  0.0134  0.5037
 6820TIP3    H241952   2.313   3.471  12.010  0.1788  0.4147 -4.5182
 6821TIP3   OH241953   5.634   1.733  14.299  0.3860 -0.3117  0.3389
 6821TIP3    H141954   5.730   1.728  14.292  0.3218 -3.9093  0.2109
 6821TIP3    H241955   5.608   1.787  14.224  2.2553 -0.0678 -0.1981
 6822TIP3   OH241956   5.916   5.359   1.829  0.1075 -0.1791  0.3975
 6822TIP3    H141957   5.874   5.363   1.743  0.8353 -1.6554 -0.0589
 6822TIP3    H241958   5.970   5.438   1.832 -0.4477  0.2390 -0.2119
 6823TIP3   OH241959   2.948   6.753  11.261  0.0580  0.3200  0.7283
 6823TIP3    H141960   2.983   6.755  11.172  1.3406  0.3182  1.2101
 6823TIP3    H241961   2.940   6.660  11.283  0.8110  0.3123  1.0026
 6824TIP3   OH241962   4.542   5.973  15.226 -0.3111  0.6805 -0.1924
 6824TIP3    H141963   4.622   5.985  15.174  0.0443  0.2163  0.2355
 6824TIP3    H241964   4.472   6.006  15.170 -0.1337 -1.1750 -1.5940
 6825TIP3   OH241965   2.166   3.560   5.876  0.1577 -0.1243 -0.3411
 6825TIP3    H141966   2.080   3.602   5.878  0.4994  0.5771  0.7442
 6825TIP3    H241967   2.147   3.469   5.855 -0.9123 -0.0853  0.3529
 6826TIP3   OH241968   3.710   6.503  10.930  0.2037  0.1656 -0.2171
 6826TIP3    H141969   3.648   6.560  10.977  0.4520  1.7684 -1.7372
 6826TIP3    H241970   3.718   6.543  10.843  0.0686 -2.4627 -1.5246
 6827TIP3   OH241971   0.798   1.585   0.773 -0.2662  0.0373  0.4866
 6827TIP3    H141972   0.819   1.631   0.692  2.5120  0.1015  1.1364
 6827TIP3    H241973   0.793   1.493   0.747 -0.8393  0.1896  0.0279
 6828TIP3   OH241974   6.302   0.844  12.525  0.0748 -0.0193 -0.6103
 6828TIP3    H141975   6.262   0.895  12.596 -0.8604  0.3565 -1.3876
 6828TIP3    H241976   6.348   0.909  12.472  1.7577 -0.4414  0.2573
 6829TIP3   OH241977   3.541   3.133  15.150  0.0837 -0.3767  0.4016
 6829TIP3    H141978   3.509   3.116  15.239 -1.7403 -0.2623 -0.1928
 6829TIP3    H241979   3.503   3.217  15.127  1.0895 -0.0931 -0.2646
 6830TIP3   OH241980   6.197   5.227  12.737 -0.0979  0.2763 -0.0584
 6830TIP3    H141981   6.108   5.260  12.744 -0.1704  0.9843 -3.0574
 6830TIP3    H241982   6.187   5.132  12.733 -0.2842 -0.0026  3.4824
 6831TIP3   OH241983   1.218   4.058  13.053 -0.2359  0.2871  0.2068
 6831TIP3    H141984   1.190   3.997  13.121 -0.4826 -1.5321 -1.4389
 6831TIP3    H241985   1.143   4.115  13.039 -1.4358 -1.4693 -0.8177
 6832TIP3   OH241986   4.784   1.873   3.135 -0.0256 -0.4761 -0.1306
 6832TIP3    H141987   4.861   1.930   3.147  0.0827  0.0253 -2.6800
 6832TIP3    H241988   4.822   1.787   3.120 -0.0227 -0.4830 -0.0850
 6833TIP3   OH241989   6.643   0.444   1.496 -0.3778  0.2503  0.0492
 6833TIP3    H141990   6.609   0.418   1.410  0.0246  0.6250 -0.2278
 6833TIP3    H241991   6.738   0.435   1.487 -0.4015 -1.3220  0.9869
 6834TIP3   OH241992   6.174   2.514  11.088 -0.5727  0.2329  0.2919
 6834TIP3    H141993   6.110   2.525  11.018 -1.2603  0.0765  0.8838
 6834TIP3    H241994   6.254   2.485  11.043 -1.1103 -0.2352 -0.3890
 6835TIP3   OH241995   2.883   3.844  13.335 -0.1404 -0.2724 -0.0141
 6835TIP3    H141996   2.920   3.791  13.406  1.2905 -0.7992 -1.1081
 6835TIP3    H241997   2.956   3.898  13.304 -0.6641 -0.2486 -1.2563
 6836TIP3   OH241998   3.518   1.804  12.152  0.4411  0.5477  0.7609
 6836TIP3    H141999   3.460   1.879  12.139  1.0225  1.0280  0.8618
 6836TIP3    H242000   3.514   1.756  12.069 -0.0420  0.6099  0.7446
 6837TIP3   OH242001   1.597   3.006  12.897  0.0586  0.5220 -0.0580
 6837TIP3    H142002   1.648   3.087  12.882 -0.2233  0.9532  1.1949
 6837TIP3    H242003   1.664   2.938  12.903  0.2336  0.3613 -2.6185
 6838TIP3   OH242004   3.566   3.511   4.418  0.5953  0.0897  0.5441
 6838TIP3    H142005   3.473   3.532   4.416  0.4745 -0.2772  1.9226
 6838TIP3    H242006   3.599   3.557   4.495  1.5967  0.3356 -0.0132
 6839TIP3   OH242007   0.798   1.185  11.191 -0.4607 -0.8325  0.1731
 6839TIP3    H142008   0.869   1.173  11.128 -0.2375  0.8606  0.0573
 6839TIP3    H242009   0.821   1.128  11.265  3.0570  2.2716  1.8067
 6840TIP3   OH242010   2.282   3.914  13.697  0.6907  0.1474  0.7675
 6840TIP3    H142011   2.362   3.903  13.749 -0.2794 -0.0401  2.3049
 6840TIP3    H242012   2.280   3.838  13.639  2.4132  0.9677 -0.4606
 6841TIP3   OH242013   5.009   3.016  13.796  0.1167  0.1209  0.0135
 6841TIP3    H142014   4.974   3.089  13.847 -0.7078  0.6622 -1.2677
 6841TIP3    H242015   4.982   2.938  13.844  0.0083  0.6338  0.7993
 6842TIP3   OH242016   1.798   2.073  15.533 -0.3815  0.0247  0.8418
 6842TIP3    H142017   1.739   2.137  15.492 -0.8919 -1.5056 -0.9100
 6842TIP3    H242018   1.739   2.014  15.580 -0.0113  0.0332  1.3219
 6843TIP3   OH242019   2.895   3.403  11.154 -0.4009 -0.2198 -0.0640
 6843TIP3    H142020   2.934   3.356  11.228 -1.7147 -0.6874  0.3606
 6843TIP3    H242021   2.963   3.404  11.087  0.2365 -1.2484  0.5436
 6844TIP3   OH242022   5.112   5.490  13.940 -0.4302 -0.3470  0.1689
 6844TIP3    H142023   5.202   5.516  13.917 -0.8345  1.2278  0.2700
 6844TIP3    H242024   5.064   5.496  13.858 -1.2425  2.5181  0.7462
 6845TIP3   OH242025   1.118   2.517  14.555 -0.1044  0.3083 -0.6075
 6845TIP3    H142026   1.072   2.523  14.638 -0.4557  2.9183 -0.9016
 6845TIP3    H242027   1.206   2.485  14.578 -0.5619 -0.1421  0.5757
 6846TIP3   OH242028   0.753   6.077  11.460 -0.1006  0.2131 -0.3028
 6846TIP3    H142029   0.669   6.032  11.466  0.6315 -1.1874 -0.2974
 6846TIP3    H242030   0.784   6.081  11.550 -0.1839  0.7932 -0.2962
 6847TIP3   OH242031   2.425   5.984   0.223 -0.0797 -0.4249 -0.6014
 6847TIP3    H142032   2.449   5.923   0.293 -0.1623 -0.9739 -1.0476
 6847TIP3    H242033   2.415   5.929   0.145 -3.0654 -0.2903 -0.3986
 6848TIP3   OH242034   0.495   2.564  16.836 -0.3139  0.2846  0.1032
 6848TIP3    H142035   0.511   2.570  16.930  0.0042  0.4450  0.0419
 6848TIP3    H242036   0.583   2.555  16.798 -0.5501 -2.1412 -0.0059
 6849TIP3   OH242037   4.773   3.043   3.650 -0.8267 -0.3514  0.0775
 6849TIP3    H142038   4.826   2.999   3.716 -0.2012 -0.3187 -0.3967
 6849TIP3    H242039   4.716   2.975   3.615 -1.7836 -0.1974  1.2349
 6850TIP3   OH242040   5.415   3.542  12.188  0.6987 -0.0418  0.3022
 6850TIP3    H142041   5.436   3.634  12.205  1.1992 -0.1294  0.1775
 6850TIP3    H242042   5.439   3.529  12.096 -0.7768  0.0899 -0.1313
 6851TIP3   OH242043   6.327   2.935  17.205 -0.4390 -0.0634  0.4795
 6851TIP3    H142044   6.342   2.883  17.284 -0.2120 -0.0221  0.4663
 6851TIP3    H242045   6.411   2.932  17.159 -0.4584  0.2263  0.4257
 6852TIP3   OH242046   1.165   2.139  13.651  0.1814  0.0738 -0.2875
 6852TIP3    H142047   1.141   2.227  13.681  1.6363  0.6393 -0.6626
 6852TIP3    H242048   1.156   2.143  13.556  0.4489 -0.0999 -0.3213
 6853TIP3   OH242049   0.370   1.026  11.675 -1.2373 -0.9006 -0.4877
 6853TIP3    H142050   0.351   1.109  11.631  0.7439  0.4809  1.0567
 6853TIP3    H242051   0.364   1.047  11.769  3.1480 -1.3031  0.0835
 6854TIP3   OH242052   0.473   6.709  13.726  0.1058 -0.0029 -0.4173
 6854TIP3    H142053   0.503   6.773  13.790 -0.1435 -0.1981 -0.1020
 6854TIP3    H242054   0.465   6.628  13.775  0.0840 -0.1977 -0.7379
 6855TIP3   OH242055   3.994   2.973   5.284  0.4577  0.6723  0.1207
 6855TIP3    H142056   3.952   3.059   5.286  3.0907  2.0696 -0.4198
 6855TIP3    H242057   4.073   2.984   5.337  1.0625 -1.3193 -0.3045
 6856TIP3   OH242058   4.828   4.654   1.416  0.5082  0.4801 -0.0825
 6856TIP3    H142059   4.884   4.666   1.340 -0.4390  1.5325 -0.6439
 6856TIP3    H242060   4.888   4.657   1.491  1.2726  0.9366 -0.7012
 6857TIP3   OH242061   4.030   3.120   1.399  0.2406 -0.4700 -0.2012
 6857TIP3    H142062   4.119   3.153   1.386 -0.3224  0.7949 -1.1166
 6857TIP3    H242063   4.042   3.037   1.446  1.8674 -0.1544  0.0239
 6858TIP3   OH242064   2.747   0.028  12.057 -0.4179 -0.4742 -0.0420
 6858TIP3    H142065   2.775  -0.040  11.996 -1.5727  0.8966 -2.2482
 6858TIP3    H242066   2.825   0.049  12.108  0.3998 -2.1969 -0.5114
 6859TIP3   OH242067   0.160   2.977   3.732 -0.4001  0.3124  0.2913
 6859TIP3    H142068   0.173   2.883   3.725 -0.2092  0.4663 -3.1836
 6859TIP3    H242069   0.076   2.993   3.688  0.2948  1.8775 -0.5343
 6860TIP3   OH242070   3.563   4.816   1.803 -0.2556 -0.1804  0.2637
 6860TIP3    H142071   3.629   4.833   1.735  1.8508 -0.1571  2.2178
 6860TIP3    H242072   3.479   4.829   1.758  1.0440  0.6257 -2.1118
 6861TIP3   OH242073   2.664   5.612  15.165 -0.7470  0.4883  0.1737
 6861TIP3    H142074   2.720   5.588  15.239 -0.0498  0.4128 -0.3678
 6861TIP3    H242075   2.598   5.543  15.162 -1.4691  1.1045  1.4281
 6862TIP3   OH242076   4.242   0.330  14.356 -0.3319  0.2392 -0.0718
 6862TIP3    H142077   4.217   0.238  14.350 -1.2631  0.4808 -0.1635
 6862TIP3    H242078   4.249   0.347  14.450 -0.2376  0.0926 -0.0530
 6863TIP3   OH242079   6.487   2.398   5.866  0.3834  0.1394  0.1370
 6863TIP3    H142080   6.426   2.326   5.882 -0.3920  0.9454  0.9088
 6863TIP3    H242081   6.510   2.430   5.953  4.1248 -1.8742  0.1021
 6864TIP3   OH242082   4.045   0.439  14.220  0.5247  0.4844  0.2237
 6864TIP3    H142083   4.098   0.433  14.141  1.2544  0.0921  0.7291
 6864TIP3    H242084   4.096   0.392  14.286 -0.3263  0.3403  0.7911
 6865TIP3   OH242085   5.583   2.612  13.295 -0.0972 -0.4420  0.4566
 6865TIP3    H142086   5.501   2.643  13.257  1.2504  1.2837 -1.2275
 6865TIP3    H242087   5.595   2.665  13.373  0.0128  0.1922  0.0168
 6866TIP3   OH242088   1.512   1.081  11.951  0.1447  0.1317  0.4119
 6866TIP3    H142089   1.524   1.119  12.038 -1.2846  1.3527  0.1196
 6866TIP3    H242090   1.445   1.013  11.963  1.2557 -0.9737  0.5646
 6867TIP3   OH242091   0.657   0.560  11.813 -0.0788  0.3618 -0.0531
 6867TIP3    H142092   0.654   0.655  11.823  1.3518  0.2173  3.1276
 6867TIP3    H242093   0.580   0.539  11.761 -1.2721  3.1408  0.3796
 6868TIP3   OH242094   0.528   4.719  11.970  0.0175  0.6880 -0.2838
 6868TIP3    H142095   0.615   4.757  11.985 -0.3840  1.8831 -0.8544
 6868TIP3    H242096   0.494   4.703  12.058  1.3651 -1.1606 -0.0428
 6869TIP3   OH242097   1.134   3.404  16.758 -0.1809  0.1268  0.3391
 6869TIP3    H142098   1.189   3.447  16.823 -0.8442 -0.1193  1.0826
 6869TIP3    H242099   1.086   3.338  16.808  0.3978 -1.0859 -0.6741
 6870TIP3   OH242100   0.439   3.376  13.135  0.1414  0.5455 -0.2408
 6870TIP3    H142101   0.485   3.452  13.169  2.4004 -0.6691 -0.3727
 6870TIP3    H242102   0.480   3.359  13.050 -1.8164  0.4308 -1.2237
 6871TIP3   OH242103   2.702   2.176   4.560  0.2897 -0.2014  0.3347
 6871TIP3    H142104   2.761   2.143   4.493  0.9998 -0.1533  0.9285
 6871TIP3    H242105   2.759   2.219   4.623 -0.5227  1.2606  0.1046
 6872TIP3   OH242106   1.478   4.060   6.415  0.1171 -0.4800  0.3281
 6872TIP3    H142107   1.451   3.981   6.462 -4.4915  1.2821  1.1596
 6872TIP3    H242108   1.518   4.116   6.482  1.4365 -1.1995  0.1784
 6873TIP3   OH242109   6.048   2.082  16.607 -0.4232  0.1011  1.1394
 6873TIP3    H142110   5.956   2.059  16.616 -0.0214 -1.4878  1.4249
 6873TIP3    H242111   6.047   2.176  16.587 -2.1174 -0.0049  0.5571
 6874TIP3   OH242112   2.259   3.120   1.884 -0.0627  0.4667 -0.2676
 6874TIP3    H142113   2.343   3.152   1.915 -0.1383 -1.9096  2.8121
 6874TIP3    H242114   2.267   3.025   1.886 -2.6113  0.1688 -0.4972
 6875TIP3   OH242115   4.270   1.047   3.723 -0.0869  0.3369 -0.2032
 6875TIP3    H142116   4.291   1.081   3.810  1.2553  0.1947 -0.4403
 6875TIP3    H242117   4.356   1.027   3.685 -0.6034  1.0898 -1.8411
 6876TIP3   OH242118   0.187   6.489   4.637  0.0024  0.5470 -0.2754
 6876TIP3    H142119   0.231   6.433   4.573 -1.5552 -1.1936  0.0958
 6876TIP3    H242120   0.188   6.576   4.596  1.0188 -0.0562 -1.6298
 6877TIP3   OH242121   1.207   6.470  13.315  0.0433  0.1932 -1.0012
 6877TIP3    H142122   1.224   6.492  13.407 -0.2188  2.8096 -1.4906
 6877TIP3    H242123   1.112   6.469  13.307  0.0515 -0.8277 -1.1044
 6878TIP3   OH242124   1.322   4.117  11.955  0.5703  0.2165  0.2629
 6878TIP3    H142125   1.315   4.126  11.860  2.2748  1.7057  0.2196
 6878TIP3    H242126   1.324   4.022  11.970 -1.3202 -0.0815 -1.0010
 6879TIP3   OH242127   5.583   5.784  12.730  0.0825 -0.4266  0.0466
 6879TIP3    H142128   5.676   5.806  12.729 -0.3134  1.5025 -1.1551
 6879TIP3    H242129   5.578   5.698  12.688  1.3437 -0.7571  0.5436
 6880TIP3   OH242130   4.939   0.581  16.045  0.3955  0.4515 -0.8305
 6880TIP3    H142131   5.005   0.635  16.002  1.0296  0.3242 -0.0376
 6880TIP3    H242132   4.966   0.491  16.027  1.6971  0.3425  1.2372
 6881TIP3   OH242133   3.861   5.377   0.107 -0.2619 -0.6354  0.3941
 6881TIP3    H142134   3.857   5.365   0.013  0.4505  0.7891  0.1623
 6881TIP3    H242135   3.946   5.417   0.124 -0.8020  0.1092  1.5167
 6882TIP3   OH242136   3.731   5.337  16.871 -0.5553 -0.2056 -0.0008
 6882TIP3    H142137   3.797   5.338  16.801  0.2261  1.8036  0.6968
 6882TIP3    H242138   3.651   5.306  16.829  0.0097  0.5335 -1.6984
 6883TIP3   OH242139   3.976   3.971   3.095  0.2129  0.0172 -0.0169
 6883TIP3    H142140   3.947   3.950   3.184  0.7853 -2.5400 -0.3624
 6883TIP3    H242141   3.895   3.981   3.045 -0.1096  1.4504  0.7367
 6884TIP3   OH242142   4.172   4.567  12.149  0.0339  0.3282 -0.0023
 6884TIP3    H142143   4.165   4.513  12.228  1.5006 -0.3658 -0.3090
 6884TIP3    H242144   4.223   4.643  12.176  0.7218 -0.0145 -0.3145
 6885TIP3   OH242145   1.683   4.118  13.326 -0.1540 -0.3631  0.2394
 6885TIP3    H142146   1.598   4.081  13.346  0.2567 -0.4153  2.0557
 6885TIP3    H242147   1.745   4.047  13.344  0.4781  0.5388  1.8462
 6886TIP3   OH242148   3.986   6.582   0.896  0.0024 -0.0052 -0.2320
 6886TIP3    H142149   4.042   6.609   0.823  0.9238 -0.3782  0.3250
 6886TIP3    H242150   4.015   6.493   0.916 -2.6346 -1.3345 -1.7249
 6887TIP3   OH242151   2.528   2.893   5.958  0.1909 -0.8537  0.1257
 6887TIP3    H142152   2.494   2.944   6.031  0.6020 -1.0570  0.4596
 6887TIP3    H242153   2.612   2.933   5.937 -0.9842  0.7755 -1.8610
 6888TIP3   OH242154   4.583   6.829  15.688 -0.3824  0.1547 -0.2065
 6888TIP3    H142155   4.591   6.820  15.593  0.9764  1.8167 -0.2819
 6888TIP3    H242156   4.495   6.866  15.701 -1.5793 -2.3237 -0.5808
 6889TIP3   OH242157   1.627   2.241  15.423 -0.0688 -0.5861  0.3810
 6889TIP3    H142158   1.549   2.185  15.422 -1.5466  1.3389  1.9897
 6889TIP3    H242159   1.659   2.237  15.333 -1.8862 -1.6022 -0.2805
 6890TIP3   OH242160   5.056   5.755  14.627  0.1639 -0.3552  0.0045
 6890TIP3    H142161   5.070   5.712  14.543  2.5067  1.0029 -0.3957
 6890TIP3    H242162   5.093   5.843  14.616  0.8059 -0.2229  2.5222
 6891TIP3   OH242163   0.822   5.477   3.546 -0.0127 -0.1545 -0.2561
 6891TIP3    H142164   0.849   5.565   3.572 -0.7784 -0.2133  0.7688
 6891TIP3    H242165   0.797   5.487   3.454  3.1415 -0.0456 -1.2565
 6892TIP3   OH242166   2.572   3.591  16.174  0.2686  0.3242 -0.4518
 6892TIP3    H142167   2.565   3.684  16.151  0.3532 -0.0160 -1.9349
 6892TIP3    H242168   2.571   3.591  16.270  0.4534  1.8631 -0.4124
 6893TIP3   OH242169   5.458   5.698   2.443 -0.1667 -0.1363 -0.4177
 6893TIP3    H142170   5.506   5.768   2.399 -0.7344  0.4654 -0.0961
 6893TIP3    H242171   5.511   5.620   2.428  0.9635  0.5250  0.0068
 6894TIP3   OH242172   4.433   0.164   2.394 -0.0160 -0.1456  0.4268
 6894TIP3    H142173   4.476   0.200   2.471  2.3509  0.7979 -1.2130
 6894TIP3    H242174   4.340   0.178   2.409  0.2986 -0.5450  3.3301
 6895TIP3   OH242175   1.494   0.230  10.759 -0.3595 -0.2582  0.0410
 6895TIP3    H142176   1.532   0.193  10.680  1.3447 -0.4609  0.9194
 6895TIP3    H242177   1.475   0.321  10.736  0.6595 -0.1549 -0.4450
 6896TIP3   OH242178   5.401   1.584  15.857 -0.4631  0.5233  0.1666
 6896TIP3    H142179   5.325   1.527  15.855  1.9356 -2.9479 -0.6146
 6896TIP3    H242180   5.404   1.623  15.770 -0.7367 -0.2310 -0.1894
 6897TIP3   OH242181   0.163   0.037   4.338  0.1696 -0.3492  0.4854
 6897TIP3    H142182   0.140   0.114   4.389  1.0444 -0.7147  1.4699
 6897TIP3    H242183   0.198   0.072   4.256 -1.5759  0.2334 -0.0447
 6898TIP3   OH242184   4.640   1.099   2.973 -0.0101  0.0435 -0.0181
 6898TIP3    H142185   4.663   1.012   2.940 -3.4966 -1.1391  0.2014
 6898TIP3    H242186   4.630   1.152   2.894 -1.0273 -0.7089 -0.4263
 6899TIP3   OH242187   2.964   1.035   4.153 -0.3589  0.6859  0.7103
 6899TIP3    H142188   2.894   0.970   4.165 -0.0222  0.3445  0.8473
 6899TIP3    H242189   2.988   1.027   4.061  1.0687 -0.8337  1.1546
 6900TIP3   OH242190   0.677   1.373  12.731  0.1859 -0.2050  0.0534
 6900TIP3    H142191   0.642   1.456  12.699  0.2991 -0.0465  0.3314
 6900TIP3    H242192   0.738   1.399  12.801 -0.2711 -0.5563  0.5837
 6901TIP3   OH242193   4.742   3.129   4.373 -0.4513  1.1568 -0.3511
 6901TIP3    H142194   4.697   3.203   4.331  0.0661  1.7914  0.2014
 6901TIP3    H242195   4.747   3.153   4.465 -0.1449  0.4900 -0.1899
 6902TIP3   OH242196   0.604   2.709   5.958  0.1141 -0.3770  0.1348
 6902TIP3    H142197   0.540   2.654   6.002 -0.4609  0.1162 -0.0696
 6902TIP3    H242198   0.558   2.792   5.943  0.6608 -0.1645 -0.4004
 6903TIP3   OH242199   3.216   1.795   3.110 -0.3141 -0.3540  0.2537
 6903TIP3    H142200   3.293   1.790   3.054  0.0762  1.5044  0.5651
 6903TIP3    H242201   3.145   1.760   3.057  0.2193  0.5195 -1.0801
 6904TIP3   OH242202   3.732   3.008  12.470 -0.1575  0.3298  0.2880
 6904TIP3    H142203   3.740   2.922  12.429  0.8665  0.7427 -0.4302
 6904TIP3    H242204   3.791   3.004  12.545  0.8346  0.7902 -0.4498
 6905TIP3   OH242205   0.893   6.337   4.659  0.6512 -0.5275 -0.0025
 6905TIP3    H142206   0.805   6.348   4.695  0.6077 -3.1610  0.9427
 6905TIP3    H242207   0.880   6.281   4.582  1.4053 -0.1231 -0.4319
 6906TIP3   OH242208   3.334   3.078  15.678 -0.1818 -0.3495 -0.9226
 6906TIP3    H142209   3.354   3.171  15.686 -1.9489  0.0646 -1.0165
 6906TIP3    H242210   3.324   3.047  15.768  1.6147 -0.7846 -0.8181
 6907TIP3   OH242211   4.897   3.358  13.598 -0.1845 -0.2454  0.2285
 6907TIP3    H142212   4.846   3.290  13.642  0.9106 -1.2988 -0.0699
 6907TIP3    H242213   4.873   3.439  13.643  0.7975 -1.2398  2.7705
 6908TIP3   OH242214   5.477   4.263   2.072  0.1220 -0.0661  0.6494
 6908TIP3    H142215   5.505   4.351   2.049  0.2805  0.1147  1.5098
 6908TIP3    H242216   5.553   4.224   2.115  0.2833 -0.8667 -0.3134
 6909TIP3   OH242217   4.502   1.606   4.048  0.4935  0.0708 -0.0390
 6909TIP3    H142218   4.596   1.602   4.064  0.7231 -0.1971 -1.3790
 6909TIP3    H242219   4.466   1.530   4.094  1.0403 -0.2988 -0.2195
 6910TIP3   OH242220   1.042   1.419  12.586 -0.6980  0.2171  0.3499
 6910TIP3    H142221   0.980   1.397  12.516 -0.4969 -0.0805  0.2617
 6910TIP3    H242222   1.023   1.510  12.607  0.9362  1.1347 -1.8650
 6911TIP3   OH242223   0.263   2.884  13.527 -0.4750 -0.3149  0.6032
 6911TIP3    H142224   0.233   2.842  13.607  2.2791  1.4244  2.7490
 6911TIP3    H242225   0.358   2.869  13.525 -0.1183  1.5695 -1.1183
 6912TIP3   OH242226   2.818   4.962  16.538  0.3393  0.2225  0.1281
 6912TIP3    H142227   2.851   5.033  16.483  0.8015 -0.2690 -0.2340
 6912TIP3    H242228   2.802   4.890  16.478 -0.2162  0.0407  0.4829
 6913TIP3   OH242229   4.962   1.866   5.568 -0.4511 -0.2741 -1.1030
 6913TIP3    H142230   4.916   1.951   5.564  0.2112  0.2420  0.8937
 6913TIP3    H242231   4.925   1.823   5.645  1.2021 -0.5627 -0.4314
 6914TIP3   OH242232   5.306   5.333  15.548  0.5521  0.3331 -0.0793
 6914TIP3    H142233   5.339   5.380  15.625 -0.0831 -0.7893  0.9115
 6914TIP3    H242234   5.241   5.271  15.584 -1.9037  1.7321 -1.8146
 6915TIP3   OH242235   6.728   4.527  14.528  0.1289 -0.1629 -0.4695
 6915TIP3    H142236   6.772   4.596  14.577 -0.3452  0.4625 -0.9057
 6915TIP3    H242237   6.737   4.449  14.583  1.4638  0.0231 -0.3853
 6916TIP3   OH242238   3.624   3.068   4.434  0.5324 -0.0906  0.4867
 6916TIP3    H142239   3.589   2.982   4.457  1.2461 -0.5301 -0.0436
 6916TIP3    H242240   3.675   3.095   4.510  0.6118 -0.3022  0.5075
 6917TIP3   OH242241   5.851   4.235   2.033 -0.2835 -0.5682 -0.6976
 6917TIP3    H142242   5.822   4.326   2.042  0.1167 -0.4444 -0.6561
 6917TIP3    H242243   5.770   4.185   2.018 -0.7685 -0.5017  1.3797
 6918TIP3   OH242244   4.656   0.614  13.126  0.5628 -0.5287  0.2806
 6918TIP3    H142245   4.644   0.630  13.032 -0.8550 -0.4974  0.4523
 6918TIP3    H242246   4.723   0.546  13.129  1.6633  0.4555 -0.6882
 6919TIP3   OH242247   5.667   3.749  10.685 -0.1905  0.1867  0.1415
 6919TIP3    H142248   5.748   3.735  10.635 -0.1951  1.9414 -0.4304
 6919TIP3    H242249   5.610   3.677  10.659  0.5537 -0.0803 -0.8200
 6920TIP3   OH242250   2.282   6.563  12.781 -0.3645 -0.7317 -0.3071
 6920TIP3    H142251   2.253   6.647  12.818 -0.2498 -0.0670 -1.6463
 6920TIP3    H242252   2.311   6.585  12.692 -2.9176 -2.5975 -1.7425
 6921TIP3   OH242253   1.259   5.429   2.318 -0.2871 -0.0684  0.2551
 6921TIP3    H142254   1.274   5.425   2.412 -2.9703  1.1056  0.8233
 6921TIP3    H242255   1.212   5.348   2.297  1.7176 -1.1155 -0.4509
 6922TIP3   OH242256   1.204   1.799   0.475  0.0241 -0.0083  0.2043
 6922TIP3    H142257   1.213   1.876   0.532  0.0397 -0.2679  0.5537
 6922TIP3    H242258   1.264   1.735   0.511  0.7177  0.1367 -0.6457
 6923TIP3   OH242259   0.389   5.185   4.767 -0.0337  0.5742 -0.1511
 6923TIP3    H142260   0.349   5.166   4.853 -0.2594  0.8949 -0.1833
 6923TIP3    H242261   0.443   5.108   4.749  0.3341  0.6774  0.4633
 6924TIP3   OH242262   6.612   3.324   1.522  0.6661  0.0028 -0.0044
 6924TIP3    H142263   6.633   3.350   1.432 -0.4665  0.1154 -0.2411
 6924TIP3    H242264   6.669   3.249   1.539  2.0343  0.9359 -0.2492
 6925TIP3   OH242265   2.742   3.801  16.735  0.3657 -0.4737 -0.3527
 6925TIP3    H142266   2.720   3.800  16.828  0.1234 -0.1200 -0.4005
 6925TIP3    H242267   2.657   3.808  16.691  0.5303  0.4472 -0.5593
 6926TIP3   OH242268   6.466   2.522   2.689  0.5044  0.4513 -0.0073
 6926TIP3    H142269   6.506   2.608   2.704  2.3284 -0.5309  1.1488
 6926TIP3    H242270   6.409   2.508   2.765 -0.0922  0.7692 -0.3847
 6927TIP3   OH242271   3.803   6.254   3.139  0.3193 -0.5204  0.6269
 6927TIP3    H142272   3.873   6.195   3.111 -0.0069 -0.6395  0.0511
 6927TIP3    H242273   3.849   6.330   3.175  0.7506 -0.5637  0.1758
 6928TIP3   OH242274   3.106   5.853   3.461 -0.0910 -0.4167 -0.6658
 6928TIP3    H142275   3.050   5.852   3.383 -1.1196  0.7721  0.0339
 6928TIP3    H242276   3.057   5.902   3.526  0.1557 -2.5181  1.2236
 6929TIP3   OH242277   3.288   5.180   2.034  0.0182 -0.0723 -0.4489
 6929TIP3    H142278   3.331   5.094   2.037  1.8338  0.7249 -1.6077
 6929TIP3    H242279   3.331   5.231   2.103 -0.6499  0.0994 -0.1485
 6930TIP3   OH242280   1.466   3.163   0.795 -0.2890 -0.0446  0.5362
 6930TIP3    H142281   1.541   3.197   0.746 -0.0966 -0.4885  0.5165
 6930TIP3    H242282   1.399   3.230   0.785 -1.1250 -1.1460 -2.4280
 6931TIP3   OH242283   4.338   1.916  12.811 -0.3239  0.1616  0.0508
 6931TIP3    H142284   4.371   2.001  12.784 -0.8266  0.8175  1.4090
 6931TIP3    H242285   4.406   1.854  12.784  0.9300  1.2068  0.6989
 6932TIP3   OH242286   6.245   0.374  12.526  0.0582  0.0497  0.1785
 6932TIP3    H142287   6.151   0.365  12.544 -0.4961  2.8436 -0.7375
 6932TIP3    H242288   6.275   0.440  12.589  1.0369  0.2872 -0.5089
 6933TIP3   OH242289   1.985   3.308  15.151  0.1562  0.2375  0.0996
 6933TIP3    H142290   1.910   3.357  15.185 -1.6005 -2.1372 -0.1732
 6933TIP3    H242291   1.965   3.293  15.058  0.8633 -0.6313  0.0696
 6934TIP3   OH242292   1.808   2.611  11.986 -0.2418  0.0064 -0.7442
 6934TIP3    H142293   1.761   2.633  11.906 -1.7117  0.1000  0.1078
 6934TIP3    H242294   1.797   2.516  11.995  1.1350 -0.2461 -1.3585
 6935TIP3   OH242295   0.913   1.919  11.995  0.3712  0.2023  0.3167
 6935TIP3    H142296   0.862   1.838  11.995  0.8830 -0.1692 -1.2068
 6935TIP3    H242297   0.870   1.975  12.059 -1.7772 -0.2172 -0.6518
 6936TIP3   OH242298   6.055   5.289  16.336  0.7949  0.3910  0.4647
 6936TIP3    H142299   6.134   5.262  16.290  0.6807  2.1594 -0.8324
 6936TIP3    H242300   6.011   5.206  16.358  1.2899 -0.5472 -1.8243
 6937TIP3   OH242301   5.170   1.670   2.038 -0.2829  0.0090 -0.2487
 6937TIP3    H142302   5.198   1.700   1.951  0.4039 -1.7359 -0.6825
 6937TIP3    H242303   5.248   1.680   2.093  0.6345 -2.6859 -0.8925
 6938TIP3   OH242304   2.278   6.625  16.940  0.5142 -0.3724 -0.2621
 6938TIP3    H142305   2.190   6.662  16.934  0.9668  1.3153  1.9270
 6938TIP3    H242306   2.328   6.690  16.990  2.0237 -2.9336  1.8108
 6939TIP3   OH242307   4.581   3.905   4.610  0.1459  0.5387 -0.2178
 6939TIP3    H142308   4.581   3.809   4.606 -1.3625  0.5442 -1.7147
 6939TIP3    H242309   4.582   3.925   4.704  0.1552 -0.9452  0.1256
 6940TIP3   OH242310   2.734   4.426  15.402 -0.1645 -0.3533  0.4007
 6940TIP3    H142311   2.814   4.476  15.390  1.1319 -2.1951  0.9600
 6940TIP3    H242312   2.679   4.450  15.327 -0.1515  2.7585  1.2548
 6941TIP3   OH242313   0.320   1.592   3.038  0.1712 -0.5042 -0.1310
 6941TIP3    H142314   0.393   1.562   2.984 -0.0309 -1.1432 -0.0578
 6941TIP3    H242315   0.265   1.515   3.050 -0.6462  0.0172 -0.3765
 6942TIP3   OH242316   2.631   5.777   4.148  0.1779 -0.4144 -0.7277
 6942TIP3    H142317   2.541   5.752   4.166  0.2799 -0.7015 -0.6157
 6942TIP3    H242318   2.643   5.759   4.055 -0.4429  1.3543 -1.1881
 6943TIP3   OH242319   3.043   6.646  12.396 -0.2369 -0.5073 -0.5904
 6943TIP3    H142320   3.080   6.644  12.484 -0.3872  0.2176 -0.5042
 6943TIP3    H242321   2.974   6.579  12.397  0.4332 -1.2050 -0.4690
 6944TIP3   OH242322   1.436   2.743   1.015  0.1681 -0.4248 -0.0147
 6944TIP3    H142323   1.525   2.716   1.035 -0.6440 -2.3094  1.4834
 6944TIP3    H242324   1.416   2.810   1.080  0.7060  0.5308 -0.8183
 6945TIP3   OH242325   4.935   4.885   2.930 -0.3459 -0.2194 -0.2583
 6945TIP3    H142326   5.026   4.876   2.957 -1.1768 -2.7102  2.1539
 6945TIP3    H242327   4.934   4.861   2.837  1.3690 -0.5684 -0.2080
 6946TIP3   OH242328   3.143   6.549  15.217 -0.3625 -0.2655  0.3837
 6946TIP3    H142329   3.235   6.575  15.226 -0.5718  0.7816 -0.3354
 6946TIP3    H242330   3.095   6.611  15.271 -0.8701  0.9469 -1.3714
 6947TIP3   OH242331   1.821   5.025   0.453  0.6239  0.3204 -0.4293
 6947TIP3    H142332   1.743   5.046   0.505 -0.8373 -2.4004 -1.3117
 6947TIP3    H242333   1.809   5.075   0.372 -1.3547 -1.5070 -1.3809
 6948TIP3   OH242334   0.688   3.018   5.751 -0.2316  0.0747 -0.1642
 6948TIP3    H142335   0.601   2.985   5.774 -0.0826  1.0004  1.9992
 6948TIP3    H242336   0.696   3.099   5.801  1.8811 -0.0003 -0.3078
 6949TIP3   OH242337   6.219   5.857  12.806 -0.2212 -0.0527  0.6671
 6949TIP3    H142338   6.184   5.869  12.894 -1.8986 -2.5479  0.4538
 6949TIP3    H242339   6.156   5.799  12.763  1.6333 -0.6329 -1.4728
 6950TIP3   OH242340   3.956   2.918  16.352 -0.2301 -0.3774 -0.3193
 6950TIP3    H142341   3.895   2.876  16.412  0.5485  0.5499  1.1609
 6950TIP3    H242342   4.008   2.846  16.316 -0.5082 -0.9154  0.3378
 6951TIP3   OH242343   3.791   1.314   4.357  0.1959 -0.2479  0.4658
 6951TIP3    H142344   3.728   1.295   4.287 -0.0823 -2.8500  1.3466
 6951TIP3    H242345   3.740   1.357   4.425 -0.1713 -0.4529  0.3173
 6952TIP3   OH242346   4.344   3.856  16.412 -0.3081 -0.1262  0.3672
 6952TIP3    H142347   4.389   3.881  16.493 -2.5700 -0.4378  1.8067
 6952TIP3    H242348   4.324   3.939  16.369 -0.2860  0.1153  0.8118
 6953TIP3   OH242349   1.857   3.624   4.009 -0.2293  0.5901  0.6814
 6953TIP3    H142350   1.768   3.588   4.010 -0.5207  1.3089  1.0254
 6953TIP3    H242351   1.867   3.664   4.095  0.5427  0.2547  0.7561
 6954TIP3   OH242352   1.264   2.448   5.203 -0.5578  0.4854 -0.1389
 6954TIP3    H142353   1.293   2.391   5.275 -0.6760 -0.2951 -0.6893
 6954TIP3    H242354   1.344   2.490   5.172  0.5589 -3.2189 -3.0127
 6955TIP3   OH242355   3.567   1.819   3.640  0.2501 -0.0628  0.3319
 6955TIP3    H142356   3.659   1.801   3.620  0.2678  0.3936 -0.0145
 6955TIP3    H242357   3.520   1.743   3.605  0.5267 -0.4670  0.8293
 6956TIP3   OH242358   1.994   6.486  16.975  0.4507 -0.4661 -0.0481
 6956TIP3    H142359   2.034   6.483  16.888  1.8875  0.8322  0.5361
 6956TIP3    H242360   2.013   6.573  17.008  0.6564 -1.1933  1.9025
 6957TIP3   OH242361   6.012   2.893   2.869 -0.1024  0.8633  0.1163
 6957TIP3    H142362   6.052   2.810   2.894 -1.5729  0.0098 -0.2796
 6957TIP3    H242363   5.996   2.938   2.951  0.3049  0.5743  0.3597
 6958TIP3   OH242364   1.803   4.612  13.698 -0.4248  0.5077  0.2499
 6958TIP3    H142365   1.855   4.691  13.681  2.2583 -1.4406 -1.3449
 6958TIP3    H242366   1.733   4.616  13.633  1.1085  0.4699 -1.5024
 6959TIP3   OH242367   1.327   6.592   4.207 -0.6914  0.5698  0.4942
 6959TIP3    H142368   1.377   6.572   4.286  0.1228  1.1189  0.1300
 6959TIP3    H242369   1.288   6.678   4.225  1.7674  2.0487 -0.7242
 6960TIP3   OH242370   0.549   1.326  11.198 -0.2344  0.3266 -0.3322
 6960TIP3    H142371   0.620   1.264  11.215 -0.1972  0.4199 -0.1491
 6960TIP3    H242372   0.469   1.274  11.203 -0.1135 -0.0497 -1.7949
 6961TIP3   OH242373   2.635   3.877  16.105  0.7841 -0.4849 -0.6731
 6961TIP3    H142374   2.689   3.955  16.118 -0.8261  0.3104  1.8288
 6961TIP3    H242375   2.624   3.840  16.192 -3.4730 -0.0153 -0.8327
 6962TIP3   OH242376   1.187   4.626  14.950 -0.0064  0.5765  0.6121
 6962TIP3    H142377   1.242   4.664  14.883  1.9442  2.3488  3.0457
 6962TIP3    H242378   1.105   4.675  14.945 -1.0645 -1.2413 -2.2118
 6963TIP3   OH242379   4.058   1.384   6.211  0.6278 -0.2361  0.2759
 6963TIP3    H142380   3.997   1.311   6.195 -0.1925  0.2590  1.0864
 6963TIP3    H242381   4.043   1.444   6.138 -0.3937  0.2254  0.8467
 6964TIP3   OH242382   1.164   0.514  13.113 -0.3699 -0.2223  0.2440
 6964TIP3    H142383   1.144   0.502  13.206 -0.8985  0.6795  0.2589
 6964TIP3    H242384   1.091   0.470  13.068 -0.8875  0.5869  0.2759
 6965TIP3   OH242385   0.782   5.200  13.436 -0.4711  0.1109  0.0921
 6965TIP3    H142386   0.707   5.257  13.423 -0.4597  0.1394  0.1524
 6965TIP3    H242387   0.833   5.209  13.356  0.2354  1.2303  0.6390
 6966TIP3   OH242388   1.625   4.463  15.233 -0.5683 -0.0439 -0.0365
 6966TIP3    H142389   1.559   4.408  15.275 -1.5100  1.5069  0.5664
 6966TIP3    H242390   1.656   4.411  15.159 -0.1105 -2.1250  1.5196
 6967TIP3   OH242391   3.247   1.584  14.976  0.4583 -0.5022 -0.0230
 6967TIP3    H142392   3.335   1.550  14.957 -0.2710 -0.6460 -3.8238
 6967TIP3    H242393   3.240   1.663  14.922 -1.7649 -0.5115  0.1747
 6968TIP3   OH242394   4.051   5.194  11.055 -0.0277  0.8373  0.0440
 6968TIP3    H142395   4.126   5.253  11.044 -0.1219  0.7978 -0.8472
 6968TIP3    H242396   4.000   5.233  11.126 -0.3876  2.1548 -0.9038
 6969TIP3   OH242397   5.780   5.996  13.100 -0.0057  0.1777  0.5501
 6969TIP3    H142398   5.854   5.962  13.049  0.5985  1.5587  0.4679
 6969TIP3    H242399   5.772   6.087  13.072 -1.4418  0.1909  0.9218
 6970TIP3   OH242400   5.071   3.287  15.366  0.3395  0.5334  0.7431
 6970TIP3    H142401   5.148   3.283  15.311  0.4741  0.5696  0.9256
 6970TIP3    H242402   5.095   3.349  15.436  0.8024 -0.8008  1.8102
 6971TIP3   OH242403   1.331   2.032  14.509 -0.1844 -0.0015 -0.4163
 6971TIP3    H142404   1.291   2.037  14.422 -1.2794  0.6430  0.0934
 6971TIP3    H242405   1.270   1.978  14.561 -0.3552  0.8962  0.3474
 6972TIP3   OH242406   0.238   3.461  11.573 -0.7815 -0.0351  0.3025
 6972TIP3    H142407   0.222   3.514  11.651  0.7094  0.4892  0.2839
 6972TIP3    H242408   0.295   3.390  11.604 -2.1595 -1.2303  0.1715
 6973TIP3   OH242409   5.184   4.873   0.979 -0.2920 -0.2969 -0.1866
 6973TIP3    H142410   5.213   4.881   1.070 -0.6003 -1.5965  0.0494
 6973TIP3    H242411   5.124   4.947   0.966 -2.2269 -1.4787  1.4758
 6974TIP3   OH242412   4.226   5.801  14.331 -0.3564  0.1792 -0.1850
 6974TIP3    H142413   4.250   5.846  14.250  0.7831 -0.3595 -0.1733
 6974TIP3    H242414   4.134   5.824  14.345  0.1913  2.6077 -0.0873
 6975TIP3   OH242415   4.328   4.297  12.160 -0.0788 -0.2513 -0.0483
 6975TIP3    H142416   4.239   4.324  12.182  0.2171  0.8319 -0.1217
 6975TIP3    H242417   4.323   4.270  12.069 -0.0563  1.1583 -0.4810
 6976TIP3   OH242418   3.451   4.536  15.589  0.4127  0.6901  0.1307
 6976TIP3    H142419   3.519   4.533  15.656  0.2400 -0.1058  0.2835
 6976TIP3    H242420   3.466   4.457  15.537 -0.2135  0.6618 -0.0104
 6977TIP3   OH242421   0.247   3.159  12.994  0.0524 -0.0411  0.0193
 6977TIP3    H142422   0.279   3.234  13.044  0.0778  0.2746 -0.4579
 6977TIP3    H242423   0.170   3.129  13.041 -0.1323  0.4722  0.0524
 6978TIP3   OH242424   5.854   3.174  14.785  0.7228  0.3777 -0.6743
 6978TIP3    H142425   5.945   3.198  14.769  0.4906  1.8502  0.0537
 6978TIP3    H242426   5.808   3.195  14.704  0.6080  2.0515 -0.2072
 6979TIP3   OH242427   0.009   2.309   0.308  0.3888 -0.2921  0.4792
 6979TIP3    H142428  -0.000   2.397   0.273  0.7191 -1.0042 -1.5324
 6979TIP3    H242429  -0.070   2.263   0.280 -0.1562 -0.4518  2.1898
 6980TIP3   OH242430   4.471   4.573   4.759  0.2693 -0.3105 -0.0931
 6980TIP3    H142431   4.534   4.555   4.829  3.1648  0.1327 -2.4257
 6980TIP3    H242432   4.479   4.667   4.744 -2.6978  0.2227  1.0204
 6981TIP3   OH242433   1.863   5.424   3.662 -0.1859  0.4634 -0.0301
 6981TIP3    H142434   1.820   5.390   3.741 -0.4705  0.0845 -0.3449
 6981TIP3    H242435   1.812   5.388   3.590 -0.2077  1.1834 -0.3830
 6982TIP3   OH242436   4.473   4.594   5.552  0.2276  0.3442 -0.1698
 6982TIP3    H142437   4.457   4.576   5.459 -1.9310  0.5937  0.0920
 6982TIP3    H242438   4.510   4.513   5.587  0.7363  0.1350 -1.1647
 6983TIP3   OH242439   6.157   3.500   3.798  0.1034 -0.0315 -0.5297
 6983TIP3    H142440   6.243   3.474   3.766  0.7632 -0.6555  1.5758
 6983TIP3    H242441   6.124   3.422   3.842 -0.8862  0.6527 -0.0314
 6984TIP3   OH242442   0.165   1.603  13.637  0.2176 -0.1839 -0.5932
 6984TIP3    H142443   0.110   1.561  13.571  1.8525 -2.9447 -0.3689
 6984TIP3    H242444   0.227   1.656  13.587 -1.3086  1.3582 -0.9451
 6985TIP3   OH242445   2.821   6.725   0.693  0.8701 -0.5920  0.2136
 6985TIP3    H142446   2.745   6.673   0.718  1.1499 -1.2200 -0.2039
 6985TIP3    H242447   2.892   6.693   0.749  0.7560  0.2357  0.8499
 6986TIP3   OH242448   0.860   3.786   4.960 -0.0187  0.2276  0.0414
 6986TIP3    H142449   0.801   3.787   4.886 -0.3319 -1.0033  0.2653
 6986TIP3    H242450   0.805   3.808   5.035 -0.1903 -0.8117  0.2341
 6987TIP3   OH242451   5.748   3.891  11.789 -0.3928  0.1096  0.7675
 6987TIP3    H142452   5.748   3.851  11.702 -1.0393  1.3430  0.1729
 6987TIP3    H242453   5.671   3.856  11.832 -1.0609  0.8114  0.1812
 6988TIP3   OH242454   2.767   4.564  15.668  0.0849  0.0024 -0.1031
 6988TIP3    H142455   2.745   4.539  15.578 -0.1640  0.8265 -0.2811
 6988TIP3    H242456   2.853   4.604  15.661  0.2487 -0.3082  0.0984
 6989TIP3   OH242457   0.849   4.007  10.813 -0.4490  0.3450  0.1937
 6989TIP3    H142458   0.851   4.101  10.832  0.9165  0.1331  1.2496
 6989TIP3    H242459   0.904   3.997  10.736 -2.1514  0.6146 -1.1138
 6990TIP3   OH242460   2.528   6.495  14.547 -0.1226  0.1423 -0.0012
 6990TIP3    H142461   2.613   6.481  14.507 -0.4512 -0.7445 -0.4116
 6990TIP3    H242462   2.489   6.408  14.553 -0.1926  0.2700  2.0347
 6991TIP3   OH242463   3.432   2.341  16.456  0.1203 -0.2473  0.0498
 6991TIP3    H142464   3.489   2.291  16.515  0.7925  0.2909 -0.1296
 6991TIP3    H242465   3.359   2.368  16.511 -0.0892 -1.1298  0.2325
 6992TIP3   OH242466   3.464   4.958   5.748 -0.2428  0.0725  0.1428
 6992TIP3    H142467   3.487   5.004   5.829  2.9897  1.0587 -1.1797
 6992TIP3    H242468   3.434   5.028   5.689  0.6185 -0.1072 -0.5291
 6993TIP3   OH242469   2.850   1.680   5.063  0.1628  0.6850  0.1954
 6993TIP3    H142470   2.818   1.677   5.153  1.4216  2.8629  0.8093
 6993TIP3    H242471   2.932   1.730   5.069  0.6884  0.2009 -2.0596
 6994TIP3   OH242472   5.387   6.602   4.707 -0.2557 -0.3143  0.5793
 6994TIP3    H142473   5.437   6.683   4.711 -0.4834 -0.1928  1.0878
 6994TIP3    H242474   5.341   6.598   4.791 -2.9127  0.7577 -0.6751
 6995TIP3   OH242475   5.065   5.985   1.642  0.4232  0.0166  0.3631
 6995TIP3    H142476   5.151   5.946   1.622  0.6789  0.5597  0.3799
 6995TIP3    H242477   5.030   6.011   1.557  0.7543  0.7721  0.4520
 6996TIP3   OH242478   1.558   2.988  12.628 -0.4376  1.0368  0.4505
 6996TIP3    H142479   1.589   3.020  12.714  2.0205 -1.4742  0.6397
 6996TIP3    H242480   1.540   2.895  12.643 -0.6315  0.7201 -1.5965
 6997TIP3   OH242481   4.047   5.502  14.307  0.3064  0.5291 -0.7246
 6997TIP3    H142482   4.039   5.492  14.402 -0.8811  0.9313 -0.7629
 6997TIP3    H242483   4.020   5.592  14.291  1.4748  0.7702 -1.3477
 6998TIP3   OH242484   5.389   3.976  16.550 -0.4957 -0.3050 -0.1286
 6998TIP3    H142485   5.344   4.061  16.549  0.3183  0.1449  0.2195
 6998TIP3    H242486   5.330   3.919  16.600 -0.0649  0.6401  1.5625
 6999TIP3   OH242487   0.852   6.546   1.965  0.1525  0.2360  0.0172
 6999TIP3    H142488   0.850   6.521   2.057  0.4369  0.5678  0.1158
 6999TIP3    H242489   0.815   6.471   1.919  0.9311 -0.3407  0.3117
 7000TIP3   OH242490   6.550   4.856   2.770 -0.5380  0.2675 -0.3049
 7000TIP3    H142491   6.490   4.819   2.706 -1.7204  2.2376 -0.4161
 7000TIP3    H242492   6.501   4.856   2.852  1.3853 -3.4213  1.0905
 7001TIP3   OH242493   6.400   0.089   1.843  0.0857 -0.0832  0.2018
 7001TIP3    H142494   6.439   0.106   1.929 -0.9195 -0.6208  0.7781
 7001TIP3    H242495   6.383   0.176   1.808  1.5354  0.1719  0.0350
 7002TIP3   OH242496   2.879   6.203  11.289 -0.1220 -0.0598  0.3755
 7002TIP3    H142497   2.843   6.127  11.245 -0.4572  0.7951 -0.8930
 7002TIP3    H242498   2.947   6.235  11.229  0.6349  0.1238  1.3055
 7003TIP3   OH242499   5.059   0.809  12.863 -1.0582 -0.0460  0.1147
 7003TIP3    H142500   5.129   0.840  12.921  1.5675 -0.7609 -2.4806
 7003TIP3    H242501   4.988   0.872  12.876 -0.0814  0.6086  3.0057
 7004TIP3   OH242502   4.371   0.950   6.566  0.1179  0.0080 -0.2037
 7004TIP3    H142503   4.279   0.940   6.543  0.2293  0.5193 -0.9300
 7004TIP3    H242504   4.406   0.861   6.564 -0.7083 -0.3995  1.7395
 7005TIP3   OH242505   3.570   3.316  13.015 -0.3737 -0.0941 -0.6107
 7005TIP3    H142506   3.519   3.316  12.934 -0.8635 -0.9638 -0.3189
 7005TIP3    H242507   3.589   3.409  13.031 -2.2742  0.3290 -0.4899
 7006TIP3   OH242508   4.443   2.849  12.648 -0.3972 -0.5395  0.3796
 7006TIP3    H142509   4.536   2.870  12.637 -0.7453  0.4796 -0.7694
 7006TIP3    H242510   4.410   2.915  12.709 -0.5554 -0.3643  0.1056
 7007TIP3   OH242511   0.911   2.048   2.997  0.6964  0.7213  0.5721
 7007TIP3    H142512   0.819   2.068   2.978  0.9719  2.1986  0.6347
 7007TIP3    H242513   0.946   2.015   2.914 -0.2582 -1.4202  0.9738
 7008TIP3   OH242514   1.901   4.742   3.809  0.5175 -0.1595 -0.3754
 7008TIP3    H142515   1.860   4.827   3.824 -2.2177 -0.8443 -3.0857
 7008TIP3    H242516   1.995   4.762   3.806 -0.0134  2.8235 -1.0455
 7009TIP3   OH242517   0.345   4.890  12.842 -0.0499 -0.5084 -0.1789
 7009TIP3    H142518   0.258   4.910  12.878 -0.2213  1.6196 -1.6149
 7009TIP3    H242519   0.380   4.822  12.900 -0.8702  1.6489  3.1021
 7010TIP3   OH242520   1.248   3.061   2.113 -0.1420  0.2819  0.8488
 7010TIP3    H142521   1.213   3.064   2.202 -0.0397 -2.3044  1.0538
 7010TIP3    H242522   1.332   3.108   2.118 -0.5822  1.0067  1.8489
 7011TIP3   OH242523   0.300   6.221  11.214  0.4176 -0.7123 -0.7770
 7011TIP3    H142524   0.336   6.136  11.237 -0.4486 -1.3450 -1.6600
 7011TIP3    H242525   0.268   6.257  11.297 -0.5150 -1.8920 -0.6061
 7012TIP3   OH242526   3.719   0.322  13.113 -0.2548  0.0210  0.3836
 7012TIP3    H142527   3.662   0.360  13.180  0.6794 -0.4363  1.4600
 7012TIP3    H242528   3.779   0.393  13.089  0.3505 -0.2442  1.1023
 7013TIP3   OH242529   2.364   2.642  16.074 -0.1644  0.4394  0.1029
 7013TIP3    H142530   2.412   2.573  16.028 -0.7768  0.7330 -1.0116
 7013TIP3    H242531   2.281   2.601  16.099 -0.7466  0.8990 -1.0223
 7014TIP3   OH242532   1.158   1.238  10.822  0.0407  0.4035 -0.3694
 7014TIP3    H142533   1.129   1.147  10.830 -0.1993  0.2455 -2.4094
 7014TIP3    H242534   1.110   1.272  10.747  1.5657  1.6199 -0.8542
 7015TIP3   OH242535   0.333   0.951  16.833 -0.1599 -0.4737  0.3246
 7015TIP3    H142536   0.268   0.912  16.892  0.0303 -0.9351  0.2360
 7015TIP3    H242537   0.281   1.005  16.773 -0.4034 -0.3967  0.6001
 7016TIP3   OH242538   4.806   4.438   1.183 -0.2392  0.2605 -0.9232
 7016TIP3    H142539   4.856   4.430   1.264 -1.1482 -0.0988 -0.3702
 7016TIP3    H242540   4.812   4.530   1.159 -1.7960  0.8904  0.8135
 7017TIP3   OH242541   0.708   4.626  15.685  0.0375  0.6129  0.1539
 7017TIP3    H142542   0.620   4.589  15.689  0.6823 -0.8524  1.9943
 7017TIP3    H242543   0.759   4.562  15.635  0.5409  0.3859  0.9530
 7018TIP3   OH242544   4.232   0.605   6.435 -0.3474 -0.0585 -0.1706
 7018TIP3    H142545   4.308   0.582   6.488 -0.6837 -1.6479 -0.3117
 7018TIP3    H242546   4.157   0.576   6.487 -0.6613 -2.8696 -1.9099
 7019TIP3   OH242547   4.716   5.396   5.155  0.2117  0.1145  0.3195
 7019TIP3    H142548   4.775   5.404   5.230  1.1969  0.9177 -0.5090
 7019TIP3    H242549   4.649   5.462   5.171  0.7473  0.6927  0.2097
 7020TIP3   OH242550   2.405   2.462  12.547 -0.1288  0.3183  0.3710
 7020TIP3    H142551   2.452   2.443  12.466 -0.3581  0.8716  0.1021
 7020TIP3    H242552   2.449   2.409  12.613 -0.2471 -0.5125 -0.2007
 7021TIP3   OH242553   1.203   1.378  11.515 -0.0204 -0.1884  1.1777
 7021TIP3    H142554   1.223   1.317  11.586 -0.1378 -1.1989  0.3802
 7021TIP3    H242555   1.182   1.460  11.558  0.5169 -0.6126  2.2748
 7022TIP3   OH242556   3.473   2.153   0.029 -0.1862 -0.2438 -0.9441
 7022TIP3    H142557   3.418   2.133  -0.047  2.1641 -0.1047 -2.8059
 7022TIP3    H242558   3.546   2.091   0.023  0.2043 -0.0411  1.0758
 7023TIP3   OH242559   3.540   1.141  13.074 -0.3338 -0.0324 -0.1199
 7023TIP3    H142560   3.605   1.194  13.028 -0.6356 -0.1115 -0.6445
 7023TIP3    H242561   3.474   1.120  13.008 -0.0039 -1.4376 -0.0362
 7024TIP3   OH242562   5.833   4.152  15.841  0.4991  0.0107  0.2144
 7024TIP3    H142563   5.822   4.207  15.763  1.1562  1.1525  0.9008
 7024TIP3    H242564   5.762   4.178  15.899  0.6098 -0.1137  0.4085
 7025TIP3   OH242565   5.972   4.826   2.854 -0.0226 -0.9301 -0.2263
 7025TIP3    H142566   5.940   4.754   2.800 -0.3299 -0.3638 -0.8183
 7025TIP3    H242567   6.066   4.810   2.862 -0.0381 -1.2246 -0.6282
 7026TIP3   OH242568   2.786   1.957  15.489  0.5624  0.1886  0.5623
 7026TIP3    H142569   2.722   1.978  15.557 -0.6885 -0.6413 -0.3037
 7026TIP3    H242570   2.842   2.034  15.485 -0.2241  0.8518  1.5265
 7027TIP3   OH242571   1.435   3.343  12.779 -0.2356 -0.2009 -0.1176
 7027TIP3    H142572   1.435   3.431  12.818  0.9934 -0.3259  0.1840
 7027TIP3    H242573   1.504   3.346  12.714 -1.3621 -0.4233 -1.3629
 7028TIP3   OH242574   6.091   4.764  11.269  0.2844 -0.5103  0.0240
 7028TIP3    H142575   6.124   4.678  11.243 -0.9322 -0.8896 -0.2967
 7028TIP3    H242576   6.067   4.807  11.188 -1.5612 -0.8951  0.3268
 7029TIP3   OH242577   5.743   6.515   5.495  0.3098 -0.8030 -0.1048
 7029TIP3    H142578   5.782   6.582   5.437  0.6049 -2.3901 -1.8500
 7029TIP3    H242579   5.651   6.539   5.501  1.1970  2.6414  3.5429
 7030TIP3   OH242580   1.526   4.021  10.571 -0.2675  0.0689 -0.3371
 7030TIP3    H142581   1.538   3.946  10.513 -1.2152  0.2256 -0.7597
 7030TIP3    H242582   1.474   4.082  10.519 -2.1118 -0.2542  1.0644
 7031TIP3   OH242583   5.417   2.041   6.428  0.3518 -0.3938 -0.0702
 7031TIP3    H142584   5.394   2.105   6.495  0.0201 -0.7041  0.1175
 7031TIP3    H242585   5.382   1.958   6.461  0.2945 -0.5714 -0.5697
 7032TIP3   OH242586   0.602   0.156  11.379  0.1528  0.6465  0.5468
 7032TIP3    H142587   0.631   0.203  11.457 -1.1218  2.0694  0.2077
 7032TIP3    H242588   0.550   0.219  11.331 -1.0554 -0.9194 -0.2966
 7033TIP3   OH242589   6.319   4.852  11.753 -0.2437 -0.9188  0.3447
 7033TIP3    H142590   6.398   4.904  11.771 -1.2676  1.2915 -1.0690
 7033TIP3    H242591   6.319   4.842  11.658 -3.2670  2.0805 -0.1472
 7034TIP3   OH242592   6.043   1.083   5.468  0.1487  0.4100 -0.0229
 7034TIP3    H142593   6.020   1.169   5.433  0.9817  1.2078  1.2974
 7034TIP3    H242594   6.049   1.097   5.562 -2.8763 -1.8345  0.6220
 7035TIP3   OH242595   4.006   0.394  14.953 -0.0140  0.2354  0.2119
 7035TIP3    H142596   4.035   0.473  14.999  1.1020 -0.8635  1.5175
 7035TIP3    H242597   4.064   0.388  14.877  1.6639 -0.6260  1.4812
 7036TIP3   OH242598   3.064   6.784   5.327 -0.1482  0.3027  0.4018
 7036TIP3    H142599   3.017   6.759   5.407  1.9537  0.4360  1.7668
 7036TIP3    H242600   3.053   6.879   5.322 -0.4404  0.2701  0.4328
 7037TIP3   OH242601   6.574   4.856   5.505  0.5186 -0.1984 -0.2674
 7037TIP3    H142602   6.627   4.784   5.539  0.6984  1.2103  2.8672
 7037TIP3    H242603   6.608   4.933   5.551 -1.3501  1.4610 -1.5345
 7038TIP3   OH242604   3.986   2.618   4.110 -0.1962 -0.2334 -0.0950
 7038TIP3    H142605   3.968   2.643   4.200  1.3250 -0.0505  0.1995
 7038TIP3    H242606   4.026   2.696   4.071 -0.3120 -0.4960 -0.7449
 7039TIP3   OH242607   4.316   3.806   4.220  0.6155  0.3667  0.6159
 7039TIP3    H142608   4.408   3.827   4.200 -0.0547  0.6468 -2.7111
 7039TIP3    H242609   4.311   3.711   4.210  0.4573  0.4050  0.3246
 7040TIP3   OH242610   2.849   2.258  12.227  0.2021  0.1476  0.0477
 7040TIP3    H142611   2.830   2.169  12.257  0.4256 -0.0089 -0.2674
 7040TIP3    H242612   2.890   2.300  12.302 -0.7852  0.2928  0.5225
 7041TIP3   OH242613   5.050   2.537  13.480 -0.7966  0.9250 -0.7173
 7041TIP3    H142614   5.074   2.479  13.553  1.6899 -0.9416 -2.8405
 7041TIP3    H242615   5.097   2.619  13.498 -2.8715  1.7720  1.3677
 7042TIP3   OH242616   3.756   1.981   1.652 -0.2043 -0.6055 -0.4274
 7042TIP3    H142617   3.841   2.016   1.678 -0.1265 -0.2126 -1.1857
 7042TIP3    H242618   3.722   1.939   1.731  0.7684 -0.9217 -0.1686
 7043TIP3   OH242619   6.682   2.174   4.576 -0.1932 -0.0101 -0.5630
 7043TIP3    H142620   6.685   2.142   4.666 -0.5538  0.1817 -0.4823
 7043TIP3    H242621   6.761   2.228   4.568  0.9989 -1.7060 -1.0133
 7044TIP3   OH242622   0.343   5.206  14.368  0.2727 -0.0532 -0.1403
 7044TIP3    H142623   0.396   5.284  14.352  0.6820 -0.4536 -0.7660
 7044TIP3    H242624   0.271   5.237  14.424 -0.2962  1.0505 -1.4281
 7045TIP3   OH242625   1.792   3.792  16.699 -0.0357  0.5564 -0.0649
 7045TIP3    H142626   1.823   3.862  16.641 -0.6123  1.2873  0.5047
 7045TIP3    H242627   1.773   3.835  16.782  1.1950 -0.5545  0.8378
 7046TIP3   OH242628   5.955   0.340   2.395  0.1367  0.0352  0.2329
 7046TIP3    H142629   5.943   0.317   2.487  1.7127  2.1511  1.0704
 7046TIP3    H242630   5.872   0.380   2.369  0.4815  1.7347  1.5605
 7047TIP3   OH242631   5.260   2.549   1.122 -0.1338 -0.7537  0.5822
 7047TIP3    H142632   5.314   2.494   1.179 -0.7949  1.2149  3.3545
 7047TIP3    H242633   5.170   2.521   1.142 -0.3336 -1.3390 -1.0282
 7048TIP3   OH242634   0.631   4.516   1.450  0.6366 -0.0712  0.6622
 7048TIP3    H142635   0.642   4.427   1.484  1.8689  0.2891  1.2325
 7048TIP3    H242636   0.720   4.545   1.429  0.1113  0.4900 -0.9235
 7049TIP3   OH242637   1.035   1.075  11.047  0.0497 -0.4639 -0.2433
 7049TIP3    H142638   1.102   1.058  11.113  0.0349  1.0920  0.2015
 7049TIP3    H242639   1.070   1.036  10.967 -0.0105 -2.5281  0.6702
 7050TIP3   OH242640   6.679   4.599  14.916  0.0726  0.2603  0.2193
 7050TIP3    H142641   6.586   4.608  14.898  0.1351 -0.6092 -0.5630
 7050TIP3    H242642   6.722   4.649  14.847  0.2890 -2.5245 -1.8122
 7051TIP3   OH242643   6.387   2.785   0.244 -0.4754  0.1833  0.3944
 7051TIP3    H142644   6.361   2.694   0.251  0.8325 -0.7345 -3.7527
 7051TIP3    H242645   6.482   2.784   0.257 -0.1981  0.6023 -1.4007
 7052TIP3   OH242646   1.303   3.716   1.377  0.1051  0.0929 -0.3691
 7052TIP3    H142647   1.265   3.686   1.295  0.6583  0.0631 -0.6246
 7052TIP3    H242648   1.396   3.729   1.356 -0.1306  2.1594 -0.3436
 7053TIP3   OH242649   1.204   4.346   5.504 -0.1704  0.3951 -0.0946
 7053TIP3    H142650   1.225   4.286   5.434 -1.1358 -0.7601  0.5645
 7053TIP3    H242651   1.287   4.364   5.547  0.0742 -0.8528 -0.0186
 7054TIP3   OH242652   1.864   3.595  11.335  0.6203 -0.6238  0.4177
 7054TIP3    H142653   1.775   3.565  11.351  0.3050  0.5490  0.9636
 7054TIP3    H242654   1.912   3.515  11.311 -0.6487 -1.2142 -0.3010
 7055TIP3   OH242655   4.379   5.294   3.490  0.4477 -0.1480  0.7861
 7055TIP3    H142656   4.425   5.278   3.407 -1.7887  2.5669 -1.1876
 7055TIP3    H242657   4.314   5.225   3.495  1.2682 -0.9405  0.8769
 7056TIP3   OH242658   5.583   0.398   3.116  0.1118 -0.5502  0.4702
 7056TIP3    H142659   5.517   0.433   3.177 -0.8593 -1.4143 -0.0541
 7056TIP3    H242660   5.585   0.304   3.134  1.3821 -0.5062  0.6233
 7057TIP3   OH242661   5.639   0.904  16.063  0.0066  0.1650  0.2797
 7057TIP3    H142662   5.710   0.907  16.127  0.3284 -0.3813 -0.0484
 7057TIP3    H242663   5.632   0.812  16.038 -2.0378 -0.1291  1.6663
 7058TIP3   OH242664   6.218   0.865  12.892 -0.4725 -0.0691  0.2711
 7058TIP3    H142665   6.193   0.925  12.821 -1.0363  0.4963  0.9209
 7058TIP3    H242666   6.312   0.876  12.902 -0.3019 -0.5628 -0.7532
 7059TIP3   OH242667   0.080   0.489   2.170  0.2804 -0.0865 -0.1442
 7059TIP3    H142668   0.166   0.473   2.131 -1.4988 -1.4345 -4.0459
 7059TIP3    H242669   0.056   0.577   2.140 -0.6728 -0.7021 -1.2595
 7060TIP3   OH242670   6.203   5.913   0.280  0.1161  0.2629 -0.1902
 7060TIP3    H142671   6.182   6.006   0.288  1.4806  0.7853 -2.1654
 7060TIP3    H242672   6.234   5.888   0.367  1.0827  2.0111  0.0015
 7061TIP3   OH242673   5.904   4.952  15.308 -0.2084  0.0391  0.3269
 7061TIP3    H142674   5.967   5.008  15.352  0.2185 -0.0791 -0.1301
 7061TIP3    H242675   5.913   4.974  15.215 -0.8409  0.0243  0.2582
 7062TIP3   OH242676   0.102   2.738  11.286 -0.2360 -0.0188 -0.2050
 7062TIP3    H142677   0.189   2.742  11.327 -0.4187  1.8090  0.1064
 7062TIP3    H242678   0.043   2.715  11.358 -0.0047 -1.6298 -0.4902
 7063TIP3   OH242679   1.682   1.473  13.183  0.1170 -0.2265 -0.4580
 7063TIP3    H142680   1.718   1.561  13.198 -1.7278  0.5218 -0.1243
 7063TIP3    H242681   1.714   1.448  13.097  0.0938  1.1068 -0.8778
 7064TIP3   OH242682   4.145   0.471  16.444 -0.5103  0.2520 -0.2660
 7064TIP3    H142683   4.101   0.489  16.361 -0.8324 -0.9371 -0.3781
 7064TIP3    H242684   4.090   0.404  16.486  0.7249 -0.6623 -0.0412
 7065TIP3   OH242685   3.635   4.107   4.295 -0.0971 -0.2781 -0.2427
 7065TIP3    H142686   3.569   4.159   4.342  1.0652 -0.4953  1.7725
 7065TIP3    H242687   3.718   4.131   4.337  0.7701 -1.9783 -0.8835
 7066TIP3   OH242688   5.721   6.327   1.709 -0.2061 -0.6309  0.5296
 7066TIP3    H142689   5.773   6.392   1.755  1.7061 -0.8626 -1.1391
 7066TIP3    H242690   5.675   6.377   1.641 -0.8365 -0.6693  0.9213
 7067TIP3   OH242691   5.323   1.404  11.923 -0.1713  0.0066  0.4112
 7067TIP3    H142692   5.277   1.486  11.941 -0.3661  0.2779 -1.2152
 7067TIP3    H242693   5.282   1.370  11.844  2.3923  0.2583 -1.1167
 7068TIP3   OH242694   0.846   3.688  15.370 -0.1544 -0.1746 -0.2919
 7068TIP3    H142695   0.920   3.634  15.396  1.2915  2.4895  1.5700
 7068TIP3    H242696   0.820   3.733  15.450 -1.0311  2.1235 -1.7744
 7069TIP3   OH242697   0.215   3.995  13.911  0.0556 -0.0873  0.0007
 7069TIP3    H142698   0.120   4.007  13.913 -0.0264 -0.2220 -1.6079
 7069TIP3    H242699   0.247   4.064  13.853  0.7598 -0.9444 -0.6662
 7070TIP3   OH242700   3.121   6.052  16.820 -0.4423 -0.0959 -0.1106
 7070TIP3    H142701   3.088   5.963  16.808  1.7554 -0.8116 -1.2922
 7070TIP3    H242702   3.185   6.045  16.891 -0.3458  0.5721 -0.1206
 7071TIP3   OH242703   3.323   6.769  14.480  0.2815 -0.2295  0.4037
 7071TIP3    H142704   3.228   6.777  14.491 -0.0170 -0.4412 -1.6291
 7071TIP3    H242705   3.339   6.675  14.485  0.3769 -0.1971  0.6999
 7072TIP3   OH242706   2.726   6.233   2.824 -0.2276  0.2893  0.2086
 7072TIP3    H142707   2.738   6.138   2.821 -1.6974  0.0889 -0.0729
 7072TIP3    H242708   2.757   6.264   2.739  0.0739  0.0401  0.2281
 7073TIP3   OH242709   0.510   5.542   6.206 -0.6613 -0.1020  0.1743
 7073TIP3    H142710   0.452   5.487   6.259  0.3505 -1.4557 -0.0681
 7073TIP3    H242711   0.588   5.554   6.260 -0.8965  1.2078  0.2603
 7074TIP3   OH242712   3.444   6.353   6.269  0.7411  0.0432 -0.5548
 7074TIP3    H142713   3.351   6.348   6.244  0.7103 -1.5508 -0.2294
 7074TIP3    H242714   3.461   6.270   6.313  1.6709  1.3665  1.7283
 7075TIP3   OH242715   5.191   5.614  15.432  0.0645 -0.6514  0.2627
 7075TIP3    H142716   5.246   5.624  15.510  0.4267 -0.4344 -0.0166
 7075TIP3    H242717   5.236   5.546  15.381  1.1099  0.8109 -0.8394
 7076TIP3   OH242718   0.672   6.185  13.900 -0.2349 -0.6134  0.1948
 7076TIP3    H142719   0.652   6.172  13.807  2.6122 -1.3622 -0.3887
 7076TIP3    H242720   0.723   6.266  13.902 -1.3136  0.0706  1.3176
 7077TIP3   OH242721   1.484   5.290  11.552  0.1289 -0.1421  0.7722
 7077TIP3    H142722   1.416   5.223  11.545 -1.1892  1.2182 -0.1218
 7077TIP3    H242723   1.470   5.330  11.638 -1.1342  1.0168  0.0788
 7078TIP3   OH242724   5.616   1.829   0.896 -0.3280 -0.4729  0.1177
 7078TIP3    H142725   5.598   1.920   0.872 -0.6227 -0.5181  0.1599
 7078TIP3    H242726   5.704   1.830   0.932  0.0831 -0.3830 -0.8586
 7079TIP3   OH242727   3.654   0.660   1.496 -0.0246  0.5371 -0.3939
 7079TIP3    H142728   3.607   0.664   1.580 -1.4934  1.0789 -1.2122
 7079TIP3    H242729   3.731   0.606   1.515 -1.0575 -0.5549  0.9743
 7080TIP3   OH242730   3.915   0.546  10.698  0.1767 -0.6729  0.4285
 7080TIP3    H142731   3.996   0.517  10.741  0.1143 -2.5864 -0.6176
 7080TIP3    H242732   3.927   0.640  10.685  1.8393 -0.7555  1.1055
 7081TIP3   OH242733   6.122   3.663  16.123  0.5519  0.1611 -0.1353
 7081TIP3    H142734   6.040   3.646  16.076  0.2142 -0.1698  0.5550
 7081TIP3    H242735   6.097   3.722  16.194  1.0902  0.7959 -0.4660
 7082TIP3   OH242736   0.409   3.061  11.190  0.3830 -0.3068  0.4304
 7082TIP3    H142737   0.450   3.147  11.185 -2.7753  1.4694  1.8335
 7082TIP3    H242738   0.401   3.043  11.284 -2.0428 -0.4423  0.2621
 7083TIP3   OH242739   2.525   3.006   1.117 -0.0522  0.1521  0.1163
 7083TIP3    H142740   2.606   3.049   1.088  0.1567  2.1067  3.1102
 7083TIP3    H242741   2.554   2.943   1.183 -0.8590 -0.4108 -0.0608
 7084TIP3   OH242742   3.205   1.220  14.444  0.5793  0.2950  0.1689
 7084TIP3    H142743   3.270   1.149  14.445  0.2996  0.0312 -0.0137
 7084TIP3    H242744   3.133   1.185  14.391 -0.4719 -0.0896  1.7990
 7085TIP3   OH242745   6.057   5.000  13.219  0.4394  0.2821  0.1191
 7085TIP3    H142746   6.088   4.975  13.307  0.4914 -1.3066 -0.3125
 7085TIP3    H242747   5.962   5.006  13.228  0.4361  0.0198  0.2641
 7086TIP3   OH242748   2.558   5.103  14.652  0.6574  0.2109  0.1789
 7086TIP3    H142749   2.483   5.069  14.603 -0.4168 -0.3263  2.1107
 7086TIP3    H242750   2.634   5.085  14.596 -0.5867  0.3601 -1.6109
 7087TIP3   OH242751   5.113   0.107  17.025  0.6482 -0.2598  0.4484
 7087TIP3    H142752   5.203   0.138  17.020  1.2921 -2.2084 -1.6270
 7087TIP3    H242753   5.082   0.107  16.935 -1.4234  0.2454  1.1067
 7088TIP3   OH242754   2.565   5.378   0.229 -0.5037 -0.5528  0.1083
 7088TIP3    H142755   2.591   5.309   0.291  0.7248  0.7197  1.0559
 7088TIP3    H242756   2.501   5.430   0.277  1.1681  1.0147  0.7143
 7089TIP3   OH242757   3.036   0.162   5.909 -0.1426  0.0354 -0.0163
 7089TIP3    H142758   2.955   0.131   5.949  0.2012 -0.0433  0.6319
 7089TIP3    H242759   3.036   0.257   5.926 -0.6090  0.2069 -0.9433
 7090TIP3   OH242760   0.867   3.824   1.986 -0.5199 -0.2973 -0.0978
 7090TIP3    H142761   0.862   3.834   1.891 -1.0827 -1.4484 -0.2080
 7090TIP3    H242762   0.952   3.783   2.002 -0.5854 -0.4449 -0.1322
 7091TIP3   OH242763   6.052   4.628   2.207 -0.2757 -0.5061 -0.0419
 7091TIP3    H142764   6.095   4.699   2.160  0.2896 -1.3344 -0.8135
 7091TIP3    H242765   6.026   4.667   2.291  0.0055  0.6024 -0.4508
 7092TIP3   OH242766   0.639   3.091   6.329  0.3273 -0.3091 -0.1498
 7092TIP3    H142767   0.652   3.001   6.299 -1.9137 -1.0144  0.7589
 7092TIP3    H242768   0.671   3.091   6.419 -0.3713 -0.4279  0.1053
 7093TIP3   OH242769   1.408   6.460   1.125 -0.4892 -0.4264  0.2867
 7093TIP3    H142770   1.366   6.375   1.108  0.9036 -1.4786  1.7587
 7093TIP3    H242771   1.499   6.437   1.144 -0.4283  1.2431  2.2436
 7094TIP3   OH242772   5.039   4.434   5.268 -0.1881 -0.2170  0.6797
 7094TIP3    H142773   5.059   4.511   5.321 -1.8089  1.3940 -0.9147
 7094TIP3    H242774   4.944   4.430   5.265 -0.1790 -2.7335  1.2390
 7095TIP3   OH242775   2.347   6.269  14.226  0.3961 -0.6060  0.3211
 7095TIP3    H142776   2.260   6.229  14.214  0.5029 -1.3099  1.6560
 7095TIP3    H242777   2.336   6.358  14.193 -0.7355 -0.7887  0.1280
 7096TIP3   OH242778   4.275   1.197   1.547  0.1026  0.0849  0.2755
 7096TIP3    H142779   4.225   1.167   1.471 -0.0551 -0.0118  0.4162
 7096TIP3    H242780   4.216   1.184   1.621 -0.6401  2.3725  0.1389
 7097TIP3   OH242781   4.341   3.563   4.572  0.4127 -0.5164 -0.2871
 7097TIP3    H142782   4.420   3.612   4.545 -0.4619  0.3626 -1.3688
 7097TIP3    H242783   4.332   3.494   4.506  0.5055 -0.8871  0.0831
 7098TIP3   OH242784   0.495   5.102  12.205 -0.1463 -0.3396  0.6819
 7098TIP3    H142785   0.488   5.029  12.267 -0.2541 -1.8390 -1.0367
 7098TIP3    H242786   0.432   5.082  12.136  1.5684  0.0902 -1.0931
 7099TIP3   OH242787   5.933   6.162  10.863  0.8211  0.3292  0.3790
 7099TIP3    H142788   5.926   6.068  10.849 -0.8868  0.3795  0.6517
 7099TIP3    H242789   5.903   6.201  10.781  3.4077  0.7010 -0.4910
 7100TIP3   OH242790   2.023   1.051  16.408 -0.4738  0.2683 -0.6238
 7100TIP3    H142791   1.974   1.127  16.440 -2.3070 -0.9347 -0.4315
 7100TIP3    H242792   1.984   0.977  16.454  1.9036 -0.7267 -0.1050
 7101TIP3   OH242793   5.547   3.392   4.391 -0.2343  0.4621  0.7503
 7101TIP3    H142794   5.564   3.465   4.332 -0.3645  0.2830  0.4933
 7101TIP3    H242795   5.452   3.387   4.396 -0.2255  0.7568  1.3237
 7102TIP3   OH242796   6.684   4.082   2.366  0.2346  0.6283  0.1085
 7102TIP3    H142797   6.679   4.087   2.461  0.6250  0.0875  0.1590
 7102TIP3    H242798   6.645   4.164   2.336  1.0745  1.2878  0.7597
 7103TIP3   OH242799   4.464   6.453  14.328 -0.1949 -0.1879  0.3240
 7103TIP3    H142800   4.516   6.495  14.396 -0.8946  0.0617  0.7143
 7103TIP3    H242801   4.448   6.522  14.264  2.2107 -0.9236 -1.1714
 7104TIP3   OH242802   1.264   5.611  13.290 -0.4751  0.0938 -0.3062
 7104TIP3    H142803   1.342   5.566  13.258 -0.0611  1.3313 -1.1017
 7104TIP3    H242804   1.222   5.645  13.211 -0.9813  0.7750  0.2456
 7105TIP3   OH242805   2.784   0.060   5.955 -0.2174 -0.0819  0.1825
 7105TIP3    H142806   2.732   0.106   5.888 -1.5470 -1.3667  0.2768
 7105TIP3    H242807   2.738  -0.024   5.967  1.9709 -1.3417  0.1900
 7106TIP3   OH242808   0.973   2.982   5.744  0.0277  0.4058  0.5110
 7106TIP3    H142809   1.015   3.061   5.709 -0.9577  0.5578 -0.3864
 7106TIP3    H242810   0.881   2.992   5.721 -0.4671 -0.0721  2.1504
 7107TIP3   OH242811   3.890   3.046   5.751 -0.1717  0.3180 -0.6501
 7107TIP3    H142812   3.838   3.067   5.673 -1.5755  0.0316  0.1643
 7107TIP3    H242813   3.829   2.998   5.808  0.6963  0.8714  0.8029
 7108TIP3   OH242814   0.827   1.420   3.354 -0.1161  0.1499  0.7121
 7108TIP3    H142815   0.846   1.496   3.409 -2.7732  0.2271  1.6439
 7108TIP3    H242816   0.910   1.402   3.309  0.7861  3.1571  0.9628
 7109TIP3   OH242817   5.208   3.244  14.829  0.4654 -0.3918  0.2539
 7109TIP3    H142818   5.302   3.243  14.848  1.0514 -1.0834 -2.3030
 7109TIP3    H242819   5.189   3.157  14.793 -1.2823 -0.4316  1.1506
 7110TIP3   OH242820   6.067   0.632  12.712  0.1057 -0.2548 -0.4362
 7110TIP3    H142821   6.160   0.629  12.738 -0.2442  0.6619  1.0572
 7110TIP3    H242822   6.069   0.632  12.616  1.8533  3.0248 -0.5478
 7111TIP3   OH242823   5.037   3.761   4.346 -0.5934  0.3873  0.0623
 7111TIP3    H142824   5.085   3.680   4.364  1.2188  0.7979 -2.4793
 7111TIP3    H242825   4.946   3.733   4.335 -0.1401 -1.1743  0.0470
 7112TIP3   OH242826   1.919   3.786   5.801  0.0124 -0.2287  0.0852
 7112TIP3    H142827   2.001   3.827   5.771  0.4893 -0.9469  0.3870
 7112TIP3    H242828   1.922   3.698   5.764 -1.1402  0.0818 -0.7954
 7113TIP3   OH242829   3.888   4.477  12.877  0.0282 -0.1061  0.5337
 7113TIP3    H142830   3.817   4.528  12.915  0.0697  0.7323 -0.4888
 7113TIP3    H242831   3.864   4.464  12.786  2.1706  2.1143 -0.4576
 7114TIP3   OH242832   5.285   3.866  13.588 -0.4772  0.4396 -0.1532
 7114TIP3    H142833   5.314   3.833  13.673 -2.0342 -0.0859  0.2066
 7114TIP3    H242834   5.364   3.904  13.549  0.9102 -1.7215  0.3518
 7115TIP3   OH242835   6.605   2.572   5.703  0.0700 -0.1298 -0.2167
 7115TIP3    H142836   6.549   2.507   5.745  0.4754 -1.1979 -1.2718
 7115TIP3    H242837   6.580   2.655   5.743  0.2314 -1.0414  1.8940
 7116TIP3   OH242838   5.422   5.483   5.166  0.0900 -0.1376  0.7526
 7116TIP3    H142839   5.518   5.479   5.173 -0.0001 -0.6514  1.9584
 7116TIP3    H242840   5.402   5.434   5.086  0.7607 -1.3634  1.3037
 7117TIP3   OH242841   0.734   4.192  12.740 -0.2084  1.0374 -0.1301
 7117TIP3    H142842   0.764   4.149  12.821 -1.2539  0.8141  0.1589
 7117TIP3    H242843   0.755   4.129  12.671 -3.0452 -0.7474  0.4373
 7118TIP3   OH242844   1.621   4.099   2.756 -0.3647  0.7154  0.0747
 7118TIP3    H142845   1.697   4.099   2.814 -0.4238  1.4220  0.1708
 7118TIP3    H242846   1.655   4.132   2.672 -0.1186 -0.9953 -0.5457
 7119TIP3   OH242847   1.476   2.657   2.718 -0.3438  0.1044  0.4537
 7119TIP3    H142848   1.462   2.602   2.640 -1.4426  0.1159  0.6224
 7119TIP3    H242849   1.535   2.606   2.773 -1.4571 -0.9942  0.6708
 7120TIP3   OH242850   6.581   1.234   0.125 -0.1850 -0.2024  0.5673
 7120TIP3    H142851   6.670   1.258   0.102 -0.6501 -0.2821 -1.5130
 7120TIP3    H242852   6.538   1.318   0.146  0.2538 -0.1205  1.1496
 7121TIP3   OH242853   0.450   4.739   0.684 -0.6687  0.5414  0.1112
 7121TIP3    H142854   0.519   4.725   0.748  1.9594 -0.2630 -2.6513
 7121TIP3    H242855   0.465   4.827   0.650 -2.7205  1.4048  1.2237
 7122TIP3   OH242856   4.964   0.501   5.406  0.2214 -0.0469 -0.2890
 7122TIP3    H142857   4.968   0.440   5.479  0.2956 -0.0060 -0.2591
 7122TIP3    H242858   5.023   0.464   5.340 -1.1177 -0.9902 -1.0153
 7123TIP3   OH242859   5.653   6.498  15.154 -0.0546 -0.0641  0.3347
 7123TIP3    H142860   5.661   6.461  15.066 -2.0039 -1.7310  0.7809
 7123TIP3    H242861   5.737   6.540  15.170  0.2327  0.6299 -2.4517
 7124TIP3   OH242862   6.445   0.644   5.221  1.1576 -0.1374  0.2550
 7124TIP3    H142863   6.371   0.616   5.275  1.9986  1.9356  2.6970
 7124TIP3    H242864   6.405   0.690   5.147 -0.0127  0.2636  1.1077
 7125TIP3   OH242865   4.872   0.220  17.183 -0.1809  0.5452  0.7815
 7125TIP3    H142866   4.941   0.221  17.117  0.0535 -0.3138  1.0022
 7125TIP3    H242867   4.847   0.312  17.194 -0.7110  0.6419 -1.0008
 7126TIP3   OH242868   6.308   1.885  11.002 -0.3950  0.1053  0.0217
 7126TIP3    H142869   6.378   1.913  10.944  0.4753  1.3474  1.5742
 7126TIP3    H242870   6.261   1.966  11.024 -0.5329 -0.2763  1.2319
 7127TIP3   OH242871   1.993   2.565   2.675  0.1876  0.1719 -0.7105
 7127TIP3    H142872   2.081   2.577   2.641  0.0290 -0.2887 -1.3195
 7127TIP3    H242873   1.958   2.653   2.686 -0.0343  0.3516 -2.5267
 7128TIP3   OH242874   2.553   5.122  12.232  0.0849 -0.1086 -0.7119
 7128TIP3    H142875   2.587   5.074  12.156 -1.5180 -0.1249 -1.4594
 7128TIP3    H242876   2.458   5.107  12.228  0.0890 -1.7482  2.4043
 7129TIP3   OH242877   6.446   0.707   2.889 -0.7364 -0.4224 -0.0412
 7129TIP3    H142878   6.443   0.768   2.963 -1.1602 -1.1657  0.5655
 7129TIP3    H242879   6.365   0.657   2.897  0.3856 -2.2219  0.4710
 7130TIP3   OH242880   3.324   0.880  15.845  0.4659  0.1059  0.2353
 7130TIP3    H142881   3.256   0.906  15.908  0.1170 -1.3330  0.4906
 7130TIP3    H242882   3.338   0.958  15.791 -1.1008  0.5636  0.4426
 7131TIP3   OH242883   6.065   5.196   4.424  0.4018 -0.2652  0.4515
 7131TIP3    H142884   6.008   5.267   4.396  0.7850 -0.1123  0.0445
 7131TIP3    H242885   6.143   5.239   4.459  1.0326 -0.4686 -0.6313
 7132TIP3   OH242886   3.367   0.969   4.400 -0.1536  0.1645 -0.2803
 7132TIP3    H142887   3.277   0.977   4.433 -0.2725 -2.1154  0.1036
 7132TIP3    H242888   3.391   0.878   4.419  1.4800  0.1228 -2.2597
 7133TIP3   OH242889   4.675   3.553  15.723  0.5942  0.3543  0.3813
 7133TIP3    H142890   4.726   3.485  15.768 -0.8910 -1.5193 -0.6341
 7133TIP3    H242891   4.596   3.563  15.776  0.7263  1.2099  0.4340
 7134TIP3   OH242892   5.157   6.040   0.766 -0.2767  0.1165  0.1736
 7134TIP3    H142893   5.214   6.111   0.738  0.5856 -0.7675 -0.3837
 7134TIP3    H242894   5.211   5.961   0.759 -0.3039 -0.3332  3.2993
 7135TIP3   OH242895   3.464   0.114  13.626 -0.0245  0.1461  0.2116
 7135TIP3    H142896   3.418   0.125  13.543 -1.1128  2.6519  1.0536
 7135TIP3    H242897   3.551   0.081  13.601 -0.9657 -1.0401 -1.7127
 7136TIP3   OH242898   5.326   0.115  12.606 -0.6083 -0.2388 -0.0156
 7136TIP3    H142899   5.352   0.194  12.653 -0.3392 -0.2912 -0.0726
 7136TIP3    H242900   5.400   0.055  12.616  0.0402  0.2266 -1.5936
 7137TIP3   OH242901   4.171   0.188   6.673  0.5133  0.6557 -0.4622
 7137TIP3    H142902   4.166   0.092   6.673  0.2186  0.6435 -1.8192
 7137TIP3    H242903   4.098   0.215   6.728  0.5599  0.0977 -0.1144
 7138TIP3   OH242904   0.093   3.944  11.517 -0.4473 -0.1991 -0.0867
 7138TIP3    H142905   0.043   4.008  11.465  0.8583  1.0801  0.1788
 7138TIP3    H242906   0.171   3.991  11.545  0.5195 -1.8947  0.2261
 7139TIP3   OH242907   2.383   1.922  15.850  0.3222 -0.1978 -0.5900
 7139TIP3    H142908   2.353   1.942  15.938  0.7479  0.1383 -0.5191
 7139TIP3    H242909   2.320   1.964  15.792  1.4018  1.6953 -0.4514
 7140TIP3   OH242910   3.405   3.931   2.955  0.3087 -0.4704  0.2718
 7140TIP3    H142911   3.344   3.989   3.002  0.0330 -1.6260  1.4002
 7140TIP3    H242912   3.422   3.976   2.872 -0.0254  1.1387  1.0293
 7141TIP3   OH242913   0.031   2.139   1.508 -0.1603 -0.1131 -0.2802
 7141TIP3    H142914  -0.038   2.075   1.521 -0.0894 -0.0779  0.2875
 7141TIP3    H242915   0.078   2.108   1.430 -2.4397  1.3158 -2.3622
 7142TIP3   OH242916   0.216   5.148  16.440  0.5593 -0.0898  0.6670
 7142TIP3    H142917   0.197   5.237  16.472 -2.1190 -1.1713  2.4250
 7142TIP3    H242918   0.137   5.122  16.393  0.7497 -1.9873  1.3110
 7143TIP3   OH242919   2.770   4.523   4.611 -0.0893  0.2409 -0.3680
 7143TIP3    H142920   2.793   4.612   4.585 -0.6791  1.2765  2.3008
 7143TIP3    H242921   2.855   4.480   4.623  0.3299  1.3148  0.8732
 7144TIP3   OH242922   4.732   6.084  14.474  0.0669 -0.0791 -0.2294
 7144TIP3    H142923   4.647   6.109  14.510  0.4827  0.7542  0.2149
 7144TIP3    H242924   4.716   6.003  14.426 -0.4861 -1.3523  1.9561
 7145TIP3   OH242925   3.766   6.143   4.423  0.1672 -0.3328  0.3605
 7145TIP3    H142926   3.772   6.057   4.465  1.1683 -0.3805  0.1489
 7145TIP3    H242927   3.693   6.135   4.361 -1.1057 -0.3637  1.8105
 7146TIP3   OH242928   0.677   1.198  10.922 -0.1199 -0.4767 -0.0247
 7146TIP3    H142929   0.686   1.186  11.017 -0.9017 -1.1636 -0.0235
 7146TIP3    H242930   0.597   1.150  10.900  0.7008 -1.3471 -1.2182
 7147TIP3   OH242931   6.283   3.768  12.084  0.1709 -0.1787  0.5780
 7147TIP3    H142932   6.301   3.857  12.112  1.5067 -0.3784  0.4433
 7147TIP3    H242933   6.310   3.766  11.992  0.9827 -0.9300  0.8179
 7148TIP3   OH242934   0.078   1.773  15.218 -0.3520  0.7556  0.1349
 7148TIP3    H142935   0.065   1.816  15.302 -0.9395 -0.7333  0.8472
 7148TIP3    H242936   0.098   1.844  15.157  0.6504  1.8145  1.6299
 7149TIP3   OH242937   4.420   1.618  13.589 -0.0306  0.4318  0.2903
 7149TIP3    H142938   4.504   1.658  13.610  0.0833 -0.4331  1.5514
 7149TIP3    H242939   4.356   1.670  13.638 -0.2528  1.0352 -0.6003
 7150TIP3   OH242940   0.093   2.364   4.564 -0.3293  0.3206  0.0022
 7150TIP3    H142941   0.171   2.411   4.537 -0.1267 -0.5995 -1.0767
 7150TIP3    H242942   0.088   2.379   4.659  1.9023 -0.6832  0.3425
 7151TIP3   OH242943   2.548   3.602   3.167  0.0041  0.4530 -0.8818
 7151TIP3    H142944   2.460   3.576   3.141 -0.4454 -1.0727  1.7614
 7151TIP3    H242945   2.539   3.692   3.197 -1.4032 -0.4729  1.8789
 7152TIP3   OH242946   2.194   2.702   6.188 -0.0666  0.0661 -0.1208
 7152TIP3    H142947   2.146   2.769   6.139  1.2893  2.1095  1.1682
 7152TIP3    H242948   2.221   2.747   6.268 -1.0380 -2.7245  1.9284
 7153TIP3   OH242949   1.987   6.795  14.920 -1.0388 -0.4456 -0.3989
 7153TIP3    H142950   2.074   6.834  14.917 -2.0606  2.0090 -0.5111
 7153TIP3    H242951   1.989   6.726  14.853  0.8703 -0.6147 -0.2064
 7154TIP3   OH242952   1.646   0.384   1.731  0.0640 -0.5159  0.1545
 7154TIP3    H142953   1.563   0.340   1.749 -0.2625  0.9167  2.6604
 7154TIP3    H242954   1.707   0.348   1.796  0.6798  0.3221  0.0624
 7155TIP3   OH242955   5.213   3.739   1.230  0.5672  0.0631  0.4019
 7155TIP3    H142956   5.194   3.765   1.320  1.8633 -0.1030  0.7405
 7155TIP3    H242957   5.135   3.765   1.180 -1.1415 -1.8295  1.9081
 7156TIP3   OH242958   3.739   3.284   6.361 -0.3700 -0.2407 -0.0839
 7156TIP3    H142959   3.686   3.225   6.415 -0.4302 -0.0748  0.0400
 7156TIP3    H242960   3.696   3.369   6.369 -0.4177 -0.2289 -0.4494
 7157TIP3   OH242961   6.777   5.660   0.391  0.4319 -0.5253  0.2536
 7157TIP3    H142962   6.784   5.601   0.466  0.8593 -2.0551 -0.9354
 7157TIP3    H242963   6.693   5.705   0.405  0.2218 -1.1954  1.3417
 7158TIP3   OH242964   4.590   6.744  14.794  0.0217 -0.1724 -0.3472
 7158TIP3    H142965   4.563   6.653  14.785 -0.1867  0.0244 -1.9297
 7158TIP3    H242966   4.660   6.755  14.729 -0.3491  0.9386 -0.5826
 7159TIP3   OH242967   3.021   4.797   0.768  0.5744  0.1313  0.6469
 7159TIP3    H142968   3.045   4.889   0.771  0.9871  0.0104  1.4158
 7159TIP3    H242969   2.983   4.779   0.854  1.0473 -0.5564  0.7263
 7160TIP3   OH242970   3.841   3.303   4.595 -0.4294  0.2216  0.5851
 7160TIP3    H142971   3.820   3.365   4.665  0.2020  0.2997  0.7106
 7160TIP3    H242972   3.831   3.217   4.635 -1.8940  0.2136  0.2459
 7161TIP3   OH242973   2.391   0.184  16.558 -0.6524  0.5181 -0.0452
 7161TIP3    H142974   2.471   0.137  16.576 -1.3560 -0.6016  0.2338
 7161TIP3    H242975   2.420   0.272  16.531  0.6107  0.3878  0.8282
 7162TIP3   OH242976   1.261   6.019  14.565 -0.0290 -0.0096  0.3534
 7162TIP3    H142977   1.289   5.970  14.488  0.2583  1.4746 -0.5276
 7162TIP3    H242978   1.165   6.018  14.560 -0.0190  1.1210 -0.7648
 7163TIP3   OH242979   5.005   2.282   3.692  0.2483  0.3839  0.1380
 7163TIP3    H142980   5.032   2.207   3.746 -1.4679 -1.8287 -1.8600
 7163TIP3    H242981   4.929   2.318   3.739  0.8994  0.7027  0.9649
 7164TIP3   OH242982   6.325   5.161   1.162  0.3256  0.3074  0.2687
 7164TIP3    H142983   6.322   5.084   1.106  1.5539  0.3571  0.1024
 7164TIP3    H242984   6.295   5.233   1.106  2.5367  0.5485 -0.7325
 7165TIP3   OH242985   4.832   5.056  16.282 -0.5461  0.0455 -0.5646
 7165TIP3    H142986   4.783   5.121  16.234 -0.7966  0.4666  0.2422
 7165TIP3    H242987   4.907   5.035  16.225 -0.6650  0.7533 -0.9909
 7166TIP3   OH242988   5.561   2.349  14.559  0.0256  0.5532 -0.0487
 7166TIP3    H142989   5.625   2.413  14.529 -0.1057  1.7476  1.9947
 7166TIP3    H242990   5.486   2.403  14.588 -0.9128 -0.6572 -0.1573
 7167TIP3   OH242991   5.365   2.473   6.303  0.1269 -0.5838  0.6867
 7167TIP3    H142992   5.414   2.525   6.365 -0.6180 -0.1039  0.8931
 7167TIP3    H242993   5.299   2.427   6.356 -0.0560 -0.7209  0.3479
 7168TIP3   OH242994   3.650   1.881   0.919  0.0590 -0.3753 -0.4220
 7168TIP3    H142995   3.627   1.797   0.879  1.5446 -0.5143 -1.0516
 7168TIP3    H242996   3.691   1.858   1.002 -0.4353 -0.2142 -0.1278
 7169TIP3   OH242997   0.703   5.994  16.541  0.4362  0.3350  0.4755
 7169TIP3    H142998   0.755   5.980  16.462 -0.5658  0.5221 -0.2481
 7169TIP3    H242999   0.765   5.984  16.613  1.3749  0.1538 -0.3315
 7170TIP3   OH243000   5.344   6.067  16.735 -0.0991 -0.8021 -0.3550
 7170TIP3    H143001   5.401   6.011  16.788 -0.0759 -0.7374 -0.3095
 7170TIP3    H243002   5.267   6.082  16.790 -0.7513 -1.9540 -0.9308
 7171TIP3   OH243003   1.097   0.134  15.052 -0.7154  0.1086 -0.3575
 7171TIP3    H143004   1.042   0.212  15.061 -0.7582 -0.0366  0.8589
 7171TIP3    H243005   1.141   0.126  15.137 -1.0389 -1.4121 -0.2970
 7172TIP3   OH243006   4.724   6.543  14.134 -0.1278 -0.0019 -0.4661
 7172TIP3    H143007   4.727   6.554  14.039  0.3685 -1.0228 -0.5821
 7172TIP3    H243008   4.689   6.455  14.147  0.2531 -0.0550  0.2768
 7173TIP3   OH243009   3.611   4.097   1.022  0.6259 -0.3148  0.1234
 7173TIP3    H143010   3.520   4.082   1.045  0.2944  0.2524 -0.7604
 7173TIP3    H243011   3.656   4.015   1.043 -0.3400 -1.0679 -0.6836
 7174TIP3   OH243012   2.694   2.591   4.450 -0.0077  0.6718  0.4942
 7174TIP3    H143013   2.656   2.615   4.365  1.8154 -0.7036 -0.7954
 7174TIP3    H243014   2.664   2.659   4.510  0.3463  2.9337 -1.7125
 7175TIP3   OH243015   3.525   6.167   2.304  0.7321  0.3720  0.3330
 7175TIP3    H143016   3.538   6.210   2.389  0.3304 -0.1688  0.6695
 7175TIP3    H243017   3.531   6.074   2.324 -1.0171  0.1731  0.0562
 7176TIP3   OH243018   3.125   2.061   4.838  0.0792 -0.3537  0.2093
 7176TIP3    H143019   3.117   2.064   4.934  0.5628  0.8512  0.2280
 7176TIP3    H243020   3.153   2.150   4.814  0.0856 -0.6852 -1.0389
 7177TIP3   OH243021   3.443   6.388   5.105  0.1619  0.4639 -0.5056
 7177TIP3    H143022   3.379   6.415   5.039 -0.6178  4.4264  1.5557
 7177TIP3    H243023   3.526   6.385   5.057 -0.9076 -1.0977 -2.4534
 7178TIP3   OH243024   5.895   1.555   4.134  0.6617 -0.0452  0.1802
 7178TIP3    H143025   5.886   1.590   4.223  0.8709 -0.0626  0.2090
 7178TIP3    H243026   5.822   1.494   4.125  0.8629 -0.3311  0.4762
 7179TIP3   OH243027   4.936   5.244  13.501  0.3651  0.9758 -0.4364
 7179TIP3    H143028   4.852   5.251  13.455  1.2378  2.4483 -1.9079
 7179TIP3    H243029   4.979   5.168  13.461  0.2444  0.9572 -0.5317
 7180TIP3   OH243030   4.044   4.524  13.224 -0.3533 -0.7854 -0.6351
 7180TIP3    H143031   3.983   4.589  13.188 -1.2991 -1.5403 -0.4278
 7180TIP3    H243032   4.060   4.555  13.314  2.9748  1.7862 -1.9073
 7181TIP3   OH243033   2.095   1.124  12.494  0.2519 -0.2105  0.0261
 7181TIP3    H143034   2.010   1.108  12.453  0.5642  2.4733 -2.0120
 7181TIP3    H243035   2.158   1.079  12.438  0.3763 -0.0301  0.0201
 7182TIP3   OH243036   6.488   2.279  14.578 -0.0400 -0.2728  0.0937
 7182TIP3    H143037   6.519   2.190  14.562 -0.9102 -0.1707 -2.7146
 7182TIP3    H243038   6.500   2.324  14.494 -2.0842  1.4948  0.6536
 7183TIP3   OH243039   5.421   1.708  16.098  0.4436 -0.5385  0.3927
 7183TIP3    H143040   5.329   1.734  16.099 -0.3202 -3.0147  0.8326
 7183TIP3    H243041   5.433   1.665  16.013  1.4684  0.5054 -0.0274
 7184TIP3   OH243042   6.763   6.643  14.216  0.3613  0.5011  0.3052
 7184TIP3    H143043   6.811   6.653  14.134  1.0084  0.8611  0.7157
 7184TIP3    H243044   6.676   6.679  14.197  0.1737 -0.3396 -0.5012
 7185TIP3   OH243045   0.964   0.061  16.808 -0.1980 -0.0166 -0.1796
 7185TIP3    H143046   0.875   0.041  16.837  0.6431 -0.4528  2.3145
 7185TIP3    H243047   1.020   0.034  16.880  1.8639  1.6820 -1.0169
 7186TIP3   OH243048   2.215   3.633  16.643 -0.3030  0.0176  0.2075
 7186TIP3    H143049   2.156   3.597  16.709 -0.4360  0.1225  0.1465
 7186TIP3    H243050   2.171   3.712  16.612 -0.4532 -0.2706 -0.3202
 7187TIP3   OH243051   0.076   4.550   0.149 -0.0159 -0.2610  0.2254
 7187TIP3    H143052   0.003   4.592   0.194 -0.6206 -0.4898 -0.5129
 7187TIP3    H243053   0.119   4.621   0.102 -1.1300 -0.4463 -1.1457
 7188TIP3   OH243054   2.205   0.556   5.375 -0.1399 -0.5807  0.2485
 7188TIP3    H143055   2.222   0.489   5.441 -0.9558 -0.7249  0.3182
 7188TIP3    H243056   2.120   0.593   5.400 -0.0937 -0.1104 -0.2825
 7189TIP3   OH243057   0.970   5.358   6.544  0.4226  0.5064  1.0446
 7189TIP3    H143058   0.993   5.281   6.595  0.5143 -0.3317 -0.2210
 7189TIP3    H243059   1.052   5.385   6.502  0.2646  0.9181  0.9932
 7190TIP3   OH243060   6.490   2.667   0.931 -0.2413  0.5066 -0.2549
 7190TIP3    H143061   6.463   2.733   0.995 -0.4414  0.1335  0.0487
 7190TIP3    H243062   6.529   2.597   0.983 -2.1556 -0.6903 -0.3174
 7191TIP3   OH243063   0.967   3.595  16.648 -0.0995 -0.1893 -0.4748
 7191TIP3    H143064   1.009   3.606  16.562  0.5822  1.8392  0.0542
 7191TIP3    H243065   1.027   3.540  16.698  1.1284  1.2360 -0.3043
 7192TIP3   OH243066   6.373   2.262   3.076 -0.7584  0.1007 -0.5075
 7192TIP3    H143067   6.393   2.190   3.017 -1.8406 -0.0384 -0.7359
 7192TIP3    H243068   6.457   2.304   3.093 -0.3543 -0.1876 -1.7046
 7193TIP3   OH243069   1.220   1.305  14.760 -0.3513 -0.0924  0.0891
 7193TIP3    H143070   1.198   1.378  14.817 -2.5678 -0.7099  0.0858
 7193TIP3    H243071   1.204   1.338  14.671 -2.1787 -0.7780  0.1216
 7194TIP3   OH243072   0.213   0.451  15.948  0.1134  0.0524 -0.8358
 7194TIP3    H143073   0.295   0.414  15.982  0.2028  0.2355 -0.8483
 7194TIP3    H243074   0.205   0.413  15.860 -1.9239 -3.2226  0.5953
 7195TIP3   OH243075   3.541   2.346  15.076  0.5553 -0.0548  0.7907
 7195TIP3    H143076   3.472   2.301  15.125 -1.0575  1.3449 -0.0798
 7195TIP3    H243077   3.566   2.284  15.007 -1.4561  0.2172 -0.2494
 7196TIP3   OH243078   0.925   1.427   4.901 -0.3463  0.0042  0.0231
 7196TIP3    H143079   0.943   1.383   4.984 -0.8560  0.2399  0.2680
 7196TIP3    H243080   0.834   1.456   4.909 -0.0582  0.9992 -0.1756
 7197TIP3   OH243081   1.010   0.577  16.593  0.0747 -0.0235 -0.5547
 7197TIP3    H143082   0.930   0.596  16.543  0.5720 -1.1004 -1.8255
 7197TIP3    H243083   0.984   0.509  16.655 -0.1617  0.1350 -0.4779
 7198TIP3   OH243084   5.636   0.894   1.308  0.0175  0.3810  0.2820
 7198TIP3    H143085   5.543   0.907   1.327  0.1175  2.6444 -0.3958
 7198TIP3    H243086   5.680   0.912   1.391 -0.1085  0.1020  0.4096
 7199TIP3   OH243087   3.428   1.850   1.665  0.0243 -0.3701 -0.0678
 7199TIP3    H143088   3.414   1.938   1.632  0.3495  0.0446  0.8658
 7199TIP3    H243089   3.491   1.860   1.736 -1.7275 -0.9764  1.6937
 7200TIP3   OH243090   4.903   2.078  17.016  0.4703 -0.1550 -0.0285
 7200TIP3    H143091   4.820   2.114  17.049  0.8049  1.6547 -1.0404
 7200TIP3    H243092   4.878   2.021  16.943  0.1846  2.3253 -1.9818
 7201TIP3   OH243093   6.248   4.840   0.751 -0.2110 -0.2423 -0.2370
 7201TIP3    H143094   6.204   4.850   0.835  0.7985 -1.0043  0.4061
 7201TIP3    H243095   6.189   4.788   0.697  0.1294 -1.7607  0.8083
 7202TIP3   OH243096   0.775   0.931  15.317  0.4146 -0.0942 -0.1732
 7202TIP3    H143097   0.743   0.881  15.392 -0.2471 -1.3535 -1.2606
 7202TIP3    H243098   0.858   0.968  15.346  1.1172 -2.1152  0.5800
 7203TIP3   OH243099   6.477   0.487  16.832 -0.4530  0.0047 -0.6594
 7203TIP3    H143100   6.385   0.464  16.843 -0.7533 -0.3526 -3.2660
 7203TIP3    H243101   6.512   0.420  16.774  1.1165  0.8787 -0.7781
 7204TIP3   OH243102   5.709   0.714   0.898 -0.2312  0.0778 -0.2199
 7204TIP3    H143103   5.624   0.708   0.940 -1.2575 -1.0643 -2.3333
 7204TIP3    H243104   5.693   0.764   0.818  1.1671  0.1410 -0.4951
 7205TIP3   OH243105   2.620   5.256  17.198 -0.2511 -0.2028  0.2319
 7205TIP3    H143106   2.607   5.305  17.279  1.9035 -0.3495  0.7268
 7205TIP3    H243107   2.638   5.166  17.227 -1.4054 -0.7010 -0.5300
 7206TIP3   OH243108   0.319   6.249   3.361 -0.1230  0.2351 -0.5795
 7206TIP3    H143109   0.362   6.168   3.333  0.3446  0.6527 -1.1036
 7206TIP3    H243110   0.243   6.220   3.412  1.3499 -0.5141  1.2958
 7207TIP3   OH243111   6.305   5.835  14.621  0.0546  0.4654 -0.5646
 7207TIP3    H143112   6.361   5.913  14.622 -0.5572  0.9199  0.8763
 7207TIP3    H243113   6.216   5.869  14.614 -0.2274 -0.0848  0.2328
 7208TIP3   OH243114   4.243   3.586  14.505  0.1818 -0.0840 -0.0411
 7208TIP3    H143115   4.286   3.598  14.421  2.0826 -0.4003  0.8278
 7208TIP3    H243116   4.262   3.666  14.554  1.4450 -0.9756  1.0099
 7209TIP3   OH243117   5.832   0.989  13.071 -0.2643  0.2754 -0.1803
 7209TIP3    H143118   5.737   0.982  13.070 -0.2824  0.5059 -0.1215
 7209TIP3    H243119   5.862   0.911  13.024 -0.5384  1.1913 -1.9598
 7210TIP3   OH243120   3.548   2.626  16.110 -0.4692  0.0681  0.1486
 7210TIP3    H143121   3.546   2.705  16.162  1.7904 -0.2643  0.8512
 7210TIP3    H243122   3.631   2.630  16.062 -0.9557 -1.2055 -0.8914
 7211TIP3   OH243123   2.006   1.881   0.980  0.6639  0.3936 -0.0807
 7211TIP3    H143124   2.014   1.786   0.986 -1.0237  0.2593  0.3891
 7211TIP3    H243125   2.054   1.914   1.056 -0.8060 -0.2242  1.1697
 7212TIP3   OH243126   5.030   4.774  12.836  0.2737  0.3842 -0.1686
 7212TIP3    H143127   5.057   4.683  12.822 -1.0610  0.0708 -0.8625
 7212TIP3    H243128   5.062   4.820  12.758  0.4709  0.3979 -0.0799
 7213TIP3   OH243129   3.838   4.694   1.431 -0.2802  0.2174 -0.2332
 7213TIP3    H143130   3.775   4.629   1.462 -0.3596  0.2053 -0.4162
 7213TIP3    H243131   3.839   4.761   1.498  0.1618 -0.2084  0.1974
 7214TIP3   OH243132   5.833   5.409  14.338 -0.2514  0.1113 -0.3082
 7214TIP3    H143133   5.865   5.375  14.254  0.2264  1.3645 -0.6568
 7214TIP3    H243134   5.906   5.397  14.398  0.4345  1.6616 -0.7582
 7215TIP3   OH243135   6.498   4.532   3.455 -0.3381 -0.5780 -0.4643
 7215TIP3    H143136   6.414   4.498   3.486 -1.1678  1.4865 -0.3240
 7215TIP3    H243137   6.498   4.624   3.481  2.2794 -0.6742  0.1547
 7216TIP3   OH243138   0.965   5.475   0.679 -0.4163  0.1067  0.4882
 7216TIP3    H143139   1.056   5.505   0.687 -1.0312  2.1166  0.5364
 7216TIP3    H243140   0.950   5.425   0.759  0.3315  0.6566  0.9919
 7217TIP3   OH243141   6.766   2.322  15.778 -0.1528  0.0176 -0.3058
 7217TIP3    H143142   6.837   2.298  15.837 -0.4961  0.9761  0.5335
 7217TIP3    H243143   6.688   2.326  15.835 -0.8359 -0.7687 -1.1580
 7218TIP3   OH243144   0.792   0.866   4.194  0.6036 -0.1146  0.2250
 7218TIP3    H143145   0.866   0.874   4.254  0.0246  0.2747  0.9028
 7218TIP3    H243146   0.737   0.798   4.233  0.4600 -0.2018 -0.1246
 7219TIP3   OH243147   3.142   1.684   5.417  0.1524 -0.3210 -0.2474
 7219TIP3    H143148   3.230   1.664   5.384  0.9686 -0.2351  1.7404
 7219TIP3    H243149   3.086   1.620   5.373  1.5716 -1.9217  0.1365
 7220TIP3   OH243150   4.972   2.353  11.583  0.0108 -0.0134 -0.1221
 7220TIP3    H143151   5.059   2.350  11.621 -0.2943 -3.3558  0.6517
 7220TIP3    H243152   4.974   2.426  11.521  2.6502  1.3054  1.3981
 7221TIP3   OH243153   6.467   0.112   2.297 -0.3076 -0.6593 -0.1070
 7221TIP3    H143154   6.423   0.194   2.319  0.0878 -0.5107  0.1389
 7221TIP3    H243155   6.515   0.132   2.217  2.3213  0.3128  1.5641
 7222TIP3   OH243156   1.098   3.692   5.884  0.6042  0.3552 -0.3623
 7222TIP3    H143157   1.062   3.654   5.963 -2.1233  0.3303 -1.4998
 7222TIP3    H243158   1.033   3.756   5.856  2.9308  2.6565 -0.9656
 7223TIP3   OH243159   6.699   2.185  11.947 -0.7505  0.2377 -0.1691
 7223TIP3    H143160   6.609   2.207  11.926 -0.5977  1.3384  0.2646
 7223TIP3    H243161   6.733   2.262  11.993  0.0702 -0.5928  0.6744
 7224TIP3   OH243162   4.547   4.458   3.019 -0.0528  0.5292 -0.0958
 7224TIP3    H143163   4.548   4.385   2.957 -1.7654  1.7223 -1.6685
 7224TIP3    H243164   4.631   4.503   3.005 -0.1779  0.4534 -1.1882
 7225TIP3   OH243165   3.003   3.212   0.782  0.1804 -0.2894  0.7069
 7225TIP3    H143166   3.021   3.298   0.746 -2.1174 -1.1190 -2.9751
 7225TIP3    H243167   3.082   3.161   0.764 -0.1065 -0.0705 -1.5039
 7226TIP3   OH243168   0.901   2.959  17.004  0.0038 -0.1370 -0.4688
 7226TIP3    H143169   0.861   2.982  17.088 -1.3000  0.6104 -1.2631
 7226TIP3    H243170   0.868   2.871  16.985 -1.3514  0.4913 -1.1383
 7227TIP3   OH243171   1.385   2.866  14.206  0.2761 -0.0900  0.9775
 7227TIP3    H143172   1.432   2.858  14.289  1.2290  0.3324  0.4983
 7227TIP3    H243173   1.401   2.956  14.178  0.6057 -0.4401 -0.0219
 7228TIP3   OH243174   2.265   5.211   5.633  0.7469  0.5685 -0.5019
 7228TIP3    H143175   2.178   5.246   5.654  1.4625  2.3225 -0.3055
 7228TIP3    H243176   2.324   5.259   5.690  1.9018 -0.2750 -0.9631
 7229TIP3   OH243177   2.623   4.678   2.725  0.2393 -0.3288  0.1502
 7229TIP3    H143178   2.556   4.649   2.786 -0.2701  0.9008  0.1998
 7229TIP3    H243179   2.677   4.600   2.710 -0.2280 -0.9123  1.3626
 7230TIP3   OH243180   1.442   5.006  14.823 -0.0231 -0.0747  0.3235
 7230TIP3    H143181   1.528   4.967  14.841 -0.0811 -1.0379 -1.2601
 7230TIP3    H243182   1.384   4.966  14.887  1.1219  2.7280  3.3715
 7231TIP3   OH243183   0.632   2.733  16.500 -0.1557 -0.0925 -0.3622
 7231TIP3    H143184   0.546   2.704  16.532 -0.7733  2.6015  0.7127
 7231TIP3    H243185   0.692   2.712  16.572 -0.3106 -0.1056 -0.2348
 7232TIP3   OH243186   6.018   5.779  15.228 -0.5102  0.2702  0.7930
 7232TIP3    H143187   5.976   5.818  15.152  1.0527  0.1162 -0.1970
 7232TIP3    H243188   6.095   5.835  15.244  0.7325 -1.2820  0.4924
 7233TIP3   OH243189   6.329   5.530  15.119 -0.1010  0.5534  0.4503
 7233TIP3    H143190   6.247   5.491  15.089 -0.4397 -0.0358  2.0496
 7233TIP3    H243191   6.382   5.456  15.148  1.7861  0.7397 -2.2451
 7234TIP3   OH243192   2.768   0.229  13.192  0.1467 -0.4394 -0.2550
 7234TIP3    H143193   2.682   0.189  13.204  0.5355 -1.2471 -0.0891
 7234TIP3    H243194   2.750   0.312  13.149 -0.9715  0.7434  2.3048
 7235TIP3   OH243195   2.193   2.856   4.852 -0.0898 -0.2255 -0.2446
 7235TIP3    H143196   2.276   2.819   4.824  0.9957  0.5973  1.6859
 7235TIP3    H243197   2.168   2.915   4.781  0.9094 -0.5643 -0.8983
 7236TIP3   OH243198   2.894   2.500  15.346 -0.4042 -0.0941 -0.2991
 7236TIP3    H143199   2.889   2.533  15.256 -0.0508  1.5192  0.2525
 7236TIP3    H243200   2.803   2.486  15.372 -0.5921  0.9726 -0.3645
 7237TIP3   OH243201   2.530   1.039   6.044 -0.5832  0.2872  0.0373
 7237TIP3    H143202   2.458   1.087   6.003  0.4197  1.8535  0.0157
 7237TIP3    H243203   2.559   0.977   5.978 -1.6683 -0.1332 -0.0749
 7238TIP3   OH243204   3.321   0.634  12.758  0.0376  1.1844  0.1149
 7238TIP3    H143205   3.256   0.591  12.813  0.9469 -1.5900 -0.8134
 7238TIP3    H243206   3.400   0.637  12.812 -0.1100  2.1023  0.3002
 7239TIP3   OH243207   1.420   5.655  12.826 -0.3003  0.2484  0.2104
 7239TIP3    H143208   1.415   5.567  12.788 -0.2741  1.1502 -2.0324
 7239TIP3    H243209   1.333   5.671  12.862  0.0432 -1.1196  1.7834
 7240TIP3   OH243210   5.972   1.204   0.666  0.0310 -0.2868 -0.2925
 7240TIP3    H143211   5.954   1.235   0.755 -1.2477  0.1682 -0.6734
 7240TIP3    H243212   6.032   1.269   0.629 -0.6804  0.4066 -0.2641
 7241TIP3   OH243213   2.656   3.322  14.759  0.0078 -0.0005  0.0907
 7241TIP3    H143214   2.637   3.328  14.665  0.8761  0.3136 -0.0717
 7241TIP3    H243215   2.751   3.321  14.764 -0.0316 -1.4016  0.8896
 7242TIP3   OH243216   3.226   5.136   1.380 -0.5334  0.3793 -0.0277
 7242TIP3    H143217   3.248   5.228   1.398 -0.4821  0.0771  1.5625
 7242TIP3    H243218   3.310   5.090   1.384 -0.4725  0.3148 -1.3932
 7243TIP3   OH243219   3.575   5.716  12.311 -0.3206  0.2959  0.0137
 7243TIP3    H143220   3.516   5.664  12.256  1.3474 -0.8447 -0.7968
 7243TIP3    H243221   3.525   5.794  12.333 -1.6761 -0.0105 -1.7302
 7244TIP3   OH243222   6.006   6.383   2.543  0.4255 -0.2156 -0.4898
 7244TIP3    H143223   5.911   6.399   2.538  0.3822 -0.3448 -0.0984
 7244TIP3    H243224   6.041   6.461   2.586  0.5196 -0.0836 -0.8074
 7245TIP3   OH243225   3.702   4.686  14.024  0.1369  0.1177  0.8008
 7245TIP3    H143226   3.703   4.728  13.938  1.6691  1.6501  1.4984
 7245TIP3    H243227   3.795   4.681  14.048 -0.3204  0.9020  2.8900
 7246TIP3   OH243228   2.069   5.510  11.723 -0.2485  0.5615 -0.1479
 7246TIP3    H143229   2.087   5.439  11.784 -2.3143  0.6823  0.6791
 7246TIP3    H243230   2.123   5.583  11.754  0.2066  0.0297  0.3279
 7247TIP3   OH243231   5.859   6.565  17.000 -0.1048  0.3977  0.0285
 7247TIP3    H143232   5.930   6.516  16.958  0.4059  0.1160  1.1722
 7247TIP3    H243233   5.779   6.526  16.966  0.2662  0.8372 -1.4232
 7248TIP3   OH243234   5.689   6.116   2.494  0.3537 -0.1515  0.2999
 7248TIP3    H143235   5.719   6.167   2.418 -2.2939 -0.8239 -1.3190
 7248TIP3    H243236   5.597   6.097   2.476 -0.7916  0.6303  4.2682
 7249TIP3   OH243237   5.833   5.399   1.569  0.1164 -0.0960 -0.6192
 7249TIP3    H143238   5.780   5.464   1.523  0.1566 -0.2473 -0.8789
 7249TIP3    H243239   5.846   5.328   1.505 -1.4217 -1.1838  0.2101
 7250TIP3   OH243240   1.366   0.912  12.571  0.0062  0.1853  0.1690
 7250TIP3    H143241   1.411   0.833  12.599 -0.9211  0.2161  1.8727
 7250TIP3    H243242   1.310   0.935  12.645 -1.1611  1.3619 -1.0289
 7251TIP3   OH243243   3.428   2.045   1.324  0.1067  0.5705 -0.3822
 7251TIP3    H143244   3.416   2.070   1.415 -0.5148 -1.8522  0.2891
 7251TIP3    H243245   3.522   2.034   1.313  0.1741  0.8059 -0.0271
 7252TIP3   OH243246   5.131   2.656  15.158 -0.2430  0.1628 -0.5612
 7252TIP3    H143247   5.222   2.630  15.142 -0.1904 -0.0050 -0.0116
 7252TIP3    H243248   5.084   2.573  15.168 -0.7737  0.1929 -2.4471
 7253TIP3   OH243249   6.711   0.561   4.162 -0.0911 -0.5603 -0.7958
 7253TIP3    H143250   6.726   0.499   4.091  2.6277 -1.0388  0.0926
 7253TIP3    H243251   6.750   0.520   4.239 -0.7687  1.0224  0.4517
 7254TIP3   OH243252   4.557   6.547   2.262 -0.0539  0.0784 -0.0957
 7254TIP3    H143253   4.488   6.608   2.237  1.1582  0.6932 -2.2821
 7254TIP3    H243254   4.529   6.463   2.225 -0.3174 -0.0203  0.3215
 7255TIP3   OH243255   0.913   6.235  14.168  0.1704  0.3800  0.9463
 7255TIP3    H143256   0.957   6.223  14.084  1.1622 -0.7727  1.6082
 7255TIP3    H243257   0.841   6.172  14.167  0.1036  0.4578  0.9019
 7256TIP3   OH243258   2.592   5.066   5.278 -0.2972 -0.5054  0.4985
 7256TIP3    H143259   2.647   5.054   5.201 -1.2063  0.3355 -0.3094
 7256TIP3    H243260   2.539   4.987   5.283  0.1971 -0.8348  0.6405
 7257TIP3   OH243261   0.760   4.979   4.988 -0.4461 -0.0463  0.2854
 7257TIP3    H143262   0.692   4.971   5.054 -0.7699 -0.1923 -0.0637
 7257TIP3    H243263   0.809   5.058   5.013 -0.2117 -0.4150  1.0150
 7258TIP3   OH243264   0.977   5.784   3.447 -0.6615 -0.3774  0.2359
 7258TIP3    H143265   0.981   5.862   3.503  0.4068 -1.4100  1.6874
 7258TIP3    H243266   0.884   5.762   3.443 -0.9487  0.7977  0.0368
 7259TIP3   OH243267   0.432   3.316   3.336 -0.0302  0.5037 -0.4616
 7259TIP3    H143268   0.366   3.249   3.324  0.7391 -0.3045 -0.2742
 7259TIP3    H243269   0.503   3.292   3.276 -0.0519  1.5754 -0.9507
 7260TIP3   OH243270   4.490   2.181   6.277  0.1521  0.1529  0.4099
 7260TIP3    H143271   4.453   2.124   6.345  1.7200  0.1631  1.3247
 7260TIP3    H243272   4.537   2.248   6.326  1.4668  0.0633 -0.6880
 7261TIP3   OH243273   0.412   5.091  11.749  0.2087 -0.4990  0.1132
 7261TIP3    H143274   0.401   5.053  11.662  1.3537 -0.6292  0.0231
 7261TIP3    H243275   0.461   5.172  11.733  1.2165 -0.9873  0.7405
 7262TIP3   OH243276   0.807   1.288  16.222  0.5026  0.1270  0.2575
 7262TIP3    H143277   0.722   1.314  16.188  1.4699  0.3916 -2.1502
 7262TIP3    H243278   0.787   1.243  16.304 -1.8949  0.5859  0.0074
 7263TIP3   OH243279   6.790   3.459  11.905 -0.4183 -0.2727  0.3853
 7263TIP3    H143280   6.819   3.504  11.826 -1.3440 -0.9867 -0.3783
 7263TIP3    H243281   6.738   3.525  11.953  0.4418  0.2671  0.5899
 7264TIP3   OH243282   6.111   2.106  11.377 -0.1481 -0.2548 -0.2011
 7264TIP3    H143283   6.167   2.144  11.310 -1.0718  1.5411 -0.0084
 7264TIP3    H243284   6.097   2.016  11.348 -0.3575  0.4148 -2.3332
 7265TIP3   OH243285   5.805   0.673   5.236  0.4328 -0.0595 -0.0674
 7265TIP3    H143286   5.845   0.659   5.150  0.0564 -1.0819 -0.0885
 7265TIP3    H243287   5.869   0.637   5.298  0.5431  0.3478  0.0571
 7266TIP3   OH243288   6.359   1.371   2.605  0.5355  0.4656 -0.4640
 7266TIP3    H143289   6.441   1.324   2.587  0.1386 -0.2258 -0.4929
 7266TIP3    H243290   6.291   1.317   2.564  0.1673  1.5731 -1.3564
 7267TIP3   OH243291   3.150   2.208   2.738 -0.1051  0.3042 -0.1389
 7267TIP3    H143292   3.140   2.282   2.678 -0.5596 -0.2344 -0.7355
 7267TIP3    H243293   3.061   2.175   2.751  0.0929 -0.1486  0.1042
 7268TIP3   OH243294   3.591   5.170  15.313  0.8220 -0.3298 -0.3651
 7268TIP3    H143295   3.647   5.093  15.303 -1.7113 -2.6926  1.8243
 7268TIP3    H243296   3.528   5.164  15.242  0.0387 -0.9045  0.3513
 7269TIP3   OH243297   5.932   3.960   4.594 -0.1029  0.0752 -0.4179
 7269TIP3    H143298   5.918   3.879   4.642 -0.6372 -0.2630 -1.1352
 7269TIP3    H243299   5.845   3.992   4.574  0.0350  1.6491  1.1586
 7270TIP3   OH243300   2.510   0.288  14.761  0.1416 -0.2265  0.0404
 7270TIP3    H143301   2.485   0.203  14.798 -1.0287 -0.5800 -1.4256
 7270TIP3    H243302   2.598   0.304  14.795 -1.0144 -0.1806  3.4032
 7271TIP3   OH243303   5.651   1.193   2.186  0.0344  0.1434  0.0364
 7271TIP3    H143304   5.655   1.274   2.136 -0.4166 -0.9859 -1.9769
 7271TIP3    H243305   5.656   1.124   2.119  3.2154 -1.5711  1.7841
 7272TIP3   OH243306   5.013   4.562  11.866 -0.5353 -0.5717  0.3583
 7272TIP3    H143307   4.961   4.609  11.930  1.6109  0.3225  1.5529
 7272TIP3    H243308   5.073   4.627  11.830 -0.6213 -1.4089 -1.4173
 7273TIP3   OH243309   6.210   4.208   2.904  0.2577  0.4585  0.0879
 7273TIP3    H143310   6.222   4.296   2.870  0.8749  0.6224  0.7049
 7273TIP3    H243311   6.183   4.156   2.828 -1.8371  1.5148  0.0484
 7274TIP3   OH243312   3.389   3.328  14.095  0.6104  0.3228 -0.4554
 7274TIP3    H143313   3.448   3.342  14.021  1.5087 -0.4059  0.1049
 7274TIP3    H243314   3.303   3.350  14.061  0.6999 -1.8211 -2.3133
 7275TIP3   OH243315   3.971   4.254   2.256 -0.0877  0.3040  0.0605
 7275TIP3    H143316   3.979   4.338   2.302 -0.9202  0.0460  0.7020
 7275TIP3    H243317   4.050   4.249   2.202 -1.2817  2.7660 -2.1501
 7276TIP3   OH243318   0.374   0.904  16.378  0.2626 -0.4326  0.2038
 7276TIP3    H143319   0.281   0.892  16.394 -0.3544 -0.2784 -2.7945
 7276TIP3    H243320   0.389   0.997  16.391 -0.1919 -0.3205 -0.0508
 7277TIP3   OH243321   1.480   4.939   1.695  0.3781  0.3037 -0.0395
 7277TIP3    H143322   1.490   4.844   1.696  0.2509  0.2872  0.8043
 7277TIP3    H243323   1.565   4.973   1.725  0.0295  0.3993  0.8808
 7278TIP3   OH243324   6.829   0.114  14.625  0.3165  0.1059  0.3769
 7278TIP3    H143325   6.872   0.098  14.709  0.8704 -0.5047 -0.0105
 7278TIP3    H243326   6.831   0.030  14.581 -0.6209  0.2562  0.0351
 7279TIP3   OH243327   4.845   3.121  16.269 -0.0988  0.3297 -0.1086
 7279TIP3    H143328   4.877   3.198  16.222 -2.6884  1.6527  0.1112
 7279TIP3    H243329   4.836   3.054  16.201 -0.8397  1.2437 -0.9425
 7280TIP3   OH243330   1.208   5.212  13.800  0.4254 -0.3364 -0.0533
 7280TIP3    H143331   1.291   5.186  13.763  0.4647 -0.1248 -0.1150
 7280TIP3    H243332   1.207   5.308  13.792  0.9529 -0.1641  1.5389
 7281TIP3   OH243333   0.810   4.612   4.839  0.4339  0.1308 -0.4254
 7281TIP3    H143334   0.828   4.661   4.920 -2.4611  0.0903  0.3589
 7281TIP3    H243335   0.822   4.521   4.864  0.4402  0.1670 -0.2905
 7282TIP3   OH243336   5.970   0.040   5.084  0.1850 -0.3295  0.1549
 7282TIP3    H143337   5.962   0.074   5.173 -2.3017 -0.2028 -0.0471
 7282TIP3    H243338   5.992   0.116   5.030  0.5448 -0.1881  0.4971
 7283TIP3   OH243339   0.420   3.414  16.895 -0.4267  0.0433 -0.1528
 7283TIP3    H143340   0.475   3.380  16.966 -0.6433  2.7554  1.4464
 7283TIP3    H243341   0.478   3.414  16.818  1.4202  1.3905  1.1341
 7284TIP3   OH243342   6.365   5.576  16.222  0.0009 -0.6174  0.0858
 7284TIP3    H143343   6.294   5.556  16.161 -0.4973 -1.4847  0.9130
 7284TIP3    H243344   6.322   5.622  16.294  0.4592 -0.2277  0.1122
 7285TIP3   OH243345   4.769   3.819   3.041 -0.2377 -0.0545  0.1589
 7285TIP3    H143346   4.793   3.888   2.980  0.0905  2.6025  3.0470
 7285TIP3    H243347   4.808   3.739   3.004  1.5226  1.7105 -2.0850
 7286TIP3   OH243348   5.469   0.940   0.030 -0.1174 -0.1326 -0.4249
 7286TIP3    H143349   5.549   0.904   0.070 -0.1888 -1.8749 -1.7117
 7286TIP3    H243350   5.501   1.007  -0.030  0.5000 -1.2681 -1.4244
 7287TIP3   OH243351   0.448   4.812  16.708  0.0091  0.4781 -0.2465
 7287TIP3    H143352   0.507   4.846  16.640  0.6624  0.7831  0.4609
 7287TIP3    H243353   0.502   4.749  16.756 -0.4952  0.1606 -0.0871
 7288TIP3   OH243354   4.555   0.250   3.190  0.2069  0.6151  0.1571
 7288TIP3    H143355   4.508   0.172   3.160 -0.7093  0.5115  1.7356
 7288TIP3    H243356   4.625   0.216   3.246 -1.2978  0.8789  2.3627
 7289TIP3   OH243357   5.048   3.405  15.032  0.4069 -0.4917 -0.2600
 7289TIP3    H143358   5.124   3.399  15.090  1.4056  2.0165 -1.1942
 7289TIP3    H243359   5.077   3.369  14.949  1.3374  2.2068 -1.2132
 7290TIP3   OH243360   3.075   3.187   0.471  0.3674  0.4523 -0.3859
 7290TIP3    H143361   3.129   3.136   0.532 -0.1125  0.7737  0.3244
 7290TIP3    H243362   3.006   3.224   0.526 -1.0587 -0.6166 -1.4152
 7291TIP3   OH243363   2.536   1.085   0.520 -0.3444 -0.1520  0.1099
 7291TIP3    H143364   2.630   1.083   0.536 -0.4666  1.1148  1.2055
 7291TIP3    H243365   2.519   1.010   0.463  1.6444  0.9135 -2.0249
 7292TIP3   OH243366   5.502   3.011  10.173  0.1696 -0.4224 -0.2576
 7292TIP3    H143367   5.589   2.998  10.211  0.1792  0.4605  0.0444
 7292TIP3    H243368   5.478   2.925  10.139  0.1939 -1.2407  1.6922
 7293TIP3   OH243369   2.341   3.872   4.060 -0.0809 -0.2961  0.2087
 7293TIP3    H143370   2.290   3.852   3.982 -0.1941  0.9617 -0.0612
 7293TIP3    H243371   2.275   3.887   4.129  0.0280 -2.2112  0.7972
 7294TIP3   OH243372   6.194   4.698  15.714  0.1322  0.6519  0.1200
 7294TIP3    H143373   6.277   4.658  15.688  1.5776  3.4957 -0.0401
 7294TIP3    H243374   6.163   4.742  15.635 -2.9480 -2.3697 -0.5541
 7295TIP3   OH243375   5.338   2.321  11.956 -0.0615  0.3711  0.7111
 7295TIP3    H143376   5.405   2.376  11.915 -0.6658  1.0827  0.6626
 7295TIP3    H243377   5.387   2.250  11.998  0.6224 -0.1438 -0.8480
 7296TIP3   OH243378   2.769   5.805  16.435  0.0815 -0.0010 -0.5741
 7296TIP3    H143379   2.777   5.869  16.505  3.1163 -1.7280  0.8562
 7296TIP3    H243380   2.792   5.854  16.356 -0.6407  1.3338  0.0134
 7297TIP3   OH243381   0.180   1.550   0.585 -0.4773  0.6069 -0.2729
 7297TIP3    H143382   0.126   1.622   0.616  1.2305  1.9151 -0.1979
 7297TIP3    H243383   0.242   1.535   0.656  0.3794  0.3398 -1.0608
 7298TIP3   OH243384   3.852   2.766   0.183 -0.0138  0.0112 -0.9052
 7298TIP3    H143385   3.874   2.794   0.094 -3.4742  2.3881 -1.1771
 7298TIP3    H243386   3.826   2.846   0.228  0.7072 -1.2680  2.0245
 7299TIP3   OH243387   5.667   6.236  10.368 -0.2651 -0.0879  0.5459
 7299TIP3    H143388   5.663   6.159  10.313  2.2888  0.5820 -0.7329
 7299TIP3    H243389   5.603   6.296  10.331  0.5600 -0.1128 -0.9945
 7300TIP3   OH243390   1.662   2.790  15.988  0.2129  0.0643  0.1135
 7300TIP3    H143391   1.722   2.737  16.041 -1.4240 -0.6642  1.3394
 7300TIP3    H243392   1.593   2.729  15.962 -0.6758  1.1438 -0.1421
 7301TIP3   OH243393   5.878   6.002  12.117  0.3334 -0.4956 -0.1285
 7301TIP3    H143394   5.796   6.014  12.165  0.6428 -1.3522  0.6454
 7301TIP3    H243395   5.862   5.927  12.060  0.6325 -0.7707  0.1482
 7302TIP3   OH243396   5.976   1.612   2.208  0.2729 -0.2689 -0.8213
 7302TIP3    H143397   5.994   1.543   2.143 -1.0117 -0.9291 -0.5077
 7302TIP3    H243398   6.062   1.633   2.244  1.1458  0.6497 -3.2365
 7303TIP3   OH243399   2.353   4.665   6.007  0.1181  0.5643  0.2473
 7303TIP3    H143400   2.342   4.595   6.071 -2.5347  1.8952  1.3625
 7303TIP3    H243401   2.278   4.656   5.948  1.1015  0.9863 -1.1189
 7304TIP3   OH243402   4.237   2.438   4.460  0.0974  0.1182 -0.0325
 7304TIP3    H143403   4.294   2.399   4.393 -1.6433 -2.0743 -0.3350
 7304TIP3    H243404   4.209   2.521   4.422  2.6665  1.0621 -0.0519
 7305TIP3   OH243405   4.421   1.392  16.863 -0.1435  0.5031  0.3288
 7305TIP3    H143406   4.455   1.339  16.935 -0.1639  0.7276  0.5014
 7305TIP3    H243407   4.473   1.365  16.787 -0.6130 -0.2634  0.2668
 7306TIP3   OH243408   1.354   1.082  14.027  0.1003  0.6281 -0.5549
 7306TIP3    H143409   1.268   1.123  14.028  0.1210  0.6784  0.9885
 7306TIP3    H243410   1.415   1.156  14.028  0.1555  0.5771 -0.2337
 7307TIP3   OH243411   5.075   6.059  15.116  0.2816 -0.4468 -0.1702
 7307TIP3    H143412   5.137   6.092  15.181  0.6678  0.3128 -0.9145
 7307TIP3    H243413   5.129   6.019  15.049 -0.0525 -0.1917 -0.5987
 7308TIP3   OH243414   1.854   2.451  15.891 -0.2985  0.6814 -0.3688
 7308TIP3    H143415   1.842   2.524  15.831  0.4475  1.6816  0.6547
 7308TIP3    H243416   1.799   2.381  15.855 -1.6072  1.9635 -0.9873
 7309TIP3   OH243417   3.164   2.364   5.069 -0.7286  0.0479  0.6625
 7309TIP3    H143418   3.186   2.335   4.981  0.2835 -1.5867  1.3987
 7309TIP3    H243419   3.068   2.363   5.072 -0.7935  0.8578 -0.6224
 7310TIP3   OH243420   5.754   2.425   4.044  0.0524 -0.5954  0.5688
 7310TIP3    H143421   5.815   2.427   3.970 -1.9686 -0.2616 -1.1709
 7310TIP3    H243422   5.760   2.336   4.078 -0.3656 -1.3728 -1.2683
 7311TIP3   OH243423   6.389   6.408  17.123  0.2527  0.0786 -0.4964
 7311TIP3    H143424   6.455   6.425  17.189 -0.0431 -1.4141  0.2235
 7311TIP3    H243425   6.310   6.385  17.172 -0.2925  0.0623 -1.3477
 7312TIP3   OH243426   1.285   0.283   2.108  0.1560  0.1954 -0.3345
 7312TIP3    H143427   1.344   0.246   2.174 -0.6138 -0.2068  0.1374
 7312TIP3    H243428   1.284   0.377   2.126 -1.0304 -0.0467  1.0652
 7313TIP3   OH243429   6.276   6.072  13.385 -0.0148  0.2922  0.0861
 7313TIP3    H143430   6.193   6.024  13.383 -1.0115  1.9210 -0.5365
 7313TIP3    H243431   6.292   6.089  13.478 -0.4733  0.0917  0.2020
 7314TIP3   OH243432   0.978   6.450  12.092 -0.2082 -0.5047  0.2188
 7314TIP3    H143433   0.934   6.530  12.063 -1.6713 -2.1253 -2.4323
 7314TIP3    H243434   1.070   6.476  12.103 -0.4686  1.3644 -1.4730
 7315TIP3   OH243435   4.168   2.163  14.065 -0.9325  0.2240  0.1907
 7315TIP3    H143436   4.163   2.238  14.006 -0.6979 -1.3047 -1.8791
 7315TIP3    H243437   4.077   2.135  14.076 -0.9516  0.3395  0.3307
 7316TIP3   OH243438   3.962   3.733   4.133  0.5831  0.1470  0.2682
 7316TIP3    H143439   3.980   3.705   4.222 -0.2527  0.8366  0.6590
 7316TIP3    H243440   3.876   3.698   4.113  0.2624  0.9720  0.1552
 7317TIP3   OH243441   3.531   4.419   5.183 -0.4964 -0.0483  0.8562
 7317TIP3    H143442   3.563   4.479   5.250 -0.3172 -1.0793  1.7200
 7317TIP3    H243443   3.601   4.354   5.173 -0.5553  0.0384 -0.2827
 7318TIP3   OH243444   0.833   6.064   3.768  0.2711  0.3018 -0.0051
 7318TIP3    H143445   0.899   6.057   3.837  1.6978  3.4193 -0.8802
 7318TIP3    H243446   0.791   5.978   3.767  1.6126 -0.5640  3.2640
 7319TIP3   OH243447   4.911   0.151   1.899  0.0457  0.2098  0.4767
 7319TIP3    H143448   4.854   0.089   1.945 -1.7577  2.4551  1.4545
 7319TIP3    H243449   4.985   0.163   1.958 -1.7403  2.2649  2.4746
 7320TIP3   OH243450   2.780   1.890  11.825 -0.1297  0.1856 -0.4211
 7320TIP3    H143451   2.852   1.942  11.860  1.2537 -0.6314 -1.8562
 7320TIP3    H243452   2.745   1.843  11.900 -1.1236  2.7359  0.8345
 7321TIP3   OH243453   4.811   3.986  14.130  0.1757 -0.4953  0.1574
 7321TIP3    H143454   4.859   3.940  14.199 -0.3589 -0.8944  0.2688
 7321TIP3    H243455   4.736   3.930  14.111  0.4989 -0.5670 -1.0028
 7322TIP3   OH243456   5.420   5.533  15.729  0.2851  0.0536 -0.1977
 7322TIP3    H143457   5.430   5.539  15.824 -0.7909 -0.7833 -0.0157
 7322TIP3    H243458   5.503   5.566  15.694  1.3188 -1.1013  1.0602
 7323TIP3   OH243459   6.456   1.486  11.783  0.1256 -0.7789 -0.4671
 7323TIP3    H143460   6.467   1.576  11.752  1.3806 -0.3548  1.0868
 7323TIP3    H243461   6.543   1.447  11.776 -0.4006 -1.9012 -1.1120
 7324TIP3   OH243462   2.942   3.266  14.344 -0.1198  0.2301 -0.7144
 7324TIP3    H143463   2.989   3.339  14.385  1.2598  0.2808 -2.2853
 7324TIP3    H243464   2.868   3.308  14.299  0.5574  0.6631 -1.4497
 7325TIP3   OH243465   1.321   5.090   1.539 -0.0998  0.0984  0.9210
 7325TIP3    H143466   1.257   5.123   1.602 -0.2498 -1.3143  1.5559
 7325TIP3    H243467   1.371   5.024   1.588 -0.5536 -1.4142 -0.5676
 7326TIP3   OH243468   3.586   1.451   5.532 -0.7570  0.2492  0.2830
 7326TIP3    H143469   3.554   1.407   5.454 -2.0576 -1.1771  1.5361
 7326TIP3    H243470   3.506   1.481   5.576 -0.1196  0.1911  1.5203
 7327TIP3   OH243471   2.272   3.833   0.899 -0.3480 -0.4767 -0.3627
 7327TIP3    H143472   2.259   3.801   0.988  2.7222  0.6164  0.6067
 7327TIP3    H243473   2.229   3.919   0.897  0.2879 -0.1315  0.3703
 7328TIP3   OH243474   6.704   1.202   1.805 -0.1812 -0.1740 -0.3377
 7328TIP3    H143475   6.644   1.137   1.769 -3.0278  2.2947 -0.4305
 7328TIP3    H243476   6.685   1.283   1.757  3.8984  0.6754 -0.9580
 7329TIP3   OH243477   3.811   0.882   6.053 -0.1790  0.1551  0.5834
 7329TIP3    H143478   3.805   0.827   6.131 -0.1022 -0.6376  0.0446
 7329TIP3    H243479   3.727   0.869   6.009  0.1708 -0.2151  0.0155
 7330TIP3   OH243480   2.930   3.349  12.826 -0.0335  0.1391 -0.0010
 7330TIP3    H143481   2.863   3.387  12.769 -0.9241 -0.8126  0.3703
 7330TIP3    H243482   2.900   3.367  12.915 -0.0518 -0.6932  0.1707
 7331TIP3   OH243483   2.740   1.791   1.321  0.2415 -0.1945 -0.0605
 7331TIP3    H143484   2.783   1.796   1.406 -1.6522 -1.4618  1.0511
 7331TIP3    H243485   2.693   1.708   1.322 -0.4253  0.0881 -2.0624
 7332TIP3   OH243486   6.702   1.132  16.609 -0.2010 -0.0242  0.0618
 7332TIP3    H143487   6.656   1.048  16.613  0.1502 -0.1836  1.2568
 7332TIP3    H243488   6.708   1.152  16.516 -0.2259 -1.3580 -0.2448
 7333TIP3   OH243489   0.412   4.659   0.032  0.4370  0.4214 -0.3436
 7333TIP3    H143490   0.356   4.603  -0.022  1.4477  0.3525 -1.3526
 7333TIP3    H243491   0.351   4.705   0.090 -0.4461 -1.5570  0.3746
 7334TIP3   OH243492   6.632   6.599  15.426  0.1326 -0.4289  0.0921
 7334TIP3    H143493   6.551   6.572  15.383  0.3455  0.4385 -0.9019
 7334TIP3    H243494   6.697   6.534  15.399  0.0994 -0.2912 -0.3268
 7335TIP3   OH243495   3.103   4.852  13.679  0.0660 -0.3838 -0.2774
 7335TIP3    H143496   3.024   4.891  13.642  1.0361  0.6291 -1.3477
 7335TIP3    H243497   3.105   4.763  13.643  0.2143  0.1045 -1.5332
 7336TIP3   OH243498   4.241   5.957  14.077 -0.6634 -0.6892  0.2261
 7336TIP3    H143499   4.308   6.002  14.025  0.6044 -1.3803  1.1752
 7336TIP3    H243500   4.166   6.016  14.077  0.3025  0.5797 -0.0855
 7337TIP3   OH243501   3.936   5.966   2.890  0.4272  0.1387  0.2641
 7337TIP3    H143502   3.950   5.946   2.797 -1.3009  1.6838 -0.3958
 7337TIP3    H243503   3.867   5.906   2.918 -1.0412  1.4865 -0.2825
 7338TIP3   OH243504   3.607   4.594   0.049 -0.3357 -0.2208  0.4003
 7338TIP3    H143505   3.640   4.678   0.082  0.1476  1.0291 -2.8799
 7338TIP3    H243506   3.512   4.600   0.059 -0.4877  1.6310 -1.4632
 7339TIP3   OH243507   2.491   4.875  16.040  0.0740  1.0021  0.3808
 7339TIP3    H143508   2.470   4.889  16.132 -0.5947 -1.4067  0.6633
 7339TIP3    H243509   2.407   4.885  15.995 -0.0450 -0.0705  0.3503
 7340TIP3   OH243510   0.015   6.235  12.541 -0.0446 -0.3672  0.2227
 7340TIP3    H143511  -0.006   6.328  12.536 -0.8079 -0.4031  1.9433
 7340TIP3    H243512  -0.063   6.190  12.511 -0.4689 -0.4463  1.3861
 7341TIP3   OH243513   4.245   0.337   2.784 -0.6182 -0.0253 -0.2190
 7341TIP3    H143514   4.317   0.281   2.755  0.3010  1.6384 -1.3306
 7341TIP3    H243515   4.244   0.329   2.879  1.6140  0.5295 -0.1046
 7342TIP3   OH243516   0.004   1.211  14.815  0.6109 -0.0398 -0.3656
 7342TIP3    H143517  -0.065   1.267  14.850  0.9217 -0.1902  0.5139
 7342TIP3    H243518   0.068   1.271  14.778  1.8072  0.3479  2.1351
 7343TIP3   OH243519   4.951   5.056  15.652  0.0482 -0.0889  0.8317
 7343TIP3    H143520   4.898   5.116  15.600 -1.4210  0.2067  2.5723
 7343TIP3    H243521   5.015   5.112  15.696  0.2551 -0.1295  0.5847
 7344TIP3   OH243522   1.898   5.449  14.040 -0.6152 -0.2171 -0.1494
 7344TIP3    H143523   1.817   5.415  14.077 -1.1106  0.6489 -0.4201
 7344TIP3    H243524   1.877   5.467  13.949  0.5604 -2.2106 -0.8773
 7345TIP3   OH243525   5.573   4.525   5.552  0.0569  0.2027  0.2360
 7345TIP3    H143526   5.534   4.586   5.615 -0.8527  0.0667 -0.1731
 7345TIP3    H243527   5.645   4.574   5.512 -0.8005  1.0941 -0.2507
 7346TIP3   OH243528   0.512   3.858  12.255  0.2133  0.2458  0.2032
 7346TIP3    H143529   0.583   3.802  12.225  0.3414 -0.4250  1.6459
 7346TIP3    H243530   0.555   3.927  12.305  0.0085  1.3071 -1.0342
 7347TIP3   OH243531   1.492   1.166  14.497 -0.2373  0.0545  0.5029
 7347TIP3    H143532   1.449   1.192  14.416 -0.6374 -1.2973  0.2615
 7347TIP3    H243533   1.440   1.093  14.531  1.7512 -1.6063  0.2409
 7348TIP3   OH243534   0.405   4.006  13.223 -0.2417  0.5463 -1.0968
 7348TIP3    H143535   0.355   4.032  13.300  0.7154 -0.7658  0.0171
 7348TIP3    H243536   0.388   3.912  13.214  0.3301  0.5149 -1.9904
 7349TIP3   OH243537   0.706   2.192   2.890 -0.0667 -0.1698 -0.0670
 7349TIP3    H143538   0.795   2.215   2.864 -0.0602 -0.4726 -0.3184
 7349TIP3    H243539   0.685   2.253   2.961 -0.1943  0.8825 -0.9709
 7350TIP3   OH243540   5.547   3.104   1.726 -0.3435 -0.2801 -0.4649
 7350TIP3    H143541   5.557   3.069   1.815 -2.1706  1.0197  0.3027
 7350TIP3    H243542   5.503   3.034   1.678  1.1409 -1.2109 -0.5543
 7351TIP3   OH243543   5.766   0.080   4.368 -0.0449  0.0136 -0.5015
 7351TIP3    H143544   5.717   0.026   4.307 -1.8527  0.4852  0.4792
 7351TIP3    H243545   5.815   0.018   4.421 -1.6796 -0.6632  0.2587
 7352TIP3   OH243546   3.018   5.790   1.161 -0.1937 -0.0055  0.9038
 7352TIP3    H143547   2.971   5.860   1.115 -2.5189 -1.5603  0.7863
 7352TIP3    H243548   2.957   5.717   1.164  2.0092 -1.9712  1.3403
 7353TIP3   OH243549   1.304   3.217  11.143  0.6228  0.2397  0.1790
 7353TIP3    H143550   1.269   3.128  11.149  1.3558 -0.0514  0.1749
 7353TIP3    H243551   1.386   3.208  11.096  0.8643  0.8741  0.4646
 7354TIP3   OH243552   3.438   0.897   2.813  1.0305  0.6718  0.0862
 7354TIP3    H143553   3.525   0.858   2.821  1.0523  0.6828 -0.0775
 7354TIP3    H243554   3.450   0.988   2.840  1.8032  1.5963 -2.9159
 7355TIP3   OH243555   6.074   2.578   1.749  0.3831  0.2237  0.1305
 7355TIP3    H143556   6.018   2.655   1.743 -0.8826 -0.7810 -2.5429
 7355TIP3    H243557   6.132   2.583   1.674  0.5204 -1.2220  0.0942
 7356TIP3   OH243558   5.813   6.670  14.818 -0.1309  0.1172  0.2277
 7356TIP3    H143559   5.812   6.761  14.847 -1.7920  0.7178 -1.5048
 7356TIP3    H243560   5.723   6.641  14.828  0.3875 -1.4204  0.8303
 7357TIP3   OH243561   0.756   0.408  11.293 -0.4458 -0.7765  0.1036
 7357TIP3    H143562   0.819   0.357  11.242  1.3579  1.3832  0.0064
 7357TIP3    H243563   0.808   0.445  11.365 -1.7703  0.4813  0.4533
 7358TIP3   OH243564   2.354   2.640   4.078 -0.3538 -0.1660  0.0984
 7358TIP3    H143565   2.352   2.612   3.986  2.4795  0.5158 -0.2800
 7358TIP3    H243566   2.287   2.587   4.120 -1.5774 -0.6802 -2.3033
 7359TIP3   OH243567   0.457   3.717   4.682 -0.1771 -0.4931  0.6701
 7359TIP3    H143568   0.385   3.733   4.620  0.3087 -2.0046 -0.3387
 7359TIP3    H243569   0.422   3.652   4.742 -0.0763 -0.2729  0.9677
 7360TIP3   OH243570   4.244   1.400  15.650  0.4567 -0.0149 -0.7427
 7360TIP3    H143571   4.224   1.310  15.627 -0.2825 -0.6454  1.9386
 7360TIP3    H243572   4.316   1.425  15.593  1.0059 -2.4810 -1.2124
 7361TIP3   OH243573   1.480   4.789   3.273  0.2661 -0.1250  0.2000
 7361TIP3    H143574   1.510   4.797   3.182  1.1583 -1.6051  0.3404
 7361TIP3    H243575   1.539   4.847   3.322  0.3853 -0.0457 -0.0330
 7362TIP3   OH243576   0.606   0.523  16.192  0.0392 -0.1102 -0.4667
 7362TIP3    H143577   0.576   0.514  16.282  0.2009  1.6581 -0.1947
 7362TIP3    H243578   0.554   0.460  16.143 -1.1765 -0.0018  0.6205
 7363TIP3   OH243579   0.542   6.176   1.539 -0.2987  0.7170  0.2835
 7363TIP3    H143580   0.465   6.149   1.589 -0.7598  0.1570 -0.6995
 7363TIP3    H243581   0.556   6.267   1.565 -0.9640  0.6623  0.8798
 7364TIP3   OH243582   5.834   4.362   0.045 -0.1407  0.5035 -0.4734
 7364TIP3    H143583   5.875   4.447   0.030 -1.1503  0.9729 -0.5881
 7364TIP3    H243584   5.824   4.356   0.140  0.7423  0.1150 -0.3919
 7365TIP3   OH243585   0.475   6.326  10.406 -0.3467 -0.7835 -0.2152
 7365TIP3    H143586   0.501   6.395  10.468  0.9794 -1.2540 -0.2102
 7365TIP3    H243587   0.557   6.279  10.387 -0.5781 -0.2341 -2.8657
 7366TIP3   OH243588   2.170   1.189   3.079 -0.2657  0.2964 -0.1293
 7366TIP3    H143589   2.177   1.095   3.064 -1.6833  0.4283 -1.8982
 7366TIP3    H243590   2.086   1.201   3.122 -0.3906  0.8075 -0.5006
 7367TIP3   OH243591   2.781   3.145   3.538  0.2052  0.4500  0.6393
 7367TIP3    H143592   2.688   3.168   3.534  0.0759 -0.1689 -0.7064
 7367TIP3    H243593   2.785   3.070   3.597 -0.2944 -0.0727  0.0227
 7368TIP3   OH243594   4.042   6.457  14.772 -0.4242  0.6626  0.2655
 7368TIP3    H143595   4.004   6.382  14.727 -1.6248  0.8150  0.9753
 7368TIP3    H243596   3.970   6.493  14.825  0.3449  1.8048  0.5901
 7369TIP3   OH243597   4.689   2.066  11.831  0.2519  0.0299  0.1065
 7369TIP3    H143598   4.715   2.155  11.805  1.0663 -0.0906  0.4691
 7369TIP3    H243599   4.710   2.013  11.754  0.2210  0.0746  0.0664
 7370TIP3   OH243600   5.363   3.084   0.046 -0.6472 -0.3120 -0.1838
 7370TIP3    H143601   5.451   3.116   0.027 -0.4378 -0.6909  0.1340
 7370TIP3    H243602   5.346   3.115   0.135 -1.4611  1.1106 -0.8043
 7371TIP3   OH243603   1.918   5.277  15.043  0.3516 -0.1945 -0.6558
 7371TIP3    H143604   1.954   5.308  14.960  0.7890 -0.7931 -0.6896
 7371TIP3    H243605   1.992   5.278  15.103  0.0974 -0.0363 -0.3414
 7372TIP3   OH243606   6.588   6.466  12.986  0.2573  0.6175 -0.0134
 7372TIP3    H143607   6.667   6.517  12.966  0.9355  0.0961  1.2121
 7372TIP3    H243608   6.613   6.375  12.968 -0.1810  0.4855  0.0434
 7373TIP3   OH243609   4.320   3.247   5.700  0.1765 -0.0200 -0.0091
 7373TIP3    H143610   4.382   3.296   5.754 -1.2282  1.4494  0.3446
 7373TIP3    H243611   4.248   3.308   5.685 -2.2713 -2.3647  1.4720
 7374TIP3   OH243612   3.287   2.021  17.039 -0.3788  0.1545  0.0542
 7374TIP3    H143613   3.203   2.046  17.001 -0.2927  0.3788  0.0131
 7374TIP3    H243614   3.314   1.944  16.988  0.9896  1.9686 -2.1326
 7375TIP3   OH243615   6.088   2.031   2.841  0.0020  0.2969  0.0238
 7375TIP3    H143616   6.129   2.106   2.798  1.9306 -0.6914  0.0066
 7375TIP3    H243617   6.124   2.032   2.930  1.4242 -1.4950 -0.4525
 7376TIP3   OH243618   1.909   1.168  11.231  0.0383 -0.4775 -0.0819
 7376TIP3    H143619   1.968   1.167  11.155  0.1376  2.2293 -0.1446
 7376TIP3    H243620   1.839   1.228  11.205  0.4883  1.1627  2.2002
 7377TIP3   OH243621   4.227   3.231   1.244  0.7157 -0.0136  0.1709
 7377TIP3    H143622   4.290   3.159   1.246  0.1867 -0.5014 -0.5681
 7377TIP3    H243623   4.246   3.281   1.324  0.7517 -1.2434  0.9511
 7378TIP3   OH243624   4.047   1.922  16.341  0.2607 -0.8521  0.8433
 7378TIP3    H143625   4.130   1.924  16.294  1.3543 -1.9821  2.6241
 7378TIP3    H243626   3.993   1.988  16.297  1.5947 -1.0642 -1.2353
 7379TIP3   OH243627   5.275   0.503   6.156 -0.1264 -0.4347 -0.4675
 7379TIP3    H143628   5.182   0.498   6.176  0.3148  0.6132  2.4627
 7379TIP3    H243629   5.299   0.594   6.175  1.4242 -0.5894 -1.4973
 7380TIP3   OH243630   4.208   5.557  16.217 -0.5577  0.0405 -0.0337
 7380TIP3    H143631   4.264   5.630  16.189  1.5120 -0.8796  1.4141
 7380TIP3    H243632   4.188   5.577  16.309 -0.8371 -0.6925  0.0677
 7381TIP3   OH243633   5.736   2.819  15.941  0.0239  0.5129 -0.6427
 7381TIP3    H143634   5.698   2.847  16.024  1.2492  2.5723 -0.6996
 7381TIP3    H243635   5.781   2.737  15.962 -2.7986 -1.0319 -0.2036
 7382TIP3   OH243636   1.743   3.884   3.532 -0.5159 -0.9170 -0.2660
 7382TIP3    H143637   1.678   3.925   3.588  0.1907 -1.5826  1.0916
 7382TIP3    H243638   1.789   3.823   3.589  0.0743 -1.8072 -1.6414
 7383TIP3   OH243639   1.789   1.077  13.269  0.2975  0.1693 -0.1216
 7383TIP3    H143640   1.874   1.093  13.312 -1.2100 -0.9345  3.7489
 7383TIP3    H243641   1.792   0.984  13.245 -0.1991 -0.2555  1.3069
 7384TIP3   OH243642   3.541   0.145   3.759  0.4976 -0.3118 -0.1988
 7384TIP3    H143643   3.547   0.145   3.854  1.9134  0.6541 -0.2614
 7384TIP3    H243644   3.470   0.206   3.739 -1.7291 -2.5843  0.2614
 7385TIP3   OH243645   2.392   6.818  14.110  0.6993 -0.0618 -0.3004
 7385TIP3    H143646   2.409   6.887  14.174 -2.1059 -0.9346  1.5715
 7385TIP3    H243647   2.452   6.748  14.134 -0.0299 -0.2172  1.1780
 7386TIP3   OH243648   5.646   4.000  11.452 -0.0203  0.1092  0.0853
 7386TIP3    H143649   5.634   4.089  11.485 -0.2159  0.0599  0.1489
 7386TIP3    H243650   5.605   4.001  11.365  1.4338  0.5354 -0.6265
 7387TIP3   OH243651   1.857   4.229  16.012 -0.3611  0.2328  0.2295
 7387TIP3    H143652   1.942   4.226  16.055 -0.1111  0.0489 -0.2772
 7387TIP3    H243653   1.873   4.198  15.923 -0.8431  0.7626 -0.0523
 7388TIP3   OH243654   1.632   0.721  16.205 -0.5913 -0.2583  0.0856
 7388TIP3    H143655   1.722   0.753  16.194 -0.6990 -0.4337 -1.5595
 7388TIP3    H243656   1.593   0.781  16.267  0.3645  0.4626  0.0138
 7389TIP3   OH243657   0.014   0.909   4.590  0.4745  0.4435 -0.0775
 7389TIP3    H143658  -0.022   0.891   4.503 -0.5530  0.2124  0.3809
 7389TIP3    H243659   0.097   0.954   4.572 -0.0807  1.0954 -1.1815
 7390TIP3   OH243660   5.827   3.974   6.386 -0.2455 -0.2116  0.3368
 7390TIP3    H143661   5.831   4.010   6.474  0.5390 -0.4701  0.4113
 7390TIP3    H243662   5.875   4.036   6.332  2.5047 -1.8413  0.7245
 7391TIP3   OH243663   3.661   5.072  13.230 -0.0728  0.3640 -0.1246
 7391TIP3    H143664   3.664   5.139  13.162  1.1500 -0.1105 -0.5748
 7391TIP3    H243665   3.622   4.996  13.187  0.4710  0.1420 -0.2346
 7392TIP3   OH243666   5.103   0.938  17.096 -0.5746 -0.2969 -0.4706
 7392TIP3    H143667   5.119   0.883  17.172 -0.7674  0.4160  0.0962
 7392TIP3    H243668   5.012   0.966  17.105 -0.8394 -0.8227 -1.3748
 7393TIP3   OH243669   0.112   2.932   0.533 -0.0286 -0.2603  0.2382
 7393TIP3    H143670   0.034   2.971   0.493 -0.4093 -0.4161  0.8125
 7393TIP3    H243671   0.184   2.961   0.478 -0.6543 -1.5249 -1.3522
 7394TIP3   OH243672   3.777   2.402  13.146  0.1046  0.0484  0.4292
 7394TIP3    H143673   3.783   2.307  13.151  0.5709  0.1405  1.7094
 7394TIP3    H243674   3.695   2.417  13.098  0.6688 -0.9899 -0.9311
 7395TIP3   OH243675   6.347   6.246  11.791  0.4125  0.6521  0.1810
 7395TIP3    H143676   6.342   6.150  11.791 -2.1364  0.7093  1.4221
 7395TIP3    H243677   6.428   6.265  11.743  0.7479 -2.0860 -0.5391
 7396TIP3   OH243678   0.175   2.722   2.452  0.1064  0.3483 -0.1958
 7396TIP3    H143679   0.161   2.699   2.544 -1.4530 -1.2976 -0.7766
 7396TIP3    H243680   0.232   2.652   2.419  1.0491  1.1896 -0.4083
 7397TIP3   OH243681   3.455   2.085   2.255  0.5401 -0.2919 -0.2318
 7397TIP3    H143682   3.527   2.108   2.195  0.1728  1.1649 -0.1674
 7397TIP3    H243683   3.406   2.167   2.264 -0.3901 -0.9409  0.7340
 7398TIP3   OH243684   1.729   3.324  15.872 -0.3815 -0.1175 -0.4676
 7398TIP3    H143685   1.823   3.318  15.893 -0.8301 -1.2828  1.4680
 7398TIP3    H243686   1.700   3.233  15.868 -1.9077  0.2150  1.5480
 7399TIP3   OH243687   3.935   3.582  14.261 -0.2196  0.2556 -0.0562
 7399TIP3    H143688   3.899   3.495  14.243  0.4442  0.0746 -0.5801
 7399TIP3    H243689   4.012   3.588  14.205 -1.4970  2.0583 -1.7843
 7400TIP3   OH243690   6.130   4.264  14.260  0.0524  0.7885  0.1765
 7400TIP3    H143691   6.062   4.329  14.242  0.3470  1.0939  0.1545
 7400TIP3    H243692   6.194   4.310  14.315  0.9987  0.9686 -1.0291
 7401TIP3   OH243693   1.508   2.374   1.519 -0.3334 -0.2548  0.6173
 7401TIP3    H143694   1.442   2.430   1.479 -0.2436 -0.7968 -0.3391
 7401TIP3    H243695   1.549   2.428   1.585  0.2393  1.0572 -0.7520
 7402TIP3   OH243696   6.444   0.635   4.158  0.0764 -0.1992  0.1231
 7402TIP3    H143697   6.536   0.616   4.176  0.1882 -1.2702 -1.4018
 7402TIP3    H243698   6.399   0.618   4.241  1.4991  2.6377  1.6124
 7403TIP3   OH243699   6.059   5.388   5.390 -0.0858  0.2255 -0.2751
 7403TIP3    H143700   5.965   5.408   5.385 -0.1094 -0.2062 -2.6535
 7403TIP3    H243701   6.101   5.473   5.403 -0.8161  0.3004  2.0139
 7404TIP3   OH243702   0.671   4.771  16.178 -0.3622 -0.0646  0.0256
 7404TIP3    H143703   0.711   4.700  16.228 -1.1359  1.0701  2.4252
 7404TIP3    H243704   0.578   4.748  16.175 -0.6511  0.9006  1.0043
 7405TIP3   OH243705   0.198   2.029  13.878 -0.3996 -0.1994  0.0686
 7405TIP3    H143706   0.213   1.999  13.967 -1.1318  0.3550  0.3946
 7405TIP3    H243707   0.196   2.125  13.885 -0.0391 -0.1374 -0.6131
 7406TIP3   OH243708   3.434   6.558  13.533 -0.9870 -0.0897  0.8015
 7406TIP3    H143709   3.403   6.616  13.603 -1.3798 -0.3601  0.8550
 7406TIP3    H243710   3.357   6.508  13.508 -0.9867  0.4058 -0.2258
 7407TIP3   OH243711   2.489   1.600  16.417  0.0344 -0.6652  0.4373
 7407TIP3    H143712   2.539   1.524  16.386  0.0876 -0.8891  1.0468
 7407TIP3    H243713   2.553   1.652  16.466  0.1128  0.0296 -0.3814
 7408TIP3   OH243714   4.261   3.727   1.125  0.4807  0.4795  0.2798
 7408TIP3    H143715   4.238   3.710   1.034  1.4920  1.5438 -0.1874
 7408TIP3    H243716   4.239   3.645   1.171 -3.5472  1.0865 -0.1844
 7409TIP3   OH243717   6.384   3.557  14.622 -0.2848  0.5342  0.2689
 7409TIP3    H143718   6.397   3.636  14.571 -2.1289  0.8360  0.1972
 7409TIP3    H243719   6.395   3.584  14.713  1.9308  0.2229  0.1449
 7410TIP3   OH243720   0.567   4.808  13.129  0.5276 -0.1411  0.3250
 7410TIP3    H143721   0.630   4.825  13.059  0.2879 -1.1990 -0.1667
 7410TIP3    H243722   0.572   4.886  13.185  0.2605  1.0341 -1.2023
 7411TIP3   OH243723   2.353   3.126   3.914  0.0941  0.2876  0.5693
 7411TIP3    H143724   2.304   3.202   3.942  0.2917  0.2421  1.0433
 7411TIP3    H243725   2.387   3.149   3.827 -1.0815  0.1690  0.0613
 7412TIP3   OH243726   4.474   3.754   0.801  0.0726  0.1906 -0.1159
 7412TIP3    H143727   4.476   3.676   0.858  0.2337 -2.0200 -2.9310
 7412TIP3    H243728   4.384   3.785   0.807 -0.2233 -0.7295  0.4268
 7413TIP3   OH243729   3.790   5.987  11.438  0.4496  0.1639 -0.2800
 7413TIP3    H143730   3.773   5.994  11.532 -0.7355 -0.3883 -0.4402
 7413TIP3    H243731   3.706   6.008  11.397  0.8240 -0.1193 -1.2050
 7414TIP3   OH243732   3.218   0.298   3.116 -0.3071  0.0683 -0.1145
 7414TIP3    H143733   3.149   0.231   3.120 -0.4029  0.1332 -0.5948
 7414TIP3    H243734   3.256   0.288   3.029 -0.0870  0.4072 -0.0598
 7415TIP3   OH243735   6.663   0.647   4.557  0.0500  0.6191 -0.2017
 7415TIP3    H143736   6.634   0.628   4.646 -0.3240  2.0575  0.0047
 7415TIP3    H243737   6.584   0.678   4.512  0.4238  0.7408 -0.7930
 7416TIP3   OH243738   6.297   3.237  16.246  0.8472 -0.5789 -0.0141
 7416TIP3    H143739   6.311   3.245  16.152 -1.1274 -1.4879 -0.4289
 7416TIP3    H243740   6.377   3.196  16.279  0.5744 -2.6114 -1.7035
 7417TIP3   OH243741   0.660   2.833   3.485 -0.1851 -0.1447  0.0771
 7417TIP3    H143742   0.569   2.854   3.501 -0.3830 -0.9187  0.0221
 7417TIP3    H243743   0.693   2.904   3.430 -0.9362 -0.2006 -0.4530
 7418TIP3   OH243744   2.966   1.507  16.754  0.2440  0.1809  0.2198
 7418TIP3    H143745   2.963   1.569  16.682  2.4904 -0.2673 -0.3202
 7418TIP3    H243746   2.998   1.557  16.828 -0.8327  0.3385  0.5942
 7419TIP3   OH243747   4.361   3.979  11.764  0.1346 -0.3521  0.0010
 7419TIP3    H143748   4.441   4.030  11.749  1.1331 -1.2884  1.8661
 7419TIP3    H243749   4.386   3.889  11.745  0.1826 -0.9436  2.6100
 7420TIP3   OH243750   2.989   3.902  13.800 -0.0516  0.2227  0.1679
 7420TIP3    H143751   3.058   3.885  13.736 -0.9149  2.9184 -1.6713
 7420TIP3    H243752   3.016   3.983  13.844 -0.9354  0.0584  1.0551
 7421TIP3   OH243753   6.788   0.785  11.839 -0.1933  0.1625 -0.3241
 7421TIP3    H143754   6.862   0.846  11.832 -0.1521  0.2246  0.5498
 7421TIP3    H243755   6.759   0.773  11.749  0.5504  0.5508 -0.6300
 7422TIP3   OH243756   4.881   4.497   3.304  0.3281  0.1007  0.0041
 7422TIP3    H143757   4.804   4.445   3.284 -1.6914  1.9347  2.2432
 7422TIP3    H243758   4.896   4.482   3.398  2.6093 -0.0560 -0.3400
 7423TIP3   OH243759   5.502   3.437  14.279  0.0278 -0.3753 -0.0862
 7423TIP3    H143760   5.595   3.455  14.263  0.2023 -1.5485 -0.4913
 7423TIP3    H243761   5.468   3.409  14.194  0.1785 -3.4587  0.7372
 7424TIP3   OH243762   2.590   2.025   2.312  0.2011 -0.7075 -0.0108
 7424TIP3    H143763   2.642   2.105   2.308  1.1342 -1.3491 -1.2999
 7424TIP3    H243764   2.517   2.042   2.252 -0.9085  0.0264  1.4720
 7425TIP3   OH243765   5.404   5.406   4.860 -0.0355 -0.6130 -0.3875
 7425TIP3    H143766   5.417   5.487   4.811  0.6515  0.7152  1.8521
 7425TIP3    H243767   5.474   5.348   4.829 -0.1957 -0.1808 -1.6224
 7426TIP3   OH243768   0.796   2.818   1.770 -0.7793 -0.2691 -1.0598
 7426TIP3    H143769   0.891   2.807   1.772 -0.8107 -0.5399 -0.9746
 7426TIP3    H243770   0.766   2.757   1.702 -0.7337  1.0439 -2.3024
 7427TIP3   OH243771   2.209   5.065  10.936  0.2650 -0.0198 -0.1022
 7427TIP3    H143772   2.120   5.095  10.918 -0.6114  0.3292  3.9070
 7427TIP3    H243773   2.262   5.145  10.936  0.2929 -0.0284 -0.8636
 7428TIP3   OH243774   4.555   6.695  11.350  0.0983 -0.1633 -0.0673
 7428TIP3    H143775   4.650   6.700  11.346  0.0557 -0.0841 -1.2520
 7428TIP3    H243776   4.537   6.609  11.389  0.6443  0.5249  1.8196
 7429TIP3   OH243777   6.563   3.277  11.899  0.2790 -0.0168  0.3598
 7429TIP3    H143778   6.612   3.318  11.828 -0.5207 -0.5939 -0.5485
 7429TIP3    H243779   6.479   3.322  11.899 -0.1689 -0.8451  0.1355
 7430TIP3   OH243780   1.914   6.192   4.507 -0.3841 -0.0863  0.4413
 7430TIP3    H143781   1.976   6.245   4.557 -0.3149 -0.4813  0.7907
 7430TIP3    H243782   1.828   6.230   4.526 -0.2585  0.4269  0.0021
 7431TIP3   OH243783   3.104   1.509   0.194  0.3439  0.5737  0.5311
 7431TIP3    H143784   3.164   1.443   0.228  0.6099 -0.3829 -1.6178
 7431TIP3    H243785   3.018   1.482   0.227  0.7841  0.6725  1.8003
 7432TIP3   OH243786   5.542   3.980  10.743 -0.7021 -0.0840 -0.5453
 7432TIP3    H143787   5.531   4.021  10.657 -0.8100 -0.1057 -0.5407
 7432TIP3    H243788   5.607   3.911  10.729  1.2712  1.5712 -0.0799
 7433TIP3   OH243789   1.289   6.717   5.225  0.6562  0.5262  0.3925
 7433TIP3    H143790   1.306   6.680   5.312  1.1037 -0.5991 -0.1618
 7433TIP3    H243791   1.367   6.767   5.204  0.4836  0.9282  0.6990
 7434TIP3   OH243792   1.867   3.476  14.533 -0.4234  0.0435 -0.6048
 7434TIP3    H143793   1.781   3.435  14.521 -0.3138 -0.1732 -0.6661
 7434TIP3    H243794   1.925   3.427  14.474 -0.0176 -0.5864  0.2863
 7435TIP3   OH243795   3.151   5.067   6.216  0.0152 -0.3384 -0.4048
 7435TIP3    H143796   3.090   5.002   6.250 -0.0514  0.4358  1.0339
 7435TIP3    H243797   3.147   5.139   6.278  2.7560 -0.4547  0.0494
 7436TIP3   OH243798   4.550   6.527   4.778  0.7153 -0.2869  0.5527
 7436TIP3    H143799   4.490   6.579   4.831  1.6553  0.2925  1.0767
 7436TIP3    H243800   4.497   6.496   4.705 -0.4780 -0.6713  1.5488
 7437TIP3   OH243801   4.202   1.554   1.942  0.3122  0.0344  0.1177
 7437TIP3    H143802   4.271   1.612   1.909  1.2279 -0.7711  0.5668
 7437TIP3    H243803   4.228   1.533   2.031  0.6289 -1.9421 -0.3773
 7438TIP3   OH243804   4.731   5.549  11.959  0.4360 -0.2316 -0.3725
 7438TIP3    H143805   4.770   5.559  12.047  0.6102 -2.2771 -0.1775
 7438TIP3    H243806   4.643   5.517  11.976 -0.0045  0.6588 -0.9347
 7439TIP3   OH243807   0.015   4.718  14.676 -0.0433 -0.0958  0.4753
 7439TIP3    H143808   0.091   4.727  14.619 -0.9075 -1.4596 -0.9764
 7439TIP3    H243809   0.052   4.720  14.765  1.7200 -0.8223 -0.1855
 7440TIP3   OH243810   5.013   1.812  14.179  0.0923  0.0762  0.5966
 7440TIP3    H143811   5.006   1.764  14.097 -1.8443  0.9223  0.1938
 7440TIP3    H243812   5.055   1.752  14.240 -1.0970 -1.6609 -0.2245
 7441TIP3   OH243813   0.288   0.002   5.826 -0.2057 -0.2920 -0.6760
 7441TIP3    H143814   0.355  -0.021   5.761 -0.0330 -0.2965 -0.5009
 7441TIP3    H243815   0.233   0.067   5.783  0.7238  0.7430 -0.3695
 7442TIP3   OH243816   2.627   5.146   4.725  0.4870  0.4016  0.2802
 7442TIP3    H143817   2.567   5.191   4.666  0.9055 -1.1979 -1.4954
 7442TIP3    H243818   2.715   5.169   4.693  0.7252 -0.3616  0.3527
 7443TIP3   OH243819   4.656   3.615  13.433  0.1384  0.1649 -0.2888
 7443TIP3    H143820   4.722   3.575  13.375 -0.2783 -1.3844  0.2467
 7443TIP3    H243821   4.595   3.658  13.373 -0.8869 -2.2969 -1.1704
 7444TIP3   OH243822   4.173   2.238  11.425 -0.4793 -0.3521 -0.7310
 7444TIP3    H143823   4.144   2.228  11.516 -1.0308  0.1587 -0.8429
 7444TIP3    H243824   4.119   2.309  11.390 -0.3058 -0.5763 -1.4782
 7445TIP3   OH243825   3.285   1.331  11.530 -0.1678 -0.1345  0.0287
 7445TIP3    H143826   3.300   1.425  11.525 -0.9751  0.0353  0.4999
 7445TIP3    H243827   3.232   1.320  11.609 -0.1298 -0.9736 -0.0592
 7446TIP3   OH243828   4.448   1.943   4.782  0.2334  0.0796  0.3765
 7446TIP3    H143829   4.428   1.983   4.867 -0.3682 -0.7472  0.6341
 7446TIP3    H243830   4.367   1.897   4.758  1.1070 -1.5388  0.4034
 7447TIP3   OH243831   4.339   3.832   3.430  0.2768 -0.5273  0.1291
 7447TIP3    H143832   4.347   3.927   3.421  1.8283 -0.5457  0.9263
 7447TIP3    H243833   4.253   3.818   3.468  0.7697  0.7376  1.8422
 7448TIP3   OH243834   5.180   6.588   2.114 -0.0082 -0.2473 -0.2007
 7448TIP3    H143835   5.229   6.657   2.067 -1.4784  1.2270  0.3315
 7448TIP3    H243836   5.185   6.512   2.056  1.6878  0.2647 -0.8032
 7449TIP3   OH243837   6.817   3.109   3.996 -0.0899 -0.1910 -0.2980
 7449TIP3    H143838   6.849   3.197   4.015 -0.1425 -0.0078 -1.0341
 7449TIP3    H243839   6.724   3.122   3.975 -0.9279 -0.7902  2.5108
 7450TIP3   OH243840   0.128   0.925  12.378  0.2697  0.1120 -0.2989
 7450TIP3    H143841   0.128   0.877  12.295 -0.4753 -0.9843  0.2967
 7450TIP3    H243842   0.128   1.017  12.354  1.8633 -0.1666 -1.4952
 7451TIP3   OH243843   3.080   1.810   0.992 -0.0778  0.2164 -0.1262
 7451TIP3    H143844   2.995   1.841   1.024  0.6701  2.4963 -0.1694
 7451TIP3    H243845   3.059   1.731   0.942 -1.8130 -0.8760  2.1301
 7452TIP3   OH243846   3.221   0.440   3.472  0.0152  0.4221 -0.1143
 7452TIP3    H143847   3.250   0.348   3.477 -0.8252  0.0577 -1.5419
 7452TIP3    H243848   3.218   0.459   3.379 -2.9918  0.8670 -0.0159
 7453TIP3   OH243849   2.600   4.420  15.822  0.1516 -0.2338 -0.3158
 7453TIP3    H143850   2.581   4.469  15.903 -1.2892  0.1413 -0.8492
 7453TIP3    H243851   2.670   4.469  15.780  1.0261 -0.5198  0.7678
 7454TIP3   OH243852   5.189   6.705   4.522 -0.9285  0.2077  0.0520
 7454TIP3    H143853   5.228   6.790   4.542 -0.3659  0.5833 -2.3740
 7454TIP3    H243854   5.199   6.655   4.603  1.8869  1.2991  0.4942
 7455TIP3   OH243855   3.926   0.012   1.948  0.0676  0.2044  0.7241
 7455TIP3    H143856   3.883   0.049   1.871  1.2507 -1.5238 -0.8591
 7455TIP3    H243857   3.992   0.078   1.972  0.4379  0.2895 -0.4594
 7456TIP3   OH243858   2.755   1.078   6.300  0.2916 -0.3515  0.7049
 7456TIP3    H143859   2.765   1.038   6.214  0.1935  1.5743 -0.2501
 7456TIP3    H243860   2.770   1.006   6.362 -0.3843 -1.9415 -0.8982
 7457TIP3   OH243861   4.037   6.324   6.644 -0.0392  0.5352 -0.0115
 7457TIP3    H143862   3.963   6.358   6.693  0.1698  0.8076  0.1199
 7457TIP3    H243863   4.051   6.236   6.679  1.2871  1.3950  1.7774
 7458TIP3   OH243864   2.743   3.757   3.422 -0.1937 -0.1429 -0.6197
 7458TIP3    H143865   2.758   3.677   3.371 -0.5846 -0.1383 -0.7402
 7458TIP3    H243866   2.649   3.758   3.439 -0.1010 -0.0214 -0.0991
 7459TIP3   OH243867   5.313   6.207  16.354 -0.1842 -0.3641  0.2797
 7459TIP3    H143868   5.295   6.139  16.289  1.4327  0.0966 -0.7048
 7459TIP3    H243869   5.408   6.215  16.354 -0.3330  2.3744 -0.1691
 7460TIP3   OH243870   0.176   2.601  14.260 -0.4228 -0.2431  0.0167
 7460TIP3    H143871   0.246   2.590  14.196  0.0268 -0.7259  0.5907
 7460TIP3    H243872   0.096   2.582  14.211 -0.2363  1.0844 -0.8494
 7461TIP3   OH243873   1.614   6.044   0.416  0.5177 -0.1780  0.0564
 7461TIP3    H143874   1.683   5.982   0.393 -0.7105 -1.0561 -1.4469
 7461TIP3    H243875   1.563   6.000   0.484 -0.3753 -0.9073 -1.0356
 7462TIP3   OH243876   3.804   0.741  17.112 -0.5042 -0.0702 -0.2710
 7462TIP3    H143877   3.725   0.716  17.064 -1.3171 -0.9934  1.4768
 7462TIP3    H243878   3.824   0.829  17.079 -2.7819  0.5665 -0.1433
 7463TIP3   OH243879   4.979   1.400   1.211  0.0805  0.9285  0.2737
 7463TIP3    H143880   4.906   1.459   1.228  0.2962  1.7314 -1.4491
 7463TIP3    H243881   5.003   1.415   1.119  0.9535 -0.9368  0.1381
 7464TIP3   OH243882   6.651   3.941  16.468 -0.5090  0.5444 -0.4706
 7464TIP3    H143883   6.654   4.026  16.423 -0.8586  1.3996  1.0380
 7464TIP3    H243884   6.571   3.900  16.436 -0.8931  1.2434 -0.4369
 7465TIP3   OH243885   5.659   0.581  14.188 -0.5465 -0.4179 -0.4385
 7465TIP3    H143886   5.650   0.632  14.269 -0.3805 -2.3447  0.8694
 7465TIP3    H243887   5.741   0.610  14.150 -1.4087  1.6929 -0.8362
 7466TIP3   OH243888   3.377   0.565   0.658  0.5857 -0.0715  0.2386
 7466TIP3    H143889   3.444   0.629   0.685 -0.1511  1.6764 -1.7880
 7466TIP3    H243890   3.294   0.610   0.675  0.0560 -0.2729 -1.6240
 7467TIP3   OH243891   2.375   0.647   0.066 -0.4262  0.0231 -0.6186
 7467TIP3    H143892   2.467   0.622   0.065 -0.0586  1.2477  0.5279
 7467TIP3    H243893   2.363   0.699  -0.013 -0.1574 -0.1727 -0.7907
 7468TIP3   OH243894   4.834   5.010  11.843  0.2100 -0.5783 -0.0689
 7468TIP3    H143895   4.832   4.942  11.775  0.2314  0.4922 -1.1735
 7468TIP3    H243896   4.742   5.028  11.861  0.1926 -0.2886 -0.4258
 7469TIP3   OH243897   5.458   0.748  13.214 -0.1289 -1.1788 -0.3867
 7469TIP3    H143898   5.505   0.670  13.244 -0.1971 -1.4687 -1.0187
 7469TIP3    H243899   5.375   0.715  13.179 -1.2510 -0.5944  1.5371
 7470TIP3   OH243900   3.197   2.042  11.875  0.4095  0.1246  0.3841
 7470TIP3    H143901   3.184   2.028  11.782 -0.2264 -0.9413  0.6226
 7470TIP3    H243902   3.112   2.070  11.908  0.4787 -0.0889  0.7532
 7471TIP3   OH243903   1.022   2.782  11.806  0.3847  0.0063  0.0885
 7471TIP3    H143904   0.929   2.800  11.810  0.4831  1.1136 -1.6139
 7471TIP3    H243905   1.033   2.723  11.732  1.2053  1.5947 -1.1403
 7472TIP3   OH243906   6.498   6.180  17.008 -0.2831 -0.7143 -0.0399
 7472TIP3    H143907   6.470   6.270  17.029  1.1241 -0.4045  0.6048
 7472TIP3    H243908   6.516   6.182  16.914 -1.6060 -0.7194 -0.3209
 7473TIP3   OH243909   3.030   6.783   5.621 -0.3569 -1.0307 -0.7727
 7473TIP3    H143910   2.949   6.734   5.635 -1.5766  1.4298  1.5900
 7473TIP3    H243911   3.096   6.735   5.672 -1.5220 -0.3690  1.4869
 7474TIP3   OH243912   0.963   6.556   3.448  0.2374 -0.1592  0.5038
 7474TIP3    H143913   0.950   6.499   3.524 -0.2084 -0.9811 -0.1830
 7474TIP3    H243914   0.909   6.633   3.467  2.7137  1.2520  2.6027
 7475TIP3   OH243915   5.242   4.474  13.614  0.3479 -0.0652 -0.0782
 7475TIP3    H143916   5.157   4.504  13.582  0.6922  1.7835  0.6002
 7475TIP3    H243917   5.235   4.479  13.710  1.4535  0.8503 -0.0237
 7476TIP3   OH243918   2.719   1.573  11.848  0.3062  0.1057  0.5531
 7476TIP3    H143919   2.774   1.578  11.770  0.9934  1.4177  1.1014
 7476TIP3    H243920   2.778   1.542  11.917 -0.5694 -2.2399  0.3505
 7477TIP3   OH243921   3.815   1.380   0.098  0.0186  0.4413 -0.0053
 7477TIP3    H143922   3.794   1.459   0.048 -0.1275  0.5803  0.2732
 7477TIP3    H243923   3.900   1.352   0.065  1.3422  2.2018  1.6900
 7478TIP3   OH243924   2.002   3.102  11.787 -0.4376 -0.1131  0.6266
 7478TIP3    H143925   1.995   3.026  11.845 -1.2595 -0.7515 -0.2668
 7478TIP3    H243926   1.919   3.149  11.799  0.0479  0.6319  1.1377
 7479TIP3   OH243927   1.684   5.031   6.076  0.2168 -0.0197 -0.0734
 7479TIP3    H143928   1.657   5.123   6.082  2.7407  0.9367 -1.7102
 7479TIP3    H243929   1.734   5.015   6.156 -0.3566 -0.0551  0.2882
 7480TIP3   OH243930   0.238   3.125   3.282 -0.1719  0.4622 -0.2732
 7480TIP3    H143931   0.196   3.128   3.367 -3.8099 -2.9809 -1.6503
 7480TIP3    H243932   0.181   3.176   3.224 -1.1672 -2.0410 -1.6644
 7481TIP3   OH243933   4.241   1.912   5.209 -0.2107  0.0768  0.4442
 7481TIP3    H143934   4.218   1.934   5.119 -0.8839  0.6489  0.7465
 7481TIP3    H243935   4.156   1.898   5.252  0.1108 -0.2529  0.9740
 7482TIP3   OH243936   2.234   3.678   1.349 -0.6382  0.3357 -0.0469
 7482TIP3    H143937   2.260   3.591   1.322  0.2845  0.1178  1.4274
 7482TIP3    H243938   2.178   3.664   1.426 -1.6882  0.9901 -0.6610
 7483TIP3   OH243939   0.686   2.082   0.404  0.1273 -0.1826  0.3394
 7483TIP3    H143940   0.611   2.102   0.461 -0.3529  1.5252 -0.7949
 7483TIP3    H243941   0.762   2.086   0.462 -0.5129 -0.4226  1.2194
 7484TIP3   OH243942   2.778   6.251   5.292 -0.2563 -0.3317  0.3378
 7484TIP3    H143943   2.798   6.208   5.209 -2.3379  0.2450 -0.5388
 7484TIP3    H243944   2.806   6.189   5.359  1.0590 -1.0068 -0.8014
 7485TIP3   OH243945   3.526   0.994   0.190  0.3170 -0.1870 -0.2148
 7485TIP3    H143946   3.573   1.024   0.112  0.5311  1.8746  0.6289
 7485TIP3    H243947   3.592   0.993   0.259 -0.4866  1.1099  0.6138
 7486TIP3   OH243948   2.773   2.122   3.774  0.3705 -0.3251  0.2487
 7486TIP3    H143949   2.769   2.062   3.700 -0.3452 -0.5856  0.4877
 7486TIP3    H243950   2.682   2.150   3.787  0.4248 -0.5729  1.2602
 7487TIP3   OH243951   5.163   3.911   4.169 -0.5387  0.3340 -0.0094
 7487TIP3    H143952   5.124   3.862   4.241  0.2889 -0.3571 -0.0246
 7487TIP3    H243953   5.161   3.851   4.095  0.4971  0.3048 -0.0251
 7488TIP3   OH243954   5.498   2.278   5.509  0.5826 -1.0156  0.3971
 7488TIP3    H143955   5.592   2.263   5.516  0.2614 -4.1091 -0.2274
 7488TIP3    H243956   5.459   2.212   5.566 -1.2468  0.3609  0.8336
 7489TIP3   OH243957   2.440   5.061  15.263 -0.9990 -0.3005  0.2495
 7489TIP3    H143958   2.461   5.121  15.191 -2.2739 -0.8747 -0.6425
 7489TIP3    H243959   2.348   5.078  15.281 -1.7006 -2.6772 -0.7308
 7490TIP3   OH243960   2.073   5.932   0.123  0.3259  0.1093  0.3296
 7490TIP3    H143961   2.105   5.883   0.046 -0.8428  0.7638 -0.6011
 7490TIP3    H243962   1.991   5.888   0.146  0.7645 -0.1971  1.3403
 7491TIP3   OH243963   6.538   2.513  15.105  0.2448 -0.4328  0.0152
 7491TIP3    H143964   6.462   2.476  15.059 -1.1011  0.9492  1.0043
 7491TIP3    H243965   6.553   2.597  15.061  0.0576  0.0981  0.9323
 7492TIP3   OH243966   5.233   3.073  12.715  0.6514 -0.2124  0.5237
 7492TIP3    H143967   5.203   2.993  12.758 -1.3711 -0.0955 -0.5583
 7492TIP3    H243968   5.191   3.144  12.765 -2.4710 -0.0999 -1.9638
 7493TIP3   OH243969   2.225   2.314   1.165  0.4707 -0.2662 -0.2280
 7493TIP3    H143970   2.299   2.253   1.170  0.1452 -0.7126 -0.7136
 7493TIP3    H243971   2.262   2.394   1.127  1.3371  0.5647  2.1679
 7494TIP3   OH243972   0.706   0.604   4.298 -0.3548  0.4456 -0.3507
 7494TIP3    H143973   0.745   0.534   4.245 -1.8658  0.7763 -1.9611
 7494TIP3    H243974   0.702   0.567   4.387  1.9919 -0.2067 -0.4402
 7495TIP3   OH243975   3.501   0.238   4.033  0.3826 -0.5137 -0.4631
 7495TIP3    H143976   3.580   0.261   4.081 -1.1983  1.6897  1.3086
 7495TIP3    H243977   3.478   0.150   4.065  0.0096  0.4303  2.0647
 7496TIP3   OH243978   4.312   2.816   0.831  0.1009  0.1021 -0.2309
 7496TIP3    H143979   4.313   2.802   0.736 -0.8408 -0.9939 -0.1120
 7496TIP3    H243980   4.334   2.908   0.842  0.3476  0.2210 -1.5097
 7497TIP3   OH243981   4.867   4.791   1.783  0.2049 -0.2634 -0.9307
 7497TIP3    H143982   4.962   4.795   1.767  0.3050 -0.7933 -0.5160
 7497TIP3    H243983   4.828   4.816   1.700  0.6814  3.2012 -0.2484
 7498TIP3   OH243984   2.088   4.962   4.347  0.3695  0.1129 -0.5862
 7498TIP3    H143985   2.045   5.012   4.417  1.0762  1.2001 -0.8978
 7498TIP3    H243986   2.121   4.883   4.390  0.8915  0.8162  0.3498
 7499TIP3   OH243987   4.434   2.613   1.793 -0.2701  0.5601  0.0343
 7499TIP3    H143988   4.464   2.558   1.865 -0.0213  0.7277  0.0600
 7499TIP3    H243989   4.514   2.651   1.757 -0.4329  0.8544 -0.0220
 7500TIP3   OH243990   1.233   1.188   5.573 -0.1902  0.1692  0.5202
 7500TIP3    H143991   1.186   1.271   5.577 -1.7109 -0.3211 -3.0943
 7500TIP3    H243992   1.194   1.135   5.642 -0.6901  1.7305  1.4952
 7501TIP3   OH243993   2.050   1.060  14.985  0.5615  0.3457 -0.5358
 7501TIP3    H143994   2.061   1.007  14.907 -1.2645  0.3541 -0.8450
 7501TIP3    H243995   2.050   0.998  15.057 -0.4647  0.0270 -0.7997
 7502TIP3   OH243996   2.345   4.232   5.209 -0.1031  0.0552  0.5247
 7502TIP3    H143997   2.415   4.275   5.258 -1.5192  0.1087  2.6158
 7502TIP3    H243998   2.355   4.139   5.229  0.0746 -0.0813 -0.1566
 7503TIP3   OH243999   0.397   3.164  13.320  0.0312 -0.4817 -0.0269
 7503TIP3    H144000   0.312   3.121  13.309 -1.0743  1.3167  0.9719
 7503TIP3    H244001   0.391   3.243  13.266  1.0860 -0.3393  0.0476
 7504TIP3   OH244002   5.011   5.085   1.002 -0.4822  0.3040  0.0464
 7504TIP3    H144003   5.080   5.150   1.022  0.3459 -0.6239  0.3017
 7504TIP3    H244004   4.964   5.122   0.928  0.6424  0.7326 -0.4818
 7505TIP3   OH244005   6.207   3.066   1.013  0.5796  0.4093  0.1277
 7505TIP3    H144006   6.273   3.008   1.052  2.5719  2.1417 -0.4752
 7505TIP3    H244007   6.252   3.106   0.939 -1.7754  0.3337 -1.4414
 7506TIP3   OH244008   3.500   4.477   3.051  0.1222  0.2130 -0.2238
 7506TIP3    H144009   3.419   4.508   3.010  0.5607 -1.2430 -2.3755
 7506TIP3    H244010   3.472   4.441   3.136 -1.1773  1.3570 -0.1333
 7507TIP3   OH244011   2.875   4.037  16.050 -0.0253 -0.2820 -0.1493
 7507TIP3    H144012   2.931   3.976  16.099 -2.2139 -0.8672  1.8422
 7507TIP3    H244013   2.840   3.986  15.978 -0.2940 -0.8247  0.3562
 7508TIP3   OH244014   6.150   6.739   0.718  0.2532  0.2508 -0.6124
 7508TIP3    H144015   6.194   6.748   0.802  0.5769 -3.2073 -0.2732
 7508TIP3    H244016   6.057   6.742   0.738  0.2343  2.8052 -0.6999
 7509TIP3   OH244017   1.055   6.114  16.675 -0.2428  0.0421 -0.1876
 7509TIP3    H144018   1.059   6.146  16.765  1.6144  0.6765 -0.4618
 7509TIP3    H244019   1.030   6.190  16.623 -0.1939 -0.0467 -0.3422
 7510TIP3   OH244020   2.587   6.361  15.168  0.2168  0.2514 -0.8010
 7510TIP3    H144021   2.564   6.437  15.115  2.3905  1.3468 -0.2953
 7510TIP3    H244022   2.637   6.397  15.241  1.2062 -1.6679 -0.4581
 7511TIP3   OH244023   3.719   4.211  13.747 -0.5090  0.1035 -0.1289
 7511TIP3    H144024   3.660   4.282  13.773 -1.1434 -0.1549 -0.8300
 7511TIP3    H244025   3.663   4.147  13.705  0.4756  0.7182 -2.5783
 7512TIP3   OH244026   4.570   0.799   4.359 -0.3641 -0.2677  0.2919
 7512TIP3    H144027   4.602   0.710   4.374 -0.4616 -0.3978 -0.2389
 7512TIP3    H244028   4.640   0.855   4.391  0.0948 -0.5447 -0.2035
 7513TIP3   OH244029   4.192   6.338   0.429 -0.0042  0.3052 -0.0453
 7513TIP3    H144030   4.098   6.332   0.410 -0.0307 -0.6465  0.3638
 7513TIP3    H244031   4.227   6.253   0.405  0.5075  0.1433  1.2174
 7514TIP3   OH244032   5.100   5.407  16.322  0.2969 -0.5770 -0.4008
 7514TIP3    H144033   5.120   5.314  16.306 -1.2478 -0.7178 -1.8650
 7514TIP3    H244034   5.026   5.425  16.263 -0.8293  1.0255  1.3920
 7515TIP3   OH244035   5.475   0.412   1.755 -0.5416  0.3794  0.2293
 7515TIP3    H144036   5.522   0.467   1.692 -0.1663 -0.8197 -0.5622
 7515TIP3    H244037   5.384   0.440   1.747 -0.5546  0.0234 -1.1006
 7516TIP3   OH244038   0.484   2.394  12.717  0.2818 -0.1453  0.0402
 7516TIP3    H144039   0.434   2.453  12.774  0.8646 -1.8850  2.5517
 7516TIP3    H244040   0.565   2.378  12.765  3.4811  2.5026 -3.8364
 7517TIP3   OH244041   6.300   4.134  12.703 -0.4466 -0.0325 -0.1788
 7517TIP3    H144042   6.381   4.112  12.749  0.8668  2.4025 -1.0996
 7517TIP3    H244043   6.235   4.148  12.772  0.3592 -0.4314  0.6734
 7518TIP3   OH244044   2.099   2.019   1.221  0.6703  0.4419 -0.0690
 7518TIP3    H144045   2.049   2.094   1.191  2.0349  0.8455 -1.4309
 7518TIP3    H244046   2.180   2.056   1.255  1.3474 -0.3812 -0.7309
 7519TIP3   OH244047   3.111   6.790  13.958 -0.3716 -0.1551 -0.0863
 7519TIP3    H144048   3.083   6.844  13.884 -1.5754  0.7493  0.9964
 7519TIP3    H244049   3.148   6.852  14.020  1.2172 -0.9791 -0.1480
 7520TIP3   OH244050   0.673   0.875  15.072  0.2163 -0.0551  0.2015
 7520TIP3    H144051   0.693   0.918  15.155  0.8643  1.8050 -0.8448
 7520TIP3    H244052   0.597   0.922  15.038 -1.1973 -1.9937  0.5356
 7521TIP3   OH244053   3.848   5.094   3.195  0.5034 -0.1533  0.4714
 7521TIP3    H144054   3.787   5.124   3.262  1.1182  1.3059  0.4111
 7521TIP3    H244055   3.901   5.028   3.239 -0.5897 -0.8751  0.7454
 7522TIP3   OH244056   4.053   4.335  15.381  0.1919 -0.0571 -0.6326
 7522TIP3    H144057   4.102   4.408  15.418 -1.4909  1.1860 -0.7187
 7522TIP3    H244058   4.083   4.329  15.291  0.3725  0.5155 -0.6145
 7523TIP3   OH244059   1.022   2.387   6.256  0.0088 -0.4393  0.3240
 7523TIP3    H144060   1.066   2.349   6.332 -0.2989  0.5234  1.0053
 7523TIP3    H244061   0.982   2.468   6.290  1.0060  0.7216 -1.1608
 7524TIP3   OH244062   2.215   5.618   3.168  0.1982 -0.3898  0.2040
 7524TIP3    H144063   2.137   5.564   3.151  0.4970 -0.8205  0.1942
 7524TIP3    H244064   2.281   5.584   3.109  0.3377  0.1163  0.0630
 7525TIP3   OH244065   0.082   4.525   4.805 -0.7540 -0.3368  0.6185
 7525TIP3    H144066   0.002   4.482   4.776  0.5799 -2.9965  0.6076
 7525TIP3    H244067   0.052   4.610   4.839 -3.2665 -0.2888 -1.3811
 7526TIP3   OH244068   4.860   0.266   2.476 -0.0989 -0.4200 -0.8172
 7526TIP3    H144069   4.849   0.175   2.447 -4.9308 -0.8257  1.3356
 7526TIP3    H244070   4.788   0.313   2.434  0.3322  1.6812  0.6704
 7527TIP3   OH244071   4.633   5.437   0.234  0.3951  0.1237 -0.1166
 7527TIP3    H144072   4.545   5.470   0.214  1.2479  1.0204 -2.8730
 7527TIP3    H244073   4.647   5.367   0.170  2.1112  0.8157 -0.5472
 7528TIP3   OH244074   5.825   4.959  16.763  0.1175  0.1151  0.7900
 7528TIP3    H144075   5.887   4.890  16.786  0.7226  0.4638  0.2314
 7528TIP3    H244076   5.870   5.040  16.785 -0.0364  0.3789  0.1551
 7529TIP3   OH244077   3.174   0.964   1.183 -0.1313 -0.1611 -0.1104
 7529TIP3    H144078   3.251   0.912   1.159  0.5029  1.6936 -2.5312
 7529TIP3    H244079   3.196   1.001   1.268  0.8442 -1.1188  0.0810
 7530TIP3   OH244080   3.314   0.004   6.188 -0.1392 -0.0488 -0.1942
 7530TIP3    H144081   3.305  -0.090   6.204  0.7924 -0.9351 -3.8437
 7530TIP3    H244082   3.337   0.041   6.273  1.0322 -3.3521  1.0977
 7531TIP3   OH244083   5.876   0.798  15.412  0.0766  0.0401 -0.1034
 7531TIP3    H144084   5.946   0.733  15.419 -0.4331 -0.7494 -1.8096
 7531TIP3    H244085   5.920   0.879  15.386  0.5075 -0.0948  0.2107
 7532TIP3   OH244086   4.457   1.149   5.505 -0.4055 -0.3543 -0.2199
 7532TIP3    H144087   4.408   1.071   5.533  1.5218 -2.0876 -1.4113
 7532TIP3    H244088   4.536   1.114   5.464  1.3148  2.2892  0.5941
 7533TIP3   OH244089   6.401   3.516   1.545  0.3267  0.5151 -0.1624
 7533TIP3    H144090   6.466   3.447   1.531 -0.1421 -0.1202  0.7479
 7533TIP3    H244091   6.432   3.563   1.623 -1.9205 -1.8149  2.3253
 7534TIP3   OH244092   2.031   2.023  16.387 -0.0714  0.2026 -0.1899
 7534TIP3    H144093   2.123   2.043  16.368 -0.3803  0.3446 -1.6567
 7534TIP3    H244094   2.034   1.941  16.436  0.8146 -0.0586 -0.6575
 7535TIP3   OH244095   5.884   6.471  14.143 -0.4445 -0.1929 -0.3475
 7535TIP3    H144096   5.956   6.409  14.133  1.1187  1.6580 -1.0756
 7535TIP3    H244097   5.828   6.455  14.067 -0.4015 -1.0977 -0.2021
 7536TIP3   OH244098   1.943   1.672   2.194 -0.5147 -0.0849  0.2661
 7536TIP3    H144099   1.919   1.726   2.119  0.5473 -1.0952 -0.8438
 7536TIP3    H244100   1.867   1.615   2.208 -1.6324  1.6119  1.4311
 7537TIP3   OH244101   1.373   5.718   6.522 -0.5253  0.0411  0.3798
 7537TIP3    H144102   1.352   5.806   6.556 -0.3763 -0.1496  0.9780
 7537TIP3    H244103   1.468   5.719   6.511 -0.5950  0.1668 -0.2300
 7538TIP3   OH244104   2.257   3.254  11.104  0.2303 -0.3057 -0.0949
 7538TIP3    H144105   2.291   3.308  11.175 -1.7215 -0.5605  1.0818
 7538TIP3    H244106   2.303   3.287  11.026  0.5461  1.7208  0.8761
 7539TIP3   OH244107   1.617   0.228  12.837  0.4153  0.7316  1.0578
 7539TIP3    H144108   1.567   0.158  12.796  1.5497  1.0567 -0.9851
 7539TIP3    H244109   1.698   0.185  12.866  0.3875  0.8664  1.3336
 7540TIP3   OH244110   4.721   5.115  16.024  0.3336 -0.3372 -0.2109
 7540TIP3    H144111   4.800   5.166  16.011 -0.3631  0.6142 -0.8715
 7540TIP3    H244112   4.654   5.179  16.049 -0.3715 -1.0275 -0.2713
 7541TIP3   OH244113   5.391   5.145  14.707 -0.3794  0.6653  0.3720
 7541TIP3    H144114   5.409   5.051  14.699 -0.3734  0.6692  0.3383
 7541TIP3    H244115   5.456   5.187  14.652 -0.3218  0.6949  0.4633
 7542TIP3   OH244116   0.317   4.934  15.343  0.3842  0.2622  0.3285
 7542TIP3    H144117   0.295   4.873  15.274  1.7985 -0.8159  0.7815
 7542TIP3    H244118   0.365   4.882  15.408  0.6538  1.5987  1.2674
 7543TIP3   OH244119   5.311   1.385  12.805  0.4849 -0.3252  0.3414
 7543TIP3    H144120   5.266   1.374  12.888  1.4598 -2.1926  0.6713
 7543TIP3    H244121   5.277   1.467  12.770 -2.3939 -1.0980  1.0309
 7544TIP3   OH244122   4.290   4.322   0.081 -0.0338  0.4805 -0.2418
 7544TIP3    H144123   4.382   4.297   0.086  0.0269  0.1920 -2.0437
 7544TIP3    H244124   4.276   4.378   0.157  1.3501 -0.3104  0.6308
 7545TIP3   OH244125   5.395   4.323   5.831 -0.6082 -0.3304 -0.7676
 7545TIP3    H144126   5.356   4.331   5.744 -2.2250  0.2475 -0.0147
 7545TIP3    H244127   5.427   4.232   5.834  0.2938 -0.1060 -2.2600
 7546TIP3   OH244128   1.244   3.598  13.571 -0.0688  0.5298 -0.1908
 7546TIP3    H144129   1.304   3.665  13.538 -1.4344  1.2134 -1.4132
 7546TIP3    H244130   1.178   3.648  13.619  0.2201 -0.1990  1.0092
 7547TIP3   OH244131   5.044   5.028  13.896 -0.0378  0.2062 -0.0240
 7547TIP3    H144132   5.043   5.116  13.935  0.9382 -0.3889  1.4428
 7547TIP3    H244133   5.083   5.040  13.810 -1.2623  1.4124 -0.4528
 7548TIP3   OH244134   2.866   3.933  12.024 -0.3567 -0.3592  0.2294
 7548TIP3    H144135   2.849   3.923  11.931 -1.6556 -1.3704  0.5349
 7548TIP3    H244136   2.959   3.913  12.035 -0.6885 -2.7265 -0.5630
 7549TIP3   OH244137   2.726   5.151  14.431 -0.2684 -0.0339  0.2105
 7549TIP3    H144138   2.801   5.166  14.373  0.1179 -1.3243  0.3463
 7549TIP3    H244139   2.695   5.239  14.453  0.2533  0.5007 -1.0762
 7550TIP3   OH244140   1.509   4.943   1.183  0.0367 -0.3627  0.2389
 7550TIP3    H144141   1.497   4.850   1.202  0.4865 -0.2803  0.9643
 7550TIP3    H244142   1.535   4.946   1.091 -1.5186 -0.8333 -0.2591
 7551TIP3   OH244143   1.555   0.754   6.391  0.5164 -0.4439 -0.5075
 7551TIP3    H144144   1.580   0.846   6.388 -1.0309 -0.0047 -1.1954
 7551TIP3    H244145   1.632   0.708   6.424  1.4182  1.0560 -0.4737
 7552TIP3   OH244146   4.805   4.650  12.666 -0.0325 -0.3840 -0.2967
 7552TIP3    H144147   4.731   4.658  12.605  1.3549 -1.0810 -2.1933
 7552TIP3    H244148   4.876   4.698  12.623  2.9262 -5.8933 -2.6599
 7553TIP3   OH244149   5.345   3.011   2.351 -0.4069 -0.1943 -0.0522
 7553TIP3    H144150   5.270   2.973   2.398 -0.3096 -0.2794  0.0361
 7553TIP3    H244151   5.386   2.935   2.309 -1.0798  0.0072 -1.1199
 7554TIP3   OH244152   3.041   5.936   0.471 -0.4542  0.6577  0.5577
 7554TIP3    H144153   3.113   5.874   0.464  0.1025  1.4246 -0.9416
 7554TIP3    H244154   3.075   6.018   0.435 -2.3426  0.7841 -1.1714
 7555TIP3   OH244155   0.804   0.168  10.524  0.3073  0.1239  0.0449
 7555TIP3    H144156   0.878   0.182  10.465  1.1198  0.4782  1.1255
 7555TIP3    H244157   0.836   0.195  10.610 -0.9651 -0.0615  0.5978
 7556TIP3   OH244158   4.182   6.723  16.144  0.1883 -0.1641  0.6338
 7556TIP3    H144159   4.116   6.667  16.184 -0.9350  0.7394  0.1057
 7556TIP3    H244160   4.240   6.663  16.097 -0.6896 -0.9194  0.5016
 7557TIP3   OH244161   2.079   5.992  13.742  0.4055 -0.0337  0.0963
 7557TIP3    H144162   2.130   6.013  13.820  0.4184 -0.4798  0.2080
 7557TIP3    H244163   2.097   5.900  13.726 -0.7614 -0.3414  0.4439
 7558TIP3   OH244164   3.244   2.006  13.764 -0.3292 -0.5339 -0.0160
 7558TIP3    H144165   3.292   2.088  13.774  0.0455 -0.9480  1.9654
 7558TIP3    H244166   3.304   1.949  13.715 -0.4948  0.2557 -1.1803
 7559TIP3   OH244167   6.389   0.987   5.772 -0.5828 -0.0507 -0.7169
 7559TIP3    H144168   6.448   1.051   5.811 -1.4328  0.0766  0.4265
 7559TIP3    H244169   6.422   0.903   5.804 -0.6813 -0.0205 -0.5316
 7560TIP3   OH244170   3.920   2.883  12.962 -0.2184 -0.6114 -0.1031
 7560TIP3    H144171   3.860   2.933  13.018 -0.1130 -2.9755  2.2817
 7560TIP3    H244172   4.003   2.884  13.008  0.2242 -1.5964 -0.8437
 7561TIP3   OH244173   5.194   4.337  14.704  0.0508 -0.4612 -0.2037
 7561TIP3    H144174   5.230   4.256  14.742  0.0956 -0.0055  0.7520
 7561TIP3    H244175   5.259   4.364  14.639  0.9226 -0.2362  0.7406
 7562TIP3   OH244176   0.659   2.319  16.291 -0.0654 -0.2292  0.0273
 7562TIP3    H144177   0.628   2.255  16.227 -1.6384  0.7104 -0.1923
 7562TIP3    H244178   0.698   2.265  16.361 -0.8367 -1.3970 -0.4072
 7563TIP3   OH244179   3.363   4.774   3.525  0.2735 -0.1116 -0.0993
 7563TIP3    H144180   3.303   4.700   3.517  0.0331 -0.3596  2.9258
 7563TIP3    H244181   3.339   4.816   3.608  2.4741  1.4517 -0.1615
 7564TIP3   OH244182   6.286   6.448  11.977 -0.1645 -0.2205 -0.1776
 7564TIP3    H144183   6.233   6.489  11.909  0.6304  0.1136 -0.6046
 7564TIP3    H244184   6.318   6.368  11.937 -2.0114 -1.5108  0.7739
 7565TIP3   OH244185   4.560   3.479  11.850 -0.2754 -0.0913 -0.5431
 7565TIP3    H144186   4.646   3.477  11.893  0.1193 -1.7612 -1.3253
 7565TIP3    H244187   4.576   3.521  11.766  0.2846 -2.2535 -1.5888
 7566TIP3   OH244188   0.545   4.241  13.700 -0.1796 -0.3901  0.3946
 7566TIP3    H144189   0.581   4.202  13.620  1.7760  1.4526  0.2757
 7566TIP3    H244190   0.620   4.284  13.741 -1.7490  1.2726  1.6636
 7567TIP3   OH244191   1.808   2.078   6.457 -0.2376  0.3256 -0.1631
 7567TIP3    H144192   1.717   2.052   6.475  0.4176 -0.7244  1.9972
 7567TIP3    H244193   1.801   2.166   6.421 -2.0371  0.8424  1.3019
 7568TIP3   OH244194   5.702   6.494   0.765 -0.2409  0.2435 -0.0051
 7568TIP3    H144195   5.780   6.440   0.752 -0.0397  0.6780 -0.6603
 7568TIP3    H244196   5.658   6.492   0.680 -1.2697 -0.4923  0.5238
 7569TIP3   OH244197   3.176   6.308   3.558 -0.3923  0.1360 -0.2403
 7569TIP3    H144198   3.081   6.309   3.567 -0.3405  0.4658  0.2958
 7569TIP3    H244199   3.194   6.238   3.495 -1.1796  1.8891 -2.5731
 7570TIP3   OH244200   3.885   3.577  12.111 -0.0946  0.2385 -0.3148
 7570TIP3    H144201   3.831   3.503  12.081 -1.2507  0.8954  0.0688
 7570TIP3    H244202   3.830   3.654  12.097  1.0511  1.0263 -0.6027
 7571TIP3   OH244203   2.477   4.225   1.267 -0.1328 -0.3100  0.4334
 7571TIP3    H144204   2.571   4.224   1.280 -0.0598 -1.5316 -0.0467
 7571TIP3    H244205   2.464   4.259   1.179  0.0991 -3.2661 -0.8412
 7572TIP3   OH244206   3.267   2.887  13.034 -0.2464 -0.3369 -0.2696
 7572TIP3    H144207   3.235   2.960  12.980 -1.8906 -0.0675  1.0042
 7572TIP3    H244208   3.245   2.809  12.984  0.1694 -0.0251 -0.9567
 7573TIP3   OH244209   6.625   4.609  13.579 -0.3086  0.3975 -0.6936
 7573TIP3    H144210   6.589   4.546  13.516 -0.5344 -0.4946  0.2887
 7573TIP3    H244211   6.597   4.575  13.665  2.3709 -0.0592  0.1097
 7574TIP3   OH244212   1.859   3.150   5.264  0.1751 -0.2532 -0.5542
 7574TIP3    H144213   1.805   3.142   5.185 -1.5056  0.4787  0.4727
 7574TIP3    H244214   1.866   3.244   5.279 -0.4832 -0.3838  0.7671
 7575TIP3   OH244215   4.217   2.399   5.978  0.4777  0.0431 -0.1114
 7575TIP3    H144216   4.286   2.452   5.939  0.6413  0.8126  1.1640
 7575TIP3    H244217   4.196   2.443   6.060 -0.9866 -0.6162 -0.0971
 7576TIP3   OH244218   2.197   1.219   0.868  0.2957  0.0062  0.2395
 7576TIP3    H144219   2.250   1.218   0.789  0.0644 -1.7493  0.0585
 7576TIP3    H244220   2.257   1.194   0.938  0.3169  0.7653  0.5055
 7577TIP3   OH244221   2.906   5.012   3.647  0.4680  0.1030  1.0251
 7577TIP3    H144222   2.940   4.938   3.698 -0.8955 -2.0816 -0.9894
 7577TIP3    H244223   2.822   5.033   3.688  0.1675 -0.4922  0.7253
 7578TIP3   OH244224   4.828   0.882  13.718  0.2376 -0.5003 -0.3678
 7578TIP3    H144225   4.832   0.793  13.751 -0.5665  0.0076  1.1633
 7578TIP3    H244226   4.918   0.915  13.725  0.6325 -1.3145 -1.3788
 7579TIP3   OH244227   0.655   4.901   5.460  0.1923 -0.1986  0.2197
 7579TIP3    H144228   0.656   4.841   5.534  0.5017 -0.8089 -0.2738
 7579TIP3    H244229   0.747   4.924   5.446  0.2670 -0.9770 -0.6756
 7580TIP3   OH244230   3.186   4.578   2.668 -0.3424  0.7754 -0.1576
 7580TIP3    H144231   3.225   4.665   2.675  0.0906  0.4552  2.7815
 7580TIP3    H244232   3.103   4.585   2.717  0.1580 -0.6377  0.9609
 7581TIP3   OH244233   2.489   5.459   3.605 -0.4480 -0.3376 -0.4061
 7581TIP3    H144234   2.519   5.373   3.576 -0.7804 -0.5680 -0.0637
 7581TIP3    H244235   2.436   5.491   3.532  0.1656 -0.1594 -0.7871
 7582TIP3   OH244236   3.205   6.408  13.449 -0.0280 -0.3783  0.1556
 7582TIP3    H144237   3.141   6.474  13.474 -0.6354 -1.1602  0.7048
 7582TIP3    H244238   3.157   6.349  13.391  0.9320  0.5255 -1.6504
 7583TIP3   OH244239   1.806   2.398  17.109 -0.4126  0.4279  0.4528
 7583TIP3    H144240   1.889   2.356  17.131  0.1095 -0.2438 -2.4673
 7583TIP3    H244241   1.742   2.355  17.165  0.8850 -0.5076  1.2882
 7584TIP3   OH244242   1.463   2.527  15.871  0.1175 -0.2635  0.3068
 7584TIP3    H144243   1.451   2.461  15.802  0.9634  0.3687 -0.4755
 7584TIP3    H244244   1.382   2.579  15.869  0.5838  0.4638 -1.0317
 7585TIP3   OH244245   6.037   3.520  12.990  0.2491  0.0786 -0.5241
 7585TIP3    H144246   5.978   3.494  13.061  2.3419  2.1826  2.2101
 7585TIP3    H244247   5.992   3.592  12.946 -1.2996 -1.5827 -1.8139
 7586TIP3   OH244248   1.393   4.538   3.314  0.1670  0.0111  0.0101
 7586TIP3    H144249   1.417   4.512   3.403  2.9498 -1.5558 -1.1049
 7586TIP3    H244250   1.433   4.624   3.303 -2.9201  1.7660  1.2362
 7587TIP3   OH244251   0.086   6.432   3.192 -0.3032  0.3356 -0.8605
 7587TIP3    H144252   0.002   6.452   3.235  0.4875  0.2711  0.7731
 7587TIP3    H244253   0.150   6.484   3.241  0.5783  0.7208 -2.3667
 7588TIP3   OH244254   5.938   1.260  14.889 -0.0000 -0.2987 -0.0031
 7588TIP3    H144255   5.928   1.339  14.835 -2.1485 -1.4021 -1.3746
 7588TIP3    H244256   6.017   1.218  14.855 -0.0434  0.1838 -0.7398
 7589TIP3   OH244257   5.016   4.296  11.875  0.2016  0.4857 -0.1795
 7589TIP3    H144258   4.962   4.254  11.942 -0.9292  1.1180 -0.6721
 7589TIP3    H244259   5.015   4.389  11.898  0.6054  0.5834 -0.5433
 7590TIP3   OH244260   6.581   1.817   1.220 -0.1746  0.2129 -0.2236
 7590TIP3    H144261   6.562   1.733   1.261  1.0695 -0.2430 -0.5108
 7590TIP3    H244262   6.548   1.808   1.130 -0.8994  0.3954  0.0180
 7591TIP3   OH244263   2.345   6.247   6.572 -0.1052 -0.1144  0.0160
 7591TIP3    H144264   2.376   6.293   6.494 -0.4696  0.3593  0.1412
 7591TIP3    H244265   2.307   6.316   6.626  0.8650 -0.3180  0.9826
 7592TIP3   OH244266   6.440   4.773  16.163  0.0878 -0.7787 -0.1961
 7592TIP3    H144267   6.392   4.816  16.091  0.0137 -0.9393 -0.2419
 7592TIP3    H244268   6.531   4.771  16.133  0.0648 -0.8020 -0.2631
 7593TIP3   OH244269   4.207   2.675  16.041  0.7975 -0.0017  0.6077
 7593TIP3    H144270   4.185   2.746  15.982 -1.8330  1.2327  2.8736
 7593TIP3    H244271   4.149   2.603  16.016  2.8598 -1.1824 -1.1241
 7594TIP3   OH244272   0.836   2.798   5.486  0.3012  0.3585 -0.2513
 7594TIP3    H144273   0.829   2.762   5.575 -1.0320  2.8320  0.7352
 7594TIP3    H244274   0.927   2.781   5.461  0.1217 -2.4428  0.5966
 7595TIP3   OH244275   6.127   5.789  14.258  0.1086  0.3261  0.0677
 7595TIP3    H144276   6.060   5.749  14.202 -0.8960  2.3239 -0.2393
 7595TIP3    H244277   6.197   5.815  14.197  0.5218 -0.4244  0.2023
 7596TIP3   OH244278   6.203   2.159   4.368 -0.3526  0.3523 -0.1361
 7596TIP3    H144279   6.108   2.154   4.360 -0.2816  0.2748 -1.0733
 7596TIP3    H244280   6.235   2.137   4.281  0.5404  0.0486  0.2629
 7597TIP3   OH244281   1.945   4.852  16.338 -0.5123  0.7994  0.4203
 7597TIP3    H144282   2.004   4.877  16.410 -1.3115  2.3042  0.5881
 7597TIP3    H244283   1.864   4.825  16.381  0.0588 -1.4625  0.1981
 7598TIP3   OH244284   2.326   6.422   2.930  0.0467  0.3259  0.2828
 7598TIP3    H144285   2.264   6.356   2.962  0.3473 -0.1930 -0.1708
 7598TIP3    H244286   2.338   6.400   2.837 -0.8064  1.7895 -0.2040
 7599TIP3   OH244287   3.618   6.456   0.496 -0.2178 -0.2744 -0.1162
 7599TIP3    H144288   3.658   6.516   0.559  1.6899  0.6399 -2.0686
 7599TIP3    H244289   3.656   6.371   0.516  0.2563 -0.0202  0.0874
 7600TIP3   OH244290   0.064   1.594  12.826  0.6634  0.6105  0.6471
 7600TIP3    H144291   0.034   1.654  12.895 -1.9767 -0.1669  0.2806
 7600TIP3    H244292   0.142   1.554  12.863 -0.3462  0.6227  3.0160
 7601TIP3   OH244293   4.943   5.822   2.242  0.3021 -0.4475 -0.0807
 7601TIP3    H144294   4.977   5.745   2.288  0.7223 -0.1215  0.1599
 7601TIP3    H244295   4.935   5.889   2.310  1.4218  0.1992 -0.5547
 7602TIP3   OH244296   0.682   3.989  11.271 -0.3044  0.4825 -0.3311
 7602TIP3    H144297   0.608   3.957  11.323 -0.5693 -0.5451 -1.2924
 7602TIP3    H244298   0.666   3.955  11.183  1.6694 -0.3937 -0.4168
 7603TIP3   OH244299   6.031   2.574  15.297 -0.2701 -0.1271  0.1780
 7603TIP3    H144300   5.999   2.501  15.244 -0.1337 -0.1347  0.1067
 7603TIP3    H244301   5.952   2.613  15.334 -0.2616 -1.2684  1.4816
 7604TIP3   OH244302   6.278   4.933   2.779  0.2018  0.2126  0.0934
 7604TIP3    H144303   6.304   4.882   2.856  3.5693 -0.6319 -1.4144
 7604TIP3    H244304   6.280   4.870   2.707 -2.5815  1.0401 -0.8390
 7605TIP3   OH244305   3.713   3.134   2.018 -0.0863 -0.1762 -0.2045
 7605TIP3    H144306   3.695   3.093   2.103  0.4967  1.0574  0.5372
 7605TIP3    H244307   3.740   3.062   1.962  1.9543 -0.7286  1.3529
 7606TIP3   OH244308   2.498   3.253   4.146 -0.5201  0.4847 -0.8159
 7606TIP3    H144309   2.568   3.203   4.190 -1.9295  0.1906  1.2343
 7606TIP3    H244310   2.449   3.187   4.097  0.4970  0.6742 -2.1637
 7607TIP3   OH244311   5.168   6.460  14.220 -0.2883 -0.1648  0.2440
 7607TIP3    H144312   5.140   6.379  14.178 -0.2038  0.2410 -0.6271
 7607TIP3    H244313   5.124   6.460  14.305 -1.8084 -0.2284 -0.4964
 7608TIP3   OH244314   2.613   4.344   0.127 -0.9415 -0.1213 -0.2494
 7608TIP3    H144315   2.546   4.325   0.193 -0.2152 -0.8804  0.3068
 7608TIP3    H244316   2.610   4.439   0.115 -2.1790 -0.1575 -0.3229
 7609TIP3   OH244317   6.382   4.074  13.785 -0.2368  0.0296  0.3631
 7609TIP3    H144318   6.437   4.002  13.813 -0.3420 -0.4403 -0.5720
 7609TIP3    H244319   6.381   4.068  13.689 -2.3998 -0.3794  0.3468
 7610TIP3   OH244320   4.541   0.928   3.204  0.4937 -0.0691 -0.6898
 7610TIP3    H144321   4.573   1.016   3.186  0.3768  0.1526  0.1374
 7610TIP3    H244322   4.516   0.893   3.118 -0.5664  1.1325 -0.9011
 7611TIP3   OH244323   0.110   2.704   0.012  0.0081  0.2621  0.7731
 7611TIP3    H144324   0.074   2.723  -0.075 -1.2339  1.0115  1.4243
 7611TIP3    H244325   0.122   2.609   0.013 -3.6382 -0.3395  1.0858
 7612TIP3   OH244326   6.827   0.229   1.266 -0.0691  0.1629  0.2692
 7612TIP3    H144327   6.851   0.240   1.358  0.4193  0.8091  0.0699
 7612TIP3    H244328   6.732   0.240   1.265 -0.2829 -1.3802  0.9159
 7613TIP3   OH244329   4.344   3.075  14.599  0.2253  0.2337  0.2096
 7613TIP3    H144330   4.326   3.055  14.691  0.8168 -0.8911  0.0957
 7613TIP3    H244331   4.258   3.065  14.556  0.1372 -0.2292  0.4800
 7614TIP3   OH244332   6.199   4.279  13.163  0.5384  0.5259 -0.2385
 7614TIP3    H144333   6.239   4.195  13.188  0.1262 -0.1486 -1.7355
 7614TIP3    H244334   6.274   4.338  13.153  0.7317  0.8263  2.3780
 7615TIP3   OH244335   4.571   3.498  11.197  0.1421 -0.3191 -0.1287
 7615TIP3    H144336   4.603   3.408  11.195 -0.9060 -0.7181  0.3308
 7615TIP3    H244337   4.641   3.549  11.157  2.7129 -0.7257  3.3661
 7616TIP3   OH244338   3.488   1.522  10.373  0.0637  0.4818  0.5124
 7616TIP3    H144339   3.548   1.492  10.442 -0.0289  1.7377  1.1610
 7616TIP3    H244340   3.540   1.583  10.321  0.4845 -1.2956 -1.2693
 7617TIP3   OH244341   6.079   1.822  15.010 -0.1460 -0.0314 -0.0513
 7617TIP3    H144342   6.015   1.884  14.975 -1.8506  0.3958  3.3834
 7617TIP3    H244343   6.102   1.858  15.096  3.1257 -1.3531 -0.2354
 7618TIP3   OH244344   2.142   4.620   3.032 -0.4720 -0.4360  0.6328
 7618TIP3    H144345   2.172   4.568   3.106  0.5101 -1.1089 -0.2096
 7618TIP3    H244346   2.161   4.566   2.955 -0.6996  0.5883 -0.1731
 7619TIP3   OH244347   6.810   0.837  12.955 -0.0089  1.0543 -0.5440
 7619TIP3    H144348   6.790   0.812  12.865 -1.2901  0.1842 -0.0611
 7619TIP3    H244349   6.891   0.790  12.975 -0.5758 -0.0662 -0.7514
 7620TIP3   OH244350   2.755   0.707  16.958 -0.0947  0.4136 -0.4615
 7620TIP3    H144351   2.834   0.655  16.946 -0.1717  0.4456 -1.1550
 7620TIP3    H244352   2.751   0.724  17.052  0.5648  0.1668 -0.3854
 7621TIP3   OH244353   1.601   4.920  12.330 -0.3469  0.4528  0.1704
 7621TIP3    H144354   1.594   4.850  12.265  0.3768  0.1385  0.4266
 7621TIP3    H244355   1.512   4.956  12.334 -0.9114 -0.8926  0.5314
 7622TIP3   OH244356   2.380   5.456   3.005  0.1736  0.7709 -0.4349
 7622TIP3    H144357   2.357   5.506   2.927 -0.6040 -0.7684 -1.2453
 7622TIP3    H244358   2.344   5.369   2.989 -1.6853  0.8801  2.4309
 7623TIP3   OH244359   4.070   5.968   2.540  0.3115  0.3061  0.4157
 7623TIP3    H144360   4.133   5.982   2.470  0.6001 -1.8140  0.1905
 7623TIP3    H244361   4.120   5.923   2.608 -0.8898 -1.2261  0.3243
 7624TIP3   OH244362   6.575   4.256   4.380  0.0219 -0.1752 -0.2173
 7624TIP3    H144363   6.649   4.257   4.440 -0.6999  0.4153  0.6949
 7624TIP3    H244364   6.607   4.299   4.301  0.9948 -0.9750 -0.2760
 7625TIP3   OH244365   4.751   4.010   6.260  0.3754  0.0589 -0.3883
 7625TIP3    H144366   4.812   4.019   6.333 -0.0864 -0.3473  0.0482
 7625TIP3    H244367   4.723   3.919   6.262  1.4521 -0.3535 -1.9586
 7626TIP3   OH244368   5.133   6.135  12.085 -0.4561 -0.0661  0.0761
 7626TIP3    H144369   5.081   6.215  12.084 -0.6782 -0.1731  1.1247
 7626TIP3    H244370   5.125   6.099  11.997 -2.2591 -0.1470  0.2362
 7627TIP3   OH244371   6.656   4.154   6.252 -0.0880 -0.1517 -0.2583
 7627TIP3    H144372   6.611   4.091   6.196 -0.4617 -0.0761 -0.0459
 7627TIP3    H244373   6.695   4.101   6.321 -0.9547 -0.1042  0.2946
 7628TIP3   OH244374   4.036   0.056  15.963  0.2198  0.1855 -0.0616
 7628TIP3    H144375   4.107   0.038  16.024  1.1605  1.5811 -0.7073
 7628TIP3    H244376   3.989   0.130  16.001 -0.3484 -0.1470 -0.0987
 7629TIP3   OH244377   2.754   2.199   0.216 -0.2272  0.2032  0.5987
 7629TIP3    H144378   2.734   2.125   0.159  0.3084  0.6081 -0.1205
 7629TIP3    H244379   2.668   2.235   0.239 -0.5579 -1.1658  1.6926
 7630TIP3   OH244380   2.782   1.000   3.357 -0.2232 -0.1436 -0.1049
 7630TIP3    H144381   2.841   1.040   3.420 -0.5333  0.8446 -0.4343
 7630TIP3    H244382   2.696   1.035   3.378 -0.9180 -2.3028  0.9871
 7631TIP3   OH244383   4.959   5.547   1.874  0.0879 -0.5799 -0.6042
 7631TIP3    H144384   4.907   5.490   1.817 -1.4749 -1.4581  1.5227
 7631TIP3    H244385   5.021   5.488   1.916 -1.3702 -0.7998  1.4197
 7632TIP3   OH244386   0.305   6.307   4.460  0.3069  0.2068 -0.4226
 7632TIP3    H144387   0.387   6.259   4.454 -0.2818 -0.8313 -0.3141
 7632TIP3    H244388   0.237   6.242   4.443 -0.4612  1.2600 -1.6164
 7633TIP3   OH244389   1.075   2.102  15.970 -0.7837 -0.3510 -0.3472
 7633TIP3    H144390   1.086   2.197  15.970  2.4568 -0.5953  0.1060
 7633TIP3    H244391   1.061   2.079  16.062  0.5600 -0.4185 -0.1366
 7634TIP3   OH244392   2.188   0.703   5.934 -0.3602 -0.4564 -0.5365
 7634TIP3    H144393   2.218   0.633   5.992 -1.3802 -1.9452 -1.6847
 7634TIP3    H244394   2.237   0.689   5.853 -0.6140  0.1377 -0.7985
 7635TIP3   OH244395   2.115   0.737   1.516 -0.1127 -0.1272 -0.3528
 7635TIP3    H144396   2.198   0.689   1.522 -0.1538 -0.0848  0.6040
 7635TIP3    H244397   2.140   0.829   1.528 -0.5084 -0.2721  2.0334
 7636TIP3   OH244398   4.288   2.429   3.040  0.0263 -0.3493  0.0900
 7636TIP3    H144399   4.376   2.424   3.076 -0.1166 -1.7464  0.3255
 7636TIP3    H244400   4.287   2.509   2.988  1.4770 -0.3881 -0.0307
 7637TIP3   OH244401   1.191   6.542   2.719 -0.1249  0.1206 -0.0173
 7637TIP3    H144402   1.177   6.636   2.729  2.4198  0.4525  1.4409
 7637TIP3    H244403   1.156   6.504   2.799 -0.1812 -0.0300 -0.1144
 7638TIP3   OH244404   4.624   2.185  12.355  0.1064 -0.1079 -0.4914
 7638TIP3    H144405   4.650   2.272  12.388  0.0748 -0.5988  0.8873
 7638TIP3    H244406   4.530   2.192  12.341  0.2937  0.4369 -1.5431
 7639TIP3   OH244407   2.799   1.702   2.049  0.1398  0.7792  0.3732
 7639TIP3    H144408   2.766   1.616   2.025  0.4261  0.5416  0.8297
 7639TIP3    H244409   2.748   1.727   2.126  0.0191  1.0428  0.2105
 7640TIP3   OH244410   2.574   1.129   2.960 -0.1202  0.2056 -0.3806
 7640TIP3    H144411   2.670   1.124   2.955 -0.1227 -0.4976  0.1906
 7640TIP3    H244412   2.547   1.042   2.989 -0.6573  1.3929  3.0788
 7641TIP3   OH244413   4.175   5.966  12.671 -0.7837 -0.0008 -0.0418
 7641TIP3    H144414   4.159   6.047  12.720 -0.8497  0.6762 -1.1658
 7641TIP3    H244415   4.144   5.984  12.582 -0.7573 -1.2487 -0.3269
 7642TIP3   OH244416   0.165   6.117   3.561 -0.0560 -0.3982  0.1355
 7642TIP3    H144417   0.143   6.164   3.641  0.6536  2.2686 -1.0813
 7642TIP3    H244418   0.245   6.070   3.581  0.6447  1.0105  0.7772
 7643TIP3   OH244419   0.659   4.332   1.666  0.1726 -0.0019 -0.4427
 7643TIP3    H144420   0.668   4.394   1.739  1.4283 -1.0510  0.3257
 7643TIP3    H244421   0.626   4.252   1.706  0.9730 -0.6265 -0.9989
 7644TIP3   OH244422   5.493   5.152  12.114 -0.3497 -0.2795 -0.1111
 7644TIP3    H144423   5.436   5.188  12.045 -0.9325 -0.9369  0.0156
 7644TIP3    H244424   5.463   5.194  12.194  0.0110  0.1237 -0.1826
 7645TIP3   OH244425   2.772   4.799  12.276  0.4469 -0.0023 -0.5435
 7645TIP3    H144426   2.852   4.850  12.292  0.8270 -0.9780  0.8697
 7645TIP3    H244427   2.763   4.744  12.354 -0.2465 -1.7274 -1.7820
 7646TIP3   OH244428   0.187   2.045  11.268 -0.0282 -0.1210 -0.2913
 7646TIP3    H144429   0.245   2.022  11.341 -0.6439  1.7574  0.8842
 7646TIP3    H244430   0.134   1.967  11.254  0.4393 -0.7000  0.9718
 7647TIP3   OH244431   4.525   1.421  15.027 -0.1423 -0.0944  0.4103
 7647TIP3    H144432   4.477   1.490  14.982  0.1804 -0.6717 -0.8639
 7647TIP3    H244433   4.458   1.373  15.076 -0.7929 -0.5014 -0.8338
 7648TIP3   OH244434   0.312   5.151   2.122 -0.2041  0.6501  0.3280
 7648TIP3    H144435   0.217   5.166   2.117 -0.4436 -0.5303  0.9704
 7648TIP3    H244436   0.327   5.128   2.214  0.5533 -0.2035 -0.0024
 7649TIP3   OH244437   1.483   2.246   4.972 -0.4981  0.0241  0.2393
 7649TIP3    H144438   1.439   2.311   4.918 -0.9126  1.3905  2.1188
 7649TIP3    H244439   1.415   2.184   4.996 -0.8721  0.7748  1.1538
 7650TIP3   OH244440   1.717   6.793   0.814  0.0941  0.5224  0.3979
 7650TIP3    H144441   1.790   6.835   0.860 -0.7783  0.5154  1.8616
 7650TIP3    H244442   1.749   6.778   0.726  1.6039  1.1892  0.8082
 7651TIP3   OH244443   5.227   2.907  16.836  0.0378  0.2190  0.2137
 7651TIP3    H144444   5.158   2.971  16.854 -1.3073 -1.3514  0.9477
 7651TIP3    H244445   5.295   2.956  16.790 -1.6029  1.8121 -0.6043
 7652TIP3   OH244446   1.062   2.354  11.907 -0.2224  0.7157  0.0439
 7652TIP3    H144447   1.145   2.350  11.860  1.1785 -2.4013  2.3878
 7652TIP3    H244448   1.006   2.290  11.863  0.5340 -1.0230  1.4936
 7653TIP3   OH244449   2.216   2.998  14.349 -0.6238  0.0268  0.9333
 7653TIP3    H144450   2.257   2.935  14.408  1.0326 -0.5652 -0.7675
 7653TIP3    H244451   2.221   2.958  14.263 -1.9509  1.3678  0.1800
 7654TIP3   OH244452   2.048   0.134   2.831  0.5094 -0.5197  0.2948
 7654TIP3    H144453   2.123   0.183   2.796  0.8364 -1.3863 -0.2591
 7654TIP3    H244454   2.018   0.080   2.758 -0.1409 -0.7947  0.7501
 7655TIP3   OH244455   5.875   2.007   2.006  0.0507 -0.1886 -0.7292
 7655TIP3    H144456   5.890   2.101   2.017  0.7806 -0.3021 -0.7436
 7655TIP3    H244457   5.780   1.997   2.018 -0.1763  0.6712 -1.6006
 7656TIP3   OH244458   1.331   4.969   3.114  0.4764 -0.0573 -0.4104
 7656TIP3    H144459   1.356   5.058   3.139 -0.5913 -0.3831  2.0239
 7656TIP3    H244460   1.375   4.912   3.177 -1.6666 -0.9889  0.3396
 7657TIP3   OH244461   0.937   2.489  12.655  0.1147  0.0611  0.7247
 7657TIP3    H144462   1.010   2.433  12.684 -0.0921 -1.1447 -0.9452
 7657TIP3    H244463   0.859   2.435  12.668 -0.1620  0.2062 -0.2724
 7658TIP3   OH244464   3.082   6.816   4.017 -0.2306  0.6497 -0.2398
 7658TIP3    H144465   3.113   6.814   3.926  0.2982  1.9176 -0.1068
 7658TIP3    H244466   3.120   6.737   4.057 -2.2479 -1.1364 -1.6328
 7659TIP3   OH244467   6.001   0.759  16.474 -0.3837 -0.4275  0.2248
 7659TIP3    H144468   6.019   0.836  16.528 -1.1009 -0.3410  0.3530
 7659TIP3    H244469   5.912   0.773  16.440 -0.2187 -0.8216 -0.3953
 7660TIP3   OH244470   3.130   5.226  12.006 -0.2988  0.1151  0.3030
 7660TIP3    H144471   3.112   5.318  11.987 -1.3010 -0.0525  0.3775
 7660TIP3    H244472   3.217   5.226  12.045  0.0180  0.9452 -0.3685
 7661TIP3   OH244473   4.378   4.521  11.779  0.5136 -0.2844  0.4461
 7661TIP3    H144474   4.355   4.603  11.822  1.9401  0.8313 -0.8339
 7661TIP3    H244475   4.419   4.469  11.849  1.0754  0.7427  0.9051
 7662TIP3   OH244476   6.191   4.746  15.291  0.7737 -0.4518  0.0125
 7662TIP3    H144477   6.226   4.799  15.219 -2.7981  2.1674 -0.0830
 7662TIP3    H244478   6.145   4.674  15.247  1.8951 -1.1847 -0.0310
 7663TIP3   OH244479   3.640   6.669   4.568  0.0804 -0.1415  0.2978
 7663TIP3    H144480   3.598   6.739   4.618 -0.9558 -1.3872  1.2598
 7663TIP3    H244481   3.629   6.591   4.623 -1.8848 -1.7857 -2.2392
 7664TIP3   OH244482   1.476   1.319  10.482 -0.2269  0.9004 -0.2686
 7664TIP3    H144483   1.404   1.367  10.440 -1.1191 -1.8377 -2.1706
 7664TIP3    H244484   1.468   1.340  10.575 -2.1395  2.3520 -0.6809
 7665TIP3   OH244485   2.349   4.730   2.492 -0.2029 -0.6754  0.0606
 7665TIP3    H144486   2.330   4.817   2.525 -1.2976 -0.7060 -0.4491
 7665TIP3    H244487   2.274   4.708   2.436 -0.3647 -2.2827  0.8602
 7666TIP3   OH244488   1.285   4.384   1.160 -0.0320  0.6244  0.3327
 7666TIP3    H144489   1.292   4.289   1.168  0.6063  0.6686  0.3663
 7666TIP3    H244490   1.337   4.405   1.083  0.6596  1.0381  0.8936
 7667TIP3   OH244491   3.195   3.312  15.274  0.2567  0.6041  0.1493
 7667TIP3    H144492   3.193   3.240  15.210 -2.7400  0.0879  0.6835
 7667TIP3    H244493   3.192   3.269  15.359 -1.1100  1.2987  0.4848
 7668TIP3   OH244494   3.909   3.867  13.386 -0.2332 -0.7648  0.4586
 7668TIP3    H144495   3.814   3.869  13.378 -0.1591 -1.7640 -0.9469
 7668TIP3    H244496   3.925   3.876  13.480 -1.5586  2.7682  0.4861
 7669TIP3   OH244497   5.780   4.586   1.128  0.1296  0.9015  0.2324
 7669TIP3    H144498   5.868   4.558   1.105 -0.2650  0.8180 -1.3292
 7669TIP3    H244499   5.739   4.509   1.166  0.2899  0.5138 -0.3670
 7670TIP3   OH244500   5.062   0.163   5.011  0.0300  0.0018  0.5265
 7670TIP3    H144501   5.029   0.138   5.097  1.1219  0.4894  1.1156
 7670TIP3    H244502   5.138   0.219   5.030  0.9910 -0.8049 -0.7445
 7671TIP3   OH244503   3.395   6.069   5.452 -0.6152  0.0077 -0.0568
 7671TIP3    H144504   3.305   6.036   5.455  0.5074 -3.8126 -2.2405
 7671TIP3    H244505   3.423   6.053   5.362  1.8823  2.3546  0.1962
 7672TIP3   OH244506   3.401   2.560  16.774  0.6014 -0.7862 -0.1102
 7672TIP3    H144507   3.371   2.635  16.721 -0.4470 -1.4884 -0.5481
 7672TIP3    H244508   3.344   2.561  16.851  1.1501 -0.6390  0.2967
 7673TIP3   OH244509   5.283   6.127  11.504  0.0867  0.2590  0.2275
 7673TIP3    H144510   5.203   6.081  11.479  0.0778  0.1721  0.4203
 7673TIP3    H244511   5.326   6.147  11.420  0.4227 -0.6861  0.1600
 7674TIP3   OH244512   2.650   1.372   6.198 -0.2337  0.0295 -0.0153
 7674TIP3    H144513   2.563   1.334   6.188 -1.0886  1.6618  0.7628
 7674TIP3    H244514   2.651   1.444   6.135  1.0955 -0.8304 -1.0071
 7675TIP3   OH244515   6.828   0.885   2.069  0.7841  0.4373  0.0212
 7675TIP3    H144516   6.876   0.895   2.151 -1.1007  1.1036  1.0975
 7675TIP3    H244517   6.876   0.817   2.021  1.0122 -1.1985  2.3955
 7676TIP3   OH244518   0.967   4.810  16.795 -0.3965 -0.1007 -0.3616
 7676TIP3    H144519   0.919   4.793  16.714 -0.4058 -0.5487 -0.2629
 7676TIP3    H244520   0.906   4.789  16.865 -0.8371  1.5252 -0.2113
 7677TIP3   OH244521   0.783   0.925  12.179 -0.3048 -0.4184 -0.2509
 7677TIP3    H144522   0.836   1.003  12.190  0.0230 -0.5636 -0.7708
 7677TIP3    H244523   0.845   0.852  12.183 -0.5072 -0.6092 -0.5040
 7678TIP3   OH244524   4.566   6.079  11.822 -0.2993 -0.0494  0.5492
 7678TIP3    H144525   4.536   6.061  11.911 -0.0376 -0.1617  0.6160
 7678TIP3    H244526   4.623   6.005  11.801 -0.3777 -0.0340  0.2804
 7679TIP3   OH244527   4.390   6.297  15.207 -0.3117  1.0469 -0.0421
 7679TIP3    H144528   4.330   6.343  15.149 -1.6860 -0.2266  0.2992
 7679TIP3    H244529   4.361   6.320  15.295  1.0934  2.1323  0.1659
 7680TIP3   OH244530   5.331   0.561   2.699 -0.7688  0.0004  0.0468
 7680TIP3    H144531   5.255   0.515   2.664  0.5959 -1.4882 -1.1053
 7680TIP3    H244532   5.375   0.497   2.755 -0.8680  1.1665  1.5523
 7681TIP3   OH244533   2.026   3.446  14.294 -0.1484 -0.1779  0.2863
 7681TIP3    H144534   2.062   3.519  14.345 -0.0762  0.1961 -0.2850
 7681TIP3    H244535   2.102   3.409  14.248 -0.0144 -1.2466  1.3253
 7682TIP3   OH244536   3.804   0.352   0.418 -0.0504  0.1925  0.5409
 7682TIP3    H144537   3.755   0.365   0.337  0.6353  0.0826  0.0897
 7682TIP3    H244538   3.739   0.354   0.487 -0.6584  0.2172 -0.0248
 7683TIP3   OH244539   0.890   3.765   3.918  0.5022  0.3124 -0.2025
 7683TIP3    H144540   0.845   3.681   3.930  1.1018 -0.0179 -0.2648
 7683TIP3    H244541   0.882   3.809   4.003  0.6056 -0.0099 -0.0249
 7684TIP3   OH244542   1.317   5.076   3.625  0.0581  0.3855  0.3226
 7684TIP3    H144543   1.317   5.144   3.558 -1.2349 -0.8277 -0.9770
 7684TIP3    H244544   1.410   5.053   3.637  0.2425 -0.5503 -2.3424
 7685TIP3   OH244545   2.991   6.167  12.660 -0.1094  0.3443 -0.2245
 7685TIP3    H144546   3.048   6.208  12.594 -0.5496 -0.3348 -1.0433
 7685TIP3    H244547   2.990   6.229  12.732  1.4046  0.5303 -0.3335
 7686TIP3   OH244548   4.108   3.981  12.719  0.5024 -0.3492 -0.4379
 7686TIP3    H144549   4.066   3.904  12.680  0.3014 -0.9671  0.9517
 7686TIP3    H244550   4.116   4.043  12.646 -1.6893 -0.6789 -1.0424
 7687TIP3   OH244551   1.172   6.259  15.910  0.1413  0.0910 -0.3302
 7687TIP3    H144552   1.241   6.192  15.914 -0.6111 -0.6737  0.4539
 7687TIP3    H244553   1.215   6.336  15.874  2.0393  0.3761  2.2380
 7688TIP3   OH244554   0.700   0.300  15.864 -0.0428  0.2863  0.5233
 7688TIP3    H144555   0.779   0.291  15.917  0.3689  0.5846 -0.0290
 7688TIP3    H244556   0.732   0.322  15.777 -0.8391  3.2635  0.8971
 7689TIP3   OH244557   4.274   0.695   2.043 -0.3198  0.3596 -0.0449
 7689TIP3    H144558   4.190   0.715   2.002 -1.2546  0.3550  1.7918
 7689TIP3    H244559   4.315   0.780   2.056 -0.5096  0.4473 -0.0103
 7690TIP3   OH244560   0.373   1.697  12.479 -0.0260  0.3666  0.1045
 7690TIP3    H144561   0.459   1.695  12.436  0.1865  0.5862  0.5059
 7690TIP3    H244562   0.357   1.606  12.504 -0.7236  0.0179 -1.5251
 7691TIP3   OH244563   4.276   5.334  12.153 -0.3566  0.4724  0.6042
 7691TIP3    H144564   4.268   5.411  12.210 -2.2102  0.9246 -0.1903
 7691TIP3    H244565   4.191   5.328  12.110 -0.1287 -1.8361  0.3851
 7692TIP3   OH244566   6.526   5.207   2.186  0.3095  0.1255 -0.3578
 7692TIP3    H144567   6.487   5.136   2.135 -1.0263 -0.2042  1.0219
 7692TIP3    H244568   6.609   5.172   2.217 -0.2252 -0.7684  0.1089
 7693TIP3   OH244569   6.704   6.288   5.527  0.1414  0.5495  0.6827
 7693TIP3    H144570   6.673   6.378   5.542 -0.3939  0.1893  1.7574
 7693TIP3    H244571   6.793   6.288   5.561  1.0316  1.2866 -1.4383
 7694TIP3   OH244572   4.310   2.726  13.251  0.4177  0.0284 -0.1952
 7694TIP3    H144573   4.398   2.712  13.216  0.3754  2.1672 -1.3470
 7694TIP3    H244574   4.323   2.773  13.333  0.3669 -0.5019  0.1195
 7695TIP3   OH244575   5.357   3.029   3.848  0.0566  0.0701  0.7739
 7695TIP3    H144576   5.320   3.053   3.933  1.7740  1.0775  1.2921
 7695TIP3    H244577   5.439   2.985   3.869 -0.0292 -0.6712 -0.3526
 7696TIP3   OH244578   4.528   4.138   2.218 -0.5274  0.6322 -0.9642
 7696TIP3    H144579   4.604   4.096   2.259 -1.2806  0.3223  0.1578
 7696TIP3    H244580   4.555   4.153   2.127  0.2141 -1.1534 -1.0780
 7697TIP3   OH244581   5.253   4.106   3.189 -0.9606 -0.5439  0.2071
 7697TIP3    H144582   5.202   4.112   3.108  1.6611  1.6263 -1.4555
 7697TIP3    H244583   5.212   4.169   3.248 -1.9585 -1.0063  0.0284
 7698TIP3   OH244584   3.764   0.790   3.880  0.0706  0.2441  0.2551
 7698TIP3    H144585   3.842   0.738   3.859  1.5830  2.6583 -0.5121
 7698TIP3    H244586   3.729   0.750   3.959  1.7284 -1.3106  0.2711
 7699TIP3   OH244587   0.139   2.933  16.308  0.1789 -0.1120  0.1295
 7699TIP3    H144588   0.108   2.919  16.397 -0.0830  0.6164  0.1617
 7699TIP3    H244589   0.068   2.980  16.265  0.2813 -0.5095 -0.4846
 7700TIP3   OH244590   4.575   2.030   0.722 -0.0900  0.3254 -0.0989
 7700TIP3    H144591   4.568   1.937   0.741  0.0115  0.3001 -0.1864
 7700TIP3    H244592   4.662   2.054   0.753  0.2274  0.2006 -0.8952
 7701TIP3   OH244593   4.607   0.868  14.808  0.1608  0.5419  0.1147
 7701TIP3    H144594   4.575   0.783  14.777  1.9096  0.0390 -0.4798
 7701TIP3    H244595   4.651   0.848  14.891 -0.1144  1.0087  0.3731
 7702TIP3   OH244596   4.886   1.533   0.524  0.0421  0.0586 -0.2766
 7702TIP3    H144597   4.798   1.554   0.555 -0.4361 -0.7580 -1.0475
 7702TIP3    H244598   4.918   1.616   0.487 -0.7599  0.1569 -0.8002
 7703TIP3   OH244599   6.090   6.500   1.551  0.4844  0.6763  0.0953
 7703TIP3    H144600   6.052   6.419   1.582  1.1879  1.1377  2.3317
 7703TIP3    H244601   6.042   6.520   1.470 -1.7748 -0.3747  1.1017
 7704TIP3   OH244602   2.651   4.228  11.442  0.8244 -0.2014  0.1629
 7704TIP3    H144603   2.688   4.145  11.470 -0.1221 -0.7916 -0.2895
 7704TIP3    H244604   2.557   4.220  11.458  0.6311  0.5072 -0.5194
 7705TIP3   OH244605   1.841   0.961   4.373  0.3760  0.0489 -0.1793
 7705TIP3    H144606   1.753   0.925   4.377  0.2874  0.3463  0.9515
 7705TIP3    H244607   1.885   0.910   4.305 -0.6108 -0.2052 -0.6451
 7706TIP3   OH244608   3.239   6.659  11.312 -0.1005 -0.0597  0.0530
 7706TIP3    H144609   3.156   6.612  11.309  0.0279 -0.2583 -1.5655
 7706TIP3    H244610   3.247   6.699  11.225  0.7479  1.2924  0.7269
 7707TIP3   OH244611   0.040   0.388   3.585  0.1391 -0.7255  0.3717
 7707TIP3    H144612  -0.020   0.317   3.608 -1.2411  0.5188  0.7587
 7707TIP3    H244613   0.010   0.418   3.499 -1.3822  1.4509  1.5713
 7708TIP3   OH244614   2.300   5.369   2.144 -0.0197 -0.5804 -0.4521
 7708TIP3    H144615   2.258   5.287   2.117  2.0377 -1.9612  0.2988
 7708TIP3    H244616   2.340   5.349   2.229  1.1770  0.9756 -0.6035
 7709TIP3   OH244617   3.967   2.521   2.715  0.2904  0.3518 -0.1054
 7709TIP3    H144618   4.057   2.547   2.694  0.6452 -2.1441 -2.1674
 7709TIP3    H244619   3.974   2.429   2.739 -1.4828  0.6988  1.9929
 7710TIP3   OH244620   5.124   3.275   6.491 -0.3621 -0.1147  0.6411
 7710TIP3    H144621   5.032   3.263   6.468  0.3902  0.6010 -3.5735
 7710TIP3    H244622   5.127   3.359   6.537 -1.7169  0.4463 -0.2362
 7711TIP3   OH244623   3.558   4.933  16.887 -0.5704  0.1717 -0.4037
 7711TIP3    H144624   3.559   4.993  16.961 -0.1190  1.4055 -1.3651
 7711TIP3    H244625   3.573   4.989  16.811  0.0359 -1.1855 -1.3281
 7712TIP3   OH244626   2.827   2.422  14.237  0.0873  0.2250  0.1121
 7712TIP3    H144627   2.849   2.514  14.251  1.0525 -0.0096  0.2315
 7712TIP3    H244628   2.816   2.414  14.142  0.1982  0.4292  0.0812
 7713TIP3   OH244629   5.739   0.834  16.373 -0.2969  0.5612 -0.0286
 7713TIP3    H144630   5.671   0.767  16.374  0.7886 -0.5826  1.6606
 7713TIP3    H244631   5.714   0.895  16.443  0.2014  0.3378  0.3503
 7714TIP3   OH244632   1.315   6.740   3.892  0.3386 -0.0393 -0.5430
 7714TIP3    H144633   1.362   6.660   3.916  0.0899 -0.1393 -0.3859
 7714TIP3    H244634   1.349   6.806   3.953 -0.3854 -0.3226  0.1907
 7715TIP3   OH244635   1.231   2.466  16.711 -0.0511 -0.6682 -0.0501
 7715TIP3    H144636   1.195   2.469  16.622  0.2334 -1.8805 -0.2241
 7715TIP3    H244637   1.171   2.518  16.764 -0.2447  0.0282 -0.9427
 7716TIP3   OH244638   4.873   3.263   2.152 -0.2340 -0.5020 -0.3187
 7716TIP3    H144639   4.960   3.225   2.167 -0.0167  0.2495  0.4139
 7716TIP3    H244640   4.890   3.347   2.111 -0.5237  0.2731  1.0795
 7717TIP3   OH244641   4.174   0.109  14.101 -0.8553  0.0644  0.1659
 7717TIP3    H144642   4.089   0.066  14.105 -1.4583  1.2681  1.2141
 7717TIP3    H244643   4.164   0.177  14.035 -0.2902 -0.6153 -0.6284
 7718TIP3   OH244644   6.552   1.340  14.676  0.0600 -0.4977 -0.8420
 7718TIP3    H144645   6.461   1.363  14.691 -0.0455 -2.1384  1.7155
 7718TIP3    H244646   6.601   1.418  14.703 -0.5328  0.1742 -1.6540
 7719TIP3   OH244647   6.245   4.611   4.123 -0.0200 -0.0162 -0.7437
 7719TIP3    H144648   6.290   4.569   4.196  0.9173  0.5713 -0.9640
 7719TIP3    H244649   6.179   4.667   4.165  1.1637  1.0819 -0.2706
 7720TIP3   OH244650   2.288   6.434  17.149 -0.2112  0.0190  0.0766
 7720TIP3    H144651   2.253   6.487  17.078  0.6891 -1.0445 -1.2230
 7720TIP3    H244652   2.216   6.426  17.211 -1.2870  0.3531 -1.0851
 7721TIP3   OH244653   0.303   5.754   5.271 -0.5337  0.0543 -0.6396
 7721TIP3    H144654   0.362   5.788   5.339 -0.0161  0.6706 -1.3743
 7721TIP3    H244655   0.306   5.659   5.282  1.5794 -0.0294 -1.4112
 7722TIP3   OH244656   1.597   1.598   1.867 -0.5894 -0.6351  0.6500
 7722TIP3    H144657   1.670   1.597   1.805 -0.6897  2.1923  0.3516
 7722TIP3    H244658   1.583   1.506   1.889  2.3131 -1.3630 -0.1246
 7723TIP3   OH244659   3.044   0.774  12.880  0.2764  0.4333  0.0076
 7723TIP3    H144660   2.989   0.781  12.802 -0.6005  1.2954  0.6823
 7723TIP3    H244661   3.061   0.865  12.905  0.7215  0.1641  0.7148
 7724TIP3   OH244662   2.490   5.536  13.806 -0.0665  0.2270  0.3290
 7724TIP3    H144663   2.556   5.484  13.852  1.1398  0.6605 -0.8386
 7724TIP3    H244664   2.460   5.479  13.735  0.9397  0.9181 -0.6875
 7725TIP3   OH244665   1.635   6.353   1.192 -0.0080  0.6688 -0.1423
 7725TIP3    H144666   1.617   6.260   1.210  1.8512  0.1254 -0.8684
 7725TIP3    H244667   1.678   6.385   1.272 -0.5114  0.8762  0.0493
 7726TIP3   OH244668   3.276   1.861  14.841  0.4037  0.8788  0.0482
 7726TIP3    H144669   3.246   1.824  14.758  0.9770  1.4408 -0.4093
 7726TIP3    H244670   3.195   1.879  14.889  0.0984 -1.0995  0.3569
 7727TIP3   OH244671   6.524   3.825  13.825  0.1105  0.1757 -0.4772
 7727TIP3    H144672   6.523   3.779  13.909 -0.6044 -0.5678 -0.8861
 7727TIP3    H244673   6.594   3.783  13.775  0.6784  0.7588 -0.1880
 7728TIP3   OH244674   4.346   3.289   4.500  0.0251  0.7637  0.1623
 7728TIP3    H144675   4.306   3.285   4.413  1.4000  3.6693 -0.7507
 7728TIP3    H244676   4.274   3.309   4.559 -0.4503  2.4519 -0.9136
 7729TIP3   OH244677   5.229   0.037  13.010  0.0554  0.6387  0.2194
 7729TIP3    H144678   5.301   0.065  12.954 -0.4832  0.1470 -0.7512
 7729TIP3    H244679   5.166   0.109  13.006 -1.2817 -0.5318 -2.1901
 7730TIP3   OH244680   5.397   3.828  13.138  0.0365 -0.1569 -0.6550
 7730TIP3    H144681   5.452   3.836  13.059  0.8361  0.7497 -0.0314
 7730TIP3    H244682   5.453   3.783  13.201  0.0880  0.8231  0.0088
 7731TIP3   OH244683   4.324   0.087   3.666 -0.2268  0.2624  0.1684
 7731TIP3    H144684   4.261   0.098   3.737 -0.9519 -0.4685 -0.3427
 7731TIP3    H244685   4.403   0.131   3.697 -0.1683 -0.9693  1.8762
 7732TIP3   OH244686   5.899   4.805  10.405 -0.6860  0.2800  0.4568
 7732TIP3    H144687   5.887   4.710  10.406 -3.0623  0.5030  0.3628
 7732TIP3    H244688   5.994   4.818  10.405 -0.2546 -2.1033 -1.5734
 7733TIP3   OH244689   0.698   3.167  11.694 -0.4173 -0.1096  0.3746
 7733TIP3    H144690   0.676   3.096  11.755 -1.1764 -0.0424  0.1866
 7733TIP3    H244691   0.688   3.247  11.745  2.1807 -0.1627  1.1266
 7734TIP3   OH244692   4.729   5.224  13.289  0.2141 -0.2224  0.1739
 7734TIP3    H144693   4.802   5.171  13.257  0.0262  0.1630 -0.9330
 7734TIP3    H244694   4.653   5.192  13.241 -0.2345 -0.1780  0.8427
 7735TIP3   OH244695   2.003   0.699   4.968  0.1771 -0.6028  0.2962
 7735TIP3    H144696   2.020   0.790   4.993 -0.3171 -0.1803 -0.8121
 7735TIP3    H244697   1.957   0.661   5.044 -1.8993  0.8226 -0.1718
 7736TIP3   OH244698   3.684   6.371   4.960  0.0160 -0.3925 -0.0201
 7736TIP3    H144699   3.635   6.366   4.878  0.1290  0.7441 -0.1699
 7736TIP3    H244700   3.775   6.362   4.935  0.0570  0.0370 -0.0425
 7737TIP3   OH244701   2.584   2.447  11.554 -0.2743  0.4589  0.2794
 7737TIP3    H144702   2.507   2.502  11.543 -0.3647  0.2893  0.0580
 7737TIP3    H244703   2.656   2.510  11.566 -0.6496  0.5969  1.9431
 7738TIP3   OH244704   4.219   5.200  17.016 -0.1711  0.6968  0.0116
 7738TIP3    H144705   4.259   5.214  16.931 -0.7057  2.8885  0.0658
 7738TIP3    H244706   4.138   5.152  16.997  0.0351  0.5918 -0.6152
 7739TIP3   OH244707   1.771   6.344  11.589  0.1753  0.1725  0.1331
 7739TIP3    H144708   1.855   6.323  11.629 -0.0961  1.0104  1.1940
 7739TIP3    H244709   1.793   6.370  11.499  0.9625 -0.2638  0.1890
 7740TIP3   OH244710   2.141   4.627  12.714 -0.0772  0.3701 -0.0495
 7740TIP3    H144711   2.172   4.713  12.739 -0.6123  0.8076 -0.8243
 7740TIP3    H244712   2.174   4.614  12.625  0.3212 -0.3905  0.1962
 7741TIP3   OH244713   2.430   2.326  14.928 -0.6632  0.2221 -0.6381
 7741TIP3    H144714   2.513   2.364  14.956 -0.4414 -0.7368  0.0637
 7741TIP3    H244715   2.454   2.242  14.888 -1.0746  1.0799 -2.8331
 7742TIP3   OH244716   3.275   5.345  12.487 -0.1281  0.0969 -0.5268
 7742TIP3    H144717   3.188   5.311  12.506  0.9042 -2.2334  0.4141
 7742TIP3    H244718   3.275   5.357  12.392 -1.5267  0.3280 -0.5196
 7743TIP3   OH244719   5.494   2.147   4.980  0.4208 -0.2995  0.2078
 7743TIP3    H144720   5.493   2.056   5.011  1.6809 -0.0150  1.1637
 7743TIP3    H244721   5.401   2.169   4.967  0.1029 -1.7360 -0.1278
 7744TIP3   OH244722   2.305   5.212  16.454 -0.3852 -0.3310  0.5075
 7744TIP3    H144723   2.342   5.269  16.387 -0.1659 -0.5173  0.4671
 7744TIP3    H244724   2.252   5.270  16.509 -1.7091 -0.4025 -0.6371
 7745TIP3   OH244725   5.046   6.171  16.217 -0.1241 -0.2663 -0.3150
 7745TIP3    H144726   5.110   6.192  16.148 -0.2734 -1.6214 -0.9092
 7745TIP3    H244727   5.055   6.242  16.280  2.0258 -0.4302 -0.3477
 7746TIP3   OH244728   1.712   5.772  10.827  0.3196 -0.3041  0.6785
 7746TIP3    H144729   1.765   5.826  10.768  0.2135 -1.0144 -0.0823
 7746TIP3    H244730   1.628   5.763  10.782 -0.3751  0.5721  1.7459
 7747TIP3   OH244731   3.966   2.421  12.762 -0.2890  0.1080  0.0473
 7747TIP3    H144732   3.998   2.357  12.699  1.7023 -0.6147  1.6539
 7747TIP3    H244733   3.998   2.389  12.847 -1.7176  1.7125  1.2698
 7748TIP3   OH244734   0.989   1.369  15.096 -0.4868 -0.2456 -0.2803
 7748TIP3    H144735   0.946   1.292  15.059  0.4596 -0.6801 -0.5130
 7748TIP3    H244736   1.032   1.336  15.175 -1.0514  0.3025  0.2621
 7749TIP3   OH244737   4.420   5.149  15.805  0.1926  0.3401 -0.2567
 7749TIP3    H144738   4.396   5.161  15.897  1.4541  0.7773  0.0455
 7749TIP3    H244739   4.471   5.068  15.804  0.8158  0.7240 -0.4253
 7750TIP3   OH244740   2.109   1.295   4.540  0.3240  0.1013  0.2159
 7750TIP3    H144741   2.044   1.324   4.475  0.5783  0.6285  0.1906
 7750TIP3    H244742   2.171   1.243   4.489 -0.2487 -0.6776  0.2980
 7751TIP3   OH244743   6.444   5.581   0.294 -0.2417  0.2895 -0.4310
 7751TIP3    H144744   6.393   5.554   0.371  0.2765  1.3208  0.3029
 7751TIP3    H244745   6.472   5.670   0.314  1.0264  0.0993 -1.2427
 7752TIP3   OH244746   0.696   4.167  14.534  0.3196  0.4266  0.1183
 7752TIP3    H144747   0.685   4.214  14.452  0.4477  1.3354  0.6062
 7752TIP3    H244748   0.781   4.124  14.526  0.3162  0.4856 -0.2363
 7753TIP3   OH244749   1.707   1.628  12.165  0.1561 -0.1529  0.0241
 7753TIP3    H144750   1.676   1.717  12.148  0.5023 -0.0889 -0.3036
 7753TIP3    H244751   1.724   1.592  12.078  1.7826  0.1114  0.2004
 7754TIP3   OH244752   1.635   4.525  16.824  0.4404 -1.0024 -0.1572
 7754TIP3    H144753   1.706   4.556  16.768  0.8311 -1.6523 -0.0215
 7754TIP3    H244754   1.559   4.520  16.766  0.3554  0.2161 -0.1847
 7755TIP3   OH244755   0.799   6.275   2.891 -0.1770  0.0749  0.0197
 7755TIP3    H144756   0.863   6.338   2.860 -1.1495  0.5637 -1.0630
 7755TIP3    H244757   0.726   6.282   2.830 -0.5926 -1.6356  0.2510
 7756TIP3   OH244758   5.564   5.441  11.878 -0.3219  0.1656 -0.0666
 7756TIP3    H144759   5.522   5.408  11.799 -0.6854 -0.1539  0.2531
 7756TIP3    H244760   5.498   5.431  11.946  0.6779 -1.5848  0.7312
 7757TIP3   OH244761   3.560   2.787  15.570  0.1588 -0.3436  0.1069
 7757TIP3    H144762   3.591   2.787  15.479  1.0333 -0.8526  0.3925
 7757TIP3    H244763   3.615   2.853  15.613  2.4425 -2.7526  1.1124
 7758TIP3   OH244764   0.911   5.528   4.485 -0.3262 -0.8161 -0.1645
 7758TIP3    H144765   0.987   5.519   4.428  0.9306  0.1768  1.2708
 7758TIP3    H244766   0.914   5.452   4.542  0.3792 -0.1178  0.7536
 7759TIP3   OH244767   0.965   0.650  15.539  0.2096  0.4364 -0.5755
 7759TIP3    H144768   0.897   0.710  15.506  0.2225  0.6503 -0.2173
 7759TIP3    H244769   0.967   0.665  15.633 -0.2528 -0.6146 -0.3807
 7760TIP3   OH244770   2.609   4.170   5.618 -0.4422  0.3986 -0.0751
 7760TIP3    H144771   2.627   4.109   5.691 -0.0419  1.3821  0.6698
 7760TIP3    H244772   2.543   4.230   5.654  0.1917  1.2503 -0.3202
 7761TIP3   OH244773   3.884   4.707   4.701 -0.8466  0.1006  0.0140
 7761TIP3    H144774   3.959   4.709   4.761 -0.8163  0.4301 -0.0318
 7761TIP3    H244775   3.923   4.713   4.614 -0.9414  0.5412  0.0022
 7762TIP3   OH244776   1.285   4.361  14.007 -0.2671  0.0099  0.0524
 7762TIP3    H144777   1.333   4.290  14.048 -1.1576 -0.7282 -0.1595
 7762TIP3    H244778   1.212   4.378  14.066 -1.0227 -0.4193 -0.7365
 7763TIP3   OH244779   2.331   1.813  13.984  0.0132 -0.0279 -0.1467
 7763TIP3    H144780   2.357   1.905  13.986 -0.5260  0.1411  2.1998
 7763TIP3    H244781   2.410   1.765  14.008  0.0878 -0.1405 -0.5972
 7764TIP3   OH244782   3.897   6.546  14.984  0.1579 -0.1786  0.1907
 7764TIP3    H144783   3.827   6.602  15.016 -0.3908 -1.2338  0.8674
 7764TIP3    H244784   3.947   6.521  15.062  1.1978  0.4150 -0.2595
 7765TIP3   OH244785   6.192   1.549   5.273  0.1411  0.1447 -0.2723
 7765TIP3    H144786   6.100   1.523   5.264  0.1543 -0.2194  0.5510
 7765TIP3    H244787   6.217   1.517   5.360  0.6410  1.4818  0.0920
 7766TIP3   OH244788   4.117   3.217   1.838  0.0038  0.0049 -0.3743
 7766TIP3    H144789   4.192   3.174   1.878 -0.4425 -0.5539 -0.1159
 7766TIP3    H244790   4.081   3.152   1.778 -0.7113 -0.0078  0.0552
 7767TIP3   OH244791   1.471   1.991  15.174 -0.8766  0.6858  0.2434
 7767TIP3    H144792   1.432   1.932  15.239 -0.3952 -1.1787 -1.0804
 7767TIP3    H244793   1.564   1.992  15.197 -0.6268 -0.3674 -0.6859
 7768TIP3   OH244794   5.523   0.588   5.389 -0.2356 -0.1000 -0.5161
 7768TIP3    H144795   5.570   0.506   5.404 -0.9461 -0.1844  1.6417
 7768TIP3    H244796   5.589   0.656   5.401 -0.5372 -0.2116  2.5932
 7769TIP3   OH244797   1.025   3.098   1.626 -0.1027 -0.4694  0.0783
 7769TIP3    H144798   1.076   3.057   1.695  0.2865 -0.0425  0.0533
 7769TIP3    H244799   1.066   3.069   1.545 -0.2453 -0.5668  0.0406
 7770TIP3   OH244800   5.589   1.887  14.810  0.0542 -0.4531 -0.3399
 7770TIP3    H144801   5.522   1.929  14.755 -1.9336 -1.2521  1.3229
 7770TIP3    H244802   5.657   1.860  14.749 -0.2128  2.0810 -1.8842
 7771TIP3   OH244803   1.322   5.705  15.247 -0.0064  0.3156 -0.3839
 7771TIP3    H144804   1.316   5.611  15.232 -0.6082  0.3271 -0.2641
 7771TIP3    H244805   1.270   5.744  15.176  0.4662  0.5694 -0.5922
 7772TIP3   OH244806   0.528   5.436   0.969  0.0085  0.0404  0.5195
 7772TIP3    H144807   0.468   5.371   1.008 -1.2863  1.1244  0.3962
 7772TIP3    H244808   0.502   5.440   0.877  2.0712 -1.4105 -0.1998
 7773TIP3   OH244809   2.153   4.103  13.158  0.3851 -0.5616 -0.8282
 7773TIP3    H144810   2.240   4.097  13.198  0.8414 -0.8538 -1.8165
 7773TIP3    H244811   2.170   4.141  13.072 -0.3230 -1.6510 -1.4683
 7774TIP3   OH244812   6.094   4.760  16.797 -0.3841 -0.3587  0.3351
 7774TIP3    H144813   6.046   4.686  16.760 -0.3569 -0.3527  0.2896
 7774TIP3    H244814   6.119   4.813  16.722  1.1484 -1.2176  0.1990
 7775TIP3   OH244815   6.452   5.967   0.142 -0.0179  0.0730  0.2713
 7775TIP3    H144816   6.428   5.915   0.219  0.6089  0.0366  0.4414
 7775TIP3    H244817   6.369   5.981   0.097 -0.2721 -0.6448  0.4944
 7776TIP3   OH244818   3.797   4.861  11.904 -0.2517 -0.1852  0.2807
 7776TIP3    H144819   3.748   4.803  11.961 -0.6093  0.0970  0.2626
 7776TIP3    H244820   3.881   4.874  11.948  0.1825 -1.4216 -0.1411
 7777TIP3   OH244821   1.803   1.107   2.023 -0.0216  0.0047 -0.0546
 7777TIP3    H144822   1.885   1.093   1.975  1.8003 -1.7191  3.1879
 7777TIP3    H244823   1.795   1.203   2.028  1.7460  0.2180 -0.6024
 7778TIP3   OH244824   0.305   4.384   0.228  0.2300 -0.1546 -0.2008
 7778TIP3    H144825   0.338   4.472   0.247 -1.0282  0.0708  1.0590
 7778TIP3    H244826   0.210   4.391   0.239  0.1963 -1.8899  0.8456
 7779TIP3   OH244827   1.442   3.714  16.968  0.5288  0.3900  0.0013
 7779TIP3    H144828   1.363   3.680  17.011  1.7241 -0.1666  1.8736
 7779TIP3    H244829   1.429   3.694  16.875 -0.2487 -2.3888  0.6149
 7780TIP3   OH244830   1.495   5.130   0.187  0.1734  0.3088 -0.2619
 7780TIP3    H144831   1.453   5.131   0.101  0.7715  2.0266 -0.5674
 7780TIP3    H244832   1.476   5.216   0.224  2.6532  0.8340 -0.0612
 7781TIP3   OH244833   1.352   6.149   4.122  0.2019  0.1498 -0.0276
 7781TIP3    H144834   1.391   6.145   4.034  0.1034 -0.5635 -0.0442
 7781TIP3    H244835   1.428   6.149   4.181  0.2509 -1.3868 -0.0564
 7782TIP3   OH244836   1.020   3.107  14.424 -0.1260 -0.6081 -0.1873
 7782TIP3    H144837   1.040   3.191  14.381 -0.7194 -0.0875  0.5213
 7782TIP3    H244838   0.925   3.100  14.419 -0.2517 -0.3605  1.3068
 7783TIP3   OH244839   5.066   2.523  14.803 -0.1799 -0.8804 -0.3688
 7783TIP3    H144840   5.031   2.591  14.745 -1.3156 -1.0481  0.0817
 7783TIP3    H244841   4.989   2.493  14.852  0.5411 -1.6039  0.3339
 7784TIP3   OH244842   5.516   2.332   5.855 -0.1100  0.4129 -0.1442
 7784TIP3    H144843   5.499   2.391   5.782  3.6362  0.2576 -1.3896
 7784TIP3    H244844   5.489   2.246   5.823  0.4885  0.5141 -0.9624
 7785TIP3   OH244845   6.610   3.255  16.224  0.1716  0.3091  0.3111
 7785TIP3    H144846   6.672   3.206  16.171 -0.0895 -0.6826  0.9004
 7785TIP3    H244847   6.602   3.205  16.305 -0.2462  1.2280  0.8641
 7786TIP3   OH244848   0.292   4.732   3.354  0.3257 -0.0361 -0.5693
 7786TIP3    H144849   0.225   4.664   3.360  1.7482 -1.5657 -1.0845
 7786TIP3    H244850   0.261   4.802   3.412 -1.7350 -0.6168 -0.8691
 7787TIP3   OH244851   1.161   4.291   0.509 -0.2112  0.3723  0.0761
 7787TIP3    H144852   1.140   4.372   0.463  0.0128 -1.4155 -3.5229
 7787TIP3    H244853   1.256   4.294   0.520  0.0268 -0.0254 -1.5606
 7788TIP3   OH244854   2.973   2.071   5.631  0.5278 -0.5030 -0.2023
 7788TIP3    H144855   2.905   2.015   5.594  0.6971 -2.0930  1.7450
 7788TIP3    H244856   3.054   2.037   5.593  0.8197 -2.8727  2.2796
 7789TIP3   OH244857   4.884   0.709   1.836 -0.2241 -0.0840 -0.4150
 7789TIP3    H144858   4.908   0.786   1.887  1.5600 -0.0176 -1.2591
 7789TIP3    H244859   4.880   0.741   1.745 -0.1445 -0.8290 -0.6897
 7790TIP3   OH244860   2.232   0.707  14.242 -0.3872 -0.2759 -0.2239
 7790TIP3    H144861   2.137   0.720  14.241 -0.4068 -0.4682 -0.7005
 7790TIP3    H244862   2.264   0.770  14.308 -0.7761  0.2318 -0.5150
 7791TIP3   OH244863   1.295   2.737  14.686 -0.3494  0.7601 -0.2022
 7791TIP3    H144864   1.227   2.713  14.749 -0.5595 -1.3212 -1.1475
 7791TIP3    H244865   1.250   2.794  14.624 -1.1172 -0.1647 -0.5195
 7792TIP3   OH244866   5.277   3.961  10.832  0.4862  0.1129  0.2136
 7792TIP3    H144867   5.365   3.979  10.799  0.4609  0.3740  0.2856
 7792TIP3    H244868   5.290   3.936  10.924  0.6593 -1.6332 -0.2469
 7793TIP3   OH244869   3.572   2.518   2.758  0.0695  0.5035 -0.7492
 7793TIP3    H144870   3.635   2.446   2.761 -1.8336 -1.2601 -0.7414
 7793TIP3    H244871   3.576   2.557   2.846  0.5137 -0.1412 -0.4733
 7794TIP3   OH244872   4.892   4.537  13.305 -0.2651  0.7541  0.1977
 7794TIP3    H144873   4.946   4.611  13.277 -0.3720  1.9821  2.8950
 7794TIP3    H244874   4.940   4.499  13.378 -2.4985  1.3122  2.0982
 7795TIP3   OH244875   5.097   1.165  11.035  0.2254 -0.3540 -0.0231
 7795TIP3    H144876   5.186   1.192  11.010  0.5153  0.2846  1.5871
 7795TIP3    H244877   5.109   1.112  11.114 -0.8446 -0.1627  0.2845
 7796TIP3   OH244878   3.766   2.416  16.150 -0.0598 -0.1395  0.2900
 7796TIP3    H144879   3.773   2.331  16.193  1.4417  0.3613  1.1166
 7796TIP3    H244880   3.704   2.465  16.204  0.5578 -0.0753  0.9651
 7797TIP3   OH244881   5.614   2.520   0.488 -0.5597  0.3004 -0.5313
 7797TIP3    H144882   5.627   2.530   0.582  0.7841 -3.5545 -0.1143
 7797TIP3    H244883   5.531   2.563   0.470  0.0169  2.7309  1.9938
 7798TIP3   OH244884   0.962   1.172  12.881  0.3523 -0.3007  0.3320
 7798TIP3    H144885   0.968   1.193  12.974  0.1020  0.0059  0.2833
 7798TIP3    H244886   0.964   1.257  12.837  0.2565 -0.4311  0.0715
 7799TIP3   OH244887   6.527   4.454  14.242 -0.3226 -0.3447  0.3921
 7799TIP3    H144888   6.441   4.496  14.236 -0.1557  0.5230  2.9766
 7799TIP3    H244889   6.575   4.488  14.167 -1.8733 -0.0318 -0.5062
 7800TIP3   OH244890   0.415   3.535   4.903 -0.1459  0.4285 -0.0840
 7800TIP3    H144891   0.419   3.444   4.931 -0.6636 -0.0868 -1.5800
 7800TIP3    H244892   0.407   3.585   4.984  2.0415 -0.7023  0.9126
 7801TIP3   OH244893   6.745   4.201  16.067  0.3987  0.0175 -0.6202
 7801TIP3    H144894   6.713   4.225  15.980 -1.5734 -0.8483 -0.1827
 7801TIP3    H244895   6.673   4.153  16.107  0.5818  1.7761  2.1161
 7802TIP3   OH244896   0.904   0.919   1.934  0.0054 -0.4817  0.5040
 7802TIP3    H144897   0.944   0.927   1.847 -0.3425 -0.0223  0.3854
 7802TIP3    H244898   0.873   1.007   1.955 -1.5184 -0.9513  0.3214
 7803TIP3   OH244899   0.892   6.470   0.872 -0.0680 -0.3660 -0.7762
 7803TIP3    H144900   0.894   6.376   0.853  0.2490 -0.4442 -0.3777
 7803TIP3    H244901   0.801   6.487   0.899  0.3153 -0.9427  0.9871
 7804TIP3   OH244902   3.633   4.839  16.460  0.1934  0.7825 -0.6683
 7804TIP3    H144903   3.676   4.824  16.544  1.1168  2.3371 -0.8210
 7804TIP3    H244904   3.682   4.786  16.397 -0.5055 -0.3902 -0.2430
 7805TIP3   OH244905   3.513   1.430   2.565  0.2572 -0.2887 -0.0372
 7805TIP3    H144906   3.472   1.385   2.639 -2.0331  0.1877 -0.9396
 7805TIP3    H244907   3.524   1.520   2.596 -0.2360 -0.2030 -0.1134
 7806TIP3   OH244908   2.832   6.403   0.633  0.4304  0.4175 -0.3708
 7806TIP3    H144909   2.769   6.345   0.590 -1.8279  3.2828 -1.2098
 7806TIP3    H244910   2.874   6.450   0.562  2.7265 -0.5567  0.2609
 7807TIP3   OH244911   4.948   0.008  13.638  0.3439  0.0640  1.1467
 7807TIP3    H144912   4.966  -0.005  13.544 -1.6707 -1.1367  0.8673
 7807TIP3    H244913   5.026  -0.026  13.682  1.6819  1.3673 -0.0527
 7808TIP3   OH244914   1.034   5.658  11.207  0.5264  0.6975  0.0253
 7808TIP3    H144915   1.031   5.573  11.249  1.2166  0.7319  0.1507
 7808TIP3    H244916   1.091   5.646  11.131 -0.7572  0.6151 -0.9772
 7809TIP3   OH244917   0.164   4.191   3.974 -0.5108 -0.2126 -0.4640
 7809TIP3    H144918   0.071   4.201   3.957 -0.1985 -0.3054 -2.5158
 7809TIP3    H244919   0.207   4.214   3.891  1.3868  1.0804  0.7847
 7810TIP3   OH244920   4.152   0.804   3.605  0.5529  0.6532  0.3104
 7810TIP3    H144921   4.177   0.877   3.661 -0.8515  0.3020  1.4702
 7810TIP3    H244922   4.187   0.826   3.519  2.6423  1.2775  1.2763
 7811TIP3   OH244923   4.278   0.513   0.521 -0.0538 -0.3731 -0.0054
 7811TIP3    H144924   4.273   0.424   0.554  2.5550 -0.5853  0.0213
 7811TIP3    H244925   4.193   0.552   0.544 -1.2642 -2.7917 -0.0321
 7812TIP3   OH244926   1.177   2.321  16.411  0.3384  0.1295  0.5698
 7812TIP3    H144927   1.162   2.229  16.433  1.3216 -0.6566 -1.7315
 7812TIP3    H244928   1.099   2.367  16.443 -1.3852 -1.9135 -0.5060
 7813TIP3   OH244929   2.880   1.690  13.113  0.3586  0.0825 -0.2944
 7813TIP3    H144930   2.970   1.708  13.141  0.5560 -0.8707 -0.2874
 7813TIP3    H244931   2.827   1.757  13.156  0.7936 -0.6179  1.4128
 7814TIP3   OH244932   0.430   1.578   2.475 -0.6377  0.0294 -0.5594
 7814TIP3    H144933   0.437   1.510   2.409  0.4167 -0.6393  0.2172
 7814TIP3    H244934   0.518   1.614   2.483 -0.9288  0.6822 -0.1120
 7815TIP3   OH244935   0.116   5.834  12.990 -0.7754  0.2299 -0.1964
 7815TIP3    H144936   0.164   5.782  12.926  0.8269 -0.3563  1.3900
 7815TIP3    H244937   0.181   5.891  13.029 -1.3141 -0.5520  2.0022
 7816TIP3   OH244938   3.711   3.529   3.514  0.1872  0.5175 -0.3503
 7816TIP3    H144939   3.690   3.536   3.607 -0.7187  1.7880 -0.6299
 7816TIP3    H244940   3.663   3.451   3.484  0.0027  0.4509  0.1185
 7817TIP3   OH244941   0.905   2.721  12.549  0.4353 -0.1123 -0.1531
 7817TIP3    H144942   0.920   2.638  12.595  1.8254 -0.4961 -1.2127
 7817TIP3    H244943   0.988   2.768  12.556 -0.7419  1.8516  1.6058
 7818TIP3   OH244944   2.922   5.237   5.917 -0.6309 -0.2428  0.3941
 7818TIP3    H144945   3.015   5.249   5.903 -0.8866  1.1456 -0.2762
 7818TIP3    H244946   2.908   5.255   6.010 -0.7306  3.3820 -0.1940
 7819TIP3   OH244947   6.473   3.082   5.004 -0.1467  0.1643  0.3236
 7819TIP3    H144948   6.401   3.029   4.970  0.8427 -0.9477 -0.1064
 7819TIP3    H244949   6.473   3.160   4.949  0.7165 -1.1015 -1.5807
 7820TIP3   OH244950   2.678   1.877  13.622  0.1433  0.2240  0.1508
 7820TIP3    H144951   2.672   1.800  13.678  0.5055 -1.7719 -2.3622
 7820TIP3    H244952   2.771   1.887  13.603  0.2090  1.8563  1.0814
 7821TIP3   OH244953   3.824   4.835   6.621 -0.6266 -0.3772  0.1140
 7821TIP3    H144954   3.731   4.855   6.635 -0.7954 -0.6192 -0.6311
 7821TIP3    H244955   3.871   4.909   6.659 -1.2030  1.2399 -2.1409
 7822TIP3   OH244956   3.848   0.376   1.619 -0.2075  0.1938  0.5806
 7822TIP3    H144957   3.888   0.295   1.587 -0.3865 -0.4070  1.8144
 7822TIP3    H244958   3.786   0.347   1.687 -1.5790  1.2286 -0.1702
 7823TIP3   OH244959   6.138   0.757  11.272  0.1054 -0.2705 -0.0375
 7823TIP3    H144960   6.161   0.778  11.181 -0.6096 -0.8864 -0.3726
 7823TIP3    H244961   6.208   0.797  11.324  0.2224  0.5883 -0.8172
 7824TIP3   OH244962   3.277   4.174  14.076  0.1824  0.5865  0.1365
 7824TIP3    H144963   3.337   4.225  14.130 -0.9252 -0.6417  2.6872
 7824TIP3    H244964   3.196   4.224  14.077 -0.5677 -0.5845  1.7148
 7825TIP3   OH244965   3.775   1.930   2.760 -0.4276 -0.6110  0.4345
 7825TIP3    H144966   3.724   1.849   2.755  1.5368 -1.8377 -1.9936
 7825TIP3    H244967   3.712   1.999   2.740 -1.4006 -1.9895 -1.6691
 7826TIP3   OH244968   2.753   4.296   1.363 -0.5782  0.1418  0.2152
 7826TIP3    H144969   2.802   4.377   1.376  1.3911 -0.9314 -0.0914
 7826TIP3    H244970   2.780   4.239   1.435  1.0652 -1.5293 -1.5684
 7827TIP3   OH244971   1.564   3.020   2.023  0.0773  0.1860 -0.2972
 7827TIP3    H144972   1.549   3.103   2.070  0.6688 -0.1695  0.5441
 7827TIP3    H244973   1.577   2.956   2.093  0.6089 -0.4317 -0.9580
 7828TIP3   OH244974   4.954   5.731   1.366  0.1657  0.4274  0.6651
 7828TIP3    H144975   4.861   5.712   1.373  0.2560  0.0556  0.8725
 7828TIP3    H244976   4.967   5.752   1.274  0.2545 -1.5973  0.1758
 7829TIP3   OH244977   5.456   3.679  11.770 -0.2281 -0.2171 -0.1814
 7829TIP3    H144978   5.530   3.674  11.709 -0.3298  0.3832 -0.3653
 7829TIP3    H244979   5.472   3.609  11.833  1.7578  1.3087  1.1430
 7830TIP3   OH244980   1.127   3.785   0.630  0.0145  0.3520  0.2375
 7830TIP3    H144981   1.105   3.872   0.597 -3.7126 -0.6499 -0.3518
 7830TIP3    H244982   1.167   3.741   0.555 -0.9200  0.6427 -0.4546
 7831TIP3   OH244983   0.583   0.552   3.155 -0.1492  0.2178 -0.4251
 7831TIP3    H144984   0.660   0.496   3.145  0.1165  0.6818 -1.0498
 7831TIP3    H244985   0.589   0.586   3.244 -0.7953 -1.4379  0.2880
 7832TIP3   OH244986   3.735   0.633   5.577  0.1240  0.1592  0.2683
 7832TIP3    H144987   3.778   0.667   5.656  0.7356 -1.8877  0.8653
 7832TIP3    H244988   3.642   0.631   5.600  0.2432  0.0371  0.7477
 7833TIP3   OH244989   0.142   3.534  12.571 -0.4102  0.5295  0.3480
 7833TIP3    H144990   0.051   3.558  12.553 -0.9723 -0.4285  1.8060
 7833TIP3    H244991   0.180   3.613  12.609 -0.9604  0.5742  0.8152
 7834TIP3   OH244992   4.450   4.489   1.117  0.4100 -0.1668 -0.3839
 7834TIP3    H144993   4.446   4.584   1.105  0.9612 -0.1381 -0.3321
 7834TIP3    H244994   4.483   4.456   1.033 -0.4400 -0.3770 -0.6509
 7835TIP3   OH244995   5.008   4.163  14.358 -0.4134 -0.0907  0.0250
 7835TIP3    H144996   4.921   4.149  14.396 -0.5614  0.2627 -0.1819
 7835TIP3    H244997   5.068   4.115  14.417 -0.9378 -1.9945 -0.9037
 7836TIP3   OH244998   5.620   4.182   3.930  0.1738 -0.0442  0.1082
 7836TIP3    H144999   5.673   4.144   3.859  0.8494  3.4837 -1.5141
 7836TIP3    H245000   5.530   4.168   3.903  0.3044 -1.9419  0.4993
 7837TIP3   OH245001   6.592   2.828   3.130  0.0130 -0.1656 -0.4661
 7837TIP3    H145002   6.682   2.843   3.098  0.6258 -2.7089 -0.1171
 7837TIP3    H245003   6.537   2.869   3.063  1.3935 -0.7084 -2.0210
 7838TIP3   OH245004   3.325   4.056  15.890 -0.4578 -0.1700 -0.4905
 7838TIP3    H145005   3.395   4.120  15.877  1.2258 -1.6154  0.9122
 7838TIP3    H245006   3.338   4.026  15.980 -1.1096 -2.5488 -1.1454
 7839TIP3   OH245007   0.510   5.997   5.143  0.2134  0.1741 -0.2837
 7839TIP3    H145008   0.523   5.959   5.230 -2.7091  0.8005  0.5290
 7839TIP3    H245009   0.524   6.091   5.155  1.0382  0.1275 -0.8022
 7840TIP3   OH245010   2.142   5.922  10.550  0.0408 -0.5096  0.2637
 7840TIP3    H145011   2.195   5.933  10.629  0.1077 -0.3190  0.1950
 7840TIP3    H245012   2.197   5.872  10.490 -0.9335 -2.8926  1.2293
 7841TIP3   OH245013   2.160   3.976  12.296  0.1648 -0.3649  0.7690
 7841TIP3    H145014   2.076   4.006  12.333  0.4680  1.3553  0.1426
 7841TIP3    H245015   2.144   3.884  12.273 -2.2986  0.4851 -1.4276
 7842TIP3   OH245016   2.541   3.933   0.883 -0.5795  0.4514  0.1199
 7842TIP3    H145017   2.568   3.954   0.972 -0.2618 -1.0889  0.4195
 7842TIP3    H245018   2.462   3.880   0.894 -0.1059 -0.3997 -0.4573
 7843TIP3   OH245019   2.311   5.694   6.023 -0.2300 -0.1717 -0.0227
 7843TIP3    H145020   2.284   5.699   6.114 -0.1607 -2.0667  0.1413
 7843TIP3    H245021   2.316   5.600   6.005  1.1435  0.1618 -1.5605
 7844TIP3   OH245022   1.400   6.025   1.858  0.4537  0.6223 -0.0483
 7844TIP3    H145023   1.340   5.953   1.836  0.6100  0.2838  0.5931
 7844TIP3    H245024   1.342   6.101   1.869  0.4383  1.0069 -2.3222
 7845TIP3   OH245025   3.248   0.778   6.582 -0.2866 -0.0154  0.6706
 7845TIP3    H145026   3.237   0.708   6.517  0.5278 -0.2996  0.8248
 7845TIP3    H245027   3.326   0.752   6.631  0.6036  1.4713  0.1062
 7846TIP3   OH245028   3.239   5.836   5.163 -0.2841  0.4659  0.1416
 7846TIP3    H145029   3.328   5.840   5.198 -0.5474 -0.0707  0.9078
 7846TIP3    H245030   3.188   5.894   5.221 -0.7063 -0.3516  0.6031
 7847TIP3   OH245031   2.607   1.322  11.897  0.1512 -0.1437 -0.0605
 7847TIP3    H145032   2.641   1.393  11.843  0.9142 -0.2093  0.3243
 7847TIP3    H245033   2.597   1.360  11.984  1.0552 -0.6373  0.2697
 7848TIP3   OH245034   2.362   5.639  15.884 -0.3917 -0.8141 -0.1348
 7848TIP3    H145035   2.438   5.595  15.844  0.0114 -3.1204  2.8334
 7848TIP3    H245036   2.396   5.723  15.913  1.2130 -1.9109  1.3871
 7849TIP3   OH245037   2.998   1.454   4.942 -0.4329  0.1251  0.5878
 7849TIP3    H145038   3.064   1.522   4.928  0.8294 -1.0311  0.7475
 7849TIP3    H245039   2.985   1.452   5.036 -0.9162  0.5335  0.5356
 7850TIP3   OH245040   6.145   1.455   2.041  0.2085 -0.6238  0.8508
 7850TIP3    H145041   6.207   1.453   2.114 -2.0367 -0.4410  2.9424
 7850TIP3    H245042   6.131   1.363   2.019  0.8808 -0.6838  0.6592
 7851TIP3   OH245043   2.583   4.658   5.444  0.3404  0.0243  0.6907
 7851TIP3    H145044   2.638   4.617   5.377 -0.9807  0.1749 -0.5323
 7851TIP3    H245045   2.643   4.679   5.515  1.9187  0.4491 -0.7157
 7852TIP3   OH245046   1.074   2.982   4.390 -0.2128 -0.0256  0.0961
 7852TIP3    H145047   1.169   2.983   4.388 -0.1843  1.6798  0.8470
 7852TIP3    H245048   1.052   2.994   4.482 -1.1437  0.9975 -0.2423
 7853TIP3   OH245049   3.808   0.756   0.569 -0.3389 -0.8854  0.1900
 7853TIP3    H145050   3.806   0.701   0.647 -1.6112 -0.1158  0.7531
 7853TIP3    H245051   3.883   0.726   0.519  0.9014 -0.9826  2.0216
 7854TIP3   OH245052   6.421   4.500   1.856 -0.7343  0.3117 -0.2177
 7854TIP3    H145053   6.486   4.538   1.797 -0.2576 -1.2112 -0.7244
 7854TIP3    H245054   6.467   4.496   1.941  0.3311 -1.8416 -0.8272
 7855TIP3   OH245055   3.797   1.260   5.224 -0.6293  0.0583 -0.0559
 7855TIP3    H145056   3.807   1.270   5.319 -1.1313 -0.2173  0.0258
 7855TIP3    H245057   3.862   1.194   5.200 -0.1005  0.5434  0.0053
 7856TIP3   OH245058   5.207   6.450  10.837  0.1955 -0.3153  0.0472
 7856TIP3    H145059   5.140   6.447  10.768  1.1137 -1.1739 -0.8299
 7856TIP3    H245060   5.237   6.541  10.837 -0.6821 -0.0113  0.1845
 7857TIP3   OH245061   5.224   3.467   0.044  0.1076  0.9079 -0.2053
 7857TIP3    H145062   5.156   3.502  -0.012 -0.4997  0.3267  0.1510
 7857TIP3    H245063   5.297   3.448  -0.015 -1.0573 -1.1215 -1.0824
 7858TIP3   OH245064   1.448   1.671  16.672  0.5727  0.1302 -0.2161
 7858TIP3    H145065   1.453   1.690  16.765 -0.4776  0.8199 -0.2820
 7858TIP3    H245066   1.375   1.610  16.664 -0.6606  1.6103 -0.7735
 7859TIP3   OH245067   0.478   0.270  16.558  0.1385 -0.4969 -0.3432
 7859TIP3    H145068   0.446   0.184  16.585  3.0079 -1.5140  0.1649
 7859TIP3    H245069   0.517   0.307  16.637 -1.2055  1.4020 -0.5178
 7860TIP3   OH245070   1.596   3.785   1.488 -0.4281 -0.1161  0.4520
 7860TIP3    H145071   1.659   3.834   1.436 -0.4602 -0.6818 -0.1443
 7860TIP3    H245072   1.648   3.741   1.555 -0.0225 -1.3375 -0.6106
 7861TIP3   OH245073   6.434   4.988   4.700  0.0060  0.5849  0.0385
 7861TIP3    H145074   6.451   4.997   4.606 -1.5387 -0.7287 -0.4069
 7861TIP3    H245075   6.339   4.981   4.707  0.1403 -0.0492  1.6316
 7862TIP3   OH245076   4.542   4.294   1.358 -0.1623 -0.1271 -0.3037
 7862TIP3    H145077   4.569   4.264   1.444  0.0976 -0.7080 -0.5795
 7862TIP3    H245078   4.563   4.387   1.357  0.3908 -0.2469  0.0427
 7863TIP3   OH245079   2.570   0.151   2.860 -0.0542 -0.4829  0.3112
 7863TIP3    H145080   2.519   0.202   2.923 -1.7554 -0.4804 -1.0095
 7863TIP3    H245081   2.619   0.215   2.809  1.3541 -0.4854  1.5753
 7864TIP3   OH245082   4.766   3.375   5.451  0.7036  0.4887  0.5088
 7864TIP3    H145083   4.826   3.442   5.419  0.6297  0.1151 -0.4553
 7864TIP3    H245084   4.715   3.419   5.519 -0.4210  1.8930 -1.1592
 7865TIP3   OH245085   5.216   1.025  16.052  0.2621  0.0831  0.2067
 7865TIP3    H145086   5.259   1.111  16.048  0.2116  0.1070  0.1716
 7865TIP3    H245087   5.191   1.006  15.962  0.3134  0.0115  0.2077
 7866TIP3   OH245088   2.421   5.689  11.566 -0.0468 -0.2976  0.2409
 7866TIP3    H145089   2.326   5.682  11.551  0.0551  1.6507 -1.9052
 7866TIP3    H245090   2.459   5.691  11.478  1.7007  1.8107  0.9555
 7867TIP3   OH245091   5.782   1.407   4.532 -0.0837  0.2957 -0.7654
 7867TIP3    H145092   5.756   1.498   4.544  1.3905  0.4935  1.7285
 7867TIP3    H245093   5.869   1.412   4.493  0.3270  0.0437  0.0758
 7868TIP3   OH245094   2.399   2.613   6.027  0.4700  0.2806 -0.5783
 7868TIP3    H145095   2.418   2.705   6.008  0.4824 -0.1317 -2.8551
 7868TIP3    H245096   2.316   2.615   6.074  0.5459  1.4767 -0.4665
 7869TIP3   OH245097   4.863   5.350   1.715 -0.0225  0.1953 -0.1770
 7869TIP3    H145098   4.919   5.304   1.778 -1.5593  1.2200  2.0738
 7869TIP3    H245099   4.795   5.286   1.693  0.6520 -0.2468 -1.0447
 7870TIP3   OH245100   3.312   5.785  10.905 -0.0646  0.0495 -0.4829
 7870TIP3    H145101   3.289   5.701  10.945 -0.1997 -0.5432 -1.7810
 7870TIP3    H245102   3.397   5.807  10.944 -1.2661  0.7270  1.9792
 7871TIP3   OH245103   4.399   1.558   1.416 -0.0450 -0.5831  0.2457
 7871TIP3    H145104   4.338   1.588   1.483  0.5040 -0.8243  0.8626
 7871TIP3    H245105   4.345   1.547   1.338 -0.4106  1.1912  0.2107
 7872TIP3   OH245106   5.643   6.576   1.611  0.2545 -0.0672 -0.0431
 7872TIP3    H145107   5.692   6.588   1.693  0.8577  0.6703 -0.4852
 7872TIP3    H245108   5.553   6.601   1.633  0.3757 -0.0318  0.4373
 7873TIP3   OH245109   5.192   3.668   4.808  0.0400  0.1841  0.5152
 7873TIP3    H145110   5.267   3.727   4.804  0.9646 -0.9563  0.2752
 7873TIP3    H245111   5.118   3.723   4.832  0.9947  1.3060  0.9318
 7874TIP3   OH245112   2.744   4.201   2.789 -0.4771  0.1010  0.1268
 7874TIP3    H145113   2.689   4.207   2.867  0.2408  0.7289  0.6049
 7874TIP3    H245114   2.685   4.216   2.716 -1.1721 -0.5269  0.5369
 7875TIP3   OH245115   3.525   0.192   0.977  0.5200  0.4558  0.1788
 7875TIP3    H145116   3.496   0.283   0.973  0.5550  0.4413 -1.1219
 7875TIP3    H245117   3.620   0.197   0.989  0.4105  0.5662  1.0263
 7876TIP3   OH245118   4.216   0.946  13.991  0.1529 -0.3296  0.2745
 7876TIP3    H145119   4.158   0.871  13.997  0.4369 -0.5321  0.5084
 7876TIP3    H245120   4.281   0.921  13.925  0.9662 -0.7888  1.2173
 7877TIP3   OH245121   2.284   2.785   2.590 -0.1591  0.1151  0.5112
 7877TIP3    H145122   2.367   2.809   2.550 -1.1603  1.5825 -0.8237
 7877TIP3    H245123   2.307   2.755   2.678  1.6551  2.0663  0.7811
 7878TIP3   OH245124   6.434   2.513  13.263 -0.2631  0.3766  0.6300
 7878TIP3    H145125   6.349   2.490  13.226 -0.3516  0.7630  0.5852
 7878TIP3    H245126   6.474   2.429  13.286 -0.2547  0.1330 -0.2368
 7879TIP3   OH245127   2.397   1.543   0.081 -0.1676  0.4584 -0.5199
 7879TIP3    H145128   2.367   1.462   0.040  1.7491 -0.7841  0.3824
 7879TIP3    H245129   2.383   1.611   0.015  1.4429 -1.2014 -2.7104
 7880TIP3   OH245130   0.573   4.217  11.673 -0.0160  0.0675  0.2002
 7880TIP3    H145131   0.651   4.272  11.678  0.3539 -0.1616 -2.0330
 7880TIP3    H245132   0.500   4.279  11.681  0.3724  0.3926  1.4171
 7881TIP3   OH245133   5.700   0.961   4.049  0.2979 -0.1412 -0.3817
 7881TIP3    H145134   5.679   0.874   4.082  1.1481 -0.7921 -1.4422
 7881TIP3    H245135   5.741   1.007   4.123  0.2953 -0.8221  0.0442
 7882TIP3   OH245136   0.641   3.358  17.115  0.3210  0.5188  0.2480
 7882TIP3    H145137   0.640   3.453  17.119  0.9393  0.4843  2.2744
 7882TIP3    H245138   0.734   3.335  17.114  0.1881 -0.0696  0.6981
 7883TIP3   OH245139   1.861   0.766  13.453 -0.3165 -0.3133 -0.1312
 7883TIP3    H145140   1.872   0.715  13.373  1.5416  1.3789 -1.0348
 7883TIP3    H245141   1.766   0.765  13.469 -0.7373 -0.7346 -2.3300
 7884TIP3   OH245142   1.302   2.715   4.746  0.5165  0.1844 -0.2052
 7884TIP3    H145143   1.209   2.739   4.743 -0.4016 -3.0603 -2.6183
 7884TIP3    H245144   1.347   2.787   4.703 -0.9987  1.3563  0.0943
 7885TIP3   OH245145   5.316   4.825   1.961  0.2603 -0.0296 -0.8431
 7885TIP3    H145146   5.252   4.791   2.023  1.8751 -0.9170  0.4349
 7885TIP3    H245147   5.308   4.920   1.968  0.4705 -0.1057  0.8418
 7886TIP3   OH245148   6.752   2.844   4.063  0.0596  0.5153 -0.3128
 7886TIP3    H145149   6.768   2.935   4.039  0.8668  0.2186 -0.9745
 7886TIP3    H245150   6.830   2.818   4.113  0.0443  0.0572 -0.5205
 7887TIP3   OH245151   6.314   6.382   3.558 -0.3174 -0.0003  0.3256
 7887TIP3    H145152   6.286   6.473   3.544  0.0475 -0.0680 -0.9815
 7887TIP3    H245153   6.278   6.334   3.483 -2.0461 -1.3237  1.8974
 7888TIP3   OH245154   3.879   6.083  17.073  0.1932 -0.0240  0.7482
 7888TIP3    H145155   3.790   6.055  17.055 -0.2473  1.3641  0.6162
 7888TIP3    H245156   3.905   6.132  16.995  0.4721  0.9341  1.4192
 7889TIP3   OH245157   0.052   5.967  11.942  0.3010  0.9256 -1.1446
 7889TIP3    H145158   0.083   6.009  12.021  0.7565 -0.6656 -0.4286
 7889TIP3    H245159   0.131   5.948  11.892  0.4835 -1.6782 -0.0637
 7890TIP3   OH245160   3.783   3.775  15.175  0.4508 -0.2966  0.4473
 7890TIP3    H145161   3.872   3.776  15.210  0.8710  0.7345 -0.5627
 7890TIP3    H245162   3.795   3.758  15.081 -0.5603 -1.9911  0.5763
 7891TIP3   OH245163   0.092   6.817   2.909 -0.0199  0.2584  0.0722
 7891TIP3    H145164   0.104   6.908   2.880  1.1187 -0.3520 -1.4994
 7891TIP3    H245165   0.173   6.795   2.955  0.7230 -0.6691 -1.6106
 7892TIP3   OH245166   1.074   3.530  14.758 -0.2073 -0.2152 -0.3413
 7892TIP3    H145167   1.096   3.437  14.748 -0.5622 -0.2407 -0.9344
 7892TIP3    H245168   0.979   3.530  14.772 -0.0882  0.0021  0.5225
 7893TIP3   OH245169   4.002   6.401   2.400 -0.0487 -0.2101  0.3655
 7893TIP3    H145170   3.999   6.345   2.323 -1.0106  0.0303  0.2074
 7893TIP3    H245171   3.913   6.396   2.436  0.9245 -2.1389  2.7984
 7894TIP3   OH245172   0.917   4.327   1.577  0.2354  0.6514  0.1769
 7894TIP3    H145173   0.956   4.404   1.617 -1.5397  2.0052 -0.5911
 7894TIP3    H245174   0.827   4.325   1.610 -0.0370 -0.5375 -0.5732
 7895TIP3   OH245175   1.342   0.839   5.529 -0.0614  0.1232  0.4715
 7895TIP3    H145176   1.281   0.813   5.599  1.0522 -2.1756  0.6832
 7895TIP3    H245177   1.285   0.870   5.458 -1.3297  0.3213  1.5386
 7896TIP3   OH245178   4.465   3.664   2.535  0.2525  0.4225 -0.0453
 7896TIP3    H145179   4.469   3.579   2.490  1.7729  0.7313 -0.5581
 7896TIP3    H245180   4.372   3.682   2.544 -0.0979 -0.7478 -1.0143
 7897TIP3   OH245181   3.967   1.453  14.108 -0.0002 -0.0579 -0.4945
 7897TIP3    H145182   3.965   1.418  14.197  0.4429  2.2445  0.4769
 7897TIP3    H245183   3.879   1.486  14.092  0.1477  0.2836 -0.6075
 7898TIP3   OH245184   2.191   3.084  14.746 -0.1675 -0.8896 -0.1143
 7898TIP3    H145185   2.183   2.990  14.733 -0.6651 -0.8255 -0.2900
 7898TIP3    H245186   2.282   3.097  14.775  0.2182 -1.3193 -1.0778
 7899TIP3   OH245187   5.609   3.619  14.619 -0.0695  0.0786 -0.3525
 7899TIP3    H145188   5.533   3.572  14.651 -0.1146 -0.3290 -1.0310
 7899TIP3    H245189   5.582   3.653  14.534  0.1720  0.7988 -0.1483
 7900TIP3   OH245190   2.986   1.729  12.261 -0.1124  0.3187  0.4743
 7900TIP3    H145191   3.032   1.665  12.207 -0.9445  0.8976 -0.9992
 7900TIP3    H245192   3.020   1.715  12.350  1.5954 -0.4070 -0.2480
 7901TIP3   OH245193   5.849   4.271   5.781  0.1459 -0.5074 -0.2074
 7901TIP3    H145194   5.885   4.191   5.743 -0.5956 -0.0631 -1.9681
 7901TIP3    H245195   5.782   4.240   5.843  0.6853 -1.2435  0.0230
 7902TIP3   OH245196   6.595   6.669  15.892  0.0431 -0.2831 -0.2247
 7902TIP3    H145197   6.596   6.711  15.978 -1.1080 -1.4931  0.4131
 7902TIP3    H245198   6.617   6.578  15.909 -2.8239 -1.1958 -0.7562
 7903TIP3   OH245199   3.336   6.616   6.354  0.2897 -0.6827  0.4302
 7903TIP3    H145200   3.260   6.590   6.407 -0.8331 -0.5406 -1.0555
 7903TIP3    H245201   3.367   6.534   6.315  0.9967 -0.7592  1.1291
 7904TIP3   OH245202   0.653   3.460  15.859 -0.3413 -0.1083 -0.2675
 7904TIP3    H145203   0.600   3.524  15.811  1.6277 -0.0975 -2.6525
 7904TIP3    H245204   0.658   3.495  15.948 -2.2190  1.1608 -0.5989
 7905TIP3   OH245205   5.957   5.124  14.778 -0.2439 -0.2499  0.9566
 7905TIP3    H145206   5.883   5.084  14.732  0.5340 -0.1629 -0.4009
 7905TIP3    H245207   6.029   5.123  14.715  1.1133 -0.8722  2.4469
 7906TIP3   OH245208   3.143   1.205   1.022  0.1549  0.3511  0.3215
 7906TIP3    H145209   3.133   1.117   1.059 -1.0085 -0.1622 -1.1487
 7906TIP3    H245210   3.134   1.263   1.098  2.8502 -0.7778  1.6715
 7907TIP3   OH245211   4.567   2.564  13.893 -0.2831 -0.0171  0.3073
 7907TIP3    H145212   4.480   2.534  13.921 -0.7366  0.0962 -0.9209
 7907TIP3    H245213   4.554   2.656  13.869 -0.2690 -0.4478 -1.5479
 7908TIP3   OH245214   4.032   6.208   4.695  0.3562 -0.3193 -0.1539
 7908TIP3    H145215   4.038   6.222   4.790 -0.8305 -1.0180  0.0515
 7908TIP3    H245216   3.947   6.164   4.683  0.3195  0.0894 -1.5773
 7909TIP3   OH245217   4.435   2.168  11.505  0.3401 -0.0937 -0.5111
 7909TIP3    H145218   4.498   2.226  11.463  0.1541  1.5105  1.3256
 7909TIP3    H245219   4.354   2.182  11.456  0.0462  1.9820  0.4595
 7910TIP3   OH245220   3.311   4.565   4.456 -0.5388  0.0483  0.3473
 7910TIP3    H145221   3.375   4.506   4.417 -0.2393  0.7751 -0.3109
 7910TIP3    H245222   3.242   4.572   4.390 -0.1453  1.1070  0.0170
 7911TIP3   OH245223   1.641   2.964  13.606 -0.1812 -0.4128 -0.3480
 7911TIP3    H145224   1.659   2.876  13.640 -0.4896  0.5535  2.6820
 7911TIP3    H245225   1.727   2.996  13.578 -0.0549 -1.6274 -1.4268
 7912TIP3   OH245226   5.183   5.892  14.856 -0.3024  0.1627  0.4121
 7912TIP3    H145227   5.171   5.826  14.924 -3.5888 -1.0661 -1.0859
 7912TIP3    H245228   5.249   5.855  14.797  1.0603  0.3084  1.7894
 7913TIP3   OH245229   5.615   4.912  16.580  0.1075  0.0398  0.1739
 7913TIP3    H145230   5.667   4.917  16.661  0.0601  0.8963  0.1549
 7913TIP3    H245231   5.667   4.856  16.522  0.7383  0.4243  0.3563
 7914TIP3   OH245232   4.442   5.272   2.930 -0.4908  0.1912  0.2224
 7914TIP3    H145233   4.362   5.221   2.918  0.2200 -0.7670 -0.7284
 7914TIP3    H245234   4.474   5.288   2.841  0.3590  0.5762  0.5842
 7915TIP3   OH245235   5.429   6.442   0.563 -0.8060 -0.2637  0.1523
 7915TIP3    H145236   5.510   6.485   0.536 -0.8380 -0.4658 -0.2824
 7915TIP3    H245237   5.363   6.473   0.501 -0.3838 -2.5738 -1.5786
 7916TIP3   OH245238   6.799   2.269   0.710  0.3994 -0.3164 -0.1925
 7916TIP3    H145239   6.726   2.244   0.767 -0.6779 -0.1637 -1.4731
 7916TIP3    H245240   6.807   2.363   0.721  1.2137 -0.4724  0.8348
 7917TIP3   OH245241   0.644   5.788  13.652  0.6289  0.0343  0.0309
 7917TIP3    H145242   0.679   5.699  13.648  2.6947  0.4337  3.9439
 7917TIP3    H245243   0.721   5.844  13.658 -0.6365  2.0164 -1.0951
 7918TIP3   OH245244   2.116   2.394  16.063 -0.0714 -0.6400 -0.0221
 7918TIP3    H145245   2.088   2.310  16.027  0.6148 -1.1625  0.6309
 7918TIP3    H245246   2.051   2.414  16.130 -1.5423  0.5003 -1.7290
 7919TIP3   OH245247   0.064   6.422  16.436 -0.9256 -0.3424 -0.2449
 7919TIP3    H145248   0.069   6.430  16.531  0.2269 -1.1246 -0.2248
 7919TIP3    H245249  -0.026   6.447  16.415 -1.9438 -2.4292  1.2931
 7920TIP3   OH245250   3.948   0.258  13.805 -0.0073 -0.1091  0.0055
 7920TIP3    H145251   3.916   0.178  13.846 -0.2720 -0.1492 -0.2769
 7920TIP3    H245252   4.000   0.228  13.730  1.0865 -0.0617  0.7275
 7921TIP3   OH245253   4.962   6.624  15.272 -0.0749  0.1799  1.0890
 7921TIP3    H145254   5.002   6.541  15.244 -1.0599 -0.6454  2.0516
 7921TIP3    H245255   4.983   6.685  15.201  1.3982 -0.6601  0.7633
 7922TIP3   OH245256   2.032   6.158   5.366 -0.4395 -0.4267  0.2581
 7922TIP3    H145257   1.968   6.130   5.431  0.5452  1.6486  2.3159
 7922TIP3    H245258   2.085   6.080   5.348 -3.1317 -2.0468 -1.1521
 7923TIP3   OH245259   0.790   1.366   4.635  0.2234 -0.1945  0.1059
 7923TIP3    H145260   0.833   1.451   4.632 -0.8084  0.3213 -0.5339
 7923TIP3    H245261   0.844   1.313   4.694  0.9486  0.8525  0.3931
 7924TIP3   OH245262   0.809   5.767   4.766  0.4358 -0.4075  0.4376
 7924TIP3    H145263   0.753   5.801   4.836  0.9659  2.1988 -0.3042
 7924TIP3    H245264   0.750   5.716   4.711 -0.6703  0.1372  1.0834
 7925TIP3   OH245265   6.778   6.132  13.600  0.3769 -0.2088 -0.0906
 7925TIP3    H145266   6.731   6.048  13.600  1.0775 -0.6211 -1.3990
 7925TIP3    H245267   6.870   6.108  13.610  0.6899  0.3069 -1.5345
 7926TIP3   OH245268   0.591   0.831  11.832 -0.1863  0.5689 -0.2090
 7926TIP3    H145269   0.579   0.878  11.749  1.6351  0.6902 -0.4425
 7926TIP3    H245270   0.510   0.846  11.880  0.2800  4.0018 -0.2580
 7927TIP3   OH245271   5.818   2.468   4.831 -0.7834  0.4135 -0.2223
 7927TIP3    H145272   5.843   2.469   4.924 -1.7402 -0.2145  0.0504
 7927TIP3    H245273   5.723   2.478   4.831 -1.1413 -2.1795 -0.9786
 7928TIP3   OH245274   0.424   2.925   1.613 -0.2638  1.0958  0.0039
 7928TIP3    H145275   0.459   2.978   1.542 -0.1031  0.5059 -0.3672
 7928TIP3    H245276   0.388   2.848   1.569  1.3476 -0.0964  0.6678
 7929TIP3   OH245277   5.227   3.613  12.953  0.2800  0.8453 -0.3702
 7929TIP3    H145278   5.179   3.683  12.998  2.8622  3.9819 -2.0136
 7929TIP3    H245279   5.166   3.580  12.887 -2.2692 -1.2460  2.7510
 7930TIP3   OH245280   0.722   4.430  13.774 -0.3354 -0.3513 -0.3723
 7930TIP3    H145281   0.777   4.433  13.852  0.4998 -0.1167 -0.9486
 7930TIP3    H245282   0.687   4.519  13.766 -2.1301 -0.8834  0.8823
 7931TIP3   OH245283   0.861   0.777   5.705  0.4870  0.0167 -0.2890
 7931TIP3    H145284   0.794   0.810   5.765  1.0489  0.7941 -0.0889
 7931TIP3    H245285   0.869   0.845   5.638  2.0074  0.5316  0.3943
 7932TIP3   OH245286   5.753   3.253  14.520  0.1779  0.1217 -0.4716
 7932TIP3    H145287   5.734   3.215  14.434  1.3639 -1.4616 -0.0758
 7932TIP3    H245288   5.815   3.323  14.501  2.3058 -1.7293 -0.7571
 7933TIP3   OH245289   2.077   2.437  15.588 -0.3719  0.2487  0.2963
 7933TIP3    H145290   2.085   2.474  15.676  0.7772  0.9383 -0.0752
 7933TIP3    H245291   2.003   2.377  15.594 -0.5234  0.5356  1.6444
 7934TIP3   OH245292   4.441   2.342  16.932 -0.1737  0.3414 -0.2799
 7934TIP3    H145293   4.420   2.415  16.989  1.3082  1.4210 -1.0530
 7934TIP3    H245294   4.366   2.335  16.872 -0.6660  0.7113  0.2880
 7935TIP3   OH245295   2.071   2.923   1.585 -0.2697  0.1099 -0.6481
 7935TIP3    H145296   2.073   2.998   1.526  0.8400  0.2182 -0.5072
 7935TIP3    H245297   2.160   2.887   1.580 -0.3959 -0.3698  0.3207
 7936TIP3   OH245298   1.151   1.798  11.559 -0.1674  0.1691  0.0984
 7936TIP3    H145299   1.099   1.831  11.485  0.1706  2.4856  0.8163
 7936TIP3    H245300   1.086   1.758  11.617 -0.4831 -1.3374 -1.2082
 7937TIP3   OH245301   2.090   5.434   4.253  0.4681 -0.4909  0.3526
 7937TIP3    H145302   2.045   5.468   4.331  2.8799 -0.9412  2.0572
 7937TIP3    H245303   2.094   5.508   4.193  0.7422  0.6205  1.6903
 7938TIP3   OH245304   0.210   4.762  14.920 -0.2660  0.0793 -0.3044
 7938TIP3    H145305   0.189   4.845  14.877 -0.6077  1.7821  2.8704
 7938TIP3    H245306   0.305   4.759  14.923 -0.2428  0.0295 -0.9706
 7939TIP3   OH245307   4.983   3.007  12.307  0.8416  0.3545  0.4332
 7939TIP3    H145308   5.053   3.055  12.351  1.6243 -0.3708  0.0029
 7939TIP3    H245309   4.989   2.919  12.342 -0.8228  0.6283  1.4914
 7940TIP3   OH245310   4.651   3.345   2.490  0.1128  0.2718  0.4487
 7940TIP3    H145311   4.741   3.361   2.460  0.2367  1.0859  1.1960
 7940TIP3    H245312   4.596   3.387   2.425  0.1006 -2.5137 -1.5024
 7941TIP3   OH245313   1.433   2.953   0.012 -0.2047  0.0154  0.1652
 7941TIP3    H145314   1.459   3.016  -0.056  0.9398 -0.3510  0.2393
 7941TIP3    H245315   1.394   2.881  -0.037 -2.0802  0.9942  0.1134
 7942TIP3   OH245316   3.534   5.576   1.158 -0.4668 -0.3092 -0.4281
 7942TIP3    H145317   3.548   5.669   1.175 -2.0866 -0.2726  1.0344
 7942TIP3    H245318   3.615   5.534   1.189  0.0641  0.5564 -0.5931
 7943TIP3   OH245319   2.714   5.547   4.489  0.7685  0.3802  0.2851
 7943TIP3    H145320   2.737   5.637   4.466 -0.3275  0.3909 -0.8822
 7943TIP3    H245321   2.633   5.556   4.541  0.8917  0.0859  0.5317
 7944TIP3   OH245322   4.775   1.948  11.607  0.0031 -0.1008  0.2466
 7944TIP3    H145323   4.775   2.010  11.534 -5.2060 -0.3557 -0.3642
 7944TIP3    H245324   4.807   1.867  11.569 -1.3793  0.1035 -1.5104
 7945TIP3   OH245325   4.009   4.247   2.831 -0.2185 -0.3415  0.4940
 7945TIP3    H145326   4.068   4.219   2.901 -0.8082 -0.0190  1.1241
 7945TIP3    H245327   4.060   4.235   2.751  0.3282 -1.0808  0.9411
 7946TIP3   OH245328   3.219   3.569   2.981 -0.0646  0.1374 -0.7092
 7946TIP3    H145329   3.221   3.586   3.075  1.4138  1.4321 -0.9322
 7946TIP3    H245330   3.126   3.569   2.959 -0.5005 -1.3847  0.9304
 7947TIP3   OH245331   6.344   2.818   5.353 -0.1849 -0.1815  0.0732
 7947TIP3    H145332   6.330   2.784   5.442  0.6829 -1.2317 -0.1835
 7947TIP3    H245333   6.314   2.909   5.358 -0.4211 -0.3087  1.3642
 7948TIP3   OH245334   2.418   1.433  16.092 -0.1034 -0.2126 -0.5266
 7948TIP3    H145335   2.351   1.454  16.157  0.5281 -0.8735  0.3684
 7948TIP3    H245336   2.452   1.348  16.120  1.0952  0.0988 -0.9691
 7949TIP3   OH245337   0.564   6.201  13.656 -0.0766  0.1600  0.4673
 7949TIP3    H145338   0.484   6.236  13.614  0.2443  0.1412 -0.1782
 7949TIP3    H245339   0.566   6.109  13.629  1.0700  0.5646 -0.9893
 7950TIP3   OH245340   4.759   1.790  15.118  0.0926 -0.4165 -0.4374
 7950TIP3    H145341   4.821   1.823  15.053  2.2588  0.4908  1.9220
 7950TIP3    H245342   4.689   1.856  15.121  1.3831  0.9918  0.0336
 7951TIP3   OH245343   5.382   1.589   0.222  0.0723 -0.0334 -0.1825
 7951TIP3    H145344   5.472   1.570   0.247 -0.1320  0.4861  1.0186
 7951TIP3    H245345   5.385   1.676   0.183  0.0793  0.0479 -0.0045
 7952TIP3   OH245346   1.069   3.116   2.341 -0.4416  0.3806  0.0748
 7952TIP3    H145347   1.096   3.109   2.432 -1.4151  0.7831  0.4153
 7952TIP3    H245348   1.047   3.209   2.330 -0.6107  0.2777 -0.4880
 7953TIP3   OH245349   6.723   5.702   5.139  0.4624 -0.0297  0.7648
 7953TIP3    H145350   6.684   5.682   5.053 -0.9648 -0.2834  1.4418
 7953TIP3    H245351   6.811   5.735   5.118  1.1274 -2.4630 -0.6698
 7954TIP3   OH245352   1.270   1.580   3.069  0.7166  0.0443  0.1374
 7954TIP3    H145353   1.253   1.569   2.975 -1.1905  0.0798  0.4413
 7954TIP3    H245354   1.203   1.641   3.099  2.0506  0.9943  1.3276
 7955TIP3   OH245355   6.491   6.382   0.688  0.3210 -0.4714  0.3446
 7955TIP3    H145356   6.403   6.408   0.715 -0.2305 -1.5688 -0.3057
 7955TIP3    H245357   6.549   6.421   0.754 -0.7005 -0.2827  1.1616
 7956TIP3   OH245358   5.920   4.681   0.459  1.0888 -0.2638 -0.4795
 7956TIP3    H145359   5.909   4.753   0.397 -0.6770  0.0371  0.1187
 7956TIP3    H245360   5.922   4.723   0.545 -0.1277 -0.8938 -0.1101
 7957TIP3   OH245361   3.828   0.592  12.549  0.1728 -0.2018  0.6130
 7957TIP3    H145362   3.865   0.673  12.513 -2.5642  1.2936  0.9280
 7957TIP3    H245363   3.780   0.620  12.626 -0.7677 -2.1568  0.7958
 7958TIP3   OH245364   5.475   6.632  12.229 -0.7483 -0.3265  0.1400
 7958TIP3    H145365   5.416   6.567  12.192 -0.9994 -0.3707  0.6070
 7958TIP3    H245366   5.467   6.620  12.324 -2.1185  1.5120  0.3269
 7959TIP3   OH245367   4.770   2.153   6.021 -0.0179  0.3651  0.1354
 7959TIP3    H145368   4.768   2.219   6.091  1.9707  0.1010  0.4767
 7959TIP3    H245369   4.721   2.079   6.057  1.6362 -0.0755  1.6273
 7960TIP3   OH245370   4.217   3.540   2.019  0.1024 -0.9255  0.5090
 7960TIP3    H145371   4.126   3.540   1.991  0.1048  0.0562  0.4671
 7960TIP3    H245372   4.214   3.523   2.113 -0.2059  0.1016  0.7007
 7961TIP3   OH245373   1.962   3.581   6.410 -0.6042  0.7603 -0.2177
 7961TIP3    H145374   1.981   3.650   6.474  1.1532  0.6124 -0.5474
 7961TIP3    H245375   1.872   3.555   6.430 -1.1531  2.8109  0.2046
 7962TIP3   OH245376   0.188   4.659  13.561 -0.3870  0.5485  0.3125
 7962TIP3    H145377   0.135   4.724  13.515  2.1206  1.8090 -0.9986
 7962TIP3    H245378   0.213   4.702  13.643  0.6315  0.9901 -0.2083
 7963TIP3   OH245379   1.446   0.104   5.317  0.0228 -0.1969 -0.4486
 7963TIP3    H145380   1.465   0.191   5.352 -0.8052  0.3108 -1.2030
 7963TIP3    H245381   1.425   0.051   5.393  2.3797 -0.2763  0.2346
 7964TIP3   OH245382   5.894   3.176  15.571  0.4352  0.8675  0.4274
 7964TIP3    H145383   5.838   3.122  15.628  1.4391 -0.0792  0.5619
 7964TIP3    H245384   5.984   3.150  15.595  0.9448  2.5118  0.3826
 7965TIP3   OH245385   1.700   4.801  16.129 -0.3892 -0.5383  0.2104
 7965TIP3    H145386   1.628   4.744  16.153  0.4482 -0.9624  1.8477
 7965TIP3    H245387   1.778   4.746  16.132 -0.0283 -0.3232 -2.4319
 7966TIP3   OH245388   6.080   0.504  11.333 -0.3429  0.3940 -0.1990
 7966TIP3    H145389   5.985   0.510  11.341 -0.2904 -0.2458  1.1783
 7966TIP3    H245390   6.108   0.593  11.312 -1.2249  0.6308 -0.4172
 7967TIP3   OH245391   3.688   1.397  10.559 -0.0210  0.0208  0.4544
 7967TIP3    H145392   3.774   1.440  10.556  0.5253 -0.8231  2.1561
 7967TIP3    H245393   3.709   1.304  10.562 -0.9488 -0.1733  1.5448
 7968TIP3   OH245394   5.567   0.104   5.267 -0.7531 -0.0856 -0.1341
 7968TIP3    H145395   5.486   0.061   5.241 -1.0559  1.1166 -1.2658
 7968TIP3    H245396   5.628   0.032   5.284 -1.5862 -0.9739 -0.8474
 7969TIP3   OH245397   2.679   0.146   0.401  0.5495 -0.0173 -0.1061
 7969TIP3    H145398   2.670   0.228   0.450 -0.8514  0.0675 -0.4817
 7969TIP3    H245399   2.760   0.157   0.352  1.1006  0.5783  0.8986
 7970TIP3   OH245400   0.940   2.027  16.257  0.0049  0.2489 -0.1972
 7970TIP3    H145401   0.879   2.071  16.316  0.6177  0.5879  0.2032
 7970TIP3    H245402   1.027   2.051  16.290  0.3786 -2.0090  0.5811
 7971TIP3   OH245403   3.406   1.293   1.158  0.3845 -0.8131 -0.4673
 7971TIP3    H145404   3.323   1.286   1.206 -0.0526  0.9112 -0.9267
 7971TIP3    H245405   3.459   1.354   1.210  1.1446 -1.4193 -0.5072
 7972TIP3   OH245406   4.733   3.749   4.300 -0.1845  0.2000  0.0311
 7972TIP3    H145407   4.777   3.692   4.238 -2.5350 -1.9545  0.1732
 7972TIP3    H245408   4.665   3.793   4.249 -0.1650  0.7675  0.4830
 7973TIP3   OH245409   3.483   0.294   2.467 -0.5081  0.4644 -0.4780
 7973TIP3    H145410   3.512   0.384   2.457  2.3626 -0.3988 -0.8685
 7973TIP3    H245411   3.511   0.250   2.387  1.1311 -1.3983  0.9850
 7974TIP3   OH245412   2.665   5.439  14.037 -0.3447 -0.2827 -0.2281
 7974TIP3    H145413   2.710   5.357  14.054 -1.6725 -0.8691  0.6420
 7974TIP3    H245414   2.655   5.479  14.123  2.1714  1.8968 -0.8113
 7975TIP3   OH245415   2.683   5.727  14.525 -0.3679  0.0052 -0.0934
 7975TIP3    H145416   2.644   5.807  14.559  0.6667  1.4855 -2.1368
 7975TIP3    H245417   2.666   5.661  14.592 -1.9630  1.7260  1.2987
 7976TIP3   OH245418   1.700   5.303   5.396 -0.0529 -0.1837 -0.1312
 7976TIP3    H145419   1.752   5.236   5.440 -1.3350 -0.6442  0.7627
 7976TIP3    H245420   1.749   5.384   5.408 -1.5342  0.2945  4.6751
 7977TIP3   OH245421   4.531   4.119  16.961 -0.0379 -0.9628 -0.3700
 7977TIP3    H145422   4.451   4.104  17.011  0.2231 -1.0078  0.0433
 7977TIP3    H245423   4.592   4.054  16.994  0.7995  0.3166  0.7411
 7978TIP3   OH245424   0.128   3.471   4.905 -0.5556 -0.0693 -0.2585
 7978TIP3    H145425   0.219   3.442   4.912 -0.6022 -0.3451 -0.7400
 7978TIP3    H245426   0.077   3.390   4.909 -0.7083 -0.0257 -1.1773
 7979TIP3   OH245427   1.813   1.910   0.781 -0.9790 -0.0669 -0.1974
 7979TIP3    H145428   1.871   1.876   0.848  0.4666  0.6919 -1.0275
 7979TIP3    H245429   1.743   1.953   0.829  0.3728  1.0307  0.8376
 7980TIP3   OH245430   5.629   4.305   4.653 -0.2153 -0.9145 -0.3472
 7980TIP3    H145431   5.534   4.317   4.648  0.1164  2.0543 -2.1872
 7980TIP3    H245432   5.657   4.294   4.562  1.3047 -0.7177  0.0682
 7981TIP3   OH245433   0.707   3.372  12.500  0.1963  0.1299  0.0950
 7981TIP3    H145434   0.787   3.375  12.552 -0.0762 -0.0007  0.5264
 7981TIP3    H245435   0.642   3.334  12.559 -0.0304 -0.3455 -0.4590
 7982TIP3   OH245436   4.358   2.774  12.394  0.4212  0.1469 -0.1948
 7982TIP3    H145437   4.402   2.824  12.463  2.2327 -2.5082  0.7530
 7982TIP3    H245438   4.409   2.793  12.315  1.7829 -0.8927  0.3780
 7983TIP3   OH245439   2.718   6.061  15.753 -0.2466 -0.3792 -0.0457
 7983TIP3    H145440   2.689   6.150  15.771  0.3709  0.0706 -1.2167
 7983TIP3    H245441   2.747   6.062  15.662 -2.2573 -2.3027 -0.8110
 7984TIP3   OH245442   5.907   4.964   0.527  0.2482 -0.6274 -0.6305
 7984TIP3    H145443   5.848   5.011   0.469  0.4816  0.7538  0.2258
 7984TIP3    H245444   5.984   5.021   0.535 -0.2378 -0.2340  1.9209
 7985TIP3   OH245445   6.525   2.380  15.586  0.1784 -0.0596 -0.3762
 7985TIP3    H145446   6.454   2.338  15.634  1.5458 -1.1470  0.7715
 7985TIP3    H245447   6.604   2.358  15.636  1.1528  2.5311 -0.6423
 7986TIP3   OH245448   2.490   3.392   3.763 -0.0187  0.2468  0.1567
 7986TIP3    H145449   2.397   3.395   3.786  0.1733  0.2984  0.9679
 7986TIP3    H245450   2.533   3.437   3.836  0.3599  3.3540 -1.7849
 7987TIP3   OH245451   4.976   2.211  11.210 -0.0791 -0.1654  0.0008
 7987TIP3    H145452   5.038   2.274  11.175  0.3775 -0.2452  0.6372
 7987TIP3    H245453   4.943   2.164  11.133  0.8000 -0.2582 -0.3312
 7988TIP3   OH245454   2.290   2.624   0.005 -0.0323  0.4778 -0.2941
 7988TIP3    H145455   2.329   2.583  -0.072  1.7506  1.1969  0.1808
 7988TIP3    H245456   2.293   2.718  -0.014  2.9852  0.9006  1.6903
 7989TIP3   OH245457   4.738   5.969  10.979 -0.0731 -0.6465 -0.6155
 7989TIP3    H145458   4.706   6.046  10.933 -0.3675 -0.0449  0.5454
 7989TIP3    H245459   4.771   5.911  10.910  1.4507  1.0910 -1.4446
 7990TIP3   OH245460   4.893   4.313   5.007 -0.2302 -0.1528 -0.0894
 7990TIP3    H145461   4.916   4.244   4.945  1.1796 -0.6597  0.9570
 7990TIP3    H245462   4.965   4.375   5.002 -0.1867 -0.1099  0.8971
 7991TIP3   OH245463   4.569   4.631  14.673 -0.4051  0.4323 -1.0246
 7991TIP3    H145464   4.533   4.613  14.586 -1.4956 -0.2697 -0.4455
 7991TIP3    H245465   4.615   4.550  14.697 -2.1793 -0.3297  0.0387
 7992TIP3   OH245466   5.076   6.154  14.779 -0.2886  0.5548  0.2694
 7992TIP3    H145467   5.106   6.072  14.817 -1.2917  0.1659  0.2476
 7992TIP3    H245468   5.156   6.198  14.750  0.2143 -0.6417 -0.1880
 7993TIP3   OH245469   3.478   3.772  13.657 -0.2514 -0.1611 -0.0122
 7993TIP3    H145470   3.526   3.690  13.648 -0.8567 -0.3592 -1.6974
 7993TIP3    H245471   3.385   3.747  13.649 -0.5621  0.4677  1.2680
 7994TIP3   OH245472   0.387   4.957  16.914  0.0391  0.0654 -0.9215
 7994TIP3    H145473   0.400   4.892  16.845  2.3142  2.3498 -2.8661
 7994TIP3    H245474   0.315   5.012  16.883 -1.7485 -1.2822  0.6226
 7995TIP3   OH245475   6.824   1.857   3.529  0.3042  0.2110  0.5038
 7995TIP3    H145476   6.746   1.879   3.479 -0.3243 -0.3287  1.2244
 7995TIP3    H245477   6.792   1.803   3.602  1.3910 -0.3383  0.5986
 7996TIP3   OH245478   5.739   1.208   2.815 -0.9321 -0.4068 -0.4554
 7996TIP3    H145479   5.780   1.235   2.733 -1.0280 -0.1142 -0.4065
 7996TIP3    H245480   5.688   1.284   2.843 -0.4010 -0.2753  0.1934
 7997TIP3   OH245481   6.301   6.098  11.087  0.7949 -0.8227  0.1542
 7997TIP3    H145482   6.381   6.057  11.120  1.3428 -1.8672 -2.2003
 7997TIP3    H245483   6.260   6.031  11.033 -0.9144  0.1915  0.1106
 7998TIP3   OH245484   4.145   2.775   6.189 -0.0525 -0.1242 -0.2774
 7998TIP3    H145485   4.147   2.865   6.221  1.6709 -0.1853 -0.1700
 7998TIP3    H245486   4.054   2.762   6.162 -0.2248  1.8123 -0.7712
 7999TIP3   OH245487   1.599   3.493   5.541 -0.1579  0.1591 -0.3251
 7999TIP3    H145488   1.564   3.556   5.478 -0.0905 -0.2609 -0.7866
 7999TIP3    H245489   1.542   3.417   5.535  0.7072 -0.4586 -0.9547
 8000TIP3   OH245490   1.892   5.746   0.159 -0.5321 -0.4769 -0.2582
 8000TIP3    H145491   1.879   5.798   0.238 -0.7504  0.0108 -0.6152
 8000TIP3    H245492   1.939   5.668   0.190 -1.8180 -0.9598  0.5900
 8001TIP3   OH245493   2.340   3.329   2.574 -0.0251 -0.1208  0.0104
 8001TIP3    H145494   2.346   3.396   2.642  0.0738  0.4110 -0.5261
 8001TIP3    H245495   2.273   3.268   2.607 -0.5526  0.5609  0.2164
 8002TIP3   OH245496   5.127   4.482  12.913  0.4486 -0.4613  0.6372
 8002TIP3    H145497   5.080   4.407  12.949 -0.1259 -0.4141  0.0083
 8002TIP3    H245498   5.118   4.550  12.980 -1.1468 -0.1694  0.1743
 8003TIP3   OH245499   4.492   2.416  10.799  0.0128  0.4772  0.7378
 8003TIP3    H145500   4.447   2.496  10.828 -0.6712 -0.2555  1.7603
 8003TIP3    H245501   4.573   2.448  10.759 -0.3711  1.6976  0.8745
 8004TIP3   OH245502   2.316   4.108   2.601  0.4240 -0.2590 -0.3550
 8004TIP3    H145503   2.280   4.184   2.555  2.5025  0.1767 -1.3758
 8004TIP3    H245504   2.306   4.036   2.539 -0.6863 -0.6489  0.2469
 8005TIP3   OH245505   2.248   2.517  11.968 -0.4750  0.0108 -0.1147
 8005TIP3    H145506   2.169   2.462  11.960 -0.8308  0.3163  1.0616
 8005TIP3    H245507   2.319   2.461  11.937 -0.7469 -1.3732  1.5558
 8006TIP3   OH245508   4.094   0.301  12.724  0.0964 -0.3354 -0.4320
 8006TIP3    H145509   4.092   0.206  12.717  2.0935 -0.3344 -2.2643
 8006TIP3    H245510   4.104   0.332  12.633  1.9320  1.4348  0.2791
 8007TIP3   OH245511   3.254   6.339   2.639 -0.1453  0.3454  0.3803
 8007TIP3    H145512   3.227   6.248   2.627  0.6914 -0.4963  3.7956
 8007TIP3    H245513   3.176   6.383   2.672  0.2134  0.1007  1.5955
 8008TIP3   OH245514   0.852   6.668  14.592 -0.1377  0.1882  0.8145
 8008TIP3    H145515   0.788   6.737  14.575 -0.8796 -0.8409 -0.8263
 8008TIP3    H245516   0.868   6.673  14.686 -3.7167 -0.3846  1.6265
 8009TIP3   OH245517   4.843   3.452  11.896 -0.7335 -0.1287 -0.4666
 8009TIP3    H145518   4.862   3.467  11.803 -0.5956 -0.1009 -0.4341
 8009TIP3    H245519   4.917   3.492  11.942  0.2981 -1.9837 -0.4265
 8010TIP3   OH245520   0.438   6.337  12.588 -0.6091 -0.1237 -0.4159
 8010TIP3    H145521   0.455   6.284  12.666  0.0395  1.4114  0.5381
 8010TIP3    H245522   0.379   6.406  12.619  1.0418  1.5505 -0.7822
 8011TIP3   OH245523   1.293   5.211  16.393  0.0551 -0.8253 -0.0263
 8011TIP3    H145524   1.377   5.207  16.347 -0.7211 -2.1374 -1.4045
 8011TIP3    H245525   1.283   5.124  16.433 -0.5198 -0.5759  0.3883
 8012TIP3   OH245526   4.439   2.836  14.028 -0.5033 -0.0103  0.2349
 8012TIP3    H145527   4.362   2.799  13.984  1.1161 -0.5775 -2.3175
 8012TIP3    H245528   4.428   2.931  14.020 -1.4216 -0.0488  0.8600
 8013TIP3   OH245529   2.788   6.360  14.997  0.3742  0.2445  0.1525
 8013TIP3    H145530   2.786   6.389  14.906 -0.9727  1.4548  0.5401
 8013TIP3    H245531   2.700   6.376  15.030  1.4059  1.9714  2.3248
 8014TIP3   OH245532   4.182   4.890   4.790 -0.1380 -0.0808  0.1992
 8014TIP3    H145533   4.140   4.814   4.829 -1.1573  0.6810  0.6253
 8014TIP3    H245534   4.209   4.861   4.703 -2.6357 -0.2966 -0.5755
 8015TIP3   OH245535   2.294   0.850  15.631  0.5688 -0.5458  0.2572
 8015TIP3    H145536   2.346   0.927  15.656 -0.8006  0.1242  1.1679
 8015TIP3    H245537   2.250   0.824  15.712  1.2128 -2.4704  0.0203
 8016TIP3   OH245538   2.245   5.942  11.133  0.3809  0.1460  0.4644
 8016TIP3    H145539   2.284   5.888  11.064  0.1612  0.5847 -0.0103
 8016TIP3    H245540   2.265   5.895  11.214  0.5326 -0.4426  0.0951
 8017TIP3   OH245541   1.723   0.039   2.855  0.0371 -0.9660 -0.0261
 8017TIP3    H145542   1.703   0.075   2.768 -2.7366 -0.3094  0.7852
 8017TIP3    H245543   1.760   0.113   2.903 -2.8129  0.0922  0.7033
 8018TIP3   OH245544   0.838   3.059   6.534 -0.4908 -0.3248 -0.0582
 8018TIP3    H145545   0.885   3.006   6.599 -1.1865  0.1668  0.8609
 8018TIP3    H245546   0.802   3.132   6.583 -0.5952  0.3505 -1.0992
 8019TIP3   OH245547   4.203   6.766  12.871 -0.2365  0.3165  0.0724
 8019TIP3    H145548   4.237   6.679  12.892 -0.9955  0.2678  1.2165
 8019TIP3    H245549   4.131   6.779  12.933  0.8069  2.3620  0.9729
 8020TIP3   OH245550   5.912   6.781   2.552  0.1143 -0.0547 -0.0878
 8020TIP3    H145551   5.878   6.846   2.614  1.0200  1.1729 -0.8514
 8020TIP3    H245552   5.887   6.815   2.466  1.2357 -0.3303 -0.5327
 8021TIP3   OH245553   0.501   4.198   3.720  0.1328 -0.2998  0.5124
 8021TIP3    H145554   0.453   4.257   3.779  0.1562 -1.1242  1.3818
 8021TIP3    H245555   0.562   4.255   3.674  0.1639  0.3670  1.3522
 8022TIP3   OH245556   2.908   4.811  11.249 -0.1861  0.6195  0.2802
 8022TIP3    H145557   2.922   4.843  11.160  2.8837 -1.2776 -0.0928
 8022TIP3    H245558   2.983   4.844  11.299 -0.0468 -1.0413  1.2756
 8023TIP3   OH245559   6.496   5.616  10.151  0.4505 -0.1417 -0.6121
 8023TIP3    H145560   6.511   5.523  10.134  2.7561 -0.1311  0.9011
 8023TIP3    H245561   6.435   5.617  10.225  0.4958 -0.4493 -0.5693
 8024TIP3   OH245562   2.396   3.791   0.333  0.4365 -0.0614  0.6782
 8024TIP3    H145563   2.457   3.723   0.362  1.5117  0.6176  0.1011
 8024TIP3    H245564   2.447   3.843   0.270 -0.3571  1.2534  1.0814
 8025TIP3   OH245565   2.267   3.337   1.054 -0.4015 -0.7541 -0.6807
 8025TIP3    H145566   2.334   3.323   0.988  0.7629 -1.2417  0.5467
 8025TIP3    H245567   2.313   3.379   1.127 -1.3240 -1.4791  0.3571
 8026TIP3   OH245568   1.420   5.846  16.676  0.1863  0.4059  0.0844
 8026TIP3    H145569   1.457   5.827  16.590  2.3346  2.7611  0.3471
 8026TIP3    H245570   1.469   5.790  16.736 -1.1836 -1.1015 -0.1473
 8027TIP3   OH245571   0.626   6.361   4.993 -0.4475  0.1863 -0.6950
 8027TIP3    H145572   0.543   6.314   4.978 -0.2155  0.2013 -2.1433
 8027TIP3    H245573   0.675   6.350   4.911  0.8354  0.4967  0.0072
 8028TIP3   OH245574   6.633   6.442  10.580 -0.1100  0.5303  0.2305
 8028TIP3    H145575   6.540   6.459  10.571 -0.2866 -0.7289 -0.5873
 8028TIP3    H245576   6.639   6.349  10.602  0.9769  0.3266 -0.8086
 8029TIP3   OH245577   6.622   3.095  15.385  0.4612 -0.9340 -0.1172
 8029TIP3    H145578   6.676   3.042  15.327  1.0100 -0.3079 -0.1854
 8029TIP3    H245579   6.677   3.112  15.461  0.0279 -1.0716  0.2371
 8030TIP3   OH245580   1.751   2.997   4.829 -1.0556 -0.0368 -0.0538
 8030TIP3    H145581   1.740   3.073   4.886  0.6076  0.9123 -0.9067
 8030TIP3    H245582   1.821   2.947   4.871 -1.6118 -0.7097  0.0856
 8031TIP3   OH245583   6.009   2.832  13.615  0.1171 -0.2436 -0.2560
 8031TIP3    H145584   6.048   2.884  13.545 -1.4524 -2.7518 -3.2109
 8031TIP3    H245585   5.923   2.870  13.628  0.5456  0.4518  0.6443
 8032TIP3   OH245586   3.721   6.153   2.677  0.1416 -0.0265  0.2435
 8032TIP3    H145587   3.687   6.066   2.656  0.8932 -0.0864 -0.7919
 8032TIP3    H245588   3.812   6.139   2.701  0.0408  0.3823  0.8969
 8033TIP3   OH245589   4.351   5.115   3.747  0.2770  0.0977  0.0904
 8033TIP3    H145590   4.425   5.122   3.807  0.6622  0.5141 -0.4185
 8033TIP3    H245591   4.353   5.024   3.717  0.2373 -0.0436  0.5085
 8034TIP3   OH245592   2.548   6.044  17.134 -0.4069 -0.8136 -0.5437
 8034TIP3    H145593   2.517   5.961  17.171 -0.7933  0.0824  1.2885
 8034TIP3    H245594   2.600   6.083  17.205 -1.5075  1.1904 -0.7605
 8035TIP3   OH245595   5.161   3.009  11.126 -0.6127 -0.1116 -0.1537
 8035TIP3    H145596   5.137   3.101  11.114  0.1554  0.1262  0.0753
 8035TIP3    H245597   5.094   2.960  11.077 -0.1156  0.6411 -1.6679
 8036TIP3   OH245598   5.369   4.459  15.067  0.1832  0.0818 -0.4367
 8036TIP3    H145599   5.413   4.526  15.014  1.5638 -0.3946  0.0414
 8036TIP3    H245600   5.373   4.493  15.156  1.0012 -0.6464 -0.1729
 8037TIP3   OH245601   2.937   1.826   2.573  0.2675 -0.0938  0.2850
 8037TIP3    H145602   3.027   1.837   2.606 -0.5984  1.0623  2.4448
 8037TIP3    H245603   2.911   1.740   2.605  1.2805 -1.4550 -2.2506
 8038TIP3   OH245604   4.898   2.249   3.426 -0.2462 -0.1439  0.1510
 8038TIP3    H145605   4.823   2.203   3.463 -1.0088  2.1557  1.6876
 8038TIP3    H245606   4.948   2.279   3.502 -0.7768  3.0502 -0.6135
 8039TIP3   OH245607   6.127   3.424  16.338  0.4479  0.7594 -0.3830
 8039TIP3    H145608   6.127   3.484  16.264  0.2571  0.4192 -0.6635
 8039TIP3    H245609   6.169   3.345  16.304 -1.1062 -0.0028 -0.6300
 8040TIP3   OH245610   5.963   6.591  15.169 -0.0813 -0.2587  0.2636
 8040TIP3    H145611   6.034   6.601  15.106 -0.7924 -0.0939 -0.5388
 8040TIP3    H245612   6.006   6.566  15.251  1.0960  1.9234  0.3865
 8041TIP3   OH245613   1.286   2.812  12.782  0.1949 -0.1367  0.2643
 8041TIP3    H145614   1.231   2.861  12.844 -0.7946 -0.1423 -0.5814
 8041TIP3    H245615   1.289   2.724  12.817 -1.7300 -0.5569 -0.5080
 8042TIP3   OH245616   5.407   1.956   5.500 -0.2517 -0.2964 -0.3010
 8042TIP3    H145617   5.324   1.926   5.464 -0.3048  0.2213 -0.6138
 8042TIP3    H245618   5.397   1.947   5.595 -0.2518 -1.2982 -0.3864
 8043TIP3   OH245619   2.783   1.579   3.635  0.0998 -0.5384 -0.0341
 8043TIP3    H145620   2.799   1.611   3.546  0.4474 -1.2048 -0.2225
 8043TIP3    H245621   2.849   1.510   3.647  0.3722 -0.1295  0.9147
 8044TIP3   OH245622   2.565   3.741   3.815 -0.1460 -0.0443  0.0740
 8044TIP3    H145623   2.542   3.739   3.722 -0.9599 -1.8674  0.2771
 8044TIP3    H245624   2.491   3.784   3.858  0.3510  1.0471 -0.1169
 8045TIP3   OH245625   3.000   3.092   3.087  0.3845  0.4538  0.7907
 8045TIP3    H145626   3.070   3.156   3.089  0.8013 -0.0026  0.8711
 8045TIP3    H245627   2.982   3.074   3.179  0.4387  0.2677  0.7642
 8046TIP3   OH245628   1.981   1.306   4.872 -0.2576 -0.2635  0.1973
 8046TIP3    H145629   2.013   1.354   4.796  0.6843 -0.6486  0.3326
 8046TIP3    H245630   1.891   1.284   4.851 -0.1095 -0.0743 -0.6573
 8047TIP3   OH245631   0.923   3.437  11.086 -0.2873  0.1031 -0.2100
 8047TIP3    H145632   0.931   3.456  11.180  1.3134  1.5423 -0.5750
 8047TIP3    H245633   1.008   3.399  11.062 -0.6588 -0.2017 -1.0917
 8048TIP3   OH245634   0.459   4.452   4.236  0.1204  0.1702 -0.6002
 8048TIP3    H145635   0.394   4.471   4.304  0.6112 -1.0246  0.2372
 8048TIP3    H245636   0.446   4.521   4.171 -1.8028  0.1133 -0.3388
 8049TIP3   OH245637   4.180   0.341  13.963  0.1585  0.2199 -0.5970
 8049TIP3    H145638   4.103   0.308  13.917  0.8390 -0.2008 -1.4572
 8049TIP3    H245639   4.225   0.396  13.899  0.0446  1.2882  0.2235
 8050TIP3   OH245640   4.745   5.042  14.072  0.0872 -0.2182 -0.3041
 8050TIP3    H145641   4.812   4.980  14.101  1.0546  1.2320  0.6988
 8050TIP3    H245642   4.667   5.017  14.122  0.6488 -0.2293  0.5952
 8051TIP3   OH245643   6.649   2.760   0.005 -0.4758 -0.8438 -0.1885
 8051TIP3    H145644   6.738   2.770  -0.030 -1.5878  1.4598 -2.7228
 8051TIP3    H245645   6.609   2.694  -0.051 -0.7816 -0.8945  0.0854
 8052TIP3   OH245646   4.083   0.458  13.272  0.1489 -0.3298 -0.0115
 8052TIP3    H145647   4.168   0.496  13.249 -0.2298  0.9406  0.6027
 8052TIP3    H245648   4.074   0.475  13.366 -1.2077  0.4373 -0.2562
 8053TIP3   OH245649   3.705   4.232   5.851 -0.1016 -0.1920 -0.8987
 8053TIP3    H145650   3.745   4.201   5.933 -1.3399  1.6553  0.4676
 8053TIP3    H245651   3.659   4.155   5.817  2.0715 -1.5426 -0.9665
 8054TIP3   OH245652   4.398   6.205   3.142  0.2612  0.6105 -0.0473
 8054TIP3    H145653   4.438   6.208   3.055 -0.0934  0.3593 -0.2254
 8054TIP3    H245654   4.303   6.207   3.125  0.1571 -0.7429  0.2571
 8055TIP3   OH245655   5.778   5.109  17.187  0.1005  0.5760 -0.2358
 8055TIP3    H145656   5.809   5.137  17.274 -2.7562  0.0179  1.0881
 8055TIP3    H245657   5.756   5.191  17.143  0.8460  0.8247 -0.1709
 8056TIP3   OH245658   3.818   5.975  14.597  0.0922 -0.3317 -0.6380
 8056TIP3    H145659   3.822   5.896  14.543 -1.1029 -0.4786 -0.5468
 8056TIP3    H245660   3.743   5.961  14.655  0.7936  0.2216  0.4408
 8057TIP3   OH245661   6.533   2.161  12.880  0.0702  0.3907 -0.0097
 8057TIP3    H145662   6.486   2.237  12.916 -1.7963 -0.4836 -0.4897
 8057TIP3    H245663   6.624   2.189  12.877 -0.4501  2.3244  0.5999
 8058TIP3   OH245664   1.535   3.859   2.887 -0.0263 -0.8876 -0.6634
 8058TIP3    H145665   1.574   3.922   2.826 -0.0831 -0.4985 -0.3053
 8058TIP3    H245666   1.473   3.911   2.938  0.9505 -0.9022  0.6050
 8059TIP3   OH245667   5.760   3.513   5.822  0.1102 -0.0132  0.0884
 8059TIP3    H145668   5.759   3.475   5.735 -0.1452 -0.9822  0.5093
 8059TIP3    H245669   5.801   3.447   5.877  1.3534  1.0651  0.5004
 8060TIP3   OH245670   5.712   3.265  12.249  0.3124 -0.2866 -0.0165
 8060TIP3    H145671   5.690   3.336  12.188 -1.5290 -0.7119  0.0989
 8060TIP3    H245672   5.774   3.210  12.200 -0.2876 -0.0265 -1.1111
 8061TIP3   OH245673   5.253   0.209  13.430 -0.1175 -0.3841 -0.0229
 8061TIP3    H145674   5.311   0.185  13.502  0.3013  1.6151  0.3693
 8061TIP3    H245675   5.305   0.267  13.375 -1.8707  2.1610  0.7721
 8062TIP3   OH245676   3.364   2.069   0.299 -0.1413 -0.0733  0.3456
 8062TIP3    H145677   3.371   2.038   0.209 -0.0987  0.0023  0.3235
 8062TIP3    H245678   3.347   1.990   0.350  2.9794 -0.6003  0.7102
 8063TIP3   OH245679   4.336   5.754   5.051  0.3431  0.2398  0.1468
 8063TIP3    H145680   4.349   5.739   5.144  1.5813  1.5366  0.2179
 8063TIP3    H245681   4.253   5.711   5.031 -0.1023  0.2121  1.9006
 8064TIP3   OH245682   3.897   4.277  16.177 -0.3253 -0.1851 -0.1966
 8064TIP3    H145683   3.814   4.309  16.143 -0.7894 -1.0732  0.0590
 8064TIP3    H245684   3.954   4.353  16.178 -0.8358  0.2305 -1.2910
 8065TIP3   OH245685   4.760   4.601  12.936  1.0183  0.3501 -0.1213
 8065TIP3    H145686   4.802   4.632  12.856  0.0948 -1.0057 -1.2028
 8065TIP3    H245687   4.813   4.526  12.964  0.4857 -0.1191 -0.3470
 8066TIP3   OH245688   1.227   0.352  16.302 -0.4820 -0.4130  0.0212
 8066TIP3    H145689   1.232   0.424  16.240  0.1905 -0.3980  0.0864
 8066TIP3    H245690   1.227   0.395  16.388 -0.5600 -0.4725  0.0514
 8067TIP3   OH245691   5.223   3.486   3.779  0.6655 -0.5510 -0.4474
 8067TIP3    H145692   5.236   3.434   3.699 -0.4741 -0.4170 -0.7481
 8067TIP3    H245693   5.227   3.577   3.749  0.3483 -0.4997 -0.3443
 8068TIP3   OH245694   5.037   6.703  14.654  0.2715 -0.2562 -0.5889
 8068TIP3    H145695   5.073   6.732  14.569  0.6139 -1.9043 -1.0335
 8068TIP3    H245696   5.113   6.700  14.712  0.0612  0.7169 -0.2349
 8069TIP3   OH245697   1.428   2.411   0.205  0.7067  0.3090 -0.0369
 8069TIP3    H145698   1.378   2.413   0.286  0.1774  0.3298 -0.3574
 8069TIP3    H245699   1.362   2.398   0.136  1.0360  1.2414 -0.5517
 8070TIP3   OH245700   5.420   4.349   1.764  0.3845  0.0416 -0.1878
 8070TIP3    H145701   5.490   4.283   1.761  0.6586  0.3209  0.0424
 8070TIP3    H245702   5.443   4.405   1.838  0.1057  0.3477 -0.3324
 8071TIP3   OH245703   3.593   2.976  12.788 -0.4214  0.3697 -0.1532
 8071TIP3    H145704   3.682   2.956  12.759 -0.6349  0.2688 -0.7570
 8071TIP3    H245705   3.604   3.010  12.876  0.1996  0.1700 -0.1459
 8072TIP3   OH245706   4.634   2.821   3.397  0.0932  0.1908  0.3362
 8072TIP3    H145707   4.579   2.752   3.434  0.2616  0.8965  2.0011
 8072TIP3    H245708   4.723   2.786   3.399  0.2891  0.7092  1.9309
 8073TIP3   OH245709   4.791   1.582   5.216  1.0961 -0.3035 -0.0556
 8073TIP3    H145710   4.730   1.529   5.163 -0.8888  1.6123  0.1602
 8073TIP3    H245711   4.850   1.622   5.152  0.6032 -0.3216 -0.5285
 8074TIP3   OH245712   2.968   2.665  14.678 -0.3795 -0.5909  0.1267
 8074TIP3    H145713   3.051   2.690  14.638 -0.4343 -2.3550 -1.1722
 8074TIP3    H245714   2.992   2.596  14.740 -0.8362 -0.9049 -0.0452
 8075TIP3   OH245715   3.273   1.706  14.625  0.2477 -0.2261 -0.2391
 8075TIP3    H145716   3.350   1.657  14.595  1.0348 -0.0056  1.2879
 8075TIP3    H245717   3.198   1.656  14.592  1.0237 -0.3494 -1.9196
 8076TIP3   OH245718   2.262   1.919   1.708 -0.3891  0.1330 -0.2896
 8076TIP3    H145719   2.343   1.911   1.659 -0.7101  0.4308 -0.8752
 8076TIP3    H245720   2.198   1.867   1.658 -0.8543  0.8874 -0.4999
 8077TIP3   OH245721   0.149   2.089  16.351  0.2004  0.2364  0.4301
 8077TIP3    H145722   0.161   2.017  16.414  0.6772 -0.0220  0.0500
 8077TIP3    H245723   0.202   2.160  16.386 -0.2157  0.3899  0.7704
 8078TIP3   OH245724   1.040   5.619   4.871 -0.4797 -0.8718  0.0173
 8078TIP3    H145725   0.972   5.684   4.854  1.0308  0.2291 -2.5220
 8078TIP3    H245726   1.009   5.540   4.826  0.2892 -0.0578 -2.0782
 8079TIP3   OH245727   2.645   3.389   6.597  0.0218 -0.0001 -0.4497
 8079TIP3    H145728   2.678   3.460   6.652 -1.3936  0.9228 -0.7534
 8079TIP3    H245729   2.649   3.311   6.653 -1.4083  0.9177  1.0014
 8080TIP3   OH245730   0.054   4.028  12.916 -0.3205 -0.1544  0.1213
 8080TIP3    H145731   0.082   4.091  12.982  1.0709  0.2101 -0.7860
 8080TIP3    H245732   0.118   3.957  12.922 -0.1836 -0.1176 -0.8356
 8081TIP3   OH245733   6.580   6.336  13.983  0.6632  0.0344 -0.2650
 8081TIP3    H145734   6.610   6.254  13.944  0.6549  0.0654 -0.3359
 8081TIP3    H245735   6.527   6.308  14.058  0.0479 -0.0488 -0.7213
 8082TIP3   OH245736   4.895   1.521  13.585 -0.4583 -0.2525  0.3525
 8082TIP3    H145737   4.959   1.544  13.653  1.6920  0.1920 -1.6969
 8082TIP3    H245738   4.905   1.426  13.575 -3.4424 -1.0392  3.0678
 8083TIP3   OH245739   3.909   1.938   3.380  0.1818  0.2471  0.5352
 8083TIP3    H145740   3.905   1.883   3.459  0.3747 -0.5820 -0.0185
 8083TIP3    H245741   3.961   2.013   3.406  1.6659 -0.8107  0.7533
 8084TIP3   OH245742   4.264   6.235   1.478 -0.0906 -1.0700  0.2448
 8084TIP3    H145743   4.217   6.309   1.518 -1.2337 -0.7576 -1.5660
 8084TIP3    H245744   4.293   6.182   1.553  1.2540  1.4404  1.6449
 8085TIP3   OH245745   5.502   5.816  15.513  0.1400 -0.5004 -0.4766
 8085TIP3    H145746   5.445   5.851  15.582 -0.1320 -1.7477 -0.0414
 8085TIP3    H245747   5.526   5.729  15.544  2.0683 -0.1200 -0.8060
 8086TIP3   OH245748   0.914   6.129   5.259  0.0352  0.2276  0.0653
 8086TIP3    H145749   0.867   6.067   5.315  1.5760  0.1049  1.2982
 8086TIP3    H245750   0.877   6.215   5.282 -1.9760 -0.1488 -1.5159
 8087TIP3   OH245751   3.880   1.214  15.124 -0.5450 -0.9509 -0.5926
 8087TIP3    H145752   3.927   1.296  15.136 -0.6684 -1.1281  1.3579
 8087TIP3    H245753   3.806   1.237  15.067  0.2279 -0.0436 -1.2501
 8088TIP3   OH245754   6.444   4.743  13.947 -0.2777  0.0396  0.0888
 8088TIP3    H145755   6.416   4.692  13.871  0.1597 -0.9055  0.5316
 8088TIP3    H245756   6.403   4.828  13.936 -1.7474 -0.6859 -0.2444
 8089TIP3   OH245757   0.983   1.671   3.948 -0.3904  0.7825  0.2892
 8089TIP3    H145758   1.011   1.651   3.859  0.2908  0.9591  0.4658
 8089TIP3    H245759   1.057   1.647   4.003 -0.4169  1.6695  0.7151
 8090TIP3   OH245760   5.638   0.432  15.569  0.0097 -0.4527 -0.2313
 8090TIP3    H145761   5.662   0.494  15.501  1.1678 -1.1487 -0.4836
 8090TIP3    H245762   5.609   0.354  15.522  1.7271 -1.2904  0.0092
 8091TIP3   OH245763   6.448   3.540  15.226 -0.0785 -0.4686 -0.9138
 8091TIP3    H145764   6.433   3.598  15.301  2.8160 -0.8032  0.0778
 8091TIP3    H245765   6.489   3.596  15.160  0.6580 -0.8856 -0.8258
 8092TIP3   OH245766   0.557   1.771  10.134  0.2032 -0.1163  0.2168
 8092TIP3    H145767   0.627   1.737  10.191 -1.6093  0.8841  3.3065
 8092TIP3    H245768   0.534   1.855  10.174  0.1511  1.7555 -3.3294
 8093TIP3   OH245769   0.288   5.695  14.673 -0.4396  0.4156 -0.3852
 8093TIP3    H145770   0.200   5.694  14.710 -0.4848 -0.6013 -0.5046
 8093TIP3    H245771   0.340   5.640  14.732 -0.1937 -0.0775 -1.0471
 8094TIP3   OH245772   2.257   6.533  14.203  0.0873 -0.4275  0.1966
 8094TIP3    H145773   2.240   6.616  14.248  2.8929  0.0609  0.5268
 8094TIP3    H245774   2.263   6.556  14.111 -1.1083 -0.6575  0.0386
 8095TIP3   OH245775   2.313   6.814   4.610  0.2867 -0.2962  0.2608
 8095TIP3    H145776   2.224   6.816   4.645 -1.8146 -0.0044 -4.3345
 8095TIP3    H245777   2.342   6.905   4.611 -0.3661 -0.0782 -0.0482
 8096TIP3   OH245778   4.951   1.240  15.709  0.4489  0.5647  0.8018
 8096TIP3    H145779   4.904   1.237  15.625  0.7460 -0.1279  0.6535
 8096TIP3    H245780   4.914   1.316  15.754 -0.4544  0.3300  0.4809
 8097TIP3   OH245781   2.306   5.459  11.870 -0.3786 -0.1573  0.4618
 8097TIP3    H145782   2.259   5.388  11.914  1.2026 -2.2352 -0.9994
 8097TIP3    H245783   2.388   5.418  11.839  1.0196  2.5383  0.3101
 8098TIP3   OH245784   2.737   5.659   3.940 -0.2354  0.2087 -0.0755
 8098TIP3    H145785   2.814   5.634   3.991 -0.0761 -1.6972 -1.1428
 8098TIP3    H245786   2.691   5.576   3.925 -1.9401  1.1640 -0.3726
 8099TIP3   OH245787   2.480   3.646   2.415  0.5682 -0.4130  0.1523
 8099TIP3    H145788   2.389   3.621   2.431  0.4453 -0.8235 -1.0847
 8099TIP3    H245789   2.523   3.636   2.500  0.0513 -2.7644  0.1943
 8100TIP3   OH245790   1.048   2.234  14.825 -0.3732  0.2079 -0.0386
 8100TIP3    H145791   1.112   2.168  14.798  1.4098  0.9493  2.0431
 8100TIP3    H245792   0.996   2.189  14.892 -0.5044  0.3062 -0.0756
 8101TIP3   OH245793   1.786   2.012   3.695 -0.3306 -0.4286 -0.3964
 8101TIP3    H145794   1.868   2.053   3.667  1.4642 -1.7696  2.4428
 8101TIP3    H245795   1.741   1.992   3.613  1.5606  1.4763 -2.0446
 8102TIP3   OH245796   1.380   0.305   0.728 -0.2027 -0.7322 -0.1052
 8102TIP3    H145797   1.445   0.242   0.759 -0.5642 -0.4429  1.2680
 8102TIP3    H245798   1.339   0.340   0.807 -1.1239  0.0607 -0.8982
 8103TIP3   OH245799   4.328   0.092  15.697  0.0503 -0.6462 -0.2356
 8103TIP3    H145800   4.339   0.179  15.659  0.8050 -0.0502  1.2406
 8103TIP3    H245801   4.260   0.104  15.763  0.1870 -1.1657 -0.0019
 8104TIP3   OH245802   1.466   1.637  13.245  0.2149 -0.4559  0.2707
 8104TIP3    H145803   1.514   1.589  13.177  1.9378  1.3589  0.1352
 8104TIP3    H245804   1.490   1.728  13.231 -1.3072  0.2254  1.8434
 8105TIP3   OH245805   2.490   3.576  13.627  0.7832  0.2894  0.5014
 8105TIP3    H145806   2.403   3.589  13.589  1.7503  2.5238 -1.1354
 8105TIP3    H245807   2.489   3.628  13.707  0.9693  1.2835 -0.1308
 8106TIP3   OH245808   5.976   0.097  10.677  0.4929 -0.4074 -0.1738
 8106TIP3    H145809   6.003   0.029  10.739  2.0014  0.7732  0.4972
 8106TIP3    H245810   6.034   0.086  10.602  1.3519  0.7108  0.3205
 8107TIP3   OH245811   4.372   6.608  17.104  0.2880  0.3234 -0.1691
 8107TIP3    H145812   4.433   6.567  17.043 -0.9937  0.2661 -1.4648
 8107TIP3    H245813   4.382   6.702  17.089  0.8949  0.3653  0.4702
 8108TIP3   OH245814   4.206   6.203  12.847  0.3582 -0.1443 -0.7542
 8108TIP3    H145815   4.283   6.224  12.794  0.7457 -1.5412 -0.8012
 8108TIP3    H245816   4.230   6.230  12.935  0.9465 -0.6330 -0.7553
 8109TIP3   OH245817   3.506   6.643  15.538 -0.5033 -0.1362 -0.1142
 8109TIP3    H145818   3.593   6.684  15.543 -0.6208  0.1568 -0.4550
 8109TIP3    H245819   3.448   6.706  15.580 -0.4812 -0.5539  0.5687
 8110TIP3   OH245820   0.663   3.075   0.855 -0.1459  0.0605  0.3309
 8110TIP3    H145821   0.672   2.991   0.809 -2.8027 -0.1601  0.0892
 8110TIP3    H245822   0.616   3.055   0.935 -2.4747  1.4768 -0.5601
 8111TIP3   OH245823   3.496   3.986   4.608  0.3251 -0.2370  0.4332
 8111TIP3    H145824   3.465   4.068   4.647  0.1066 -0.6593  1.1732
 8111TIP3    H245825   3.591   3.989   4.618  0.3962  0.3085 -0.3279
 8112TIP3   OH245826   6.260   4.057   3.610 -0.3751 -0.1594 -0.0556
 8112TIP3    H145827   6.307   3.996   3.553  0.0307 -1.1787  1.3198
 8112TIP3    H245828   6.177   4.014   3.629  0.1632 -0.5974  1.4144
 8113TIP3   OH245829   6.221   3.227   4.628 -0.1632 -0.4352  0.5725
 8113TIP3    H145830   6.168   3.295   4.587  0.1276 -0.5690 -0.0388
 8113TIP3    H245831   6.179   3.212   4.713  0.0312  0.8261  0.9234
 8114TIP3   OH245832   6.461   3.106   3.107  0.4638  0.0426  0.4341
 8114TIP3    H145833   6.426   3.073   3.189  0.4408  0.3531  0.5509
 8114TIP3    H245834   6.406   3.181   3.085  0.6265  0.1152  0.2658
 8115TIP3   OH245835   2.422   1.083  15.746 -0.4228  0.0822 -0.1449
 8115TIP3    H145836   2.374   1.166  15.745  2.4067  1.8315 -0.3017
 8115TIP3    H245837   2.443   1.068  15.838 -2.9251 -1.8553  0.2490
 8116TIP3   OH245838   3.758   6.248  14.946  0.8563 -0.0918  0.0180
 8116TIP3    H145839   3.797   6.273  14.862  0.2106 -1.3890 -0.6971
 8116TIP3    H245840   3.682   6.305  14.955  0.7672 -0.1365 -0.4205
 8117TIP3   OH245841   6.461   3.090   6.332  0.0776 -0.3421  0.0071
 8117TIP3    H145842   6.452   3.134   6.417  0.3819  0.2871 -0.2898
 8117TIP3    H245843   6.409   3.142   6.272 -0.7531 -1.2095 -0.0554
 8118TIP3   OH245844   2.883   4.431   1.731 -0.1196  0.1155  0.2937
 8118TIP3    H145845   2.861   4.502   1.791 -0.3510  1.2530 -1.0793
 8118TIP3    H245846   2.970   4.403   1.758 -0.7307 -0.3111  1.9647
 8119TIP3   OH245847   4.864   0.628  11.617 -0.2841  0.2148 -0.2295
 8119TIP3    H145848   4.868   0.723  11.626 -0.7677  0.1104  1.4405
 8119TIP3    H245849   4.770   0.608  11.614 -0.1858 -0.2045 -0.6267
 8120TIP3   OH245850   0.385   4.225   3.061 -0.1400 -0.3043  0.0926
 8120TIP3    H145851   0.407   4.318   3.072  0.1744 -0.3316 -0.2660
 8120TIP3    H245852   0.292   4.225   3.038  0.1340  0.0161 -1.1001
 8121TIP3   OH245853   3.218   0.313   2.419 -0.2994  0.5948  0.4330
 8121TIP3    H145854   3.209   0.235   2.363 -0.4809  0.9637 -0.0608
 8121TIP3    H245855   3.311   0.313   2.444  0.3124  1.5871 -1.6261
 8122TIP3   OH245856   4.610   3.856   3.253 -0.6232 -0.2448  0.5558
 8122TIP3    H145857   4.672   3.853   3.180 -1.3614  0.9964 -0.1575
 8122TIP3    H245858   4.662   3.888   3.327 -0.8370  3.2281 -0.6119
 8123TIP3   OH245859   1.087   6.433  14.872  0.4052  0.4942 -0.3318
 8123TIP3    H145860   1.136   6.351  14.860  1.0531  1.1892 -3.2244
 8123TIP3    H245861   1.144   6.501  14.836 -0.3195  2.2023  1.5617
 8124TIP3   OH245862   0.862   4.985  16.212  0.1525  0.1223  0.3989
 8124TIP3    H145863   0.802   5.059  16.202  1.3406  1.0894  0.0908
 8124TIP3    H245864   0.806   4.907  16.208 -0.9860  0.9569 -0.5837
 8125TIP3   OH245865   0.587   5.616  15.668 -0.3677 -0.3305  0.1720
 8125TIP3    H145866   0.650   5.579  15.606  0.0293  0.6389 -0.0143
 8125TIP3    H245867   0.507   5.564  15.654 -0.0037 -0.7257 -0.4915
 8126TIP3   OH245868   0.727   3.610  12.991 -0.0285 -0.1268 -0.5769
 8126TIP3    H145869   0.709   3.682  12.930 -1.0173 -1.1034 -1.4864
 8126TIP3    H245870   0.703   3.531  12.943 -0.7610 -0.9486  1.0509
 8127TIP3   OH245871   3.168   6.328  12.502 -0.3365  0.0111  0.0245
 8127TIP3    H145872   3.225   6.294  12.571  1.3318  2.0640 -0.2427
 8127TIP3    H245873   3.223   6.329  12.424 -1.5295 -0.2386 -0.8478
 8128TIP3   OH245874   1.053   5.120   4.702 -0.0927  0.0473 -0.1661
 8128TIP3    H145875   1.002   5.042   4.721  0.5363 -0.0248  1.4294
 8128TIP3    H245876   1.120   5.122   4.771 -1.4720  3.2026  1.2763
 8129TIP3   OH245877   0.164   4.441   6.302  0.4022 -0.3174 -0.3109
 8129TIP3    H145878   0.223   4.488   6.244  0.0858  3.1425  1.8391
 8129TIP3    H245879   0.211   4.438   6.386 -0.6587 -1.6395  0.2725
 8130TIP3   OH245880   1.098   2.734   5.442  0.5454 -0.4690  0.4730
 8130TIP3    H145881   1.114   2.747   5.349  0.7666 -0.6431  0.4841
 8130TIP3    H245882   1.103   2.639   5.453  1.9932 -0.3726  0.9120
 8131TIP3   OH245883   6.372   0.678  16.561 -0.1484 -0.3226 -0.2809
 8131TIP3    H145884   6.380   0.722  16.645  0.1820 -1.1220  0.1178
 8131TIP3    H245885   6.447   0.619  16.557  1.3003  1.4937 -2.2543
 8132TIP3   OH245886   3.432   5.314   2.258 -0.4515  0.0601  0.3510
 8132TIP3    H145887   3.391   5.251   2.318 -1.6251  1.2944  0.9002
 8132TIP3    H245888   3.443   5.393   2.310 -0.2195  0.7290 -0.6826
 8133TIP3   OH245889   1.933   5.904  14.928  0.0261 -0.3199  0.3156
 8133TIP3    H145890   1.922   5.992  14.892  3.4085  0.1015  0.0591
 8133TIP3    H245891   1.951   5.919  15.021 -0.1819 -0.8076  0.4360
 8134TIP3   OH245892   5.381   4.061   2.407  0.2162 -0.3324 -0.0751
 8134TIP3    H145893   5.311   4.114   2.444 -0.6772 -1.1676 -0.5136
 8134TIP3    H245894   5.340   4.014   2.335  1.7566  0.7133 -1.6930
 8135TIP3   OH245895   3.219   3.840   1.584  0.4884 -0.0043 -0.5910
 8135TIP3    H145896   3.281   3.799   1.524 -2.1691 -0.2205 -3.4900
 8135TIP3    H245897   3.248   3.931   1.591  2.2070 -0.5598 -0.2118
 8136TIP3   OH245898   1.980   2.819  17.041 -0.3461 -0.1398  0.3227
 8136TIP3    H145899   2.024   2.756  16.984  1.3232 -0.1149  1.5333
 8136TIP3    H245900   2.015   2.904  17.015 -0.8640  0.0588  0.2500
 8137TIP3   OH245901   4.352   3.354   0.748  0.1446  0.3165 -0.0758
 8137TIP3    H145902   4.433   3.392   0.782  1.2981 -0.7685 -1.4406
 8137TIP3    H245903   4.306   3.321   0.825  1.5297 -0.0090  0.6385
 8138TIP3   OH245904   5.008   2.703   6.020  0.3638 -0.0181 -0.3720
 8138TIP3    H145905   4.954   2.759   6.075 -0.0650 -0.4426 -0.3520
 8138TIP3    H245906   5.002   2.741   5.932  0.3233  0.1394 -0.3006
 8139TIP3   OH245907   3.007   0.149   3.677  0.0486  0.1604 -0.4276
 8139TIP3    H145908   2.984   0.214   3.743  1.4607 -0.4502  0.7188
 8139TIP3    H245909   3.031   0.071   3.726 -0.9756 -1.0571 -1.7593
 8140TIP3   OH245910   5.506   6.081  12.465 -0.2984  0.0892 -0.4549
 8140TIP3    H145911   5.576   6.068  12.528 -0.9634 -0.6694  0.1461
 8140TIP3    H245912   5.429   6.042  12.506 -0.6639 -0.7830 -1.8919
 8141TIP3   OH245913   1.720   2.195   0.712  0.2758 -0.5986  0.1528
 8141TIP3    H145914   1.727   2.151   0.796  3.0453 -0.9192 -0.1451
 8141TIP3    H245915   1.771   2.141   0.652  0.3318  0.8346 -1.1746
 8142TIP3   OH245916   0.683   3.316  11.441  0.2731  0.5258  0.2452
 8142TIP3    H145917   0.693   3.410  11.426  0.3020  0.3855 -0.7097
 8142TIP3    H245918   0.709   3.303  11.532  1.1995  1.3046  0.1127
 8143TIP3   OH245919   2.094   5.342  14.500  0.1350  0.1068 -0.1595
 8143TIP3    H145920   2.026   5.329  14.434  0.4565 -0.2229 -0.4344
 8143TIP3    H245921   2.110   5.437  14.500 -2.4756  0.6672  2.1081
 8144TIP3   OH245922   2.786   5.517  11.884 -0.1401  0.0357  0.2999
 8144TIP3    H145923   2.744   5.571  11.951 -0.9015 -1.2336  0.8877
 8144TIP3    H245924   2.714   5.482  11.833  0.3313 -0.4601 -0.0348
 8145TIP3   OH245925   5.985   6.709  13.245 -0.2929  0.0211 -0.2924
 8145TIP3    H145926   5.974   6.744  13.157 -0.9902 -2.0765 -1.0885
 8145TIP3    H245927   5.901   6.667  13.265  0.1871 -0.3716  1.0023
 8146TIP3   OH245928   2.353   2.025  14.309 -0.0773  0.7784  0.1937
 8146TIP3    H145929   2.283   2.044  14.372  0.0615  1.3481  0.1800
 8146TIP3    H245930   2.306   1.992  14.232 -0.1386 -1.7885  1.2315
 8147TIP3   OH245931   0.526   0.969   5.725 -0.4116  0.2675 -0.4435
 8147TIP3    H145932   0.513   0.916   5.647 -0.7861 -0.3256  0.0236
 8147TIP3    H245933   0.448   0.955   5.778 -0.7088  1.6038 -0.4942
 8148TIP3   OH245934   3.755   3.067  13.260 -0.2903 -0.4993 -0.3730
 8148TIP3    H145935   3.823   3.001  13.277  0.4516 -0.3127 -2.3833
 8148TIP3    H245936   3.748   3.070  13.165 -2.4460  0.2164 -0.2338
 8149TIP3   OH245937   3.818   2.609  13.328  0.4197 -0.7338  0.1297
 8149TIP3    H145938   3.823   2.540  13.261  0.9412 -1.9799  1.4164
 8149TIP3    H245939   3.738   2.658  13.306 -1.1237 -3.0101  0.3508
 8150TIP3   OH245940   0.283   3.640  14.528 -0.3171  0.0056 -0.0705
 8150TIP3    H145941   0.367   3.602  14.501 -0.9852 -1.8087  0.2198
 8150TIP3    H245942   0.285   3.636  14.624 -0.2830  1.0461 -0.0158
 8151TIP3   OH245943   3.740   3.075  11.370  0.3571 -0.0601  0.3677
 8151TIP3    H145944   3.706   3.163  11.387 -2.3610 -0.9473  0.0413
 8151TIP3    H245945   3.778   3.081  11.283 -0.4082  0.6487  0.0668
 8152TIP3   OH245946   4.822   3.058  10.959 -0.1713 -0.3047 -0.0762
 8152TIP3    H145947   4.883   3.131  10.966  2.2513 -2.0722 -1.3296
 8152TIP3    H245948   4.848   2.998  11.030 -1.3374 -0.5052  0.1985
 8153TIP3   OH245949   2.222   0.449  11.510 -0.3610  0.0816 -0.6230
 8153TIP3    H145950   2.246   0.387  11.580  1.3730  2.3212  0.9028
 8153TIP3    H245951   2.282   0.428  11.438  2.4329  1.7812  1.0064
 8154TIP3   OH245952   2.813   4.074  14.636 -0.0785  0.0156 -0.0074
 8154TIP3    H145953   2.813   4.118  14.722  0.4265 -0.4317  0.2275
 8154TIP3    H245954   2.838   4.142  14.574  1.4916 -0.1048  0.4547
 8155TIP3   OH245955   5.957   4.774   1.601 -0.1956 -0.2223 -0.0372
 8155TIP3    H145956   5.908   4.856   1.612 -0.5019 -0.6717  2.4615
 8155TIP3    H245957   5.898   4.718   1.551 -0.8073  0.4134 -0.0458
 8156TIP3   OH245958   1.247   0.010   2.392 -0.4983  0.2266  0.5053
 8156TIP3    H145959   1.312  -0.026   2.453  0.4377 -0.7964 -1.0253
 8156TIP3    H245960   1.183  -0.060   2.382 -0.4522  0.2480  0.0439
 8157TIP3   OH245961   3.421   6.080   4.285  0.0695 -0.2044  0.0668
 8157TIP3    H145962   3.399   6.162   4.329  1.5224 -0.7751  2.0318
 8157TIP3    H245963   3.380   6.087   4.199 -2.6064  1.1793  1.3196
 8158TIP3   OH245964   2.100   0.238   4.722 -0.2054 -0.1337  0.2377
 8158TIP3    H145965   2.039   0.210   4.655  0.3837  1.6002 -1.1209
 8158TIP3    H245966   2.047   0.292   4.781 -0.2198  0.5595 -0.3858
 8159TIP3   OH245967   1.696   4.383   3.348 -0.1124 -0.2717 -0.4275
 8159TIP3    H145968   1.645   4.391   3.429  1.6629  3.0408  0.5966
 8159TIP3    H245969   1.636   4.412   3.279 -0.9727 -0.9049  0.0424
 8160TIP3   OH245970   6.008   1.915  14.000  0.0118 -0.4289  0.0515
 8160TIP3    H145971   6.068   1.958  13.940 -0.6326  0.9821  0.3903
 8160TIP3    H245972   6.064   1.858  14.054  1.2735  1.7775  1.1900
 8161TIP3   OH245973   0.965   2.527   5.002 -0.0086  0.1618 -0.1345
 8161TIP3    H145974   0.889   2.491   5.047  0.5198  1.0905  1.5789
 8161TIP3    H245975   1.019   2.451   4.982 -0.2466 -0.2813  0.8470
 8162TIP3   OH245976   6.738   3.738  11.499  0.1233  0.2925  0.4295
 8162TIP3    H145977   6.658   3.786  11.478 -0.7468 -0.5558  1.6252
 8162TIP3    H245978   6.797   3.804  11.536 -0.2694  0.8070  0.1448
 8163TIP3   OH245979   2.345   6.045   1.194  0.3140 -0.1211  0.1949
 8163TIP3    H145980   2.373   6.137   1.194  0.7615 -0.2501 -0.8401
 8163TIP3    H245981   2.396   6.005   1.265 -1.5444  0.8842  2.2033
 8164TIP3   OH245982   5.561   2.133  12.109  0.3841  0.2326 -0.2039
 8164TIP3    H145983   5.595   2.137  12.020  1.1805  0.6030  0.1076
 8164TIP3    H245984   5.497   2.062  12.107 -0.1950  0.7593 -1.2572
 8165TIP3   OH245985   4.919   6.381  12.654 -0.0916  0.2661 -0.4657
 8165TIP3    H145986   4.915   6.475  12.671  2.1668  0.3752 -0.2383
 8165TIP3    H245987   4.938   6.375  12.560  0.1615  0.0514 -0.4010
 8166TIP3   OH245988   4.001   0.683   3.810 -0.3224 -0.0576  0.2891
 8166TIP3    H145989   4.073   0.729   3.767 -1.4182  0.0634 -1.4794
 8166TIP3    H245990   3.938   0.666   3.741 -3.3447  2.3200  2.1891
 8167TIP3   OH245991   1.355   5.332  10.555  0.1469 -0.1688 -0.1517
 8167TIP3    H145992   1.262   5.309  10.553 -0.0953  0.2074  2.9189
 8167TIP3    H245993   1.358   5.419  10.513 -1.2646  0.7299  1.4427
 8168TIP3   OH245994   4.411   3.880  11.130  0.6905 -0.7572  0.6573
 8168TIP3    H145995   4.420   3.872  11.225  0.8355 -0.7572  0.6442
 8168TIP3    H245996   4.420   3.974  11.112  1.7312 -0.8652  0.5396
 8169TIP3   OH245997   0.504   4.859  14.470 -0.1361  0.0125 -0.3379
 8169TIP3    H145998   0.499   4.918  14.395 -0.2908 -0.1785 -0.4771
 8169TIP3    H245999   0.592   4.823  14.467  0.9008  2.1747  1.2116
 8170TIP3   OH246000   3.902   1.820  14.370 -0.4333 -0.3533  0.4786
 8170TIP3    H146001   3.908   1.906  14.411 -0.3076 -0.7019  1.1933
 8170TIP3    H246002   3.876   1.839  14.280  0.6274  0.5003  0.3243
 8171TIP3   OH246003   2.793   6.494  15.929  0.2864  0.1419 -0.0529
 8171TIP3    H146004   2.768   6.408  15.895 -0.8396  0.8547 -1.1380
 8171TIP3    H246005   2.765   6.556  15.861  2.3583  1.2767  0.0552
 8172TIP3   OH246006   2.340   3.992  15.904 -0.2396 -0.3010  0.0369
 8172TIP3    H146007   2.350   4.010  15.811 -2.0302  0.2611 -0.0896
 8172TIP3    H246008   2.274   4.054  15.934 -0.7732 -1.4341  1.3493
 8173TIP3   OH246009   4.054   2.074  15.288  0.0425 -0.2931  0.2628
 8173TIP3    H146010   3.996   2.149  15.269  1.5419  0.6673 -0.7883
 8173TIP3    H246011   3.994   2.001  15.303 -1.4610  0.8894  0.3300
 8174TIP3   OH246012   1.407   5.674   4.722 -0.4131  0.4024 -0.1192
 8174TIP3    H146013   1.402   5.714   4.635  1.5044  1.8875  0.3897
 8174TIP3    H246014   1.492   5.630   4.723 -1.0319 -0.8385  0.5344
 8175TIP3   OH246015   3.687   1.960   3.238  0.2468  0.2814 -0.2290
 8175TIP3    H146016   3.772   1.955   3.281  0.1081 -0.0534  0.0111
 8175TIP3    H246017   3.697   2.028   3.171 -0.2133  2.6214  1.9098
 8176TIP3   OH246018   1.433   4.201   2.971 -0.4213 -0.0433 -0.0400
 8176TIP3    H146019   1.510   4.171   2.922 -0.4964 -1.0450  0.4444
 8176TIP3    H246020   1.371   4.128   2.965 -1.0535  0.4671  0.2013
 8177TIP3   OH246021   1.538   5.896  14.722 -0.3913  0.2786  0.1388
 8177TIP3    H146022   1.491   5.944  14.791 -0.2293 -0.3038  0.6639
 8177TIP3    H246023   1.495   5.811  14.719  0.8958 -0.4340  0.9473
 8178TIP3   OH246024   0.610   0.626   2.256  0.1734  0.0697 -0.8144
 8178TIP3    H146025   0.684   0.611   2.315 -0.9241  1.5567  1.0437
 8178TIP3    H246026   0.646   0.679   2.185  0.9450  0.6478 -0.0133
 8179TIP3   OH246027   1.843   1.393   0.529 -0.3714  0.0190 -0.0889
 8179TIP3    H146028   1.820   1.474   0.575  0.4748  0.4065 -0.3204
 8179TIP3    H246029   1.850   1.419   0.437  0.3039 -0.2102 -0.1131
 8180TIP3   OH246030   1.290   3.351  14.120  0.1355  0.6300  0.1676
 8180TIP3    H146031   1.383   3.371  14.124  0.0804  1.0138 -0.4441
 8180TIP3    H246032   1.262   3.382  14.034 -0.3384 -0.4021 -0.0670
 8181TIP3   OH246033   3.367   1.746   4.355  0.0654  0.1017 -0.4364
 8181TIP3    H146034   3.316   1.670   4.325  0.2007 -0.2616  0.2362
 8181TIP3    H246035   3.301   1.808   4.386 -0.0342  0.1761 -0.7875
 8182TIP3   OH246036   5.244   2.835   0.184  0.3208  0.2668 -0.1485
 8182TIP3    H146037   5.275   2.910   0.234 -1.7421  0.4070  1.0696
 8182TIP3    H246038   5.190   2.873   0.115  1.2994 -0.0203 -1.0844
 8183TIP3   OH246039   0.034   1.204  13.545  0.1056  0.2322 -0.0169
 8183TIP3    H146040   0.126   1.183  13.531 -0.3029 -1.3772 -0.4721
 8183TIP3    H246041   0.021   1.195  13.639  1.1195  3.7229  0.6037
 8184TIP3   OH246042   2.948   1.301   1.899 -0.2810 -0.4124  0.1774
 8184TIP3    H146043   2.972   1.352   1.976  0.6638 -0.3213 -0.1553
 8184TIP3    H246044   3.032   1.286   1.853 -0.7435 -0.9611 -0.5178
 8185TIP3   OH246045   6.671   2.162  11.034 -0.1600 -0.1050  0.0041
 8185TIP3    H146046   6.631   2.183  11.118  3.2979 -0.4449  1.8971
 8185TIP3    H246047   6.684   2.067  11.037 -0.0136 -0.1261 -0.9550
 8186TIP3   OH246048   1.464   4.857   2.489  0.4227  0.5312 -0.2143
 8186TIP3    H146049   1.404   4.841   2.417  0.6059 -0.8741 -0.0767
 8186TIP3    H246050   1.414   4.914   2.549 -2.0617 -2.8850  1.3568
 8187TIP3   OH246051   5.185   4.880   3.861  0.1415 -0.2554 -0.3159
 8187TIP3    H146052   5.174   4.812   3.928  0.1079 -0.2584 -0.3246
 8187TIP3    H246053   5.121   4.947   3.885  0.0090 -0.3361 -0.4468
 8188TIP3   OH246054   3.978   0.814   4.732 -0.1067  0.2481  0.3851
 8188TIP3    H146055   4.016   0.878   4.671 -0.4054  0.2576  0.2064
 8188TIP3    H246056   4.054   0.774   4.774  0.1818 -0.6802 -0.9317
 8189TIP3   OH246057   0.915   2.353  13.243  0.3801  0.0003  0.0664
 8189TIP3    H146058   0.862   2.274  13.256 -2.0906  1.0684 -2.3685
 8189TIP3    H246059   0.981   2.327  13.179 -0.6267 -0.0696 -0.9762
 8190TIP3   OH246060   5.555   3.103   2.163 -0.5677  0.0763  0.2525
 8190TIP3    H146061   5.590   3.035   2.106 -0.2265  0.1785  0.3372
 8190TIP3    H246062   5.477   3.064   2.203 -0.9562  0.0887 -0.4684
 8191TIP3   OH246063   0.520   2.688  16.024  0.0176 -0.4602 -0.4317
 8191TIP3    H146064   0.496   2.624  15.957 -1.5456 -1.1131  0.6828
 8191TIP3    H246065   0.539   2.636  16.101 -0.8856  0.3735  0.3864
 8192TIP3   OH246066   5.952   4.959   3.092  0.2557 -0.2901 -0.5426
 8192TIP3    H146067   5.860   4.938   3.107  1.0108 -2.3829  1.8321
 8192TIP3    H246068   5.964   4.944   2.998 -1.3586 -2.1514 -0.5243
 8193TIP3   OH246069   1.002   3.555   1.584 -0.0792  0.1633 -0.1813
 8193TIP3    H146070   1.010   3.469   1.544  0.6234  0.0405  0.1967
 8193TIP3    H246071   1.077   3.605   1.550  0.0178  0.3380  0.2707
 8194TIP3   OH246072   3.927   1.470  11.498  0.6612 -0.1424 -0.7118
 8194TIP3    H146073   3.880   1.480  11.415  0.8830  0.6378 -0.7492
 8194TIP3    H246074   3.973   1.387  11.490  0.8603  0.0370 -1.4646
 8195TIP3   OH246075   5.609   4.104  15.527 -0.2629  0.2150 -0.0169
 8195TIP3    H146076   5.631   4.096  15.434 -1.4494 -0.2135 -0.2749
 8195TIP3    H246077   5.648   4.027  15.568  1.7737  1.2718  0.1744
 8196TIP3   OH246078   0.534   4.537  14.237 -0.0434 -0.2966 -0.4606
 8196TIP3    H146079   0.494   4.498  14.159 -1.7868  1.2663 -0.4140
 8196TIP3    H246080   0.528   4.631  14.223 -1.8484  0.0890  2.1792
 8197TIP3   OH246081   5.288   2.273   6.125  0.3675 -0.0144 -0.4565
 8197TIP3    H146082   5.307   2.350   6.179 -0.7987 -0.7433  1.0670
 8197TIP3    H246083   5.215   2.301   6.069  0.4290  0.2168 -0.4228
 8198TIP3   OH246084   5.469   3.038  12.020 -0.1148 -0.5603 -0.0209
 8198TIP3    H146085   5.559   3.006  12.030 -0.3020 -1.4883 -1.1153
 8198TIP3    H246086   5.425   3.013  12.102  1.3411  2.6654  1.9535
 8199TIP3   OH246087   5.121   5.400   5.844  0.4960  0.4447 -0.2959
 8199TIP3    H146088   5.083   5.483   5.873  2.5670  1.0485  0.9100
 8199TIP3    H246089   5.100   5.338   5.914  1.0256  0.5876 -0.0030
 8200TIP3   OH246090   1.428   1.899  11.874 -0.2766 -0.5810 -0.4981
 8200TIP3    H146091   1.337   1.910  11.903 -0.7207 -1.4366 -1.4874
 8200TIP3    H246092   1.435   1.954  11.796  0.9388  1.7917  1.1557
 8201TIP3   OH246093   4.143   4.832  11.019  0.0391 -0.9521 -0.9910
 8201TIP3    H146094   4.187   4.829  11.104 -1.8137 -1.4221 -0.0095
 8201TIP3    H246095   4.152   4.744  10.984 -0.7422 -1.2533 -0.4506
 8202TIP3   OH246096   0.923   5.320  15.961  0.5007  0.4150  0.3188
 8202TIP3    H146097   1.003   5.274  15.937 -0.2594 -1.7969  1.7942
 8202TIP3    H246098   0.945   5.366  16.042  0.4512  0.3706  0.3562
 8203TIP3   OH246099   3.450   2.067  12.011 -0.3928 -0.5263  0.1437
 8203TIP3    H146100   3.361   2.074  11.977  0.0678  0.4554 -0.9188
 8203TIP3    H246101   3.442   2.086  12.104 -1.2442 -0.0952 -0.0122
 8204TIP3   OH246102   0.996   6.649  12.859  0.0107 -0.5094 -0.1299
 8204TIP3    H146103   1.041   6.700  12.792  0.9197  0.8705  1.4588
 8204TIP3    H246104   1.058   6.581  12.883  0.0441 -0.4493 -0.0477
 8205TIP3   OH246105   1.185   2.060   5.398 -0.2409 -0.2704 -0.0354
 8205TIP3    H146106   1.166   2.008   5.320 -1.3911  1.0816 -0.7056
 8205TIP3    H246107   1.099   2.074   5.439  0.4219 -1.6606  1.9715
 8206TIP3   OH246108   1.672   0.087   0.065  0.3484 -0.1696  0.1603
 8206TIP3    H146109   1.727   0.067   0.141  0.7999  0.6386  0.0618
 8206TIP3    H246110   1.689   0.179   0.047  0.2859 -0.3581 -0.9543
 8207TIP3   OH246111   1.617   0.233  11.723  0.8188  0.3662  0.0459
 8207TIP3    H146112   1.650   0.271  11.642  1.6269  1.2904  0.7732
 8207TIP3    H246113   1.635   0.139  11.715  0.8154  0.4411 -0.8741
 8208TIP3   OH246114   3.168   2.919   6.050 -0.0031  0.1502  0.5543
 8208TIP3    H146115   3.184   3.002   6.005  1.8599 -0.7511 -0.5706
 8208TIP3    H246116   3.194   2.852   5.987  0.3230 -1.2406  2.0965
 8209TIP3   OH246117   5.042   5.989   3.029  0.1502 -0.2283 -0.2162
 8209TIP3    H146118   5.089   6.011   3.110  0.9308 -1.1270 -0.4035
 8209TIP3    H246119   5.109   5.954   2.971 -0.3083  0.8519 -1.4546
 8210TIP3   OH246120   0.096   3.628  11.719  0.2523  0.0710 -0.3572
 8210TIP3    H146121   0.079   3.675  11.637  0.9722  0.5237 -0.2567
 8210TIP3    H246122   0.101   3.697  11.785 -2.1650 -0.4065  0.4297
 8211TIP3   OH246123   5.684   0.404   2.248  0.3570  0.4005 -0.0862
 8211TIP3    H146124   5.614   0.394   2.183 -0.4779  2.3873  0.4004
 8211TIP3    H246125   5.713   0.495   2.238 -0.5912  1.1795  2.9942
 8212TIP3   OH246126   5.540   0.025  14.619  0.2871  0.6386 -0.3831
 8212TIP3    H146127   5.632   0.037  14.643  0.0752  0.3836  0.5995
 8212TIP3    H246128   5.503  -0.025  14.692 -0.1780 -0.9711 -1.6628
 8213TIP3   OH246129   0.272   1.887  14.654 -0.1046  0.3998 -0.3589
 8213TIP3    H146130   0.344   1.842  14.612 -1.3353 -1.4518 -0.6046
 8213TIP3    H246131   0.193   1.840  14.625 -1.4352  2.4017 -0.2095
 8214TIP3   OH246132   0.749   4.270  16.101  0.4392 -0.5611 -0.3463
 8214TIP3    H146133   0.766   4.299  16.191 -0.5538 -2.4220  0.5159
 8214TIP3    H246134   0.657   4.292  16.086  0.7453  0.2360 -1.1414
 8215TIP3   OH246135   2.872   3.125   4.120 -0.5997 -0.4864 -0.1046
 8215TIP3    H146136   2.871   3.221   4.111 -1.1009 -0.5337 -0.6392
 8215TIP3    H246137   2.912   3.110   4.205 -2.0404  0.2696  0.7574
 8216TIP3   OH246138   4.659   0.222  11.294 -0.4330 -0.3816  0.0582
 8216TIP3    H146139   4.593   0.254  11.356 -0.0248  0.6435 -0.0073
 8216TIP3    H246140   4.706   0.154  11.342 -2.2179 -1.9163 -0.2694
 8217TIP3   OH246141   5.040   5.087   0.593  0.0039 -0.6602 -0.3004
 8217TIP3    H146142   4.990   5.133   0.661  2.5618  0.8249  0.7058
 8217TIP3    H246143   5.049   4.998   0.627  1.3487  0.0899  1.4990
 8218TIP3   OH246144   2.936   3.510   2.981  0.0610 -0.0187  0.4250
 8218TIP3    H146145   2.939   3.506   3.077  0.6547 -2.4157  0.3814
 8218TIP3    H246146   2.927   3.419   2.954  1.1442  0.4761 -1.8468
 8219TIP3   OH246147   6.174   5.293  10.889 -0.5732 -0.5846 -0.2968
 8219TIP3    H146148   6.235   5.308  10.817  0.5869 -0.9737  0.5759
 8219TIP3    H246149   6.188   5.366  10.948 -1.0269 -0.6263 -0.1341
 8220TIP3   OH246150   3.078   3.817   3.662 -0.0348  0.3561  0.5896
 8220TIP3    H146151   3.151   3.756   3.677  0.2308 -0.7998 -3.9331
 8220TIP3    H246152   3.000   3.764   3.676  0.1650 -0.2664 -0.4989
 8221TIP3   OH246153   5.823   6.400  16.599 -0.5967  0.3050  0.0942
 8221TIP3    H146154   5.866   6.321  16.630  0.4970  0.6067 -0.6020
 8221TIP3    H246155   5.785   6.376  16.515 -0.8346  0.3342  0.1942
 8222TIP3   OH246156   3.271   0.947  14.456  0.7159  0.6855  0.0340
 8222TIP3    H146157   3.295   0.870  14.508  1.5103 -0.2078 -1.5885
 8222TIP3    H246158   3.180   0.964  14.481  0.9918  0.1571  1.5308
 8223TIP3   OH246159   1.572   4.439   3.996 -0.6078  0.1193 -0.2441
 8223TIP3    H146160   1.658   4.445   3.955  0.3172  0.2731  1.5894
 8223TIP3    H246161   1.534   4.359   3.961  0.4092 -0.1117 -0.8573
 8224TIP3   OH246162   0.334   2.754  10.910 -0.5280 -0.1046 -0.3698
 8224TIP3    H146163   0.241   2.770  10.929 -0.0911  1.3285  0.7645
 8224TIP3    H246164   0.334   2.711  10.825 -2.2570 -0.6234 -0.1519
 8225TIP3   OH246165   1.236   1.756  14.198  0.8598  0.0989 -0.6428
 8225TIP3    H146166   1.297   1.721  14.133  1.9034  0.2715  0.2113
 8225TIP3    H246167   1.263   1.847  14.210 -0.9203  0.8219 -1.7871
 8226TIP3   OH246168   6.266   5.617  10.378 -0.0337  0.1025  0.0871
 8226TIP3    H146169   6.198   5.555  10.405 -0.3296 -0.3059 -1.5109
 8226TIP3    H246170   6.274   5.676  10.453 -0.5440 -1.1684  1.2107
 8227TIP3   OH246171   4.690   5.169   1.621 -0.5664  0.0126  0.0842
 8227TIP3    H146172   4.702   5.089   1.569 -0.8829 -0.6925  1.0675
 8227TIP3    H246173   4.664   5.137   1.707 -0.0241  1.1679  0.6831
 8228TIP3   OH246174   6.217   3.678   0.868 -0.3336 -0.6502  0.2603
 8228TIP3    H146175   6.270   3.662   0.946  1.3243  1.9193 -0.1963
 8228TIP3    H246176   6.148   3.738   0.897 -0.4847 -0.7053  0.0176
 8229TIP3   OH246177   6.330   5.804  11.582  0.6139  0.1416  0.1214
 8229TIP3    H146178   6.242   5.794  11.544 -0.4589  2.5467  1.7523
 8229TIP3    H246179   6.363   5.714  11.589 -2.8380 -1.1653  1.9813
 8230TIP3   OH246180   1.196   0.395   3.703  0.0432  0.2901  0.2587
 8230TIP3    H146181   1.233   0.312   3.674 -0.4087  0.9404 -2.4234
 8230TIP3    H246182   1.270   0.440   3.745  0.6208 -0.9287  0.6016
 8231TIP3   OH246183   0.536   5.853  15.477  0.3650  0.6052  0.1390
 8231TIP3    H146184   0.499   5.765  15.471  1.4398  0.1885 -0.7197
 8231TIP3    H246185   0.622   5.841  15.518  0.5333  1.2430 -0.0076
 8232TIP3   OH246186   3.058   5.408  12.953 -0.0286  0.1296  0.1560
 8232TIP3    H146187   3.082   5.318  12.931 -0.3777  0.1102 -0.1609
 8232TIP3    H246188   3.028   5.445  12.870 -1.4808  0.0239  0.6169
 8233TIP3   OH246189   5.875   4.818  14.573  0.5605 -0.0229 -0.3914
 8233TIP3    H146190   5.846   4.898  14.529  1.6903  2.0577  2.3328
 8233TIP3    H246191   5.969   4.817  14.561  0.7129 -0.1649  0.7342
 8234TIP3   OH246192   4.531   6.832  14.384  0.5864  0.1432 -0.4368
 8234TIP3    H146193   4.624   6.841  14.402  1.2121 -2.7958 -1.5390
 8234TIP3    H246194   4.527   6.811  14.290 -1.0724 -0.7204 -0.2111
 8235TIP3   OH246195   4.416   5.728  16.174  0.5469  0.4926 -0.0276
 8235TIP3    H146196   4.511   5.715  16.171  0.8639  2.3428  0.9374
 8235TIP3    H246197   4.400   5.777  16.255 -1.0029  1.8801 -1.1020
 8236TIP3   OH246198   0.971   3.740  10.310  0.4137 -0.4654 -0.1312
 8236TIP3    H146199   0.903   3.805  10.293 -0.4491 -1.2256  0.3151
 8236TIP3    H246200   0.923   3.658  10.322  1.2575 -0.6903  2.0185
 8237TIP3   OH246201   2.627   3.880  13.461 -0.0021 -0.0682  0.4334
 8237TIP3    H146202   2.701   3.865  13.402 -0.9750  0.1958 -0.8673
 8237TIP3    H246203   2.646   3.822  13.536 -0.1758 -2.6642 -1.3860
 8238TIP3   OH246204   4.969   4.714  10.213  0.2423 -0.1325  0.3226
 8238TIP3    H146205   4.904   4.665  10.262  0.2281 -1.3704 -0.8794
 8238TIP3    H246206   4.922   4.748  10.137  0.7681 -0.1977 -0.0391
 8239TIP3   OH246207   4.478   4.993   0.201  0.3606  0.0664 -0.3367
 8239TIP3    H146208   4.421   5.069   0.194  2.7335  1.8714 -1.4605
 8239TIP3    H246209   4.501   4.988   0.293  0.8761  1.2729 -0.3892
 8240TIP3   OH246210   2.309   1.308  12.872  0.6476  0.0986  0.2239
 8240TIP3    H146211   2.402   1.329  12.875  0.3690  1.3525  2.7139
 8240TIP3    H246212   2.295   1.250  12.947 -0.5406 -0.3450 -0.3121
 8241TIP3   OH246213   2.663   1.757   4.864 -0.1501  0.0123  0.1965
 8241TIP3    H146214   2.645   1.845   4.898  0.6065 -0.4002  1.7802
 8241TIP3    H246215   2.723   1.719   4.929 -1.1618 -1.9973  0.0175
 8242TIP3   OH246216   3.289   3.975  16.461 -0.0106 -0.2976  0.1106
 8242TIP3    H146217   3.367   3.931  16.428 -0.3119 -0.6599 -0.1232
 8242TIP3    H246218   3.322   4.042  16.521  0.3832 -2.8991  3.0582
 8243TIP3   OH246219   1.545   0.637   3.287 -0.2290  0.1599  0.7131
 8243TIP3    H146220   1.607   0.654   3.358  0.8290  0.5598 -0.2773
 8243TIP3    H246221   1.467   0.688   3.310 -1.0539 -1.9757  3.0381
 8244TIP3   OH246222   6.206   6.828  16.661 -0.0177 -0.1023  0.2039
 8244TIP3    H146223   6.158   6.835  16.579 -0.5965  3.1506  0.7154
 8244TIP3    H246224   6.163   6.756  16.708 -2.1051  0.4124 -0.8123
 8245TIP3   OH246225   1.751   3.975   5.042 -0.0839 -0.4923 -0.0387
 8245TIP3    H146226   1.833   4.022   5.027  1.0601 -2.3875  0.0078
 8245TIP3    H246227   1.695   4.001   4.969  0.3844  1.1193  0.1297
 8246TIP3   OH246228   3.143   2.495  14.488  0.2111 -0.5804  0.1473
 8246TIP3    H146229   3.084   2.568  14.468  1.9716  0.8549 -0.0120
 8246TIP3    H246230   3.084   2.425  14.518 -1.6843  0.3384 -1.1561
 8247TIP3   OH246231   6.438   3.823  16.334 -0.1585 -0.3425 -0.6425
 8247TIP3    H146232   6.347   3.823  16.364  0.0497 -0.5402  0.0100
 8247TIP3    H246233   6.445   3.748  16.275 -0.3596 -0.4675 -0.5054
 8248TIP3   OH246234   5.403   1.841   0.099  0.1604 -0.3857  0.4446
 8248TIP3    H146235   5.415   1.913   0.161 -0.9308 -0.4299  0.7317
 8248TIP3    H246236   5.352   1.879   0.027  0.3777 -0.6433  0.1491
 8249TIP3   OH246237   5.607   4.176   6.274 -0.5449 -0.1433  0.1455
 8249TIP3    H146238   5.630   4.088   6.304  0.4835  0.1244  0.1956
 8249TIP3    H246239   5.624   4.232   6.350  2.1293  0.5476 -0.8446
 8250TIP3   OH246240   6.433   5.678   3.563  0.6385 -0.0815  0.1568
 8250TIP3    H146241   6.483   5.629   3.498  0.2394  1.3915 -1.3366
 8250TIP3    H246242   6.488   5.754   3.584 -1.0483  1.8187 -1.8736
 8251TIP3   OH246243   4.363   4.141   0.359 -0.3704 -0.2025 -0.3455
 8251TIP3    H146244   4.326   4.223   0.394  1.2878 -0.2697  1.7751
 8251TIP3    H246245   4.292   4.077   0.368 -0.5639  0.2069  1.3784
 8252TIP3   OH246246   0.027   1.365   2.749 -0.0567  0.0777  0.3678
 8252TIP3    H146247   0.094   1.297   2.759  0.1783  0.4880  1.9108
 8252TIP3    H246248  -0.047   1.319   2.710  0.2886 -0.9654  0.8910
 8253TIP3   OH246249   0.542   3.207  12.655 -0.5481 -0.3522  0.1587
 8253TIP3    H146250   0.475   3.187  12.589  3.6168 -2.0560 -4.0632
 8253TIP3    H246251   0.550   3.127  12.706  0.1318 -1.2259 -1.2545
 8254TIP3   OH246252   3.188   1.285   3.166  0.2553 -0.2571  0.1403
 8254TIP3    H146253   3.167   1.325   3.082 -0.4881  1.5327  1.1133
 8254TIP3    H246254   3.143   1.201   3.165 -1.1548  0.4695 -0.6229
 8255TIP3   OH246255   4.295   5.850   0.104 -0.0601 -0.0617  0.2499
 8255TIP3    H146256   4.299   5.936   0.145  0.0189 -0.6077  1.4429
 8255TIP3    H246257   4.216   5.851   0.052 -0.8227  0.2752  1.3740
 8256TIP3   OH246258   1.345   1.516   5.251  0.2240 -0.8479  0.3883
 8256TIP3    H146259   1.314   1.428   5.271  1.2790 -1.4950 -0.7307
 8256TIP3    H246260   1.313   1.534   5.163  0.5533 -0.3702  0.3618
 8257TIP3   OH246261   4.514   6.331  13.974 -0.3219  0.3153 -0.3709
 8257TIP3    H146262   4.453   6.258  13.966  0.5621 -0.7503  1.7819
 8257TIP3    H246263   4.458   6.407  13.990 -1.1700 -0.4284  0.3333
 8258TIP3   OH246264   4.993   2.118  15.979 -0.0679 -0.5618  0.0724
 8258TIP3    H146265   4.957   2.030  15.983 -1.7142  0.0745  0.2562
 8258TIP3    H246266   4.964   2.152  15.895  2.8542 -1.0761 -1.2517
 8259TIP3   OH246267   5.975   3.216  15.203 -0.4298 -0.0582  0.3093
 8259TIP3    H146268   5.894   3.166  15.218 -0.3401 -0.3171 -0.0691
 8259TIP3    H246269   6.044   3.151  15.210 -0.2081  0.2585  1.1732
 8260TIP3   OH246270   4.075   0.980  16.158  0.6059  0.3020 -0.0104
 8260TIP3    H146271   4.144   1.029  16.203 -0.2700  0.2778  1.3940
 8260TIP3    H246272   4.118   0.898  16.132  1.5387  0.9561 -0.6263
 8261TIP3   OH246273   1.085   1.803   3.073  0.1165 -0.2340  0.2373
 8261TIP3    H146274   0.994   1.823   3.093  0.3638  0.6213  0.5361
 8261TIP3    H246275   1.097   1.834   2.983  0.5373  1.1734  0.7471
 8262TIP3   OH246276   4.116   1.107   3.109 -0.1161 -0.1059  0.3047
 8262TIP3    H146277   4.191   1.080   3.163  0.4205 -1.1518 -0.9189
 8262TIP3    H246278   4.107   1.201   3.127 -1.7745 -0.8517  4.3807
 8263TIP3   OH246279   5.081   2.847  13.225  0.3467  0.0036 -0.4137
 8263TIP3    H146280   5.059   2.937  13.203 -0.0043  0.2693  0.9606
 8263TIP3    H246281   5.139   2.819  13.153  1.9169  1.8926  0.0166
 8264TIP3   OH246282   6.664   1.459   3.894  0.4254  0.0260  0.5581
 8264TIP3    H146283   6.594   1.517   3.925  0.7488  0.1390  1.1028
 8264TIP3    H246284   6.624   1.372   3.894 -0.4445  0.3727 -1.4487
 8265TIP3   OH246285   6.337   2.299  16.533 -0.0587  0.0352 -0.0258
 8265TIP3    H146286   6.360   2.341  16.450 -0.2222 -1.9558 -1.1380
 8265TIP3    H246287   6.247   2.328  16.550 -0.1932  0.0945 -0.7969
 8266TIP3   OH246288   3.089   2.375  15.491 -0.0167  0.3442 -0.2999
 8266TIP3    H146289   3.027   2.422  15.436 -0.8988 -0.0812  0.3077
 8266TIP3    H246290   3.170   2.424  15.483 -0.1113  0.2696 -1.9917
 8267TIP3   OH246291   3.396   4.471  10.693  0.2154  0.0828 -1.0601
 8267TIP3    H146292   3.313   4.448  10.651  0.3948 -2.4643 -0.2003
 8267TIP3    H246293   3.459   4.407  10.660  1.8543  1.8083 -1.5054
 8268TIP3   OH246294   0.078   6.686  14.847  0.1953 -0.0926  0.1644
 8268TIP3    H146295   0.124   6.755  14.799  1.0480 -0.7574 -0.0016
 8268TIP3    H246296   0.089   6.710  14.939  0.0613  0.2571  0.0912
 8269TIP3   OH246297   1.272   0.824  16.399  0.2089 -0.0555  0.2086
 8269TIP3    H146298   1.356   0.835  16.444  0.8830 -2.4819 -0.3127
 8269TIP3    H246299   1.233   0.912  16.399  1.6008  0.6588  2.6648
 8270TIP3   OH246300   2.221   5.409  16.639  0.1425  0.0242 -0.1128
 8270TIP3    H146301   2.315   5.413  16.658  0.3581 -1.6535 -0.6224
 8270TIP3    H246302   2.186   5.350  16.706 -0.6162  0.8390  0.2306
 8271TIP3   OH246303   3.537   6.567  16.205 -0.1352 -0.0882 -0.7736
 8271TIP3    H146304   3.502   6.525  16.126 -1.1994  1.2810 -1.0725
 8271TIP3    H246305   3.526   6.660  16.188  0.9770  0.2670  0.4018
 8272TIP3   OH246306   4.196   5.919   3.477  0.5711 -0.0683 -0.1503
 8272TIP3    H146307   4.182   5.900   3.385 -3.1693 -1.9663  0.5992
 8272TIP3    H246308   4.259   5.852   3.506 -0.3792 -1.2796 -0.8066
 8273TIP3   OH246309   2.733   4.432  17.005  0.4685  0.3459  0.0133
 8273TIP3    H146310   2.771   4.392  16.928  3.2455 -0.7672  1.8175
 8273TIP3    H246311   2.755   4.525  16.997  1.4784  0.1046 -0.1623
 8274TIP3   OH246312   5.751   3.200  11.311 -0.4202  0.0303 -0.1543
 8274TIP3    H146313   5.685   3.211  11.243  0.8857  0.7019 -1.3898
 8274TIP3    H246314   5.703   3.200  11.393 -1.8488  1.5022 -0.9463
 8275TIP3   OH246315   3.329   5.166   3.685 -0.7223  0.2833 -0.2983
 8275TIP3    H146316   3.412   5.171   3.733 -0.4453  0.2915 -0.7675
 8275TIP3    H246317   3.293   5.254   3.690 -2.4186 -0.4421  2.8486
 8276TIP3   OH246318   2.063   1.085  13.235  0.3674 -0.1289 -0.2336
 8276TIP3    H146319   2.051   1.059  13.143 -1.4534  0.5545 -0.2207
 8276TIP3    H246320   2.077   1.179  13.232 -0.4601  0.0152  0.2403
 8277TIP3   OH246321   4.534   3.638  10.706  0.0622  0.0062  0.6040
 8277TIP3    H146322   4.576   3.593  10.780 -0.2855 -0.1320  0.7173
 8277TIP3    H246323   4.539   3.574  10.635  0.8225  0.3128  0.3650
 8278TIP3   OH246324   5.782   0.150  13.536  0.3443  0.7267 -0.3739
 8278TIP3    H146325   5.816   0.117  13.618  0.5733 -0.1219 -0.8038
 8278TIP3    H246326   5.819   0.238  13.528  0.2545  0.8429  0.4604
 8279TIP3   OH246327   5.541   0.683  13.661  0.1683 -0.6653 -0.6901
 8279TIP3    H146328   5.583   0.635  13.732 -1.6108  0.2847  1.0937
 8279TIP3    H246329   5.507   0.614  13.603 -0.8638 -1.5789  0.9189
 8280TIP3   OH246330   5.289   0.505  13.839 -0.6288 -0.0783  0.6805
 8280TIP3    H146331   5.359   0.566  13.862 -0.5242 -0.8714  2.6965
 8280TIP3    H246332   5.262   0.531  13.751  1.2875  1.0812  0.3808
 8281TIP3   OH246333   4.376   3.051  14.977  0.3221  0.7180 -0.3276
 8281TIP3    H146334   4.384   3.146  14.979  0.1500  0.7250  0.6815
 8281TIP3    H246335   4.282   3.034  14.977  0.3480  0.5446 -0.9399
 8282TIP3   OH246336   6.542   5.342  13.109  0.3261 -0.5218  0.0671
 8282TIP3    H146337   6.467   5.401  13.109  1.2891  0.8434 -2.1880
 8282TIP3    H246338   6.505   5.256  13.128 -1.9399  0.0023 -1.5000
 8283TIP3   OH246339   1.641   5.192  12.710 -0.2324 -0.0924 -0.6203
 8283TIP3    H146340   1.735   5.209  12.709 -0.2747  0.1398 -0.7632
 8283TIP3    H246341   1.611   5.212  12.621 -0.3021 -0.8408 -0.7708
 8284TIP3   OH246342   3.604   6.485   6.807  0.1327  0.4191 -0.1294
 8284TIP3    H146343   3.558   6.403   6.787 -0.5052  0.3307  1.5633
 8284TIP3    H246344   3.557   6.551   6.755 -0.9635  0.0835  0.3896
 8285TIP3   OH246345   0.417   6.547   1.762  0.1295  0.4018  0.6296
 8285TIP3    H146346   0.323   6.542   1.781  0.4945 -1.5562  2.2369
 8285TIP3    H246347   0.456   6.477   1.815  2.6402  1.8663  0.8601
 8286TIP3   OH246348   0.222   5.113  16.777  0.0184 -0.3626 -0.3729
 8286TIP3    H146349   0.265   5.158  16.703  1.2534 -0.8726  0.0083
 8286TIP3    H246350   0.152   5.173  16.804  0.8736  0.7978 -0.6327
 8287TIP3   OH246351   5.520   1.560   1.430  0.3884  0.4706  0.0577
 8287TIP3    H146352   5.549   1.583   1.342 -1.2071 -1.7108 -1.1570
 8287TIP3    H246353   5.601   1.547   1.480  1.4539 -1.1374 -1.9433
 8288TIP3   OH246354   1.650   3.698   3.054 -0.0214  0.2405  0.4837
 8288TIP3    H146355   1.603   3.732   2.979 -0.2529  0.4595  0.7244
 8288TIP3    H246356   1.592   3.716   3.129  0.0795 -0.2284  0.6753
 8289TIP3   OH246357   2.091   1.426   0.686  0.2604  0.2223  0.3079
 8289TIP3    H146358   2.008   1.418   0.639  1.2416  2.1133 -1.9948
 8289TIP3    H246359   2.138   1.345   0.665  0.0478  0.3466 -0.7014
 8290TIP3   OH246360   1.704   3.916  14.145  0.3350  0.5081 -0.0033
 8290TIP3    H146361   1.755   3.929  14.225 -0.4679  2.7480  0.2118
 8290TIP3    H246362   1.715   3.997  14.096 -1.0590  0.0875 -1.0820
 8291TIP3   OH246363   0.075   4.326   0.396  0.1892 -0.3415 -0.1019
 8291TIP3    H146364  -0.006   4.347   0.350  0.1943  0.0254  0.0478
 8291TIP3    H246365   0.096   4.237   0.369 -1.3322 -1.2222  1.3717
 8292TIP3   OH246366   2.995   1.588  12.893  0.1924  0.0616  0.0471
 8292TIP3    H146367   2.952   1.644  12.828  2.5013  0.1230 -1.5237
 8292TIP3    H246368   2.941   1.598  12.972 -2.6654  0.0432 -1.7728
 8293TIP3   OH246369   5.065   5.440   5.315  0.0188  0.2461  0.1961
 8293TIP3    H146370   5.130   5.496   5.357 -0.1466 -2.0654  3.9988
 8293TIP3    H246371   4.986   5.450   5.368 -1.2219 -0.6606 -1.3775
 8294TIP3   OH246372   6.597   3.837   9.962 -0.0797 -0.0851 -0.2121
 8294TIP3    H146373   6.582   3.773  10.031  0.8135 -0.6936 -0.5589
 8294TIP3    H246374   6.570   3.921  10.000 -1.8565 -0.7374  0.0277
 8295TIP3   OH246375   4.437   1.942  13.109  0.2590  0.5785 -0.1253
 8295TIP3    H146376   4.375   1.932  13.037  0.0915 -0.3292  0.1311
 8295TIP3    H246377   4.403   2.016  13.159  0.6690  1.5615 -1.2475
 8296TIP3   OH246378   0.005   5.553  12.880 -0.6227  0.0235  0.1433
 8296TIP3    H146379   0.004   5.620  12.948 -0.7922 -0.1858  0.3460
 8296TIP3    H246380   0.089   5.566  12.835  0.9816 -1.8597  2.4052
 8297TIP3   OH246381   3.040   5.236  12.280  0.1271 -0.6282 -0.5879
 8297TIP3    H146382   3.077   5.181  12.212  1.3984 -0.8223  0.2271
 8297TIP3    H246383   3.009   5.314  12.234  1.1445 -0.6675 -1.3624
 8298TIP3   OH246384   3.048   0.163  11.345  0.1036  0.3993  0.8499
 8298TIP3    H146385   3.032   0.069  11.336 -2.8139  0.9677 -1.7740
 8298TIP3    H246386   2.963   0.204  11.330  1.0526  3.5080  2.7987
 8299TIP3   OH246387   1.360   6.480  13.799 -0.2953 -0.3556 -0.0632
 8299TIP3    H146388   1.454   6.498  13.805 -0.6905  1.7916  0.6485
 8299TIP3    H246389   1.346   6.407  13.859  0.5543  1.0993  2.0453
 8300TIP3   OH246390   1.825   5.039  11.043  0.0626  0.5729  0.5291
 8300TIP3    H146391   1.894   5.011  11.104 -0.2425 -1.8960 -0.1403
 8300TIP3    H246392   1.869   5.100  10.984  1.3346  0.1388  0.9769
 8301TIP3   OH246393   2.295   1.698   5.223 -0.0925 -0.0321  0.4807
 8301TIP3    H146394   2.251   1.679   5.140 -0.2641 -1.7400  0.9240
 8301TIP3    H246395   2.229   1.679   5.290 -0.3631  2.4773  1.0339
 8302TIP3   OH246396   1.615   0.812   4.384  0.2032 -0.7281  0.5750
 8302TIP3    H146397   1.632   0.738   4.324  0.7171 -0.8720  0.8863
 8302TIP3    H246398   1.613   0.771   4.471  0.9893 -0.3136  0.7985
 8303TIP3   OH246399   5.982   5.676  14.700  0.0412  0.7863 -0.3420
 8303TIP3    H146400   6.030   5.711  14.775  0.9383 -1.1157  0.0233
 8303TIP3    H246401   6.013   5.729  14.626  0.9597  1.1082  0.2557
 8304TIP3   OH246402   1.429   2.356   3.392 -0.0367 -0.0742 -0.4886
 8304TIP3    H146403   1.411   2.386   3.303  0.7615  1.0835 -0.2803
 8304TIP3    H246404   1.343   2.347   3.432 -0.4854 -1.6641 -1.6757
 8305TIP3   OH246405   2.568   4.743  12.096 -0.7528  0.5624 -0.1688
 8305TIP3    H146406   2.649   4.736  12.147 -1.1997  0.0127  0.4921
 8305TIP3    H246407   2.502   4.770  12.160 -1.6850 -1.7971 -0.0548
 8306TIP3   OH246408   1.785   5.671   2.778  0.2432 -0.5874 -0.0223
 8306TIP3    H146409   1.797   5.766   2.776 -0.9839 -0.4115  0.2486
 8306TIP3    H246410   1.744   5.650   2.694  3.3455 -1.3493 -1.4968
 8307TIP3   OH246411   1.125   0.938   5.095 -0.8451 -0.0513  0.2690
 8307TIP3    H146412   1.046   0.970   5.052 -0.3443  0.8222 -0.0409
 8307TIP3    H246413   1.196   0.964   5.037 -0.1043  1.6494  1.8252
 8308TIP3   OH246414   1.625   6.029   0.845  0.0021 -0.3245  0.2963
 8308TIP3    H146415   1.618   5.954   0.785 -0.8190 -0.7156  0.8663
 8308TIP3    H246416   1.614   5.991   0.932  0.8532  0.2887  0.6810
 8309TIP3   OH246417   2.283   4.709   3.498 -0.1014  0.0537 -0.4487
 8309TIP3    H146418   2.305   4.798   3.469 -1.8412  0.7844  0.3204
 8309TIP3    H246419   2.235   4.671   3.425 -1.5884  0.7080  0.1386
 8310TIP3   OH246420   6.098   5.869  11.286 -0.2653 -0.0685  0.1561
 8310TIP3    H146421   6.075   5.961  11.292  0.5399  0.1730 -0.3922
 8310TIP3    H246422   6.193   5.866  11.294 -0.2339 -0.7983 -0.3557
 8311TIP3   OH246423   3.104   0.413  14.914  0.5111 -0.3162 -0.1327
 8311TIP3    H146424   3.061   0.327  14.920  0.2810 -0.2367 -0.6386
 8311TIP3    H246425   3.034   0.476  14.927  1.0448 -0.1844  2.7681
 8312TIP3   OH246426   3.346   4.149  12.106 -0.0539  0.0349  0.2142
 8312TIP3    H146427   3.333   4.149  12.011 -1.6095 -1.9889  0.3524
 8312TIP3    H246428   3.343   4.242  12.130 -1.9254  0.4943 -1.4785
 8313TIP3   OH246429   5.876   0.991   3.659 -0.2903 -0.3198 -0.5119
 8313TIP3    H146430   5.920   1.035   3.732 -1.9922 -0.4824  0.6892
 8313TIP3    H246431   5.891   1.047   3.584  1.6948 -0.2472 -0.1128
 8314TIP3   OH246432   2.785   6.729   1.174 -0.6501 -0.2298 -0.2390
 8314TIP3    H146433   2.832   6.799   1.128 -1.2981  0.2587 -0.1713
 8314TIP3    H246434   2.758   6.669   1.105 -0.2158 -0.3468 -0.3124
 8315TIP3   OH246435   3.160   2.995   5.170 -0.3400 -0.0080  0.8088
 8315TIP3    H146436   3.068   3.007   5.146 -0.2678 -0.8251  0.0717
 8315TIP3    H246437   3.160   2.920   5.230 -0.2404  0.5237  1.4879
 8316TIP3   OH246438   5.978   3.616  11.808  0.1813 -0.4812 -0.2962
 8316TIP3    H146439   5.957   3.703  11.844 -0.8741 -1.1280  0.7163
 8316TIP3    H246440   6.015   3.635  11.721 -0.1380  0.9772 -0.1503
 8317TIP3   OH246441   6.071   2.555  12.133  0.1023 -0.0626  0.6139
 8317TIP3    H146442   5.995   2.576  12.079  1.0378  0.6278 -0.4860
 8317TIP3    H246443   6.146   2.568  12.075  1.0407 -1.4031  1.4595
 8318TIP3   OH246444   6.652   0.053   5.262 -0.5875 -0.0968 -0.1419
 8318TIP3    H146445   6.693   0.134   5.231  0.6518 -1.1146 -1.2661
 8318TIP3    H246446   6.722  -0.012   5.262 -1.9325 -1.6210 -1.0229
 8319TIP3   OH246447   4.228   4.423  16.996 -0.1150  0.0066 -0.6221
 8319TIP3    H146448   4.320   4.449  17.002 -0.0302 -0.1161 -1.3444
 8319TIP3    H246449   4.206   4.391  17.084  0.0165  1.7221  0.0927
 8320TIP3   OH246450   1.499   3.228  11.407  0.1599  0.0022  0.1392
 8320TIP3    H146451   1.429   3.244  11.343  0.7720  0.3757 -0.4536
 8320TIP3    H246452   1.482   3.141  11.441  0.7403 -0.8964 -1.7487
 8321TIP3   OH246453   2.123   2.408   5.195  0.0504  0.0185  0.0215
 8321TIP3    H146454   2.073   2.483   5.228  0.1270 -0.5591  1.5093
 8321TIP3    H246455   2.186   2.389   5.264  1.6317  0.0507 -1.3720
 8322TIP3   OH246456   2.245   1.557  14.052 -0.2512 -0.2995 -0.4788
 8322TIP3    H146457   2.251   1.649  14.026 -0.6927 -0.3023 -0.5908
 8322TIP3    H246458   2.226   1.559  14.145 -0.1967 -0.2806 -0.4685
 8323TIP3   OH246459   1.273   0.846   1.933  0.7278  0.4247 -0.5872
 8323TIP3    H146460   1.185   0.810   1.945  1.0690 -0.4886 -0.7038
 8323TIP3    H246461   1.315   0.785   1.872  1.1172  1.4115 -1.3255
 8324TIP3   OH246462   0.012   0.412   4.922  0.0055 -0.4340  0.1220
 8324TIP3    H146463   0.068   0.370   4.856 -0.3525  0.2254 -0.6265
 8324TIP3    H246464   0.046   0.501   4.929 -0.4027 -0.2929  0.3161
 8325TIP3   OH246465   3.711   3.880   4.977  0.7153  0.3932 -0.2000
 8325TIP3    H146466   3.624   3.887   5.016  0.2201 -1.4636 -0.8845
 8325TIP3    H246467   3.714   3.952   4.914  0.2184  1.3062  0.7735
 8326TIP3   OH246468   3.847   2.271  17.097 -0.0560  0.3594 -0.0773
 8326TIP3    H146469   3.800   2.352  17.116 -1.0313  0.0183 -0.9773
 8326TIP3    H246470   3.841   2.221  17.179 -0.0833  0.8889  0.2482
 8327TIP3   OH246471   2.280   0.845   5.367  0.8426  0.1327  0.3846
 8327TIP3    H146472   2.251   0.755   5.385 -0.0285  0.3267  0.0147
 8327TIP3    H246473   2.224   0.873   5.294  2.0970  0.4766 -0.4718
 8328TIP3   OH246474   0.256   5.664   0.325 -0.3002  0.1710 -0.3713
 8328TIP3    H146475   0.188   5.716   0.368 -0.1476 -0.3605  0.5308
 8328TIP3    H246476   0.207   5.602   0.270 -0.5067  0.5553 -0.6293
 8329TIP3   OH246477   3.187   6.034   2.654  0.6198  0.0375  0.4572
 8329TIP3    H146478   3.105   6.012   2.699 -0.2535 -0.5783 -1.3660
 8329TIP3    H246479   3.201   5.962   2.592  3.0358 -0.3355  1.3134
 8330TIP3   OH246480   4.555   1.496   2.271  0.5048 -0.2832  0.0135
 8330TIP3    H146481   4.535   1.460   2.184 -1.0262 -0.0681  0.2459
 8330TIP3    H246482   4.590   1.422   2.320 -0.6539 -0.9537 -0.1477
 8331TIP3   OH246483   2.442   0.387   5.665 -0.2607 -0.0353 -0.4912
 8331TIP3    H146484   2.476   0.369   5.578 -0.7233  0.0852 -0.7013
 8331TIP3    H246485   2.495   0.332   5.723  0.3494  0.2227 -0.7932
 8332TIP3   OH246486   3.680   4.200   0.779 -0.3763 -0.8917  0.0024
 8332TIP3    H146487   3.775   4.190   0.774 -0.5120 -1.8466 -1.2896
 8332TIP3    H246488   3.659   4.178   0.870  0.4458 -2.8484 -0.2155
 8333TIP3   OH246489   4.541   1.086  11.873 -0.0383  0.2333 -0.0591
 8333TIP3    H146490   4.548   1.175  11.908  0.3289  0.1087  0.1972
 8333TIP3    H246491   4.586   1.090  11.788  2.1355 -0.2415  0.9850
 8334TIP3   OH246492   4.975   4.459   3.835  0.1750  0.0750 -0.5965
 8334TIP3    H146493   4.977   4.518   3.911  0.4150 -1.8691  1.0058
 8334TIP3    H246494   5.062   4.468   3.796 -0.2885  1.8376 -1.2806
 8335TIP3   OH246495   6.770   6.029  12.797 -0.3573  0.1266  0.2745
 8335TIP3    H146496   6.774   6.031  12.702 -0.9983 -1.4747  0.1821
 8335TIP3    H246497   6.843   5.974  12.823  0.2758  1.1638  0.7863
 8336TIP3   OH246498   2.278   1.111  10.727 -0.2050 -0.1817  0.6424
 8336TIP3    H146499   2.371   1.133  10.717  0.8140 -3.3851  1.7606
 8336TIP3    H246500   2.273   1.066  10.811 -2.7185 -0.4242  0.4300
 8337TIP3   OH246501   5.011   1.156   3.978  0.1638 -0.4310 -0.1513
 8337TIP3    H146502   5.079   1.091   3.961  0.2043 -0.5626  0.4774
 8337TIP3    H246503   5.021   1.221   3.908  0.4257 -0.8581 -0.5129
 8338TIP3   OH246504   5.622   1.111   5.139 -0.1396  0.3461  0.4888
 8338TIP3    H146505   5.565   1.034   5.134  0.3763 -0.1119  1.5744
 8338TIP3    H246506   5.623   1.145   5.049 -1.9891  0.2803  0.4041
 8339TIP3   OH246507   2.705   4.538   4.891  0.4564  0.1524  0.6274
 8339TIP3    H146508   2.770   4.570   4.954  0.2802  1.4899  0.1632
 8339TIP3    H246509   2.756   4.523   4.810  0.1943  1.2633  0.2443
 8340TIP3   OH246510   2.364   0.319  12.254  0.0971 -0.5578 -0.5586
 8340TIP3    H146511   2.382   0.412  12.245  0.0097 -0.4853 -0.0198
 8340TIP3    H246512   2.383   0.299  12.345 -0.5430 -0.9210 -0.4965
 8341TIP3   OH246513   2.609   2.572   3.787  0.5774 -0.0692 -0.2872
 8341TIP3    H146514   2.516   2.581   3.806 -0.1121 -1.6013 -2.4911
 8341TIP3    H246515   2.642   2.515   3.856 -0.5218 -0.8798 -0.4044
 8342TIP3   OH246516   2.640   2.416  13.073  0.1690 -0.3143 -0.7463
 8342TIP3    H146517   2.578   2.378  13.136  0.9701  0.5692  0.6058
 8342TIP3    H246518   2.588   2.477  13.021 -0.0487  0.6933  0.6220
 8343TIP3   OH246519   3.865   4.065  13.580 -0.2474  0.1283  0.1864
 8343TIP3    H146520   3.817   4.138  13.619 -1.4184 -0.9121  0.7725
 8343TIP3    H246521   3.820   3.987  13.612 -0.8855 -0.8297 -2.6960
 8344TIP3   OH246522   1.425   0.102   1.869 -0.2561  0.0624  0.2654
 8344TIP3    H146523   1.511   0.066   1.847 -0.8871 -1.2248 -0.1910
 8344TIP3    H246524   1.423   0.102   1.965 -0.6555 -2.2166  0.2914
 8345TIP3   OH246525   5.837   4.685   3.638  0.0614 -0.0761  0.3188
 8345TIP3    H146526   5.928   4.662   3.652  0.2891  0.8074  0.3750
 8345TIP3    H246527   5.807   4.626   3.569  0.2516 -1.3562  1.3085
 8346TIP3   OH246528   0.294   6.493  14.307  0.9355 -0.3403  0.4901
 8346TIP3    H146529   0.384   6.481  14.276  0.7367 -2.1586  0.4696
 8346TIP3    H246530   0.297   6.474  14.400  0.5566 -0.5661  0.4614
 8347TIP3   OH246531   1.273   1.324  12.670  0.1307 -0.3539  0.2613
 8347TIP3    H146532   1.184   1.356  12.652  0.0664 -1.6350 -2.1120
 8347TIP3    H246533   1.259   1.241  12.716 -0.0295 -1.2737 -1.3454
 8348TIP3   OH246534   3.663   6.731  14.342 -0.4330  0.5773  0.6993
 8348TIP3    H146535   3.658   6.640  14.371  0.9666  0.1920 -0.1516
 8348TIP3    H246536   3.572   6.761  14.342 -0.7676 -0.3110  2.5254
 8349TIP3   OH246537   4.538   4.404  16.002  0.0083 -0.0432 -0.0544
 8349TIP3    H146538   4.494   4.435  15.923 -0.4916 -2.3437 -0.7439
 8349TIP3    H246539   4.614   4.462  16.011  0.5412 -0.1997 -2.7124
 8350TIP3   OH246540   5.228   5.758  15.095 -0.0273  0.2699 -0.1194
 8350TIP3    H146541   5.321   5.740  15.078  0.2836  0.5946  1.0848
 8350TIP3    H246542   5.189   5.672  15.110 -0.2192  0.0142 -1.8767
 8351TIP3   OH246543   0.028   4.055  12.245  0.1864 -0.0437 -0.1013
 8351TIP3    H146544   0.122   4.065  12.231  0.4213  0.3593  1.5756
 8351TIP3    H246545  -0.012   4.119  12.186  1.1214  1.9573  1.3174
 8352TIP3   OH246546   3.907   5.300  17.067 -0.0904  0.0160 -0.6536
 8352TIP3    H146547   3.907   5.204  17.062 -0.7789  0.0769 -2.3269
 8352TIP3    H246548   3.861   5.328  16.988  0.3221  1.7443 -0.3124
 8353TIP3   OH246549   1.690   5.354   3.466 -0.0077  0.2537  0.3478
 8353TIP3    H146550   1.649   5.292   3.405 -0.6580  1.4722 -0.4979
 8353TIP3    H246551   1.618   5.382   3.523 -0.5186  2.4848 -1.2112
 8354TIP3   OH246552   6.491   0.538  16.300 -0.8224  0.3546 -0.3261
 8354TIP3    H146553   6.438   0.615  16.318 -1.5281 -0.1278 -0.2908
 8354TIP3    H246554   6.428   0.466  16.294 -0.2578 -0.1016 -1.1037
 8355TIP3   OH246555   0.916   0.631  10.388 -0.2300  0.1095 -0.7788
 8355TIP3    H146556   0.952   0.580  10.316  0.0498 -1.3101  0.3097
 8355TIP3    H246557   0.986   0.632  10.454 -0.6668  0.8978 -0.3151
 8356TIP3   OH246558   2.657   5.639  12.694  0.4152  0.0478 -0.0437
 8356TIP3    H146559   2.571   5.654  12.733  0.6900  1.0872  0.1805
 8356TIP3    H246560   2.665   5.705  12.626  0.6455 -0.6692 -0.7295
 8357TIP3   OH246561   1.799   4.665   4.421 -0.0211  0.0551  0.2258
 8357TIP3    H146562   1.778   4.680   4.329  3.4884 -2.1784 -1.1613
 8357TIP3    H246563   1.831   4.750   4.452  2.7079  0.0005 -2.0078
 8358TIP3   OH246564   2.567   0.399   3.463 -0.1386 -0.0015  0.1862
 8358TIP3    H146565   2.560   0.467   3.396 -1.3068  1.1533  1.4126
 8358TIP3    H246566   2.567   0.317   3.414 -2.3153  0.7534 -1.2090
 8359TIP3   OH246567   5.036   5.079  14.630  0.4579  0.0210 -0.1809
 8359TIP3    H146568   4.988   5.004  14.667 -1.6398  0.7512 -1.2515
 8359TIP3    H246569   5.104   5.040  14.576 -0.5367 -1.1389 -0.6448
 8360TIP3   OH246570   4.285   5.490   1.326 -0.5215 -0.4584  0.6077
 8360TIP3    H146571   4.335   5.496   1.408 -3.7746  1.6275  2.6494
 8360TIP3    H246572   4.211   5.433   1.347 -0.7324 -0.9792 -1.3551
 8361TIP3   OH246573   1.858   4.059  16.664  0.0102  0.4358  0.2967
 8361TIP3    H146574   1.845   4.138  16.612 -0.1961  0.6605  0.6769
 8361TIP3    H246575   1.876   4.092  16.753  1.6348  0.1016  0.1233
 8362TIP3   OH246576   4.887   6.537   5.686 -0.2859 -0.2142  0.5858
 8362TIP3    H146577   4.925   6.449   5.686 -1.3549 -0.7033  0.1984
 8362TIP3    H246578   4.793   6.522   5.699 -0.9311  0.6165 -2.2604
 8363TIP3   OH246579   2.447   0.852  11.401  0.2643 -0.2397  0.0290
 8363TIP3    H146580   2.390   0.837  11.324  0.4197  0.6502 -0.2729
 8363TIP3    H246581   2.391   0.833  11.476 -0.0700 -0.5453 -0.2929
 8364TIP3   OH246582   6.576   2.795  16.867 -0.0731 -0.7222 -1.2357
 8364TIP3    H146583   6.612   2.709  16.888  2.2955  0.4745 -0.0489
 8364TIP3    H246584   6.606   2.814  16.779  4.9097  1.3129  0.5264
 8365TIP3   OH246585   2.026   6.301   3.260 -0.1198  0.0267  0.0286
 8365TIP3    H146586   2.046   6.343   3.344  1.1380 -0.1400 -0.1675
 8365TIP3    H246587   1.930   6.299   3.257 -0.1942  0.3226  1.3163
 8366TIP3   OH246588   6.521   6.435   5.271  0.1377 -0.1130  0.5248
 8366TIP3    H146589   6.539   6.344   5.295 -0.4288 -0.9797 -2.0730
 8366TIP3    H246590   6.430   6.448   5.295  0.5557  0.2266  2.0548
 8367TIP3   OH246591   1.046   3.600   4.904 -0.1150  0.8865  0.0080
 8367TIP3    H146592   1.017   3.567   4.819  0.4013  2.7172 -0.9236
 8367TIP3    H246593   0.986   3.672   4.923  0.9283  1.7037  0.2777
 8368TIP3   OH246594   5.988   5.993   2.226  0.1263  0.6173  0.2776
 8368TIP3    H146595   5.964   6.085   2.232 -2.8351  0.0904 -1.6323
 8368TIP3    H246596   5.974   5.970   2.134 -0.3616 -1.9867  0.9270
 8369TIP3   OH246597   2.875   5.348   0.495 -0.1548 -0.2608  0.3812
 8369TIP3    H146598   2.921   5.265   0.481  1.3343  0.5117  0.4658
 8369TIP3    H246599   2.928   5.413   0.448 -0.6210  0.8284  1.3208
 8370TIP3   OH246600   1.208   1.628   4.123  0.5940  0.0917 -0.1426
 8370TIP3    H146601   1.162   1.584   4.195 -1.7928  0.1570 -1.4992
 8370TIP3    H246602   1.262   1.559   4.083  1.1089 -0.2057  1.0382
 8371TIP3   OH246603   2.624   0.160   5.067  0.3001  0.2323 -0.6786
 8371TIP3    H146604   2.595   0.132   5.154 -0.4203  0.3082 -0.8854
 8371TIP3    H246605   2.710   0.120   5.057  1.5852  2.3386  1.1001
 8372TIP3   OH246606   5.259   1.748  12.849 -0.1175 -0.3209  0.3160
 8372TIP3    H146607   5.327   1.698  12.893 -0.9637 -1.3706  0.4867
 8372TIP3    H246608   5.303   1.791  12.776  1.0010  0.2019  1.2671
 8373TIP3   OH246609   0.656   6.422  13.300 -0.4534  0.2958 -0.3588
 8373TIP3    H146610   0.561   6.413  13.303 -0.3745 -0.3577  2.0546
 8373TIP3    H246611   0.671   6.516  13.312 -0.7649  0.4722 -1.2298
 8374TIP3   OH246612   5.058   3.943  12.971 -0.1006  0.3417 -0.4820
 8374TIP3    H146613   5.127   4.007  12.986 -1.4879  1.7212  0.2833
 8374TIP3    H246614   5.047   3.941  12.876 -0.6538  1.9721 -0.4892
 8375TIP3   OH246615   0.952   6.774  14.350 -0.2319 -0.0866 -1.2953
 8375TIP3    H146616   0.959   6.690  14.304 -0.7037 -0.0922 -1.3635
 8375TIP3    H246617   0.898   6.755  14.427  0.7327 -0.1203 -0.6217
 8376TIP3   OH246618   3.683   2.072   1.410 -0.1487  0.0927  0.0169
 8376TIP3    H146619   3.710   2.062   1.501 -0.1642  0.7542  0.1007
 8376TIP3    H246620   3.719   2.157   1.384 -1.2872  0.5157 -0.1897
 8377TIP3   OH246621   2.085   3.255  14.570  0.1526  0.2976  0.4481
 8377TIP3    H146622   2.021   3.207  14.517 -0.1316  0.7068  0.4119
 8377TIP3    H246623   2.133   3.187  14.616 -1.6933 -0.0083  2.0808
 8378TIP3   OH246624   0.039   6.290   2.346  0.1524  0.5505 -0.4130
 8378TIP3    H146625   0.122   6.335   2.355  0.3659  0.2683 -0.9152
 8378TIP3    H246626   0.062   6.197   2.343 -0.0836  0.5086 -1.4693
 8379TIP3   OH246627   4.497   3.908  12.421 -0.0626 -0.0346  0.5518
 8379TIP3    H146628   4.416   3.861  12.399  0.3721 -0.9530  0.8492
 8379TIP3    H246629   4.518   3.957  12.341 -1.3774  0.9348  0.7667
 8380TIP3   OH246630   0.678   3.332  13.727 -0.1293  0.3826 -0.0766
 8380TIP3    H146631   0.598   3.383  13.713 -1.9179 -2.4206 -1.0263
 8380TIP3    H246632   0.748   3.387  13.691 -1.4352  3.2804  1.5021
 8381TIP3   OH246633   5.600   6.726   2.367 -0.2170 -0.5082  0.0910
 8381TIP3    H146634   5.548   6.803   2.345  0.2246 -0.5272 -1.1037
 8381TIP3    H246635   5.675   6.730   2.308 -0.8214 -2.5238 -0.8812
 8382TIP3   OH246636   5.824   3.099   5.968 -0.0787  0.1701  0.1530
 8382TIP3    H146637   5.867   3.162   6.026  0.0020  0.3515 -0.1038
 8382TIP3    H246638   5.730   3.118   5.978 -0.1893 -0.9536  1.5547
 8383TIP3   OH246639   2.809   6.454   1.827 -0.9382  0.6148  0.6589
 8383TIP3    H146640   2.748   6.527   1.836  1.1776  2.3481  2.1642
 8383TIP3    H246641   2.851   6.468   1.742 -1.6983  0.1570  0.1988
 8384TIP3   OH246642   5.200   5.035   4.143  0.3326 -0.7295  0.4760
 8384TIP3    H146643   5.269   4.972   4.164  3.1446  1.9352 -0.0580
 8384TIP3    H246644   5.161   5.058   4.228  2.0459 -0.2743  1.1743
 8385TIP3   OH246645   6.521   1.779   3.434  0.0121  0.4177  0.2168
 8385TIP3    H146646   6.466   1.737   3.500 -0.3929  0.4003 -0.1259
 8385TIP3    H246647   6.462   1.795   3.360  0.3540  0.8426  0.0296
 8386TIP3   OH246648   1.630   4.240  11.269  0.3314 -0.0211  0.4613
 8386TIP3    H146649   1.555   4.299  11.269  0.6020  0.3403  1.3083
 8386TIP3    H246650   1.604   4.167  11.212 -1.2223 -0.6155  1.8711
 8387TIP3   OH246651   6.684   3.732   4.191 -0.6191 -0.0568  0.4035
 8387TIP3    H146652   6.754   3.776   4.240 -0.2807 -1.4517  1.2491
 8387TIP3    H246653   6.622   3.705   4.258 -2.5027  1.9584 -0.4183
 8388TIP3   OH246654   3.164   6.776   0.010 -0.1519 -0.2572 -0.5308
 8388TIP3    H146655   3.136   6.693  -0.028  0.1889  0.1135 -1.6186
 8388TIP3    H246656   3.248   6.756   0.052 -0.3344 -0.5757 -0.3134
 8389TIP3   OH246657   3.476   0.061  12.044 -0.4660 -0.0844  0.0423
 8389TIP3    H146658   3.571   0.058  12.053 -0.3504  1.1302 -0.5026
 8389TIP3    H246659   3.450  -0.030  12.029  0.8787 -0.1818 -2.2250
 8390TIP3   OH246660   2.942   0.369   6.646 -0.0479  0.6782  0.4777
 8390TIP3    H146661   2.986   0.425   6.709 -0.5477  0.7701  0.7512
 8390TIP3    H246662   2.896   0.430   6.588 -0.3046  0.5669  0.5610
 8391TIP3   OH246663   6.528   5.310  13.655  0.5160  0.0460  0.2817
 8391TIP3    H146664   6.551   5.297  13.563  0.7317 -0.6354  0.4250
 8391TIP3    H246665   6.603   5.355  13.693  1.4371 -1.6871  0.6246
 8392TIP3   OH246666   0.074   3.197   2.351  0.3019 -0.1503 -0.1810
 8392TIP3    H146667   0.005   3.132   2.338 -0.2463 -0.1431  2.1211
 8392TIP3    H246668   0.135   3.182   2.280 -0.4767 -2.3288 -0.4737
 8393TIP3   OH246669   1.308   4.010  12.367  0.6964 -0.0369 -0.3944
 8393TIP3    H146670   1.253   4.084  12.395  0.3848  0.3813 -2.0056
 8393TIP3    H246671   1.381   4.051  12.320  0.1750 -0.7538 -1.8746
 8394TIP3   OH246672   3.302   3.888  14.421 -0.1619  0.3326  0.0473
 8394TIP3    H146673   3.393   3.893  14.449 -0.0600  1.6299 -0.4336
 8394TIP3    H246674   3.278   3.979  14.401 -0.9251 -0.2391 -1.8209
 8395TIP3   OH246675   0.636   4.819   0.057  0.1808 -0.1580  0.1861
 8395TIP3    H146676   0.572   4.748   0.048 -0.2349  0.3695 -1.2354
 8395TIP3    H246677   0.657   4.820   0.150 -1.0594 -1.0596  0.5077
 8396TIP3   OH246678   5.484   0.499  15.149  0.4717 -0.4813 -0.4323
 8396TIP3    H146679   5.516   0.503  15.058  2.7252  1.7322  0.3586
 8396TIP3    H246680   5.419   0.570  15.155 -0.9807 -1.7276 -0.6885
 8397TIP3   OH246681   6.294   5.157  12.145  0.0279  0.5599  0.7395
 8397TIP3    H146682   6.344   5.148  12.226 -1.4680 -0.7555  1.5791
 8397TIP3    H246683   6.227   5.088  12.150  0.6369 -0.4014 -2.1805
 8398TIP3   OH246684   4.042   5.629  13.615  0.5634 -0.2711 -0.4349
 8398TIP3    H146685   4.053   5.560  13.549  0.0255 -0.8457  0.0610
 8398TIP3    H246686   4.005   5.584  13.691  0.0396  0.5966 -0.1613
 8399TIP3   OH246687   3.182   1.146   3.449  0.5675 -0.1721 -0.2152
 8399TIP3    H146688   3.183   1.186   3.362 -1.9602 -0.3891 -0.4116
 8399TIP3    H246689   3.259   1.088   3.449  1.1980  0.5938 -1.9138
 8400TIP3   OH246690   0.720   6.439  14.460 -0.1636  0.5611  0.4891
 8400TIP3    H146691   0.779   6.501  14.503  0.1215  2.0718 -1.8838
 8400TIP3    H246692   0.766   6.355  14.465  1.3245  1.3365  0.3569
 8401TIP3   OH246693   4.759   0.833  16.441 -0.1501 -0.1406  0.0594
 8401TIP3    H146694   4.750   0.763  16.376  1.5686 -0.2686 -0.0839
 8401TIP3    H246695   4.711   0.907  16.403  1.8170  0.1857 -2.0072
 8402TIP3   OH246696   5.418   0.054  11.021 -0.1368 -0.2883 -0.1576
 8402TIP3    H146697   5.429   0.144  11.050  0.8050 -0.7664  1.0726
 8402TIP3    H246698   5.339   0.024  11.065 -0.1671 -0.2189 -0.1653
 8403TIP3   OH246699   4.123   0.701   0.796  0.4455  0.3607 -0.0294
 8403TIP3    H146700   4.133   0.610   0.768 -1.2963  0.3298 -0.6959
 8403TIP3    H246701   4.049   0.699   0.857  0.4000  1.3248 -0.0353
 8404TIP3   OH246702   4.244   4.990   4.056 -0.2235  0.5640  0.1110
 8404TIP3    H146703   4.312   4.990   4.124  0.9643  1.4286 -1.0421
 8404TIP3    H246704   4.199   5.073   4.068 -2.3111 -0.7194  1.9860
 8405TIP3   OH246705   1.216   0.145  13.745 -0.3893 -0.1398  0.2105
 8405TIP3    H146706   1.173   0.084  13.684 -0.4549 -0.5964  0.7011
 8405TIP3    H246707   1.297   0.169  13.701 -0.4894 -0.3765 -0.1122
 8406TIP3   OH246708   0.792   4.850   2.976  0.1088  0.5783  0.8415
 8406TIP3    H146709   0.854   4.777   2.969  0.0181  0.0336  4.1438
 8406TIP3    H246710   0.841   4.919   3.020 -0.5586  1.6427 -0.0183
 8407TIP3   OH246711   2.196   4.574   3.712 -0.1730  0.1377 -0.2279
 8407TIP3    H146712   2.203   4.603   3.621  1.6874 -0.2735 -0.2552
 8407TIP3    H246713   2.247   4.639   3.761  1.5505 -1.3517  0.0755
 8408TIP3   OH246714   1.620   4.331   5.055  0.4703  0.0664  0.3857
 8408TIP3    H146715   1.715   4.332   5.070  0.4644  0.2194  0.4161
 8408TIP3    H246716   1.605   4.255   4.999  0.5404 -0.3147  0.8736
 8409TIP3   OH246717   2.262   4.901  11.520 -0.0946  0.2531  0.4022
 8409TIP3    H146718   2.200   4.973  11.504  0.9278  0.5937 -2.8395
 8409TIP3    H246719   2.221   4.825  11.480  1.1072  0.2807 -0.9572
 8410TIP3   OH246720   3.803   5.827   5.572 -0.1841  0.0819  0.4013
 8410TIP3    H146721   3.891   5.805   5.541  1.0198 -0.2933  3.7136
 8410TIP3    H246722   3.805   5.921   5.586 -0.3085  0.0622  0.5580
 8411TIP3   OH246723   3.428   0.704  14.461  0.5199  0.3178 -0.4785
 8411TIP3    H146724   3.370   0.636  14.495  1.5502  0.6223  2.1262
 8411TIP3    H246725   3.461   0.668  14.379 -0.3325 -1.5457 -0.0526
 8412TIP3   OH246726   1.491   0.373  11.335  0.1069  0.3614 -0.1835
 8412TIP3    H146727   1.557   0.360  11.267 -0.6941 -2.1568 -0.6141
 8412TIP3    H246728   1.531   0.337  11.414 -0.1585  0.2426 -0.1006
 8413TIP3   OH246729   0.706   1.402  13.984 -0.5172  0.2757  0.6726
 8413TIP3    H146730   0.776   1.454  14.025  1.2684 -2.5114  1.4372
 8413TIP3    H246731   0.719   1.416  13.890 -0.5280  1.6839  0.8548
 8414TIP3   OH246732   6.512   4.119  10.836 -0.0938 -0.1383  0.0423
 8414TIP3    H146733   6.601   4.101  10.807 -0.4341 -1.3694 -0.2621
 8414TIP3    H246734   6.459   4.114  10.757 -0.7596 -1.6860  0.5651
 8415TIP3   OH246735   2.224   2.166  14.727 -0.0831 -0.0220 -0.1313
 8415TIP3    H146736   2.295   2.138  14.786  0.5512  0.9211 -0.4223
 8415TIP3    H246737   2.179   2.085  14.703  0.5943 -0.5832  0.4478
 8416TIP3   OH246738   1.465   2.607  14.486 -0.2252 -0.1948  0.8026
 8416TIP3    H146739   1.420   2.689  14.465  0.3017  0.1199  0.8903
 8416TIP3    H246740   1.415   2.570  14.559 -0.1578  0.3138  1.1106
 8417TIP3   OH246741   0.331   6.776  13.294 -0.5943  0.1784 -0.1428
 8417TIP3    H146742   0.385   6.799  13.369 -0.5112 -0.4267 -0.0143
 8417TIP3    H246743   0.267   6.847  13.288 -0.8524  0.0360  0.7429
 8418TIP3   OH246744   1.999   6.767   2.617 -0.2901  0.0163 -0.1110
 8418TIP3    H146745   1.949   6.687   2.629  0.2914 -0.4752 -0.8981
 8418TIP3    H246746   2.090   6.739   2.619 -0.0907  0.4806 -1.4314
 8419TIP3   OH246747   5.062   0.472   4.394 -0.4376  0.1783  0.0538
 8419TIP3    H146748   5.047   0.403   4.459 -1.4748 -1.1998 -1.5632
 8419TIP3    H246749   4.985   0.528   4.399 -0.7322 -0.1953 -0.3110
 8420TIP3   OH246750   3.796   1.481  14.966 -0.5577  0.1335 -0.0392
 8420TIP3    H146751   3.881   1.472  15.009 -1.1221 -2.4840  0.6847
 8420TIP3    H246752   3.817   1.472  14.872  0.1315  1.3118 -0.0233
 8421TIP3   OH246753   2.907   1.490  12.037 -0.3355 -0.3996 -0.2249
 8421TIP3    H146754   2.908   1.404  12.079 -0.2581 -0.8820 -1.1771
 8421TIP3    H246755   2.997   1.521  12.043 -0.6933  0.3893  1.6145
 8422TIP3   OH246756   5.159   0.272   0.708 -0.0599 -0.0290  0.2041
 8422TIP3    H146757   5.152   0.353   0.758 -1.2076 -0.6400  1.0889
 8422TIP3    H246758   5.203   0.298   0.626 -0.5017  1.4996  0.4123
 8423TIP3   OH246759   4.487   2.045  16.189  0.0168 -0.2554  0.3588
 8423TIP3    H146760   4.400   2.072  16.160 -0.9444  0.2476  3.3442
 8423TIP3    H246761   4.482   1.950  16.195  0.0157 -0.3090 -0.3392
 8424TIP3   OH246762   5.006   0.939   3.692  0.1539  0.2313  0.2236
 8424TIP3    H146763   5.044   0.916   3.777 -0.5385  1.1663  0.8056
 8424TIP3    H246764   4.921   0.896   3.690  0.2378  0.0726 -0.0756
 8425TIP3   OH246765   6.779   3.260  12.505  0.7599 -0.3760  0.1554
 8425TIP3    H146766   6.693   3.233  12.537  0.3438 -2.2279 -2.2502
 8425TIP3    H246767   6.833   3.265  12.584 -1.2899 -0.1045  1.6197
 8426TIP3   OH246768   2.725   3.363  16.123  0.1437  0.3226 -0.8422
 8426TIP3    H146769   2.734   3.356  16.218 -0.0677 -0.3173 -0.8681
 8426TIP3    H246770   2.659   3.431  16.110 -0.7720 -0.4728 -0.4979
 8427TIP3   OH246771   1.888   6.631   4.546  0.5871  0.0563 -0.0698
 8427TIP3    H146772   1.878   6.637   4.451  0.7601  0.9965 -0.0412
 8427TIP3    H246773   1.924   6.544   4.561  2.4688  0.6149 -1.0456
 8428TIP3   OH246774   3.316   6.202  14.366  0.2091  0.1751 -0.3177
 8428TIP3    H146775   3.225   6.225  14.350  0.1739  0.2400 -0.0365
 8428TIP3    H246776   3.355   6.194  14.279 -0.1425 -0.1718 -0.4451
 8429TIP3   OH246777   5.462   4.333   6.556 -0.0260 -0.4583 -0.2067
 8429TIP3    H146778   5.388   4.280   6.528 -0.6654 -0.0707  0.7080
 8429TIP3    H246779   5.447   4.418   6.516 -0.4219 -0.1908  0.5035
 8430TIP3   OH246780   6.573   3.920  11.023 -0.3966  0.1575  0.3100
 8430TIP3    H146781   6.527   3.987  10.972 -0.8899 -0.7566 -0.4720
 8430TIP3    H246782   6.524   3.839  11.006  1.5035 -0.8689 -0.5573
 8431TIP3   OH246783   2.319   4.585   0.847  0.1044  0.2954 -0.4409
 8431TIP3    H146784   2.396   4.642   0.847 -0.5171  1.1743 -1.1164
 8431TIP3    H246785   2.287   4.588   0.757 -0.7480 -0.0176 -0.1616
 8432TIP3   OH246786   1.791   3.643   4.570  0.1560  0.0554  0.5715
 8432TIP3    H146787   1.860   3.602   4.622  1.0647  1.7870  0.7789
 8432TIP3    H246788   1.736   3.570   4.541  2.8067 -1.5579 -0.7365
 8433TIP3   OH246789   4.429   5.138  15.202 -0.1183  0.1107 -0.2782
 8433TIP3    H146790   4.411   5.232  15.204  0.5131  0.2387 -0.4369
 8433TIP3    H246791   4.409   5.113  15.112 -2.1706 -0.3051  0.2390
 8434TIP3   OH246792   6.022   0.205   2.134 -0.4318 -0.4409  0.3622
 8434TIP3    H146793   6.041   0.270   2.202  1.9232  0.7633 -1.2940
 8434TIP3    H246794   6.010   0.257   2.054 -2.3776 -1.8604 -0.3411
 8435TIP3   OH246795   1.609   3.092  15.496 -0.9831 -0.7040  0.0421
 8435TIP3    H146796   1.625   3.121  15.407 -2.8732  0.9067  0.1592
 8435TIP3    H246797   1.513   3.093  15.505 -0.8365  0.3247  2.4080
 8436TIP3   OH246798   0.107   2.982  14.150 -0.4813 -0.4547  0.1250
 8436TIP3    H146799   0.081   3.067  14.114  0.4099 -0.9282 -1.7621
 8436TIP3    H246800   0.025   2.943  14.179 -1.0636  0.5415 -0.1077
 8437TIP3   OH246801   6.356   4.802   5.820 -0.3224 -0.6037  0.5970
 8437TIP3    H146802   6.325   4.851   5.744 -1.1290 -2.1878 -0.1550
 8437TIP3    H246803   6.445   4.832   5.835 -0.5011  0.4308 -0.3680
 8438TIP3   OH246804   4.380   6.083  13.879 -0.2509  0.6277 -0.3511
 8438TIP3    H146805   4.295   6.114  13.848 -0.6726  0.4234  0.5550
 8438TIP3    H246806   4.431   6.071  13.800 -1.8620 -1.6142 -1.1538
 8439TIP3   OH246807   3.636   6.027   0.894  0.1037  0.3856  0.0228
 8439TIP3    H146808   3.587   5.972   0.955 -1.8245  1.4021 -0.5557
 8439TIP3    H246809   3.579   6.102   0.876  0.9865  0.5900 -2.3227
 8440TIP3   OH246810   1.346   5.615   3.126  0.0518 -0.5007  0.0346
 8440TIP3    H146811   1.294   5.600   3.204 -0.9120  0.7849 -0.3263
 8440TIP3    H246812   1.428   5.652   3.158 -0.8620  1.3151  0.3919
 8441TIP3   OH246813   5.245   2.801  10.401 -0.3275 -0.0826  0.1183
 8441TIP3    H146814   5.219   2.753  10.323  0.8013 -0.4449 -0.0505
 8441TIP3    H246815   5.193   2.763  10.472 -0.3433 -0.6911 -0.2206
 8442TIP3   OH246816   1.079   0.440   1.204 -0.0262  0.1218  0.4852
 8442TIP3    H146817   1.099   0.445   1.110  0.4438  3.5390  0.6617
 8442TIP3    H246818   0.989   0.472   1.211  0.4690  1.4091  1.3035
 8443TIP3   OH246819   4.515   6.696  13.308 -0.2196 -0.5318  0.6432
 8443TIP3    H146820   4.588   6.702  13.369  1.7130 -3.0331 -1.1944
 8443TIP3    H246821   4.552   6.724  13.224 -1.2394 -2.1994 -0.4188
 8444TIP3   OH246822   6.131   0.543  10.969 -0.0900 -0.1959 -0.2206
 8444TIP3    H146823   6.102   0.454  10.951 -0.6105 -0.1097  0.1609
 8444TIP3    H246824   6.226   0.539  10.964 -0.0862 -0.8765  0.2692
 8445TIP3   OH246825   3.278   3.621  12.511 -0.1086  0.1962 -0.3904
 8445TIP3    H146826   3.203   3.638  12.453  0.7498  2.0372 -1.0568
 8445TIP3    H246827   3.240   3.577  12.586 -1.5466 -0.6661 -1.5638
 8446TIP3   OH246828   1.035   5.466  15.241  0.0566 -0.4266  0.5098
 8446TIP3    H146829   1.122   5.430  15.225 -0.2067 -0.9882  0.2935
 8446TIP3    H246830   1.000   5.483  15.153 -0.0557 -0.2251  0.5944
 8447TIP3   OH246831   0.318   6.424  15.103  0.0071  0.0225  0.0667
 8447TIP3    H146832   0.337   6.500  15.158  0.4679  0.0427 -0.1136
 8447TIP3    H246833   0.350   6.448  15.016  1.1219 -0.7764  0.2396
 8448TIP3   OH246834   6.470   0.393   5.137 -0.5263 -0.1601 -0.3035
 8448TIP3    H146835   6.557   0.366   5.167 -1.6951 -1.7119  2.0393
 8448TIP3    H246836   6.472   0.489   5.141  1.2886 -0.1236 -1.1018
 8449TIP3   OH246837   5.657   0.207   2.430 -0.4414  0.1482  0.7898
 8449TIP3    H146838   5.565   0.180   2.441 -0.1644 -1.7313 -0.9105
 8449TIP3    H246839   5.654   0.276   2.364 -0.8036  1.9712  2.5918
 8450TIP3   OH246840   1.541   0.884  14.901 -0.2631  0.0269  0.4196
 8450TIP3    H146841   1.616   0.882  14.841 -0.4914  0.3822  0.1148
 8450TIP3    H246842   1.516   0.976  14.905  0.4259  0.1783  1.9316
 8451TIP3   OH246843   0.979   1.696  15.278  0.3397 -0.3484  0.1502
 8451TIP3    H146844   0.994   1.622  15.221  0.5676 -0.5476  0.4693
 8451TIP3    H246845   0.978   1.772  15.220  1.1637 -0.4832 -0.0404
 8452TIP3   OH246846   1.574   1.252   4.178  0.4010  0.4437  0.0911
 8452TIP3    H146847   1.639   1.310   4.218 -1.3842  2.0645  0.8645
 8452TIP3    H246848   1.495   1.307   4.171 -1.4612 -1.9124  1.0073
 8453TIP3   OH246849   4.578   2.885   3.867 -0.5804 -0.0798 -0.5653
 8453TIP3    H146850   4.636   2.828   3.817  0.9094  1.2775 -0.4805
 8453TIP3    H246851   4.491   2.869   3.830 -0.6999 -3.9989  0.9480
 8454TIP3   OH246852   1.832   2.091  17.131  0.7586  0.3561  0.0658
 8454TIP3    H146853   1.901   2.068  17.194 -0.1075 -1.0662  0.5283
 8454TIP3    H246854   1.752   2.055  17.169  0.4389 -2.0890 -2.6209
 8455TIP3   OH246855   4.349   1.918  12.211 -0.0438 -0.2061  0.1552
 8455TIP3    H146856   4.370   1.958  12.296  1.4458  0.2477 -0.4022
 8455TIP3    H246857   4.257   1.939  12.197 -0.2834 -0.1682  1.5917
 8456TIP3   OH246858   3.602   0.470   3.849  0.0243  0.4388 -0.0096
 8456TIP3    H146859   3.644   0.402   3.901 -0.5818 -0.0736 -0.1652
 8456TIP3    H246860   3.509   0.447   3.851 -0.1023  0.8658 -0.6509
 8457TIP3   OH246861   2.473   5.942   5.438  0.1230 -0.0407 -0.0740
 8457TIP3    H146862   2.535   5.880   5.474 -0.7580 -0.2993  1.0483
 8457TIP3    H246863   2.447   5.997   5.512 -2.9896 -1.6470  0.2297
 8458TIP3   OH246864   5.621   6.050  13.463 -0.5666 -0.6516  0.0484
 8458TIP3    H146865   5.579   6.084  13.542 -0.1237 -0.3336  0.1528
 8458TIP3    H246866   5.578   5.967  13.446 -0.2776 -0.9957  0.9522
 8459TIP3   OH246867   0.082   3.550   3.780 -0.3944  0.4348  0.5341
 8459TIP3    H146868   0.046   3.532   3.693 -0.6950  2.2683  0.2399
 8459TIP3    H246869   0.008   3.583   3.830  0.4487  2.6790  0.4108
 8460TIP3   OH246870   1.631   3.886  12.120  0.4399  0.2367  0.2624
 8460TIP3    H146871   1.697   3.854  12.181 -0.5945 -2.2539  0.2378
 8460TIP3    H246872   1.681   3.916  12.044  1.6629  1.9392  1.6628
 8461TIP3   OH246873   3.796   4.624   0.445 -0.1888  0.4291  0.0382
 8461TIP3    H146874   3.798   4.642   0.539 -1.7482 -0.8335  0.3530
 8461TIP3    H246875   3.734   4.688   0.410  0.5615  1.0491 -0.2018
 8462TIP3   OH246876   1.894   3.910  15.665  0.2131  0.1138  0.3572
 8462TIP3    H146877   1.983   3.875  15.672 -0.3082 -1.8022 -1.5618
 8462TIP3    H246878   1.837   3.836  15.687 -0.9394  1.2265  1.2614
 8463TIP3   OH246879   1.024   2.591   2.764 -0.2298 -0.1648  0.3382
 8463TIP3    H146880   1.104   2.637   2.790 -0.1403  0.8253 -1.5518
 8463TIP3    H246881   0.954   2.654   2.777 -0.2197  0.2553 -1.3868
 8464TIP3   OH246882   3.953   0.639   3.044  0.1300  0.1279 -0.4955
 8464TIP3    H146883   4.047   0.657   3.041  0.2577  0.1720  1.9172
 8464TIP3    H246884   3.914   0.723   3.068 -0.2097 -0.4941  1.2888
 8465TIP3   OH246885   4.078   3.512  14.879  0.0415  0.6965 -0.3844
 8465TIP3    H146886   4.141   3.440  14.882 -0.8173 -0.0470  1.3050
 8465TIP3    H246887   4.035   3.510  14.965 -0.6987  2.6095 -0.6610
 8466TIP3   OH246888   5.752   3.230   4.327 -0.0921  0.1980 -0.1456
 8466TIP3    H146889   5.732   3.217   4.234  1.7125  0.6826 -0.6444
 8466TIP3    H246890   5.687   3.292   4.357 -0.1073  0.7967 -1.3564
 8467TIP3   OH246891   5.486   1.293  16.157  0.1152  0.6676  0.1775
 8467TIP3    H146892   5.533   1.362  16.203 -0.6569  1.3797 -0.0832
 8467TIP3    H246893   5.476   1.224  16.222  0.2426  1.1020  0.6673
 8468TIP3   OH246894   4.462   6.257  10.754  0.0052 -0.2429  0.4104
 8468TIP3    H146895   4.546   6.271  10.799  0.8435 -2.0437 -0.4922
 8468TIP3    H246896   4.442   6.165  10.770 -1.3153 -0.0810 -0.2309
 8469TIP3   OH246897   1.042   3.068  16.516 -0.2084  0.2847  0.0759
 8469TIP3    H146898   0.971   3.024  16.561  0.1555 -2.0591 -1.4819
 8469TIP3    H246899   1.030   3.045  16.424  1.5586  1.2964 -0.4658
 8470TIP3   OH246900   1.843   5.079   3.698  0.1385  0.0529  0.6392
 8470TIP3    H146901   1.830   5.153   3.757  0.6523 -0.4192  1.3551
 8470TIP3    H246902   1.937   5.061   3.702  0.2797  0.3767 -0.7663
 8471TIP3   OH246903   4.030   0.511   4.484  0.3605 -0.1966 -0.6587
 8471TIP3    H146904   3.938   0.540   4.485  0.9694  1.9240 -1.1756
 8471TIP3    H246905   4.080   0.591   4.464  2.3713 -1.1692  0.2170
 8472TIP3   OH246906   4.099   6.592   3.727 -0.3903 -0.1175  0.1504
 8472TIP3    H146907   4.017   6.628   3.760  1.2206  2.2988  1.9061
 8472TIP3    H246908   4.134   6.661   3.670  1.9233  0.4428  2.1057
 8473TIP3   OH246909   4.871   4.123   2.620 -0.2681 -0.0715 -0.3113
 8473TIP3    H146910   4.801   4.156   2.564  0.5111 -2.0609 -2.6427
 8473TIP3    H246911   4.947   4.118   2.563  0.1380 -3.9150  0.2750
 8474TIP3   OH246912   2.446   5.779  16.866  0.1512 -0.1644  0.0903
 8474TIP3    H146913   2.461   5.871  16.845 -1.0855 -0.2580 -1.4675
 8474TIP3    H246914   2.368   5.756  16.814  1.2553 -2.4458 -0.6718
 8475TIP3   OH246915   6.348   5.446   2.976  0.2895  0.1395  0.2940
 8475TIP3    H146916   6.333   5.352   2.962  0.7455  0.2309 -0.8975
 8475TIP3    H246917   6.322   5.487   2.894  0.4788  1.0283  0.6650
 8476TIP3   OH246918   0.456   6.418  10.811  0.2840 -0.5246  0.6715
 8476TIP3    H146919   0.490   6.472  10.739  0.2893 -3.1886 -1.4469
 8476TIP3    H246920   0.534   6.388  10.857  0.4638 -1.3212 -0.1398
 8477TIP3   OH246921   3.653   2.633  11.711  0.3290  0.1919  0.4503
 8477TIP3    H146922   3.716   2.647  11.639 -1.3092  2.3350 -0.6981
 8477TIP3    H246923   3.684   2.691  11.781  2.0350 -2.0399  1.6478
 8478TIP3   OH246924   2.129   6.301   2.445 -0.3332  0.2164  0.0864
 8478TIP3    H146925   2.184   6.328   2.372 -1.6207  1.6070 -0.4250
 8478TIP3    H246926   2.057   6.363   2.445 -0.1344  0.5863  2.8712
 8479TIP3   OH246927   2.518   0.791   6.751  0.2675 -0.2051 -0.9268
 8479TIP3    H146928   2.596   0.840   6.724  1.1426  0.0358  1.7342
 8479TIP3    H246929   2.531   0.704   6.714  1.1677  0.1968 -1.6021
 8480TIP3   OH246930   5.237   1.401  16.834 -0.2033  0.4949 -0.3395
 8480TIP3    H146931   5.254   1.487  16.871  1.3152  0.0122  0.1534
 8480TIP3    H246932   5.226   1.344  16.910 -0.5666  0.1413 -0.6545
 8481TIP3   OH246933   4.924   3.954   4.556 -0.3812 -0.4132  0.2995
 8481TIP3    H146934   4.980   3.895   4.506 -1.1890 -0.0015 -1.1436
 8481TIP3    H246935   4.847   3.967   4.501 -1.1063  0.4355  1.4576
 8482TIP3   OH246936   2.375   5.697   4.203 -0.0012 -0.6997 -0.0002
 8482TIP3    H146937   2.342   5.703   4.292  0.4177  0.0287  0.1134
 8482TIP3    H246938   2.296   5.698   4.148 -0.2065  0.4993  0.2891
 8483TIP3   OH246939   4.482   1.384  13.391  0.3463  0.2294  0.1421
 8483TIP3    H146940   4.460   1.327  13.317  0.5055  2.0953 -1.4333
 8483TIP3    H246941   4.562   1.429  13.364  0.6621  0.6417  1.6668
 8484TIP3   OH246942   4.204   1.559  16.904 -0.9761 -0.3283 -0.0100
 8484TIP3    H146943   4.188   1.580  16.996  0.2231 -1.2446  0.4330
 8484TIP3    H246944   4.288   1.514  16.903 -0.3215  0.8113 -1.7269
 8485TIP3   OH246945   3.832   0.121   0.777  0.2619 -0.5771  0.4618
 8485TIP3    H146946   3.847   0.074   0.694  0.1992  0.1038  0.0549
 8485TIP3    H246947   3.787   0.201   0.751  1.0573  0.0825  1.0507
 8486TIP3   OH246948   4.893   3.129  11.938  0.4082  0.0854 -0.2481
 8486TIP3    H146949   4.804   3.161  11.922  0.2501 -0.0514  0.3129
 8486TIP3    H246950   4.945   3.208  11.953  0.2899  0.1452 -0.1511
 8487TIP3   OH246951   1.425   3.106  15.059 -0.2847 -0.6547  0.0556
 8487TIP3    H146952   1.520   3.110  15.066 -0.1474 -1.5384 -1.1033
 8487TIP3    H246953   1.395   3.188  15.100  1.0426  0.2779 -0.7541
 8488TIP3   OH246954   6.218   2.296  15.562 -0.3358  0.1620 -0.0059
 8488TIP3    H146955   6.254   2.335  15.642 -1.0660  1.0953 -0.1294
 8488TIP3    H246956   6.159   2.227  15.593 -0.9987  0.8519  0.2786
 8489TIP3   OH246957   5.103   2.107   0.251  0.4266  0.2057 -0.0552
 8489TIP3    H146958   5.047   2.160   0.195  0.9640  0.3014 -0.5134
 8489TIP3    H246959   5.107   2.022   0.208 -1.5745 -0.6941  1.4107
 8490TIP3   OH246960   3.144   4.283  10.603  0.6268 -0.2923 -0.0451
 8490TIP3    H146961   3.105   4.307  10.687  0.9091  0.1297 -0.0315
 8490TIP3    H246962   3.123   4.190  10.592  1.1634 -0.5235  0.8171
 8491TIP3   OH246963   2.326   6.229  11.798 -0.6015 -0.1705 -0.3157
 8491TIP3    H146964   2.294   6.247  11.887  3.5520  1.6739  1.0265
 8491TIP3    H246965   2.351   6.314  11.764  1.8658 -1.2770 -1.5070
 8492TIP3   OH246966   3.343   1.942  11.519  0.1441  0.0495  0.0129
 8492TIP3    H146967   3.281   1.962  11.589  0.1897  0.5046 -0.0757
 8492TIP3    H246968   3.414   2.004  11.532  0.8287 -0.7912  0.4193
 8493TIP3   OH246969   3.977   5.587  12.693 -0.6796  1.0541 -0.2209
 8493TIP3    H146970   3.914   5.629  12.752  0.0661  1.6063  0.1874
 8493TIP3    H246971   3.983   5.645  12.618 -0.1703  1.3374  0.0340
 8494TIP3   OH246972   2.446   0.837  16.240  0.3835 -0.3032 -0.1380
 8494TIP3    H146973   2.500   0.896  16.293  1.3489  0.3792 -1.8182
 8494TIP3    H246974   2.356   0.857  16.267  0.8784 -1.2538  2.4858
 8495TIP3   OH246975   5.760   6.496  13.139 -0.0609  0.2981  0.3687
 8495TIP3    H146976   5.728   6.480  13.228 -2.2836 -0.3024 -0.4672
 8495TIP3    H246977   5.710   6.572  13.109  0.7065  0.5269 -0.3741
 8496TIP3   OH246978   5.458   4.907  15.053  0.1132  0.2672 -0.1607
 8496TIP3    H146979   5.381   4.946  15.012 -0.7589 -0.6317  0.5389
 8496TIP3    H246980   5.518   4.980  15.067 -0.5443  0.9632 -0.8845
 8497TIP3   OH246981   4.762   4.966   6.558 -0.0051 -0.2395  0.1744
 8497TIP3    H146982   4.844   5.001   6.593  0.3556  0.1595 -1.0114
 8497TIP3    H246983   4.731   4.905   6.625  0.8682  0.1715  0.9751
 8498TIP3   OH246984   3.148   2.826   0.821  0.2448 -0.0602  0.2767
 8498TIP3    H146985   3.102   2.742   0.816 -2.1284  1.1865 -0.1288
 8498TIP3    H246986   3.146   2.849   0.914  0.9504 -0.4445  0.3970
 8499TIP3   OH246987   0.871   1.449  16.791  0.2925 -0.3496  0.0353
 8499TIP3    H146988   0.842   1.372  16.841  0.3419 -0.9346 -0.8094
 8499TIP3    H246989   0.798   1.510  16.796 -0.9036 -1.5652 -1.5728
 8500TIP3   OH246990   1.026   0.410   2.451  0.2551  0.4043  0.2500
 8500TIP3    H146991   1.030   0.502   2.424  2.3451  0.5284  0.8001
 8500TIP3    H246992   0.955   0.373   2.397  0.3228  1.9860 -1.0376
 8501TIP3   OH246993   1.664   4.792  10.486 -0.1095  0.3811 -0.2460
 8501TIP3    H146994   1.579   4.753  10.502 -0.1927  1.2093  1.4651
 8501TIP3    H246995   1.689   4.760  10.399 -1.4291 -1.1519 -0.0963
 8502TIP3   OH246996   2.461   4.898  16.529 -0.4486 -0.1714  0.1454
 8502TIP3    H146997   2.525   4.838  16.567  1.3420  0.6178 -1.4269
 8502TIP3    H246998   2.434   4.954  16.601  0.9704 -0.2731  0.7934
 8503TIP3   OH246999   1.564   3.457  15.691  0.0470 -0.2834 -0.7255
 8503TIP3    H147000   1.640   3.404  15.716 -0.8328 -1.8902 -1.3605
 8503TIP3    H247001   1.506   3.453  15.767 -0.3731 -0.9333 -1.0680
 8504TIP3   OH247002   3.141   1.419  14.608 -0.0797 -0.0465  1.0756
 8504TIP3    H147003   3.185   1.359  14.547 -0.2851  0.2285  0.6609
 8504TIP3    H247004   3.050   1.392  14.607 -0.5804  1.5506 -0.6631
 8505TIP3   OH247005   5.073   6.528  13.543 -0.0098 -0.1810 -0.1183
 8505TIP3    H147006   5.088   6.570  13.458 -2.3184  0.7536 -0.1441
 8505TIP3    H247007   5.113   6.588  13.606  1.4287 -0.7165 -0.4817
 8506TIP3   OH247008   2.649   5.971  12.337 -0.2489  0.2352 -0.2831
 8506TIP3    H147009   2.644   6.044  12.399 -2.1918  1.7449 -2.0383
 8506TIP3    H247010   2.653   6.014  12.251 -0.0232 -1.7647 -1.3221
 8507TIP3   OH247011   3.981   4.077   4.767  0.2956  1.0440 -0.2221
 8507TIP3    H147012   4.050   4.089   4.702  1.2736 -2.8703 -0.1421
 8507TIP3    H247013   4.027   4.067   4.850 -0.3719 -0.6190 -0.0056
 8508TIP3   OH247014   4.307   2.477  17.139 -0.5170  0.2309  0.0115
 8508TIP3    H147015   4.229   2.447  17.092 -1.4777  0.0713  1.6170
 8508TIP3    H247016   4.274   2.502  17.226  0.9391  1.8795  0.1520
 8509TIP3   OH247017   0.243   3.355   5.783  0.1169 -0.3291  0.0774
 8509TIP3    H147018   0.309   3.412   5.822 -1.3727  1.4543  0.1161
 8509TIP3    H247019   0.283   3.268   5.784  2.1817  0.5657  0.7010
 8510TIP3   OH247020   0.290   6.147  13.857 -0.0832  0.2806  0.2438
 8510TIP3    H147021   0.221   6.160  13.922 -0.4576 -0.4430  0.0046
 8510TIP3    H247022   0.365   6.117  13.908  0.3171  1.8080  0.6026
 8511TIP3   OH247023   4.566   6.103   5.100  0.0561 -0.2447 -0.3398
 8511TIP3    H147024   4.504   6.163   5.141 -0.6624 -0.6265 -0.8676
 8511TIP3    H247025   4.633   6.090   5.168  0.6556  1.7306 -0.4614
 8512TIP3   OH247026   6.019   5.444  14.544  0.8044  0.2679  0.1106
 8512TIP3    H147027   6.097   5.498  14.528  0.0357  1.4777  0.2676
 8512TIP3    H247028   5.968   5.494  14.608 -0.1982 -0.3949 -0.1471
 8513TIP3   OH247029   0.625   2.712   2.128 -0.3391 -0.1466 -0.0084
 8513TIP3    H147030   0.576   2.780   2.173  2.2359  0.7908  1.6209
 8513TIP3    H247031   0.608   2.729   2.035 -1.2417  1.5494  0.4146
 8514TIP3   OH247032   0.780   5.754  14.549  0.2044 -0.6375 -0.2817
 8514TIP3    H147033   0.773   5.673  14.498 -0.8069 -0.4385 -0.4799
 8514TIP3    H247034   0.724   5.816  14.503 -0.1168 -0.2280  0.6345
 8515TIP3   OH247035   5.272   4.459   5.119 -0.0569  0.7305  0.1850
 8515TIP3    H147036   5.309   4.509   5.193 -0.0410 -0.0906  0.7475
 8515TIP3    H247037   5.182   4.441   5.145 -0.7589  2.3368 -0.9885
 8516TIP3   OH247038   2.837   2.567  16.733 -0.3405  0.5538  0.4813
 8516TIP3    H147039   2.814   2.527  16.816 -1.8440  1.0702  0.3492
 8516TIP3    H247040   2.923   2.605  16.747  1.2659 -2.7563  0.5808
 8517TIP3   OH247041   0.675   3.685  11.213 -0.1929  0.4240  0.7122
 8517TIP3    H147042   0.580   3.690  11.213 -0.2922 -0.5561  2.7608
 8517TIP3    H247043   0.703   3.749  11.147 -2.2680  0.0363 -0.6374
 8518TIP3   OH247044   6.603   4.153  10.488 -0.0256  0.4849 -1.1149
 8518TIP3    H147045   6.657   4.126  10.563 -0.0345 -1.9340 -1.8843
 8518TIP3    H247046   6.513   4.143  10.519 -0.0225  0.4433 -1.1191
 8519TIP3   OH247047   2.900   0.015   0.249  0.6916  0.0841 -0.1499
 8519TIP3    H147048   2.915   0.035   0.157 -0.3904  2.5012  0.1094
 8519TIP3    H247049   2.840  -0.060   0.248  2.2369 -1.2027 -1.3213
 8520TIP3   OH247050   0.277   3.443  13.524  0.0261 -0.3419 -0.1509
 8520TIP3    H147051   0.254   3.523  13.478 -1.2643 -0.6962 -0.1437
 8520TIP3    H247052   0.361   3.463  13.566 -0.1411  0.9048 -0.3792
 8521TIP3   OH247053   3.562   1.169   4.450 -0.3606  0.1468  0.1700
 8521TIP3    H147054   3.582   1.155   4.358  0.5646  0.7654  0.2595
 8521TIP3    H247055   3.550   1.081   4.486 -0.3933 -0.1127 -0.4608
 8522TIP3   OH247056   6.228   0.220  14.132  0.5609 -0.5423 -0.2388
 8522TIP3    H147057   6.315   0.260  14.124  0.9585 -1.1175  0.9019
 8522TIP3    H247058   6.245   0.135  14.172 -0.7026  0.2992  2.3073
 8523TIP3   OH247059   1.172   2.010  14.780 -0.5866 -0.2762  0.0393
 8523TIP3    H147060   1.139   1.923  14.757  1.8655 -1.6317  1.2901
 8523TIP3    H247061   1.253   1.994  14.829  0.7828  2.7487 -0.9498
 8524TIP3   OH247062   1.913   2.045  14.604 -0.6709  0.5229 -0.0455
 8524TIP3    H147063   1.889   2.103  14.676 -2.5891 -1.2171  0.8421
 8524TIP3    H247064   1.968   1.978  14.644  1.1601  1.4235 -0.9631
 8525TIP3   OH247065   6.078   4.844  12.403 -0.3766 -0.1015  0.1546
 8525TIP3    H147066   6.138   4.892  12.460 -0.9066  0.3908  0.3046
 8525TIP3    H247067   6.121   4.841  12.318 -0.4658  0.8818  0.0730
 8526TIP3   OH247068   0.216   1.947  15.801  0.0720 -0.0421 -0.0551
 8526TIP3    H147069   0.197   2.039  15.782  0.0857 -0.0984 -0.3486
 8526TIP3    H247070   0.163   1.927  15.878 -2.1258 -0.5654 -1.6144
 8527TIP3   OH247071   4.665   0.303   1.835 -0.6140  0.0537 -0.3816
 8527TIP3    H147072   4.754   0.275   1.855 -0.7506  0.7252  1.3553
 8527TIP3    H247073   4.661   0.394   1.866 -0.8916  1.2888 -3.6359
 8528TIP3   OH247074   6.653   0.492  14.012  0.0712  0.5356 -0.0700
 8528TIP3    H147075   6.749   0.499  14.006  0.0938  0.6791  0.4705
 8528TIP3    H247076   6.627   0.459  13.926  0.6869 -0.3379  0.0631
 8529TIP3   OH247077   4.678   2.720  16.036 -0.1911  0.1603  0.3754
 8529TIP3    H147078   4.622   2.677  15.972 -0.9141 -0.3592  1.3325
 8529TIP3    H247079   4.748   2.656  16.052  0.3037  0.5175 -0.2855
 8530TIP3   OH247080   6.028   6.244   4.876 -0.3315  0.0289 -0.4740
 8530TIP3    H147081   6.093   6.174   4.883  1.4414  1.6851  0.9188
 8530TIP3    H247082   6.053   6.306   4.945 -2.3280  1.6203 -1.0946
 8531TIP3   OH247083   3.714   3.794   2.332 -0.4163  0.2809  0.3272
 8531TIP3    H147084   3.630   3.828   2.363 -0.2563  0.3955  0.6410
 8531TIP3    H247085   3.713   3.701   2.356 -1.3042 -0.2236 -1.4747
 8532TIP3   OH247086   1.250   3.705  11.935  0.9143  0.1214 -0.1829
 8532TIP3    H147087   1.290   3.767  11.996  0.0197  0.3183  0.2224
 8532TIP3    H247088   1.203   3.759  11.872 -1.1931 -0.1131  1.0880
 8533TIP3   OH247089   1.409   5.388  10.834 -0.5308 -0.5298  0.5469
 8533TIP3    H147090   1.407   5.356  10.743 -1.0930  0.2872  0.2668
 8533TIP3    H247091   1.496   5.427  10.843 -1.1086  0.9865 -0.2104
 8534TIP3   OH247092   3.345   3.346  14.660  0.1953  0.5948  0.0483
 8534TIP3    H147093   3.284   3.379  14.725  0.7580  0.8680  0.4508
 8534TIP3    H247094   3.291   3.297  14.598 -0.2106 -0.5675  1.2924
 8535TIP3   OH247095   1.678   0.015  13.285 -0.1245  0.0803  0.3877
 8535TIP3    H147096   1.635   0.100  13.276 -0.9271 -0.5330 -3.7184
 8535TIP3    H247097   1.716   0.016  13.373 -2.9606  3.2633  1.7867
 8536TIP3   OH247098   2.787   1.566   4.143 -0.2009  0.4125 -0.3057
 8536TIP3    H147099   2.852   1.630   4.173  0.9352 -1.1186  0.6005
 8536TIP3    H247100   2.797   1.492   4.202 -1.1349 -0.8380 -1.6586
 8537TIP3   OH247101   5.106   6.013  13.814 -0.2115 -0.3330 -0.5550
 8537TIP3    H147102   5.125   5.922  13.793  0.0745  0.1842 -2.9115
 8537TIP3    H247103   5.093   6.055  13.728 -3.3985  1.2085  0.5171
 8538TIP3   OH247104   2.887   4.016   1.233  0.2630  0.0980 -0.0147
 8538TIP3    H147105   2.918   3.954   1.168  0.9230  0.9708 -0.5614
 8538TIP3    H247106   2.859   4.092   1.182  1.1076  0.9312  0.7273
 8539TIP3   OH247107   3.057   5.139  12.902  0.4116  0.5064 -0.4484
 8539TIP3    H147108   3.050   5.049  12.933  0.7095  0.5121 -0.3652
 8539TIP3    H247109   3.070   5.131  12.808 -0.7237  0.4962 -0.6112
 8540TIP3   OH247110   0.872   5.742  17.012  0.3085  0.5401  0.0700
 8540TIP3    H147111   0.870   5.703  16.925  0.9611 -0.7671  0.6139
 8540TIP3    H247112   0.782   5.771  17.028 -0.1369 -0.5082 -0.4663
 8541TIP3   OH247113   3.971   1.739   4.684  0.2029  0.2478  0.0237
 8541TIP3    H147114   3.970   1.741   4.588  0.1094 -0.3401  0.0070
 8541TIP3    H247115   3.970   1.645   4.706  3.5088  0.2137  0.5612
 8542TIP3   OH247116   6.436   1.044   1.731  0.0178 -0.0120 -0.1887
 8542TIP3    H147117   6.466   1.020   1.819 -1.8439 -0.1286  0.4501
 8542TIP3    H247118   6.404   0.963   1.693  3.2552 -0.5679 -2.1194
 8543TIP3   OH247119   0.377   6.158  16.115 -0.2051  0.6908  0.0932
 8543TIP3    H147120   0.309   6.208  16.160 -0.9317 -0.1907  0.0017
 8543TIP3    H247121   0.456   6.173  16.166 -0.9346 -0.0101  1.4790
 8544TIP3   OH247122   0.280   0.790   0.673 -0.2328 -0.1709 -0.1397
 8544TIP3    H147123   0.250   0.699   0.667  0.0826 -0.2635 -0.3456
 8544TIP3    H247124   0.329   0.793   0.754 -0.0781 -0.2338 -0.2308
 8545TIP3   OH247125   3.637   0.904   4.489  0.0287 -0.2180  0.1356
 8545TIP3    H147126   3.592   0.869   4.566 -1.0954  0.2501 -0.2817
 8545TIP3    H247127   3.648   0.828   4.431 -0.0441 -0.3749  0.3258
 8546TIP3   OH247128   6.103   6.247  12.815 -0.2764 -0.0334 -0.3655
 8546TIP3    H147129   6.077   6.337  12.832  0.1922  0.0252  0.0642
 8546TIP3    H247130   6.197   6.244  12.836 -0.6021 -0.9829  1.0733
 8547TIP3   OH247131   0.750   1.435  15.344 -0.3293 -0.2902  0.3731
 8547TIP3    H147132   0.833   1.430  15.391  1.3172  0.6688 -2.2229
 8547TIP3    H247133   0.759   1.512  15.287 -2.3038 -1.1394 -1.2266
 8548TIP3   OH247134   4.012   6.574   5.976 -0.3049 -0.0830  0.8059
 8548TIP3    H147135   3.945   6.573   6.044  1.4697  1.4588  2.6911
 8548TIP3    H247136   3.976   6.632   5.908 -1.4799 -0.4493  1.0984
 8549TIP3   OH247137   1.869   4.704   0.352  0.0652 -0.2619  0.1592
 8549TIP3    H147138   1.789   4.756   0.352 -0.1786 -0.6162 -0.7548
 8549TIP3    H247139   1.927   4.749   0.291  0.1896 -0.5475  0.0637
 8550TIP3   OH247140   6.715   2.540   0.754  0.2907 -0.3568 -0.2453
 8550TIP3    H147141   6.755   2.536   0.841  0.7459 -0.1424 -0.4433
 8550TIP3    H247142   6.622   2.523   0.770  0.0255  1.5391  0.5322
 8551TIP3   OH247143   6.775   5.001  16.668 -0.6066 -0.5781 -0.0836
 8551TIP3    H147144   6.817   4.981  16.751  1.4818  0.2519 -0.8712
 8551TIP3    H247145   6.732   5.085  16.682  2.2106  1.0709 -0.5589
 8552TIP3   OH247146   5.626   2.183  14.113  0.3722 -0.0724  0.2442
 8552TIP3    H147147   5.719   2.160  14.123  0.1841 -0.7541  0.4906
 8552TIP3    H247148   5.623   2.278  14.127  1.0154 -0.0616  0.3401
 8553TIP3   OH247149   1.912   3.855   1.832 -0.4065 -0.2229 -0.0178
 8553TIP3    H147150   1.930   3.800   1.757  0.7878 -0.3390  0.3385
 8553TIP3    H247151   1.879   3.795   1.899 -2.8030  0.0563 -0.8262
 8554TIP3   OH247152   6.477   5.578  16.927 -0.2216  0.3631  0.0478
 8554TIP3    H147153   6.497   5.670  16.943 -0.3182  0.2781  0.6732
 8554TIP3    H247154   6.384   5.570  16.947 -0.0534 -0.0229  0.7069
 8555TIP3   OH247155   3.512   6.246  13.235 -0.0555  0.3770  0.0156
 8555TIP3    H147156   3.552   6.185  13.298 -2.0685 -0.0482  0.9523
 8555TIP3    H247157   3.427   6.208  13.215  0.4018  0.6404 -2.8498
 8556TIP3   OH247158   0.348   0.341  11.555 -0.3299 -0.3322  0.2744
 8556TIP3    H147159   0.352   0.270  11.491 -2.0149  0.0914 -0.3502
 8556TIP3    H247160   0.420   0.322  11.616  0.7724 -1.2146 -1.2347
 8557TIP3   OH247161   1.478   4.715  10.268  0.2961  0.5934  0.4554
 8557TIP3    H147162   1.476   4.696  10.362  0.8419 -0.9121  0.1884
 8557TIP3    H247163   1.388   4.703  10.239  0.3807 -0.3012  0.5477
 8558TIP3   OH247164   5.802   1.478  12.343 -0.1210  0.4084  0.9652
 8558TIP3    H147165   5.785   1.387  12.317  1.3411 -0.6152  3.3196
 8558TIP3    H247166   5.877   1.505  12.290  1.0355 -0.6772  1.9844
 8559TIP3   OH247167   2.245   0.020   0.811  0.1602 -0.3921 -0.0697
 8559TIP3    H147168   2.302  -0.038   0.761  0.2993  0.4095 -0.8880
 8559TIP3    H247169   2.156  -0.012   0.793  0.2041 -0.0536 -0.9360
 8560TIP3   OH247170   6.168   0.521   0.857  0.2471  0.2945  0.1186
 8560TIP3    H147171   6.176   0.554   0.767  2.3089  1.6392  0.7489
 8560TIP3    H247172   6.092   0.567   0.892 -1.2491 -1.0247 -1.1965
 8561TIP3   OH247173   6.692   3.629   3.928  0.2019  0.0100 -0.1238
 8561TIP3    H147174   6.629   3.559   3.941 -0.5954  0.6981 -0.2296
 8561TIP3    H247175   6.701   3.670   4.015  0.1281  0.2201 -0.2135
 8562TIP3   OH247176   1.106   5.906  14.250  0.0228  0.1039 -0.8261
 8562TIP3    H147177   1.059   5.841  14.197  0.2733 -0.5421 -0.2662
 8562TIP3    H247178   1.053   5.916  14.329  0.0379  0.5149 -0.8627
 8563TIP3   OH247179   2.030   2.555  13.029  0.5862  0.1196 -0.2256
 8563TIP3    H147180   1.989   2.472  13.004  0.7601  0.3409 -1.2791
 8563TIP3    H247181   2.115   2.529  13.065 -0.4988 -0.3591  2.1942
 8564TIP3   OH247182   0.867   4.152   3.698  1.1091 -0.4217 -0.1911
 8564TIP3    H147183   0.917   4.207   3.757  1.8444  0.2504 -1.3922
 8564TIP3    H247184   0.915   4.069   3.697  0.6587 -0.7089  0.7163
 8565TIP3   OH247185   3.566   4.966  15.603  0.0305 -0.6880  0.7090
 8565TIP3    H147186   3.571   4.914  15.523 -3.2588 -2.2493  1.3613
 8565TIP3    H247187   3.521   4.909  15.666  0.5746  1.2724  3.0219
 8566TIP3   OH247188   3.805   4.835   0.950  0.4418 -0.1950 -0.4017
 8566TIP3    H147189   3.894   4.863   0.931  0.8654 -0.3635  1.1930
 8566TIP3    H247190   3.815   4.769   1.020 -1.0889  2.3306  2.4350
 8567TIP3   OH247191   2.915   0.233   1.967  0.0481  0.3574  0.1438
 8567TIP3    H147192   2.853   0.177   1.920 -0.3230  0.1446  0.8762
 8567TIP3    H247193   2.883   0.322   1.952 -0.2833  0.2657  0.2898
 8568TIP3   OH247194   3.441   5.508   0.658  0.4357 -0.6278 -0.0667
 8568TIP3    H147195   3.526   5.466   0.670  0.8332 -0.3856 -1.7881
 8568TIP3    H247196   3.392   5.449   0.600 -0.5228 -0.6771  0.7560
 8569TIP3   OH247197   0.947   0.886  12.939 -0.2927  0.0720  0.1040
 8569TIP3    H147198   0.879   0.931  12.888 -2.1991  0.7317  2.9734
 8569TIP3    H247199   1.006   0.956  12.967 -0.0984 -0.0730  0.0585
 8570TIP3   OH247200   5.729   3.877   0.425 -0.5993 -0.1726  0.3416
 8570TIP3    H147201   5.732   3.940   0.354  1.4313  0.0142  0.5302
 8570TIP3    H247202   5.753   3.793   0.384  0.3400 -0.1073  0.7109
 8571TIP3   OH247203   2.051   4.127  13.552 -0.3258 -0.0107  0.6080
 8571TIP3    H147204   1.987   4.198  13.544 -0.2651  0.2930  2.3367
 8571TIP3    H247205   2.006   4.061  13.605 -0.6744 -1.6874 -1.6381
 8572TIP3   OH247206   2.233   2.958   0.406  0.2252 -0.5440 -0.3949
 8572TIP3    H147207   2.247   2.962   0.312  1.1224 -0.9964 -0.2951
 8572TIP3    H247208   2.198   2.871   0.422 -1.5070  0.0965 -0.4767
 8573TIP3   OH247209   2.167   6.234   3.046  0.9218 -0.3724 -0.0637
 8573TIP3    H147210   2.190   6.143   3.061  1.6979 -0.7404 -2.8445
 8573TIP3    H247211   2.118   6.260   3.123 -2.7241 -4.3040 -0.7034
 8574TIP3   OH247212   4.841   3.506  16.729 -0.3622  0.0456  0.0500
 8574TIP3    H147213   4.913   3.547  16.778  0.4505  0.7904 -1.6850
 8574TIP3    H247214   4.762   3.544  16.766  0.1828  0.0726  1.2327
 8575TIP3   OH247215   1.729   2.824   3.787  0.0296 -0.1239  0.2696
 8575TIP3    H147216   1.688   2.741   3.763 -1.4009  0.5889  0.1858
 8575TIP3    H247217   1.820   2.815   3.756 -0.1860 -1.5157 -0.0282
 8576TIP3   OH247218   5.540   5.786   3.018  0.6212 -0.4327  0.0606
 8576TIP3    H147219   5.461   5.830   3.048 -0.0894 -0.8492 -1.1337
 8576TIP3    H247220   5.611   5.846   3.040 -0.2082  0.7850 -0.5102
 8577TIP3   OH247221   0.101   6.016   2.342 -0.1327 -0.3402  0.1479
 8577TIP3    H147222   0.129   5.960   2.414 -2.7042  1.9545  3.2209
 8577TIP3    H247223   0.020   5.976   2.310 -1.1551  0.6767  1.3389
 8578TIP3   OH247224   1.764   5.560  16.372 -0.0587 -0.2404  0.3512
 8578TIP3    H147225   1.793   5.573  16.281  0.7527 -0.2054  0.6066
 8578TIP3    H247226   1.845   5.558  16.423 -0.4734 -0.8691  1.0058
 8579TIP3   OH247227   0.576   3.095  10.595 -0.0679  0.0354 -0.1096
 8579TIP3    H147228   0.617   3.140  10.521 -0.3412  0.7716  0.1810
 8579TIP3    H247229   0.649   3.056  10.643  0.2677  1.0135  0.1886
 8580TIP3   OH247230   2.535   3.161   3.049  0.1321  0.5747 -0.0625
 8580TIP3    H147231   2.591   3.085   3.034 -0.6489  0.1912 -1.1369
 8580TIP3    H247232   2.571   3.229   2.991 -0.1639  0.5141 -0.3152
 8581TIP3   OH247233   3.903   5.099  12.558 -0.7221  0.0540  0.0798
 8581TIP3    H147234   3.838   5.059  12.499 -2.1958  1.6155  0.5675
 8581TIP3    H247235   3.895   5.193  12.542 -1.1477  0.5357  2.7283
 8582TIP3   OH247236   1.254   1.014  16.661 -0.1928 -0.2833  0.7552
 8582TIP3    H147237   1.249   1.058  16.576 -0.1990  3.8027  2.6326
 8582TIP3    H247238   1.345   1.025  16.689 -0.1447 -1.7161  1.2719
 8583TIP3   OH247239   2.080   3.451   0.480  0.2565 -0.4444  0.0824
 8583TIP3    H147240   2.051   3.378   0.425  1.4452 -0.4696 -0.5406
 8583TIP3    H247241   2.024   3.524   0.452  1.2828 -0.2753 -1.7077
 8584TIP3   OH247242   3.050   1.960   0.033  0.5897  0.1905  0.3744
 8584TIP3    H147243   2.988   2.002  -0.026  1.3230  1.3770  0.4136
 8584TIP3    H247244   3.075   1.879  -0.013 -0.9183 -0.2829  0.3488
 8585TIP3   OH247245   5.426   0.956   4.489 -0.0314  0.7178 -0.8495
 8585TIP3    H147246   5.481   0.912   4.553 -0.5377  0.8092 -0.3446
 8585TIP3    H247247   5.343   0.969   4.534 -0.6239  0.1621 -1.7555
 8586TIP3   OH247248   6.360   2.507  16.754  0.6512  0.1868  0.3852
 8586TIP3    H147249   6.418   2.464  16.691  0.8804 -1.1314  1.4404
 8586TIP3    H247250   6.273   2.475  16.731  0.4451  1.2731 -0.4754
 8587TIP3   OH247251   2.001   6.744  12.236 -0.3389  0.4534  0.5887
 8587TIP3    H147252   1.998   6.736  12.332 -0.6958  0.2424  0.5627
 8587TIP3    H247253   1.925   6.798  12.214 -0.6684 -0.0812  0.3737
 8588TIP3   OH247254   0.120   5.080   5.879 -0.4108 -0.0296  0.4978
 8588TIP3    H147255   0.073   5.139   5.939 -1.2987 -1.1750  0.9627
 8588TIP3    H247256   0.157   5.013   5.936  0.7995  0.1966 -0.0014
 8589TIP3   OH247257   0.965   3.478  11.352 -0.0738  0.7623  0.4687
 8589TIP3    H147258   0.885   3.514  11.390 -1.2946  1.8049 -2.6884
 8589TIP3    H247259   1.024   3.553  11.345 -0.0247  0.6821 -0.0125
 8590TIP3   OH247260   5.459   2.896  12.830  0.5542  0.3192  0.3502
 8590TIP3    H147261   5.441   2.966  12.767 -0.5557 -0.3353 -0.1047
 8590TIP3    H247262   5.541   2.857  12.801  0.2150  0.2335 -0.5103
 8591TIP3   OH247263   0.430   3.616  12.724 -0.0702 -0.0515  0.4757
 8591TIP3    H147264   0.344   3.658  12.728  0.7958  2.1852 -1.5310
 8591TIP3    H247265   0.489   3.680  12.764  1.1147  0.1028 -1.4031
 8592TIP3   OH247266   5.676   4.516  13.797  0.0542  0.2571 -0.4059
 8592TIP3    H147267   5.761   4.519  13.840 -0.1755 -1.0411  0.1785
 8592TIP3    H247268   5.613   4.515  13.869 -0.3620 -1.1903 -0.7599
 8593TIP3   OH247269   4.021   5.093  14.149  0.4754  0.0400  0.1999
 8593TIP3    H147270   4.089   5.032  14.178  0.6089 -0.1193 -0.4350
 8593TIP3    H247271   4.038   5.173  14.199 -0.7924 -0.9665  2.4238
 8594TIP3   OH247272   0.869   5.693   3.150 -0.4249 -0.3862  0.2022
 8594TIP3    H147273   0.841   5.779   3.179  0.1968  0.3065 -1.1282
 8594TIP3    H247274   0.959   5.706   3.120  0.9105 -2.2309  3.0259
 8595TIP3   OH247275   1.406   0.985   1.700  0.5740 -0.2527 -0.3019
 8595TIP3    H147276   1.492   0.985   1.743 -0.6371 -1.2302  2.3100
 8595TIP3    H247277   1.344   0.962   1.770 -1.7783 -0.0417 -2.2012
 8596TIP3   OH247278   1.115   2.063  16.462  0.2894 -0.4416 -0.2400
 8596TIP3    H147279   1.048   2.037  16.526 -0.7765  0.9343 -0.7462
 8596TIP3    H247280   1.186   2.001  16.475 -0.8781 -1.6403  0.6741
 8597TIP3   OH247281   4.957   1.067  12.549  0.3715 -0.2339 -0.0865
 8597TIP3    H147282   4.977   1.089  12.640 -0.2661 -0.6170  0.1564
 8597TIP3    H247283   5.042   1.055  12.508  0.7006 -2.7490  1.1322
 8598TIP3   OH247284   4.376   5.109  14.065 -0.2820  0.4250  0.3826
 8598TIP3    H147285   4.394   5.193  14.106 -1.4864  0.9670 -0.1568
 8598TIP3    H247286   4.414   5.044  14.124  0.3399  1.3267  0.9841
 8599TIP3   OH247287   0.659   4.013   2.046 -0.2223 -0.3555 -0.2029
 8599TIP3    H147288   0.614   4.005   2.129  0.0073  1.4274  0.1427
 8599TIP3    H247289   0.726   3.945   2.047  1.5241  1.2248  2.2788
 8600TIP3   OH247290   3.146   1.515  15.399  0.0361 -1.1325 -0.0769
 8600TIP3    H147291   3.135   1.435  15.451  1.4303 -0.3997  1.4523
 8600TIP3    H247292   3.081   1.576  15.435  2.1352 -0.0350  2.2004
 8601TIP3   OH247293   5.195   1.565   5.487 -1.0635  0.1038  0.0065
 8601TIP3    H147294   5.154   1.479   5.475 -0.5543 -0.0115 -1.0614
 8601TIP3    H247295   5.155   1.619   5.419 -0.3826  0.3298 -0.2217
 8602TIP3   OH247296   3.942   1.419  11.774 -0.3847  0.4576  0.2319
 8602TIP3    H147297   3.893   1.337  11.772  3.2349 -1.9444  0.2214
 8602TIP3    H247298   3.959   1.438  11.682 -0.2467  0.5395  0.2738
 8603TIP3   OH247299   2.967   2.707  15.500 -0.2303 -0.0325  0.6981
 8603TIP3    H147300   2.948   2.627  15.451 -1.0481  0.8890 -0.5633
 8603TIP3    H247301   2.883   2.733  15.538 -0.6069  1.5756 -1.0590
 8604TIP3   OH247302   5.609   6.635   5.161  0.0463  0.0928  0.2290
 8604TIP3    H147303   5.579   6.630   5.252 -0.1588  2.6102  0.3757
 8604TIP3    H247304   5.530   6.626   5.108 -0.0587  0.1747  0.3708
 8605TIP3   OH247305   1.704   0.594  11.631 -0.7148 -0.0419 -0.1134
 8605TIP3    H147306   1.758   0.653  11.684 -3.0649  1.5688  0.6289
 8605TIP3    H247307   1.747   0.592  11.545  0.6962  0.8844  0.5413
 8606TIP3   OH247308   3.882   4.854  11.637  0.2645  0.0231  0.4347
 8606TIP3    H147309   3.828   4.842  11.715 -0.1931 -1.1845 -0.0377
 8606TIP3    H247310   3.958   4.798  11.651 -0.2917 -0.9846 -0.3804
 8607TIP3   OH247311   5.667   4.370   1.357 -0.3618 -0.6709  0.2087
 8607TIP3    H147312   5.634   4.282   1.341 -3.0974  0.2515  0.2000
 8607TIP3    H247313   5.594   4.416   1.398  0.8376  1.7147 -0.1299
 8608TIP3   OH247314   5.606   5.330  14.452  0.0579  0.6357 -0.1493
 8608TIP3    H147315   5.685   5.358  14.407 -0.1480  1.2533 -0.1360
 8608TIP3    H247316   5.570   5.410  14.490 -0.0030  0.1939  0.7507
 8609TIP3   OH247317   2.756   3.119   0.878  0.1123  0.0317  0.2054
 8609TIP3    H147318   2.784   3.126   0.970 -1.5064  0.5416  0.6938
 8609TIP3    H247319   2.837   3.130   0.828  1.0446 -0.3220  1.5627
 8610TIP3   OH247320   4.449   6.006   4.209 -0.2493  0.1342  0.1018
 8610TIP3    H147321   4.530   6.053   4.189 -0.4990  0.9754  0.9639
 8610TIP3    H247322   4.477   5.918   4.234  0.5062  0.6868  1.3083
 8611TIP3   OH247323   1.543   1.675   0.948  0.1845  0.2390  0.5667
 8611TIP3    H147324   1.511   1.619   1.019 -0.6111  0.9260  0.7645
 8611TIP3    H247325   1.539   1.764   0.985 -0.0160  0.5787 -0.2639
 8612TIP3   OH247326   0.570   4.889   2.658 -0.4132  0.2843  0.4919
 8612TIP3    H147327   0.532   4.853   2.578  1.0958  2.0378 -1.0823
 8612TIP3    H247328   0.519   4.848   2.728 -0.3008 -3.0621 -1.2093
 8613TIP3   OH247329   1.157   3.201  13.828  0.4659  0.2466  0.9201
 8613TIP3    H147330   1.195   3.134  13.772 -0.0624  0.6590  0.0384
 8613TIP3    H247331   1.150   3.160  13.914 -2.0623 -1.7234 -0.0844
 8614TIP3   OH247332   0.314   2.902   3.126  0.5388  0.2104  0.2324
 8614TIP3    H147333   0.390   2.847   3.143 -0.2721 -0.8530  0.5640
 8614TIP3    H247334   0.319   2.971   3.192  0.3275 -0.8110  1.3583
 8615TIP3   OH247335   6.261   1.150   2.486 -0.4669  0.2432  0.2212
 8615TIP3    H147336   6.262   1.121   2.395 -1.0078 -1.1102  0.6163
 8615TIP3    H247337   6.253   1.069   2.537 -1.2954  1.0453  1.4310
 8616TIP3   OH247338   1.366   6.063  15.831  0.3183  0.2000  0.5278
 8616TIP3    H147339   1.318   5.980  15.822 -0.4648  0.5450  1.3058
 8616TIP3    H247340   1.457   6.040  15.817  0.0575 -0.7119  0.2608
 8617TIP3   OH247341   0.817   5.368   2.434  0.4494 -0.4227 -0.0882
 8617TIP3    H147342   0.855   5.308   2.370 -1.3108 -1.3738 -0.3051
 8617TIP3    H247343   0.792   5.312   2.507 -0.5330  0.1306  0.0255
 8618TIP3   OH247344   5.001   2.393  12.919 -0.2516  0.1570  0.0882
 8618TIP3    H147345   5.038   2.307  12.901  0.6196  0.9234 -2.1530
 8618TIP3    H247346   5.061   2.431  12.984 -0.0112 -0.5009  0.2657
 8619TIP3   OH247347   6.348   2.809   2.077 -0.2827 -0.1806 -0.0704
 8619TIP3    H147348   6.274   2.855   2.116  0.4852  0.4739  0.6826
 8619TIP3    H247349   6.338   2.718   2.106  1.3198  0.5820  3.5649
 8620TIP3   OH247350   3.142   0.521   3.851  0.0411  0.7100 -0.3061
 8620TIP3    H147351   3.052   0.537   3.821 -0.7393 -2.1532  0.2077
 8620TIP3    H247352   3.150   0.571   3.932 -1.3045  0.5733 -0.0697
 8621TIP3   OH247353   1.339   6.082   2.189  0.0528  0.1680 -0.1040
 8621TIP3    H147354   1.291   6.137   2.251  1.5482 -0.9994  2.2462
 8621TIP3    H247355   1.285   6.004   2.179 -0.9000  0.9646 -1.5233
 8622TIP3   OH247356   1.091   1.851   2.324 -0.3168 -0.1486  0.5955
 8622TIP3    H147357   1.076   1.843   2.230  0.7176  1.6230  0.2284
 8622TIP3    H247358   1.184   1.873   2.331 -0.5117  0.3166  1.9976
 8623TIP3   OH247359   6.232   2.803   3.562  0.1894  0.6819  0.0191
 8623TIP3    H147360   6.320   2.824   3.592  0.8178 -0.0885 -1.2014
 8623TIP3    H247361   6.241   2.790   3.468 -0.8022 -1.4621  0.1518
 8624TIP3   OH247362   1.161   1.864   1.100  0.1297  0.9030 -0.2765
 8624TIP3    H147363   1.191   1.944   1.143  1.2953  0.3105  0.0520
 8624TIP3    H247364   1.068   1.857   1.124  0.1213  1.9197  0.0411
 8625TIP3   OH247365   0.306   0.668  17.021 -0.0814  0.4197 -0.2878
 8625TIP3    H147366   0.283   0.759  17.039  2.3756  1.0971 -0.3444
 8625TIP3    H247367   0.291   0.623  17.105 -1.0567  0.8882 -0.1895
 8626TIP3   OH247368   6.026   2.054  14.637 -0.1147  0.1566 -0.3215
 8626TIP3    H147369   5.973   2.017  14.708  1.2232 -1.0008  0.1346
 8626TIP3    H247370   5.971   2.123  14.599 -1.1357  0.3521  1.3923
 8627TIP3   OH247371   1.392   0.477   4.343 -0.2198  0.5110 -0.4534
 8627TIP3    H147372   1.427   0.525   4.418 -0.2020  0.5437 -0.4822
 8627TIP3    H247373   1.420   0.386   4.357 -2.4400 -0.0298  0.9501
 8628TIP3   OH247374   5.211   5.524   3.097  0.4739  0.2890 -0.0388
 8628TIP3    H147375   5.270   5.455   3.127 -1.8339 -1.5282  0.6685
 8628TIP3    H247376   5.218   5.522   3.001  0.1210 -1.3081 -0.0651
 8629TIP3   OH247377   2.048   4.282   3.873  0.1153 -0.1716 -0.3125
 8629TIP3    H147378   2.115   4.255   3.810  0.0337 -0.0986 -0.4320
 8629TIP3    H247379   2.024   4.202   3.919 -1.3325 -0.6725 -1.8106
 8630TIP3   OH247380   0.520   3.915  16.085 -0.6674 -0.6683  0.3861
 8630TIP3    H147381   0.466   3.980  16.131  2.5288  0.3199  3.1859
 8630TIP3    H247382   0.514   3.837  16.139 -0.7986 -1.1972 -0.3817
 8631TIP3   OH247383   3.771   5.623  10.735 -0.0104  0.3342  0.0092
 8631TIP3    H147384   3.715   5.694  10.703 -1.0610  0.1586  1.3674
 8631TIP3    H247385   3.722   5.543  10.715  1.1295 -0.0370 -1.4425
 8632TIP3   OH247386   5.015   3.453  11.267 -0.0424  0.0151 -0.7141
 8632TIP3    H147387   5.065   3.534  11.275  0.9332 -0.7072  1.1122
 8632TIP3    H247388   4.931   3.479  11.229 -0.1792  2.0669  0.8636
 8633TIP3   OH247389   2.298   1.645  11.462  0.2370 -0.3802 -0.2243
 8633TIP3    H147390   2.263   1.637  11.373 -0.7658 -0.1272  0.1273
 8633TIP3    H247391   2.321   1.737  11.472 -0.0879 -0.3130 -0.0737
 8634TIP3   OH247392   4.071   5.629   2.422  0.3223  0.1448 -0.1720
 8634TIP3    H147393   4.159   5.649   2.452 -0.0854  1.0721  0.4493
 8634TIP3    H247394   4.030   5.714   2.407 -1.0633 -0.1995  1.3585
 8635TIP3   OH247395   5.339   0.129  16.432 -0.4962  0.3997 -0.3430
 8635TIP3    H147396   5.347   0.034  16.434 -1.5534  0.3058  1.0303
 8635TIP3    H247397   5.424   0.162  16.459  0.0480 -0.1308 -1.3640
 8636TIP3   OH247398   2.635   5.379   1.238  0.2296  0.2601  0.2954
 8636TIP3    H147399   2.559   5.358   1.184  0.4310 -0.1130  0.1462
 8636TIP3    H247400   2.600   5.426   1.313  0.0196  1.3944 -0.4972
 8637TIP3   OH247401   2.320   4.165  12.165  0.5428 -0.0156 -0.1191
 8637TIP3    H147402   2.403   4.124  12.140  1.3035  1.1551  0.3756
 8637TIP3    H247403   2.272   4.096  12.210  0.4200 -1.2669 -2.0772
 8638TIP3   OH247404   5.355   0.521   0.899 -0.0829 -0.3602 -0.0355
 8638TIP3    H147405   5.275   0.560   0.865  0.4545  0.2725 -0.6287
 8638TIP3    H247406   5.407   0.596   0.928 -0.5330 -0.8821  2.2603
 8639TIP3   OH247407   6.542   3.051   3.945  0.5620  0.1717  0.5325
 8639TIP3    H147408   6.483   3.088   3.878  0.7409 -3.4479 -1.8977
 8639TIP3    H247409   6.487   3.043   4.023 -1.3788 -0.5060 -0.8347
 8640TIP3   OH247410   2.291   1.222   0.580  0.4207 -0.1279  0.2480
 8640TIP3    H147411   2.343   1.142   0.566  1.4498  0.5807 -0.1108
 8640TIP3    H247412   2.292   1.267   0.496  1.2959  1.0888  0.8719
 8641TIP3   OH247413   2.638   1.919   1.664  0.1184  0.3794 -0.1598
 8641TIP3    H147414   2.674   1.946   1.749  2.4067 -1.6400 -0.3707
 8641TIP3    H247415   2.584   1.843   1.684  0.6992 -0.1286 -0.5087
 8642TIP3   OH247416   0.349   2.573  14.039  0.2363 -0.0802  0.6092
 8642TIP3    H147417   0.338   2.557  13.945 -0.3622 -0.7875  0.7950
 8642TIP3    H247418   0.395   2.657  14.043  0.8467 -0.3493 -0.3268
 8643TIP3   OH247419   5.832   2.398   0.359  0.2572  0.1240 -0.0140
 8643TIP3    H147420   5.887   2.475   0.374 -0.5218  0.8568 -0.8435
 8643TIP3    H247421   5.759   2.408   0.420  0.6555 -0.4843  0.5806
 8644TIP3   OH247422   6.220   3.694  13.751 -0.1317 -0.8058 -0.7277
 8644TIP3    H147423   6.240   3.787  13.761 -0.7810 -0.7499  0.1708
 8644TIP3    H247424   6.214   3.661  13.840  1.1096 -1.9481 -1.0421
 8645TIP3   OH247425   2.946   1.492   6.028  0.2904  0.3698 -0.2335
 8645TIP3    H147426   2.988   1.437   5.962  1.0236 -0.1149  0.6166
 8645TIP3    H247427   3.011   1.500   6.098  0.2824  2.4507 -0.3774
 8646TIP3   OH247428   3.215   2.186  11.327  0.7160  0.0161 -0.0480
 8646TIP3    H147429   3.268   2.255  11.288 -0.0594  0.6485  0.0036
 8646TIP3    H247430   3.207   2.120  11.259  1.2459  0.0852 -0.1827
 8647TIP3   OH247431   5.213   3.597  12.455  0.1956 -0.2996  0.0562
 8647TIP3    H147432   5.297   3.639  12.440 -0.0985 -0.3095 -1.9439
 8647TIP3    H247433   5.157   3.629  12.384 -1.4555 -0.4119  1.2341
 8648TIP3   OH247434   3.016   5.163  14.664  0.5180 -0.0039  0.3192
 8648TIP3    H147435   3.109   5.187  14.663  1.0969 -1.9018 -2.1813
 8648TIP3    H247436   3.013   5.077  14.623 -2.4958  0.7169 -1.2680
 8649TIP3   OH247437   5.449   1.451  13.126  0.3222  0.4327 -0.6222
 8649TIP3    H147438   5.493   1.532  13.099  0.6782 -0.1263 -1.7925
 8649TIP3    H247439   5.467   1.390  13.054 -0.9483 -0.3237 -0.3084
 8650TIP3   OH247440   0.160   2.303  13.826 -0.1902  0.0984 -0.2292
 8650TIP3    H147441   0.135   2.392  13.799 -0.4476  0.3975  0.9581
 8650TIP3    H247442   0.196   2.314  13.914  0.4065 -0.8892 -0.3434
 8651TIP3   OH247443   1.547   0.168  15.985 -0.4434  0.1194  0.2283
 8651TIP3    H147444   1.629   0.188  15.939 -1.0055 -0.4986 -1.0915
 8651TIP3    H247445   1.487   0.236  15.955 -0.8477 -0.3499 -0.0163
 8652TIP3   OH247446   6.555   1.742  11.756 -0.3708  0.6289 -0.0722
 8652TIP3    H147447   6.591   1.810  11.700  0.0753 -0.6663 -1.4322
 8652TIP3    H247448   6.631   1.710  11.806  0.1178 -0.9423 -1.7073
 8653TIP3   OH247449   1.725   3.412   1.471  0.1135 -0.3596 -0.1334
 8653TIP3    H147450   1.745   3.504   1.487  0.0617 -0.2132 -0.8893
 8653TIP3    H247451   1.629   3.409   1.463  0.0109 -0.6674  1.0175
 8654TIP3   OH247452   5.894   5.691   2.264 -0.2760 -0.6786 -0.6470
 8654TIP3    H147453   5.935   5.635   2.331 -0.4589 -1.7068 -1.3691
 8654TIP3    H247454   5.804   5.704   2.295  0.0891  0.2024  0.1038
 8655TIP3   OH247455   1.382   3.248  16.154  0.5641 -0.3879 -0.1246
 8655TIP3    H147456   1.402   3.195  16.232 -2.6130  0.6283  1.5415
 8655TIP3    H247457   1.356   3.185  16.088 -2.0435 -1.1312  1.4620
 8656TIP3   OH247458   2.566   2.958   5.434 -0.2853 -0.0442 -0.4264
 8656TIP3    H147459   2.484   3.003   5.454 -1.0676 -1.2841 -0.7570
 8656TIP3    H247460   2.545   2.865   5.439  1.1249 -0.3958 -0.4431
 8657TIP3   OH247461   1.156   3.852  13.654 -0.3536 -0.4081  0.0002
 8657TIP3    H147462   1.139   3.940  13.688 -0.8995 -0.9087  1.0908
 8657TIP3    H247463   1.245   3.856  13.619 -0.8841  0.9595 -1.3072
 8658TIP3   OH247464   3.876   2.824  14.718 -0.0819  0.7077  0.0787
 8658TIP3    H147465   3.841   2.753  14.771 -2.0113  0.3481 -1.5452
 8658TIP3    H247466   3.799   2.863  14.676  1.2470  1.5560 -1.7182
 8659TIP3   OH247467   5.376   4.146  14.481  0.3094  0.0211 -0.5403
 8659TIP3    H147468   5.322   4.089  14.536  0.9012  0.2922  0.3348
 8659TIP3    H247469   5.348   4.126  14.391 -0.9258 -0.1692 -0.1298
 8660TIP3   OH247470   1.294   1.308   2.804  0.0846  0.2403  0.3737
 8660TIP3    H147471   1.273   1.401   2.795 -0.4262  0.0997  0.0162
 8660TIP3    H247472   1.356   1.304   2.876  0.6504  0.9339 -0.0631
 8661TIP3   OH247473   1.549   4.254   1.414  0.3669  0.4028  0.2054
 8661TIP3    H147474   1.624   4.215   1.370  0.0716 -0.7980  0.7172
 8661TIP3    H247475   1.545   4.344   1.381  2.6419  0.8345  0.9630
 8662TIP3   OH247476   3.746   3.793  13.100  0.7256 -1.3691 -0.1750
 8662TIP3    H147477   3.699   3.802  13.017  1.5768  0.4901 -0.5084
 8662TIP3    H247478   3.678   3.790  13.166  0.0517  0.2376 -0.7334
 8663TIP3   OH247479   0.781   5.677   5.449 -0.3646  0.1602  0.1338
 8663TIP3    H147480   0.865   5.723   5.439 -0.8293  0.8399 -0.7852
 8663TIP3    H247481   0.738   5.722   5.521 -0.6437  0.9360 -0.4954
 8664TIP3   OH247482   1.082   4.418  14.188 -0.4272  0.1467  0.1582
 8664TIP3    H147483   1.128   4.414  14.272  2.3148 -1.7076 -1.2538
 8664TIP3    H247484   1.019   4.346  14.192 -0.3963  0.1466  0.6970
 8665TIP3   OH247485   3.300   0.907   5.926  1.2134 -0.2816  0.2500
 8665TIP3    H147486   3.317   1.001   5.933  2.1132 -0.4525  0.5205
 8665TIP3    H247487   3.204   0.900   5.930  1.1736  0.5214  1.6303
 8666TIP3   OH247488   0.366   6.164  15.208  0.4674  0.7513 -0.2016
 8666TIP3    H147489   0.359   6.258  15.186 -1.4598  0.7344  0.1971
 8666TIP3    H247490   0.298   6.123  15.155  2.7517 -0.8000 -2.1104
 8667TIP3   OH247491   2.366   6.676  11.903 -0.3149  0.0789 -0.0126
 8667TIP3    H147492   2.398   6.758  11.942 -2.2265  1.9333 -2.0395
 8667TIP3    H247493   2.286   6.656  11.952  0.2939 -0.7598  0.6557
 8668TIP3   OH247494   3.272   3.541   4.067  0.1411  0.3326  0.1021
 8668TIP3    H147495   3.178   3.530   4.049  0.1318  2.2396 -1.4388
 8668TIP3    H247496   3.275   3.607   4.136  0.3477 -1.5352  1.9429
 8669TIP3   OH247497   0.407   5.739  13.155 -0.7169  0.1881  0.2533
 8669TIP3    H147498   0.485   5.740  13.210 -0.8534  0.3880  0.4454
 8669TIP3    H247499   0.429   5.797  13.082 -0.3566 -0.4605 -0.1555
 8670TIP3   OH247500   0.218   2.482  16.301  0.2280  0.2380 -0.2923
 8670TIP3    H147501   0.240   2.565  16.260 -0.6820  0.7176  0.1640
 8670TIP3    H247502   0.125   2.489  16.323  0.3655 -0.5102  0.6301
 8671TIP3   OH247503   3.747   3.752  14.901  0.0782 -0.4075 -0.2066
 8671TIP3    H147504   3.681   3.772  14.834 -1.2245  0.2588  1.2049
 8671TIP3    H247505   3.831   3.769  14.858 -0.7514  1.6869 -1.1552
 8672TIP3   OH247506   4.250   6.616  14.766  0.1549 -0.0253  0.0895
 8672TIP3    H147507   4.310   6.542  14.762  0.1235 -0.0575  0.2085
 8672TIP3    H247508   4.163   6.575  14.765  0.0979 -0.1736  3.1276
 8673TIP3   OH247509   6.435   5.477   4.322  0.4839  0.2953 -0.7423
 8673TIP3    H147510   6.478   5.450   4.240 -0.1139  0.5785 -1.1518
 8673TIP3    H247511   6.432   5.572   4.317 -0.1021  0.2809 -0.6706
 8674TIP3   OH247512   5.499   5.521  14.641  0.3366 -0.0450  0.0455
 8674TIP3    H147513   5.440   5.595  14.648 -0.4290 -0.6268 -0.1214
 8674TIP3    H247514   5.586   5.558  14.657  0.1635  1.1644 -1.5152
 8675TIP3   OH247515   4.926   3.969  13.852 -0.7068 -0.1163 -0.3122
 8675TIP3    H147516   4.920   4.065  13.850 -1.2540 -0.1444 -0.1681
 8675TIP3    H247517   4.913   3.946  13.944  3.3419 -0.1138  0.4294
 8676TIP3   OH247518   3.042   0.817   2.369 -0.3995 -0.0774 -0.0963
 8676TIP3    H147519   2.995   0.851   2.446 -2.2123  1.5509 -1.7952
 8676TIP3    H247520   3.044   0.722   2.383 -1.3980  0.0937  1.5694
 8677TIP3   OH247521   1.569   5.752  15.140  0.1065 -0.0982 -0.4602
 8677TIP3    H147522   1.489   5.743  15.192  1.2113  0.6160  1.4911
 8677TIP3    H247523   1.610   5.666  15.146  1.0057  0.4101  1.2885
 8678TIP3   OH247524   3.543   0.505  15.986 -0.3741  0.1179 -0.3454
 8678TIP3    H147525   3.463   0.538  16.026 -0.1680  0.4595 -0.2150
 8678TIP3    H247526   3.608   0.573  16.001  0.4293 -0.9100  1.1338
 8679TIP3   OH247527   0.604   4.639   2.918 -0.3399  0.2636 -0.1633
 8679TIP3    H147528   0.659   4.710   2.951 -1.9471  1.0723  0.8897
 8679TIP3    H247529   0.525   4.683   2.886 -0.9065 -0.9741 -0.5156
 8680TIP3   OH247530   5.925   5.133  14.156  0.3447 -0.3034  0.2282
 8680TIP3    H147531   5.863   5.099  14.092 -0.2922  2.5771 -0.8415
 8680TIP3    H247532   6.011   5.115  14.118  0.0918 -1.5419  0.2061
 8681TIP3   OH247533   1.846   0.689  14.450  0.1348 -0.5817  0.0290
 8681TIP3    H147534   1.889   0.687  14.365  0.6191 -0.8130  0.2734
 8681TIP3    H247535   1.869   0.605  14.490  0.6507 -0.1069  0.7452
 8682TIP3   OH247536   0.961   6.112  12.956  0.3259  0.1874  0.2233
 8682TIP3    H147537   0.893   6.179  12.951  1.8771  1.7866 -0.5911
 8682TIP3    H247538   1.021   6.144  13.023  1.2484 -0.2218 -0.3849
 8683TIP3   OH247539   0.989   3.113   5.362 -0.1997  0.0771  0.2569
 8683TIP3    H147540   0.925   3.146   5.426 -0.3754 -3.4644  2.1632
 8683TIP3    H247541   0.938   3.057   5.304  0.9041 -2.2122  1.3539
 8684TIP3   OH247542   2.100   1.087   3.442  0.3129 -0.4482  0.9258
 8684TIP3    H147543   2.026   1.115   3.497  0.6375 -0.6773  1.4893
 8684TIP3    H247544   2.177   1.098   3.498  0.6725 -0.4854  0.4403
 8685TIP3   OH247545   5.268   1.684   1.328  0.0148  0.0757 -0.2804
 8685TIP3    H147546   5.293   1.638   1.248 -0.6739  0.5372 -0.7794
 8685TIP3    H247547   5.318   1.642   1.397  0.9503 -0.0493 -1.0183
 8686TIP3   OH247548   4.717   6.045   2.133  0.6491 -0.4824 -0.5268
 8686TIP3    H147549   4.636   6.091   2.111  0.0433 -0.7523  1.0085
 8686TIP3    H247550   4.689   5.957   2.158  1.4030 -0.5342  0.1735
 8687TIP3   OH247551   4.636   3.987   5.589 -0.0066 -0.2804  0.3021
 8687TIP3    H147552   4.692   3.977   5.666  0.5767  1.2501  0.1100
 8687TIP3    H247553   4.570   4.050   5.616 -1.2549 -1.5257  0.2859
 8688TIP3   OH247554   2.025   1.107  11.835  0.4067 -0.8698 -0.1678
 8688TIP3    H147555   2.031   1.202  11.835 -1.0756 -0.7258 -1.3512
 8688TIP3    H247556   1.932   1.089  11.842  0.6964 -2.2494  0.4093
 8689TIP3   OH247557   2.465   2.211  11.605  0.1409  0.9222 -0.3862
 8689TIP3    H147558   2.497   2.298  11.583  0.8844  1.2861  1.8420
 8689TIP3    H247559   2.526   2.179  11.672 -0.5118 -1.0358 -0.6539
 8690TIP3   OH247560   0.747   0.766   3.893 -0.1172  0.4140 -0.0673
 8690TIP3    H147561   0.825   0.820   3.905 -0.4497  0.9395 -0.2038
 8690TIP3    H247562   0.679   0.812   3.943 -0.4367  0.1982 -0.3016
 8691TIP3   OH247563   3.519   6.160   1.915 -0.1997  0.0764  0.4309
 8691TIP3    H147564   3.432   6.126   1.930 -0.2532  0.9370  2.3532
 8691TIP3    H247565   3.576   6.083   1.913 -0.8364 -0.3959  0.3488
 8692TIP3   OH247566   2.652   1.185   4.792  0.4354 -0.0881  0.3226
 8692TIP3    H147567   2.609   1.122   4.735  0.8874  0.5515 -0.7657
 8692TIP3    H247568   2.595   1.191   4.869  0.2286 -1.5557  0.2997
 8693TIP3   OH247569   2.633   0.711   4.715 -0.1079 -0.0548 -0.0776
 8693TIP3    H147570   2.588   0.794   4.697  0.2989  0.5230  1.4284
 8693TIP3    H247571   2.612   0.692   4.807  0.3673 -1.2746 -0.2065
 8694TIP3   OH247572   0.620   5.449   3.722 -0.1308  0.8110 -0.1860
 8694TIP3    H147573   0.658   5.481   3.804  0.1646 -1.8280  0.8233
 8694TIP3    H247574   0.696   5.430   3.666 -0.1896  0.2030 -0.0680
 8695TIP3   OH247575   6.807   1.554  15.359  0.2503  0.3916  0.0740
 8695TIP3    H147576   6.865   1.552  15.435  1.3932 -0.5680 -0.7706
 8695TIP3    H247577   6.858   1.601  15.292 -0.3436  0.3801 -0.3897
 8696TIP3   OH247578   4.849   3.990   2.840  0.0307 -0.8188 -0.1948
 8696TIP3    H147579   4.856   4.051   2.766 -0.8265 -2.2988 -1.5571
 8696TIP3    H247580   4.917   4.018   2.900 -0.1629  1.3310 -0.8711
 8697TIP3   OH247581   4.148   4.351   5.559  0.0128  0.3044 -0.6154
 8697TIP3    H147582   4.081   4.286   5.580  1.1877 -0.8844 -0.3387
 8697TIP3    H247583   4.157   4.403   5.639  0.3487 -0.4080 -0.1747
 8698TIP3   OH247584   1.350   0.477  10.424  0.3062  0.3323 -0.2569
 8698TIP3    H147585   1.396   0.397  10.400  0.3292  0.0609  0.6588
 8698TIP3    H247586   1.371   0.490  10.516  0.2256  1.3467 -0.3787
 8699TIP3   OH247587   1.121   1.504   1.990  0.6412 -0.2864 -0.2924
 8699TIP3    H147588   1.043   1.476   1.943  1.8712 -2.1720 -1.3624
 8699TIP3    H247589   1.096   1.504   2.083 -0.4780 -1.3533 -0.5807
 8700TIP3   OH247590   2.256   2.055   4.398 -0.6183 -0.3833  0.4915
 8700TIP3    H147591   2.297   2.131   4.439  1.2111 -0.4125 -1.1144
 8700TIP3    H247592   2.295   1.980   4.442  0.0303 -0.3944 -0.0805
 8701TIP3   OH247593   5.163   2.416  11.182 -0.6583 -0.0896  0.0348
 8701TIP3    H147594   5.168   2.467  11.101  0.5814  2.1946  1.4565
 8701TIP3    H247595   5.231   2.349  11.173  1.1491  1.6615  0.1093
 8702TIP3   OH247596   5.496   3.354   1.628 -0.2245 -0.0593 -0.6861
 8702TIP3    H147597   5.446   3.311   1.557 -0.3582  0.8464 -1.1544
 8702TIP3    H247598   5.500   3.288   1.697 -2.7939  0.0984 -0.2964
 8703TIP3   OH247599   6.646   4.438  11.931 -0.7807 -0.5220  0.4809
 8703TIP3    H147600   6.562   4.457  11.972 -2.1134 -1.9761 -1.3631
 8703TIP3    H247601   6.700   4.403  12.001 -1.9587 -0.2115  1.5770
 8704TIP3   OH247602   3.663   1.187  11.464 -0.4641  0.2462 -0.5137
 8704TIP3    H147603   3.641   1.120  11.529  0.9760  0.9964  0.8292
 8704TIP3    H247604   3.606   1.169  11.390 -0.8146 -1.8264  0.2083
 8705TIP3   OH247605   5.733   2.240  16.176 -0.0664  0.1243 -0.0540
 8705TIP3    H147606   5.722   2.158  16.223  0.8718 -0.1717 -0.3348
 8705TIP3    H247607   5.705   2.221  16.086 -0.9783  0.4389  0.1555
 8706TIP3   OH247608   1.607   5.050   4.336 -0.5704  0.6218  0.0961
 8706TIP3    H147609   1.551   5.068   4.261 -0.6000  1.2732  0.2683
 8706TIP3    H247610   1.622   5.136   4.376 -0.0702  0.3568  0.4892
 8707TIP3   OH247611   5.601   4.359  12.919 -0.2852 -0.3211 -0.2453
 8707TIP3    H147612   5.575   4.268  12.933  1.9661 -1.1238 -0.9188
 8707TIP3    H247613   5.669   4.375  12.984  2.0829 -0.4235 -2.5433
 8708TIP3   OH247614   5.256   5.622   0.165 -0.0512 -0.4542 -0.0004
 8708TIP3    H147615   5.217   5.584   0.087  0.2884 -1.4549  0.3051
 8708TIP3    H247616   5.188   5.615   0.232 -0.5461  0.9117 -0.3216
 8709TIP3   OH247617   0.658   1.937  15.938  0.3702 -0.2191 -0.4305
 8709TIP3    H147618   0.614   1.984  16.008 -0.8632 -0.8881 -0.7289
 8709TIP3    H247619   0.729   1.996  15.910 -0.9015  1.3094 -0.5721
 8710TIP3   OH247620   6.198   0.497   5.794 -0.1487  0.1133 -0.1005
 8710TIP3    H147621   6.253   0.502   5.873  0.1933  0.7996 -0.3739
 8710TIP3    H247622   6.260   0.501   5.722 -0.3481 -1.7881 -0.4337
 8711TIP3   OH247623   6.722   1.906   1.549  0.2089  0.1938  0.2671
 8711TIP3    H147624   6.727   1.883   1.642 -0.8052 -0.0075  0.2873
 8711TIP3    H247625   6.646   1.857   1.517 -0.0274  1.0097 -0.4484
 8712TIP3   OH247626   5.700   2.800  11.824  0.4498  0.3159  0.5652
 8712TIP3    H147627   5.609   2.769  11.823  1.2591 -2.3218  1.1818
 8712TIP3    H247628   5.705   2.857  11.900 -0.6016  0.2340  0.7163
 8713TIP3   OH247629   2.766   6.778   5.177  0.2069  0.2099 -0.0817
 8713TIP3    H147630   2.702   6.741   5.117  1.5247 -0.0795 -1.3737
 8713TIP3    H247631   2.809   6.702   5.216 -0.8990  0.3864  1.5896
 8714TIP3   OH247632   3.307   1.671   4.013  0.0545  0.6980  0.8143
 8714TIP3    H147633   3.350   1.587   3.999  0.7275  1.3460 -1.5351
 8714TIP3    H247634   3.378   1.735   4.011 -0.7631  1.7225 -2.4674
 8715TIP3   OH247635   2.793   6.734  11.820 -0.1441 -0.0507  0.2427
 8715TIP3    H147636   2.821   6.683  11.743 -0.4819  0.0609  0.0425
 8715TIP3    H247637   2.714   6.779  11.791  1.2279  2.1801 -0.2359
 8716TIP3   OH247638   5.743   4.954  13.498 -0.1013 -0.1869 -0.5293
 8716TIP3    H147639   5.835   4.934  13.513 -0.1064  0.5995  0.7431
 8716TIP3    H247640   5.702   4.941  13.584 -0.5531  2.6551 -0.2162
 8717TIP3   OH247641   0.954   5.537  12.854  0.5482  0.2365  0.0784
 8717TIP3    H147642   0.906   5.518  12.934  1.1835 -0.3887  0.3202
 8717TIP3    H247643   0.930   5.466  12.794 -0.1030  0.8267 -0.3754
 8718TIP3   OH247644   3.994   3.809   1.699  0.3656 -0.0886 -0.4882
 8718TIP3    H147645   3.928   3.794   1.767  1.7497 -2.3447  0.4664
 8718TIP3    H247646   3.958   3.769   1.620  0.5653 -1.3753  0.0492
 8719TIP3   OH247647   0.852   3.125  13.887  0.1600 -0.3561 -0.0876
 8719TIP3    H147648   0.813   3.211  13.871 -0.4051 -0.7951 -1.1799
 8719TIP3    H247649   0.940   3.145  13.921  1.2028  0.7263 -3.0661
 8720TIP3   OH247650   0.097   6.139  11.517 -0.2056  0.2372 -0.2853
 8720TIP3    H147651   0.060   6.193  11.447  0.9102  1.8412  0.3138
 8720TIP3    H247652   0.021   6.098  11.558 -1.1922  2.1194 -0.1520
 8721TIP3   OH247653   5.315   3.027  13.388 -0.4746  0.2028  0.1145
 8721TIP3    H147654   5.325   3.078  13.307  1.3315 -2.0669 -1.2335
 8721TIP3    H247655   5.221   3.017  13.398 -0.7639  0.0164 -2.1316
 8722TIP3   OH247656   1.469   6.519   1.518  0.3050  0.4289 -0.3739
 8722TIP3    H147657   1.532   6.557   1.455  0.2113 -0.5603 -1.0848
 8722TIP3    H247658   1.469   6.426   1.498 -1.3148  0.3916 -0.3115
 8723TIP3   OH247659   5.900   2.848  15.001  0.6331  0.1383  0.0153
 8723TIP3    H147660   5.899   2.840  15.097 -2.0253 -1.8623 -0.0515
 8723TIP3    H247661   5.950   2.772  14.972 -0.6849 -0.6967 -0.1660
 8724TIP3   OH247662   2.687   5.605   2.663  0.5733 -0.5182 -0.1623
 8724TIP3    H147663   2.635   5.678   2.696  3.7455  1.1478  1.5859
 8724TIP3    H247664   2.691   5.544   2.737  1.0350 -0.6743 -0.3161
 8725TIP3   OH247665   1.269   3.633   0.447 -0.0195  0.3978  0.5039
 8725TIP3    H147666   1.357   3.654   0.418 -0.0541  0.1228  0.2029
 8725TIP3    H247667   1.262   3.538   0.440  0.7777  0.0018  3.6403
 8726TIP3   OH247668   2.896   4.310  14.496  0.7946  0.1046 -0.0184
 8726TIP3    H147669   2.818   4.366  14.504  0.7637  0.4203 -2.0355
 8726TIP3    H247670   2.969   4.368  14.517  0.7750  1.0432 -2.2460
 8727TIP3   OH247671   1.384   5.807   3.965  0.4690 -0.9492  0.7216
 8727TIP3    H147672   1.462   5.807   4.019  1.0976 -2.5957 -0.1122
 8727TIP3    H247673   1.343   5.893   3.980  2.0610 -0.3322  1.6811
 8728TIP3   OH247674   3.993   3.454  14.513 -0.1367  0.7804  0.2726
 8728TIP3    H147675   3.956   3.500  14.437  2.4994  1.2791 -0.8158
 8728TIP3    H247676   4.070   3.505  14.536  1.0167 -1.2522  1.1641
 8729TIP3   OH247677   5.391   0.886  11.857  0.5180 -0.4492 -0.0620
 8729TIP3    H147678   5.328   0.814  11.861 -0.9105  0.7277 -0.5113
 8729TIP3    H247679   5.426   0.890  11.946  0.5986 -1.6536 -0.0122
 8730TIP3   OH247680   3.739   6.176   5.128  0.2927  0.0453  0.5537
 8730TIP3    H147681   3.710   6.095   5.086 -0.2068  0.7074 -0.4172
 8730TIP3    H247682   3.709   6.245   5.070  0.4440  0.9528  1.5206
 8731TIP3   OH247683   5.193   1.118  14.210  0.0658 -0.1069  0.3870
 8731TIP3    H147684   5.251   1.177  14.259 -0.3685 -0.0724  0.8643
 8731TIP3    H247685   5.166   1.169  14.135  1.9137 -0.6548 -0.7263
 8732TIP3   OH247686   2.327   4.003  16.199  0.1637 -0.0176  0.1455
 8732TIP3    H147687   2.378   3.985  16.120 -2.4799  2.6236 -2.4354
 8732TIP3    H247688   2.388   4.050  16.256  1.7261 -0.5719 -0.9858
 8733TIP3   OH247689   4.472   4.891  11.641  0.2968  0.1851  0.1771
 8733TIP3    H147690   4.517   4.956  11.588  1.5224 -0.4004  0.4625
 8733TIP3    H247691   4.520   4.890  11.724  0.0782 -0.8076  0.3086
 8734TIP3   OH247692   2.867   4.820  16.010  0.1035  0.3894 -0.0243
 8734TIP3    H147693   2.794   4.851  15.956  0.8348  0.9940 -0.6804
 8734TIP3    H247694   2.899   4.897  16.056  1.3097  0.4566 -0.9264
 8735TIP3   OH247695   6.142   1.577   5.710  0.1199 -0.4663 -0.5534
 8735TIP3    H147696   6.191   1.620   5.779  0.7675  0.6038 -1.6401
 8735TIP3    H247697   6.137   1.485   5.737  0.0997 -0.0202  1.0329
 8736TIP3   OH247698   0.984   0.561  14.373  0.5458 -0.6391  0.2403
 8736TIP3    H147699   0.956   0.508  14.448  2.0980 -0.9204  0.6685
 8736TIP3    H247700   0.906   0.609  14.347  0.3123  0.7737  3.1317
 8737TIP3   OH247701   5.864   1.822   5.572 -1.0159 -0.0557  0.4134
 8737TIP3    H147702   5.903   1.903   5.539 -0.3715 -0.3327  0.4652
 8737TIP3    H247703   5.775   1.822   5.536 -1.2868  1.0318  1.0413
 8738TIP3   OH247704   4.173   1.620   3.647 -0.6852  0.2427  0.1772
 8738TIP3    H147705   4.181   1.616   3.743  0.2093 -0.5864  0.0897
 8738TIP3    H247706   4.246   1.674   3.619 -1.1998  0.8462 -0.0212
 8739TIP3   OH247707   2.646   1.336   3.991 -0.0294  0.4295  0.1350
 8739TIP3    H147708   2.682   1.298   4.071 -0.6162  1.3585  0.8672
 8739TIP3    H247709   2.722   1.372   3.945  0.5002 -1.3092 -0.4381
 8740TIP3   OH247710   2.271   4.595   0.565  0.1837 -0.0529  0.2095
 8740TIP3    H147711   2.299   4.667   0.509  0.7886 -0.2049  0.3109
 8740TIP3    H247712   2.178   4.585   0.547  0.5069 -0.5678 -1.2941
 8741TIP3   OH247713   4.717   1.715  14.747  0.4006  0.3412 -0.3464
 8741TIP3    H147714   4.640   1.664  14.772 -0.5421  0.9830 -1.7664
 8741TIP3    H247715   4.690   1.806  14.756  0.5188  0.5825 -2.0857
 8742TIP3   OH247716   4.959   6.665   5.166  0.0063  0.5821 -0.1604
 8742TIP3    H147717   5.003   6.594   5.120 -0.4131  0.4471 -0.3567
 8742TIP3    H247718   4.880   6.625   5.202  0.7191  0.4896  1.3792
 8743TIP3   OH247719   4.647   4.673  16.803 -0.4525  0.1018 -0.5418
 8743TIP3    H147720   4.730   4.697  16.761 -0.8027  0.4245 -1.0675
 8743TIP3    H247721   4.660   4.582  16.831  0.4425  0.4731  0.3202
 8744TIP3   OH247722   4.532   4.014   3.853  0.1511  0.1975 -0.4698
 8744TIP3    H147723   4.476   3.937   3.853  0.9182 -0.4500  2.0153
 8744TIP3    H247724   4.603   3.992   3.792  0.7382 -1.3996  0.7198
 8745TIP3   OH247725   6.219   6.733   5.170  0.0516  0.2252  0.1973
 8745TIP3    H147726   6.296   6.699   5.123  0.2294  0.1630  0.5245
 8745TIP3    H247727   6.190   6.807   5.118 -0.9285 -1.0001 -1.0574
 8746TIP3   OH247728   0.071   2.053   0.840  0.1599  0.1178 -0.4322
 8746TIP3    H147729   0.035   2.057   0.929  2.9288  1.7933  0.7457
 8746TIP3    H247730   0.039   2.133   0.798  0.0433  0.0646 -0.4458
 8747TIP3   OH247731   5.017   5.367   3.673 -0.4627 -0.3202  0.4604
 8747TIP3    H147732   5.084   5.361   3.605 -0.3994 -0.1176  0.5066
 8747TIP3    H247733   5.025   5.455   3.708 -1.4370  0.0717 -0.2408
 8748TIP3   OH247734   6.585   0.507   5.455  0.6699 -0.0501  0.1418
 8748TIP3    H147735   6.586   0.500   5.550 -1.7416  0.3904  0.2689
 8748TIP3    H247736   6.585   0.601   5.437 -1.6143 -0.0470 -0.1248
 8749TIP3   OH247737   0.136   4.527  13.954 -0.4510 -0.4854  0.3766
 8749TIP3    H147738   0.206   4.495  13.898 -0.9473 -0.3059 -0.3673
 8749TIP3    H247739   0.122   4.617  13.927 -0.5550 -0.3220  0.9472
 8750TIP3   OH247740   3.043   3.709  12.409 -1.0365 -0.4304  0.1029
 8750TIP3    H147741   3.018   3.798  12.386 -0.0027  0.2709  1.5232
 8750TIP3    H247742   2.976   3.654  12.369 -3.9204  1.2010  2.3233
 8751TIP3   OH247743   4.389   3.362  12.967  0.3133 -0.3660 -0.0771
 8751TIP3    H147744   4.375   3.345  13.060 -1.9598  0.6262 -0.1667
 8751TIP3    H247745   4.467   3.417  12.964  0.0208  0.1690  1.3285
 8752TIP3   OH247746   1.121   4.384   6.212  0.1142  0.1002 -0.1277
 8752TIP3    H147747   1.120   4.427   6.126  0.9697  3.1834  1.2782
 8752TIP3    H247748   1.192   4.319   6.205  0.2367  0.3529 -1.6928
 8753TIP3   OH247749   1.514   3.024  14.675  0.2216  0.2615  0.1731
 8753TIP3    H147750   1.449   2.993  14.738  0.4434 -0.6573 -0.0300
 8753TIP3    H247751   1.478   3.106  14.641 -0.8944 -0.2834 -0.0169
 8754TIP3   OH247752   1.952   3.659   3.503  0.4014  0.2183 -0.0149
 8754TIP3    H147753   1.904   3.641   3.422  0.4137  0.4011 -0.0633
 8754TIP3    H247754   1.885   3.665   3.570 -0.1416  4.4362 -0.6849
 8755TIP3   OH247755   5.458   5.363   0.796  0.1551  0.5570 -0.2010
 8755TIP3    H147756   5.534   5.335   0.744  0.2135  0.6940 -0.1907
 8755TIP3    H247757   5.382   5.340   0.741  0.2163  0.6986 -0.3477
 8756TIP3   OH247758   6.350   2.496  14.247 -0.0320  0.8333 -0.3009
 8756TIP3    H147759   6.360   2.515  14.154 -0.2799  1.3492 -0.2279
 8756TIP3    H247760   6.440   2.490  14.280  0.0560  1.3095 -0.4457
 8757TIP3   OH247761   2.366   1.626  12.705  0.3017 -0.0298  0.5427
 8757TIP3    H147762   2.431   1.571  12.663  0.7994  0.9183  0.0282
 8757TIP3    H247763   2.310   1.657  12.633 -0.5311 -0.5726  0.9332
 8758TIP3   OH247764   5.515   4.764   0.905 -0.3972  0.3838  0.1583
 8758TIP3    H147765   5.480   4.853   0.891 -0.1463  0.4486 -0.0654
 8758TIP3    H247766   5.573   4.773   0.980  0.9442  0.7771 -0.8912
 8759TIP3   OH247767   4.797   0.381   5.183  0.6321  0.1012 -0.0526
 8759TIP3    H147768   4.813   0.344   5.270 -0.6930  0.3335  0.3160
 8759TIP3    H247769   4.875   0.433   5.164  1.0132 -0.0886  0.9382
 8760TIP3   OH247770   5.461   5.497   3.697  0.2025 -0.1013 -0.3628
 8760TIP3    H147771   5.440   5.447   3.776  1.3931  0.8022  0.5585
 8760TIP3    H247772   5.522   5.564   3.726 -0.2824  1.0448 -1.8245
 8761TIP3   OH247773   4.456   0.180  15.154  0.3174  0.8871  0.1716
 8761TIP3    H147774   4.453   0.137  15.068  0.6910  1.2144 -0.0077
 8761TIP3    H247775   4.539   0.152  15.192 -0.3484 -0.1775  0.9240
 8762TIP3   OH247776   0.012   6.505  11.173  0.4080  0.1110  0.2112
 8762TIP3    H147777   0.022   6.418  11.133 -1.0929  0.4138 -0.9010
 8762TIP3    H247778   0.018   6.566  11.100 -1.5140  0.7320  0.5184
 8763TIP3   OH247779   6.232   5.846   1.719  0.1866  0.1299  0.2678
 8763TIP3    H147780   6.179   5.910   1.671  0.0781 -0.2937 -0.1945
 8763TIP3    H247781   6.322   5.868   1.697  0.1816  0.4965  0.5974
 8764TIP3   OH247782   3.851   5.655   2.811  0.1531  0.0058  0.4807
 8764TIP3    H147783   3.818   5.591   2.874 -1.6124 -0.2758 -0.6378
 8764TIP3    H247784   3.935   5.620   2.782  0.0818 -0.8380  1.2665
 8765TIP3   OH247785   3.376   6.055  13.895  0.1107  0.0354 -0.0350
 8765TIP3    H147786   3.423   6.125  13.851 -1.8129  1.1435 -0.4477
 8765TIP3    H247787   3.323   6.015  13.826 -1.3368  0.4077  0.8031
 8766TIP3   OH247788   5.729   1.180   3.196  0.4497  0.0909 -0.0635
 8766TIP3    H147789   5.674   1.122   3.144 -0.1647  1.1055 -0.5687
 8766TIP3    H247790   5.809   1.189   3.144  0.6172 -0.4075  0.0937
 8767TIP3   OH247791   1.591   4.339  15.994  0.3623  0.3894 -0.0085
 8767TIP3    H147792   1.683   4.316  15.999  0.2632 -0.0066  0.0738
 8767TIP3    H247793   1.559   4.330  16.084  0.1175 -0.0344 -0.1329
 8768TIP3   OH247794   3.032   3.497   0.746  0.2357  0.4009  0.0236
 8768TIP3    H147795   3.002   3.482   0.656  0.2834 -0.7727  0.1799
 8768TIP3    H247796   3.009   3.588   0.764  1.0800  0.9425 -1.4894
 8769TIP3   OH247797   3.327   0.411  12.053  0.5003  0.3256 -0.4785
 8769TIP3    H147798   3.385   0.483  12.079  1.0665 -0.0358 -0.7086
 8769TIP3    H247799   3.253   0.454  12.010  0.3240  0.8258  0.3099
 8770TIP3   OH247800   1.093   6.294   0.375 -0.3986  0.2559  0.1729
 8770TIP3    H147801   1.187   6.287   0.394 -0.6175  0.3614  1.3463
 8770TIP3    H247802   1.080   6.385   0.348 -0.1804  0.2688  0.1129
 8771TIP3   OH247803   1.599   1.889  12.090 -0.0522 -0.5949  0.1974
 8771TIP3    H147804   1.584   1.978  12.121 -1.5612 -0.9185  0.4872
 8771TIP3    H247805   1.551   1.884  12.007 -0.5103 -1.2986  0.4907
 8772TIP3   OH247806   3.511   3.971  16.319  0.1400 -0.1456 -0.3929
 8772TIP3    H147807   3.546   3.972  16.230  0.7604  2.1687 -0.1716
 8772TIP3    H247808   3.523   4.060  16.351 -0.7739 -0.7303  1.7545
 8773TIP3   OH247809   4.313   2.366  14.770  0.3031  0.2552 -0.9285
 8773TIP3    H147810   4.354   2.344  14.687 -0.3908 -2.2430 -0.6698
 8773TIP3    H247811   4.220   2.377  14.750  0.1175 -0.4385 -0.4895
 8774TIP3   OH247812   0.516   1.095  12.073 -0.2726  0.6516  0.3668
 8774TIP3    H147813   0.495   1.127  12.161  0.2313  0.2196  0.6465
 8774TIP3    H247814   0.570   1.018  12.088 -1.9227 -0.6785 -0.2945
 8775TIP3   OH247815   5.703   4.962  11.278  0.3766 -0.0008 -0.6045
 8775TIP3    H147816   5.730   5.013  11.355  0.0258 -1.6350  0.6704
 8775TIP3    H247817   5.698   4.872  11.310 -0.8080 -0.5923 -2.2962
 8776TIP3   OH247818   4.126   3.457   0.152 -0.6138  0.1162 -0.5005
 8776TIP3    H147819   4.045   3.434   0.199 -0.9773 -0.1505 -1.2368
 8776TIP3    H247820   4.106   3.439   0.060  0.1837  0.3510 -0.7272
 8777TIP3   OH247821   6.020   3.699   3.356  0.0733 -0.1183  0.5483
 8777TIP3    H147822   6.098   3.663   3.398 -0.7154 -0.4924  1.7764
 8777TIP3    H247823   6.046   3.715   3.266  1.3987 -0.7612  0.7879
 8778TIP3   OH247824   1.042   2.578  12.314 -0.4057 -0.0842  0.5136
 8778TIP3    H147825   1.012   2.588  12.405  2.8082 -0.5897  1.7639
 8778TIP3    H247826   1.072   2.666  12.289  0.2340 -0.2763  0.5784
 8779TIP3   OH247827   2.727   2.922   4.446 -0.1991 -0.0063  0.3601
 8779TIP3    H147828   2.684   2.855   4.499 -1.6303  2.0352  1.9728
 8779TIP3    H247829   2.759   2.986   4.509 -1.0941  2.0555 -1.1637
 8780TIP3   OH247830   6.205   3.341   5.175 -0.1239 -0.2197 -0.0443
 8780TIP3    H147831   6.281   3.370   5.124  1.1504  0.9207  2.3657
 8780TIP3    H247832   6.240   3.323   5.262 -2.4370 -0.8276  0.8147
 8781TIP3   OH247833   6.267   6.028   1.961  0.0714  0.0828 -0.3885
 8781TIP3    H147834   6.289   6.077   1.881  0.1245 -1.0103 -1.0646
 8781TIP3    H247835   6.342   5.969   1.974 -1.9040 -3.0846 -2.2238
 8782TIP3   OH247836   6.581   2.822   0.428 -0.5639  0.2596 -0.4287
 8782TIP3    H147837   6.653   2.763   0.447 -1.1488 -0.1396  0.6321
 8782TIP3    H247838   6.622   2.908   0.419  0.1168 -0.0710 -0.5249
 8783TIP3   OH247839   4.511   2.779  14.967 -0.6675 -0.3011  0.5949
 8783TIP3    H147840   4.528   2.684  14.969 -2.2189 -0.5848  1.5194
 8783TIP3    H247841   4.419   2.786  14.944 -0.5571  1.0005  0.5036
 8784TIP3   OH247842   1.277   6.599  15.522 -0.3211 -0.0762  0.6215
 8784TIP3    H147843   1.205   6.631  15.468  0.0040 -0.2822  0.0510
 8784TIP3    H247844   1.304   6.674  15.574  1.1388  0.9504 -1.4747
 8785TIP3   OH247845   5.564   4.903   3.373 -0.6593  0.7083  0.6432
 8785TIP3    H147846   5.574   4.932   3.464  0.7329 -1.8543  1.4066
 8785TIP3    H247847   5.618   4.964   3.323 -1.7825  2.4229  1.4242
 8786TIP3   OH247848   3.943   5.430   2.570  0.2039 -0.2527 -0.1665
 8786TIP3    H147849   4.017   5.377   2.598 -0.8077 -2.8074 -1.9463
 8786TIP3    H247850   3.983   5.509   2.532  1.7967 -0.1574  1.5735
 8787TIP3   OH247851   4.025   1.389   0.702  0.1104  0.2297  0.1761
 8787TIP3    H147852   3.959   1.452   0.730  0.6482  0.2737  1.4196
 8787TIP3    H247853   3.976   1.320   0.659 -0.4614  1.6219 -1.5096
 8788TIP3   OH247854   1.145   5.913   1.096 -0.3654 -0.1721  0.0682
 8788TIP3    H147855   1.158   5.818   1.103 -1.4718 -0.4103 -0.9337
 8788TIP3    H247856   1.057   5.923   1.060 -0.7573  1.2702  1.3073
 8789TIP3   OH247857   4.446   0.795   1.195  0.1750 -0.7303  0.2289
 8789TIP3    H147858   4.353   0.785   1.211  0.2537 -1.4313  0.2768
 8789TIP3    H247859   4.461   0.890   1.194 -0.3929 -0.6315  1.0015
 8790TIP3   OH247860   4.384   1.163  15.130  0.8036 -0.2205  0.1915
 8790TIP3    H147861   4.459   1.106  15.144  1.3039  0.2438 -0.5581
 8790TIP3    H247862   4.346   1.133  15.047  1.0037  0.4583 -0.1496
 8791TIP3   OH247863   0.889   0.984   5.524  0.2331  0.1892 -0.7962
 8791TIP3    H147864   0.797   0.968   5.500 -0.0190  0.9573 -0.3574
 8791TIP3    H247865   0.907   1.073   5.494 -0.0588  1.1507  1.6932
 8792TIP3   OH247866   3.551   2.015  16.904 -0.1865 -0.0888  0.1582
 8792TIP3    H147867   3.488   2.087  16.899 -0.0191  0.0682  0.2983
 8792TIP3    H247868   3.501   1.938  16.876  0.0401  0.3242 -1.4687
 8793TIP3   OH247869   5.563   2.896   5.713  0.2048  0.2303 -0.5917
 8793TIP3    H147870   5.481   2.883   5.760  1.4885 -1.7477  1.3028
 8793TIP3    H247871   5.578   2.990   5.716 -2.0015  0.6557 -1.0909
 8794TIP3   OH247872   0.509   0.111  12.827 -0.1643 -0.4894  0.4406
 8794TIP3    H147873   0.522   0.205  12.815 -0.0729 -0.5316  0.2071
 8794TIP3    H247874   0.426   0.104  12.875  0.3461 -0.2367  1.4066
 8795TIP3   OH247875   0.223   2.191   5.037  1.0606  0.3441 -0.2075
 8795TIP3    H147876   0.146   2.246   5.051 -0.2794 -0.5464 -3.2435
 8795TIP3    H247877   0.222   2.128   5.109 -0.7515  0.7096  0.1131
 8796TIP3   OH247878   4.321   0.419   5.608  0.1537  0.3917  0.0180
 8796TIP3    H147879   4.413   0.435   5.586  0.4350  1.0128  1.4632
 8796TIP3    H247880   4.308   0.469   5.690 -1.4824  0.3662 -0.1994
 8797TIP3   OH247881   4.496   0.032   0.518  0.2285 -0.4966 -0.2502
 8797TIP3    H147882   4.544  -0.045   0.550  1.1829 -0.3181 -1.1980
 8797TIP3    H247883   4.463   0.006   0.432  0.2453  0.0288 -0.4186
 8798TIP3   OH247884   3.134   0.843   3.439  0.5122  0.8269 -0.4999
 8798TIP3    H147885   3.112   0.818   3.349 -3.5968  0.6759  0.3528
 8798TIP3    H247886   3.128   0.939   3.439  0.4465  0.8231 -0.3822
 8799TIP3   OH247887   0.172   3.452   2.162  0.4082 -0.7135  0.0579
 8799TIP3    H147888   0.124   3.433   2.242  0.2658  0.0618  0.1641
 8799TIP3    H247889   0.247   3.504   2.191  0.6716 -0.9114 -0.2489
 8800TIP3   OH247890   2.107   6.220   6.111 -0.2362  0.5070 -0.2820
 8800TIP3    H147891   2.136   6.203   6.022 -1.6955 -0.2721 -0.6448
 8800TIP3    H247892   2.039   6.288   6.101  0.7046  1.5821  0.4220
 8801TIP3   OH247893   2.183   0.346  16.412  0.5027  0.0603 -0.2032
 8801TIP3    H147894   2.232   0.268  16.439 -0.6687 -1.6480 -2.7011
 8801TIP3    H247895   2.097   0.313  16.385 -0.3663  2.3527 -0.5128
 8802TIP3   OH247896   4.230   5.571   4.617  0.3669  0.4481  1.0390
 8802TIP3    H147897   4.240   5.605   4.706  1.1377  1.0099  0.7501
 8802TIP3    H247898   4.310   5.521   4.602 -0.3087 -0.6883  1.0916
 8803TIP3   OH247899   6.214   3.856  10.918 -0.4807 -0.2150 -0.0884
 8803TIP3    H147900   6.182   3.785  10.863 -0.8343 -0.5996  0.5981
 8803TIP3    H247901   6.220   3.932  10.859 -2.5398 -0.1492 -0.2758
 8804TIP3   OH247902   4.994   4.078  11.421 -0.1795 -0.0501  0.1664
 8804TIP3    H147903   4.999   4.138  11.496  1.7727 -0.3973  0.3820
 8804TIP3    H247904   5.063   4.109  11.362 -0.1223 -1.2111 -0.3965
 8805TIP3   OH247905   3.507   4.525  13.437 -0.3748  0.2606 -0.4646
 8805TIP3    H147906   3.588   4.562  13.404 -0.3257  0.3769 -0.2181
 8805TIP3    H247907   3.521   4.431  13.438  0.7203  0.3869  2.0273
 8806TIP3   OH247908   3.624   1.763   4.704 -0.2749 -0.3920 -0.0389
 8806TIP3    H147909   3.654   1.828   4.641 -0.5913 -1.7385 -1.6468
 8806TIP3    H247910   3.572   1.702   4.652 -2.2476 -0.4751  1.8909
 8807TIP3   OH247911   4.376   0.808  14.599 -0.1069 -0.1385  0.0441
 8807TIP3    H147912   4.305   0.824  14.661  0.1614  0.4761  0.1940
 8807TIP3    H247913   4.423   0.733  14.635  1.3372  1.4803  1.7530
 8808TIP3   OH247914   3.276   3.015  16.433 -0.0725 -0.3254 -0.2309
 8808TIP3    H147915   3.198   2.966  16.456  0.0696 -0.5590 -0.2467
 8808TIP3    H247916   3.281   3.011  16.338 -0.0007 -0.3697 -0.2252
 8809TIP3   OH247917   2.666   2.178   0.599  0.4243 -0.2147 -0.1954
 8809TIP3    H147918   2.750   2.186   0.554  0.8262  1.0552  0.7282
 8809TIP3    H247919   2.631   2.266   0.600 -1.2945 -0.8377 -1.1872
 8810TIP3   OH247920   6.309   4.374   3.727 -0.0031  0.4055  0.1720
 8810TIP3    H147921   6.221   4.336   3.720  0.3336 -0.1323 -1.6550
 8810TIP3    H247922   6.295   4.456   3.774 -1.2311 -0.4002  1.3091
 8811TIP3   OH247923   6.550   1.636   2.461 -0.7046 -0.3836  0.4781
 8811TIP3    H147924   6.468   1.631   2.510 -0.3983  1.9903  1.4042
 8811TIP3    H247925   6.619   1.623   2.527 -0.3184  0.0888  0.1780
 8812TIP3   OH247926   2.228   1.232  13.552  0.3802  0.8270  0.6724
 8812TIP3    H147927   2.246   1.326  13.547  1.0565  0.6996  0.6566
 8812TIP3    H247928   2.295   1.191  13.497 -0.0848  0.3518  0.4442
 8813TIP3   OH247929   3.805   5.072  12.156  0.0186 -0.0136 -0.1320
 8813TIP3    H147930   3.889   5.029  12.169  0.5868  0.7483 -1.0853
 8813TIP3    H247931   3.814   5.156  12.201  0.5540  0.9398 -1.8955
 8814TIP3   OH247932   5.431   6.562  11.557  0.2562  0.2296 -0.7065
 8814TIP3    H147933   5.428   6.646  11.511 -0.5681  0.7181  0.2068
 8814TIP3    H247934   5.451   6.585  11.648  4.4320 -0.8803 -1.1471
 8815TIP3   OH247935   3.109   6.571  14.653 -0.1072  0.1680  0.4278
 8815TIP3    H147936   3.144   6.555  14.566 -1.5836  1.3645 -0.4317
 8815TIP3    H247937   3.021   6.607  14.638 -0.6840 -0.2716  2.4183
 8816TIP3   OH247938   3.367   1.122  12.834  0.0760  0.0483  0.2206
 8816TIP3    H147939   3.321   1.199  12.801 -0.0718 -0.4314 -0.7323
 8816TIP3    H247940   3.390   1.072  12.756 -1.0370 -1.5714  0.8531
 8817TIP3   OH247941   1.888   1.064  14.643 -0.0469 -0.3726 -0.5423
 8817TIP3    H147942   1.852   0.988  14.690 -1.2530  1.4682  1.7720
 8817TIP3    H247943   1.829   1.136  14.667  0.5527  1.1522 -3.3236
 8818TIP3   OH247944   0.939   0.161  12.489  0.2385 -0.2690  0.1292
 8818TIP3    H147945   1.031   0.159  12.463  0.8038 -0.2012  1.9635
 8818TIP3    H247946   0.895   0.102  12.428  1.2025  0.8018 -1.7164
 8819TIP3   OH247947   3.861   1.785  13.048 -0.0467  0.0545 -0.0016
 8819TIP3    H147948   3.822   1.830  12.973  1.2247 -0.0050 -0.7221
 8819TIP3    H247949   3.925   1.848  13.083 -0.7592  0.1600  1.1715
 8820TIP3   OH247950   2.690   0.226   5.772  0.1345 -0.3215 -0.0567
 8820TIP3    H147951   2.629   0.169   5.725 -0.4910 -0.0801  0.4491
 8820TIP3    H247952   2.775   0.207   5.732  0.0516 -2.0339  0.4818
 8821TIP3   OH247953   3.927   0.226  11.070 -0.2505 -0.0980 -0.2002
 8821TIP3    H147954   3.885   0.269  10.996  0.5792 -0.5992 -0.9856
 8821TIP3    H247955   3.969   0.148  11.032  0.2351 -0.3383  0.7836
 8822TIP3   OH247956   1.119   1.094   1.330 -0.5251  0.3076  0.0140
 8822TIP3    H147957   1.168   1.176   1.324 -2.2339  1.3425 -0.7066
 8822TIP3    H247958   1.073   1.088   1.247  1.8905 -3.0267 -1.2830
 8823TIP3   OH247959   3.702   4.639   2.978 -0.0538  0.1820  0.6260
 8823TIP3    H147960   3.631   4.575   2.986  0.4599 -0.4826  0.1175
 8823TIP3    H247961   3.731   4.630   2.887 -0.8063  2.0731  0.1659
 8824TIP3   OH247962   2.668   0.398  12.976 -0.1079 -0.1397  0.0051
 8824TIP3    H147963   2.591   0.445  13.006  0.2019  0.7753 -0.5989
 8824TIP3    H247964   2.730   0.466  12.952  1.2278 -0.8421  1.2831
 8825TIP3   OH247965   4.320   4.383   0.674 -0.6046  0.1757 -0.1861
 8825TIP3    H147966   4.225   4.384   0.685 -0.8744  3.2714 -1.7239
 8825TIP3    H247967   4.338   4.455   0.613  2.9138  0.8900  1.4524
 8826TIP3   OH247968   6.411   6.358   3.840 -0.5884 -0.2082 -0.0777
 8826TIP3    H147969   6.496   6.401   3.847 -0.4009 -0.5935  0.0693
 8826TIP3    H247970   6.387   6.365   3.748 -1.5774  2.1169  0.2736
 8827TIP3   OH247971   2.109   1.323   1.285 -0.0273  0.6870  0.1833
 8827TIP3    H147972   2.151   1.407   1.270  0.0464  0.7340  0.6449
 8827TIP3    H247973   2.152   1.288   1.363 -0.8687  0.7535  0.6842
 8828TIP3   OH247974   6.146   0.297   4.686  0.5309  0.1822 -0.4658
 8828TIP3    H147975   6.148   0.362   4.616 -1.4954 -0.9446 -1.6652
 8828TIP3    H247976   6.199   0.225   4.653 -1.9383 -1.1385 -1.7758
 8829TIP3   OH247977   2.232   5.515   4.926  0.3612 -0.2184 -0.3124
 8829TIP3    H147978   2.179   5.490   4.851  1.4111 -0.5135 -0.9770
 8829TIP3    H247979   2.288   5.439   4.943  0.0359 -0.2226  0.8762
 8830TIP3   OH247980   3.067   4.309  11.241  0.0982  0.4924 -0.4754
 8830TIP3    H147981   3.135   4.312  11.174 -0.4170  1.4829 -0.9785
 8830TIP3    H247982   2.994   4.264  11.200  0.2182 -0.0266 -0.1390
 8831TIP3   OH247983   0.949   3.636  13.161 -0.1948 -0.2893  0.6970
 8831TIP3    H147984   0.874   3.639  13.101 -0.3705  2.4067  0.9096
 8831TIP3    H247985   0.912   3.651  13.248  0.4815  0.2657  0.9069
 8832TIP3   OH247986   0.869   1.502   1.426 -0.1388 -0.7319 -0.4657
 8832TIP3    H147987   0.781   1.469   1.445 -0.5666  0.5711 -0.0751
 8832TIP3    H247988   0.901   1.447   1.354 -1.1724 -1.3747 -0.4469
 8833TIP3   OH247989   1.051   2.856   0.625 -0.2493 -0.2181  0.1534
 8833TIP3    H147990   1.077   2.932   0.676 -1.1679 -0.6943  1.3778
 8833TIP3    H247991   1.133   2.817   0.597  0.2404  1.0479 -0.2527
 8834TIP3   OH247992   1.040   4.224  12.910 -0.1786 -0.0442  0.6942
 8834TIP3    H147993   0.981   4.300  12.912 -0.4401 -0.2360  0.2296
 8834TIP3    H247994   1.093   4.237  12.832  0.3546  0.0876  1.0677
 8835TIP3   OH247995   0.633   6.446  11.470  0.1504 -0.0100 -0.2484
 8835TIP3    H147996   0.677   6.531  11.481 -1.0797  0.7441 -0.9278
 8835TIP3    H247997   0.703   6.387  11.440  0.8032  1.0293 -0.8429
 8836TIP3   OH247998   1.486   0.490  13.846  0.2544  0.1738  0.1148
 8836TIP3    H147999   1.398   0.526  13.859  0.1315  0.4840 -1.4793
 8836TIP3    H248000   1.481   0.402  13.885 -0.4999  0.5036  0.8073
 8837TIP3   OH248001   5.340   2.222  16.657  0.1026  0.1851  0.0432
 8837TIP3    H148002   5.369   2.136  16.685 -0.0989 -0.2900 -1.1560
 8837TIP3    H248003   5.373   2.282  16.725  1.6640 -0.6347  0.0412
 8838TIP3   OH248004   1.921   2.352   3.412 -0.1605  0.0322 -0.3644
 8838TIP3    H148005   1.842   2.335   3.463  0.3983  0.9439  0.8464
 8838TIP3    H248006   1.989   2.299   3.455  0.4827  1.3823  0.3534
 8839TIP3   OH248007   1.142   5.555  15.992 -0.3865  0.6308  0.3146
 8839TIP3    H148008   1.194   5.636  15.989  0.7611 -0.1131 -0.6761
 8839TIP3    H248009   1.120   5.538  15.900 -1.9118  0.5979  0.6550
 8840TIP3   OH248010   0.368   4.754   5.532  0.9043  0.1424 -0.1093
 8840TIP3    H148011   0.384   4.738   5.439 -0.3302 -1.1384 -0.1356
 8840TIP3    H248012   0.357   4.667   5.570  0.2333  0.6961  1.0249
 8841TIP3   OH248013   4.124   0.187   1.020  0.6618 -0.6985  0.3811
 8841TIP3    H148014   4.200   0.228   0.980 -0.0932  1.7829  1.2930
 8841TIP3    H248015   4.054   0.251   1.009 -0.4855 -1.5158  2.3600
 8842TIP3   OH248016   6.476   1.430   3.450 -0.4205 -0.2289 -0.4160
 8842TIP3    H148017   6.487   1.335   3.448 -2.7086 -0.6093  0.7472
 8842TIP3    H248018   6.421   1.449   3.374  0.2225  0.2178 -0.7785
 8843TIP3   OH248019   6.143   1.963  16.841 -0.6706  0.3186  0.0401
 8843TIP3    H148020   6.129   2.016  16.762 -2.8919 -0.1740  0.0120
 8843TIP3    H248021   6.084   2.001  16.906 -0.4481 -0.5743  0.7859
 8844TIP3   OH248022   1.241   3.961  11.736  0.3937 -0.0030  0.0976
 8844TIP3    H148023   1.259   4.032  11.674  0.1661 -1.7839 -2.1330
 8844TIP3    H248024   1.326   3.920  11.751  0.5121  0.6554  1.3218
 8845TIP3   OH248025   4.783   3.609  12.183  0.1615  0.1633  0.3305
 8845TIP3    H148026   4.696   3.632  12.152  1.3721 -0.1852 -4.0782
 8845TIP3    H248027   4.825   3.692  12.204 -0.7567  0.4336  1.1388
 8846TIP3   OH248028   4.761   3.100  15.866 -0.1420 -0.3614 -0.1926
 8846TIP3    H148029   4.801   3.170  15.815 -0.3847 -0.0638  0.0207
 8846TIP3    H248030   4.832   3.066  15.921 -0.7307  1.9780  2.1943
 8847TIP3   OH248031   2.386   2.735   0.237 -0.5117  0.3669 -0.1102
 8847TIP3    H148032   2.313   2.779   0.281 -0.1129  0.9091  0.0302
 8847TIP3    H248033   2.346   2.687   0.165 -1.2220 -0.8339  1.0419
 8848TIP3   OH248034   4.102   1.966  11.720 -0.5565 -0.3702 -0.4614
 8848TIP3    H148035   4.091   2.061  11.712  1.1301 -0.0084  0.8425
 8848TIP3    H248036   4.157   1.942  11.645  0.2337 -0.0460  0.0001
 8849TIP3   OH248037   1.123   1.164  15.742  0.1906  0.5210  0.5852
 8849TIP3    H148038   1.209   1.123  15.731 -0.7905 -1.6776  0.5545
 8849TIP3    H248039   1.092   1.130  15.826  0.5152  3.6429  2.0921
 8850TIP3   OH248040   1.297   3.492  11.729  0.2387 -0.1270  0.0138
 8850TIP3    H148041   1.284   3.546  11.651 -2.0029 -1.0330 -0.3167
 8850TIP3    H248042   1.289   3.554  11.802 -0.0447  0.3508 -0.4146
 8851TIP3   OH248043   0.369   1.999   3.611  0.0990  0.0962 -0.2015
 8851TIP3    H148044   0.346   1.930   3.673 -1.0689 -0.5635 -1.3442
 8851TIP3    H248045   0.443   1.963   3.561  0.3436  0.2062  0.0767
 8852TIP3   OH248046   4.997   6.399   2.484 -0.4808 -0.0231  0.0656
 8852TIP3    H148047   4.991   6.327   2.421 -1.4261  1.3417 -1.4949
 8852TIP3    H248048   4.936   6.464   2.451  1.2566  2.0343  0.6833
 8853TIP3   OH248049   3.958   0.541  16.233  0.2079  0.1129 -0.3659
 8853TIP3    H148050   3.956   0.618  16.176 -0.8860 -0.3313 -0.9749
 8853TIP3    H248051   3.884   0.554  16.293 -0.6384 -0.9390 -1.1519
 8854TIP3   OH248052   4.420   3.061  14.300  0.3129 -0.1280 -0.2669
 8854TIP3    H148053   4.326   3.055  14.320  0.2797 -0.4397 -0.5126
 8854TIP3    H248054   4.463   3.028  14.379  0.1620 -2.6823 -1.1608
 8855TIP3   OH248055   5.113   0.750   3.178  0.2182  0.1718 -0.3451
 8855TIP3    H148056   5.167   0.751   3.099  2.0592  1.2985  0.8511
 8855TIP3    H248057   5.170   0.713   3.246 -1.0335  0.0162  0.6703
 8856TIP3   OH248058   1.599   2.273   2.164  0.1212 -0.1758 -0.2656
 8856TIP3    H148059   1.647   2.346   2.127  1.3463 -0.6526  0.3052
 8856TIP3    H248060   1.647   2.251   2.245  0.2440 -2.0421 -0.7845
 8857TIP3   OH248061   1.846   5.099   5.783 -1.2037 -0.0314  0.0697
 8857TIP3    H148062   1.816   5.020   5.827 -1.3142  0.6281  1.2144
 8857TIP3    H248063   1.817   5.171   5.840 -0.5065  0.8005 -0.5899
 8858TIP3   OH248064   2.080   2.525   1.667  0.0625 -0.6064  0.5063
 8858TIP3    H148065   2.001   2.513   1.614  0.4266 -0.6057 -0.0471
 8858TIP3    H248066   2.143   2.567   1.608  0.1869  0.2063  1.2031
 8859TIP3   OH248067   1.566   5.029   0.928 -0.2190  0.5230 -0.3427
 8859TIP3    H148068   1.540   4.993   0.844 -2.1386  0.6038  0.1708
 8859TIP3    H248069   1.572   5.124   0.914  1.4619  0.3764 -0.8457
 8860TIP3   OH248070   5.818   6.611   1.366 -0.1115  0.0623 -0.1121
 8860TIP3    H148071   5.807   6.610   1.461 -1.4702 -0.6612 -0.2476
 8860TIP3    H248072   5.874   6.536   1.348  0.0591  0.1360  0.1080
 8861TIP3   OH248073   0.136   3.401   5.468  0.5416 -0.2326 -0.6872
 8861TIP3    H148074   0.045   3.379   5.484  0.8579 -0.4422  0.9111
 8861TIP3    H248075   0.155   3.474   5.527  1.2579  0.1830 -1.4038
 8862TIP3   OH248076   0.235   4.624   2.229  0.0775  0.0124  0.3599
 8862TIP3    H148077   0.159   4.571   2.206  0.3180  0.1528 -0.8541
 8862TIP3    H248078   0.258   4.669   2.148  1.8224 -0.4981  0.5168
 8863TIP3   OH248079   6.710   5.308   5.767  0.0334  0.0566  0.2702
 8863TIP3    H148080   6.742   5.398   5.759  0.1896  0.0322  0.6108
 8863TIP3    H248081   6.740   5.279   5.853 -2.5543  0.6940  1.5095
 8864TIP3   OH248082   5.418   0.330  15.846 -0.9743  0.2026 -0.1008
 8864TIP3    H148083   5.382   0.414  15.875  2.1431  0.9599  2.1912
 8864TIP3    H248084   5.348   0.266  15.863 -3.6247  2.2862 -2.4210
 8865TIP3   OH248085   0.133   3.821  14.135  0.3727 -0.5030 -0.5014
 8865TIP3    H148086   0.040   3.840  14.142  0.4436 -0.2649 -0.1436
 8865TIP3    H248087   0.170   3.895  14.088  0.8945  1.1306  2.2141
 8866TIP3   OH248088   1.450   0.516   3.724 -0.5008 -0.5622 -0.1189
 8866TIP3    H148089   1.481   0.600   3.692  0.0946 -0.7694 -0.0930
 8866TIP3    H248090   1.470   0.517   3.818 -1.3778 -0.3416  0.0754
 8867TIP3   OH248091   2.285   1.686  17.026 -0.2474  0.2379 -0.3158
 8867TIP3    H148092   2.300   1.650  16.938 -2.0316  1.3082 -1.1215
 8867TIP3    H248093   2.302   1.780  17.017 -3.0621  0.8583 -0.3173
 8868TIP3   OH248094   2.712   0.849  12.959 -0.2558  0.4487 -0.6937
 8868TIP3    H148095   2.661   0.802  12.893 -2.3226  1.9403 -0.2535
 8868TIP3    H248096   2.761   0.914  12.910  0.5107 -0.3572 -1.0222
 8869TIP3   OH248097   4.000   5.247  13.927 -0.0248  0.4618 -0.2001
 8869TIP3    H148098   4.042   5.170  13.967 -0.5958  0.5715  0.6412
 8869TIP3    H248099   3.917   5.255  13.974 -1.4957 -0.3724 -2.5022
 8870TIP3   OH248100   4.211   6.745  13.902  0.0050  0.5072 -0.0364
 8870TIP3    H148101   4.242   6.667  13.950  0.7620 -0.0202 -1.3196
 8870TIP3    H248102   4.217   6.816  13.965 -0.9034 -0.5005  1.2364
 8871TIP3   OH248103   3.538   0.990   2.142 -0.4430  0.3812  0.2035
 8871TIP3    H148104   3.472   1.023   2.202 -1.8037  0.8895 -1.4878
 8871TIP3    H248105   3.609   0.959   2.198 -2.5278 -1.1497  2.1541
 8872TIP3   OH248106   2.116   4.553  15.476  0.7811 -0.2642  0.2591
 8872TIP3    H148107   2.021   4.547  15.478  0.7812 -0.2095  2.1108
 8872TIP3    H248108   2.141   4.517  15.391 -1.0073  2.0152 -1.3437
 8873TIP3   OH248109   1.976   0.771  14.899  0.0625  0.0401 -0.5195
 8873TIP3    H148110   2.036   0.819  14.842  1.6032 -0.1864  0.8750
 8873TIP3    H248111   2.015   0.775  14.986 -1.7499 -0.4530  0.3784
 8874TIP3   OH248112   3.775   2.226  12.250  0.1328  0.3953 -0.1646
 8874TIP3    H148113   3.750   2.146  12.296 -4.2182  1.2972 -0.4975
 8874TIP3    H248114   3.775   2.202  12.158  0.3979  0.4261 -0.1722
 8875TIP3   OH248115   1.212   1.721  12.526 -0.0371  0.1987 -0.0262
 8875TIP3    H148116   1.118   1.717  12.544  0.0195 -1.0184  0.0674
 8875TIP3    H248117   1.219   1.724  12.431 -0.2131  2.7814 -0.0375
 8876TIP3   OH248118   3.950   3.095  16.011 -0.0143 -0.5880 -0.0448
 8876TIP3    H148119   3.980   3.129  16.095  2.0205 -0.5052 -0.7718
 8876TIP3    H248120   3.983   3.157  15.946 -0.7512 -1.1565 -0.9863
 8877TIP3   OH248121   2.732   6.153   0.107 -0.0514 -0.1120  0.0445
 8877TIP3    H148122   2.808   6.119   0.153  0.3734  0.2470 -0.3774
 8877TIP3    H248123   2.687   6.207   0.171 -1.2861 -2.2009  1.0427
 8878TIP3   OH248124   3.890   4.956  15.361 -0.3805 -0.5984 -0.0222
 8878TIP3    H148125   3.931   5.039  15.335 -1.8149  0.1263 -0.0652
 8878TIP3    H248126   3.936   4.931  15.441  0.9334 -0.4392 -0.7020
 8879TIP3   OH248127   0.799   4.657  13.980  0.1111 -0.6003  0.0421
 8879TIP3    H148128   0.786   4.705  14.062  0.6823 -0.0305 -0.1905
 8879TIP3    H248129   0.894   4.654  13.968  0.0507 -1.0769 -0.3676
 8880TIP3   OH248130   5.160   1.643   2.516  0.3880  0.0665  0.4541
 8880TIP3    H148131   5.132   1.639   2.424  2.3478  0.5637 -0.1991
 8880TIP3    H248132   5.178   1.736   2.531 -0.8676  0.1459  1.6802
 8881TIP3   OH248133   5.879   2.127   0.340 -0.1077  0.1093  0.1878
 8881TIP3    H148134   5.974   2.132   0.347  0.0128 -2.0637  0.5919
 8881TIP3    H248135   5.849   2.215   0.364  1.7552  0.6846  0.5614
 8882TIP3   OH248136   1.587   6.376  15.202  0.1594 -0.5063 -0.2443
 8882TIP3    H148137   1.506   6.380  15.253  0.7994  1.0293  0.7277
 8882TIP3    H248138   1.597   6.465  15.166  0.8546 -0.9769 -1.2634
 8883TIP3   OH248139   0.748   5.577   6.350 -0.3930  0.8012  0.5974
 8883TIP3    H148140   0.831   5.529   6.361 -0.0175  1.6778  1.7201
 8883TIP3    H248141   0.774   5.668   6.340 -1.0803  0.8040 -1.9484
 8884TIP3   OH248142   2.075   4.069   0.885 -0.1695  0.0453  0.3119
 8884TIP3    H148143   2.002   4.022   0.843 -0.6632  2.5219 -1.8443
 8884TIP3    H248144   2.032   4.138   0.936  0.6214  0.6332  0.1891
 8885TIP3   OH248145   2.055   1.504   5.813 -0.2649 -0.1688 -0.1354
 8885TIP3    H148146   1.996   1.579   5.812 -0.4939 -0.3428 -1.6852
 8885TIP3    H248147   2.007   1.435   5.766  0.5093 -0.8343  0.0252
 8886TIP3   OH248148   4.539   5.075   0.473  0.2921  0.0067 -0.0900
 8886TIP3    H148149   4.619   5.065   0.523 -0.4626 -0.2523  1.1080
 8886TIP3    H248150   4.514   5.167   0.486 -0.0491 -0.1300  0.2664
 8887TIP3   OH248151   4.512   2.685  11.542 -0.5572 -0.1088 -0.6377
 8887TIP3    H148152   4.528   2.769  11.586  2.7208 -0.4502 -0.9250
 8887TIP3    H248153   4.522   2.705  11.449  0.0036 -0.7429 -0.7222
 8888TIP3   OH248154   5.365   0.544   3.792  0.9121  0.3832 -0.7772
 8888TIP3    H148155   5.446   0.538   3.843  0.5959  0.1597 -0.2965
 8888TIP3    H248156   5.325   0.457   3.801  1.2052  0.1074 -1.9960
 8889TIP3   OH248157   2.793   0.706  14.193  0.5921  0.2453  0.0877
 8889TIP3    H148158   2.825   0.780  14.141 -0.2242  1.1735  0.8943
 8889TIP3    H248159   2.707   0.687  14.157  0.0924  0.7842  0.9723
 8890TIP3   OH248160   6.178   1.672   2.399  0.0939  0.0769  0.0955
 8890TIP3    H148161   6.197   1.594   2.452  0.5911  0.5539  0.6297
 8890TIP3    H248162   6.123   1.726   2.455 -0.8015 -0.1726 -0.5210
 8891TIP3   OH248163   1.660   6.244   3.981  0.7922 -0.7423 -0.4508
 8891TIP3    H148164   1.705   6.201   3.908  1.2190  0.7020 -1.0659
 8891TIP3    H248165   1.706   6.327   3.992  0.0176 -0.4467  0.7417
 8892TIP3   OH248166   5.041   6.575   1.183  0.9122  0.1741  0.8881
 8892TIP3    H148167   5.101   6.546   1.251 -0.8453 -2.8927  1.3380
 8892TIP3    H248168   5.071   6.530   1.104  0.7928  0.8352  0.4535
 8893TIP3   OH248169   1.276   1.284   3.125  0.1598 -0.0798 -0.0189
 8893TIP3    H148170   1.298   1.377   3.132  0.3883 -0.2077  1.2738
 8893TIP3    H248171   1.349   1.245   3.078  1.0657  0.0736  1.2197
 8894TIP3   OH248172   1.437   6.065  13.644 -0.1825 -0.0744 -0.5065
 8894TIP3    H148173   1.355   6.090  13.686  0.0891 -0.3943  0.2205
 8894TIP3    H248174   1.505   6.088  13.706  0.3010  0.3649 -1.1890
 8895TIP3   OH248175   3.706   3.771  12.082  0.4106  0.7927 -0.6899
 8895TIP3    H148176   3.612   3.777  12.064  0.1199 -0.1765  0.3959
 8895TIP3    H248177   3.733   3.861  12.098  0.3715  1.5703 -4.1447
 8896TIP3   OH248178   2.502   3.387   4.808 -0.1095 -0.1870 -0.3375
 8896TIP3    H148179   2.538   3.371   4.895 -0.6606 -0.9806 -0.2425
 8896TIP3    H248180   2.461   3.473   4.814  1.0095  0.3525 -0.2102
 8897TIP3   OH248181   5.881   5.146  11.656 -0.5253 -0.2999  1.1098
 8897TIP3    H148182   5.865   5.063  11.701  0.7389 -1.3915 -0.3645
 8897TIP3    H248183   5.963   5.178  11.693  0.3603 -1.0527 -0.1158
 8898TIP3   OH248184   2.584   1.298  16.375 -0.1381 -0.3544 -0.1288
 8898TIP3    H148185   2.513   1.300  16.439 -0.9744  0.3455 -1.0435
 8898TIP3    H248186   2.549   1.249  16.301  0.2467  0.1850 -0.6794
 8899TIP3   OH248187   2.533   4.574   6.674  0.0345  0.3916  0.2719
 8899TIP3    H148188   2.518   4.480   6.684  0.3715  0.3398  0.2984
 8899TIP3    H248189   2.518   4.609   6.762  1.7671  0.1017  0.7234
 8900TIP3   OH248190   3.259   4.857   1.750  0.4256 -0.0877 -0.2407
 8900TIP3    H148191   3.268   4.951   1.738 -0.7652 -0.0468 -0.9611
 8900TIP3    H248192   3.194   4.830   1.685  1.3484 -1.5468 -0.6199
 8901TIP3   OH248193   3.313   6.444  11.479 -0.1022 -0.2290 -0.3288
 8901TIP3    H148194   3.289   6.508  11.412  0.6688 -0.4407 -0.8222
 8901TIP3    H248195   3.409   6.445  11.480 -0.0963 -0.7022  0.3164
 8902TIP3   OH248196   2.211   6.680   1.609  0.0675 -0.3345 -0.6958
 8902TIP3    H148197   2.137   6.707   1.663  0.5204 -0.7013  0.1403
 8902TIP3    H248198   2.267   6.631   1.669  2.2914  2.1357 -0.5581
 8903TIP3   OH248199   0.835   5.724   2.049  0.7134 -0.2463  0.0835
 8903TIP3    H148200   0.744   5.709   2.072  0.0295 -0.4661 -2.4470
 8903TIP3    H248201   0.884   5.709   2.130 -1.6111  1.6809  2.0064
 8904TIP3   OH248202   6.579   3.295  11.468 -0.0879  0.1643  0.2898
 8904TIP3    H148203   6.499   3.245  11.482 -0.8638  1.3845  0.3430
 8904TIP3    H248204   6.556   3.358  11.399  1.2026 -0.2819 -0.5882
 8905TIP3   OH248205   1.095   4.492   5.167 -0.4729 -0.4324 -0.0857
 8905TIP3    H148206   1.150   4.568   5.150  0.3031 -1.2016 -1.1743
 8905TIP3    H248207   1.047   4.514   5.247 -1.4652  1.8212 -1.2284
 8906TIP3   OH248208   6.200   6.632   3.575  0.1914 -0.3270  0.0202
 8906TIP3    H148209   6.252   6.656   3.652 -0.5630 -0.7017  0.6511
 8906TIP3    H248210   6.134   6.700   3.569 -1.8057 -1.9876  1.6751
 8907TIP3   OH248211   6.542   0.980   1.977  0.3428 -0.4531 -0.3532
 8907TIP3    H148212   6.562   1.050   2.040  0.7584  0.2849 -1.2871
 8907TIP3    H248213   6.617   0.921   1.982  0.6808 -0.0472 -0.6333
 8908TIP3   OH248214   6.494   2.925  11.092  0.1107  0.0349  0.5522
 8908TIP3    H148215   6.504   2.837  11.127  2.2181  0.4420  1.1026
 8908TIP3    H248216   6.489   2.913  10.997  1.4058 -0.6331  0.5503
 8909TIP3   OH248217   2.201   0.171  13.271 -0.0547 -0.1104 -0.3309
 8909TIP3    H148218   2.120   0.133  13.238 -0.4313 -1.4725  1.9477
 8909TIP3    H248219   2.248   0.098  13.312  1.9895  0.7962 -0.8966
 8910TIP3   OH248220   4.624   2.921  11.788  0.1310  0.0316 -0.2590
 8910TIP3    H148221   4.654   3.010  11.808 -2.0027  1.2193 -1.9528
 8910TIP3    H248222   4.631   2.914  11.693  0.9228 -1.9267 -0.1139
 8911TIP3   OH248223   0.320   5.760  11.458  0.4823  0.5683 -0.1700
 8911TIP3    H148224   0.316   5.675  11.415  1.6396 -0.9086  2.4042
 8911TIP3    H248225   0.233   5.772  11.495  0.2280  0.6835 -0.7830
 8912TIP3   OH248226   0.902   3.464   5.110 -0.3147  0.1431 -0.5526
 8912TIP3    H148227   0.967   3.404   5.148 -0.7913 -1.6207 -2.3215
 8912TIP3    H248228   0.954   3.520   5.051 -0.1849 -0.2652 -0.8332
 8913TIP3   OH248229   4.021   3.628  16.304 -0.0123 -0.0980 -0.3574
 8913TIP3    H148230   3.968   3.688  16.357 -0.4319 -0.0839 -0.7874
 8913TIP3    H248231   3.958   3.572  16.260  0.3517 -0.4032 -0.4974
 8914TIP3   OH248232   5.653   5.252   4.878  0.2217  0.2873  0.2299
 8914TIP3    H148233   5.719   5.190   4.910  0.8252  1.4380  1.2987
 8914TIP3    H248234   5.581   5.196   4.847  1.2598 -0.9654 -0.0031
 8915TIP3   OH248235   1.496   1.301   2.988 -0.1082 -0.1847  0.0280
 8915TIP3    H148236   1.549   1.340   3.058 -0.3389 -0.1400  0.1810
 8915TIP3    H248237   1.526   1.344   2.908  0.3889 -0.4796  0.0566
 8916TIP3   OH248238   6.163   5.737  14.916  0.2492 -0.3521 -0.7335
 8916TIP3    H148239   6.134   5.799  14.982 -2.2529 -0.0139 -2.0247
 8916TIP3    H248240   6.258   5.738  14.922  0.2493  2.6302  0.1518
 8917TIP3   OH248241   2.538   1.788  16.156  0.0856  0.1336 -0.2308
 8917TIP3    H148242   2.534   1.820  16.246  1.6644  0.8637 -0.3990
 8917TIP3    H248243   2.569   1.698  16.164  1.9037  0.7330 -0.1024
 8918TIP3   OH248244   0.378   1.731   1.062 -0.3630 -0.0305  0.6308
 8918TIP3    H148245   0.462   1.776   1.054 -0.3976  0.3198  2.1071
 8918TIP3    H248246   0.313   1.801   1.056 -0.5300 -0.2035  0.3754
 8919TIP3   OH248247   2.808   6.183   2.148 -0.8347  0.0909  0.5546
 8919TIP3    H148248   2.828   6.178   2.242  0.1748  0.9960  0.4157
 8919TIP3    H248249   2.728   6.235   2.143 -0.5995  0.4956  0.9027
 8920TIP3   OH248250   3.973   2.409  13.987 -0.2129  0.1015  0.2839
 8920TIP3    H148251   3.887   2.414  13.947 -0.3100  1.7786  0.6232
 8920TIP3    H248252   4.034   2.399  13.914 -0.5977  0.1676 -0.0470
 8921TIP3   OH248253   1.112   6.144  16.958  0.1346  0.5607  0.2168
 8921TIP3    H148254   1.140   6.068  17.010 -1.0683  0.5984  0.9719
 8921TIP3    H248255   1.192   6.193  16.942  0.8675 -0.6067  0.1451
 8922TIP3   OH248256   2.491   3.112   4.572 -0.3728  0.5340  0.9659
 8922TIP3    H148257   2.549   3.075   4.639 -0.6229 -1.6719  0.0452
 8922TIP3    H248258   2.550   3.159   4.513  0.3469 -0.5228  0.8051
 8923TIP3   OH248259   6.106   0.258  13.712  0.0849  0.1143  0.1877
 8923TIP3    H148260   6.058   0.196  13.767  0.9702 -0.6592  0.1096
 8923TIP3    H248261   6.190   0.269  13.756  0.8245 -0.5481 -1.0045
 8924TIP3   OH248262   4.884   3.592   1.503 -0.2944 -0.0933  0.1788
 8924TIP3    H148263   4.812   3.576   1.563  0.7937 -1.3879  1.2197
 8924TIP3    H248264   4.917   3.678   1.527 -0.2180 -0.3654  1.0868
 8925TIP3   OH248265   1.089   0.365   3.109  0.1484 -0.1606 -0.3874
 8925TIP3    H148266   1.096   0.408   3.023 -0.7761  1.2933  0.2126
 8925TIP3    H248267   1.178   0.340   3.131  0.7162  1.3115 -0.8898
 8926TIP3   OH248268   6.066   3.059   5.085 -0.1804 -0.1566 -0.4595
 8926TIP3    H148269   6.125   3.022   5.019  0.1930  1.2501 -0.9436
 8926TIP3    H248270   5.980   3.059   5.043 -0.4384 -1.5975  0.0067
 8927TIP3   OH248271   4.987   3.474   0.443 -0.4185 -0.2707 -0.2154
 8927TIP3    H148272   4.991   3.556   0.395 -0.5686 -0.7042 -0.9813
 8927TIP3    H248273   4.907   3.481   0.495 -0.5661 -0.0395 -0.4721
 8928TIP3   OH248274   2.398   6.789  15.880  0.2088  0.0270  0.0494
 8928TIP3    H148275   2.381   6.750  15.794  3.4655 -0.3332 -0.5782
 8928TIP3    H248276   2.493   6.799  15.883  0.1396  0.8650  3.2949
 8929TIP3   OH248277   3.792   5.428  14.573 -0.0414 -0.1951 -0.0562
 8929TIP3    H148278   3.776   5.356  14.634  0.2852 -1.1939 -1.1043
 8929TIP3    H248279   3.886   5.443  14.577 -0.0431 -0.1475 -0.1829
 8930TIP3   OH248280   3.787   1.909  13.622 -0.3733 -0.1251 -0.0005
 8930TIP3    H148281   3.794   1.813  13.624  2.3967 -0.0036  0.3445
 8930TIP3    H248282   3.779   1.930  13.529 -0.9715 -0.6795 -0.0844
 8931TIP3   OH248283   0.965   4.390  11.950 -0.1873 -0.1401 -0.3238
 8931TIP3    H148284   0.954   4.452  11.878  1.6000  0.3394 -0.2342
 8931TIP3    H248285   1.031   4.430  12.007  0.1370 -1.5654  0.3599
 8932TIP3   OH248286   1.200   3.378   3.743  0.4315  0.3720 -0.1305
 8932TIP3    H148287   1.218   3.341   3.656  2.3815 -0.7059  0.6714
 8932TIP3    H248288   1.271   3.345   3.798 -1.9098 -0.7766  2.4408
 8933TIP3   OH248289   6.197   1.163   0.411  0.0005  0.0947  0.0273
 8933TIP3    H148290   6.129   1.101   0.438 -0.2929 -0.5179 -1.9848
 8933TIP3    H248291   6.153   1.220   0.347  1.3926 -0.3829 -1.3960
 8934TIP3   OH248292   0.355   3.471  13.889 -0.0180 -0.4550  0.2972
 8934TIP3    H148293   0.404   3.400  13.929  0.0922 -0.4487  0.1746
 8934TIP3    H248294   0.272   3.472  13.936 -0.0151 -0.6553  0.3084
 8935TIP3   OH248295   5.967   4.081   5.975  0.5124 -0.1080 -0.1954
 8935TIP3    H148296   5.903   4.134   6.022 -0.6280 -0.6603 -1.0793
 8935TIP3    H248297   5.949   3.991   6.003  1.8176 -0.1570  0.5833
 8936TIP3   OH248298   2.063   0.878   6.198  0.3452  0.1054 -0.1567
 8936TIP3    H148299   1.977   0.916   6.216  0.3555  0.2837 -0.4801
 8936TIP3    H248300   2.049   0.783   6.202  0.0818  0.1322 -0.4407
 8937TIP3   OH248301   0.373   2.365  16.674 -0.3675 -0.3782 -0.2300
 8937TIP3    H148302   0.404   2.308  16.604 -1.4208  0.5169 -1.4750
 8937TIP3    H248303   0.433   2.439  16.674 -0.9580  0.1142 -0.9029
 8938TIP3   OH248304   0.480   6.590  12.350  0.1007 -0.9732  0.1814
 8938TIP3    H148305   0.461   6.664  12.292 -1.1449 -0.4022  1.2840
 8938TIP3    H248306   0.551   6.543  12.305 -0.0888  0.0434 -1.2686
 8939TIP3   OH248307   6.160   6.034  16.336  0.2874 -0.3396  0.1747
 8939TIP3    H148308   6.235   6.079  16.375  0.9820 -0.6374 -0.7879
 8939TIP3    H248309   6.148   6.077  16.252 -2.7683  2.0114  1.6161
 8940TIP3   OH248310   0.117   3.454  16.200  0.4526 -0.3231  0.2636
 8940TIP3    H148311   0.159   3.535  16.230  0.1433  0.0148 -0.2124
 8940TIP3    H248312   0.025   3.477  16.188  0.7117 -0.2242 -1.7414
 8941TIP3   OH248313   1.966   6.552   2.384 -0.5640 -0.5219  0.5341
 8941TIP3    H148314   1.914   6.626   2.355 -0.9428 -1.1484 -0.4657
 8941TIP3    H248315   1.929   6.527   2.468 -2.0614 -1.0933 -0.2595
 8942TIP3   OH248316   1.486   3.482  11.991 -0.2521  0.2270 -0.3047
 8942TIP3    H148317   1.408   3.436  11.959 -0.3599 -0.2994  0.6742
 8942TIP3    H248318   1.496   3.452  12.081  0.1469  1.5386  0.1028
 8943TIP3   OH248319   5.417   2.234  15.740  0.0666 -0.1991  0.2129
 8943TIP3    H148320   5.383   2.156  15.695 -0.7098  0.4735 -0.3895
 8943TIP3    H248321   5.351   2.301  15.725  0.6327  0.5291  0.9022
 8944TIP3   OH248322   3.772   5.589  16.960  0.1838  0.5643 -0.1087
 8944TIP3    H148323   3.703   5.633  17.010  1.5246  1.1517  1.3059
 8944TIP3    H248324   3.730   5.510  16.926 -1.9016  2.1850 -1.5390
 8945TIP3   OH248325   1.549   2.756  15.711  0.5054 -0.2558 -0.2706
 8945TIP3    H148326   1.642   2.774  15.720  0.9049 -0.9559 -2.4896
 8945TIP3    H248327   1.538   2.667  15.747  1.2051 -1.1663 -2.1537
 8946TIP3   OH248328   6.282   1.241  13.532  0.2869 -0.6125  0.5131
 8946TIP3    H148329   6.236   1.250  13.449  0.7386  0.6885  0.3868
 8946TIP3    H248330   6.221   1.192  13.588 -0.7019 -0.0604 -0.0557
 8947TIP3   OH248331   1.879   4.803   1.090  0.2887 -0.5952 -0.1544
 8947TIP3    H148332   1.974   4.802   1.104  0.3650 -0.4327 -0.6572
 8947TIP3    H248333   1.867   4.774   1.000 -0.0938  0.0642 -0.3203
 8948TIP3   OH248334   1.355   4.704  15.876  0.8159 -0.0942 -0.2277
 8948TIP3    H148335   1.282   4.690  15.936 -0.4959  1.4486 -1.3888
 8948TIP3    H248336   1.388   4.616  15.857  0.2725 -0.7060  1.5084
 8949TIP3   OH248337   1.406   5.377  12.043 -0.3457 -0.3111 -0.3903
 8949TIP3    H148338   1.383   5.421  12.125 -4.0073 -1.1674 -0.7782
 8949TIP3    H248339   1.333   5.317  12.027  1.3250 -1.7973 -3.1770
 8950TIP3   OH248340   1.648   2.469   0.490 -0.3503  0.0040  0.4691
 8950TIP3    H148341   1.714   2.471   0.420 -0.9456 -0.9631 -0.1478
 8950TIP3    H248342   1.695   2.499   0.568  0.8584 -0.7516  0.0684
 8951TIP3   OH248343   6.092   3.267   4.858 -0.5296 -0.2912  0.4563
 8951TIP3    H148344   6.045   3.348   4.838 -0.5143 -0.2918  0.4188
 8951TIP3    H248345   6.108   3.272   4.953  0.4786  0.2883  0.2714
 8952TIP3   OH248346   6.127   4.188  12.223 -0.6864  0.2007  0.4555
 8952TIP3    H148347   6.122   4.107  12.172 -0.4288  0.5236 -0.1039
 8952TIP3    H248348   6.141   4.160  12.313  0.6832 -0.3754  0.0975
 8953TIP3   OH248349   2.945   5.301  13.673  0.0710 -0.8858  0.0491
 8953TIP3    H148350   2.992   5.222  13.644 -0.4586 -1.7159  1.3819
 8953TIP3    H248351   2.880   5.269  13.735 -0.7626  0.5174 -0.0590
 8954TIP3   OH248352   4.718   2.212  14.559  0.1194 -0.3453 -0.2115
 8954TIP3    H148353   4.641   2.269  14.553  1.0283  0.8084 -1.8987
 8954TIP3    H248354   4.689   2.137  14.610 -1.4135  1.1808  1.3087
 8955TIP3   OH248355   5.787   1.647  11.993 -0.3619  0.6822 -0.4083
 8955TIP3    H148356   5.753   1.734  11.974  0.0026  1.1143  0.8240
 8955TIP3    H248357   5.845   1.659  12.068 -2.4554 -1.0327  1.6563
 8956TIP3   OH248358   1.608   1.646   1.347  0.0182 -0.1034  0.2020
 8956TIP3    H148359   1.559   1.668   1.426  0.3314 -1.4378  0.7953
 8956TIP3    H248360   1.542   1.613   1.286 -0.0852 -0.0765  0.2984
 8957TIP3   OH248361   4.240   2.145  13.503 -0.0738 -0.2969 -0.4898
 8957TIP3    H148362   4.330   2.151  13.471  0.5412 -1.4639  0.8809
 8957TIP3    H248363   4.233   2.055  13.536 -1.5149  0.0059  0.0766
 8958TIP3   OH248364   6.028   3.952   4.090  0.1854 -0.3684  0.2291
 8958TIP3    H148365   6.075   3.888   4.143 -0.2820 -0.1104  0.9646
 8958TIP3    H248366   5.955   3.980   4.145 -1.4089 -1.4520 -1.2390
 8959TIP3   OH248367   0.632   1.497  13.717  0.2740  0.0802 -0.2799
 8959TIP3    H148368   0.665   1.583  13.692  2.4340 -0.5341  0.2397
 8959TIP3    H248369   0.548   1.514  13.758  0.4467  1.8905 -0.6198
 8960TIP3   OH248370   3.508   2.469   1.028 -0.0095 -0.3242 -0.2857
 8960TIP3    H148371   3.424   2.514   1.018  0.1172  0.1273  0.5643
 8960TIP3    H248372   3.504   2.430   1.115  1.4617  1.4597  0.6501
 8961TIP3   OH248373   1.581   1.861  13.736 -0.0060 -0.1324 -0.0229
 8961TIP3    H148374   1.605   1.809  13.660  0.5980 -1.5685  1.1121
 8961TIP3    H248375   1.662   1.869  13.787 -0.8182 -0.9749  1.4865
 8962TIP3   OH248376   0.070   2.492  12.413  0.2412  0.8256  0.5753
 8962TIP3    H148377   0.163   2.511  12.396  0.1983  1.2023  0.7420
 8962TIP3    H248378   0.026   2.511  12.330  0.5611 -1.2230 -0.1077
 8963TIP3   OH248379   3.932   3.876   1.992 -0.1279 -0.2790 -0.1939
 8963TIP3    H148380   3.979   3.868   2.076 -2.2580  0.6569  1.1586
 8963TIP3    H248381   3.896   3.789   1.976 -0.2210 -0.3122  0.1903
 8964TIP3   OH248382   6.042   0.075  15.910  0.1922 -0.2135  0.2151
 8964TIP3    H148383   6.070   0.090  15.820 -0.4057  0.8502  0.1927
 8964TIP3    H248384   5.954   0.037  15.903  0.6786 -1.4248  0.3384
 8965TIP3   OH248385   6.622   4.250  15.815  0.3150 -0.2290  0.3379
 8965TIP3    H148386   6.650   4.334  15.779 -0.6290 -0.2240 -0.4309
 8965TIP3    H248387   6.528   4.261  15.833  0.2904 -0.9531  0.7130
 8966TIP3   OH248388   4.061   6.234   2.665 -0.2422 -0.1250  0.3883
 8966TIP3    H148389   4.144   6.282   2.666  0.1029 -0.6355 -0.7621
 8966TIP3    H248390   4.047   6.214   2.572 -0.0995 -2.6586  0.8374
 8967TIP3   OH248391   0.090   1.947  14.991 -0.2532 -0.1550  0.0029
 8967TIP3    H148392   0.077   1.912  14.902  0.4581 -1.4099  0.3660
 8967TIP3    H248393   0.018   2.008  15.003 -0.4326 -0.0481 -1.4020
 8968TIP3   OH248394   1.050   4.748   2.217  0.0573  0.2128 -0.1554
 8968TIP3    H148395   1.015   4.771   2.131  0.5297 -1.4702 -0.8342
 8968TIP3    H248396   1.022   4.819   2.274 -3.6263 -0.5037 -0.8453
 8969TIP3   OH248397   5.428   5.339   4.509 -0.2959 -0.0896 -0.4834
 8969TIP3    H148398   5.464   5.265   4.557 -0.5110  0.4052  0.4679
 8969TIP3    H248399   5.502   5.398   4.496 -0.5138  0.4432  0.5487
 8970TIP3   OH248400   0.054   3.266  16.555 -0.0291  0.4570 -0.1373
 8970TIP3    H148401   0.037   3.359  16.542  1.1003  0.8921  1.3066
 8970TIP3    H248402  -0.017   3.236  16.613  0.1975  0.6557  0.2411
 8971TIP3   OH248403   3.130   6.168   5.145  0.6866  0.1474 -0.2125
 8971TIP3    H148404   3.049   6.146   5.098 -0.0572  1.5474  0.3647
 8971TIP3    H248405   3.125   6.117   5.226  1.7977 -1.9884 -1.3957
 8972TIP3   OH248406   5.327   1.278  15.231 -0.4902 -0.2184 -0.1499
 8972TIP3    H148407   5.410   1.242  15.261 -0.4486  0.1441  0.1666
 8972TIP3    H248408   5.333   1.273  15.135 -0.1618 -0.3155 -0.1266
 8973TIP3   OH248409   2.912   4.564   5.067 -0.7111 -0.4559 -0.4582
 8973TIP3    H148410   2.959   4.623   5.008 -0.0621 -0.5077 -0.0077
 8973TIP3    H248411   2.974   4.493   5.084 -0.6088 -0.0876  0.8428
 8974TIP3   OH248412   3.786   0.055   3.126  0.2991 -0.2194 -0.1480
 8974TIP3    H148413   3.807   0.115   3.055 -1.0163  0.2159 -0.1973
 8974TIP3    H248414   3.816   0.100   3.205 -0.6647  0.5262 -0.1863
 8975TIP3   OH248415   0.500   0.760   4.363  0.1874  0.5735 -0.3489
 8975TIP3    H148416   0.431   0.700   4.393  0.3787  0.2425 -0.5640
 8975TIP3    H248417   0.576   0.704   4.350 -0.0433  0.5834 -2.0204
 8976TIP3   OH248418   3.698   2.638  10.842 -0.2808  0.1874  0.1628
 8976TIP3    H148419   3.777   2.585  10.851 -0.9052 -0.5050  1.9001
 8976TIP3    H248420   3.729   2.725  10.816  0.9351 -0.3926 -0.3588
 8977TIP3   OH248421   2.628   1.325   2.782 -0.1504  0.0408 -0.3744
 8977TIP3    H148422   2.592   1.258   2.840 -1.3196  1.0013  0.0646
 8977TIP3    H248423   2.661   1.277   2.706 -2.3081 -0.9533 -0.7507
 8978TIP3   OH248424   3.524   4.219  15.801  0.2689 -0.4503 -0.4901
 8978TIP3    H148425   3.594   4.162  15.834  1.0509  0.2980 -0.8311
 8978TIP3    H248426   3.552   4.307  15.824  0.0384 -0.0394 -1.6874
 8979TIP3   OH248427   1.446   2.557   2.463 -0.2674 -0.3302  0.5505
 8979TIP3    H148428   1.523   2.593   2.419  0.2235 -2.4093 -0.4454
 8979TIP3    H248429   1.372   2.589   2.411  0.2122 -1.4545 -0.8962
 8980TIP3   OH248430   2.179   3.484   3.697 -0.5418 -0.4706  0.0887
 8980TIP3    H148431   2.201   3.443   3.614 -0.8186 -1.4011  0.4707
 8980TIP3    H248432   2.095   3.526   3.682 -0.6466 -0.7385 -0.0657
 8981TIP3   OH248433   5.769   4.081   4.171 -0.3297 -0.6297  0.1696
 8981TIP3    H148434   5.708   4.014   4.202 -1.8575  0.3688 -0.5215
 8981TIP3    H248435   5.723   4.124   4.099  1.2225  0.1683 -0.4043
 8982TIP3   OH248436   2.267   6.055  13.449  0.1563 -0.2229  0.2810
 8982TIP3    H148437   2.232   6.117  13.514 -0.6777  0.9147 -1.2041
 8982TIP3    H248438   2.296   5.981  13.502 -2.0630 -0.0922  1.8762
 8983TIP3   OH248439   4.719   2.055   0.171  0.5793 -0.3115 -0.0010
 8983TIP3    H148440   4.787   2.115   0.142  0.7725 -0.2861  0.4921
 8983TIP3    H248441   4.720   2.061   0.267  1.2385 -1.7940  0.1154
 8984TIP3   OH248442   0.021   5.841  14.974  0.0639  0.0773  0.0530
 8984TIP3    H148443  -0.062   5.794  14.978 -0.0574  0.3485  1.0122
 8984TIP3    H248444  -0.003   5.931  14.953 -0.0120  0.4035  1.4098
 8985TIP3   OH248445   1.664   4.469   2.635 -0.3291 -0.1868 -0.1729
 8985TIP3    H148446   1.674   4.409   2.561 -0.5579  1.1236 -1.3082
 8985TIP3    H248447   1.747   4.462   2.682  0.1406 -0.4575 -1.0161
 8986TIP3   OH248448   2.550   4.314   4.954  0.4720  0.3894 -0.2342
 8986TIP3    H148449   2.471   4.349   4.993  0.4922  0.0897  0.0786
 8986TIP3    H248450   2.601   4.391   4.929  0.7289  0.5883  0.8648
 8987TIP3   OH248451   6.609   5.042   1.520 -0.6199 -0.1140  0.2154
 8987TIP3    H148452   6.685   5.095   1.544 -0.8376 -0.6791  2.3812
 8987TIP3    H248453   6.535   5.104   1.520 -0.5140  0.0137  0.4336
 8988TIP3   OH248454   2.798   6.481  14.747  0.3340 -0.3704  0.3825
 8988TIP3    H148455   2.715   6.524  14.729 -1.1513 -2.4039  1.9424
 8988TIP3    H248456   2.855   6.550  14.779 -0.1525  1.3818 -2.2065
 8989TIP3   OH248457   5.170   0.742   2.322  0.3494  0.5818  0.0708
 8989TIP3    H148458   5.086   0.748   2.367  0.8503 -1.5673  1.4576
 8989TIP3    H248459   5.192   0.832   2.298 -1.9503  1.2703  0.3667
 8990TIP3   OH248460   4.691   0.087  15.233  0.1011  0.7165 -0.3743
 8990TIP3    H148461   4.705  -0.007  15.217  0.5178  0.5843  0.7040
 8990TIP3    H248462   4.764   0.113  15.289  1.8476  2.4309 -3.1571
 8991TIP3   OH248463   2.530   0.505  15.812  0.5285  0.1925  0.1703
 8991TIP3    H148464   2.536   0.515  15.907  2.2589  1.0369  0.0038
 8991TIP3    H248465   2.436   0.492  15.795  0.3584 -1.7215  2.1221
 8992TIP3   OH248466   3.757   4.173   2.743  0.1394  0.2195  0.2013
 8992TIP3    H148467   3.847   4.197   2.767 -0.9172  2.2265  2.7663
 8992TIP3    H248468   3.756   4.078   2.748  1.8414  0.2055  1.4505
 8993TIP3   OH248469   2.805   1.957  12.864 -0.3804  0.4966  0.8156
 8993TIP3    H148470   2.752   2.037  12.864 -1.2442 -0.0678  0.5978
 8993TIP3    H248471   2.759   1.898  12.924 -0.6462 -0.4207 -0.2666
 8994TIP3   OH248472   5.601   6.680   0.256  0.0385  0.0288  0.9337
 8994TIP3    H148473   5.670   6.730   0.300  0.7137 -0.4979  0.4816
 8994TIP3    H248474   5.647   6.623   0.196 -0.8555  0.4091 -0.1402
 8995TIP3   OH248475   5.093   2.343  12.247  0.7080 -0.0576 -0.5387
 8995TIP3    H148476   5.076   2.425  12.200 -2.0346 -0.4469 -0.3697
 8995TIP3    H248477   5.122   2.282  12.179  4.5669  1.3363 -0.4446
 8996TIP3   OH248478   3.752   1.171   2.736  0.2389  0.4672  0.0060
 8996TIP3    H148479   3.710   1.212   2.812  3.0007 -0.4278  2.1508
 8996TIP3    H248480   3.683   1.118   2.697 -1.0020 -0.0183  2.6333
 8997TIP3   OH248481   4.685   5.124  14.404  0.7412 -0.0215 -0.2019
 8997TIP3    H148482   4.776   5.155  14.397  0.3272  1.5711  1.0356
 8997TIP3    H248483   4.636   5.181  14.346  0.5156 -0.8544 -0.8334
 8998TIP3   OH248484   3.174   2.778  11.710 -0.0982  0.0990  0.6025
 8998TIP3    H148485   3.234   2.779  11.785  1.0689  0.8237 -0.3013
 8998TIP3    H248486   3.223   2.733  11.642 -0.9117 -0.0167  0.0920
 8999TIP3   OH248487   5.548   6.498  10.857 -0.6438 -0.0100 -0.1935
 8999TIP3    H148488   5.631   6.459  10.831  0.4993  2.6550 -0.8187
 8999TIP3    H248489   5.549   6.586  10.819 -2.4121  1.2081  2.2516
 9000TIP3   OH248490   6.342   6.122  16.009  0.1681 -0.0756  0.7546
 9000TIP3    H148491   6.377   6.047  15.960 -1.8073 -0.7767  0.3160
 9000TIP3    H248492   6.297   6.175  15.943  2.1899  2.0051  0.9038
 9001TIP3   OH248493   1.772   6.502  12.571  0.3584 -0.0571 -0.0326
 9001TIP3    H148494   1.719   6.426  12.550  0.8375 -1.0381  2.0658
 9001TIP3    H248495   1.733   6.537  12.651  2.1812 -0.1625  0.9434
 9002TIP3   OH248496   0.780   5.968   5.435  0.2657 -0.6047  0.3487
 9002TIP3    H148497   0.714   5.997   5.498 -0.9078  0.2390 -1.1994
 9002TIP3    H248498   0.732   5.914   5.373  1.7064 -2.8095  1.0218
 9003TIP3   OH248499   4.836   3.793   5.412 -0.5009  0.3626  0.3195
 9003TIP3    H148500   4.815   3.752   5.496  1.4690  0.0685  0.7250
 9003TIP3    H248501   4.893   3.866   5.435 -0.3935  0.6242 -0.7235
 9004TIP3   OH248502   0.049   1.227  10.720 -0.7439 -0.2513 -0.4586
 9004TIP3    H148503  -0.040   1.262  10.719 -0.8579 -0.5547 -0.7521
 9004TIP3    H248504   0.076   1.227  10.629 -1.0928 -1.8314 -0.5884
 9005TIP3   OH248505   2.921   6.101   1.651  0.5377 -0.4166 -0.3719
 9005TIP3    H148506   2.991   6.165   1.667  0.5964 -0.6814  0.5071
 9005TIP3    H248507   2.930   6.078   1.559  1.5494 -0.3624 -0.2985
 9006TIP3   OH248508   5.962   2.624  11.266 -0.3978  0.7766  0.0432
 9006TIP3    H148509   5.941   2.676  11.188 -0.7413 -0.7445 -0.9240
 9006TIP3    H248510   6.051   2.591  11.249 -0.5135  0.3587  0.2413
 9007TIP3   OH248511   0.059   3.689  15.358  0.5792 -0.2330 -0.2219
 9007TIP3    H148512  -0.033   3.683  15.386  0.3744  1.1271 -0.5287
 9007TIP3    H248513   0.109   3.659  15.434 -0.0510  1.5340  0.9531
 9008TIP3   OH248514   6.479   6.193   2.766  0.1555  0.0562  0.3363
 9008TIP3    H148515   6.490   6.276   2.811 -1.2320 -0.1007  1.0305
 9008TIP3    H248516   6.402   6.205   2.711  0.5913 -0.4300 -0.4040
 9009TIP3   OH248517   5.122   1.519  16.591  0.4408  0.7997  0.2632
 9009TIP3    H148518   5.120   1.492  16.683  0.5782  2.1103  0.6783
 9009TIP3    H248519   5.208   1.559  16.580  0.0088  1.6384 -0.1241
 9010TIP3   OH248520   6.700   2.863   0.813 -0.0865  0.3218 -0.4159
 9010TIP3    H148521   6.794   2.882   0.805  0.0036 -0.2179 -0.6609
 9010TIP3    H248522   6.695   2.767   0.812 -0.7397  0.3543 -1.5705
 9011TIP3   OH248523   0.258   5.262  12.203  0.2868 -0.3191  0.0738
 9011TIP3    H148524   0.332   5.287  12.148 -0.4000  0.1821 -0.6550
 9011TIP3    H248525   0.199   5.337  12.200  0.1551 -0.3520  1.3822
 9012TIP3   OH248526   2.768   2.892  17.122 -0.1177  0.0543  0.0501
 9012TIP3    H148527   2.722   2.830  17.180  2.7374 -2.6376 -0.3168
 9012TIP3    H248528   2.842   2.923  17.175 -0.0616  1.2104 -0.6725
 9013TIP3   OH248529   2.833   5.323   4.606 -0.6355  0.5543  0.5276
 9013TIP3    H148530   2.747   5.299   4.571 -0.7744 -0.8078  1.7107
 9013TIP3    H248531   2.845   5.414   4.580 -2.3052  0.6819  0.0938
 9014TIP3   OH248532   3.550   0.897  14.589 -0.3928  0.3806  0.0721
 9014TIP3    H148533   3.550   0.958  14.515 -0.3853 -0.9902 -1.1002
 9014TIP3    H248534   3.495   0.824  14.560  0.1135 -0.4741  1.1790
 9015TIP3   OH248535   5.020   3.751   1.991 -0.1838  0.3377  0.0059
 9015TIP3    H148536   4.997   3.837   2.027 -0.8953  0.3895 -0.5605
 9015TIP3    H248537   5.016   3.763   1.896 -1.4514 -0.6169 -0.0822
 9016TIP3   OH248538   5.498   4.088   3.068 -0.2107 -0.1294 -0.0361
 9016TIP3    H148539   5.581   4.125   3.099 -0.0801  0.1253 -0.6641
 9016TIP3    H248540   5.433   4.116   3.132  0.0072  0.5869 -0.1170
 9017TIP3   OH248541   3.368   3.966   0.462 -0.6006 -0.0509  0.5838
 9017TIP3    H148542   3.367   3.929   0.373 -1.0671  0.7927  0.2264
 9017TIP3    H248543   3.304   4.037   0.459 -0.2014  0.3599  1.4430
 9018TIP3   OH248544   2.094   3.343   5.535 -0.3380 -0.3218 -0.0756
 9018TIP3    H148545   2.061   3.425   5.572  1.6270  0.9421 -0.9445
 9018TIP3    H248546   2.021   3.282   5.543 -1.9664  1.5710  0.3645
 9019TIP3   OH248547   4.966   2.795  11.003  0.2482  0.3404 -0.8772
 9019TIP3    H148548   5.001   2.762  10.920 -1.0126  0.4769 -1.4822
 9019TIP3    H248549   4.912   2.723  11.036  0.6241  0.3438 -0.2394
 9020TIP3   OH248550   2.530   5.976   5.127  0.0456  0.0151 -0.9635
 9020TIP3    H148551   2.507   6.067   5.109 -0.3489 -0.1455 -1.2758
 9020TIP3    H248552   2.539   5.972   5.222 -0.7744  0.1832 -0.8715
 9021TIP3   OH248553   0.661   2.812  11.436 -0.3965  0.1599 -0.4878
 9021TIP3    H148554   0.727   2.743  11.431 -0.5028 -0.1425  1.5435
 9021TIP3    H248555   0.579   2.768  11.413 -0.3401 -0.2229  0.0145
 9022TIP3   OH248556   5.922   3.275   3.902 -0.0560 -0.0053 -0.0534
 9022TIP3    H148557   5.887   3.352   3.946 -1.0485 -0.5697  0.1798
 9022TIP3    H248558   5.847   3.240   3.853  0.6957 -0.1192 -1.1675
 9023TIP3   OH248559   0.925   3.249  11.989 -0.3844  0.1688  0.7202
 9023TIP3    H148560   0.975   3.174  11.955 -1.3096 -0.5416  0.8906
 9023TIP3    H248561   0.936   3.317  11.922 -1.4234 -0.9022 -0.5955
 9024TIP3   OH248562   0.259   5.574   1.739 -0.1865  0.3746 -0.5057
 9024TIP3    H148563   0.351   5.584   1.715  0.3244 -2.2118  0.1448
 9024TIP3    H248564   0.255   5.598   1.831  0.3534 -1.7673  0.1162
 9025TIP3   OH248565   4.319   4.357   3.349  0.4240  0.1260  0.0578
 9025TIP3    H148566   4.239   4.375   3.300  0.5920 -0.1111 -0.3118
 9025TIP3    H248567   4.370   4.438   3.341  0.8161 -0.1940 -0.8915
 9026TIP3   OH248568   1.943   6.512  15.492 -0.1783  0.2960 -0.2357
 9026TIP3    H148569   1.957   6.446  15.424  0.2976  0.0352  0.1185
 9026TIP3    H248570   1.965   6.468  15.574  1.3072  1.2464 -0.1020
 9027TIP3   OH248571   6.267   4.833  15.939  0.4639 -1.2615  0.2429
 9027TIP3    H148572   6.240   4.784  15.861 -0.4577  0.4909 -0.5910
 9027TIP3    H248573   6.236   4.922  15.924 -2.0033 -1.3279  3.6568
 9028TIP3   OH248574   2.327   6.683   5.069 -0.3743  0.5378 -0.8474
 9028TIP3    H148575   2.420   6.694   5.052  0.0863  1.5665  1.8783
 9028TIP3    H248576   2.284   6.744   5.010  0.8650  1.7217 -0.5555
 9029TIP3   OH248577   5.523   5.584  11.264  0.6860 -0.0386 -0.7058
 9029TIP3    H148578   5.469   5.541  11.331  2.0064 -1.9809 -0.8148
 9029TIP3    H248579   5.585   5.637  11.315  1.3518 -1.0972 -0.4044
 9030TIP3   OH248580   6.364   0.368   2.326  0.0544  0.0393  0.1749
 9030TIP3    H148581   6.335   0.378   2.417  0.3276  1.0949  0.1555
 9030TIP3    H248582   6.376   0.457   2.295  0.7330 -0.3338 -0.6541
 9031TIP3   OH248583   0.270   4.356   0.634 -0.2688 -0.5039  0.4764
 9031TIP3    H148584   0.225   4.430   0.592 -0.1501 -0.3653  0.5888
 9031TIP3    H248585   0.275   4.289   0.565 -1.1263 -0.7319  0.6245
 9032TIP3   OH248586   4.042   2.489  16.471 -0.0872 -0.7313 -0.2805
 9032TIP3    H148587   4.092   2.451  16.543 -0.6906  0.8856  1.0434
 9032TIP3    H248588   3.972   2.538  16.513  0.3026  1.3366 -1.8970
 9033TIP3   OH248589   2.239   6.054   4.991  0.1351  0.0251 -0.3998
 9033TIP3    H148590   2.284   5.969   4.998 -1.5469 -0.8656  0.4446
 9033TIP3    H248591   2.309   6.118   4.988  1.4824 -1.2605  1.1934
 9034TIP3   OH248592   2.831   4.173  12.214  0.7592  0.3891  0.5703
 9034TIP3    H148593   2.827   4.267  12.195 -0.2748  0.4064  0.8016
 9034TIP3    H248594   2.842   4.132  12.129  0.0146  0.6697  0.3277
 9035TIP3   OH248595   6.344   3.854   1.675  0.7094 -0.0739  0.0759
 9035TIP3    H148596   6.357   3.857   1.580 -1.7938 -0.5392 -0.3349
 9035TIP3    H248597   6.433   3.841   1.710  1.9344  1.8147 -2.0566
 9036TIP3   OH248598   2.750   2.566  11.107 -0.3449 -0.6981 -0.4145
 9036TIP3    H148599   2.792   2.481  11.118  1.3403  0.0930 -0.4017
 9036TIP3    H248600   2.795   2.606  11.032 -0.8805  0.3178 -0.2161
 9037TIP3   OH248601   1.797   0.114  14.491  1.0539 -0.2085  0.9204
 9037TIP3    H148602   1.740   0.039  14.474  2.0607 -1.0934  1.2998
 9037TIP3    H248603   1.737   0.188  14.501  0.1816 -0.3091 -2.4901
 9038TIP3   OH248604   0.900   4.751  15.097  0.3499 -0.0084  0.1249
 9038TIP3    H148605   0.955   4.710  15.164  0.3029 -0.6477 -0.2200
 9038TIP3    H248606   0.927   4.843  15.096 -0.7125  0.3943  2.1037
 9039TIP3   OH248607   1.143   3.340   4.161 -0.0121 -0.3108  0.4570
 9039TIP3    H148608   1.165   3.288   4.084  1.1430  0.2557  0.3798
 9039TIP3    H248609   1.053   3.316   4.181 -0.0691 -1.0560 -0.5935
 9040TIP3   OH248610   1.792   5.140  12.367 -0.6773 -0.3194  0.6517
 9040TIP3    H148611   1.716   5.083  12.383 -1.1802  0.0366 -0.3659
 9040TIP3    H248612   1.804   5.187  12.450 -0.0419 -2.1121  1.6288
 9041TIP3   OH248613   5.909   2.354   4.486 -0.3489 -0.3122 -0.4942
 9041TIP3    H148614   5.969   2.395   4.424 -0.1197  1.2918  0.7123
 9041TIP3    H248615   5.873   2.428   4.537 -1.7124 -1.4211  0.2275
 9042TIP3   OH248616   6.063   5.395  14.170  0.2133  0.0937  1.0987
 9042TIP3    H148617   6.145   5.385  14.218  1.5113  1.9488 -0.5631
 9042TIP3    H248618   6.082   5.363  14.082 -0.5208  1.4061  0.4222
 9043TIP3   OH248619   3.792   1.238  13.421 -0.0092 -0.2810 -0.0044
 9043TIP3    H148620   3.722   1.201  13.366 -0.3726 -0.2724  0.4471
 9043TIP3    H248621   3.806   1.172  13.489  1.1060 -0.7307 -0.6379
 9044TIP3   OH248622   3.427   4.428   3.310  0.5167  0.0172  0.3969
 9044TIP3    H148623   3.444   4.521   3.324  0.4998 -0.1130  1.3676
 9044TIP3    H248624   3.399   4.395   3.395  4.1743 -1.6723  1.1551
 9045TIP3   OH248625   2.010   0.615   3.158 -0.1375  1.0203 -0.2814
 9045TIP3    H148626   2.007   0.551   3.087 -0.1515  1.5205 -0.7442
 9045TIP3    H248627   2.089   0.666   3.140  0.6632  0.2288  0.8910
 9046TIP3   OH248628   6.556   1.498  15.034  0.3620  0.1520  0.2529
 9046TIP3    H148629   6.558   1.589  15.063  2.1879 -0.0547  0.8802
 9046TIP3    H248630   6.613   1.452  15.095 -2.0758 -1.8411  1.2169
 9047TIP3   OH248631   2.848   1.807  14.028 -0.3590  0.0683  0.4923
 9047TIP3    H148632   2.915   1.869  14.001 -0.4594 -0.3608 -0.8029
 9047TIP3    H248633   2.895   1.725  14.046 -0.5383 -0.2693 -0.5428
 9048TIP3   OH248634   2.369   4.793  13.268 -0.4644  0.1738 -0.5702
 9048TIP3    H148635   2.278   4.821  13.277 -0.3670  0.0780  1.1955
 9048TIP3    H248636   2.416   4.873  13.246 -0.7456  0.6129  0.3537
 9049TIP3   OH248637   4.114   2.902  13.175  0.4670 -0.0540 -0.4781
 9049TIP3    H148638   4.039   2.873  13.227  1.9552  0.3975  2.0877
 9049TIP3    H248639   4.188   2.851  13.207  1.6900  1.0571 -1.3788
 9050TIP3   OH248640   5.906   4.788  14.088 -0.9446 -0.5123 -0.0970
 9050TIP3    H148641   5.854   4.855  14.043 -1.0648  0.3060  1.1994
 9050TIP3    H248642   5.846   4.749  14.151 -0.6987 -1.4262 -0.4151
 9051TIP3   OH248643   4.553   1.059   2.286  0.5214 -0.3664  0.6216
 9051TIP3    H148644   4.545   1.071   2.381  1.8120  0.0533  0.6872
 9051TIP3    H248645   4.647   1.059   2.269  0.3036 -0.2729 -0.6875
 9052TIP3   OH248646   3.434   6.070  16.318 -0.4812  0.1597 -0.1162
 9052TIP3    H148647   3.509   6.125  16.294  0.5939 -1.6116 -0.9762
 9052TIP3    H248648   3.370   6.085  16.249 -0.7866  1.3644  0.4000
 9053TIP3   OH248649   1.586   2.725  13.911 -0.2164 -0.2204 -0.2262
 9053TIP3    H148650   1.652   2.748  13.847  0.1695  1.9587  0.8621
 9053TIP3    H248651   1.630   2.733  13.996 -1.0370 -1.8047  0.3952
 9054TIP3   OH248652   1.312   0.242   6.845 -0.9369  0.7474  0.3416
 9054TIP3    H148653   1.249   0.285   6.903 -0.6502  0.5445  0.8100
 9054TIP3    H248654   1.387   0.223   6.901 -0.9930 -0.2159  0.1023
 9055TIP3   OH248655   1.008   1.869  14.119 -0.3560  0.5838  1.1427
 9055TIP3    H148656   1.078   1.804  14.120 -1.1093 -0.4649 -2.0889
 9055TIP3    H248657   1.030   1.928  14.046 -2.9490 -0.0736 -0.3392
 9056TIP3   OH248658   5.591   3.979  14.271 -0.9305 -0.1340 -0.3709
 9056TIP3    H148659   5.681   3.945  14.274 -1.0364 -0.4001  2.6333
 9056TIP3    H248660   5.601   4.073  14.261 -0.3755 -0.2399 -0.9242
 9057TIP3   OH248661   1.426   2.792   1.350  0.3396  0.3584  0.0684
 9057TIP3    H148662   1.419   2.740   1.430  2.5041  0.4445  0.3871
 9057TIP3    H248663   1.443   2.881   1.380 -1.1898  0.8871 -0.5058
 9058TIP3   OH248664   2.976   0.563  11.410  0.5235  0.7489 -0.2141
 9058TIP3    H148665   2.995   0.583  11.319 -1.4964  1.2409 -0.5771
 9058TIP3    H248666   3.035   0.491  11.432  0.1177 -0.3030 -2.3362
 9059TIP3   OH248667   4.030   0.172   1.484  0.0760 -0.4576  0.1068
 9059TIP3    H148668   4.033   0.121   1.565  0.1265 -1.8087 -0.7284
 9059TIP3    H248669   3.968   0.126   1.428  0.2693  0.2845 -0.7464
 9060TIP3   OH248670   4.258   5.474  12.532 -0.9558  0.7690  0.5095
 9060TIP3    H148671   4.278   5.520  12.450  1.8852  3.0048  2.2862
 9060TIP3    H248672   4.216   5.540  12.587  1.3110  0.7684  2.3799
 9061TIP3   OH248673   4.673   1.810   1.781  0.0345  0.0151  0.0291
 9061TIP3    H148674   4.688   1.823   1.874 -0.4882 -0.5643  0.2017
 9061TIP3    H248675   4.761   1.805   1.743  0.2500  0.3496  0.4684
 9062TIP3   OH248676   5.222   3.607   4.014  0.7613  0.4895 -0.0503
 9062TIP3    H148677   5.311   3.601   4.050  0.2767 -1.0247  1.0189
 9062TIP3    H248678   5.219   3.540   3.946  0.1152 -0.2609  0.7022
 9063TIP3   OH248679   4.779   0.525  15.276 -0.0375 -0.0460 -0.1300
 9063TIP3    H148680   4.760   0.507  15.183 -0.4289 -0.9628  0.1151
 9063TIP3    H248681   4.871   0.551  15.276  0.0149 -0.2018 -0.7586
 9064TIP3   OH248682   3.284   6.827   4.340 -0.0198  0.1492 -0.4330
 9064TIP3    H148683   3.191   6.851   4.338 -0.2583 -0.7272 -0.6483
 9064TIP3    H248684   3.319   6.872   4.416 -1.2174 -1.5107  1.2073
 9065TIP3   OH248685   3.786   0.486  13.821  0.1254  0.4684  0.1176
 9065TIP3    H148686   3.835   0.567  13.813  1.5391 -0.3767 -0.0237
 9065TIP3    H248687   3.852   0.417  13.822 -1.0319 -0.6887  0.3384
 9066TIP3   OH248688   2.142   0.139  16.670  0.6424  0.2862  0.2167
 9066TIP3    H148689   2.235   0.147  16.648  0.1871 -0.5553 -2.3998
 9066TIP3    H248690   2.122   0.047  16.654 -0.9291  0.7440 -0.6334
 9067TIP3   OH248691   1.204   0.138   3.621  0.5314 -0.2508  0.0134
 9067TIP3    H148692   1.169   0.052   3.644  0.6999 -0.6998 -1.3380
 9067TIP3    H248693   1.288   0.143   3.668  0.2489 -0.5732  0.5585
 9068TIP3   OH248694   6.110   5.876  13.572  0.1678  0.3721  0.3698
 9068TIP3    H148695   6.077   5.838  13.653  0.8280 -0.4576  0.2693
 9068TIP3    H248696   6.032   5.887  13.517 -0.0693 -0.8255  0.4271
 9069TIP3   OH248697   2.786   4.647  13.117 -0.5090 -0.6386  0.6185
 9069TIP3    H148698   2.772   4.709  13.189  1.2877  0.0750  0.4052
 9069TIP3    H248699   2.835   4.575  13.157 -1.8964 -1.5916  0.6824
 9070TIP3   OH248700   4.186   4.410   1.175 -0.6547  0.4418  0.0372
 9070TIP3    H148701   4.277   4.426   1.148 -0.7294  0.3521 -0.2659
 9070TIP3    H248702   4.134   4.444   1.103 -0.8911  1.2940  0.5855
 9071TIP3   OH248703   3.717   4.210   2.221  0.1140 -0.1088 -0.2798
 9071TIP3    H148704   3.665   4.286   2.247 -0.1299 -0.0872 -0.8122
 9071TIP3    H248705   3.807   4.242   2.219 -0.1678  0.7291 -2.3731
 9072TIP3   OH248706   0.030   6.291  14.615 -0.6873 -0.3505  0.4657
 9072TIP3    H148707  -0.002   6.207  14.583  0.3843 -0.2319 -1.0046
 9072TIP3    H248708   0.119   6.297  14.581 -0.1866  0.6908  1.8717
 9073TIP3   OH248709   5.664   4.868   4.710 -0.3802 -0.4790 -0.1736
 9073TIP3    H148710   5.733   4.891   4.648  0.4656  0.4278  1.0398
 9073TIP3    H248711   5.663   4.773   4.711 -1.7053 -0.6084 -2.9087
 9074TIP3   OH248712   6.372   5.132  15.407 -0.1594  0.6485  0.0916
 9074TIP3    H148713   6.408   5.145  15.495  0.5076  1.5672 -0.3008
 9074TIP3    H248714   6.431   5.069  15.366 -0.2629  0.4958  0.1758
 9075TIP3   OH248715   3.006   4.394   0.762 -0.2119 -0.2266 -0.0388
 9075TIP3    H148716   3.049   4.319   0.722 -2.0230 -0.7368 -1.1750
 9075TIP3    H248717   3.052   4.470   0.726  1.8856 -0.7311  1.4195
 9076TIP3   OH248718   4.719   2.161  15.567 -0.4801 -0.2431  0.9352
 9076TIP3    H148719   4.747   2.184  15.478  1.1894  0.2517  1.5585
 9076TIP3    H248720   4.652   2.094  15.553  1.8395 -2.4537 -0.7115
 9077TIP3   OH248721   3.496   3.382  15.905  0.6134  0.0145 -0.1909
 9077TIP3    H148722   3.402   3.388  15.923  0.9175  2.7276  0.9213
 9077TIP3    H248723   3.520   3.295  15.937 -1.7558 -1.4836 -2.1061
 9078TIP3   OH248724   3.444   3.772   2.358  0.1109 -0.2666  0.3331
 9078TIP3    H148725   3.439   3.684   2.320 -0.2563  0.2952 -0.9924
 9078TIP3    H248726   3.353   3.803   2.358  0.5585  1.6407 -3.1680
 9079TIP3   OH248727   2.821   0.276  13.876  0.1214 -0.1822 -0.0678
 9079TIP3    H148728   2.818   0.181  13.886 -1.8435 -0.2707 -0.9025
 9079TIP3    H248729   2.754   0.308  13.937 -0.5305  0.4910 -1.1113
 9080TIP3   OH248730   0.064   6.468  13.741  0.1042 -0.3425 -0.5150
 9080TIP3    H148731   0.059   6.417  13.822  1.9675 -2.0388 -1.4063
 9080TIP3    H248732   0.006   6.423  13.680 -1.7157  1.2362 -0.0700
 9081TIP3   OH248733   6.827   1.384  10.988  0.2369 -0.5727  0.4814
 9081TIP3    H148734   6.753   1.407  11.044  0.5298  0.0041  0.6499
 9081TIP3    H248735   6.863   1.304  11.027  0.6339 -0.0024  1.3307
 9082TIP3   OH248736   3.250   4.578  11.968 -0.0196  0.2065  0.5051
 9082TIP3    H148737   3.165   4.536  11.951  0.7848 -1.2002 -0.2297
 9082TIP3    H248738   3.236   4.670  11.945 -1.3409  0.0018  0.4026
 9083TIP3   OH248739   0.411   4.822   3.837  0.0353 -0.0693  0.0561
 9083TIP3    H148740   0.419   4.846   3.745  0.0594  1.2158  0.3649
 9083TIP3    H248741   0.476   4.877   3.882 -0.6280  0.0264  0.9343
 9084TIP3   OH248742   5.655   3.205   4.071 -0.4315 -0.6705  0.6428
 9084TIP3    H148743   5.680   3.115   4.049 -0.5944 -0.5796  0.0676
 9084TIP3    H248744   5.580   3.223   4.014  1.2363  0.7770 -1.2319
 9085TIP3   OH248745   4.678   1.593  13.256 -0.2071 -0.4491  0.0594
 9085TIP3    H148746   4.608   1.655  13.278 -0.6672 -0.2186 -1.8554
 9085TIP3    H248747   4.757   1.634  13.291 -0.0210  2.8196 -3.5401
 9086TIP3   OH248748   4.245   5.264  16.401 -0.6860  0.7619 -0.1677
 9086TIP3    H148749   4.228   5.357  16.418 -0.3493  0.6896  0.6539
 9086TIP3    H248750   4.195   5.218  16.469 -0.1090  0.3913  0.0115
 9087TIP3   OH248751   2.016   5.230  14.158 -0.3632 -0.3511 -0.0044
 9087TIP3    H148752   1.994   5.318  14.127 -0.2321 -0.0891  0.6196
 9087TIP3    H248753   1.974   5.225  14.244 -0.3392 -0.8863 -0.0251
 9088TIP3   OH248754   5.171   3.084   5.724  0.1930  0.2401 -0.6589
 9088TIP3    H148755   5.143   2.993   5.716  2.5930 -0.8647  1.6862
 9088TIP3    H248756   5.091   3.134   5.736 -1.1352 -1.6989 -1.0823
 9089TIP3   OH248757   5.228   1.476  14.984  0.0789  0.1451 -0.3177
 9089TIP3    H148758   5.290   1.404  14.988  0.4041  0.4750  1.2918
 9089TIP3    H248759   5.281   1.553  14.963  0.1688  0.3609  0.6669
 9090TIP3   OH248760   3.535   5.925   4.546 -0.1667 -0.2340 -0.1505
 9090TIP3    H148761   3.551   6.011   4.506  2.6276 -1.2133 -1.4253
 9090TIP3    H248762   3.620   5.881   4.542 -1.2303 -2.6650  1.5185
 9091TIP3   OH248763   1.775   4.129   5.459  0.1284 -0.1440  0.1304
 9091TIP3    H148764   1.785   4.197   5.525  0.1487 -0.5913  0.6004
 9091TIP3    H248765   1.685   4.097   5.471  0.9101 -2.0198  1.7511
 9092TIP3   OH248766   3.964   6.366  10.696 -0.0239 -0.3346 -0.2209
 9092TIP3    H148767   4.019   6.289  10.707 -1.0774 -0.7563  4.4996
 9092TIP3    H248768   4.024   6.435  10.669  2.3335 -1.4454  1.7398
 9093TIP3   OH248769   0.549   1.084  13.756  0.0071  0.1452  0.1144
 9093TIP3    H148770   0.475   1.143  13.742  0.1959  0.7638  1.5080
 9093TIP3    H248771   0.558   1.080  13.852  1.5761 -0.1570 -0.0210
 9094TIP3   OH248772   3.718   4.325   3.624 -0.4101  0.0180 -0.1198
 9094TIP3    H148773   3.726   4.369   3.540  0.5003 -1.4335 -0.8312
 9094TIP3    H248774   3.773   4.376   3.683 -0.1328  0.3807 -0.6848
 9095TIP3   OH248775   1.754   1.644   5.603 -0.0350 -0.0249 -0.0958
 9095TIP3    H148776   1.806   1.666   5.680 -0.2352 -0.1578  0.0755
 9095TIP3    H248777   1.764   1.720   5.545  0.0488  0.1092  0.0952
 9096TIP3   OH248778   0.163   6.150   5.023 -0.1346  0.1152  0.4562
 9096TIP3    H148779   0.132   6.062   5.003  1.7444 -0.4625 -0.1339
 9096TIP3    H248780   0.177   6.150   5.118 -0.8841  0.0576  0.5739
 9097TIP3   OH248781   3.730   5.958   4.135 -0.3587  0.7340  0.2204
 9097TIP3    H148782   3.767   5.965   4.047 -0.2950  1.9955  0.3206
 9097TIP3    H248783   3.637   5.944   4.121 -0.1254 -0.6427 -0.0351
 9098TIP3   OH248784   5.547   0.865  10.958 -0.2936  0.0452 -0.1599
 9098TIP3    H148785   5.544   0.961  10.969 -1.0311 -0.0753  0.8398
 9098TIP3    H248786   5.523   0.831  11.044  1.5280 -1.0687 -0.0461
 9099TIP3   OH248787   1.001   2.989   3.825 -0.4393  0.0210  0.2914
 9099TIP3    H148788   0.914   3.000   3.786 -1.3087 -0.5665  1.9533
 9099TIP3    H248789   0.995   2.908   3.875  1.1066 -0.0676  0.3809
 9100TIP3   OH248790   1.733   0.943  12.740  0.0056  0.3516  0.7202
 9100TIP3    H148791   1.715   0.868  12.684  0.4050 -0.2066  1.3224
 9100TIP3    H248792   1.828   0.953  12.738  0.1258 -0.2474  1.9865
 9101TIP3   OH248793   4.307   2.084   4.051  0.1034 -0.2562  0.3407
 9101TIP3    H148794   4.387   2.062   4.100  0.4923 -0.1544 -0.2343
 9101TIP3    H248795   4.335   2.153   3.990 -0.3248 -0.5223 -0.1654
 9102TIP3   OH248796   0.933   5.790  13.669 -0.4969 -0.5316 -0.6984
 9102TIP3    H148797   0.963   5.778  13.759 -0.6044 -1.2988 -0.7603
 9102TIP3    H248798   0.979   5.868  13.638 -1.7998  0.8228  0.6149
 9103TIP3   OH248799   1.958   6.561  14.768  0.0641 -0.8478 -0.3533
 9103TIP3    H148800   1.865   6.538  14.759 -0.6865  1.1545  1.5078
 9103TIP3    H248801   1.989   6.504  14.838 -0.3761  0.0025  0.5538
 9104TIP3   OH248802   4.373   6.809   3.410  0.4298 -0.3539  0.3739
 9104TIP3    H148803   4.330   6.873   3.353  0.4509 -0.4549  0.2431
 9104TIP3    H248804   4.336   6.825   3.496  1.0547  0.4013  0.5131
 9105TIP3   OH248805   5.782   1.696   2.606 -0.0842  0.4043  0.1390
 9105TIP3    H148806   5.864   1.731   2.640 -1.1113  1.9741  1.1383
 9105TIP3    H248807   5.804   1.607   2.578  2.3796  1.3583 -1.3604
 9106TIP3   OH248808   2.867   3.536  12.294  0.3036  0.4544 -0.3169
 9106TIP3    H148809   2.883   3.541  12.200  0.0305 -0.8352 -0.4466
 9106TIP3    H248810   2.821   3.618  12.314  1.2987  1.2346 -1.0927
 9107TIP3   OH248811   0.711   2.361  10.268 -0.5549  0.5715  0.2739
 9107TIP3    H148812   0.744   2.446  10.297  2.1733 -0.8512  1.6724
 9107TIP3    H248813   0.686   2.316  10.349  0.9504 -1.0594 -0.1230
 9108TIP3   OH248814   1.252   0.980  11.207  0.0628 -0.3456  0.9562
 9108TIP3    H148815   1.253   0.896  11.161 -0.9991 -0.9390  1.9563
 9108TIP3    H248816   1.272   0.958  11.298 -0.4139  0.4556  1.2659
 9109TIP3   OH248817   5.203   2.423  15.712 -0.0254  0.0312  0.2278
 9109TIP3    H148818   5.213   2.401  15.619 -1.9297 -2.0045  0.4211
 9109TIP3    H248819   5.110   2.411  15.730  0.3480  0.0987  2.4731
 9110TIP3   OH248820   0.448   4.554  13.497  0.1657 -0.0980  0.1526
 9110TIP3    H148821   0.471   4.549  13.405 -0.5138 -2.1979  0.0464
 9110TIP3    H248822   0.359   4.590  13.498 -0.2417 -1.0809 -0.0997
 9111TIP3   OH248823   4.849   6.385  12.931  0.0259  0.4854  0.1611
 9111TIP3    H148824   4.919   6.430  12.884  1.1752 -0.3285  1.0420
 9111TIP3    H248825   4.805   6.332  12.865  1.3428 -0.3107 -0.1158
 9112TIP3   OH248826   5.603   5.479  16.909  0.3570  0.3110  0.3461
 9112TIP3    H148827   5.659   5.495  16.832 -0.3223 -0.5129 -0.3364
 9112TIP3    H248828   5.516   5.508  16.882  0.0872 -0.1108  0.7590
 9113TIP3   OH248829   4.392   1.159  13.634  0.2534  0.0373 -0.3659
 9113TIP3    H148830   4.439   1.088  13.678 -1.6493 -0.6711  0.6514
 9113TIP3    H248831   4.324   1.115  13.582 -2.1737  1.0648  1.7181
 9114TIP3   OH248832   2.883   5.179   1.073 -0.6288  0.4445 -0.0931
 9114TIP3    H148833   2.845   5.149   1.156 -1.2983 -1.0110 -0.8803
 9114TIP3    H248834   2.976   5.186   1.091 -0.8053  0.4599  0.8773
 9115TIP3   OH248835   6.724   2.124  13.899  0.1930 -0.7157 -0.0490
 9115TIP3    H148836   6.786   2.064  13.859  2.6795  1.7842 -0.2399
 9115TIP3    H248837   6.760   2.142  13.986 -0.4902  0.4809  0.0149
 9116TIP3   OH248838   4.669   5.635   2.307  0.6983  0.5980 -0.3917
 9116TIP3    H148839   4.642   5.553   2.349  0.2484  2.2187  2.8343
 9116TIP3    H248840   4.764   5.638   2.320  0.7367  0.5264 -0.6486
 9117TIP3   OH248841   3.014   3.619   5.393 -0.4425  0.2079 -0.2360
 9117TIP3    H148842   2.963   3.606   5.473 -1.4553 -0.2906 -0.9425
 9117TIP3    H248843   2.980   3.700   5.355  1.0524  1.2551  0.5683
 9118TIP3   OH248844   0.741   3.191   4.500 -0.1243  0.3530 -0.1103
 9118TIP3    H148845   0.727   3.272   4.453 -0.7805  0.9204  1.0220
 9118TIP3    H248846   0.657   3.171   4.540  0.6568  0.5130  1.7396
 9119TIP3   OH248847   2.542   4.067   4.476  0.5236  0.1381  0.3236
 9119TIP3    H148848   2.569   4.122   4.549  0.4453  1.0170 -0.2911
 9119TIP3    H248849   2.543   4.126   4.400 -1.1461 -0.3012 -0.0759
 9120TIP3   OH248850   0.346   4.947  11.967  0.4541  0.5478 -0.3835
 9120TIP3    H148851   0.360   4.990  11.882 -2.1422 -0.2840 -1.3095
 9120TIP3    H248852   0.370   4.856  11.952 -1.6491  0.0158 -0.7983
 9121TIP3   OH248853   1.322   2.414   3.754  0.6496 -0.0237  0.4731
 9121TIP3    H148854   1.248   2.452   3.802  0.6018 -0.4362  0.7319
 9121TIP3    H248855   1.351   2.483   3.695  0.4998  0.3827  0.8714
 9122TIP3   OH248856   3.072   4.005  10.594  0.0241  0.3177 -0.3303
 9122TIP3    H148857   2.996   3.947  10.586 -0.2975  0.4704  1.2583
 9122TIP3    H248858   3.129   3.980  10.522 -0.5929 -1.2426 -0.3195
 9123TIP3   OH248859   3.981   2.833  11.878 -0.7213 -1.0564  0.3575
 9123TIP3    H148860   3.887   2.847  11.867 -0.5772 -0.2337  0.1609
 9123TIP3    H248861   4.009   2.791  11.796 -1.1330 -2.4948  0.9141
 9124TIP3   OH248862   4.019   5.971  12.973 -0.1740  0.0719 -0.3726
 9124TIP3    H148863   4.102   5.939  12.938  0.2158 -0.0936  0.6788
 9124TIP3    H248864   3.959   5.966  12.899  1.0948  1.6036 -1.5999
 9125TIP3   OH248865   4.515   1.044   0.881 -0.0958 -0.3015  0.5703
 9125TIP3    H148866   4.448   0.985   0.845 -1.4123  0.2684  2.0063
 9125TIP3    H248867   4.532   1.011   0.969  1.6863 -0.5333  0.1896
 9126TIP3   OH248868   4.016   1.133   0.125 -0.1586 -0.2884 -0.2024
 9126TIP3    H148869   3.970   1.118   0.043  0.3237 -0.3484 -0.4679
 9126TIP3    H248870   4.106   1.155   0.098 -0.2006  0.4913  0.2732
 9127TIP3   OH248871   4.235   4.296  14.022  0.1782 -0.7318  0.5331
 9127TIP3    H148872   4.297   4.323  14.090 -0.0338 -1.8052  1.1545
 9127TIP3    H248873   4.206   4.379  13.983  2.0834 -0.1846  0.1364
 9128TIP3   OH248874   3.292   0.534   5.555  0.0933 -0.4384  0.2701
 9128TIP3    H148875   3.321   0.586   5.630 -0.5723 -2.6099  2.1389
 9128TIP3    H248876   3.301   0.443   5.583 -1.4957 -1.3252 -1.8047
 9129TIP3   OH248877   1.694   6.137   2.432  0.2757 -0.9628  0.3298
 9129TIP3    H148878   1.679   6.180   2.347 -0.2596  2.7219  2.0980
 9129TIP3    H248879   1.789   6.134   2.441  0.4012  2.0450  1.0104
 9130TIP3   OH248880   5.584   2.041   4.653  0.4451  0.0706 -0.1451
 9130TIP3    H148881   5.593   2.041   4.558  0.3056 -1.3360 -0.1851
 9130TIP3    H248882   5.512   2.101   4.670  0.7142  0.6200 -0.8966
 9131TIP3   OH248883   6.462   6.335  11.231  0.2041 -0.4494 -0.4013
 9131TIP3    H148884   6.438   6.343  11.323  0.0999 -0.5883 -0.4162
 9131TIP3    H248885   6.557   6.349  11.229  0.2211 -0.5446 -0.2598
 9132TIP3   OH248886   0.599   0.569  16.466 -0.3701 -0.3431 -0.1314
 9132TIP3    H148887   0.644   0.515  16.531 -0.6465 -0.6873 -0.2236
 9132TIP3    H248888   0.533   0.617  16.515 -0.5705 -0.5938 -0.1546
 9133TIP3   OH248889   6.488   3.955   1.027  0.0799 -0.0775  0.2361
 9133TIP3    H148890   6.551   4.026   1.036  0.8034 -0.7979  1.0783
 9133TIP3    H248891   6.417   3.991   0.974  0.2207  1.4053  1.0186
 9134TIP3   OH248892   6.254   0.931  14.110 -0.3723  0.0787 -0.0382
 9134TIP3    H148893   6.177   0.984  14.130  0.3395  1.8225 -1.7026
 9134TIP3    H248894   6.225   0.841  14.125 -3.0936  0.5837 -1.6364
 9135TIP3   OH248895   2.106   0.622  11.719 -0.7015  0.2264  0.6481
 9135TIP3    H148896   2.068   0.544  11.759 -0.7525 -0.4680 -0.7362
 9135TIP3    H248897   2.136   0.594  11.633 -2.4084  2.1441 -0.6528
 9136TIP3   OH248898   2.216   2.666   5.373  0.1402  0.5143 -0.5091
 9136TIP3    H148899   2.308   2.675   5.347  0.6450 -3.7212 -0.9711
 9136TIP3    H248900   2.168   2.669   5.290  0.4031 -1.1764 -0.7650
 9137TIP3   OH248901   1.936   5.178  13.307 -0.4340  0.0606 -0.2168
 9137TIP3    H148902   2.005   5.245  13.311 -0.3960  0.0721 -0.8683
 9137TIP3    H248903   1.972   5.111  13.248 -0.6760 -0.2931  0.0389
 9138TIP3   OH248904   5.499   5.389  11.606  0.1842  0.1747  0.4408
 9138TIP3    H148905   5.440   5.452  11.565  1.4957 -0.1971 -2.2807
 9138TIP3    H248906   5.482   5.307  11.560  2.4617 -0.0237 -0.1714
 9139TIP3   OH248907   4.328   6.179  11.518 -0.1547  0.6870 -0.2048
 9139TIP3    H148908   4.387   6.141  11.583 -2.2534 -0.1296  1.3387
 9139TIP3    H248909   4.383   6.191  11.440  1.6981 -1.3206  0.6763
 9140TIP3   OH248910   2.651   4.154  15.916  0.0327  0.2678 -0.1601
 9140TIP3    H148911   2.713   4.176  15.985  0.2102  0.5927 -0.4174
 9140TIP3    H248912   2.640   4.236  15.867 -1.4667  0.5328  0.5550
 9141TIP3   OH248913   4.122   1.671  11.642 -0.2267  0.7325 -0.5694
 9141TIP3    H148914   4.135   1.751  11.591  0.8982 -0.7110 -2.6917
 9141TIP3    H248915   4.069   1.615  11.585  0.6377 -0.7583  0.0325
 9142TIP3   OH248916   2.894   0.306   1.650 -0.1946  0.2205  0.3296
 9142TIP3    H148917   2.860   0.362   1.719  0.0033  0.3524  0.3218
 9142TIP3    H248918   2.968   0.260   1.691 -1.6414 -1.6425  0.9904
 9143TIP3   OH248919   3.336   1.333   2.398  0.5491  0.6192  0.5039
 9143TIP3    H148920   3.406   1.385   2.438  1.3260  2.2152 -2.6418
 9143TIP3    H248921   3.255   1.372   2.431  1.1028  0.7489  1.7776
 9144TIP3   OH248922   0.526   5.296  14.889  0.1917 -0.2466  0.1128
 9144TIP3    H148923   0.610   5.294  14.936  0.3173  1.9654  0.0724
 9144TIP3    H248924   0.521   5.210  14.846  2.6284 -0.3014 -0.2087
 9145TIP3   OH248925   4.085   1.710  16.039  0.5431  0.2368 -0.4040
 9145TIP3    H148926   4.101   1.649  16.111 -0.3141  1.2388  0.6985
 9145TIP3    H248927   4.090   1.657  15.960  4.0998 -0.4674  0.1148
 9146TIP3   OH248928   4.276   2.416  14.203  0.0351 -0.1335 -0.5858
 9146TIP3    H148929   4.371   2.422  14.205  0.0661 -0.7018 -0.0318
 9146TIP3    H248930   4.258   2.326  14.176 -0.3163 -0.5583  0.9522
 9147TIP3   OH248931   2.133   3.367   1.999 -0.1400  0.1406  0.2875
 9147TIP3    H148932   2.093   3.369   2.086  0.6763  0.3826  0.6646
 9147TIP3    H248933   2.139   3.274   1.978 -0.8804  0.0966  0.2245
 9148TIP3   OH248934   4.924   5.372  12.215  0.0292 -0.5246 -0.7951
 9148TIP3    H148935   4.834   5.345  12.197 -0.4261 -0.3733  1.0701
 9148TIP3    H248936   4.977   5.295  12.194 -0.7411 -1.2544 -0.1301
 9149TIP3   OH248937   2.984   2.537   6.224  0.2186  0.1649  0.3253
 9149TIP3    H148938   3.020   2.539   6.313  0.2735  1.1306  0.2853
 9149TIP3    H248939   3.038   2.472   6.179  1.1359  0.7248  0.6009
 9150TIP3   OH248940   1.039   4.891  14.170 -0.3228 -0.5028  0.5865
 9150TIP3    H148941   1.127   4.917  14.197 -0.3594  0.5585 -0.2592
 9150TIP3    H248942   1.053   4.838  14.091 -0.5268  2.1117 -1.3388
 9151TIP3   OH248943   0.009   5.595  12.156 -0.3403 -0.1234 -0.0783
 9151TIP3    H148944  -0.056   5.662  12.136 -0.2072  0.0339  0.0140
 9151TIP3    H248945  -0.034   5.536  12.217 -0.6939 -0.5092 -0.6954
 9152TIP3   OH248946   1.335   3.868   5.017 -0.3107 -0.6887 -0.6684
 9152TIP3    H148947   1.298   3.947   4.978  0.3496 -0.4886 -0.9006
 9152TIP3    H248948   1.396   3.835   4.951  1.2585 -0.0353  0.3893
 9153TIP3   OH248949   4.071   1.601   6.384 -0.2845 -0.3899 -0.0945
 9153TIP3    H148950   4.049   1.543   6.311 -1.5466 -1.1555  0.8443
 9153TIP3    H248951   4.092   1.542   6.456 -0.2450  0.3408  0.5060
 9154TIP3   OH248952   3.528   3.879   6.589  0.1826 -0.3322 -0.1983
 9154TIP3    H148953   3.580   3.809   6.551  1.7111  0.9928 -0.6916
 9154TIP3    H248954   3.551   3.877   6.682  1.3697  0.3894 -0.4482
 9155TIP3   OH248955   1.833   2.817   0.923 -0.2387  0.3951 -0.2165
 9155TIP3    H148956   1.894   2.888   0.902  2.2409 -0.8304  2.1022
 9155TIP3    H248957   1.889   2.745   0.953 -2.7170 -1.9744 -0.8178
 9156TIP3   OH248958   4.275   5.673  10.774  0.7465 -0.0457 -0.3985
 9156TIP3    H148959   4.187   5.663  10.737  0.1803 -0.3796  0.9640
 9156TIP3    H248960   4.330   5.615  10.722 -0.3912 -2.0032  0.4531
 9157TIP3   OH248961   6.515   2.541   3.862  0.4023  0.5696 -0.1016
 9157TIP3    H148962   6.467   2.623   3.870  0.4618  0.6317 -0.3775
 9157TIP3    H248963   6.598   2.556   3.906  0.7624  0.9357 -0.8805
 9158TIP3   OH248964   3.370   6.301   4.417 -0.1975  0.4262 -0.4582
 9158TIP3    H148965   3.391   6.386   4.379 -1.0966  1.0733  0.4711
 9158TIP3    H248966   3.325   6.321   4.499  0.8651 -0.9452  0.5063
 9159TIP3   OH248967   3.679   3.967  16.823 -0.0739 -0.3448  0.3373
 9159TIP3    H148968   3.605   3.907  16.809  0.5682 -0.9726 -0.4315
 9159TIP3    H248969   3.681   4.021  16.745  0.8906 -1.0001 -0.1008
 9160TIP3   OH248970   1.612   3.410  14.510 -0.7344 -0.2990 -0.4034
 9160TIP3    H148971   1.534   3.401  14.565 -1.0936 -2.8494 -1.2159
 9160TIP3    H248972   1.591   3.482  14.451 -1.8122  0.0913  0.4133
 9161TIP3   OH248973   6.307   4.103  17.012 -0.6494 -0.0815 -0.2092
 9161TIP3    H148974   6.291   4.197  17.026 -2.0322 -0.1153 -1.2962
 9161TIP3    H248975   6.319   4.095  16.918 -1.0003 -1.0504 -0.1806
 9162TIP3   OH248976   1.253   5.128   4.499  0.2729 -0.5764 -0.5611
 9162TIP3    H148977   1.184   5.143   4.564 -0.1437 -0.4283 -1.0356
 9162TIP3    H248978   1.264   5.033   4.497  1.9680 -0.4987  1.4591
 9163TIP3   OH248979   1.094   6.005   1.389 -0.0795  0.0952  0.2676
 9163TIP3    H148980   1.115   5.959   1.308 -0.0710 -0.6964  0.7170
 9163TIP3    H248981   1.059   5.938   1.448 -1.1982  0.8621  0.5255
 9164TIP3   OH248982   4.311   2.841  11.050  0.3487  0.4392 -0.2973
 9164TIP3    H148983   4.226   2.880  11.028  0.6492  0.6704 -1.0771
 9164TIP3    H248984   4.303   2.819  11.143 -0.9761 -0.6177 -0.6335
 9165TIP3   OH248985   4.649   2.411   2.274 -0.7044  0.2682 -0.4927
 9165TIP3    H148986   4.689   2.344   2.329  0.9977 -0.1096 -2.0721
 9165TIP3    H248987   4.559   2.418   2.305  0.0900 -0.0931  2.1329
 9166TIP3   OH248988   2.551   0.036   2.083 -0.7765 -0.4755  0.4126
 9166TIP3    H148989   2.510   0.075   2.159 -1.4119  0.0502 -0.1874
 9166TIP3    H248990   2.643   0.063   2.089  0.0512 -3.2735  2.8197
 9167TIP3   OH248991   2.224   3.980   5.246  0.1375  0.6511  0.1764
 9167TIP3    H148992   2.299   3.974   5.306  1.2248  0.1275 -1.1751
 9167TIP3    H248993   2.177   3.898   5.258  1.9328 -0.7277 -1.6329
 9168TIP3   OH248994   4.545   2.384  11.874 -0.1328  0.3538  0.4758
 9168TIP3    H148995   4.616   2.348  11.822 -0.2306  0.2721  0.3974
 9168TIP3    H248996   4.565   2.477  11.882 -0.9663  0.7085 -1.1313
 9169TIP3   OH248997   6.072   0.850  14.889  0.1447 -0.0858 -0.0377
 9169TIP3    H148998   6.161   0.819  14.900 -0.4608 -2.9930 -2.1358
 9169TIP3    H248999   6.035   0.850  14.977  1.9945  0.6412  0.7819
 9170TIP3   OH249000   4.234   2.387  13.153 -0.2147 -0.5833 -0.5350
 9170TIP3    H149001   4.159   2.393  13.094 -0.8366  1.6816  0.3654
 9170TIP3    H249002   4.290   2.460  13.128 -0.0990 -0.0665  1.1086
 9171TIP3   OH249003   2.161   4.888   3.265 -0.6206  0.1024  0.2263
 9171TIP3    H149004   2.195   4.977   3.272 -1.3717  0.3569  0.8732
 9171TIP3    H249005   2.080   4.889   3.317 -1.4983 -0.5285 -1.0655
 9172TIP3   OH249006   5.852   5.547  16.730  0.4371 -0.7631 -0.3135
 9172TIP3    H149007   5.912   5.517  16.661 -0.0386 -1.4182 -0.4479
 9172TIP3    H249008   5.821   5.632  16.699 -1.8233 -2.1604 -2.2712
 9173TIP3   OH249009   3.279   0.653   4.897  0.1220  0.3920 -0.1372
 9173TIP3    H149010   3.365   0.612   4.904 -0.8742 -1.5516  1.6435
 9173TIP3    H249011   3.260   0.686   4.985 -0.5841  1.6646 -0.7311
 9174TIP3   OH249012   6.723   0.095   0.151  0.3693  0.3629 -0.7781
 9174TIP3    H149013   6.708   0.022   0.211  1.3514  0.9723  0.2279
 9174TIP3    H249014   6.758   0.165   0.206  1.7024  0.7960 -2.1319
 9175TIP3   OH249015   5.896   3.952  16.822 -0.1911 -1.1770  0.3370
 9175TIP3    H149016   5.822   3.981  16.769 -1.0631 -1.9556  1.0926
 9175TIP3    H249017   5.893   4.007  16.900  0.9771 -0.1626 -0.2797
 9176TIP3   OH249018   3.224   3.576   0.374  0.2014  0.0295  0.0952
 9176TIP3    H149019   3.317   3.575   0.353  0.3258  2.1306  0.3671
 9176TIP3    H249020   3.187   3.505   0.322  1.9096 -0.6886 -0.1945
 9177TIP3   OH249021   2.727   4.167  11.716 -0.4693  0.1884 -0.0687
 9177TIP3    H149022   2.752   4.225  11.644  1.1341  0.6901  0.8259
 9177TIP3    H249023   2.744   4.219  11.795 -0.1866 -1.0515  0.7142
 9178TIP3   OH249024   1.361   3.148   1.697 -0.1459  0.5383  0.3258
 9178TIP3    H149025   1.421   3.221   1.680  0.4648 -0.3222 -1.4243
 9178TIP3    H249026   1.281   3.190   1.731  0.1873  2.0103 -0.6275
 9179TIP3   OH249027   4.406   5.976   4.893 -0.2229 -0.1088 -0.6441
 9179TIP3    H149028   4.383   5.899   4.945 -0.1720  0.5465  0.3846
 9179TIP3    H249029   4.439   6.039   4.958  0.3723  0.5322 -1.5509
 9180TIP3   OH249030   0.573   5.923  11.609  0.0491  0.0101  0.1430
 9180TIP3    H149031   0.554   5.830  11.597 -1.0459 -0.4891  4.2181
 9180TIP3    H249032   0.487   5.965  11.613  0.5116  1.1083 -0.7163
 9181TIP3   OH249033   6.238   4.007   5.342 -0.1353 -0.1510  0.2794
 9181TIP3    H149034   6.274   4.027   5.256 -1.0899 -1.5967 -0.5169
 9181TIP3    H249035   6.152   3.969   5.323 -1.0702  1.0099  1.9706
 9182TIP3   OH249036   2.306   4.562  11.763 -0.3881  0.6223 -0.6373
 9182TIP3    H149037   2.244   4.625  11.799 -1.5670 -0.8624  0.0714
 9182TIP3    H249038   2.275   4.545  11.674 -1.8003 -1.0166  0.1124
 9183TIP3   OH249039   5.241   4.945  14.901 -0.6138  0.1485  0.2741
 9183TIP3    H149040   5.174   4.909  14.960 -1.5864  1.6598  0.1619
 9183TIP3    H249041   5.224   4.904  14.817 -1.4489  0.5423  0.2400
 9184TIP3   OH249042   1.924   0.271  16.368 -0.2733  0.2142  0.5039
 9184TIP3    H149043   1.841   0.320  16.366 -0.6672 -0.4651 -1.1602
 9184TIP3    H249044   1.922   0.217  16.289  1.7618  0.1707  0.4311
 9185TIP3   OH249045   2.924   4.234  11.026 -0.2796  0.2690  0.3730
 9185TIP3    H149046   2.948   4.292  10.954 -0.9515  0.4992  0.3283
 9185TIP3    H249047   2.954   4.148  10.999  0.4144  0.5290  0.2859
 9186TIP3   OH249048   3.980   4.331  16.657 -0.1940  0.1159 -0.3175
 9186TIP3    H149049   3.935   4.298  16.735  1.3801  1.1649  1.0996
 9186TIP3    H249050   3.916   4.320  16.586 -3.1013  2.3526  1.7008
 9187TIP3   OH249051   2.021   2.483   1.229 -0.4414  0.3101 -0.1480
 9187TIP3    H149052   1.956   2.440   1.283 -1.4030  0.8110 -0.8652
 9187TIP3    H249053   2.101   2.431   1.239 -0.0518  1.3082  3.0544
 9188TIP3   OH249054   0.798   6.130  10.701  0.6498 -0.1208  0.0084
 9188TIP3    H149055   0.887   6.135  10.665  1.1743 -1.1569  1.1194
 9188TIP3    H249056   0.807   6.160  10.791  0.2429 -2.0302  0.7081
 9189TIP3   OH249057   6.413   3.933   3.824  0.5231 -0.4836 -0.1024
 9189TIP3    H149058   6.436   3.859   3.769 -2.4344 -1.5114 -0.0746
 9189TIP3    H249059   6.443   3.908   3.912 -0.2517 -1.5559 -0.1337
 9190TIP3   OH249060   2.296   6.713  11.503 -0.2692 -0.6816  0.4698
 9190TIP3    H149061   2.332   6.675  11.424 -0.6719  2.5702 -1.4711
 9190TIP3    H249062   2.368   6.710  11.566  1.0163 -0.8345 -0.9578
 9191TIP3   OH249063   1.449   6.091   1.271  0.4606  0.0933  0.6828
 9191TIP3    H149064   1.357   6.105   1.246  0.0674  0.6254  2.3202
 9191TIP3    H249065   1.475   6.014   1.221 -0.4950  0.6459 -0.7295
 9192TIP3   OH249066   5.938   3.141   1.746  0.5813  0.2519 -0.3620
 9192TIP3    H149067   5.875   3.161   1.677 -0.9094 -0.2538  0.7893
 9192TIP3    H249068   5.916   3.202   1.817  0.4070 -0.9066  0.6079
 9193TIP3   OH249069   0.113   3.918  16.002 -0.2709 -0.2706  0.0016
 9193TIP3    H149070   0.099   3.844  16.061 -0.0776  1.1934  1.9451
 9193TIP3    H249071   0.038   3.915  15.942 -0.2810 -1.9920  0.0520
 9194TIP3   OH249072   3.328   4.576   0.837 -0.7741 -0.7532  0.1428
 9194TIP3    H149073   3.276   4.607   0.911 -1.9918  0.2315 -1.0939
 9194TIP3    H249074   3.265   4.560   0.767  0.4571 -0.6301 -1.0432
 9195TIP3   OH249075   2.062   5.877   1.942  0.1923  0.0725 -0.1799
 9195TIP3    H149076   2.033   5.852   1.854  1.7555  0.3795 -0.8074
 9195TIP3    H249077   2.019   5.961   1.958  0.4330  0.3460 -0.9286
 9196TIP3   OH249078   1.995   5.760   0.999  0.1724 -0.5092  0.1261
 9196TIP3    H149079   1.979   5.811   0.920 -0.1371 -0.8474 -0.0319
 9196TIP3    H249080   2.090   5.764   1.011  0.1120  0.5351  0.4113
 9197TIP3   OH249081   1.184   3.419   4.697  0.2858 -0.3862  0.1410
 9197TIP3    H149082   1.175   3.361   4.773  0.1661  0.5867  0.8791
 9197TIP3    H249083   1.097   3.456   4.685  0.5041  0.1045  0.0536
 9198TIP3   OH249084   1.205   0.013  15.948 -0.1253  0.2103 -0.0515
 9198TIP3    H149085   1.212   0.109  15.948  1.1488  0.1410 -1.2447
 9198TIP3    H249086   1.255  -0.014  16.025 -0.3174  0.4931  0.1764
 9199TIP3   OH249087   2.560   2.447   1.135 -0.3164 -0.0391 -0.2282
 9199TIP3    H149088   2.517   2.503   1.070  0.9824  1.1453 -0.1290
 9199TIP3    H249089   2.646   2.488   1.148  0.5714 -1.9306  0.0820
 9200TIP3   OH249090   2.407   4.910  16.804 -0.3163 -0.1874  0.1242
 9200TIP3    H149091   2.427   4.872  16.889  0.1772  1.1072  0.6040
 9200TIP3    H249092   2.312   4.927  16.806 -0.1155  0.9516  0.9011
 9201TIP3   OH249093   3.274   6.423  16.289 -0.4261 -0.2201 -0.2047
 9201TIP3    H149094   3.304   6.433  16.379  1.0123  1.1941 -0.8002
 9201TIP3    H249095   3.237   6.508  16.266  2.1560  0.5410 -1.9344
 9202TIP3   OH249096   5.197   0.652   4.155 -0.5511  0.1586  0.2875
 9202TIP3    H149097   5.120   0.692   4.196 -0.0396  1.9571 -0.3966
 9202TIP3    H249098   5.271   0.701   4.191  0.2504 -1.1784  0.5225
 9203TIP3   OH249099   3.443   3.438   3.853 -0.0652  0.3956 -0.0466
 9203TIP3    H149100   3.415   3.347   3.855 -1.4772  0.8084  0.0804
 9203TIP3    H249101   3.434   3.468   3.944  1.1169  0.4687  0.0637
 9204TIP3   OH249102   2.019   4.756   2.798 -0.3069  0.3407 -0.3154
 9204TIP3    H149103   2.006   4.791   2.710  0.2091  1.2626 -0.0392
 9204TIP3    H249104   2.002   4.662   2.790  0.0436  0.3667 -1.4691
 9205TIP3   OH249105   1.858   1.666   0.624 -0.1262 -0.1844 -0.0354
 9205TIP3    H149106   1.940   1.706   0.598 -0.6408  0.5105 -0.6294
 9205TIP3    H249107   1.808   1.736   0.665 -0.8150 -0.3327 -0.5871
 9206TIP3   OH249108   3.362   6.318   1.746 -0.7133  0.4353  0.2085
 9206TIP3    H149109   3.438   6.355   1.701  1.1743  0.3279  3.0211
 9206TIP3    H249110   3.399   6.251   1.804 -3.1329 -0.5165  0.7672
 9207TIP3   OH249111   2.441   3.827   6.107  0.0802  0.2656  0.5958
 9207TIP3    H149112   2.431   3.838   6.202  3.5484  0.3084  1.0861
 9207TIP3    H249113   2.416   3.912   6.070 -0.2779  0.6037  1.5863
 9208TIP3   OH249114   1.124   4.088   6.738 -0.1552  0.1429 -0.2953
 9208TIP3    H149115   1.044   4.036   6.729 -0.9926  1.6249 -1.9357
 9208TIP3    H249116   1.168   4.080   6.653  1.1921 -0.2239  0.4093
 9209TIP3   OH249117   5.864   2.273  14.611 -0.1628  0.6590  0.3184
 9209TIP3    H149118   5.802   2.329  14.565 -1.2239  0.6216  1.6776
 9209TIP3    H249119   5.921   2.333  14.659 -0.7869  0.6135  1.1264
 9210TIP3   OH249120   6.746   2.155  16.938 -0.2994  0.2075  0.4773
 9210TIP3    H149121   6.683   2.226  16.947 -1.1772 -0.7454  2.9397
 9210TIP3    H249122   6.719   2.091  17.005  1.3761 -1.7188 -0.5647
 9211TIP3   OH249123   5.256   0.578   5.461 -0.5924  0.2232  0.8860
 9211TIP3    H149124   5.189   0.565   5.395 -0.2655  1.2768  0.3327
 9211TIP3    H249125   5.339   0.567   5.415 -0.3254 -2.3469  1.8175
 9212TIP3   OH249126   1.159   3.237   4.920  0.5997 -0.2518  0.0527
 9212TIP3    H149127   1.098   3.163   4.924  1.3184 -0.8779 -0.2193
 9212TIP3    H249128   1.152   3.279   5.005 -0.1509 -0.3663  0.0492
 9213TIP3   OH249129   0.740   2.093  11.472  0.9858 -0.5558 -0.4123
 9213TIP3    H149130   0.678   2.146  11.422  1.6774 -0.1237 -0.8334
 9213TIP3    H249131   0.745   2.010  11.424  0.8689 -0.5261 -0.4757
 9214TIP3   OH249132   2.025   4.670  15.803 -0.2992 -0.0139  0.1433
 9214TIP3    H149133   1.996   4.679  15.894  0.7531  0.8928  0.4086
 9214TIP3    H249134   2.007   4.756  15.764 -2.0930 -0.8115 -0.9470
 9215TIP3   OH249135   2.816   1.990  10.688  0.2824 -0.5583 -0.4807
 9215TIP3    H149136   2.907   1.998  10.715  0.4619  1.8542 -1.4894
 9215TIP3    H249137   2.818   1.937  10.609  1.0868  0.7879 -1.4207
 9216TIP3   OH249138   6.606   1.843  16.113  0.1145  0.4544 -0.3858
 9216TIP3    H149139   6.587   1.849  16.020 -0.0823  1.8653 -0.2646
 9216TIP3    H249140   6.526   1.872  16.156  0.2793  0.0192  0.2251
 9217TIP3   OH249141   5.957   2.051   1.614 -1.0234 -0.1765 -0.2567
 9217TIP3    H149142   5.923   1.974   1.660 -0.4488 -0.2502  0.0447
 9217TIP3    H249143   5.891   2.119   1.629 -1.3819 -0.5177 -0.2635
 9218TIP3   OH249144   4.379   1.118  14.830 -0.0051 -0.0954 -0.4502
 9218TIP3    H149145   4.360   1.027  14.809  0.2370 -0.9468  2.5189
 9218TIP3    H249146   4.474   1.122  14.837  0.1287  0.8653 -2.2260
 9219TIP3   OH249147   4.076   3.201  13.458 -0.8983 -0.0003 -0.1385
 9219TIP3    H149148   4.063   3.108  13.443 -0.0637 -0.0825 -0.4334
 9219TIP3    H249149   4.030   3.245  13.386  0.0221 -0.2527 -0.8946
 9220TIP3   OH249150   2.231   5.615  15.451  0.2451 -0.0923 -0.0398
 9220TIP3    H149151   2.216   5.688  15.511 -1.3098  1.0084 -1.6602
 9220TIP3    H249152   2.314   5.636  15.409 -0.3404  0.9550 -0.7189
 9221TIP3   OH249153   4.399   3.623  13.593  0.4155 -0.2845 -0.1050
 9221TIP3    H149154   4.392   3.652  13.683  0.2815  0.9472 -0.4936
 9221TIP3    H249155   4.486   3.650  13.565  0.8818 -1.6170 -0.0431
 9222TIP3   OH249156   2.461   4.679   4.534  0.0681  0.1697  0.3819
 9222TIP3    H149157   2.518   4.606   4.555 -0.5306 -0.6437 -0.7060
 9222TIP3    H249158   2.397   4.681   4.605  0.3546 -0.0745  0.6463
 9223TIP3   OH249159   3.666   1.200  12.774  0.2745 -0.6231  0.2002
 9223TIP3    H149160   3.598   1.241  12.828  0.3905 -1.1394  0.7414
 9223TIP3    H249161   3.617   1.161  12.701  0.1013 -0.0598  0.0116
 9224TIP3   OH249162   3.238   2.199  15.627  0.1995  0.4134 -0.2441
 9224TIP3    H149163   3.198   2.178  15.712  0.6905  0.1048 -0.0842
 9224TIP3    H249164   3.168   2.240  15.577 -0.6695 -1.1924 -0.4114
 9225TIP3   OH249165   6.651   5.831   6.066  0.4648 -0.0251 -0.1518
 9225TIP3    H149166   6.605   5.786   6.136 -0.3167 -0.7749 -1.1217
 9225TIP3    H249167   6.734   5.859   6.106  0.7021 -1.7720  0.6643
 9226TIP3   OH249168   6.466   2.126  15.073  0.3506 -0.0514 -0.4187
 9226TIP3    H149169   6.414   2.117  15.153  1.7156  0.2272  0.5342
 9226TIP3    H249170   6.434   2.056  15.016 -0.2789 -0.6052  0.5812
 9227TIP3   OH249171   0.295   1.516  16.944 -0.1540  0.7895 -0.4570
 9227TIP3    H149172   0.353   1.549  17.013  0.8409  3.4225 -2.4191
 9227TIP3    H249173   0.231   1.463  16.991  3.4013 -1.9041  1.9230
 9228TIP3   OH249174   1.232   6.155  14.174 -0.0999  0.1695  0.0218
 9228TIP3    H149175   1.229   6.171  14.268  2.0117 -0.4701  0.2506
 9228TIP3    H249176   1.169   6.084  14.160 -1.1786  0.9361  0.7502
 9229TIP3   OH249177   3.875   2.871   3.980 -0.0265 -0.3319  0.7071
 9229TIP3    H149178   3.829   2.857   4.063 -1.5950 -0.3795 -0.1254
 9229TIP3    H249179   3.830   2.945   3.940 -1.2169 -2.0243 -1.3351
 9230TIP3   OH249180   6.731   4.729  14.038  0.0069  0.2769 -0.5863
 9230TIP3    H149181   6.662   4.790  14.065  0.6344  0.8696 -0.3047
 9230TIP3    H249182   6.688   4.672  13.974 -0.1253  2.1324 -2.2183
 9231TIP3   OH249183   4.687   0.773   4.107  0.1996  0.0047  0.5311
 9231TIP3    H149184   4.723   0.860   4.088  0.9972  0.1498  2.4886
 9231TIP3    H249185   4.639   0.784   4.189  0.1428 -1.3588  0.7061
 9232TIP3   OH249186   1.068   5.122   4.277 -0.0488 -0.2258  0.0680
 9232TIP3    H149187   1.054   5.049   4.337 -0.6272  1.0123  1.5020
 9232TIP3    H249188   1.121   5.184   4.325 -4.1809  2.8755  1.2567
 9233TIP3   OH249189   6.360   6.353  12.900 -0.1110  0.3514 -0.3224
 9233TIP3    H149190   6.354   6.447  12.916  2.0291  0.8705 -2.1126
 9233TIP3    H249191   6.449   6.329  12.927 -1.0737 -1.5307  1.5253
 9234TIP3   OH249192   1.407   5.358  16.959  0.5688  0.2822 -0.3504
 9234TIP3    H149193   1.338   5.353  16.893  0.5088 -1.4349 -0.2175
 9234TIP3    H249194   1.365   5.401  17.034 -0.3889 -0.7093 -0.2770
 9235TIP3   OH249195   2.871   1.931   1.129  0.6633 -0.1667  0.1557
 9235TIP3    H149196   2.809   1.877   1.178  1.4757 -0.2872  1.0702
 9235TIP3    H249197   2.828   2.016   1.122  0.4509 -0.2030  0.9284
 9236TIP3   OH249198   4.333   2.058   1.472  0.2164 -0.1098  0.3398
 9236TIP3    H149199   4.421   2.036   1.504  1.0735  1.8531 -0.4939
 9236TIP3    H249200   4.348   2.100   1.387 -1.6774 -1.1576 -0.5619
 9237TIP3   OH249201   6.756   6.619  16.148 -0.0217  0.1864 -0.1561
 9237TIP3    H149202   6.780   6.693  16.093 -1.1835 -1.2514 -2.8381
 9237TIP3    H249203   6.823   6.553  16.129 -0.4722 -0.3545  0.1140
 9238TIP3   OH249204   0.785   3.045  14.774 -0.6230 -0.3213 -0.1904
 9238TIP3    H149205   0.861   3.062  14.829 -1.3059  3.7999 -0.1911
 9238TIP3    H249206   0.760   3.131  14.741 -3.4071 -1.9255 -2.7785
 9239TIP3   OH249207   4.833   3.329  10.722  0.5312 -0.2845 -0.5409
 9239TIP3    H149208   4.799   3.397  10.780  0.2206 -2.2551  1.7491
 9239TIP3    H249209   4.918   3.362  10.693  0.2357  1.2140  0.2130
 9240TIP3   OH249210   0.761   3.074  10.293  0.8571  0.0374  0.0165
 9240TIP3    H149211   0.675   3.032  10.289  0.2232  1.3295 -0.4814
 9240TIP3    H249212   0.744   3.159  10.335  2.2312 -0.4594  1.7116
 9241TIP3   OH249213   6.285   6.178   0.336 -0.0160 -0.2713 -0.0719
 9241TIP3    H149214   6.200   6.170   0.379  0.5213  0.0063  1.1095
 9241TIP3    H249215   6.281   6.262   0.290  0.5705  1.1889  2.3513
 9242TIP3   OH249216   4.191   0.153   2.553  0.4728  0.0614  0.5075
 9242TIP3    H149217   4.216   0.196   2.635 -0.1412 -0.0781  0.7767
 9242TIP3    H249218   4.215   0.061   2.567  2.0794  0.3369 -0.1877
 9243TIP3   OH249219   1.112   5.256   4.999 -0.4598 -0.3285  0.3432
 9243TIP3    H149220   1.181   5.320   4.977  1.8575 -2.4346  0.9773
 9243TIP3    H249221   1.038   5.281   4.944  1.3149  1.1955 -1.5254
 9244TIP3   OH249222   1.878   2.364   3.002 -0.2465  0.0233  0.1821
 9244TIP3    H149223   1.837   2.292   2.955 -1.2221 -0.1055  1.2044
 9244TIP3    H249224   1.814   2.390   3.068  1.1713  0.0474  1.6049
 9245TIP3   OH249225   0.630   3.736   5.314  0.6367  0.5271 -0.0865
 9245TIP3    H149226   0.682   3.806   5.275  1.4546 -0.2638 -0.4345
 9245TIP3    H249227   0.693   3.668   5.336 -0.2630 -0.5062 -0.6212
 9246TIP3   OH249228   4.148   1.817   2.943 -0.1902 -0.1604  0.6359
 9246TIP3    H149229   4.080   1.823   3.010  0.3809 -0.5923  1.2717
 9246TIP3    H249230   4.101   1.821   2.860 -0.8792  0.7647  1.0533
 9247TIP3   OH249231   3.229   2.386  14.204  0.1552 -0.5643 -0.3742
 9247TIP3    H149232   3.151   2.331  14.208  0.5587 -1.0857  0.7385
 9247TIP3    H249233   3.271   2.374  14.289  0.0310  1.8500  0.0793
 9248TIP3   OH249234   5.117   6.449  16.788  0.2813 -0.3295  0.1917
 9248TIP3    H149235   5.142   6.530  16.831  0.0582 -0.9109  1.4619
 9248TIP3    H249236   5.181   6.437  16.718  0.2863  0.9470 -0.0449
 9249TIP3   OH249237   1.447   2.091   5.809 -0.4764 -0.1700  0.1492
 9249TIP3    H149238   1.477   2.181   5.819 -0.6202 -0.1555  0.4628
 9249TIP3    H249239   1.356   2.099   5.781 -0.3251 -0.2169 -0.3748
 9250TIP3   OH249240   4.516   4.382  13.874 -0.1923 -0.2014 -0.2431
 9250TIP3    H149241   4.553   4.458  13.920  0.7205 -1.0341  0.4543
 9250TIP3    H249242   4.590   4.321  13.866 -1.2064 -1.5607  0.3995
 9251TIP3   OH249243   1.766   4.437   1.955  0.1584  0.5599  0.0820
 9251TIP3    H149244   1.811   4.473   1.879 -0.0931 -0.2141 -0.4400
 9251TIP3    H249245   1.784   4.343   1.953  1.6208  0.7420  1.9844
 9252TIP3   OH249246   3.872   5.111  16.434  0.2973  0.5014  0.3631
 9252TIP3    H149247   3.886   5.164  16.356 -0.1460 -2.7344 -2.1522
 9252TIP3    H249248   3.777   5.112  16.447  0.0224 -1.2595 -1.0690
 9253TIP3   OH249249   2.942   6.207   0.801  0.2336 -0.7117 -0.5210
 9253TIP3    H149250   3.027   6.229   0.838  0.3142 -0.6092 -0.7645
 9253TIP3    H249251   2.929   6.271   0.731  0.6274 -1.6490 -1.4800
 9254TIP3   OH249252   0.355   1.222  10.750  0.7408 -0.6891  0.0183
 9254TIP3    H149253   0.262   1.221  10.727  1.2977 -0.4358 -2.4689
 9254TIP3    H249254   0.372   1.135  10.786 -0.2890 -1.0047 -0.2356
 9255TIP3   OH249255   1.666   1.010  16.717 -0.2150 -0.1320  0.4896
 9255TIP3    H149256   1.601   1.026  16.785 -1.1008 -0.0233 -0.3646
 9255TIP3    H249257   1.705   1.095  16.700  0.9695 -0.3829  1.7837
 9256TIP3   OH249258   2.590   3.498   1.619  0.0951 -0.0754 -0.2156
 9256TIP3    H149259   2.655   3.432   1.643  1.0747  1.5822  1.9666
 9256TIP3    H249260   2.506   3.460   1.646  0.5691 -0.6925  0.4213
 9257TIP3   OH249261   2.507   3.645   3.558  0.8605  0.1898 -0.2827
 9257TIP3    H149262   2.541   3.557   3.576 -1.4766 -0.4532  1.4313
 9257TIP3    H249263   2.422   3.631   3.518 -0.6666  1.5470  2.2253
 9258TIP3   OH249264   2.572   0.542   3.996 -0.2743 -0.5020  0.1084
 9258TIP3    H149265   2.480   0.561   3.980 -0.5334 -1.1569  0.7596
 9258TIP3    H249266   2.597   0.482   3.926 -0.8345 -1.7129  0.9146
 9259TIP3   OH249267   0.362   0.466  12.108 -0.0696  0.0227  0.0272
 9259TIP3    H149268   0.349   0.522  12.031 -1.1410  0.7404  0.7068
 9259TIP3    H249269   0.301   0.394  12.097  1.3401 -1.0943 -0.8673
 9260TIP3   OH249270   1.946   0.697   5.454  0.9263 -0.1185 -0.5706
 9260TIP3    H149271   1.903   0.782   5.452  1.3852  0.1236 -0.2232
 9260TIP3    H249272   1.977   0.688   5.544 -1.7361 -1.9596  0.3113
 9261TIP3   OH249273   0.575   3.528  16.668  0.2418  0.0061 -0.4777
 9261TIP3    H149274   0.653   3.477  16.643 -1.2431 -1.1490 -3.2258
 9261TIP3    H249275   0.611   3.607  16.710  3.0769  0.4540 -3.2968
 9262TIP3   OH249276   5.284   4.190   2.721  0.8369  0.7321 -0.1251
 9262TIP3    H149277   5.338   4.143   2.785 -0.6219 -1.6714 -0.5088
 9262TIP3    H249278   5.227   4.122   2.685 -0.4455  2.6081 -1.8043
 9263TIP3   OH249279   3.756   3.340   5.565 -0.3891 -0.3004  0.0772
 9263TIP3    H149280   3.820   3.369   5.500  0.4336 -0.0792  0.9737
 9263TIP3    H249281   3.708   3.419   5.588 -0.0517 -0.1952  0.4251
 9264TIP3   OH249282   1.947   4.081   4.288 -0.3233 -0.2828 -0.2041
 9264TIP3    H149283   1.932   4.069   4.382  2.0210  0.7514  0.3832
 9264TIP3    H249284   1.919   4.171   4.270 -2.9231 -1.1815 -1.0733
 9265TIP3   OH249285   6.372   6.332   5.039  0.3487  0.2693 -0.3895
 9265TIP3    H149286   6.462   6.316   5.069 -0.0755 -0.0024  0.8030
 9265TIP3    H249287   6.317   6.290   5.105 -0.6746  0.9445 -0.7865
 9266TIP3   OH249288   3.540   3.815   3.901  0.0251 -0.1903 -0.3433
 9266TIP3    H149289   3.589   3.790   3.979 -2.1109  2.2341  1.9595
 9266TIP3    H249290   3.581   3.895   3.871  0.8661 -1.1366 -1.8157
 9267TIP3   OH249291   1.736   6.774   5.943  0.6405  0.2650  0.8118
 9267TIP3    H149292   1.714   6.685   5.916  0.8772  0.8677 -1.6486
 9267TIP3    H249293   1.757   6.767   6.036  0.2399 -2.1574  0.7750
 9268TIP3   OH249294   1.274   4.731  13.412 -0.4614 -0.0457  0.8453
 9268TIP3    H149295   1.355   4.777  13.433 -0.7361  0.4977  0.7060
 9268TIP3    H249296   1.205   4.792  13.434 -0.7881  0.3977 -1.2224
 9269TIP3   OH249297   3.450   2.381   2.205  0.1153 -0.9023  0.4485
 9269TIP3    H149298   3.355   2.376   2.216  0.1361 -0.8601  0.6407
 9269TIP3    H249299   3.473   2.471   2.228 -0.1830  0.0465 -2.5486
 9270TIP3   OH249300   1.063   3.254   5.737 -0.5606 -0.5371 -0.4251
 9270TIP3    H149301   1.039   3.295   5.654  2.4342  2.0428 -0.2274
 9270TIP3    H249302   1.039   3.318   5.804  0.8811 -0.6615  0.2616
 9271TIP3   OH249303   4.958   2.479   5.352 -0.1603 -0.3626 -0.6328
 9271TIP3    H149304   4.925   2.524   5.275  0.5462  3.5161  1.0792
 9271TIP3    H249305   4.887   2.421   5.379 -1.8580  0.9054 -2.1465
 9272TIP3   OH249306   1.991   5.098   4.563 -0.0560  0.7676 -0.0961
 9272TIP3    H149307   1.972   5.115   4.655 -0.2907  1.0345 -0.1926
 9272TIP3    H249308   2.083   5.122   4.552 -0.2706  1.5948 -0.1334
 9273TIP3   OH249309   1.484   0.015  12.715  0.1163 -0.0512  0.0867
 9273TIP3    H149310   1.483   0.059  12.629 -1.7980 -0.6097 -0.2189
 9273TIP3    H249311   1.504  -0.076  12.695 -1.2005 -0.3625  0.1053
 9274TIP3   OH249312   4.214   0.974  13.518 -0.4365  0.3867 -0.3114
 9274TIP3    H149313   4.217   0.909  13.447  2.7084 -1.8141  1.5855
 9274TIP3    H249314   4.125   0.969  13.552 -1.5793  0.4171 -3.0332
 9275TIP3   OH249315   4.331   2.840   3.778  0.3522 -0.5831 -0.1380
 9275TIP3    H149316   4.337   2.905   3.709  1.3214  1.1180  1.4736
 9275TIP3    H249317   4.240   2.811   3.776 -0.1467  0.9450 -0.7927
 9276TIP3   OH249318   5.628   2.632   3.365  0.0713 -0.1716 -0.2767
 9276TIP3    H149319   5.617   2.681   3.283 -2.6449 -0.2629 -0.0826
 9276TIP3    H249320   5.669   2.550   3.339  0.3525  0.2897 -1.3517
 9277TIP3   OH249321   0.175   4.227   0.843  0.0803  0.0322  0.1230
 9277TIP3    H149322   0.226   4.298   0.804  0.3626 -0.5044 -0.5034
 9277TIP3    H249323   0.207   4.148   0.800 -0.2191 -0.4819  0.8203
 9278TIP3   OH249324   3.719   0.731  16.012 -0.0075  0.3462 -0.0678
 9278TIP3    H149325   3.740   0.808  16.064 -0.4937  0.6343 -0.2963
 9278TIP3    H249326   3.741   0.755  15.923 -2.0508  0.9776 -0.4632
 9279TIP3   OH249327   6.072   3.435   3.485  0.2057  0.0365 -0.0321
 9279TIP3    H149328   6.021   3.475   3.554  0.2648 -1.1097  0.7058
 9279TIP3    H249329   6.144   3.496   3.469 -0.0836  0.5384  0.5719
 9280TIP3   OH249330   3.941   1.707   0.634 -0.4333 -0.4266 -0.2735
 9280TIP3    H149331   3.928   1.789   0.682 -0.1581 -0.7719  0.4046
 9280TIP3    H249332   4.030   1.715   0.599  0.8090 -1.6377  2.2887
 9281TIP3   OH249333   1.426   0.044  13.040 -0.1187 -1.1569  0.4689
 9281TIP3    H149334   1.451   0.011  12.954 -1.4018 -1.9915  0.4026
 9281TIP3    H249335   1.384   0.128  13.022  1.7804 -0.1311  0.5165
 9282TIP3   OH249336   3.665   5.857  12.999 -0.3108 -0.0912 -0.0897
 9282TIP3    H149337   3.642   5.938  13.046 -0.7536 -0.1668 -0.1794
 9282TIP3    H249338   3.690   5.887  12.912  0.3193  0.0284  0.1203
 9283TIP3   OH249339   2.667   5.393  16.955 -0.1725  0.6731  0.1272
 9283TIP3    H149340   2.642   5.367  17.044 -1.1419  1.5067  0.1179
 9283TIP3    H249341   2.584   5.414  16.912  0.3163  0.6128 -0.8716
 9284TIP3   OH249342   3.651   6.787  13.738 -0.1628  0.2717  0.2890
 9284TIP3    H149343   3.613   6.853  13.795  0.6483 -0.3868  1.6495
 9284TIP3    H249344   3.645   6.705  13.788  1.6222 -0.1187 -0.0509
 9285TIP3   OH249345   2.547   0.953  15.343 -0.2456 -0.1469  0.2141
 9285TIP3    H149346   2.606   0.954  15.268  0.1117 -0.1127  0.4956
 9285TIP3    H249347   2.570   1.032  15.392 -0.7253  0.0240  0.1692
 9286TIP3   OH249348   3.370   0.811   5.674  0.0717 -0.1291 -0.0473
 9286TIP3    H149349   3.351   0.796   5.767  0.6401 -3.1025 -0.3220
 9286TIP3    H249350   3.390   0.904   5.669 -1.6026  0.4814  2.4972
 9287TIP3   OH249351   4.068   1.561  12.849  0.5664  0.6086 -0.8839
 9287TIP3    H149352   4.154   1.525  12.873  1.2290  1.6652 -1.5518
 9287TIP3    H249353   4.006   1.492  12.872  1.5568 -0.0564 -0.0728
 9288TIP3   OH249354   2.910   4.989  10.524  0.9261 -0.0490  0.1645
 9288TIP3    H149355   2.832   4.958  10.477  1.0820  0.1486 -0.2308
 9288TIP3    H249356   2.965   5.028  10.456  1.4229 -0.2838  0.4219
 9289TIP3   OH249357   0.409   2.940   5.330 -0.2718 -0.6810  0.8648
 9289TIP3    H149358   0.346   3.006   5.360  0.1697  0.1285  0.0432
 9289TIP3    H249359   0.489   2.959   5.378  0.2654  0.2612 -0.3504
 9290TIP3   OH249360   5.611   4.066   1.911  0.0880 -0.4339  0.3394
 9290TIP3    H149361   5.643   3.995   1.968  0.0691 -0.1535  0.7076
 9290TIP3    H249362   5.523   4.085   1.944  0.6016  0.6797  1.1349
 9291TIP3   OH249363   3.325   1.245  15.416  0.2006  0.2198 -0.2206
 9291TIP3    H149364   3.342   1.162  15.373 -1.5067 -0.5762  0.5441
 9291TIP3    H249365   3.409   1.269  15.456  0.9813 -0.5889 -1.3033
 9292TIP3   OH249366   5.970   0.454   5.415  0.8865 -0.0898  0.0323
 9292TIP3    H149367   6.056   0.489   5.440  0.6143 -0.0316  0.9278
 9292TIP3    H249368   5.928   0.434   5.498 -0.1405  0.2813 -0.3902
 9293TIP3   OH249369   2.684   4.226  11.177 -0.1538  0.0686  0.4487
 9293TIP3    H149370   2.778   4.230  11.157 -0.3185 -1.3314 -0.7977
 9293TIP3    H249371   2.681   4.204  11.271  0.7859 -0.7096  0.3138
 9294TIP3   OH249372   5.670   2.694   3.621  0.1161  0.3599  0.2416
 9294TIP3    H149373   5.669   2.675   3.527 -1.3597 -1.4555  0.5444
 9294TIP3    H249374   5.609   2.768   3.631 -2.3172 -1.4660  0.0172
 9295TIP3   OH249375   2.807   4.087   5.439  0.0290  0.5758  0.1309
 9295TIP3    H149376   2.882   4.144   5.421 -1.8537  2.8264 -1.2822
 9295TIP3    H249377   2.739   4.147   5.471 -1.1102 -1.4166  1.6774
 9296TIP3   OH249378   6.797   5.579   3.574  0.2112  0.3554  0.3150
 9296TIP3    H149379   6.734   5.582   3.502  1.9639  0.3727 -1.3000
 9296TIP3    H249380   6.801   5.669   3.608  1.2437  0.9659 -1.3206
 9297TIP3   OH249381   5.720   4.634   2.167 -0.0398  0.0592 -0.3772
 9297TIP3    H149382   5.713   4.547   2.206 -1.1421  0.5376  0.5561
 9297TIP3    H249383   5.814   4.649   2.157  0.2005 -0.7549  0.5526
 9298TIP3   OH249384   0.227   1.778  12.697  0.8212 -1.1784 -0.2676
 9298TIP3    H149385   0.243   1.754  12.606 -0.9071 -0.9995 -0.6633
 9298TIP3    H249386   0.176   1.705  12.732 -0.3985 -0.2809 -0.1040
 9299TIP3   OH249387   6.134   3.954   1.479  0.0532  0.2840 -0.0115
 9299TIP3    H149388   6.154   3.861   1.488 -2.8686 -0.3403  1.0607
 9299TIP3    H249389   6.213   3.992   1.439  0.9054 -2.8167 -1.5681
 9300TIP3   OH249390   2.328   3.313   5.376  0.1040  0.0001 -0.0077
 9300TIP3    H149391   2.237   3.325   5.402  0.2291 -0.7352  0.8043
 9300TIP3    H249392   2.326   3.237   5.317  0.0824  0.5025 -0.6643
 9301TIP3   OH249393   2.785   3.584  14.559  0.1461  0.0164  0.3693
 9301TIP3    H149394   2.786   3.616  14.469  1.4196  3.0237  1.3287
 9301TIP3    H249395   2.694   3.558  14.574 -0.5188  1.2018 -1.2286
 9302TIP3   OH249396   5.908   2.124  15.397  0.7787 -0.0003  0.2197
 9302TIP3    H149397   5.833   2.184  15.398 -0.1609 -1.1173 -0.5354
 9302TIP3    H249398   5.894   2.066  15.471  0.1799 -1.0213 -0.6618
 9303TIP3   OH249399   0.927   1.369   1.865  0.2216  0.1739  0.3842
 9303TIP3    H149400   0.938   1.283   1.824  2.4427  0.3573  0.4767
 9303TIP3    H249401   0.844   1.402   1.830  0.2496 -1.2134 -1.0998
 9304TIP3   OH249402   3.211   3.075   0.679 -0.7114  0.3961  0.6101
 9304TIP3    H149403   3.268   3.112   0.746 -2.2764  0.2043  2.1370
 9304TIP3    H249404   3.220   2.981   0.688 -0.3077  0.3690 -0.0262
 9305TIP3   OH249405   4.651   4.872  15.485  0.3575  0.4338  0.0762
 9305TIP3    H149406   4.665   4.909  15.398 -0.9371 -0.4677 -0.5572
 9305TIP3    H249407   4.629   4.947  15.540  0.9223  0.9821 -0.4297
 9306TIP3   OH249408   3.103   1.666   3.796 -0.3098  0.1821  0.6716
 9306TIP3    H149409   3.090   1.760   3.781  1.0068  0.3313  0.3577
 9306TIP3    H249410   3.178   1.661   3.854 -0.0557 -0.6938  0.2890
 9307TIP3   OH249411   0.923   3.689   0.014  0.5494  0.2606  0.6341
 9307TIP3    H149412   0.843   3.741   0.007  0.4108  0.0428  0.6104
 9307TIP3    H249413   0.993   3.754   0.020  0.4710  0.4538 -0.3619
 9308TIP3   OH249414   5.098   4.642   5.439 -0.3221 -0.5818  0.0481
 9308TIP3    H149415   5.021   4.680   5.482  0.3799  1.9563 -0.7473
 9308TIP3    H249416   5.169   4.652   5.502  0.1823  0.8945 -0.7081
 9309TIP3   OH249417   0.424   0.484  14.020  0.4556  0.0868  0.2206
 9309TIP3    H149418   0.446   0.564  13.972  0.0269  0.6727  0.9800
 9309TIP3    H249419   0.331   0.470  14.003  0.1608  0.6279  1.3410
 9310TIP3   OH249420   0.280   4.342   4.804  0.2204  0.3990  0.2956
 9310TIP3    H149421   0.248   4.259   4.839  0.6118 -0.3995 -1.1511
 9310TIP3    H249422   0.217   4.407   4.835  0.5061 -0.2423  2.3579
 9311TIP3   OH249423   0.810   4.344  11.580 -0.1014  0.1878  0.2150
 9311TIP3    H149424   0.815   4.262  11.530 -0.9723  0.9732 -1.2276
 9311TIP3    H249425   0.897   4.382  11.572 -0.9007  1.6403 -3.1839
 9312TIP3   OH249426   5.280   3.289  16.889 -0.4164 -0.3958  0.1118
 9312TIP3    H149427   5.213   3.357  16.888 -0.9052 -0.8707  0.2382
 9312TIP3    H249428   5.313   3.289  16.979 -0.3841 -0.2964  0.0997
 9313TIP3   OH249429   2.618   6.143   6.345  0.1074 -0.0064  0.5554
 9313TIP3    H149430   2.587   6.054   6.363 -0.6307 -0.0109 -0.6194
 9313TIP3    H249431   2.645   6.177   6.430  1.6601 -1.8149  0.8719
 9314TIP3   OH249432   1.511   6.065   5.252  0.3141  0.3452 -0.2990
 9314TIP3    H149433   1.475   6.128   5.314 -1.5270 -0.2216 -0.7239
 9314TIP3    H249434   1.601   6.092   5.239  0.7315  0.5878  2.4925
 9315TIP3   OH249435   1.128   2.466   3.025 -0.2091  0.3263 -0.4132
 9315TIP3    H149436   1.071   2.502   2.958  0.4579  0.7835 -0.7435
 9315TIP3    H249437   1.074   2.462   3.104 -1.0426 -0.3638 -1.0068
 9316TIP3   OH249438   1.301   2.081   1.254 -0.4677 -0.0943  0.0019
 9316TIP3    H149439   1.211   2.112   1.246 -0.3334  0.3240  0.0693
 9316TIP3    H249440   1.337   2.132   1.327 -0.4465 -0.9036  0.5695
 9317TIP3   OH249441   3.911   1.324   4.022  0.2282  0.8289  0.4177
 9317TIP3    H149442   3.818   1.323   3.997 -0.3640  0.6380  2.4473
 9317TIP3    H249443   3.944   1.408   3.988 -1.0095  1.4607  0.7002
 9318TIP3   OH249444   0.703   1.091  15.600 -0.5352  0.1697 -0.5544
 9318TIP3    H149445   0.647   1.165  15.577  1.7359  2.6388  1.2455
 9318TIP3    H249446   0.707   1.092  15.696  2.4808  0.1312 -0.5747
 9319TIP3   OH249447   2.572   4.551   6.254  0.1532  0.4126 -0.3806
 9319TIP3    H149448   2.602   4.548   6.163 -0.7749 -0.4715 -0.6827
 9319TIP3    H249449   2.477   4.558   6.247  0.1622  1.6946  0.5392
 9320TIP3   OH249450   2.615   2.103   1.462  0.3730 -0.0823 -0.0784
 9320TIP3    H149451   2.597   2.009   1.467 -0.0624  0.0133  0.1954
 9320TIP3    H249452   2.613   2.133   1.553  2.0989 -0.0914 -0.0055
 9321TIP3   OH249453   6.627   6.815   4.924 -0.2457 -0.7064 -0.2182
 9321TIP3    H149454   6.608   6.892   4.977  0.5667  0.0673 -1.0307
 9321TIP3    H249455   6.545   6.765   4.925 -1.3163  0.9486 -0.9781
 9322TIP3   OH249456   1.171   3.635  15.094 -0.2243 -0.3537  0.1581
 9322TIP3    H149457   1.170   3.699  15.022  0.0339 -1.1097 -0.5333
 9322TIP3    H249458   1.079   3.619  15.113 -0.2992 -0.3996 -0.2318
 9323TIP3   OH249459   6.220   4.446   2.058  0.7193  0.2225 -0.0561
 9323TIP3    H149460   6.165   4.511   2.103  1.8040  0.6706  0.6681
 9323TIP3    H249461   6.241   4.488   1.974 -1.9753 -0.9471 -1.4460
 9324TIP3   OH249462   6.397   2.495   5.299 -0.4047  0.3738  0.1503
 9324TIP3    H149463   6.486   2.481   5.333 -0.1615 -0.6691 -0.8703
 9324TIP3    H249464   6.409   2.558   5.228 -0.7183  1.4041  0.9674
 9325TIP3   OH249465   5.736   1.716  16.114  0.2097 -0.0007 -0.1594
 9325TIP3    H149466   5.694   1.651  16.057 -0.1405  0.2467 -0.1882
 9325TIP3    H249467   5.807   1.752  16.062 -0.5639  0.7563 -0.7235
 9326TIP3   OH249468   2.488   1.374   2.121  0.1650 -0.0128 -0.2080
 9326TIP3    H149469   2.496   1.442   2.188 -1.4277  0.2829 -0.2824
 9326TIP3    H249470   2.521   1.415   2.041 -0.7776  0.6760 -0.2499
 9327TIP3   OH249471   4.863   4.391  11.123 -0.3995  0.3241 -0.2477
 9327TIP3    H149472   4.956   4.412  11.126 -0.3540  0.1483 -0.4451
 9327TIP3    H249473   4.828   4.446  11.053 -0.5593  0.8382  0.2250
 9328TIP3   OH249474   4.580   3.916  16.551 -0.1763  0.5369  0.8123
 9328TIP3    H149475   4.583   3.891  16.458 -1.0838  1.2404  0.5859
 9328TIP3    H249476   4.656   3.872  16.589  0.3364  0.4140 -0.3043
 9329TIP3   OH249477   1.272   4.670  11.474 -0.0211 -0.1108  0.1365
 9329TIP3    H149478   1.253   4.763  11.462  0.1137 -0.2255 -1.0928
 9329TIP3    H249479   1.206   4.625  11.419  0.4363 -0.7030  0.0607
 9330TIP3   OH249480   5.731   1.057  16.520  0.4630 -0.4132  0.4100
 9330TIP3    H149481   5.769   1.095  16.441 -2.3460 -1.4884 -1.6058
 9330TIP3    H249482   5.655   1.111  16.539 -1.6936 -2.8848 -0.5754
 9331TIP3   OH249483   4.046   0.409   2.187  0.1858  0.2417  0.5000
 9331TIP3    H149484   4.057   0.397   2.093 -0.1202  1.3041  0.3222
 9331TIP3    H249485   4.122   0.460   2.214 -1.0713  2.3330  0.3196
 9332TIP3   OH249486   0.106   3.205   4.279  0.8322  0.2388 -0.0786
 9332TIP3    H149487   0.011   3.190   4.279  0.6166  1.3647  1.3032
 9332TIP3    H249488   0.115   3.299   4.259  1.4088  0.9722  3.0985
 9333TIP3   OH249489   3.428   5.128   2.994  0.2206  0.0030 -0.3214
 9333TIP3    H149490   3.466   5.161   2.912 -0.8535  0.5711 -0.6101
 9333TIP3    H249491   3.474   5.045   3.009  0.8310  0.1574 -1.1995
 9334TIP3   OH249492   5.819   4.055  15.299  0.9290  0.6557  0.4637
 9334TIP3    H149493   5.829   3.991  15.228 -1.6940 -0.1617  0.7385
 9334TIP3    H249494   5.814   4.140  15.255  0.6278  0.2939 -0.2090
 9335TIP3   OH249495   3.177   1.859  11.263  0.6326 -0.0023  0.4018
 9335TIP3    H149496   3.134   1.780  11.295  1.3283 -0.7852 -0.5312
 9335TIP3    H249497   3.220   1.896  11.340 -0.2499 -0.1498  0.9833
 9336TIP3   OH249498   3.149   4.152   0.341  0.5531 -0.2943 -0.5568
 9336TIP3    H149499   3.069   4.203   0.351  0.5172 -0.5473  0.5960
 9336TIP3    H249500   3.119   4.067   0.308  0.4897  0.0284 -1.3465
 9337TIP3   OH249501   2.779   1.644   5.387  0.3239  0.1927  0.6115
 9337TIP3    H149502   2.717   1.606   5.325  0.3776 -0.7355  1.1080
 9337TIP3    H249503   2.808   1.570   5.440  1.8041  0.6129  0.4408
 9338TIP3   OH249504   5.326   0.485   2.388 -0.2780 -0.4124 -0.0943
 9338TIP3    H149505   5.289   0.541   2.457  0.4786  1.5879 -1.2309
 9338TIP3    H249506   5.336   0.399   2.430  1.0238  0.9186  2.6371
 9339TIP3   OH249507   4.655   3.943   4.871 -0.7213  0.1927  0.1620
 9339TIP3    H149508   4.650   3.869   4.931  1.7371  0.9054  1.4184
 9339TIP3    H249509   4.606   4.013   4.915 -0.7797  0.0691  0.2920
 9340TIP3   OH249510   1.206   0.574  16.127  0.2063  0.1787 -0.5674
 9340TIP3    H149511   1.151   0.620  16.191  1.6868 -0.6120  1.4043
 9340TIP3    H249512   1.241   0.643  16.071 -0.2590  1.0477  0.1887
 9341TIP3   OH249513   5.747   0.265  12.899 -0.0223  0.3355 -0.3680
 9341TIP3    H149514   5.838   0.242  12.879 -0.4739 -0.3134 -1.8070
 9341TIP3    H249515   5.736   0.352  12.861  0.2172  0.7696  0.5351
 9342TIP3   OH249516   3.052   1.966  10.863 -0.5475 -0.2286 -0.5042
 9342TIP3    H149517   3.012   1.906  10.926 -2.0724  0.6966 -0.5438
 9342TIP3    H249518   3.067   2.046  10.912  3.7781 -1.2540  0.2425
 9343TIP3   OH249519   0.914   1.361  12.035  0.4086 -0.1386 -0.1768
 9343TIP3    H149520   0.913   1.320  11.948 -0.2322 -2.3309  0.8053
 9343TIP3    H249521   0.983   1.316  12.083  0.4062  0.6873  0.6429
 9344TIP3   OH249522   6.426   1.662   4.024  0.3402  0.0754 -0.5425
 9344TIP3    H149523   6.485   1.724   4.067  0.0239 -0.1618  0.2536
 9344TIP3    H249524   6.343   1.709   4.016 -0.6070 -0.9316  2.1419
 9345TIP3   OH249525   5.811   5.185  11.407  0.1690  0.1183 -0.4902
 9345TIP3    H149526   5.821   5.189  11.502 -0.4479  1.0221 -0.4540
 9345TIP3    H249527   5.882   5.127  11.378  1.3595  1.0972  0.3631
 9346TIP3   OH249528   5.835   2.629   0.111  0.1285  0.3557  0.4472
 9346TIP3    H149529   5.834   2.533   0.105 -0.4270  0.3604  0.3681
 9346TIP3    H249530   5.854   2.647   0.203  0.2709  0.1680  0.4552
 9347TIP3   OH249531   6.095   2.951  12.828  0.0609 -0.0661 -0.0551
 9347TIP3    H149532   6.151   2.967  12.904 -0.8891  0.1108  0.6183
 9347TIP3    H249533   6.057   2.865  12.844  0.5238 -0.4142 -0.7633
 9348TIP3   OH249534   0.540   2.856   1.866 -0.7005  0.3715 -0.1233
 9348TIP3    H149535   0.493   2.892   1.791 -0.9768  0.1507 -0.0578
 9348TIP3    H249536   0.628   2.838   1.833 -0.9144 -0.0342 -0.4868
 9349TIP3   OH249537   4.837   0.012  12.779 -0.6304 -0.1665  0.3022
 9349TIP3    H149538   4.781   0.090  12.767 -0.3656 -0.1413 -0.8751
 9349TIP3    H249539   4.925   0.043  12.760 -0.1836 -0.2385  2.0393
 9350TIP3   OH249540   6.392   4.822  16.959  0.0698  0.4925 -0.5382
 9350TIP3    H149541   6.417   4.793  16.872 -0.5366  1.1406 -0.9372
 9350TIP3    H249542   6.384   4.917  16.952  1.6756  0.7502  0.6565
 9351TIP3   OH249543   5.347   2.371  12.607  0.1961 -0.1035  0.3020
 9351TIP3    H149544   5.440   2.392  12.595  0.5075 -1.1103  0.8305
 9351TIP3    H249545   5.344   2.320  12.688 -0.7844 -0.2901  0.1637
 9352TIP3   OH249546   2.063   0.241   5.314  0.4811 -0.6511  0.0519
 9352TIP3    H149547   2.123   0.282   5.251 -0.1967  0.9536  0.3910
 9352TIP3    H249548   2.032   0.162   5.269  0.9024 -0.1596 -1.1594
 9353TIP3   OH249549   6.469   1.902   5.128  0.5764  0.0057  0.4341
 9353TIP3    H149550   6.379   1.868   5.130  0.5091  0.1907  0.5551
 9353TIP3    H249551   6.460   1.989   5.089  0.8456 -0.4190 -0.6258
 9354TIP3   OH249552   5.646   0.881   5.345 -0.0248  0.1207 -0.6679
 9354TIP3    H149553   5.683   0.839   5.267 -0.5333 -1.0275 -0.3218
 9354TIP3    H249554   5.629   0.971   5.319  1.9726  0.3982 -1.1626
 9355TIP3   OH249555   2.686   0.679  12.744 -0.0296 -0.4120 -0.3011
 9355TIP3    H149556   2.608   0.726  12.714  2.0407  4.7837  1.3715
 9355TIP3    H249557   2.747   0.686  12.670 -0.2822 -2.4252 -0.7549
 9356TIP3   OH249558   5.324   4.923   0.580 -0.4975 -0.3413  0.1147
 9356TIP3    H149559   5.383   4.977   0.633  0.7405 -1.5050 -0.0047
 9356TIP3    H249560   5.361   4.927   0.492 -1.8689  0.6363 -0.4478
 9357TIP3   OH249561   0.284   4.937   4.518 -0.2427 -0.1212  0.0571
 9357TIP3    H149562   0.374   4.909   4.533 -0.0950  0.3967  0.1596
 9357TIP3    H249563   0.291   5.029   4.492 -0.8837  0.7056  2.4837
 9358TIP3   OH249564   1.093   3.398  13.442  0.0327  0.5769 -0.5091
 9358TIP3    H149565   1.140   3.466  13.491 -0.7281  1.3928 -0.8739
 9358TIP3    H249566   1.111   3.418  13.350  0.3797 -0.1478 -0.6044
 9359TIP3   OH249567   6.470   6.710  12.508 -0.2125 -0.3597  0.2173
 9359TIP3    H149568   6.443   6.640  12.449 -0.3536  1.8106 -2.5030
 9359TIP3    H249569   6.393   6.766  12.516  0.5551  0.6904  0.4744
 9360TIP3   OH249570   0.275   5.297  13.277 -0.3921 -0.4272  0.2948
 9360TIP3    H149571   0.358   5.329  13.314 -0.3053  0.0697 -0.3107
 9360TIP3    H249572   0.207   5.335  13.333 -0.2203 -0.8088  0.7739
 9361TIP3   OH249573   5.058   5.214   5.126 -0.0826  0.6201 -0.1758
 9361TIP3    H149574   5.040   5.294   5.174 -0.1941  0.1813  0.5330
 9361TIP3    H249575   5.150   5.194   5.145  0.3880  1.3514 -1.5323
 9362TIP3   OH249576   1.157   3.602  15.531 -0.3557  0.0903  0.8190
 9362TIP3    H149577   1.208   3.561  15.461 -1.4316 -1.6142  0.9705
 9362TIP3    H249578   1.163   3.540  15.604 -2.6157 -0.2209  0.8272
 9363TIP3   OH249579   6.596   1.191  16.865  0.6195 -0.7621 -0.5583
 9363TIP3    H149580   6.539   1.268  16.871 -0.6626 -1.7464  3.1827
 9363TIP3    H249581   6.634   1.196  16.778 -1.5852  2.5314 -1.5479
 9364TIP3   OH249582   2.297   2.621  12.216 -0.2560 -0.1663 -0.2158
 9364TIP3    H149583   2.267   2.598  12.128  1.0369  0.6231 -0.8933
 9364TIP3    H249584   2.373   2.564  12.231 -0.0432  0.2004  0.1028
 9365TIP3   OH249585   0.143   3.036  15.015  0.0218 -0.4162 -0.1909
 9365TIP3    H149586   0.154   2.941  15.019  0.1593 -0.3919  0.0223
 9365TIP3    H249587   0.084   3.050  14.941 -1.2577 -0.7776  0.7282
 9366TIP3   OH249588   5.589   5.835  13.212  0.4430 -0.2924  0.3392
 9366TIP3    H149589   5.655   5.898  13.181  1.2966 -0.7322  1.2387
 9366TIP3    H249590   5.622   5.750  13.183 -0.4060 -0.4004 -0.3467
 9367TIP3   OH249591   5.286   6.300   0.753  0.3830  0.0460 -0.0896
 9367TIP3    H149592   5.313   6.367   0.816  1.5213  0.6226 -1.1618
 9367TIP3    H249593   5.313   6.334   0.668  1.6393 -2.0831 -0.6101
 9368TIP3   OH249594   4.400   4.138  14.692 -0.0077  0.2730  0.6138
 9368TIP3    H149595   4.353   4.059  14.664 -1.1026  1.1819 -0.1986
 9368TIP3    H249596   4.461   4.107  14.759 -2.4313 -0.8358  2.4624
 9369TIP3   OH249597   6.191   0.039  14.719  0.0790  0.0118 -0.1919
 9369TIP3    H149598   6.144   0.122  14.710  1.0406  0.5171 -0.6462
 9369TIP3    H249599   6.241   0.030  14.638  0.1289 -0.9335 -0.0721
 9370TIP3   OH249600   0.689   5.362   6.671 -0.2122  0.3812 -0.1864
 9370TIP3    H149601   0.657   5.452   6.667  0.6670  0.7191  0.0489
 9370TIP3    H249602   0.775   5.366   6.628  1.6337  0.5014  3.1935
 9371TIP3   OH249603   4.110   0.278   4.355  0.2307 -0.9166  0.3629
 9371TIP3    H149604   4.117   0.372   4.372  1.3385 -0.7010 -1.0145
 9371TIP3    H249605   4.124   0.237   4.440  2.3550  0.1283  0.5851
 9372TIP3   OH249606   5.213   0.725   3.642 -0.4806 -0.7449  0.4480
 9372TIP3    H149607   5.263   0.675   3.706 -0.0897 -1.9505 -0.7520
 9372TIP3    H249608   5.131   0.746   3.687 -0.0341 -1.1746  1.4894
 9373TIP3   OH249609   0.313   0.072   0.290 -0.0461  0.0990 -0.3004
 9373TIP3    H149610   0.278   0.117   0.367 -0.5681  2.1670 -1.6483
 9373TIP3    H249611   0.407   0.066   0.306 -0.1999  0.0601  0.6775
 9374TIP3   OH249612   3.241   5.316   0.456 -0.1247 -0.2458  0.2593
 9374TIP3    H149613   3.186   5.246   0.421  0.2584  0.3582 -1.6598
 9374TIP3    H249614   3.203   5.336   0.542 -1.7219 -1.1264 -0.2068
 9375TIP3   OH249615   4.205   5.096   3.479  0.6215 -0.1550 -0.5842
 9375TIP3    H149616   4.123   5.048   3.487  0.0050  1.0065  0.2351
 9375TIP3    H249617   4.272   5.028   3.484 -0.2410 -0.9849  0.2598
 9376TIP3   OH249618   0.388   6.716   2.219  0.1872  0.0842  0.0289
 9376TIP3    H149619   0.442   6.723   2.298  1.4115 -0.4723 -0.7359
 9376TIP3    H249620   0.305   6.756   2.244  0.3904 -0.4646  1.7390
 9377TIP3   OH249621   4.399   4.643   2.489 -0.0187  0.3627  0.0300
 9377TIP3    H149622   4.310   4.610   2.474 -0.5902  1.9558 -0.3996
 9377TIP3    H249623   4.387   4.719   2.547  1.0600  0.5905 -0.0164
 9378TIP3   OH249624   1.279   2.034  14.232 -0.3971  0.1135 -0.2868
 9378TIP3    H149625   1.369   2.038  14.199 -1.1936 -1.0840 -2.8828
 9378TIP3    H249626   1.241   2.117  14.205 -0.6987 -0.3644 -1.4137
 9379TIP3   OH249627   2.194   4.494   1.830  0.1171  0.3267 -0.0386
 9379TIP3    H149628   2.104   4.461   1.835  0.6283 -1.4877 -1.7094
 9379TIP3    H249629   2.237   4.461   1.909 -0.2303 -0.2554 -0.0933
 9380TIP3   OH249630   0.457   3.410   5.400  0.1637  0.6405  0.3396
 9380TIP3    H149631   0.488   3.369   5.481  2.0247  1.7094  0.2282
 9380TIP3    H249632   0.499   3.359   5.331 -1.1111 -0.0260  0.0370
 9381TIP3   OH249633   5.566   0.652   2.996 -0.4151 -0.8533 -0.0966
 9381TIP3    H149634   5.553   0.720   3.063 -2.6490 -1.0688 -0.2247
 9381TIP3    H249635   5.613   0.583   3.042  1.8983  0.7014  0.0491
 9382TIP3   OH249636   2.516   3.525  14.913 -0.3791  0.1491  0.1123
 9382TIP3    H149637   2.571   3.478  14.850 -0.3372 -0.2247  0.4255
 9382TIP3    H249638   2.558   3.511  14.998 -1.8241 -1.5206  0.6052
 9383TIP3   OH249639   2.459   3.849   3.227  0.1926  0.5474  0.3971
 9383TIP3    H149640   2.407   3.873   3.304 -1.1807 -0.6166 -0.1484
 9383TIP3    H249641   2.415   3.892   3.154  0.6473  0.4430  0.0596
 9384TIP3   OH249642   5.156   2.291   4.030  0.1011 -0.3292  0.6129
 9384TIP3    H149643   5.132   2.370   4.078 -2.0778 -0.0305 -0.8482
 9384TIP3    H249644   5.080   2.233   4.039  0.1701 -0.7992 -1.3196
 9385TIP3   OH249645   4.589   4.404  16.596  0.5520 -0.5536 -0.8850
 9385TIP3    H149646   4.648   4.421  16.670  0.7291  0.5933 -1.2656
 9385TIP3    H249647   4.537   4.329  16.624 -0.1870  0.5495  0.9025
 9386TIP3   OH249648   3.441   5.861  13.575 -0.2636  0.0295 -0.3952
 9386TIP3    H149649   3.485   5.945  13.589 -0.7351  0.1543  0.3845
 9386TIP3    H249650   3.349   5.878  13.598 -0.1410 -0.9901  0.9855
 9387TIP3   OH249651   0.781   3.994  17.044 -0.0448 -0.1332  0.3692
 9387TIP3    H149652   0.860   3.971  16.995  0.2742 -1.6750  1.5346
 9387TIP3    H249653   0.808   3.988  17.136 -1.1168  0.8909  0.7770
 9388TIP3   OH249654   3.077   0.147   4.230  0.2496 -0.3478  0.3702
 9388TIP3    H149655   3.139   0.218   4.212  2.4219 -1.6290  2.2789
 9388TIP3    H249656   3.072   0.098   4.148 -0.1833  1.1344 -0.5356
 9389TIP3   OH249657   5.813   3.192  13.921 -0.0628  0.1307  0.2277
 9389TIP3    H149658   5.743   3.253  13.898 -2.2067 -1.9330  0.8799
 9389TIP3    H249659   5.783   3.149  14.001  1.4190 -1.6522 -0.0914
 9390TIP3   OH249660   2.346   5.713  11.964 -0.3173 -0.4216  0.0868
 9390TIP3    H149661   2.322   5.698  12.055  1.5186 -1.4761  0.4609
 9390TIP3    H249662   2.331   5.629  11.920  3.0172 -1.3978  0.5083
 9391TIP3   OH249663   2.976   3.972  12.930 -0.3929  0.1590  0.1599
 9391TIP3    H149664   2.921   3.894  12.927  1.5697 -1.4711  2.6292
 9391TIP3    H249665   3.054   3.948  12.881  0.0017  0.7633  0.4808
 9392TIP3   OH249666   6.794   4.865   3.036 -0.9036  0.3297  0.2367
 9392TIP3    H149667   6.789   4.788   3.092 -0.2293  1.5255  2.0327
 9392TIP3    H249668   6.703   4.888   3.017 -1.1086 -0.7087 -0.0669
 9393TIP3   OH249669   1.584   1.822   3.180 -0.6691 -0.1008  0.3735
 9393TIP3    H149670   1.522   1.783   3.241  2.1844 -1.1968  2.8121
 9393TIP3    H249671   1.599   1.910   3.214  1.1291 -0.8050  1.4934
 9394TIP3   OH249672   5.391   2.136   4.010 -0.6081 -0.3347  0.2861
 9394TIP3    H149673   5.446   2.214   4.009 -1.1532  0.0676  0.9387
 9394TIP3    H249674   5.304   2.168   4.033 -0.4689 -1.3502  2.4929
 9395TIP3   OH249675   5.625   1.793   5.408  0.2739 -0.6738  0.0558
 9395TIP3    H149676   5.563   1.862   5.434  0.9933 -0.0607  0.1776
 9395TIP3    H249677   5.572   1.713   5.407 -0.9749  0.0984 -1.6342
 9396TIP3   OH249678   2.867   2.126   2.707 -0.1373  0.4779 -0.4719
 9396TIP3    H149679   2.772   2.131   2.708 -0.1449  1.0519  1.8089
 9396TIP3    H249680   2.886   2.041   2.668 -1.6848 -0.5915  0.9431
 9397TIP3   OH249681   1.850   1.828   0.214  0.0405  0.3034  0.1585
 9397TIP3    H149682   1.923   1.766   0.212  0.9133  1.3122 -1.3056
 9397TIP3    H249683   1.805   1.809   0.296 -0.1387 -2.6879 -0.5082
 9398TIP3   OH249684   1.849   3.310   3.445  0.1969  0.3825 -0.1334
 9398TIP3    H149685   1.775   3.317   3.505  0.7495  1.9062  0.4007
 9398TIP3    H249686   1.828   3.373   3.375  0.6700  0.3318 -0.3195
 9399TIP3   OH249687   6.497   1.805  17.044 -0.1351  0.0419 -0.0492
 9399TIP3    H149688   6.475   1.878  17.101 -0.2481 -0.2097  0.2303
 9399TIP3    H249689   6.483   1.839  16.955 -0.1047  0.3850  0.0761
 9400TIP3   OH249690   0.045   3.272   4.582  0.3518  0.1656  0.2856
 9400TIP3    H149691   0.036   3.200   4.645  1.5905 -1.4871 -1.3184
 9400TIP3    H249692   0.081   3.231   4.504  2.0622  2.7269 -0.3867
 9401TIP3   OH249693   3.691   5.062   1.166 -0.2790  0.1238  0.5209
 9401TIP3    H149694   3.662   5.020   1.247 -1.0991  1.5506  1.0068
 9401TIP3    H249695   3.769   5.012   1.140 -2.5874 -3.3147 -0.3934
 9402TIP3   OH249696   3.266   2.191  14.887  0.0373 -0.2730 -0.1259
 9402TIP3    H149697   3.205   2.129  14.928 -0.5400  0.0049 -0.5562
 9402TIP3    H249698   3.246   2.187  14.794  0.5416 -0.0282 -0.2470
 9403TIP3   OH249699   0.258   2.286  16.116  0.3266  0.6576  0.2305
 9403TIP3    H149700   0.201   2.313  16.044 -0.3079 -1.3728 -0.0910
 9403TIP3    H249701   0.237   2.347  16.187  0.7007  2.4566 -1.1556
 9404TIP3   OH249702   2.138   3.768  15.742 -0.0939  0.4884  0.8064
 9404TIP3    H149703   2.089   3.689  15.764 -2.1704  1.2328 -0.7934
 9404TIP3    H249704   2.161   3.807  15.827 -1.5005 -0.3922  1.6267
 9405TIP3   OH249705   3.187   2.400  13.571  0.5318  0.1195 -0.3822
 9405TIP3    H149706   3.272   2.423  13.608  0.8853  1.8277 -2.1013
 9405TIP3    H249707   3.128   2.469  13.601  0.1467 -0.1118 -0.5884
 9406TIP3   OH249708   3.550   5.020   1.967  0.1142  0.8326 -0.0893
 9406TIP3    H149709   3.548   5.095   1.907  0.0856  0.8431 -0.0749
 9406TIP3    H249710   3.579   4.947   1.912  0.0227  0.8278 -0.1319
 9407TIP3   OH249711   0.691   0.442   0.936 -0.1838  0.3530  0.3284
 9407TIP3    H149712   0.625   0.376   0.913 -1.2884  0.8322  1.9099
 9407TIP3    H249713   0.766   0.392   0.968 -0.7556 -0.1704  0.8805
 9408TIP3   OH249714   3.529   3.905  15.242 -0.1049 -0.2340 -0.0145
 9408TIP3    H149715   3.619   3.877  15.223  0.1994  1.0917 -0.6503
 9408TIP3    H249716   3.482   3.892  15.160 -0.3014 -0.1908  0.0909
 9409TIP3   OH249717   5.253   5.075  13.743  0.1388  0.6181  0.3731
 9409TIP3    H149718   5.319   5.021  13.700 -0.0007  0.2398  0.6324
 9409TIP3    H249719   5.232   5.143  13.679 -0.8175 -0.5228 -0.5802
 9410TIP3   OH249720   1.167   1.545   2.830  0.3310 -0.1829 -0.0774
 9410TIP3    H149721   1.075   1.528   2.849  0.1083 -0.0941 -1.0388
 9410TIP3    H249722   1.169   1.566   2.737  1.4709 -1.2361 -0.3131
 9411TIP3   OH249723   1.753   4.750  10.956  0.3348  0.2553  0.0356
 9411TIP3    H149724   1.700   4.675  10.985  0.0104 -0.8576 -3.0953
 9411TIP3    H249725   1.694   4.825  10.965 -0.8445 -0.5419 -0.7884
 9412TIP3   OH249726   5.312   4.593   1.649 -0.4717  0.7716 -0.1792
 9412TIP3    H149727   5.314   4.516   1.707 -1.6922 -0.5074 -1.7281
 9412TIP3    H249728   5.390   4.585   1.595 -0.2445  1.0053  0.1116
 9413TIP3   OH249729   2.602   5.333  14.790  0.2487  0.4384  0.4345
 9413TIP3    H149730   2.682   5.360  14.745  1.0064 -0.0466  1.4384
 9413TIP3    H249731   2.588   5.242  14.762  1.3590 -0.2527  1.9719
 9414TIP3   OH249732   3.687   2.112   3.006 -0.2646  0.1750  0.3589
 9414TIP3    H149733   3.673   2.100   2.912 -0.7280  0.7719  0.3435
 9414TIP3    H249734   3.687   2.207   3.019 -1.6927  0.0975  1.1599
 9415TIP3   OH249735   2.727   5.402   2.478 -0.4173 -0.1449  0.2411
 9415TIP3    H149736   2.759   5.330   2.532 -1.0724 -1.3180 -0.8816
 9415TIP3    H249737   2.741   5.480   2.531  2.7430 -0.7609  0.4800
 9416TIP3   OH249738   5.286   4.855  14.017  1.0065 -0.3203  0.2965
 9416TIP3    H149739   5.265   4.897  13.933  0.5268  0.0970  0.6180
 9416TIP3    H249740   5.220   4.786  14.026  0.1292  0.5732  1.0021
 9417TIP3   OH249741   1.014   5.915  15.239  0.1802 -1.1453 -0.1947
 9417TIP3    H149742   0.936   5.904  15.293 -0.9581 -0.1396 -1.5702
 9417TIP3    H249743   1.035   6.008  15.247 -2.5308  0.1274 -4.6068
 9418TIP3   OH249744   5.181   2.329   1.590 -0.1243  0.3096  0.0367
 9418TIP3    H149745   5.221   2.405   1.547 -0.1536  0.1300 -0.3145
 9418TIP3    H249746   5.197   2.256   1.529 -1.6048  0.3655 -0.4480
 9419TIP3   OH249747   1.466   1.945   0.593 -0.1145 -0.3781 -0.1832
 9419TIP3    H149748   1.478   2.028   0.547 -1.3191  1.6028  2.7754
 9419TIP3    H249749   1.399   1.963   0.659  1.0066 -3.1448  1.9229
 9420TIP3   OH249750   6.752   1.892   1.828  0.2518 -1.1608  0.4088
 9420TIP3    H149751   6.771   1.978   1.866 -3.1982 -0.1384  0.1421
 9420TIP3    H249752   6.723   1.838   1.901 -0.2760 -1.1912  0.1850
 9421TIP3   OH249753   3.856   4.013  12.150 -0.3537 -0.3876  0.3376
 9421TIP3    H149754   3.918   4.081  12.123 -0.6483  0.3093  1.3561
 9421TIP3    H249755   3.776   4.061  12.174 -1.6825 -1.3390 -1.8969
 9422TIP3   OH249756   1.602   0.740   2.072  0.1813 -0.8331 -0.1533
 9422TIP3    H149757   1.567   0.820   2.113  0.6548 -0.1604 -1.0258
 9422TIP3    H249758   1.568   0.743   1.983  1.5040 -0.7751 -0.6659
 9423TIP3   OH249759   0.368   4.379  11.624  0.4864  0.7796 -0.6930
 9423TIP3    H149760   0.378   4.473  11.637 -2.0908  0.9934  0.2731
 9423TIP3    H249761   0.276   4.362  11.641  1.0253 -2.0628 -0.0705
 9424TIP3   OH249762   4.457   6.150   2.058 -0.3809 -0.1924 -0.4823
 9424TIP3    H149763   4.394   6.079   2.071 -0.5739  0.0553 -0.0213
 9424TIP3    H249764   4.408   6.229   2.081  0.2821 -0.0527  0.5275
 9425TIP3   OH249765   1.211   4.354  11.080 -0.7866 -0.9396  0.2681
 9425TIP3    H149766   1.124   4.316  11.088 -1.1732 -0.1389 -0.0138
 9425TIP3    H249767   1.233   4.343  10.987 -0.6404 -1.0273  0.3124
 9426TIP3   OH249768   4.122   0.535   6.093  0.4787  0.1831 -0.4209
 9426TIP3    H149769   4.098   0.531   6.185 -0.5710  0.6765 -0.6634
 9426TIP3    H249770   4.072   0.465   6.051  1.1044 -0.1718 -0.5965
 9427TIP3   OH249771   5.314   5.873   3.458  0.7533  0.5452 -0.0271
 9427TIP3    H149772   5.273   5.951   3.497  1.9036  0.7548  0.8218
 9427TIP3    H249773   5.355   5.905   3.378 -0.5783  0.3644 -0.8030
 9428TIP3   OH249774   1.663   1.572  17.080  0.8335 -0.5825 -0.4950
 9428TIP3    H149775   1.732   1.590  17.017  1.8354 -1.2245  0.3774
 9428TIP3    H249776   1.647   1.478  17.073  0.3697 -0.5162 -0.3690
 9429TIP3   OH249777   6.032   1.545  15.374 -0.2191 -0.1596  0.4682
 9429TIP3    H149778   6.047   1.534  15.280 -0.3864  0.4344  0.3629
 9429TIP3    H249779   6.108   1.594  15.405 -0.3526 -0.0061  0.5594
 9430TIP3   OH249780   2.993   4.404   4.732  0.2683  0.1349 -0.0994
 9430TIP3    H149781   3.029   4.436   4.815  0.4780 -0.3406 -0.0049
 9430TIP3    H249782   3.029   4.316   4.722  0.2350  0.1818 -0.6912
 9431TIP3   OH249783   2.647   3.798   1.755 -0.5920 -0.8509 -0.0226
 9431TIP3    H149784   2.579   3.794   1.823 -0.1630 -1.0436  0.3990
 9431TIP3    H249785   2.668   3.707   1.736  2.6556 -0.9326  3.0118
 9432TIP3   OH249786   4.645   2.166   3.839 -0.3733  0.2082 -0.3501
 9432TIP3    H149787   4.556   2.160   3.804 -1.0057 -0.5267  1.2553
 9432TIP3    H249788   4.659   2.081   3.881  0.7316  0.6570  0.2263
 9433TIP3   OH249789   4.537   3.244   6.197 -0.4770  0.1627  0.7585
 9433TIP3    H149790   4.607   3.182   6.215  0.5480  1.1237  0.2431
 9433TIP3    H249791   4.472   3.228   6.265 -0.7444 -2.1624  0.0214
 9434TIP3   OH249792   3.893   1.015   4.439 -0.2211 -0.1376  0.0515
 9434TIP3    H149793   3.802   1.003   4.464 -0.3591  1.8649  0.7018
 9434TIP3    H249794   3.892   1.022   4.344 -1.1457  2.4384  0.1882
 9435TIP3   OH249795   2.504   6.790  11.037 -0.2178 -0.6981  0.0993
 9435TIP3    H149796   2.488   6.877  11.001 -1.0704 -1.4971 -1.5634
 9435TIP3    H249797   2.577   6.802  11.098 -0.7828  1.2835  0.4431
 9436TIP3   OH249798   3.587   5.594  11.179 -0.0954 -0.3432 -0.5854
 9436TIP3    H149799   3.576   5.543  11.099 -0.0058 -0.0083 -0.8119
 9436TIP3    H249800   3.595   5.528  11.248  0.4119 -0.6484 -0.9278
 9437TIP3   OH249801   4.970   5.673  11.285 -0.1125  0.7469  0.4368
 9437TIP3    H149802   5.039   5.686  11.219  0.3233 -0.8873  0.5173
 9437TIP3    H249803   4.889   5.666  11.235  0.1230  0.1952  0.1340
 9438TIP3   OH249804   5.584   2.584   1.353 -0.1394 -0.9201 -0.0313
 9438TIP3    H149805   5.542   2.528   1.287 -1.7435  0.0465  0.1070
 9438TIP3    H249806   5.668   2.606   1.314 -0.0877 -2.2219 -0.7321
 9439TIP3   OH249807   1.497   3.440  16.010 -0.6609  0.4203  0.5997
 9439TIP3    H149808   1.593   3.442  16.011 -0.5715 -1.5504  0.4783
 9439TIP3    H249809   1.474   3.380  16.081 -1.7815  0.6366  0.4290
 9440TIP3   OH249810   3.657   1.934  17.161 -0.4698  0.0677 -0.5669
 9440TIP3    H149811   3.627   1.963  17.075 -0.4986 -3.0542 -1.7412
 9440TIP3    H249812   3.751   1.947  17.159 -0.3044 -1.1353 -1.6102
 9441TIP3   OH249813   3.529   1.099  16.116  0.3413 -0.1068  0.0398
 9441TIP3    H149814   3.611   1.087  16.069  0.4916  1.1319 -0.0611
 9441TIP3    H249815   3.529   1.192  16.141 -0.5249 -0.3452  0.9941
 9442TIP3   OH249816   1.759   0.872  11.302 -0.6721  0.3356 -0.4111
 9442TIP3    H149817   1.816   0.849  11.229  0.5792  1.3710  0.1929
 9442TIP3    H249818   1.707   0.946  11.268 -0.4425  0.4934 -0.4269
 9443TIP3   OH249819   1.431   1.597   0.557 -0.3235 -0.1074 -0.0820
 9443TIP3    H149820   1.367   1.537   0.595  0.9692 -0.3283  1.8675
 9443TIP3    H249821   1.511   1.581   0.605 -0.1866  4.0325  1.4908
 9444TIP3   OH249822   2.304   6.346   4.789 -0.6256 -0.5399 -0.5723
 9444TIP3    H149823   2.235   6.331   4.854 -2.0523  0.7830 -1.7043
 9444TIP3    H249824   2.381   6.303   4.825 -1.2947  0.3228  2.0971
 9445TIP3   OH249825   5.160   1.823  15.035  0.5341  0.5623  0.5956
 9445TIP3    H149826   5.145   1.787  15.122  0.7529  0.9633  0.8035
 9445TIP3    H249827   5.252   1.808  15.018  0.1032 -1.1748 -0.3463
 9446TIP3   OH249828   1.047   1.611   6.008  0.0275  0.4233 -0.1138
 9446TIP3    H149829   0.973   1.655   6.050  1.0248  0.1506  2.0860
 9446TIP3    H249830   1.124   1.659   6.039  0.7935  1.1538 -2.9149
 9447TIP3   OH249831   4.108   4.851   3.642 -0.3184  0.5102  0.3317
 9447TIP3    H149832   4.038   4.787   3.634  1.5182 -1.8744  1.9242
 9447TIP3    H249833   4.102   4.883   3.732  0.3266  0.6559  0.3312
 9448TIP3   OH249834   3.441   2.820   3.603  0.3555 -0.2215 -0.2126
 9448TIP3    H149835   3.499   2.896   3.608  1.7447 -1.3009  0.9286
 9448TIP3    H249836   3.489   2.757   3.550  0.0361 -0.9636  0.3623
 9449TIP3   OH249837   0.337   6.601  12.613 -0.7018  0.9085  0.3608
 9449TIP3    H149838   0.335   6.620  12.520  0.2788  0.3949  0.2272
 9449TIP3    H249839   0.244   6.601  12.640 -1.1661 -1.0010 -1.0292
 9450TIP3   OH249840   6.826   6.072  16.815 -0.4574  0.0852  0.0915
 9450TIP3    H149841   6.778   5.991  16.829 -2.2466  1.0930 -0.0106
 9450TIP3    H249842   6.908   6.060  16.864 -0.2167 -2.1611 -0.7767
 9451TIP3   OH249843   3.846   4.414  13.480 -0.4892  0.1166  0.6728
 9451TIP3    H149844   3.794   4.486  13.444 -3.7618 -1.8416  1.1294
 9451TIP3    H249845   3.879   4.368  13.403 -2.7797 -0.8240  0.1818
 9452TIP3   OH249846   5.726   4.338   2.584  0.2056  0.1472  0.3521
 9452TIP3    H149847   5.780   4.413   2.609  0.2523  0.2276  0.0099
 9452TIP3    H249848   5.742   4.274   2.654 -0.9573  0.9878  1.4167
 9453TIP3   OH249849   2.635   0.481   3.002 -0.2101 -0.2767  0.7272
 9453TIP3    H149850   2.617   0.552   2.940 -1.0018 -0.5357  0.6504
 9453TIP3    H249851   2.730   0.469   2.998 -0.1466  0.3419  0.2607
 9454TIP3   OH249852   2.322   2.596   3.809  0.0407 -0.3921  0.3508
 9454TIP3    H149853   2.311   2.691   3.800  0.4370 -0.3567  0.2190
 9454TIP3    H249854   2.291   2.561   3.725  1.0642 -0.2778 -0.0953
 9455TIP3   OH249855   5.253   5.375  12.783 -0.2547 -0.0851 -0.1020
 9455TIP3    H149856   5.199   5.319  12.839  0.2359 -0.2237  0.2407
 9455TIP3    H249857   5.224   5.464  12.803 -0.0186 -0.1271  0.4457
 9456TIP3   OH249858   2.714   6.495  11.633 -0.1190  0.1442 -0.2693
 9456TIP3    H149859   2.796   6.540  11.613  0.3513 -0.7564 -0.3994
 9456TIP3    H249860   2.684   6.461  11.549  0.9224 -2.0679  0.1772
 9457TIP3   OH249861   1.633   5.506  10.961  0.1901  0.1594 -0.1009
 9457TIP3    H149862   1.726   5.495  10.977  0.4474  0.8014 -1.0435
 9457TIP3    H249863   1.628   5.557  10.880 -0.9454 -2.7998 -2.1238
 9458TIP3   OH249864   5.347   6.679  16.396 -0.5116 -0.8051 -0.0679
 9458TIP3    H149865   5.441   6.689  16.381 -0.6042 -0.4012 -0.3973
 9458TIP3    H249866   5.325   6.595  16.356 -0.3218 -0.8218 -0.1404
 9459TIP3   OH249867   3.926   1.055   5.123 -0.4746  0.7111  0.2580
 9459TIP3    H149868   3.893   1.068   5.034 -3.0800  2.2805  1.3263
 9459TIP3    H249869   3.879   0.977   5.155  0.7400 -0.0825  0.1873
 9460TIP3   OH249870   5.043   6.411   6.420  0.5913 -0.2848 -0.9912
 9460TIP3    H149871   5.048   6.494   6.467 -0.9607 -1.1303  0.8254
 9460TIP3    H249872   5.130   6.373   6.429  0.3836 -0.3607  1.2225
 9461TIP3   OH249873   2.799   6.197   3.846 -0.0085 -0.6192 -0.2934
 9461TIP3    H149874   2.756   6.216   3.763  0.7934 -0.9515 -0.8041
 9461TIP3    H249875   2.727   6.181   3.908 -0.6130 -0.5953 -0.9764
 9462TIP3   OH249876   5.761   1.981  16.501  0.5869 -0.0236 -0.1352
 9462TIP3    H149877   5.699   2.050  16.477  1.3200  0.7753  0.2182
 9462TIP3    H249878   5.788   1.943  16.418  2.0248  1.7646 -0.5560
 9463TIP3   OH249879   5.213   2.664   5.488  0.1602  0.1939 -0.0449
 9463TIP3    H149880   5.234   2.740   5.435 -0.8945 -0.7772 -1.9602
 9463TIP3    H249881   5.119   2.651   5.476 -0.0492 -0.3011  1.7959
 9464TIP3   OH249882   6.612   3.403  15.480  0.2310  0.0536 -0.2679
 9464TIP3    H149883   6.614   3.479  15.537  0.6580 -0.1953  0.0554
 9464TIP3    H249884   6.625   3.328  15.539  0.4691 -0.2203 -0.6620
 9465TIP3   OH249885   3.823   1.258  14.310  0.4116  0.9904  0.1054
 9465TIP3    H149886   3.748   1.229  14.259  0.2122  1.6511  0.0272
 9465TIP3    H249887   3.891   1.192  14.292 -0.1949  0.2950  0.3197
 9466TIP3   OH249888   4.648   6.188  12.537 -0.4872 -0.0489  0.4245
 9466TIP3    H149889   4.646   6.283  12.529  0.1652 -0.0987 -0.5502
 9466TIP3    H249890   4.678   6.172  12.627  0.2034  0.6659  0.3287
 9467TIP3   OH249891   5.117   4.132  15.148  0.3746  0.0044  0.0313
 9467TIP3    H149892   5.119   4.226  15.130 -0.2387 -0.1414 -0.8901
 9467TIP3    H249893   5.078   4.125  15.236  0.1125  0.5983 -0.0332
 9468TIP3   OH249894   3.322   2.876  14.722 -0.4283  0.0320  0.2076
 9468TIP3    H149895   3.357   2.933  14.790  0.7965  0.2126 -0.5525
 9468TIP3    H249896   3.383   2.802  14.718 -0.2622  0.2153 -0.9499
 9469TIP3   OH249897   2.547   3.486  14.521 -0.3754 -0.3511 -0.0161
 9469TIP3    H149898   2.470   3.431  14.510 -1.2976  1.0036 -0.6554
 9469TIP3    H249899   2.555   3.533  14.438  1.7452 -1.1587 -0.3483
 9470TIP3   OH249900   1.553   5.718   1.667 -0.5369  0.4920 -0.0245
 9470TIP3    H149901   1.641   5.744   1.692 -0.7386  1.2139 -0.0373
 9470TIP3    H249902   1.508   5.703   1.750 -0.8971  1.8402  0.0461
 9471TIP3   OH249903   1.037   3.385  14.421 -0.1689 -0.2299 -0.0448
 9471TIP3    H149904   0.979   3.460  14.429  0.2663  0.1827 -0.6994
 9471TIP3    H249905   1.098   3.409  14.352  0.5684 -0.8023  0.3946
 9472TIP3   OH249906   1.403   2.088  12.974  0.1624  0.0489 -0.3292
 9472TIP3    H149907   1.410   2.150  12.901 -1.5297  2.7649  1.5917
 9472TIP3    H249908   1.339   2.024  12.945  1.5038 -0.5266 -2.1720
 9473TIP3   OH249909   4.185   0.473  12.464  0.3903  0.2770  0.5493
 9473TIP3    H149910   4.162   0.533  12.535 -2.0866 -0.1509  0.1951
 9473TIP3    H249911   4.102   0.433  12.439  1.7985 -2.4761 -0.0139
 9474TIP3   OH249912   1.688   1.804   3.853  0.3396  0.3395  0.1614
 9474TIP3    H149913   1.661   1.727   3.802  2.0605 -0.0339 -0.2589
 9474TIP3    H249914   1.707   1.871   3.787  1.5365  0.2037  0.3421
 9475TIP3   OH249915   6.292   4.846  12.213  0.0950  0.3971  0.1142
 9475TIP3    H149916   6.369   4.898  12.187 -0.9289  1.8939 -0.0584
 9475TIP3    H249917   6.327   4.760  12.233  1.8322  1.0571  0.0908
 9476TIP3   OH249918   4.912   3.504   4.267 -0.4512  0.7557  0.6305
 9476TIP3    H149919   4.885   3.432   4.210 -1.3324  0.9098  0.8326
 9476TIP3    H249920   4.896   3.472   4.356  1.1817  0.4110  0.8287
 9477TIP3   OH249921   0.094   6.448   2.102 -0.6066 -0.9541  0.4967
 9477TIP3    H149922   0.135   6.388   2.164  1.8527  1.0894  1.0220
 9477TIP3    H249923   0.072   6.525   2.155  2.5307  1.2989 -1.1091
 9478TIP3   OH249924   0.091   0.664   0.073  0.3037  0.3391 -0.3677
 9478TIP3    H149925   0.005   0.639   0.039  0.1167  2.0396 -1.2885
 9478TIP3    H249926   0.082   0.660   0.168 -1.1652  1.5544 -0.4209
 9479TIP3   OH249927   4.267   6.009  17.041  0.1005  0.2064 -0.2125
 9479TIP3    H149928   4.341   5.948  17.047  0.6283  0.8326 -0.2607
 9479TIP3    H249929   4.201   5.973  17.100  0.5057 -0.2728 -0.0468
 9480TIP3   OH249930   2.843   1.138  16.979  0.5906  1.1198 -0.1464
 9480TIP3    H149931   2.884   1.125  16.894 -1.6899 -0.2018 -1.1255
 9480TIP3    H249932   2.803   1.225  16.973  0.6363  1.1286 -0.3272
 9481TIP3   OH249933   5.282   1.781  13.479  0.0617  0.0694 -0.1912
 9481TIP3    H149934   5.335   1.860  13.483 -0.1537  0.1881  0.4935
 9481TIP3    H249935   5.215   1.793  13.546 -0.1595 -0.5586 -0.2861
 9482TIP3   OH249936   0.995   5.024  17.175  0.2836  0.0706  0.0935
 9482TIP3    H149937   0.948   4.953  17.131 -0.3575 -0.0187  0.8900
 9482TIP3    H249938   0.925   5.079  17.213  0.7183  1.7383 -1.4069
 9483TIP3   OH249939   5.008   3.869   0.340 -0.2403  0.0647 -0.5783
 9483TIP3    H149940   4.928   3.887   0.292 -0.1497  0.8535 -0.4581
 9483TIP3    H249941   4.981   3.867   0.432 -0.6432 -2.7136 -0.6815
 9484TIP3   OH249942   3.578   3.890   0.752  0.1943 -0.7752 -0.1276
 9484TIP3    H149943   3.658   3.915   0.706 -1.0986  1.1415 -1.5633
 9484TIP3    H249944   3.519   3.860   0.682 -1.3063  0.7189  0.4203
 9485TIP3   OH249945   2.999   3.858   1.914 -0.2902  0.5716 -0.1473
 9485TIP3    H149946   3.017   3.939   1.961  0.2571 -0.5824  1.7529
 9485TIP3    H249947   3.082   3.837   1.871 -0.4179  0.9909 -0.5994
 9486TIP3   OH249948   1.929   5.066  16.143  0.2196 -0.7216  0.1970
 9486TIP3    H149949   1.905   4.979  16.175 -1.2181 -0.3560  0.1531
 9486TIP3    H249950   1.876   5.078  16.064  2.1079 -0.7320 -1.1407
 9487TIP3   OH249951   0.059   4.633   5.451  0.9172  0.1363  0.4069
 9487TIP3    H149952   0.061   4.728   5.440  1.1283  0.4572  2.6864
 9487TIP3    H249953   0.151   4.608   5.460  1.0483 -0.6406 -2.1410
 9488TIP3   OH249954   4.068   5.473  14.588 -0.3067 -0.6718 -0.1571
 9488TIP3    H149955   4.067   5.549  14.646  1.3406  0.4333 -1.4827
 9488TIP3    H249956   4.144   5.423  14.615 -1.2000 -1.7124  0.4925
 9489TIP3   OH249957   2.338   3.333   4.592  0.9969  0.6634 -0.0036
 9489TIP3    H149958   2.415   3.283   4.563  0.4556  0.5296 -1.2838
 9489TIP3    H249959   2.373   3.418   4.618  1.6908  0.2840  0.3264
 9490TIP3   OH249960   4.353   0.852  15.084 -0.3504 -0.1565  0.0508
 9490TIP3    H149961   4.363   0.880  15.175 -1.8310  1.9497 -0.3572
 9490TIP3    H249962   4.273   0.800  15.083 -0.0041 -0.6911  0.0524
 9491TIP3   OH249963   3.603   6.633   5.867  0.2613  0.4164  0.5241
 9491TIP3    H149964   3.549   6.578   5.924  0.2540  0.2483  0.3586
 9491TIP3    H249965   3.643   6.697   5.925 -0.5917  0.9240  0.5651
 9492TIP3   OH249966   4.728   6.726  13.497  0.3646  0.4842 -0.4064
 9492TIP3    H149967   4.708   6.799  13.556 -0.7223 -0.5794  0.6112
 9492TIP3    H249968   4.771   6.662  13.554 -0.0406 -0.2623 -0.9338
 9493TIP3   OH249969   4.128   4.586  10.892 -0.4401  0.4233 -0.1008
 9493TIP3    H149970   4.143   4.588  10.797  4.0172 -2.4619  0.2195
 9493TIP3    H249971   4.081   4.504  10.907 -0.1120  0.2954  0.2370
 9494TIP3   OH249972   4.034   2.865  11.315  0.2161 -0.1124 -0.7738
 9494TIP3    H149973   4.097   2.937  11.313 -0.3692  0.4981  0.8959
 9494TIP3    H249974   4.088   2.787  11.327  0.7251  0.3348 -0.0296
 9495TIP3   OH249975   3.750   3.505  16.211  0.2542  0.4682 -0.0896
 9495TIP3    H149976   3.743   3.432  16.273  1.0233  1.3215  1.0518
 9495TIP3    H249977   3.706   3.578  16.255 -0.5674  0.7044 -1.2473
 9496TIP3   OH249978   1.853   4.097   0.574  0.3170  0.5743 -0.1201
 9496TIP3    H149979   1.841   4.130   0.663 -0.0666 -2.4037  1.0461
 9496TIP3    H249980   1.947   4.086   0.564  0.3372  0.5967  0.0511
 9497TIP3   OH249981   0.529   3.590   0.783  0.0047 -0.6915  0.4208
 9497TIP3    H149982   0.521   3.497   0.761 -0.1362 -0.6101  0.1212
 9497TIP3    H249983   0.574   3.591   0.868  1.3460 -0.9864 -0.2570
 9498TIP3   OH249984   2.949   1.443   3.869 -0.5085  0.1856  0.8753
 9498TIP3    H149985   3.001   1.365   3.887 -1.0872 -0.0485  1.5611
 9498TIP3    H249986   3.014   1.509   3.842  0.0940 -0.2375  1.2527
 9499TIP3   OH249987   4.569   2.269   1.671  0.4602 -0.8886  0.1379
 9499TIP3    H149988   4.602   2.330   1.606  0.5739 -0.3318  0.7046
 9499TIP3    H249989   4.567   2.185   1.626 -1.1787 -0.2206 -1.1399
 9500TIP3   OH249990   5.446   1.031  11.487 -0.6297  0.6238 -0.0774
 9500TIP3    H149991   5.376   0.985  11.534  0.0471  1.9934  2.4691
 9500TIP3    H249992   5.403   1.104  11.445 -1.0756  0.0684 -0.6044
 9501TIP3   OH249993   3.831   3.925  10.621  0.0076 -0.0975 -0.1455
 9501TIP3    H149994   3.849   4.003  10.674 -0.1388 -0.0214 -0.2069
 9501TIP3    H249995   3.918   3.895  10.592  0.1029 -0.2554  0.3010
 9502TIP3   OH249996   1.257   3.432  11.279  0.0002 -0.0383  0.0547
 9502TIP3    H149997   1.167   3.451  11.306  0.0124 -0.3149  0.2907
 9502TIP3    H249998   1.255   3.340  11.253  0.3612 -0.2216  0.6671
 9503TIP3   OH249999   2.377   2.314   5.053 -0.3384 -0.1535 -0.1814
 9503TIP3    H150000   2.286   2.322   5.079  0.4603  1.9613  2.4660
 9503TIP3    H250001   2.384   2.365   4.972 -1.5754 -0.8657 -0.7574
 9504TIP3   OH250002   5.758   3.301  15.896  0.1361  0.2769  0.9747
 9504TIP3    H150003   5.720   3.214  15.884  1.8809 -0.5053  0.7183
 9504TIP3    H250004   5.692   3.361  15.864  0.4539 -1.1552 -3.0212
 9505TIP3   OH250005   2.847   2.930   2.262 -0.0898  0.1520 -0.1549
 9505TIP3    H150006   2.817   2.994   2.327 -0.8331 -1.1819  0.8772
 9505TIP3    H250007   2.942   2.926   2.276 -0.2076  0.0679  0.6880
 9506TIP3   OH250008   0.335   2.791  13.087 -0.7941 -0.5893 -0.3809
 9506TIP3    H150009   0.349   2.872  13.136 -2.3315 -0.9583  0.7368
 9506TIP3    H250010   0.282   2.818  13.012 -1.3764 -0.5612  0.0353
 9507TIP3   OH250011   0.231   1.226   3.545 -0.0656  0.3460 -0.0528
 9507TIP3    H150012   0.247   1.236   3.639  0.3039  2.5037 -0.2753
 9507TIP3    H250013   0.316   1.241   3.505 -0.0047 -1.6156 -0.7160
 9508TIP3   OH250014   3.058   3.939  15.835 -0.0844 -0.9370  0.7032
 9508TIP3    H150015   3.129   3.889  15.874 -0.4721 -1.1725  1.1098
 9508TIP3    H250016   3.032   3.889  15.758  2.6399  0.9506 -1.6782
 9509TIP3   OH250017   5.082   2.176  12.011  0.1954  0.6767  0.7194
 9509TIP3    H150018   5.139   2.192  11.935  1.2655 -1.7414  0.9097
 9509TIP3    H250019   5.004   2.136  11.974  0.0891  0.8384  0.7687
 9510TIP3   OH250020   3.289   6.204   4.025  0.0912 -0.1607  0.0457
 9510TIP3    H150021   3.206   6.155   4.026  0.4254 -0.7318  0.5389
 9510TIP3    H250022   3.343   6.158   3.961  0.1453  0.0176 -0.0372
 9511TIP3   OH250023   5.137   6.698  11.514  0.0940 -0.0718 -0.4298
 9511TIP3    H150024   5.140   6.708  11.419 -0.6758  0.9691 -0.3652
 9511TIP3    H250025   5.179   6.778  11.547 -0.2487 -0.1149  0.1161
 9512TIP3   OH250026   3.045   0.712  15.996  0.0012  0.2511 -0.1597
 9512TIP3    H150027   3.059   0.790  16.049  0.3793 -1.1595  1.9104
 9512TIP3    H250028   3.132   0.674  15.986 -0.3342 -0.5510 -0.0915
 9513TIP3   OH250029   5.600   4.153  10.959 -0.0265 -0.5890  0.1831
 9513TIP3    H150030   5.567   4.120  10.876  0.4192 -1.1134  0.2075
 9513TIP3    H250031   5.684   4.192  10.938  0.7774 -2.0145  0.5952
 9514TIP3   OH250032   0.803   4.985  14.569 -0.0896  0.3039 -0.1474
 9514TIP3    H150033   0.751   4.970  14.648 -2.6692  1.1169 -1.5616
 9514TIP3    H250034   0.847   4.902  14.552 -0.2038 -0.1413  1.6226
 9515TIP3   OH250035   5.802   6.049   3.539 -0.3724 -0.3301  0.4064
 9515TIP3    H150036   5.848   6.097   3.469 -2.3899  0.2066 -0.6390
 9515TIP3    H250037   5.836   6.086   3.620 -1.0779  2.2053 -0.3638
 9516TIP3   OH250038   2.473   4.302  14.892  0.0267  0.0641 -0.3021
 9516TIP3    H150039   2.422   4.286  14.971  1.0478 -0.1897  0.3221
 9516TIP3    H250040   2.437   4.240  14.828  0.3992 -1.0376  0.5148
 9517TIP3   OH250041   0.012   3.436  12.894 -0.2704  0.2115 -0.3475
 9517TIP3    H150042  -0.012   3.352  12.856 -0.8766 -0.5773  1.6365
 9517TIP3    H250043  -0.056   3.496  12.866 -0.0006 -0.0118 -1.5265
 9518TIP3   OH250044   4.981   0.908  12.116  0.0797  0.2797 -0.9412
 9518TIP3    H150045   4.902   0.897  12.063 -0.9556 -0.7224  0.7230
 9518TIP3    H250046   5.002   1.001  12.109 -1.3368  0.5948 -1.2936
 9519TIP3   OH250047   5.170   2.261   6.424 -0.3960  0.0586  0.4612
 9519TIP3    H150048   5.216   2.232   6.502 -1.0585  1.0361  1.2321
 9519TIP3    H250049   5.078   2.265   6.450 -0.5050  1.3746 -0.0518
 9520TIP3   OH250050   1.656   5.512   0.076 -0.0365 -0.5377 -0.2337
 9520TIP3    H150051   1.695   5.599   0.064  0.2495 -0.7124 -0.6050
 9520TIP3    H250052   1.566   5.530   0.102 -0.3856 -0.1187 -1.6429
 9521TIP3   OH250053   2.725   4.202  14.029  0.1515 -0.0076  0.5418
 9521TIP3    H150054   2.781   4.279  14.036  0.1455  0.0462 -0.0125
 9521TIP3    H250055   2.640   4.237  14.001  0.0504 -0.1768  0.6361
 9522TIP3   OH250056   6.582   6.652   1.906 -0.5315  0.1431  0.2649
 9522TIP3    H150057   6.671   6.686   1.919 -0.6026 -0.0123  1.1578
 9522TIP3    H250058   6.569   6.656   1.811  0.7420 -0.6243  0.0399
 9523TIP3   OH250059   0.386   1.215   4.575 -0.0262  0.0845 -0.3882
 9523TIP3    H150060   0.420   1.198   4.488  0.2603  1.6452 -0.6054
 9523TIP3    H250061   0.449   1.275   4.615 -2.1325  2.6242 -0.6009
 9524TIP3   OH250062   1.860   1.489   5.047 -0.1462 -0.1086 -0.6921
 9524TIP3    H150063   1.887   1.410   5.001  3.1714  1.6571 -2.1149
 9524TIP3    H250064   1.792   1.527   4.991 -1.0754 -1.3737 -0.4850
 9525TIP3   OH250065   0.489   6.247   3.737  0.1581 -0.0819 -0.0355
 9525TIP3    H150066   0.419   6.312   3.734  0.4483  0.2312 -0.0544
 9525TIP3    H250067   0.465   6.190   3.810  0.2270  0.4229  0.3915
 9526TIP3   OH250068   3.063   4.417   1.297  0.0893  0.1806  0.1468
 9526TIP3    H150069   3.144   4.369   1.314 -0.9411 -2.1726 -1.1026
 9526TIP3    H250070   3.033   4.443   1.384  0.0100 -2.7673  1.1077
 9527TIP3   OH250071   2.799   4.178   1.628 -0.0839 -0.4094 -0.0836
 9527TIP3    H150072   2.827   4.261   1.667 -2.0967 -0.3535  1.4429
 9527TIP3    H250073   2.792   4.118   1.703  0.5842 -1.7450 -1.0597
 9528TIP3   OH250074   0.222   2.911   0.155 -0.2202  0.1696  0.3585
 9528TIP3    H150075   0.153   2.973   0.133 -0.6454 -0.5127 -0.2832
 9528TIP3    H250076   0.188   2.826   0.126  0.5551 -0.2922  0.7641
 9529TIP3   OH250077   2.650   0.160  14.502  0.6600 -0.3065  0.3882
 9529TIP3    H150078   2.671   0.236  14.557  1.3109 -1.1633  1.3676
 9529TIP3    H250079   2.713   0.093  14.529  2.0534 -0.2932 -2.4919
 9530TIP3   OH250080   6.230   1.616  13.015 -0.0385 -0.1269 -0.6951
 9530TIP3    H150081   6.174   1.542  12.994 -1.2004  0.2277  0.9350
 9530TIP3    H250082   6.296   1.581  13.075 -1.2119  0.2909  0.9222
 9531TIP3   OH250083   6.129   0.638   1.222  0.2590 -0.3972  0.5011
 9531TIP3    H150084   6.063   0.580   1.184  2.1221 -0.8625 -2.3331
 9531TIP3    H250085   6.123   0.719   1.171  1.0119  0.0509  1.0878
 9532TIP3   OH250086   2.040   0.699   2.852  0.5631  0.2479 -0.0896
 9532TIP3    H150087   2.015   0.734   2.766  2.2600 -0.0692 -0.7383
 9532TIP3    H250088   2.025   0.604   2.844  0.8057  0.2080 -0.0644
 9533TIP3   OH250089   3.399   1.910   1.021  0.2125 -0.8664 -0.0772
 9533TIP3    H150090   3.482   1.882   0.983 -0.1255 -0.2310 -1.3509
 9533TIP3    H250091   3.332   1.864   0.971 -0.2222 -0.9291  0.5510
 9534TIP3   OH250092   5.700   4.715  12.530 -0.0861 -0.1269 -0.2534
 9534TIP3    H150093   5.717   4.773  12.456  0.9902 -1.3640 -1.0229
 9534TIP3    H250094   5.778   4.659  12.535 -0.6962 -0.9163  1.0189
 9535TIP3   OH250095   3.006   3.784  11.346  0.5766 -0.2701  0.1240
 9535TIP3    H150096   2.939   3.716  11.358  0.7460 -0.5411 -0.4239
 9535TIP3    H250097   2.980   3.829  11.265  0.8634 -0.1466  0.1003
 9536TIP3   OH250098   4.290   4.064   0.665  0.1737  0.5575 -0.1296
 9536TIP3    H150099   4.334   4.062   0.750  1.0761 -0.2762 -0.5947
 9536TIP3    H250100   4.294   4.156   0.639  0.9132  0.6386  0.2197
 9537TIP3   OH250101   4.949   2.113  10.965 -0.6090 -0.4559 -0.3187
 9537TIP3    H150102   4.965   2.195  10.918  0.1691 -0.5112 -0.1474
 9537TIP3    H250103   4.977   2.045  10.904 -0.9829 -0.5891 -0.3463
 9538TIP3   OH250104   1.102   4.402  15.419  0.2188  0.3382  0.5693
 9538TIP3    H150105   1.073   4.313  15.440 -1.4762  0.2935 -1.5931
 9538TIP3    H250106   1.165   4.424  15.488  0.6127 -2.4800  1.2135
 9539TIP3   OH250107   0.752   3.629  12.057 -0.2162  0.1387 -0.0606
 9539TIP3    H150108   0.788   3.579  11.984 -0.9666 -1.0413  0.3340
 9539TIP3    H250109   0.803   3.599  12.133 -0.5310  0.1234  0.1478
 9540TIP3   OH250110   4.853   0.945   5.015  0.0130 -0.1639 -0.1884
 9540TIP3    H150111   4.768   0.903   5.026 -0.5589  0.0926 -2.7847
 9540TIP3    H250112   4.896   0.936   5.100 -2.2088 -1.1475  0.9255
 9541TIP3   OH250113   5.031   6.176  12.842 -0.4110  0.2202 -0.4324
 9541TIP3    H150114   4.994   6.233  12.774  2.3237  0.8441 -1.5364
 9541TIP3    H250115   5.044   6.092  12.798  0.9358  0.4864 -0.5592
 9542TIP3   OH250116   6.083   4.173  10.896  0.1992  0.3013  0.0834
 9542TIP3    H150117   5.987   4.168  10.890 -0.0945  3.2444  0.7653
 9542TIP3    H250118   6.114   4.140  10.811 -1.3032 -1.5175  0.1556
 9543TIP3   OH250119   2.119   5.829  12.220  0.0366  0.1136  0.0397
 9543TIP3    H150120   2.165   5.758  12.176  0.5399  0.5881 -0.2140
 9543TIP3    H250121   2.188   5.887  12.252 -0.3640  0.4652  0.2883
 9544TIP3   OH250122   2.889   5.961   0.972  0.2338  0.1831  0.8331
 9544TIP3    H150123   2.877   6.054   0.956  1.1606  0.1401 -0.2867
 9544TIP3    H250124   2.925   5.927   0.890 -0.2374 -1.1905  1.1624
 9545TIP3   OH250125   3.679   2.124   6.064 -0.2334  0.0726 -0.0354
 9545TIP3    H150126   3.649   2.176   6.138 -1.9953  0.3576 -0.8963
 9545TIP3    H250127   3.743   2.180   6.019  2.2089 -0.7684  2.1532
 9546TIP3   OH250128   0.291   6.181  10.550  0.1985  0.2286  0.3156
 9546TIP3    H150129   0.350   6.225  10.489  2.7608 -0.9462  1.7969
 9546TIP3    H250130   0.317   6.213  10.636 -2.1009  0.4646  0.9940
 9547TIP3   OH250131   6.091   3.492  12.544  0.0634 -0.5438  0.0381
 9547TIP3    H150132   6.061   3.431  12.611 -1.0812 -1.4531 -1.2368
 9547TIP3    H250133   6.010   3.524  12.503  0.7270 -0.4191 -1.2418
 9548TIP3   OH250134   4.582   1.949   1.035 -0.3711 -0.0564  0.1890
 9548TIP3    H150135   4.626   2.028   1.065  1.2148 -0.9632  0.3502
 9548TIP3    H250136   4.548   1.908   1.115 -0.2720 -0.0795  0.2186
 9549TIP3   OH250137   1.907   5.113   6.529  0.0689 -0.2990  0.3239
 9549TIP3    H150138   1.994   5.151   6.536 -0.0361  1.0010 -3.5451
 9549TIP3    H250139   1.900   5.056   6.606  2.6478  2.6645  3.0040
 9550TIP3   OH250140   1.951   1.865  14.183  0.3999 -0.0579 -0.3331
 9550TIP3    H150141   1.990   1.947  14.212  0.1019 -0.5090  1.4759
 9550TIP3    H250142   1.948   1.810  14.262 -0.5247 -1.3627 -1.2233
 9551TIP3   OH250143   1.692   0.506  13.498  0.4207  0.0956 -0.4573
 9551TIP3    H150144   1.724   0.571  13.436 -2.3137  1.0077 -1.0794
 9551TIP3    H250145   1.596   0.512  13.492  0.0473 -1.6261  1.9625
 9552TIP3   OH250146   0.685   2.170   3.721  0.1534 -0.1524 -0.5982
 9552TIP3    H150147   0.685   2.250   3.774 -2.9786 -0.0819 -0.4903
 9552TIP3    H250148   0.731   2.194   3.641  3.0282  0.4028  1.1056
 9553TIP3   OH250149   6.637   3.671   3.315  0.1161  0.0644 -0.0981
 9553TIP3    H150150   6.680   3.696   3.396  1.3728 -0.0850 -0.7006
 9553TIP3    H250151   6.693   3.604   3.277 -0.8036 -0.3492 -0.7728
 9554TIP3   OH250152   0.480   3.539  13.651  0.1615 -0.0335  0.3848
 9554TIP3    H150153   0.432   3.518  13.731 -2.5440 -1.0677 -1.3436
 9554TIP3    H250154   0.480   3.635  13.647 -1.0559  0.0058  0.8743
 9555TIP3   OH250155   1.123   5.275   1.143  0.4481 -0.2214 -0.0043
 9555TIP3    H150156   1.145   5.243   1.055 -0.3138 -1.3238  0.2002
 9555TIP3    H250157   1.197   5.249   1.197  0.9330  0.4834 -0.3032
 9556TIP3   OH250158   0.438   0.903  13.129 -0.2573 -0.0862 -0.3479
 9556TIP3    H150159   0.493   0.955  13.069  0.3491  0.1969  0.4423
 9556TIP3    H250160   0.456   0.939  13.215 -1.6348 -0.0579 -0.0582
 9557TIP3   OH250161   6.316   2.865  14.178 -0.3347  0.0472 -0.1518
 9557TIP3    H150162   6.377   2.840  14.109  0.4687 -0.0675  0.5854
 9557TIP3    H250163   6.371   2.884  14.254 -1.2477 -0.8054  0.7560
 9558TIP3   OH250164   2.909   4.723   2.348 -0.4009 -0.6274 -0.2519
 9558TIP3    H150165   2.929   4.632   2.331  0.4071 -0.9572  2.0640
 9558TIP3    H250166   2.821   4.721   2.387  0.1583 -0.6130  1.0619
 9559TIP3   OH250167   2.013   5.667  14.212  0.6645  0.2138 -0.2908
 9559TIP3    H150168   2.002   5.594  14.151  0.7198  0.0543 -0.1104
 9559TIP3    H250169   1.932   5.717  14.205  2.2714  2.7611 -3.8501
 9560TIP3   OH250170   6.721   6.404   1.567 -0.2581  1.2290  0.6126
 9560TIP3    H150171   6.655   6.377   1.631  0.7746 -1.5327  0.6356
 9560TIP3    H250172   6.803   6.367   1.600  0.3422 -0.1896 -2.1720
 9561TIP3   OH250173   2.681   3.777   2.125  0.2180 -0.0935  0.1819
 9561TIP3    H150174   2.736   3.744   2.054  0.4892  0.9696 -0.1126
 9561TIP3    H250175   2.592   3.770   2.092  0.3398  0.3362 -0.2407
 9562TIP3   OH250176   1.391   2.973  11.456 -0.4774 -0.2083  0.8008
 9562TIP3    H150177   1.446   2.947  11.531  1.6975  0.1021 -0.5945
 9562TIP3    H250178   1.374   2.890  11.410  2.1198  0.0115 -0.8081
 9563TIP3   OH250179   3.992   0.543   0.454 -0.3821 -0.4501  1.0909
 9563TIP3    H150180   3.913   0.490   0.445 -1.3534  1.1947 -0.8041
 9563TIP3    H250181   4.033   0.541   0.368 -0.3130  1.5707  1.0265
 9564TIP3   OH250182   2.925   4.290   0.330  0.4583 -0.1932 -0.0318
 9564TIP3    H150183   2.931   4.365   0.388 -0.1036 -0.7088  0.7073
 9564TIP3    H250184   2.958   4.322   0.246 -2.8330  1.9118 -0.7163
 9565TIP3   OH250185   6.225   4.570   1.173 -0.1638  0.4486 -0.3118
 9565TIP3    H150186   6.302   4.543   1.223  1.3231  1.3717 -1.9882
 9565TIP3    H250187   6.168   4.611   1.237 -0.3336 -2.1866  1.4087
 9566TIP3   OH250188   1.984   5.611   4.423 -0.2420 -0.7973 -0.3534
 9566TIP3    H150189   2.045   5.684   4.420 -1.3484  0.1807  0.1797
 9566TIP3    H250190   1.907   5.646   4.468 -2.1441 -1.2655 -3.0160
 9567TIP3   OH250191   4.117   3.317   4.648 -0.3632  0.2130 -0.4382
 9567TIP3    H150192   4.126   3.338   4.741 -1.7877 -0.5168 -0.0916
 9567TIP3    H250193   4.024   3.331   4.629 -0.8046 -2.6521 -0.9141
 9568TIP3   OH250194   4.361   6.208   1.773  0.2442 -0.6110 -0.6217
 9568TIP3    H150195   4.441   6.155   1.776  1.8247  1.5561  3.9323
 9568TIP3    H250196   4.391   6.295   1.748 -0.9884 -0.0624 -0.2667
 9569TIP3   OH250197   4.314   0.649   4.552  0.7153  0.6932  0.0251
 9569TIP3    H150198   4.405   0.658   4.579 -0.1068  0.0041  3.4398
 9569TIP3    H250199   4.263   0.675   4.629 -1.9933  0.2858 -1.5034
 9570TIP3   OH250200   2.632   6.005   4.484 -0.3787  0.6533 -0.0821
 9570TIP3    H150201   2.669   6.093   4.495  2.6025 -0.6069  1.1034
 9570TIP3    H250202   2.607   5.978   4.572  0.3238 -0.2953 -0.1610
 9571TIP3   OH250203   6.321   2.760  16.919  0.1130 -0.2691  0.0627
 9571TIP3    H150204   6.314   2.730  16.828  0.3851  0.0032 -0.0488
 9571TIP3    H250205   6.413   2.785  16.930  0.3174 -1.2811  0.7287
 9572TIP3   OH250206   1.559   1.101   5.971  0.4309 -0.0787 -0.0775
 9572TIP3    H150207   1.490   1.063   5.917  0.7132  0.3457 -0.7584
 9572TIP3    H250208   1.513   1.162   6.029  0.3732  1.6894 -1.8483
 9573TIP3   OH250209   6.251   2.177   5.797  0.1540  0.5171  0.2528
 9573TIP3    H150210   6.210   2.230   5.729  0.6917  0.5985 -0.0093
 9573TIP3    H250211   6.241   2.229   5.877 -1.1440  0.0906  0.3940
 9574TIP3   OH250212   6.026   0.956   0.433  0.2748 -0.4461  0.1157
 9574TIP3    H150213   6.068   0.893   0.491 -1.2631 -1.4059  0.2288
 9574TIP3    H250214   6.071   0.944   0.349  0.5277 -1.1515  0.3411
 9575TIP3   OH250215   3.990   6.355   1.743 -0.2588  0.7040  0.4102
 9575TIP3    H150216   4.069   6.390   1.702 -0.0415 -1.1765 -0.9292
 9575TIP3    H250217   3.932   6.333   1.670 -0.2471 -1.8657  1.0496
 9576TIP3   OH250218   1.930   3.318   3.089  0.0829  0.1284 -0.2060
 9576TIP3    H150219   2.015   3.286   3.119 -0.3175 -0.3445  0.4467
 9576TIP3    H250220   1.932   3.307   2.994 -0.3500 -2.7042  0.0184
 9577TIP3   OH250221   4.134   1.831   4.209  0.0475 -0.7114  0.4261
 9577TIP3    H150222   4.171   1.839   4.121 -2.0503 -1.6137 -0.6058
 9577TIP3    H250223   4.205   1.793   4.262  1.4988  0.2962 -0.7153
 9578TIP3   OH250224   5.078   0.136  12.742  0.1363  0.3759  0.4445
 9578TIP3    H150225   5.161   0.120  12.697  0.4949  0.0917  1.1925
 9578TIP3    H250226   5.083   0.227  12.770 -0.2107  0.6382 -0.3388
 9579TIP3   OH250227   3.232   4.645   5.326  0.3705 -0.1602  0.1830
 9579TIP3    H150228   3.196   4.568   5.369  1.1426 -0.8956 -0.4444
 9579TIP3    H250229   3.212   4.718   5.385 -1.1551 -0.6990  0.3531
 9580TIP3   OH250230   1.729   6.776  11.434 -0.0815  0.7189  0.3877
 9580TIP3    H150231   1.713   6.844  11.368 -0.3973  0.3600  0.0882
 9580TIP3    H250232   1.824   6.775  11.445 -0.0705  1.1572  0.3396
 9581TIP3   OH250233   2.108   4.820  13.275  0.2266 -0.4045  0.0387
 9581TIP3    H150234   2.042   4.751  13.271  0.3317 -0.5481  0.6605
 9581TIP3    H250235   2.079   4.884  13.210 -0.0531 -0.8726 -0.3060
 9582TIP3   OH250236   0.386   2.000   0.061  0.4677  0.1959  0.2865
 9582TIP3    H150237   0.344   1.935   0.003  2.4363  0.4382 -1.5276
 9582TIP3    H250238   0.314   2.037   0.111 -1.2192 -0.7243 -1.3324
 9583TIP3   OH250239   2.780   6.309  17.036  0.2886  0.3820  0.0421
 9583TIP3    H150240   2.715   6.379  17.036 -0.2751 -0.1379  0.1733
 9583TIP3    H250241   2.791   6.286  17.128  1.2001  0.9528  0.0920
 9584TIP3   OH250242   6.326   0.544  15.554  0.0134 -0.4243 -0.1929
 9584TIP3    H150243   6.365   0.627  15.579 -0.7269 -0.5105  1.3747
 9584TIP3    H250244   6.252   0.532  15.614 -1.5156 -0.9858 -2.0330
 9585TIP3   OH250245   1.251   2.105   4.313  0.4803  0.1981 -0.1300
 9585TIP3    H150246   1.340   2.122   4.282  0.2426 -0.0709 -0.9692
 9585TIP3    H250247   1.226   2.022   4.273  0.3985 -0.5145  1.3191
 9586TIP3   OH250248   1.616   6.447  12.967  0.1745  0.0283  0.3267
 9586TIP3    H150249   1.650   6.358  12.962 -1.0333 -0.3975 -1.2491
 9586TIP3    H250250   1.553   6.444  13.039  0.3722 -0.3044  0.4885
 9587TIP3   OH250251   6.608   5.146  13.959  0.2221  0.0769  0.5913
 9587TIP3    H150252   6.664   5.089  13.905 -0.1382  0.4894 -0.2386
 9587TIP3    H250253   6.629   5.235  13.929 -1.5155  0.1944 -0.3844
 9588TIP3   OH250254   2.840   0.998  15.291 -0.1171 -0.2702  0.4479
 9588TIP3    H150255   2.834   1.076  15.345 -2.4526  0.0492 -0.1395
 9588TIP3    H250256   2.884   0.933  15.346  1.4270  1.2751  1.1178
 9589TIP3   OH250257   4.075   0.986   0.958  0.2982  0.3164  0.6854
 9589TIP3    H150258   4.037   1.071   0.981 -0.2275 -0.0284  1.1075
 9589TIP3    H250259   4.001   0.933   0.929  0.5236 -0.2002  1.0247
 9590TIP3   OH250260   3.303   4.551   4.896 -0.6944  0.1970 -0.5421
 9590TIP3    H150261   3.351   4.634   4.892 -0.4408  0.0045 -1.8270
 9590TIP3    H250262   3.239   4.563   4.967  1.2901  0.4201  1.3236
 9591TIP3   OH250263   3.595   4.673   2.068 -0.4704 -0.4206  0.1858
 9591TIP3    H150264   3.589   4.732   1.993  0.7303  1.5253  1.5145
 9591TIP3    H250265   3.677   4.626   2.056  1.3081  2.0339  1.5804
 9592TIP3   OH250266   4.157   1.644  17.159  0.2479 -0.4292  1.2112
 9592TIP3    H150267   4.145   1.588  17.235  0.0148  0.4735  1.8536
 9592TIP3    H250268   4.097   1.718  17.173  0.6327  0.0446  0.4543
 9593TIP3   OH250269   0.772   3.248   4.994  0.1141 -0.5083 -0.8972
 9593TIP3    H150270   0.739   3.286   4.912 -0.7990 -0.2704 -0.4332
 9593TIP3    H250271   0.789   3.323   5.050 -1.3056 -0.7194 -0.1232
 9594TIP3   OH250272   5.747   6.409   0.141  0.4045 -0.2362 -0.1213
 9594TIP3    H150273   5.662   6.367   0.159  0.1049 -0.1173 -1.1432
 9594TIP3    H250274   5.799   6.339   0.100 -0.6493  0.6951 -3.3593
 9595TIP3   OH250275   0.064   5.566   2.506 -0.1849  1.0019 -0.3408
 9595TIP3    H150276  -0.031   5.570   2.518  0.0108  2.3162  1.0870
 9595TIP3    H250277   0.100   5.613   2.581  1.6660 -0.6685 -0.0932
 9596TIP3   OH250278   4.661   4.373  16.877 -0.2528 -0.1796 -0.4814
 9596TIP3    H150279   4.628   4.290  16.912  0.4584  0.3413  1.5341
 9596TIP3    H250280   4.753   4.355  16.856 -0.5914 -0.3995 -1.8845
 9597TIP3   OH250281   4.761   3.864  15.193  0.6060 -0.5563  0.4011
 9597TIP3    H150282   4.806   3.861  15.109  0.5724 -2.6020  0.4094
 9597TIP3    H250283   4.819   3.817  15.254 -1.3647 -3.1722  0.4288
 9598TIP3   OH250284   0.207   2.456  13.002  0.2133  0.3755 -0.7155
 9598TIP3    H150285   0.129   2.406  12.977  0.8002 -1.3719  0.7461
 9598TIP3    H250286   0.280   2.397  12.984  0.8577  0.1912  2.0868
 9599TIP3   OH250287   2.473   1.703  14.719  0.2150  0.1252 -0.6858
 9599TIP3    H150288   2.406   1.644  14.752 -0.9008  0.9752 -1.3872
 9599TIP3    H250289   2.486   1.766  14.790  0.2653 -0.0211 -0.5640
 9600TIP3   OH250290   4.655   4.593  16.194  0.7389  0.6093 -0.6438
 9600TIP3    H150291   4.671   4.663  16.131 -1.9933  0.4258 -1.7016
 9600TIP3    H250292   4.605   4.634  16.264 -1.3226 -0.2525 -1.5079
 9601TIP3   OH250293   5.640   0.779   1.916 -0.2205 -0.5304  0.6461
 9601TIP3    H150294   5.726   0.818   1.935  0.8960 -1.3614 -2.2374
 9601TIP3    H250295   5.577   0.842   1.951  1.5512  2.1288 -0.6081
 9602TIP3   OH250296   6.154   2.153  14.939 -0.1513  0.0032  0.4988
 9602TIP3    H150297   6.110   2.091  14.880 -0.9897  0.9506  0.1165
 9602TIP3    H250298   6.146   2.114  15.026  0.2430 -0.9304  0.1323
 9603TIP3   OH250299   4.811   1.799  16.956 -0.1325 -0.0585 -0.2586
 9603TIP3    H150300   4.751   1.865  16.920 -1.3966 -1.2039 -0.2958
 9603TIP3    H250301   4.804   1.809  17.051 -0.3546 -0.1850 -0.2618
 9604TIP3   OH250302   2.683   1.012   2.279 -0.2081  0.3253 -0.3022
 9604TIP3    H150303   2.729   1.027   2.197  1.5687  2.1059  0.9520
 9604TIP3    H250304   2.737   1.054   2.345 -1.6884 -0.8884  1.7856
 9605TIP3   OH250305   0.762   3.125   1.725  0.4273  0.9102 -0.1847
 9605TIP3    H150306   0.857   3.123   1.719  0.4187 -0.1501 -0.1257
 9605TIP3    H250307   0.732   3.062   1.660 -0.2375  1.2158 -0.1897
 9606TIP3   OH250308   0.540   5.250  10.274  0.1072 -0.1196  0.2631
 9606TIP3    H150309   0.627   5.290  10.284  1.4550 -2.7989  0.1135
 9606TIP3    H250310   0.486   5.297  10.337  1.9465  0.8320  1.2463
 9607TIP3   OH250311   4.916   6.669   0.014  0.2606 -0.3744 -0.4862
 9607TIP3    H150312   4.923   6.666  -0.081 -0.4108 -0.2745 -0.5414
 9607TIP3    H250313   4.859   6.744   0.031 -0.0397 -0.7085 -0.0260
 9608TIP3   OH250314   1.621   4.827  12.953  0.9310  0.2968  0.1406
 9608TIP3    H150315   1.650   4.737  12.943  0.1286  0.0174  0.2482
 9608TIP3    H250316   1.557   4.839  12.883 -0.0897  0.2966  1.0449
 9609TIP3   OH250317   1.467   5.804  12.542 -0.6944 -0.1571 -0.5832
 9609TIP3    H150318   1.407   5.872  12.572  1.9933  1.1627  2.3798
 9609TIP3    H250319   1.461   5.735  12.608  0.1933 -0.4988 -0.8407
 9610TIP3   OH250320   1.914   4.745  16.922  0.2103 -0.5218  0.4677
 9610TIP3    H150321   1.844   4.772  16.981  0.8639  1.4481  0.4246
 9610TIP3    H250322   1.942   4.660  16.955 -2.5349 -1.6816  0.1426
 9611TIP3   OH250323   2.362   3.693  12.945  0.3927  0.2619 -0.3462
 9611TIP3    H150324   2.457   3.693  12.956  0.4152 -1.8241 -0.2172
 9611TIP3    H250325   2.343   3.615  12.893 -1.2809  0.5134 -0.1854
 9612TIP3   OH250326   2.975   2.299   1.123 -0.9149  0.2448 -0.1847
 9612TIP3    H150327   2.943   2.270   1.038 -1.2104  1.0085 -0.3443
 9612TIP3    H250328   3.035   2.230   1.151  0.9438  0.9651 -2.0340
 9613TIP3   OH250329   0.098   1.113  13.848 -0.5669  0.2269  0.0890
 9613TIP3    H150330   0.117   1.053  13.776  0.7384  3.0359 -2.1029
 9613TIP3    H250331   0.088   1.056  13.924 -0.9902 -2.8450 -2.0588
 9614TIP3   OH250332   3.251   4.607   0.380 -0.3075  0.5316  0.9687
 9614TIP3    H150333   3.312   4.576   0.313 -0.8318  1.7377 -0.1151
 9614TIP3    H250334   3.249   4.537   0.445  0.1933 -0.6986 -0.2887
 9615TIP3   OH250335   2.768   6.682  10.745 -0.2702 -0.1022 -0.3069
 9615TIP3    H150336   2.831   6.610  10.751 -1.5311 -1.1748  0.7185
 9615TIP3    H250337   2.811   6.747  10.689  1.2464 -1.2847 -0.5856
 9616TIP3   OH250338   0.414   4.582  11.309  0.0378  0.0632  0.4613
 9616TIP3    H150339   0.357   4.637  11.255  1.3333  0.4713 -0.5290
 9616TIP3    H250340   0.459   4.526  11.246  1.5032  0.4678  1.1227
 9617TIP3   OH250341   1.966   4.720  12.943 -0.4784 -0.9655 -0.3863
 9617TIP3    H150342   1.979   4.815  12.936 -0.5640 -0.8784  0.4922
 9617TIP3    H250343   2.013   4.684  12.868 -0.6954 -0.2108 -0.8974
 9618TIP3   OH250344   3.344   1.549  16.749 -0.2690 -0.6527  0.2506
 9618TIP3    H150345   3.320   1.476  16.692  1.5659 -0.9644 -0.1831
 9618TIP3    H250346   3.263   1.598  16.761 -0.7900 -0.7341 -2.4075
 9619TIP3   OH250347   1.820   6.227   0.378 -0.0323 -0.4762  0.0945
 9619TIP3    H150348   1.882   6.155   0.389 -0.6572 -1.1878 -0.9078
 9619TIP3    H250349   1.734   6.184   0.377 -0.3876  0.2403 -0.8908
 9620TIP3   OH250350   1.616   0.922  12.991 -0.5182  0.0628 -0.6336
 9620TIP3    H150351   1.700   0.929  13.038 -0.7886  0.9530 -0.2563
 9620TIP3    H250352   1.640   0.931  12.899 -0.3353  1.9145 -0.4461
 9621TIP3   OH250353   2.924   1.762  16.263 -0.3557  0.2928  0.2768
 9621TIP3    H150354   2.875   1.791  16.187  1.2545 -0.1761 -0.9979
 9621TIP3    H250355   2.924   1.837  16.322  0.3900  1.5246 -1.2340
 9622TIP3   OH250356   4.578   6.076  13.663  0.5097  0.6672  0.1648
 9622TIP3    H150357   4.610   5.992  13.629 -1.4113 -1.1262  2.3702
 9622TIP3    H250358   4.646   6.103  13.725  0.2875 -0.3363  0.8863
 9623TIP3   OH250359   5.399   2.916  17.052  0.1013  0.1268  0.1028
 9623TIP3    H150360   5.319   2.894  17.006 -0.0398 -0.0496  0.4295
 9623TIP3    H250361   5.376   2.991  17.107  0.0685 -0.1290  0.4441
 9624TIP3   OH250362   3.427   6.455   3.902 -0.4878 -0.0607 -0.0986
 9624TIP3    H150363   3.421   6.368   3.940 -0.7778  0.5365  1.2952
 9624TIP3    H250364   3.455   6.440   3.812 -0.9143 -1.6066 -0.0082
 9625TIP3   OH250365   1.751   5.527  14.547  0.0370  0.0618 -0.2909
 9625TIP3    H150366   1.711   5.613  14.529  0.1515  0.5215  1.5084
 9625TIP3    H250367   1.771   5.529  14.640  0.7084 -1.6685 -0.3709
 9626TIP3   OH250368   4.214   4.705   5.497  0.3192 -0.4440  0.2281
 9626TIP3    H150369   4.290   4.693   5.554  0.1817  1.1852  0.7990
 9626TIP3    H250370   4.242   4.671   5.412  2.0080  0.8381  0.2180
 9627TIP3   OH250371   4.112   1.358   1.764 -0.4589 -0.0316 -0.1335
 9627TIP3    H150372   4.027   1.389   1.796 -0.7442 -1.2294  0.3137
 9627TIP3    H250373   4.175   1.410   1.813 -0.8922  2.0499 -1.6451
 9628TIP3   OH250374   4.855   1.163  14.023  0.7469 -0.1140 -0.9901
 9628TIP3    H150375   4.829   1.160  14.115  0.2046  1.0278 -1.0847
 9628TIP3    H250376   4.907   1.083  14.010 -0.6153 -1.1866 -0.1473
 9629TIP3   OH250377   3.532   2.642  13.446 -0.2224 -0.3100  0.2489
 9629TIP3    H150378   3.522   2.549  13.426 -1.1368 -0.3755  0.9398
 9629TIP3    H250379   3.494   2.688  13.371  1.2171 -0.4575 -0.6057
 9630TIP3   OH250380   2.434   3.056   2.812  0.3597 -0.0104  0.4793
 9630TIP3    H150381   2.463   3.080   2.724 -0.2545 -0.1391  0.2371
 9630TIP3    H250382   2.364   3.118   2.832  0.0480 -0.3991  0.6099
 9631TIP3   OH250383   0.105   1.346   1.461 -0.2741  0.1312  0.1473
 9631TIP3    H150384   0.095   1.441   1.474  0.1875  0.1663  0.2476
 9631TIP3    H250385   0.187   1.324   1.505  1.7334  0.3402 -3.1350
 9632TIP3   OH250386   6.426   6.051  12.736 -0.0149 -0.4876  0.6338
 9632TIP3    H150387   6.432   6.086  12.825  1.0992 -0.9890  0.7805
 9632TIP3    H250388   6.372   5.972  12.745  0.1077 -0.5461  0.8719
 9633TIP3   OH250389   6.248   1.039  16.912  0.3818  0.3681 -0.2531
 9633TIP3    H150390   6.191   0.966  16.936  0.4278 -0.3574 -2.1772
 9633TIP3    H250391   6.313   1.043  16.983 -0.1534 -0.8639  0.3403
 9634TIP3   OH250392   2.155   4.832   3.867  0.1418 -0.1352  0.4945
 9634TIP3    H150393   2.109   4.869   3.943  0.6810 -0.0198  0.7659
 9634TIP3    H250394   2.248   4.836   3.891  0.5696  2.4465 -1.2364
 9635TIP3   OH250395   0.973   6.380   3.641 -0.2770  0.3427  0.2714
 9635TIP3    H150396   1.003   6.291   3.621 -0.7847  0.2883 -0.2942
 9635TIP3    H250397   1.018   6.403   3.722  0.3129 -0.2058  0.1089
 9636TIP3   OH250398   0.892   6.222  15.931  0.6018  0.5713 -0.0008
 9636TIP3    H150399   0.973   6.196  15.886  0.7649  2.0918 -0.6246
 9636TIP3    H250400   0.920   6.244  16.020  0.3763 -1.8189  0.7295
 9637TIP3   OH250401   3.662   0.944  16.295  0.8255 -0.0127 -0.1625
 9637TIP3    H150402   3.744   0.974  16.255 -0.3215 -0.8532 -3.5110
 9637TIP3    H250403   3.597   1.010  16.271  0.3794  0.4397  2.1064
 9638TIP3   OH250404   0.598   2.228  13.179 -0.5587  0.2477 -0.2193
 9638TIP3    H150405   0.675   2.283  13.167 -1.1342  1.1057 -0.0827
 9638TIP3    H250406   0.633   2.139  13.190  0.2726  0.0663 -3.3196
 9639TIP3   OH250407   3.602   0.618  15.391  0.0637  0.2190 -0.4119
 9639TIP3    H150408   3.615   0.703  15.434  0.5144 -0.0501 -0.0147
 9639TIP3    H250409   3.679   0.567  15.414 -0.0619 -0.2010 -0.8999
 9640TIP3   OH250410   5.399   1.138   6.468  0.1436 -0.4624 -0.1630
 9640TIP3    H150411   5.384   1.082   6.544  1.0121 -0.6180 -0.0963
 9640TIP3    H250412   5.338   1.211   6.480  0.0785 -0.6214  0.5364
 9641TIP3   OH250413   1.970   4.244   0.371 -0.0559 -0.2120  0.3252
 9641TIP3    H150414   2.013   4.194   0.441 -1.0541  0.5047  1.5144
 9641TIP3    H250415   1.883   4.204   0.364  0.2081 -0.5949 -0.8832
 9642TIP3   OH250416   5.269   2.925  15.027 -0.0733 -0.1109 -0.2398
 9642TIP3    H150417   5.216   2.847  15.011  0.2996 -0.3371 -0.4034
 9642TIP3    H250418   5.327   2.931  14.950  0.5711 -0.2288  0.2248
 9643TIP3   OH250419   3.706   0.580   3.154  0.5360  0.4436 -0.2695
 9643TIP3    H150420   3.705   0.491   3.119  0.6868  0.2622  0.1818
 9643TIP3    H250421   3.772   0.626   3.102 -0.3328  0.6171 -1.2706
 9644TIP3   OH250422   3.174   6.428  11.769  0.3139  0.1241  0.4574
 9644TIP3    H150423   3.096   6.395  11.725  0.3706 -0.6328  0.9041
 9644TIP3    H250424   3.245   6.413  11.706  0.2260  0.0637  0.3718
 9645TIP3   OH250425   3.732   6.395   4.547 -0.1233  0.2199  0.3132
 9645TIP3    H150426   3.762   6.309   4.517  2.3516  1.1330 -0.0521
 9645TIP3    H250427   3.644   6.379   4.580  0.4649 -2.5598  0.7795
 9646TIP3   OH250428   3.028   6.104  16.424 -0.3474  0.5362  0.7661
 9646TIP3    H150429   2.971   6.152  16.483 -0.4844  0.1611  0.9394
 9646TIP3    H250430   3.040   6.162  16.349 -0.9129  0.6344  0.7521
 9647TIP3   OH250431   3.116   3.282   1.672  0.2998 -0.1810 -0.8266
 9647TIP3    H150432   3.199   3.300   1.717 -0.1162  0.3896 -0.2675
 9647TIP3    H250433   3.121   3.333   1.591 -0.0490  0.9585 -0.1638
 9648TIP3   OH250434   3.433   0.932   4.133 -0.1996  0.7424  0.7740
 9648TIP3    H150435   3.499   0.862   4.130 -0.2587  0.6411  1.6045
 9648TIP3    H250436   3.438   0.965   4.223 -0.0451  1.9323  0.3395
 9649TIP3   OH250437   6.501   1.993  10.822 -0.2843  0.1092  0.0561
 9649TIP3    H150438   6.498   2.070  10.766  2.2267  1.4954  1.6519
 9649TIP3    H250439   6.549   1.928  10.771 -0.3492  0.4065 -0.3890
 9650TIP3   OH250440   5.652   6.316  13.951  0.2399  0.3153  0.0602
 9650TIP3    H150441   5.580   6.377  13.935 -0.5933 -0.7719 -0.4544
 9650TIP3    H250442   5.619   6.258  14.020  1.8170  1.7019  2.1042
 9651TIP3   OH250443   5.714   4.575  16.724  0.1290  0.1234  0.1676
 9651TIP3    H150444   5.809   4.583  16.715  0.3323 -1.9996  0.0751
 9651TIP3    H250445   5.685   4.663  16.750  2.3496  0.3207  2.2962
 9652TIP3   OH250446   5.209   4.707   0.262 -0.0062  0.4004  0.4513
 9652TIP3    H150447   5.183   4.657   0.185 -1.5084  0.1700  1.0713
 9652TIP3    H250448   5.170   4.794   0.248  0.2546  0.5546  0.6629
 9653TIP3   OH250449   5.199   4.767  10.649  0.8431  0.3938 -0.2262
 9653TIP3    H150450   5.263   4.835  10.672  0.3646  0.6387  0.4106
 9653TIP3    H250451   5.176   4.785  10.558  2.2315 -0.1541 -0.7225
 9654TIP3   OH250452   0.317   3.794  15.358  0.7721 -0.4851 -0.0940
 9654TIP3    H150453   0.227   3.804  15.328  1.7442  1.9261 -2.6342
 9654TIP3    H250454   0.349   3.715  15.315 -0.0948 -1.3982  0.8851
 9655TIP3   OH250455   0.039   2.282  11.354 -0.1121  0.6474  0.1155
 9655TIP3    H150456  -0.044   2.237  11.371  0.0078  0.9071  1.5447
 9655TIP3    H250457   0.100   2.212  11.330 -0.3205  0.2292  0.7713
 9656TIP3   OH250458   2.447   1.965   5.431  0.2733 -0.7235 -0.2674
 9656TIP3    H150459   2.403   1.966   5.346 -0.5069 -0.2063  0.1335
 9656TIP3    H250460   2.427   1.878   5.467 -1.3043 -0.1503  0.3418
 9657TIP3   OH250461   5.338   5.575  13.783  0.1369 -0.2512  0.1490
 9657TIP3    H150462   5.377   5.493  13.813  0.9715  0.1014  0.0402
 9657TIP3    H250463   5.340   5.569  13.688  0.1039 -0.1474  0.1424
 9658TIP3   OH250464   1.341   5.287   3.080  0.5758 -0.0326 -0.0346
 9658TIP3    H150465   1.371   5.324   3.163 -0.7431  1.6489 -0.2507
 9658TIP3    H250466   1.389   5.335   3.013 -0.1494  0.3690 -0.2815
 9659TIP3   OH250467   3.144   2.278  15.881 -0.3082  0.4576 -0.8037
 9659TIP3    H150468   3.225   2.248  15.922 -0.1914 -0.2856 -1.5427
 9659TIP3    H250469   3.171   2.353  15.828 -0.0008 -0.0738 -1.4172
 9660TIP3   OH250470   0.617   6.496   2.996  0.7730 -0.1543 -0.0260
 9660TIP3    H150471   0.655   6.409   3.006 -0.1555 -0.8177 -1.7230
 9660TIP3    H250472   0.524   6.480   2.983  0.5052  1.1419  0.1796
 9661TIP3   OH250473   4.628   2.983  11.531  0.0748  0.3084  0.4432
 9661TIP3    H150474   4.534   2.979  11.512 -0.4431  0.6915  2.6386
 9661TIP3    H250475   4.661   3.050  11.470 -1.0469  0.1403 -0.3922
 9662TIP3   OH250476   3.681   1.221  14.851 -0.0698 -0.2611  0.3081
 9662TIP3    H150477   3.604   1.248  14.901  0.4139 -0.1904  1.0330
 9662TIP3    H250478   3.673   1.268  14.768 -0.3381  0.4570  0.7250
 9663TIP3   OH250479   1.593   2.510   4.798  0.2868  0.3566 -0.0442
 9663TIP3    H150480   1.612   2.601   4.822  2.0641  0.0583 -0.1689
 9663TIP3    H250481   1.499   2.508   4.783  0.4637  2.6788 -2.0118
 9664TIP3   OH250482   6.647   6.099  11.103 -0.2544  0.0649 -0.4177
 9664TIP3    H150483   6.621   6.154  11.029 -0.0680  0.2692 -0.3320
 9664TIP3    H250484   6.730   6.136  11.132  0.7907 -1.3584 -1.4844
 9665TIP3   OH250485   5.955   4.473  13.979  0.1377 -0.3114  0.4179
 9665TIP3    H150486   5.958   4.464  14.074 -0.7684  0.5075  0.5393
 9665TIP3    H250487   6.007   4.551  13.960 -0.8756  0.3760  0.3918
 9666TIP3   OH250488   5.763   2.157   2.510  0.4060  0.2083 -0.1180
 9666TIP3    H150489   5.795   2.151   2.601  1.3247 -1.9996 -0.5209
 9666TIP3    H250490   5.732   2.069   2.490 -1.5773  1.1216 -1.3704
 9667TIP3   OH250491   0.516   3.065   2.068 -0.0241  0.2226  0.1295
 9667TIP3    H150492   0.496   3.141   2.013 -0.1756  0.1015  0.0154
 9667TIP3    H250493   0.524   2.992   2.006  2.0989  0.4912  0.0171
 9668TIP3   OH250494   0.645   1.709   5.330  0.5905  0.4818  0.2408
 9668TIP3    H150495   0.673   1.699   5.239 -2.5296  0.6029 -0.8265
 9668TIP3    H250496   0.690   1.787   5.361  2.0295  0.1963 -1.0245
 9669TIP3   OH250497   4.462   2.506  14.955 -0.6189  0.2677  0.1516
 9669TIP3    H150498   4.410   2.534  15.030 -0.1869  2.9621 -0.4434
 9669TIP3    H250499   4.399   2.463  14.897 -1.4115  0.1875  1.0373
 9670TIP3   OH250500   3.372   1.913   6.296  0.1874  0.0166 -0.2759
 9670TIP3    H150501   3.283   1.883   6.317  0.8676 -1.9364  0.0075
 9670TIP3    H250502   3.419   1.906   6.379  0.4936  1.6180 -0.2839
 9671TIP3   OH250503   1.506   3.034  10.793 -0.4854 -0.5097 -0.2090
 9671TIP3    H150504   1.546   3.059  10.877 -0.5800 -0.9957 -0.0136
 9671TIP3    H250505   1.489   2.940  10.802  1.1737 -0.9842 -1.4623
 9672TIP3   OH250506   2.090   2.169   0.044  0.6431 -0.3920 -0.5173
 9672TIP3    H150507   2.146   2.101   0.079  0.5404 -0.2069  0.0094
 9672TIP3    H250508   2.125   2.251   0.080  0.7853 -0.1571 -1.1667
 9673TIP3   OH250509   2.087   1.945   5.740  0.4444  0.1581 -0.2953
 9673TIP3    H150510   2.128   2.018   5.787  0.7869 -0.4056  0.2859
 9673TIP3    H250511   2.078   1.977   5.650  0.0572  1.1395  0.0722
 9674TIP3   OH250512   0.144   0.845  13.319  0.1710  0.5263  0.4147
 9674TIP3    H150513   0.207   0.891  13.373  1.6991  1.6268 -2.1389
 9674TIP3    H250514   0.072   0.908  13.307  0.5883  0.9025 -0.1426
 9675TIP3   OH250515   2.279   4.980   1.625  0.0362 -0.0683 -0.3572
 9675TIP3    H150516   2.338   5.056   1.625  0.7524 -0.5730 -1.8119
 9675TIP3    H250517   2.193   5.017   1.644  0.5864  0.8990  0.3497
 9676TIP3   OH250518   4.310   2.930   4.433 -0.7101  0.4244 -0.0994
 9676TIP3    H150519   4.224   2.967   4.414 -0.0997  1.7901 -0.2984
 9676TIP3    H250520   4.366   2.963   4.363 -0.4217 -2.0615 -1.1283
 9677TIP3   OH250521   6.580   1.463  11.119  0.3634 -0.5800  0.2322
 9677TIP3    H150522   6.558   1.556  11.119 -2.9350 -1.2018  1.7762
 9677TIP3    H250523   6.517   1.423  11.059  0.2010 -2.0596  1.3269
 9678TIP3   OH250524   6.786   5.539  10.277 -0.0400  0.1271  0.1902
 9678TIP3    H150525   6.739   5.509  10.200 -0.9783 -0.3161  0.9052
 9678TIP3    H250526   6.878   5.529  10.255 -0.2840  0.6299 -1.0961
 9679TIP3   OH250527   1.077   2.704  14.373 -0.5691  0.0303  0.5427
 9679TIP3    H150528   1.104   2.629  14.425  0.8333 -1.2471 -1.8986
 9679TIP3    H250529   1.134   2.775  14.402  1.3787 -1.0993 -0.3584
 9680TIP3   OH250530   3.895   5.957  15.270 -0.0741 -0.5486  0.0766
 9680TIP3    H150531   3.911   5.952  15.176  1.2173  0.6401  0.1948
 9680TIP3    H250532   3.942   5.883  15.307  1.4061  0.3038 -0.0246
 9681TIP3   OH250533   1.466   3.276   3.894  0.2931 -0.1255 -0.4745
 9681TIP3    H150534   1.448   3.182   3.899  0.3234 -0.1487 -0.7931
 9681TIP3    H250535   1.509   3.288   3.810 -1.0279  0.3896 -1.1078
 9682TIP3   OH250536   4.648   0.825  15.403 -0.3002 -0.0385  0.1400
 9682TIP3    H150537   4.736   0.788  15.399 -0.8409 -1.4168  0.5240
 9682TIP3    H250538   4.658   0.906  15.453  0.6263 -0.5836  0.8720
 9683TIP3   OH250539   5.433   2.922  14.813 -0.2698 -0.1673  0.1176
 9683TIP3    H150540   5.512   2.946  14.861 -0.4260  3.6713 -1.1724
 9683TIP3    H250541   5.465   2.882  14.732  0.3245  0.4760  0.0288
 9684TIP3   OH250542   1.813   6.012  13.767 -0.3403  0.3024  0.4472
 9684TIP3    H150543   1.786   6.038  13.680  0.0754 -0.5327  0.0587
 9684TIP3    H250544   1.908   6.027  13.769 -0.3449  0.3152  0.7546
 9685TIP3   OH250545   0.603   6.536   2.684 -0.2808 -0.1347 -0.1029
 9685TIP3    H150546   0.553   6.524   2.603 -0.1529 -1.3552 -0.0190
 9685TIP3    H250547   0.553   6.600   2.734 -0.8661 -0.0787 -0.7372
 9686TIP3   OH250548   3.241   4.215  11.441  0.2793 -0.5578 -0.2053
 9686TIP3    H150549   3.249   4.147  11.375 -1.9120 -0.5813 -0.4999
 9686TIP3    H250550   3.166   4.267  11.414  0.5335  0.6241  1.2263
 9687TIP3   OH250551   0.436   5.782   3.700  0.2142 -0.4178  0.3669
 9687TIP3    H150552   0.385   5.720   3.647 -0.0423 -0.1936  0.3481
 9687TIP3    H250553   0.406   5.766   3.790  0.0135 -0.1947  0.3404
 9688TIP3   OH250554   5.208   4.859  14.405 -0.5242 -0.1203  0.1441
 9688TIP3    H150555   5.287   4.911  14.387 -0.9708 -0.1955 -2.4199
 9688TIP3    H250556   5.200   4.802  14.329 -1.4722 -2.1871  1.7174
 9689TIP3   OH250557   3.940   3.837   5.119  0.2444  0.2631  0.6896
 9689TIP3    H150558   3.866   3.848   5.059  1.3190 -0.2439 -0.8008
 9689TIP3    H250559   4.008   3.894   5.083  0.5911  0.7169  2.0302
 9690TIP3   OH250560   5.078   0.298   6.256  0.1538  0.3141  0.6671
 9690TIP3    H150561   5.042   0.387   6.254 -0.2118  0.1458 -0.9033
 9690TIP3    H250562   5.007   0.244   6.291 -0.6538  0.2209 -1.0213
 9691TIP3   OH250563   2.194   1.873  15.078 -0.4064  0.2072  0.3514
 9691TIP3    H150564   2.107   1.834  15.088  0.1532 -0.6781  1.9864
 9691TIP3    H250565   2.198   1.942  15.144 -0.0156  0.5578 -0.0266
 9692TIP3   OH250566   4.504   0.719   5.435  0.4439  0.2701 -0.3668
 9692TIP3    H150567   4.503   0.624   5.427 -0.0273  0.4371 -3.3549
 9692TIP3    H250568   4.574   0.737   5.498  1.8129 -1.9861 -1.1272
 9693TIP3   OH250569   6.619   1.011  13.845  0.4352  0.6248  0.0936
 9693TIP3    H150570   6.711   1.038  13.840  0.5230  0.1675 -1.1991
 9693TIP3    H250571   6.592   0.999  13.754 -0.2572 -1.3820  0.4960
 9694TIP3   OH250572   2.571   1.270   3.625  0.4020  0.2343 -0.6709
 9694TIP3    H150573   2.624   1.305   3.553  0.2379 -1.5714 -1.7252
 9694TIP3    H250574   2.633   1.221   3.679  0.5958  1.8646  0.7006
 9695TIP3   OH250575   5.084   4.156   3.844  1.3692 -0.4994  0.3803
 9695TIP3    H150576   5.163   4.210   3.836  0.0168  1.3323 -1.7217
 9695TIP3    H250577   5.037   4.194   3.919 -0.4764  2.7515 -2.1739
 9696TIP3   OH250578   0.592   6.446  11.764  0.2393 -0.0902 -0.6350
 9696TIP3    H150579   0.498   6.448  11.743  0.1128 -1.0536 -0.2083
 9696TIP3    H250580   0.635   6.424  11.682  0.3355  2.7724 -1.4534
 9697TIP3   OH250581   5.497   4.717  13.014 -0.6195 -0.1380  0.0157
 9697TIP3    H150582   5.450   4.658  13.072 -0.5257  1.0642  1.3588
 9697TIP3    H250583   5.435   4.734  12.942 -0.4331 -2.2631 -0.6979
 9698TIP3   OH250584   3.681   5.266  14.779 -0.3716  0.1367  0.3865
 9698TIP3    H150585   3.697   5.222  14.863  2.5340 -0.8960 -0.5994
 9698TIP3    H250586   3.645   5.198  14.723  0.6713 -0.0435 -0.0828
 9699TIP3   OH250587   3.574   0.846  16.756  0.3749  0.8360 -0.3042
 9699TIP3    H150588   3.534   0.933  16.755  2.0221  1.6266 -0.5458
 9699TIP3    H250589   3.589   0.825  16.664 -1.0674 -0.2338 -0.3159
 9700TIP3   OH250590   0.685   0.022  16.862 -0.0599 -0.5724 -0.4881
 9700TIP3    H150591   0.657  -0.055  16.911  0.8073 -0.2207  0.6147
 9700TIP3    H250592   0.627   0.025  16.786 -1.5760 -1.0450  0.5992
 9701TIP3   OH250593   3.925   0.425  16.934 -0.1516 -0.1004 -0.3160
 9701TIP3    H150594   3.941   0.517  16.913 -1.1481  0.1609  0.0612
 9701TIP3    H250595   3.952   0.416  17.025  0.8698 -0.4294 -0.6296
 9702TIP3   OH250596   2.136   3.392   4.402 -0.2395 -0.3851  0.0939
 9702TIP3    H150597   2.062   3.333   4.412  1.2471 -1.9989  2.6277
 9702TIP3    H250598   2.204   3.356   4.459  2.5122  1.0392 -2.0328
 9703TIP3   OH250599   0.003   2.475  10.666 -0.3779 -0.2190  0.0375
 9703TIP3    H150600  -0.053   2.537  10.620 -0.0514 -0.0291 -0.1122
 9703TIP3    H250601   0.087   2.522  10.676  0.0411 -0.8290 -0.5468
 9704TIP3   OH250602   0.305   0.378   2.977 -0.2529 -0.0610  0.8021
 9704TIP3    H150603   0.256   0.309   2.932  0.5011 -0.1751  0.1297
 9704TIP3    H250604   0.251   0.400   3.053 -0.0994 -2.0233  1.5387
 9705TIP3   OH250605   6.191   6.686   4.511  0.3477  0.1128 -0.3688
 9705TIP3    H150606   6.213   6.616   4.450 -0.3660  1.4608 -2.2840
 9705TIP3    H250607   6.265   6.746   4.506 -0.2619  0.8474 -0.9197
 9706TIP3   OH250608   2.598   4.601  10.841  0.0699  0.9348 -0.2346
 9706TIP3    H150609   2.670   4.539  10.845 -0.5826  0.1302 -0.5375
 9706TIP3    H250610   2.610   4.646  10.758 -1.3521 -1.2449 -1.7323
 9707TIP3   OH250611   3.423   0.087   5.563  0.0831  0.2092  0.7549
 9707TIP3    H150612   3.393   0.012   5.615 -0.1067 -0.5794 -0.4515
 9707TIP3    H250613   3.419   0.161   5.624 -0.3995 -0.6246  1.7796
 9708TIP3   OH250614   1.891   3.162  13.790  0.7980  0.1993  0.2079
 9708TIP3    H150615   1.850   3.245  13.768  2.3485  0.2116 -3.4483
 9708TIP3    H250616   1.960   3.184  13.852 -0.1070  1.2863  0.8530
 9709TIP3   OH250617   2.067   3.185  12.140 -0.2674  0.2857  0.7351
 9709TIP3    H150618   2.161   3.182  12.159 -0.3549 -0.2404  1.1028
 9709TIP3    H250619   2.051   3.107  12.086 -0.5038  0.3408  0.7235
 9710TIP3   OH250620   2.856   1.208  15.433  0.4508 -0.6040  0.2351
 9710TIP3    H150621   2.839   1.299  15.408 -1.1465 -0.6850  0.9330
 9710TIP3    H250622   2.938   1.212  15.482 -0.4048  0.7396  1.6475
 9711TIP3   OH250623   6.193   1.904   3.315  0.4188 -0.3570 -0.4580
 9711TIP3    H150624   6.252   1.948   3.376  0.5856 -0.2918 -0.6646
 9711TIP3    H250625   6.132   1.856   3.371  0.4776 -0.1761 -0.2388
 9712TIP3   OH250626   4.871   5.444  16.979  0.0898 -0.3826  0.4885
 9712TIP3    H150627   4.824   5.490  17.049 -0.0668 -0.1558  0.2386
 9712TIP3    H250628   4.883   5.511  16.912  0.2576 -0.5969  0.3074
 9713TIP3   OH250629   4.150   0.794  13.316 -0.7117 -0.7648 -0.1816
 9713TIP3    H150630   4.206   0.741  13.261  0.5071  1.4947 -1.2526
 9713TIP3    H250631   4.063   0.755  13.307 -0.1977 -1.5395 -2.2860
 9714TIP3   OH250632   0.595   4.557  13.273  0.1509 -0.2522  0.3661
 9714TIP3    H150633   0.599   4.646  13.237  0.8050 -0.6780 -0.6736
 9714TIP3    H250634   0.685   4.538  13.299 -0.0543 -0.4808  0.9158
 9715TIP3   OH250635   1.688   4.393   0.067 -0.0219 -0.0770 -0.4482
 9715TIP3    H150636   1.657   4.483   0.051 -0.9671 -0.0719  1.1578
 9715TIP3    H250637   1.724   4.365  -0.017 -0.8907  1.3463 -1.3440
 9716TIP3   OH250638   5.237   3.073   3.295  0.4329  0.7423 -0.1439
 9716TIP3    H150639   5.185   3.086   3.216 -0.1829 -2.0735 -0.3089
 9716TIP3    H250640   5.185   3.012   3.348  3.2997 -2.0161 -0.1828
 9717TIP3   OH250641   0.189   1.783   0.409  0.6863  0.3408 -0.8396
 9717TIP3    H150642   0.221   1.807   0.496  0.7646  0.9188 -1.0220
 9717TIP3    H250643   0.256   1.723   0.375 -0.2569 -1.4009  0.2193
 9718TIP3   OH250644   2.968   0.664   7.005 -0.6290 -0.6269  0.3944
 9718TIP3    H150645   2.887   0.615   7.020 -0.4340 -0.9653  0.3627
 9718TIP3    H250646   3.015   0.613   6.939 -0.6862 -0.0788 -0.0715
 9719TIP3   OH250647   4.125   4.041  13.848 -0.8517  0.2898  0.3008
 9719TIP3    H150648   4.098   3.959  13.889  0.7068 -0.0638  0.6774
 9719TIP3    H250649   4.216   4.052  13.874 -0.7474  1.6520 -0.5490
 9720TIP3   OH250650   2.275   0.075   5.522 -0.1753  0.3864  0.2039
 9720TIP3    H150651   2.209   0.006   5.525  0.9186 -0.9909 -3.0651
 9720TIP3    H250652   2.327   0.061   5.601 -0.5430 -2.0098  0.1098
 9721TIP3   OH250653   4.424   5.141   1.399  0.6038 -0.2128 -0.0289
 9721TIP3    H150654   4.500   5.175   1.353  1.2126 -0.3228  0.8783
 9721TIP3    H250655   4.418   5.050   1.370 -1.7314  0.8212 -3.3838
 9722TIP3   OH250656   5.912   4.985  11.106  0.0428 -0.2300 -0.3349
 9722TIP3    H150657   5.914   4.894  11.075  0.5541 -0.5545  0.6053
 9722TIP3    H250658   5.844   4.986  11.173 -0.3233  0.2115 -0.7090
 9723TIP3   OH250659   0.790   1.475  12.243 -0.5709  0.0137 -0.2089
 9723TIP3    H150660   0.827   1.423  12.171 -0.4141  0.2943 -0.3313
 9723TIP3    H250661   0.695   1.466  12.232 -0.5442 -0.5215 -0.0281
 9724TIP3   OH250662   1.129   3.423  15.741  0.3998  0.1732 -0.6292
 9724TIP3    H150663   1.053   3.472  15.772  0.5722  0.4995 -0.7063
 9724TIP3    H250664   1.097   3.335  15.723  0.1989  0.1006  0.0436
 9725TIP3   OH250665   0.649   0.792   5.907 -0.2716 -0.4386  0.1723
 9725TIP3    H150666   0.611   0.850   5.842  0.2023  0.3043  0.5558
 9725TIP3    H250667   0.625   0.831   5.991 -0.1660 -0.9370  0.4404
 9726TIP3   OH250668   5.818   5.857  15.898  0.3203 -0.0418 -0.1218
 9726TIP3    H150669   5.789   5.922  15.962  0.7771  0.5572 -0.5145
 9726TIP3    H250670   5.751   5.859  15.830  0.3296  0.0111 -0.1295
 9727TIP3   OH250671   4.285   4.326  15.809  0.3593  0.6245  0.2787
 9727TIP3    H150672   4.376   4.328  15.780  0.3659 -0.6713  0.1322
 9727TIP3    H250673   4.251   4.243  15.776 -0.3943  0.2968  1.7589
 9728TIP3   OH250674   1.286   5.489   4.895 -0.4577  0.2203  0.1900
 9728TIP3    H150675   1.326   5.504   4.809  1.6441  0.7653  1.2147
 9728TIP3    H250676   1.210   5.547   4.896 -0.8510 -0.1883 -1.4753
 9729TIP3   OH250677   1.685   3.208   5.080  0.3878  0.3651  0.1398
 9729TIP3    H150678   1.734   3.261   5.017  0.2965  0.4730  0.1580
 9729TIP3    H250679   1.614   3.266   5.109 -0.2055 -0.0391 -0.4580
 9730TIP3   OH250680   3.880   2.542  15.334  0.0493 -0.4621 -0.3753
 9730TIP3    H150681   3.889   2.473  15.400 -0.1593 -1.9403 -1.8066
 9730TIP3    H250682   3.866   2.622  15.384  0.6868 -1.3894  1.3745
 9731TIP3   OH250683   3.465   1.976  15.672 -0.0425 -0.0291 -0.9444
 9731TIP3    H150684   3.447   2.065  15.642  1.6818  0.8820  0.5359
 9731TIP3    H250685   3.397   1.959  15.738 -1.0072 -0.2557 -1.9614
 9732TIP3   OH250686   6.564   0.180  17.140  0.0105 -0.7906 -0.3233
 9732TIP3    H150687   6.600   0.268  17.129  1.0084 -1.0613  0.6018
 9732TIP3    H250688   6.592   0.154  17.228 -1.9344 -1.2674  0.1991
 9733TIP3   OH250689   0.135   3.060   5.922  0.6266  0.3349  0.6781
 9733TIP3    H150690   0.214   3.059   5.975  0.7324 -0.8641  0.5083
 9733TIP3    H250691   0.148   2.991   5.857 -0.3535  0.4500  0.3444
 9734TIP3   OH250692   4.255   3.568  16.434 -0.1602  0.5009  0.2557
 9734TIP3    H150693   4.171   3.599  16.400 -0.0565  0.1081 -0.3866
 9734TIP3    H250694   4.321   3.620  16.386 -0.0315  0.5548  0.4907
 9735TIP3   OH250695   4.447   0.812   0.734  0.8735 -0.6590 -0.0236
 9735TIP3    H150696   4.366   0.817   0.684  0.8252 -0.1616  0.1012
 9735TIP3    H250697   4.495   0.739   0.694  1.1449  0.1595 -1.2394
 9736TIP3   OH250698   4.894   2.666   3.432  0.4328  0.6750  0.1349
 9736TIP3    H150699   4.942   2.618   3.499  2.1865 -1.1941 -2.2631
 9736TIP3    H250700   4.952   2.664   3.356 -1.8692  1.7538 -1.7691
 9737TIP3   OH250701   2.500   4.754   1.875 -0.3486 -0.4069 -0.3289
 9737TIP3    H150702   2.508   4.805   1.955 -0.9737  0.4385 -0.7843
 9737TIP3    H250703   2.529   4.666   1.899 -0.4711 -0.1521  0.8013
 9738TIP3   OH250704   2.945   6.433   5.020  0.3733 -0.0174 -1.1653
 9738TIP3    H150705   2.892   6.406   5.095  1.6857 -1.1581 -0.6016
 9738TIP3    H250706   3.014   6.488   5.057 -0.1164  1.0751 -1.8258
 9739TIP3   OH250707   3.790   4.838   5.930  0.3588  0.2136  0.3962
 9739TIP3    H150708   3.723   4.821   5.997 -0.8355  0.1999 -0.7727
 9739TIP3    H250709   3.869   4.799   5.966  0.2091  1.7669  2.6371
 9740TIP3   OH250710   1.499   4.117   6.012 -0.8876  0.2976  0.0429
 9740TIP3    H150711   1.512   4.145   5.921 -0.7139 -1.7483 -0.6229
 9740TIP3    H250712   1.578   4.145   6.058  0.0579 -0.5955 -0.9748
 9741TIP3   OH250713   1.427   3.814  13.579  0.2825 -0.1295 -0.2614
 9741TIP3    H150714   1.478   3.847  13.505 -1.1262  0.7760 -0.8779
 9741TIP3    H250715   1.492   3.784  13.642  1.5637  1.0888 -0.9567
 9742TIP3   OH250716   6.146   6.813  15.359  0.1041  0.0748  0.2540
 9742TIP3    H150717   6.093   6.830  15.281 -1.0872  0.6457  1.1685
 9742TIP3    H250718   6.162   6.719  15.357  2.0122  0.3337 -1.8553
 9743TIP3   OH250719   1.421   5.528  12.285  0.1629 -0.1849 -0.1581
 9743TIP3    H150720   1.369   5.608  12.274 -2.4421 -1.9410 -1.8660
 9743TIP3    H250721   1.375   5.479  12.354  1.1667 -0.6445  0.1999
 9744TIP3   OH250722   5.712   5.851   5.162  0.1159 -0.1821  0.3096
 9744TIP3    H150723   5.802   5.817   5.157 -0.1986 -1.0594  0.3488
 9744TIP3    H250724   5.709   5.897   5.246  0.5286 -0.1416  0.3060
 9745TIP3   OH250725   5.688   1.724   1.247 -0.7484 -0.0026 -0.3171
 9745TIP3    H150726   5.670   1.804   1.197  0.3640 -1.0064 -2.4185
 9745TIP3    H250727   5.659   1.653   1.190  0.9757 -1.2195  0.2568
 9746TIP3   OH250728   0.173   0.797  11.410 -0.0916  0.1463 -0.1699
 9746TIP3    H150729   0.227   0.721  11.391  1.1160  0.8426  0.3248
 9746TIP3    H250730   0.141   0.826  11.324  0.2516 -0.3425 -0.4653
 9747TIP3   OH250731   2.307   0.091  15.012 -0.7101  0.3258 -0.6306
 9747TIP3    H150732   2.300   0.185  15.030  1.9296  0.3062  0.9435
 9747TIP3    H250733   2.284   0.049  15.095  1.5668 -0.2138 -0.2075
 9748TIP3   OH250734   0.551   1.800   5.590 -0.2355  0.5520  0.0514
 9748TIP3    H150735   0.471   1.853   5.593  0.0450  1.2836 -2.3926
 9748TIP3    H250736   0.555   1.769   5.499  1.8382 -0.1337  0.3241
 9749TIP3   OH250737   0.069   0.537  11.924 -0.0148  0.2116 -0.0631
 9749TIP3    H150738   0.056   0.619  11.877 -2.1101  0.4439  0.7839
 9749TIP3    H250739  -0.016   0.493  11.918 -0.1904 -0.0525  2.8302
 9750TIP3   OH250740   1.802   4.174   1.331 -0.2469  0.1744 -0.1039
 9750TIP3    H150741   1.885   4.218   1.349  0.4877 -0.7185 -1.1703
 9750TIP3    H250742   1.811   4.088   1.371 -0.5681 -0.0128 -0.4316
 9751TIP3   OH250743   6.186   2.958   3.902  0.1641  0.1576 -0.2139
 9751TIP3    H150744   6.113   2.955   3.963  1.8877 -0.9247  1.8974
 9751TIP3    H250745   6.195   3.051   3.881 -1.1849  0.4132  0.2403
 9752TIP3   OH250746   5.325   0.591  11.099 -0.0477 -0.1655 -0.0701
 9752TIP3    H150747   5.315   0.658  11.032 -0.7489 -1.2303 -1.0722
 9752TIP3    H250748   5.387   0.628  11.161  0.1735  1.0861 -1.0012
 9753TIP3   OH250749   3.871   1.970   1.918  0.0018  0.5090 -0.4952
 9753TIP3    H150750   3.813   2.034   1.960 -2.6008 -2.0651  0.1665
 9753TIP3    H250751   3.959   1.993   1.949 -0.9322  3.0338  0.5673
 9754TIP3   OH250752   5.730   6.704  17.188 -0.0313  0.0078  0.2778
 9754TIP3    H150753   5.775   6.626  17.220  2.3889  1.9961  2.1331
 9754TIP3    H250754   5.752   6.708  17.095  0.8105 -0.8707  0.4197
 9755TIP3   OH250755   2.271   1.066  11.724 -0.3423 -0.2108  0.7738
 9755TIP3    H150756   2.244   0.999  11.660  0.1226  0.7440 -0.4776
 9755TIP3    H250757   2.193   1.082  11.776 -0.7775 -0.9478  0.3742
 9756TIP3   OH250758   1.339   6.234  16.902 -0.1531  0.3214 -0.5432
 9756TIP3    H150759   1.411   6.182  16.938  0.2689  1.1937 -0.0873
 9756TIP3    H250760   1.383   6.294  16.840 -0.5015  0.7603 -0.3696
 9757TIP3   OH250761   1.596   2.480  13.481  0.6508 -0.1007  0.6335
 9757TIP3    H150762   1.537   2.516  13.547  1.2934  1.5217  0.3616
 9757TIP3    H250763   1.631   2.400  13.521 -1.8464 -1.2595  0.7114
 9758TIP3   OH250764   1.957   4.908   3.438  0.1705  0.2415 -0.1896
 9758TIP3    H150765   1.895   4.844   3.472  1.1260 -0.7979 -0.3725
 9758TIP3    H250766   2.001   4.943   3.516  0.3167 -0.0211 -0.1536
 9759TIP3   OH250767   5.402   4.447   1.416  0.2227  0.3641 -0.0379
 9759TIP3    H150768   5.315   4.452   1.376  0.6585 -0.7262 -1.2102
 9759TIP3    H250769   5.411   4.355   1.441  0.9912  0.4874  0.1538
 9760TIP3   OH250770   1.581   6.293  12.505 -0.2084 -0.1450  0.9829
 9760TIP3    H150771   1.501   6.310  12.455  0.1480 -1.3584 -0.0719
 9760TIP3    H250772   1.646   6.273  12.438  1.0195  0.8797  1.8179
 9761TIP3   OH250773   4.330   5.135  11.326 -0.0347 -0.0963  0.0138
 9761TIP3    H150774   4.352   5.160  11.237 -0.9670  0.2615 -0.1279
 9761TIP3    H250775   4.403   5.079  11.354  0.8649  0.7587 -0.5344
 9762TIP3   OH250776   3.244   2.150   1.908  0.2004 -0.3371  0.2336
 9762TIP3    H150777   3.172   2.094   1.878 -0.9745  0.9349  0.5815
 9762TIP3    H250778   3.279   2.105   1.984  0.3247 -1.3822 -0.4208
 9763TIP3   OH250779   1.444   2.493  15.112 -0.1860 -0.0277  0.2434
 9763TIP3    H150780   1.512   2.523  15.173  0.5157  0.0468 -0.5664
 9763TIP3    H250781   1.457   2.546  15.034 -0.2043 -1.0677 -0.4748
 9764TIP3   OH250782   5.749   5.618   1.392  0.5399  0.1899  0.0744
 9764TIP3    H150783   5.806   5.691   1.417 -0.7777  1.2314  0.1394
 9764TIP3    H250784   5.720   5.639   1.304 -0.3366  0.0639  0.3222
 9765TIP3   OH250785   2.045   5.220   0.506 -0.3873 -0.5189  0.3059
 9765TIP3    H150786   2.064   5.159   0.435  0.9859  0.2944 -0.0639
 9765TIP3    H250787   1.979   5.279   0.470 -0.6072 -0.8680  0.1386
 9766TIP3   OH250788   1.387   2.479   3.142 -0.1075 -0.3258  0.3794
 9766TIP3    H150789   1.391   2.563   3.187 -0.0209 -0.0318 -0.1653
 9766TIP3    H250790   1.313   2.488   3.082 -0.5881 -0.9189  0.8671
 9767TIP3   OH250791   0.270   3.755   4.035  0.4404  0.6017 -0.2661
 9767TIP3    H150792   0.232   3.671   4.063  0.9708  0.6916  0.7369
 9767TIP3    H250793   0.363   3.736   4.024  0.7422  1.3130  0.9810
 9768TIP3   OH250794   5.127   1.515   3.602  0.0124 -0.8621  0.0284
 9768TIP3    H150795   5.210   1.481   3.569  1.1627  0.2204  1.6954
 9768TIP3    H250796   5.100   1.452   3.668 -0.0894 -0.7916  0.0539
 9769TIP3   OH250797   4.594   6.182   0.409 -0.0763 -0.1762 -0.3561
 9769TIP3    H150798   4.686   6.160   0.391  0.4160  1.2964  0.1308
 9769TIP3    H250799   4.592   6.196   0.504 -0.7499  0.0135 -0.3989
 9770TIP3   OH250800   3.219   0.484   6.064 -0.3944 -0.8492 -0.1203
 9770TIP3    H150801   3.298   0.432   6.072  1.0564  1.2309 -0.0701
 9770TIP3    H250802   3.184   0.463   5.978  0.4536 -1.4940 -0.3127
 9771TIP3   OH250803   4.643   6.662   0.701  0.1915  0.5941  0.1748
 9771TIP3    H150804   4.672   6.689   0.788  0.2923  0.7322  0.0977
 9771TIP3    H250805   4.721   6.624   0.661 -0.3478 -1.5154  0.9460
 9772TIP3   OH250806   6.130   6.146  14.763  0.5932 -0.1095  1.0099
 9772TIP3    H150807   6.082   6.171  14.842 -0.7470  2.9590 -0.5988
 9772TIP3    H250808   6.070   6.088  14.715  0.1262  0.4627  0.8868
 9773TIP3   OH250809   4.049   2.471   0.638 -0.3135 -0.1424 -0.0703
 9773TIP3    H150810   4.062   2.451   0.730  0.9603 -0.5046 -0.3052
 9773TIP3    H250811   4.065   2.565   0.630 -0.4437 -0.1081  0.0751
 9774TIP3   OH250812   0.346   6.649  12.908  0.1898  0.2788 -0.2319
 9774TIP3    H150813   0.316   6.737  12.931  2.2544  1.1473 -0.6494
 9774TIP3    H250814   0.352   6.651  12.812 -2.5148 -1.3274 -0.5366
 9775TIP3   OH250815   2.080   2.602  15.338  0.4350  0.4904  0.0960
 9775TIP3    H150816   2.029   2.671  15.380 -3.4953 -1.3682 -1.0891
 9775TIP3    H250817   2.086   2.533  15.404 -2.1604 -0.7973 -0.8679
 9776TIP3   OH250818   6.399   3.807  16.870 -0.3522 -0.0711 -0.1180
 9776TIP3    H150819   6.373   3.753  16.795  0.3852  0.0810 -0.4942
 9776TIP3    H250820   6.324   3.865  16.884 -0.8359 -0.6585 -0.2053
 9777TIP3   OH250821   3.311   5.975  11.811  0.0308  0.0493 -0.4938
 9777TIP3    H150822   3.264   5.914  11.755  1.4501 -1.1491 -0.4494
 9777TIP3    H250823   3.269   5.968  11.896 -1.9413  1.6504 -1.2695
 9778TIP3   OH250824   0.034   6.783   0.827  0.0507 -0.4329  0.2126
 9778TIP3    H150825   0.022   6.836   0.905 -2.0351 -0.1374 -0.2498
 9778TIP3    H250826   0.074   6.842   0.763 -1.3579  0.3527  0.0150
 9779TIP3   OH250827   2.345   2.894  17.112  0.7469  0.3959  0.4479
 9779TIP3    H150828   2.434   2.908  17.080  0.9200  0.8355  1.1006
 9779TIP3    H250829   2.289   2.929  17.043  1.1238  1.9718  0.8850
 9780TIP3   OH250830   1.566   0.558   4.589 -0.2919  0.2016 -0.1786
 9780TIP3    H150831   1.602   0.613   4.659 -1.4995  1.6572 -0.6638
 9780TIP3    H250832   1.643   0.528   4.540  0.5134 -0.2183  1.2836
 9781TIP3   OH250833   1.517   2.526  14.227 -0.5588  0.0200 -0.4434
 9781TIP3    H150834   1.507   2.539  14.321 -1.4158 -0.9463 -0.3825
 9781TIP3    H250835   1.560   2.606  14.196  0.5448 -0.0158  0.8895
 9782TIP3   OH250836   6.555   5.201  11.379 -0.0157  0.1996 -0.8449
 9782TIP3    H150837   6.467   5.179  11.349 -0.6459  2.0683 -0.5282
 9782TIP3    H250838   6.554   5.184  11.473  0.0651 -0.1085 -0.9007
 9783TIP3   OH250839   2.431   1.921  11.380 -0.1864 -0.3665  0.5108
 9783TIP3    H150840   2.340   1.953  11.384 -0.2592 -0.6564  1.6933
 9783TIP3    H250841   2.437   1.876  11.296 -0.4805  1.5157 -0.5828
 9784TIP3   OH250842   4.253   0.012  13.278  0.0871  0.2175  0.1063
 9784TIP3    H150843   4.269   0.027  13.371  1.3028 -0.6695  0.0681
 9784TIP3    H250844   4.335  -0.025  13.245 -0.1119  1.0793 -1.4594
 9785TIP3   OH250845   5.110   1.641   4.202  0.5911 -0.6015 -0.2939
 9785TIP3    H150846   5.114   1.735   4.219  0.4311 -0.2483 -2.0426
 9785TIP3    H250847   5.017   1.619   4.212  0.3508 -0.2128 -1.5631
 9786TIP3   OH250848   2.803   1.925  13.217 -0.1986  0.1330 -0.0952
 9786TIP3    H150849   2.870   1.993  13.209  0.2982 -0.1870  1.0848
 9786TIP3    H250850   2.796   1.909  13.312 -0.8723 -0.9037 -0.3009
 9787TIP3   OH250851   2.471   0.716   4.965  0.0624  0.3240 -0.4037
 9787TIP3    H150852   2.393   0.771   4.958  0.6290  1.2578  0.4991
 9787TIP3    H250853   2.473   0.688   5.056  1.1713  0.8892 -0.2476
 9788TIP3   OH250854   2.365   3.566  16.400  0.1469  0.2643  0.0080
 9788TIP3    H150855   2.386   3.477  16.374 -2.7589 -0.1964 -1.1592
 9788TIP3    H250856   2.303   3.556  16.473  0.9938  1.3865  0.9164
 9789TIP3   OH250857   4.253   3.789  12.359 -0.0757  0.1584  0.3582
 9789TIP3    H150858   4.237   3.727  12.289 -0.5884 -0.2078  0.7962
 9789TIP3    H250859   4.186   3.856  12.348  0.7320  0.8698 -0.3662
 9790TIP3   OH250860   0.555   0.076  15.481 -0.2335  0.0572  0.0085
 9790TIP3    H150861   0.636   0.098  15.434  0.0862  2.0614  1.3543
 9790TIP3    H250862   0.561  -0.018  15.496  1.5719  0.0529 -0.4585
 9791TIP3   OH250863   5.648   3.503  11.285 -0.4792  0.1607 -0.1471
 9791TIP3    H150864   5.557   3.532  11.278 -0.9712 -1.5104 -1.2344
 9791TIP3    H250865   5.699   3.583  11.273 -1.7803  1.1372  0.5068
 9792TIP3   OH250866   5.777   4.268  15.145 -0.3117 -0.1713 -0.4340
 9792TIP3    H150867   5.707   4.237  15.088  0.4064  0.0334 -1.4639
 9792TIP3    H250868   5.827   4.329  15.091 -0.1864  0.8024  0.7471
 9793TIP3   OH250869   5.465   4.507  13.971  0.1321 -0.2122  0.4961
 9793TIP3    H150870   5.485   4.507  14.064  2.5713  0.8650  0.0611
 9793TIP3    H250871   5.472   4.415  13.945 -0.6223 -0.5261  1.3524
 9794TIP3   OH250872   1.592   4.137   3.664  0.0676 -0.2440  0.4224
 9794TIP3    H150873   1.644   4.217   3.655 -0.2989  0.1103  1.3274
 9794TIP3    H250874   1.503   4.163   3.644 -0.2786 -0.0872  1.9965
 9795TIP3   OH250875   3.644   4.474   4.171  0.0136 -0.0288  0.0496
 9795TIP3    H150876   3.615   4.509   4.087  0.1856  2.9153  1.1298
 9795TIP3    H250877   3.718   4.528   4.197  1.6594 -2.5068  0.9702
 9796TIP3   OH250878   6.025   6.020   1.117 -0.1818  0.0972  0.1235
 9796TIP3    H150879   5.963   6.086   1.147  0.3430  0.4114  0.5268
 9796TIP3    H250880   6.086   6.009   1.189 -0.2667 -0.8511  0.0731
 9797TIP3   OH250881   2.891   3.420   0.510  0.5855  0.4296  0.4336
 9797TIP3    H150882   2.841   3.479   0.454 -0.3843 -0.3162  0.5017
 9797TIP3    H250883   2.825   3.373   0.561  1.3614 -0.4058  0.6944
 9798TIP3   OH250884   5.994   1.087  10.699 -0.3794  0.2917  0.2589
 9798TIP3    H150885   6.012   1.152  10.631 -1.4432 -0.1967 -0.5279
 9798TIP3    H250886   6.077   1.077  10.745  0.7915 -0.3728 -1.8531
 9799TIP3   OH250887   4.138   4.722  16.422 -0.5835  0.4216 -0.6050
 9799TIP3    H150888   4.229   4.692  16.424 -0.6017  0.3474 -0.9525
 9799TIP3    H250889   4.119   4.745  16.513 -0.6214 -0.7784 -0.2907
 9800TIP3   OH250890   0.056   2.585   1.869 -0.4651  0.2582  0.2882
 9800TIP3    H150891   0.025   2.610   1.956 -0.3919  0.5944  0.2166
 9800TIP3    H250892   0.037   2.660   1.813 -1.8866 -0.5163 -0.3232
 9801TIP3   OH250893   1.419   4.446  15.816  0.2531  0.5014  0.5102
 9801TIP3    H150894   1.389   4.369  15.767  0.9336  1.8595 -2.2753
 9801TIP3    H250895   1.487   4.413  15.875 -1.0177 -1.3268  1.0284
 9802TIP3   OH250896   3.112   3.586   1.611  0.0750 -0.2791  0.6429
 9802TIP3    H150897   3.097   3.567   1.519  0.0579  4.6488 -0.6151
 9802TIP3    H250898   3.195   3.633   1.613  0.8981 -1.6220  3.4725
 9803TIP3   OH250899   4.763   4.263   4.193 -0.5158  0.4259  0.0166
 9803TIP3    H150900   4.786   4.185   4.144 -0.8344  0.8325 -0.7939
 9803TIP3    H250901   4.705   4.232   4.263  0.7935 -0.3052  0.8084
 9804TIP3   OH250902   6.465   5.720  12.439  0.1756  0.0422 -0.3482
 9804TIP3    H150903   6.496   5.736  12.528  1.1621  0.2719 -0.7101
 9804TIP3    H250904   6.415   5.799  12.417  0.3847  0.2278 -0.1754
 9805TIP3   OH250905   0.808   3.345   1.927  0.2940 -0.0031  0.3169
 9805TIP3    H150906   0.737   3.305   1.878  1.2813  1.0558 -2.1718
 9805TIP3    H250907   0.876   3.278   1.930  0.9378  0.4997 -1.5211
 9806TIP3   OH250908   3.670   1.958   5.800  0.3359  0.0456 -0.6161
 9806TIP3    H150909   3.685   1.991   5.888  3.5567  0.4586 -1.1890
 9806TIP3    H250910   3.589   2.002   5.772 -0.2570  0.6196  1.7544
 9807TIP3   OH250911   4.853   3.941  11.145  0.2918  0.1605 -0.0644
 9807TIP3    H150912   4.932   3.993  11.133 -0.2096  1.3243  1.4472
 9807TIP3    H250913   4.867   3.895  11.228 -0.1730 -0.4802 -0.3288
 9808TIP3   OH250914   6.771   1.116  13.312  0.1360  0.4386 -0.7832
 9808TIP3    H150915   6.720   1.194  13.290 -1.0703  0.1487  0.7953
 9808TIP3    H250916   6.824   1.143  13.387  0.5749  0.0662 -0.9550
 9809TIP3   OH250917   1.659   2.628  17.179 -0.5471  0.1181  0.6373
 9809TIP3    H150918   1.714   2.553  17.156 -0.2951 -0.5207  3.0301
 9809TIP3    H250919   1.713   2.679  17.240 -0.4739  2.6404 -1.3744
 9810TIP3   OH250920   2.661   3.624   6.383 -0.5937  0.5887  0.5874
 9810TIP3    H150921   2.572   3.655   6.397 -0.6127  0.4485  0.7805
 9810TIP3    H250922   2.714   3.704   6.381 -0.7263  0.6742  0.4384
 9811TIP3   OH250923   5.851   0.067  11.751  0.6205  0.1960  0.4896
 9811TIP3    H150924   5.775   0.087  11.806  0.5575  1.0670  0.1131
 9811TIP3    H250925   5.883  -0.017  11.783 -0.6586 -0.3203  0.4872
 9812TIP3   OH250926   3.040   4.033  10.888 -0.1454 -0.0935 -0.0181
 9812TIP3    H150927   3.132   4.048  10.910 -0.3640  1.5540 -0.1459
 9812TIP3    H250928   3.041   4.017  10.794 -0.0939  0.9562 -0.2017
 9813TIP3   OH250929   0.128   5.838  15.438 -0.2002 -0.0321 -0.1919
 9813TIP3    H150930   0.165   5.792  15.362 -0.2864 -0.7014  0.1650
 9813TIP3    H250931   0.084   5.769  15.488 -0.1533  0.4075  0.4608
 9814TIP3   OH250932   6.265   3.852  10.148 -0.1884 -0.2544  0.2505
 9814TIP3    H150933   6.338   3.790  10.146  1.0826  1.0704  1.8464
 9814TIP3    H250934   6.307   3.938  10.143 -1.7930  0.5249 -0.5822
 9815TIP3   OH250935   4.158   0.866   1.483 -0.1532 -0.2708 -0.3399
 9815TIP3    H150936   4.086   0.804   1.497 -0.4209  0.1015 -0.0775
 9815TIP3    H250937   4.229   0.832   1.538 -0.0582 -0.7464 -0.7473
 9816TIP3   OH250938   5.938   2.291   2.069 -0.6577  0.1264 -0.0460
 9816TIP3    H150939   5.950   2.285   2.163 -0.0695  0.6426 -0.0768
 9816TIP3    H250940   5.999   2.360   2.041  1.1532 -1.7718 -1.1387
 9817TIP3   OH250941   1.921   6.046  13.330 -0.0720  0.0284  0.6813
 9817TIP3    H150942   1.951   5.972  13.383 -1.4858 -0.1078  1.3441
 9817TIP3    H250943   1.838   6.017  13.292 -0.4594  1.1112  0.6360
 9818TIP3   OH250944   2.044   0.806   0.245  0.3581 -0.5647 -0.8878
 9818TIP3    H150945   2.079   0.719   0.264 -1.1782 -0.9631  0.3250
 9818TIP3    H250946   1.959   0.808   0.289 -1.1046  0.3804 -3.5155
 9819TIP3   OH250947   2.254   6.425   4.352 -0.6088  0.4937  0.0819
 9819TIP3    H150948   2.291   6.513   4.351 -2.5922  1.3998 -1.5508
 9819TIP3    H250949   2.313   6.373   4.297  0.4053  0.8548  0.8002
 9820TIP3   OH250950   4.692   5.134  11.299 -0.2497 -0.4502 -0.4274
 9820TIP3    H150951   4.707   5.042  11.319 -0.9382 -0.3858  0.4247
 9820TIP3    H250952   4.720   5.144  11.208 -0.8704 -1.6674 -0.7667
 9821TIP3   OH250953   6.459   1.515  13.181  0.0609  0.2114  0.5642
 9821TIP3    H150954   6.536   1.535  13.128  0.2912 -0.5944  0.5794
 9821TIP3    H250955   6.493   1.495  13.268 -0.2731  1.0031  0.8825
 9822TIP3   OH250956   0.447   5.139   3.992 -1.0163 -0.5129 -0.0104
 9822TIP3    H150957   0.393   5.091   4.054 -1.7735 -0.6741 -0.7800
 9822TIP3    H250958   0.385   5.181   3.933 -0.3115 -0.6952 -0.9118
 9823TIP3   OH250959   4.512   3.326  12.571  0.3143 -0.5014 -0.1442
 9823TIP3    H150960   4.606   3.314  12.586  0.0591  1.0150  3.9787
 9823TIP3    H250961   4.498   3.421  12.574 -1.3948 -0.7082 -0.2380
 9824TIP3   OH250962   6.351   4.875  15.069  0.2451  0.0752  0.0610
 9824TIP3    H150963   6.307   4.960  15.068 -0.4907 -0.2871  0.6854
 9824TIP3    H250964   6.424   4.885  15.008 -1.0636  0.5066 -1.5009
 9825TIP3   OH250965   0.878   0.864  11.620  0.4947  0.0604  0.3937
 9825TIP3    H150966   0.933   0.934  11.655  0.7261 -0.3185  0.8043
 9825TIP3    H250967   0.880   0.876  11.526  2.0357 -0.4970  0.3289
 9826TIP3   OH250968   3.735   0.384   2.962 -0.2534 -0.2673  0.3047
 9826TIP3    H150969   3.731   0.324   2.888  0.8833 -1.9558  1.5355
 9826TIP3    H250970   3.814   0.435   2.947 -0.3760 -0.1590  0.0276
 9827TIP3   OH250971   5.358   6.163  13.978  0.4134 -0.5285  0.0616
 9827TIP3    H150972   5.274   6.151  13.935  0.9606 -0.2148 -1.1578
 9827TIP3    H250973   5.360   6.097  14.047 -0.5352 -1.0015 -0.3455
 9828TIP3   OH250974   1.448   5.402   1.578  0.5202  0.1183 -0.0335
 9828TIP3    H150975   1.506   5.328   1.559  2.0882  0.6177  2.3456
 9828TIP3    H250976   1.474   5.470   1.516  1.0601 -0.3599 -0.3457
 9829TIP3   OH250977   5.077   6.631  12.556  0.2023 -0.0675 -0.4844
 9829TIP3    H150978   5.170   6.610  12.546  0.1794 -0.1497 -0.5205
 9829TIP3    H250979   5.076   6.725  12.576  0.4182 -0.4235  1.3574
 9830TIP3   OH250980   0.526   6.741  13.980 -0.7618 -0.0542 -0.1966
 9830TIP3    H150981   0.469   6.818  13.990 -0.6275  0.0230 -0.0119
 9830TIP3    H250982   0.612   6.771  14.008 -0.6693 -0.2225 -0.2987
 9831TIP3   OH250983   5.484   0.263  14.092  0.0279  0.0882  0.2973
 9831TIP3    H150984   5.426   0.249  14.017 -0.4852  0.1508  0.6769
 9831TIP3    H250985   5.474   0.356  14.113  1.8639  0.5998 -0.9340
 9832TIP3   OH250986   3.896   4.998   3.481  0.4317  0.2370 -0.0551
 9832TIP3    H150987   3.856   4.920   3.518  0.6107  0.3145  0.3092
 9832TIP3    H250988   3.968   4.965   3.427 -0.0014  0.1084 -0.5654
 9833TIP3   OH250989   6.787   1.052  10.286 -0.2917 -0.5553 -0.0980
 9833TIP3    H150990   6.838   1.065  10.366  0.1927 -1.0327 -0.3205
 9833TIP3    H250991   6.705   1.014  10.316 -1.8139  2.8799  0.5891
 9834TIP3   OH250992   5.870   2.871  15.283 -0.0422 -0.0058  0.9154
 9834TIP3    H150993   5.796   2.813  15.296 -0.7769  0.6533 -0.1657
 9834TIP3    H250994   5.833   2.959  15.285  0.1300  0.2845 -2.5784
 9835TIP3   OH250995   0.092   5.063   1.713 -0.0779  0.3524 -0.5240
 9835TIP3    H150996   0.085   5.117   1.635 -0.8824  2.3934  0.8761
 9835TIP3    H250997   0.030   5.102   1.775 -1.2638 -2.6427  0.3552
 9836TIP3   OH250998   5.798   1.729  15.447 -0.2101 -0.1651 -0.5718
 9836TIP3    H150999   5.882   1.704  15.408 -0.2341 -1.9117  0.3961
 9836TIP3    H251000   5.743   1.651  15.438 -0.6731 -0.1588  1.5837
 9837TIP3   OH251001   1.570   3.630  14.364 -0.0761  0.3465  0.0695
 9837TIP3    H151002   1.573   3.647  14.270 -0.4136  1.8359  0.3092
 9837TIP3    H251003   1.480   3.648  14.390 -0.0766 -0.3924  0.6270
 9838TIP3   OH251004   6.154   1.211  16.521  0.4947  0.0479  0.2646
 9838TIP3    H151005   6.191   1.238  16.605  1.0428 -2.4810  0.9086
 9838TIP3    H251006   6.227   1.214  16.460  0.0310  2.1943 -0.2951
 9839TIP3   OH251007   4.584   1.377   6.054 -0.1378 -0.2358  0.0748
 9839TIP3    H151008   4.575   1.430   5.975  0.9238 -0.7743 -0.4242
 9839TIP3    H251009   4.505   1.397   6.105  0.5420  2.3408  0.2518
 9840TIP3   OH251010   0.191   5.779  11.155 -0.8686  0.5396 -0.4794
 9840TIP3    H151011   0.190   5.823  11.240  1.4838 -0.0582 -0.0503
 9840TIP3    H251012   0.276   5.802  11.117 -0.7924 -1.2216 -1.5305
 9841TIP3   OH251013   2.426   6.391   6.271 -0.0127  0.6351  0.2217
 9841TIP3    H151014   2.515   6.395   6.234  0.3267 -3.2624  0.2419
 9841TIP3    H251015   2.427   6.457   6.340  2.6609  1.2068 -0.2200
 9842TIP3   OH251016   6.399   5.642  14.787  0.2208 -0.1034  0.2294
 9842TIP3    H151017   6.374   5.715  14.731  0.2368 -0.5922 -0.4283
 9842TIP3    H251018   6.447   5.583  14.730 -1.0750 -1.3409  0.3491
 9843TIP3   OH251019   1.136   3.283   1.137  0.1438  0.0523 -0.0793
 9843TIP3    H151020   1.077   3.220   1.094 -0.3126  0.1658  0.3605
 9843TIP3    H251021   1.203   3.228   1.178  0.2808 -0.0878 -0.4854
 9844TIP3   OH251022   3.129   6.680  16.322 -0.1301  0.9572  0.6624
 9844TIP3    H151023   3.149   6.771  16.345  0.5928  1.0186 -0.1698
 9844TIP3    H251024   3.080   6.686  16.240 -0.4734  0.6187  0.8436
 9845TIP3   OH251025   0.257   5.609  12.074 -0.1521 -0.1682 -0.4189
 9845TIP3    H151026   0.303   5.675  12.125  0.5333 -0.8359 -0.1516
 9845TIP3    H251027   0.170   5.603  12.114 -0.4052  0.9351 -0.7769
 9846TIP3   OH251028   6.119   0.800   2.813  0.2715 -0.3566 -0.1679
 9846TIP3    H151029   6.089   0.723   2.766  0.8109 -0.7117  0.0612
 9846TIP3    H251030   6.103   0.873   2.754 -2.8088 -0.2532  0.6298
 9847TIP3   OH251031   0.245   4.464  11.020  0.3784 -0.1923  0.1207
 9847TIP3    H151032   0.309   4.530  11.049  0.5632 -0.6879  0.8642
 9847TIP3    H251033   0.170   4.477  11.078  1.7679 -2.9780  2.8385
 9848TIP3   OH251034   0.720   3.466   0.226 -0.0123 -0.5401 -0.5671
 9848TIP3    H151035   0.766   3.460   0.310  1.6819 -0.4107 -1.4452
 9848TIP3    H251036   0.730   3.557   0.199 -1.1874 -0.3949 -0.5956
 9849TIP3   OH251037   2.816   0.052   4.010 -0.6747 -0.4413 -0.0795
 9849TIP3    H151038   2.768  -0.027   3.986  1.6602 -1.2008 -2.6809
 9849TIP3    H251039   2.899   0.021   4.045 -0.1657  0.8648 -0.0525
 9850TIP3   OH251040   2.246   0.915  13.369  0.0105 -0.4526 -0.4047
 9850TIP3    H151041   2.181   0.985  13.376  0.5256  0.0338 -0.3699
 9850TIP3    H251042   2.209   0.842  13.418  0.0902  0.2759  0.7768
 9851TIP3   OH251043   6.733   3.222  17.102 -0.2814 -0.0423  0.3689
 9851TIP3    H151044   6.705   3.313  17.114 -0.5801  0.2236 -1.8924
 9851TIP3    H251045   6.656   3.178  17.066 -0.6826 -1.6591  2.9748
 9852TIP3   OH251046   3.799   2.433  11.091 -0.3284  0.3138 -0.6406
 9852TIP3    H151047   3.719   2.381  11.086 -0.1352 -0.0513 -0.0119
 9852TIP3    H251048   3.864   2.381  11.043 -0.5750  0.8297 -1.5517
 9853TIP3   OH251049   0.410   4.790   2.400  0.2446  0.4785 -0.0647
 9853TIP3    H151050   0.425   4.738   2.321  0.7615 -0.9343  0.9347
 9853TIP3    H251051   0.318   4.815   2.394  0.2428  0.2864 -1.0569
 9854TIP3   OH251052   5.886   5.268   2.892 -0.0977  0.2165  0.3899
 9854TIP3    H151053   5.892   5.364   2.896  2.1352  0.1632 -0.2892
 9854TIP3    H251054   5.916   5.239   2.978 -0.6887  0.1045  0.5644
 9855TIP3   OH251055   0.032   5.509  16.821  0.2356  0.9315  0.1150
 9855TIP3    H151056   0.108   5.462  16.855 -0.4069  0.5920  1.1432
 9855TIP3    H251057   0.058   5.601  16.822  0.8905  0.7545 -0.2526
 9856TIP3   OH251058   2.449   0.587  12.982 -0.2512  0.7792  0.4160
 9856TIP3    H151059   2.415   0.677  12.979 -0.5511  0.6764  0.6372
 9856TIP3    H251060   2.383   0.539  13.033 -0.2271  0.3784  0.0698
 9857TIP3   OH251061   2.095   6.151  11.234 -0.4189  0.6089 -0.4171
 9857TIP3    H151062   2.157   6.084  11.204 -0.4048  0.5863 -0.3375
 9857TIP3    H251063   2.011   6.104  11.240 -0.1872  0.3006  0.7540
 9858TIP3   OH251064   2.101   2.409   5.497  0.1605 -0.4008 -0.5132
 9858TIP3    H151065   2.100   2.498   5.460 -0.3161 -0.0380  0.3291
 9858TIP3    H251066   2.025   2.366   5.458 -0.2724 -0.0590 -0.0678
 9859TIP3   OH251067   6.368   4.525  12.328  0.0304  0.2176 -0.0680
 9859TIP3    H151068   6.338   4.489  12.412  0.5354  2.3403  1.0985
 9859TIP3    H251069   6.420   4.454  12.289  0.5423 -0.5194  1.8329
 9860TIP3   OH251070   5.502   3.645   0.703  0.1591 -0.2736 -0.3575
 9860TIP3    H151071   5.423   3.630   0.651 -0.2201  0.1521  0.0893
 9860TIP3    H251072   5.545   3.720   0.661  1.2588 -1.5658 -1.6619
 9861TIP3   OH251073   6.594   4.939   0.362  0.0046 -0.5073  0.4641
 9861TIP3    H151074   6.558   4.955   0.275  0.4524  1.1402  0.5413
 9861TIP3    H251075   6.540   4.868   0.398 -0.6426 -0.7199 -0.8641
 9862TIP3   OH251076   1.908   4.904  10.788 -0.1066 -0.0257 -0.1333
 9862TIP3    H151077   1.923   4.990  10.827  0.3134  0.5422 -1.5082
 9862TIP3    H251078   1.853   4.859  10.851  0.0176  1.0940  0.8118
 9863TIP3   OH251079   1.572   5.271   2.609 -0.0284  0.2758 -0.8557
 9863TIP3    H151080   1.574   5.329   2.532  0.8922  2.3009  0.6101
 9863TIP3    H251081   1.661   5.236   2.615 -0.6162 -1.4855 -1.8119
 9864TIP3   OH251082   1.130   1.730  16.017 -0.7680 -0.6384  0.0312
 9864TIP3    H151083   1.045   1.743  16.059 -0.8613 -1.2365  0.0471
 9864TIP3    H251084   1.119   1.768  15.930 -0.5608  0.6330  0.5414
 9865TIP3   OH251085   2.576   5.893  13.113  0.4706 -0.1154 -0.6342
 9865TIP3    H151086   2.564   5.948  13.035  1.4880 -0.5659 -1.1392
 9865TIP3    H251087   2.513   5.822  13.102 -0.6256  0.7636 -0.1401
 9866TIP3   OH251088   5.487   2.961   4.664  0.3824 -0.0686  0.1209
 9866TIP3    H151089   5.570   3.008   4.653  0.5803 -0.6002 -0.7789
 9866TIP3    H251090   5.497   2.882   4.611 -0.7056 -0.1341 -0.0109
 9867TIP3   OH251091   4.539   1.871   2.768  0.6104  0.0352  0.1596
 9867TIP3    H151092   4.604   1.903   2.830  1.2215  0.8297 -0.8665
 9867TIP3    H251093   4.589   1.824   2.702  0.1338  0.5407 -0.5721
 9868TIP3   OH251094   0.761   0.134  16.118  0.2533 -0.2285  0.2974
 9868TIP3    H151095   0.733   0.146  16.209  0.2578 -0.7949  0.3804
 9868TIP3    H251096   0.695   0.076  16.080 -0.7280  1.3961 -0.5781
 9869TIP3   OH251097   1.780   2.322   5.760 -0.0098  0.4139 -0.1442
 9869TIP3    H151098   1.873   2.298   5.763 -0.2966 -0.6573  2.0666
 9869TIP3    H251099   1.737   2.241   5.732 -0.4070  0.4499  0.3692
 9870TIP3   OH251100   6.165   4.731   4.501 -0.6634 -0.3553 -0.3287
 9870TIP3    H151101   6.255   4.752   4.473 -0.3927  0.7087  1.2437
 9870TIP3    H251102   6.112   4.749   4.423  0.1926  1.4286 -0.5497
 9871TIP3   OH251103   0.345   1.991  11.951  0.1806 -0.1046 -0.2910
 9871TIP3    H151104   0.267   1.946  11.983  1.2949 -1.7160  0.2749
 9871TIP3    H251105   0.390   1.926  11.897  1.1734  0.7753 -0.5625
 9872TIP3   OH251106   1.932   3.578  14.798 -0.0298  0.0551 -1.3861
 9872TIP3    H151107   1.934   3.553  14.706  1.0886 -1.2674 -1.0333
 9872TIP3    H251108   2.024   3.583  14.824 -0.2830  1.6742 -0.6337
 9873TIP3   OH251109   2.498   6.529  12.152  0.3900  0.1163  0.2530
 9873TIP3    H151110   2.532   6.575  12.229 -1.2008  1.4187  0.2244
 9873TIP3    H251111   2.508   6.592  12.080  1.0051 -0.7468 -0.4437
 9874TIP3   OH251112   3.246   2.236   6.427  0.1310 -0.3269 -0.8346
 9874TIP3    H151113   3.299   2.174   6.477  0.2672 -0.7975 -1.5663
 9874TIP3    H251114   3.174   2.258   6.486  0.4486 -0.6530 -0.3157
 9875TIP3   OH251115   4.421   3.174   2.650  0.1621  0.1447 -0.0976
 9875TIP3    H151116   4.514   3.195   2.640 -0.1163  1.7024  0.3296
 9875TIP3    H251117   4.375   3.248   2.610 -0.9224 -1.0703 -1.2025
 9876TIP3   OH251118   6.232   2.277  12.253  0.1597 -0.3149  0.2586
 9876TIP3    H151119   6.323   2.287  12.280 -0.6510  1.8637  2.6256
 9876TIP3    H251120   6.199   2.366  12.246 -2.1106 -1.0404  0.7354
 9877TIP3   OH251121   4.780   4.331  13.840 -0.1098  0.0329  0.0458
 9877TIP3    H151122   4.807   4.423  13.850  0.1412 -0.0794  0.4537
 9877TIP3    H251123   4.825   4.286  13.912 -0.3425 -0.3858 -0.0715
 9878TIP3   OH251124   1.635   1.969  14.430  0.2994 -0.1280 -0.1124
 9878TIP3    H151125   1.558   1.999  14.478  0.1812  0.8145 -0.8679
 9878TIP3    H251126   1.701   1.953  14.497 -0.6447 -1.2871  0.5763
 9879TIP3   OH251127   4.601   2.381   0.083 -0.0729  0.1348 -0.1819
 9879TIP3    H151128   4.632   2.330   0.008  0.5694 -0.2278  0.3238
 9879TIP3    H251129   4.549   2.452   0.043 -0.6250 -0.6525 -0.9059
 9880TIP3   OH251130   3.628   6.633   3.960 -0.2838 -0.3844 -0.3729
 9880TIP3    H151131   3.634   6.704   3.895  3.9939 -0.7857 -0.6653
 9880TIP3    H251132   3.569   6.569   3.919  0.1255  0.5799 -2.6415
 9881TIP3   OH251133   4.336   5.488   3.829  0.4593 -0.0085  0.6125
 9881TIP3    H151134   4.361   5.515   3.917  1.8135 -0.8704  0.5251
 9881TIP3    H251135   4.418   5.458   3.789 -0.2800 -0.4322 -0.6552
 9882TIP3   OH251136   1.986   0.048  14.153 -0.3208  0.0854 -0.3290
 9882TIP3    H151137   1.924   0.111  14.117 -1.2479 -0.9649 -0.6279
 9882TIP3    H251138   2.065   0.060  14.101 -0.2714  1.4007  0.0114
 9883TIP3   OH251139   3.023   2.719   4.840  0.2827 -0.2779  0.9250
 9883TIP3    H151140   2.957   2.785   4.859  2.9515  2.1188  2.4636
 9883TIP3    H251141   3.034   2.723   4.745 -1.2673 -0.3146  0.7116
 9884TIP3   OH251142   5.377   4.284  10.396  0.5482  0.5291 -0.0016
 9884TIP3    H151143   5.453   4.234  10.425 -0.1759 -0.4013  0.3664
 9884TIP3    H251144   5.318   4.285  10.472 -0.2423  0.3375 -0.5931
 9885TIP3   OH251145   6.502   3.232  15.076 -0.3641 -0.2664 -0.1559
 9885TIP3    H151146   6.569   3.211  15.010  1.7625  1.0553  1.4579
 9885TIP3    H251147   6.425   3.257  15.025  1.0957  0.4035 -2.1579
 9886TIP3   OH251148   2.452   4.310   1.007 -0.3582  0.0275  0.5598
 9886TIP3    H151149   2.414   4.239   0.956  0.9404 -0.7057  0.5676
 9886TIP3    H251150   2.453   4.385   0.947 -0.9261 -0.2016  0.2590
 9887TIP3   OH251151   0.960   3.518  16.335 -0.0259  0.2953  0.3412
 9887TIP3    H151152   0.991   3.548  16.250 -0.7677  1.8662  0.5898
 9887TIP3    H251153   1.037   3.477  16.375 -0.1290 -2.2463 -1.7776
 9888TIP3   OH251154   3.980   6.605   0.281 -0.4364  0.0344  0.1628
 9888TIP3    H151155   4.058   6.634   0.234  0.4368 -0.8511  0.9978
 9888TIP3    H251156   3.993   6.511   0.292 -2.8950 -0.6855 -1.9832
 9889TIP3   OH251157   4.784   4.649  15.621  0.0953  0.0455  0.0111
 9889TIP3    H151158   4.722   4.722  15.612  0.7110  0.6560  0.5740
 9889TIP3    H251159   4.868   4.692  15.637  0.5111 -0.7944  0.1007
 9890TIP3   OH251160   5.021   4.463  14.347  0.5193 -0.0222  0.8555
 9890TIP3    H151161   4.949   4.521  14.370  0.8287  1.5880 -1.8101
 9890TIP3    H251162   4.981   4.377  14.338 -1.2056  0.8789 -0.7955
 9891TIP3   OH251163   6.116   2.029  15.214  0.0089 -0.3105 -0.2881
 9891TIP3    H151164   6.193   2.067  15.256 -0.9788 -0.1156  1.4157
 9891TIP3    H251165   6.042   2.060  15.266 -1.0258 -2.7125 -0.1960
 9892TIP3   OH251166   2.303   5.926  13.962 -0.6375 -0.4056 -0.3216
 9892TIP3    H151167   2.387   5.916  13.917 -0.3899 -1.4337  0.3203
 9892TIP3    H251168   2.239   5.886  13.904 -0.8348  1.1854 -1.2228
 9893TIP3   OH251169   0.285   1.146  13.403 -0.0104  0.1262  0.0694
 9893TIP3    H151170   0.353   1.194  13.357  1.4450 -0.8240  1.1555
 9893TIP3    H251171   0.318   1.136  13.492 -2.5260  1.4759  1.2581
 9894TIP3   OH251172   0.382   6.415  13.781  0.1520 -0.6894  0.2969
 9894TIP3    H151173   0.338   6.429  13.697  1.2351  1.0582 -0.0084
 9894TIP3    H251174   0.376   6.320  13.795 -0.6023 -0.9354 -1.4346
 9895TIP3   OH251175   1.660   3.247  14.944  0.4258 -0.2540 -0.3946
 9895TIP3    H151176   1.706   3.196  14.877 -0.4885 -1.4737 -0.1244
 9895TIP3    H251177   1.658   3.336  14.909 -0.3582 -0.9189 -2.1835
 9896TIP3   OH251178   1.355   3.039  16.924  0.1771  0.1301 -0.3767
 9896TIP3    H151179   1.347   3.099  16.850  0.0252  0.0651 -0.4141
 9896TIP3    H251180   1.286   3.067  16.984  0.2285  0.1125 -0.3089
 9897TIP3   OH251181   3.645   2.643   0.354  0.4713  0.1841 -0.2039
 9897TIP3    H151182   3.684   2.578   0.296 -0.5525 -0.8935  0.2597
 9897TIP3    H251183   3.603   2.705   0.295 -0.6332 -0.9484 -0.6667
 9898TIP3   OH251184   5.023   1.601  12.792 -0.3263 -0.2086  0.7566
 9898TIP3    H151185   5.084   1.670  12.817 -0.6973  0.6332 -0.5898
 9898TIP3    H251186   4.965   1.591  12.868  0.8383 -0.3088  1.6470
 9899TIP3   OH251187   5.712   0.658   2.165 -0.1605 -0.0264 -0.3566
 9899TIP3    H151188   5.636   0.659   2.106 -0.9930  2.0865  0.6264
 9899TIP3    H251189   5.767   0.729   2.133  0.1869  0.0527  0.4062
 9900TIP3   OH251190   1.126   0.287   5.029 -0.4896  0.3240  0.1022
 9900TIP3    H151191   1.147   0.215   4.969 -0.9463  1.4733 -1.5401
 9900TIP3    H251192   1.069   0.345   4.977 -0.6228  1.5698  1.5580
 9901TIP3   OH251193   3.346   0.438  15.073  0.0219 -0.7298  0.4384
 9901TIP3    H151194   3.293   0.432  14.994 -0.0892 -1.3773  0.5569
 9901TIP3    H251195   3.415   0.501  15.051  0.4850 -1.5238 -0.4717
 9902TIP3   OH251196   2.606   6.801  11.612  0.2558  0.0464 -1.2363
 9902TIP3    H151197   2.655   6.813  11.531  1.0130  1.1550 -0.6357
 9902TIP3    H251198   2.543   6.873  11.613 -1.9585 -1.7243 -2.3314
 9903TIP3   OH251199   6.580   0.401  13.773 -0.7323  0.2722 -0.0096
 9903TIP3    H151200   6.623   0.338  13.715 -0.4868  1.1299 -0.7785
 9903TIP3    H251201   6.511   0.351  13.816 -1.0140 -0.3401 -1.1486
 9904TIP3   OH251202   0.044   4.450   2.430 -0.1252 -0.0733  0.1342
 9904TIP3    H151203  -0.037   4.420   2.471 -1.1429  0.4053 -1.4379
 9904TIP3    H251204   0.035   4.425   2.338  1.9132 -0.7739  0.0719
 9905TIP3   OH251205   3.816   2.005  13.366  0.5648  0.0214  0.4675
 9905TIP3    H151206   3.812   2.058  13.286  0.9574  0.3209  0.6359
 9905TIP3    H251207   3.910   1.989  13.379  0.6068  0.9594  1.4889
 9906TIP3   OH251208   0.559   6.471  14.190  0.5473  0.0448 -0.1068
 9906TIP3    H151209   0.649   6.475  14.156  0.7102 -1.4804  0.0666
 9906TIP3    H251210   0.515   6.407  14.134  0.1847 -0.8002  1.0906
 9907TIP3   OH251211   6.571   0.036   3.935  0.1584 -0.1337 -0.4074
 9907TIP3    H151212   6.608  -0.052   3.930  4.0128  1.2873 -0.3811
 9907TIP3    H251213   6.647   0.094   3.926 -2.3220  3.2390 -1.5629
 9908TIP3   OH251214   6.739   6.139  15.202  0.3257 -0.1045 -0.2078
 9908TIP3    H151215   6.662   6.144  15.259  1.1870 -1.5757  1.1675
 9908TIP3    H251216   6.805   6.192  15.247  0.6409 -0.2656 -0.4781
 9909TIP3   OH251217   4.065   2.374   4.918 -0.0122  0.2168  0.7269
 9909TIP3    H151218   4.093   2.465   4.915 -1.1173  0.5529 -0.0461
 9909TIP3    H251219   3.974   2.376   4.889 -0.0985 -1.1176  0.8443
 9910TIP3   OH251220   2.161   2.398   0.146 -0.4291  0.0254  0.5968
 9910TIP3    H151221   2.206   2.379   0.229 -0.3845 -1.6499  0.2234
 9910TIP3    H251222   2.225   2.447   0.094  0.3552 -0.8588  0.7161
 9911TIP3   OH251223   2.583   4.661  11.616 -0.6526  0.5689  0.2048
 9911TIP3    H151224   2.519   4.612  11.667  0.7116 -1.4074  0.1596
 9911TIP3    H251225   2.607   4.601  11.545 -1.8997  2.9137 -2.3775
 9912TIP3   OH251226   5.053   4.752  11.579 -0.3738 -0.0944 -0.2683
 9912TIP3    H151227   5.126   4.808  11.604  0.2042 -0.5869 -0.8462
 9912TIP3    H251228   4.976   4.797  11.614  0.0509  1.1928 -0.9345
 9913TIP3   OH251229   3.733   3.374   5.857 -0.5290  0.8332 -0.3153
 9913TIP3    H151230   3.743   3.358   5.763 -1.1455  2.6584 -0.7191
 9913TIP3    H251231   3.753   3.467   5.868  0.8392  0.3632  1.5778
 9914TIP3   OH251232   3.614   3.635   2.101 -0.0409 -0.6575 -0.2249
 9914TIP3    H151233   3.562   3.569   2.147  1.5773 -1.2682  0.8165
 9914TIP3    H251234   3.636   3.699   2.169 -1.1622  0.7287 -1.1168
 9915TIP3   OH251235   0.706   6.650  15.861  0.8645 -0.0111 -0.1837
 9915TIP3    H151236   0.782   6.649  15.920  1.9333  2.3315 -1.3700
 9915TIP3    H251237   0.645   6.711  15.902  0.4147 -0.4876 -0.1436
 9916TIP3   OH251238   0.474   0.976   3.574 -0.2694  0.2055  0.1047
 9916TIP3    H151239   0.465   1.034   3.649  1.2833 -0.8258  1.1400
 9916TIP3    H251240   0.415   0.903   3.593  0.5955 -0.3642  0.6586
 9917TIP3   OH251241   1.538   0.025   1.251  0.2677  0.9323  0.0430
 9917TIP3    H151242   1.538  -0.065   1.284  1.1033  0.2923 -1.5764
 9917TIP3    H251243   1.619   0.032   1.200  0.3966  2.7298  0.4255
 9918TIP3   OH251244   0.805   4.979   0.980 -0.5156 -0.2655 -0.1576
 9918TIP3    H151245   0.831   5.026   1.060  0.8812  0.2370 -0.8822
 9918TIP3    H251246   0.747   5.040   0.935  0.3870  0.3416 -0.5377
 9919TIP3   OH251247   3.744   6.547  10.666 -0.0543  0.2851 -0.3492
 9919TIP3    H151248   3.768   6.596  10.588  1.4869  1.1225  0.6203
 9919TIP3    H251249   3.819   6.490  10.684  0.2516  1.1452  1.3151
 9920TIP3   OH251250   6.170   5.026  14.354  0.0397  0.2131  0.0047
 9920TIP3    H151251   6.100   5.046  14.293 -0.9753  1.1988  1.4137
 9920TIP3    H251252   6.151   5.080  14.431  1.4505 -0.7017  1.0583
 9921TIP3   OH251253   6.795   3.267  15.243  0.1814 -0.4239 -0.0228
 9921TIP3    H151254   6.835   3.212  15.310 -0.2827  0.9124  1.4279
 9921TIP3    H251255   6.869   3.309  15.199  0.4870 -1.1635 -0.2295
 9922TIP3   OH251256   0.738   2.009  17.138  0.5499 -0.4703  0.5723
 9922TIP3    H151257   0.720   1.920  17.170 -0.9267 -0.0457  0.9983
 9922TIP3    H251258   0.698   2.066  17.203 -1.0326  0.4505 -1.1508
 9923TIP3   OH251259   0.907   5.600  15.778 -0.1805 -0.4303  0.4486
 9923TIP3    H151260   0.838   5.654  15.739  0.2558  0.1884  0.5195
 9923TIP3    H251261   0.886   5.597  15.871 -0.7816 -1.2560  0.3012
 9924TIP3   OH251262   6.499   3.729   5.207 -0.1405  0.2644  0.2837
 9924TIP3    H151263   6.583   3.765   5.237  0.3290 -0.1711 -0.4460
 9924TIP3    H251264   6.491   3.761   5.117 -0.6752  0.1597  0.2922
 9925TIP3   OH251265   3.887   1.264  15.538  0.3356 -0.1911  0.6077
 9925TIP3    H151266   3.962   1.204  15.543 -0.3118 -1.2064 -1.0377
 9925TIP3    H251267   3.925   1.348  15.512  0.9180 -0.7385 -0.3843
 9926TIP3   OH251268   0.656   5.365   5.874  0.4798 -0.2158  0.3440
 9926TIP3    H151269   0.727   5.399   5.929  2.6044 -0.4264 -2.0551
 9926TIP3    H251270   0.701   5.323   5.801 -2.1434  0.7567 -1.9924
 9927TIP3   OH251271   6.276   2.597  14.865 -0.0027  0.0668  0.0310
 9927TIP3    H151272   6.344   2.661  14.846 -0.7451  0.8249 -0.1255
 9927TIP3    H251273   6.323   2.521  14.899  1.1717 -0.3518 -2.2903
 9928TIP3   OH251274   0.497   4.128   0.833 -0.3195  0.1767  0.0741
 9928TIP3    H151275   0.467   4.076   0.908 -0.2541 -0.2001 -0.1562
 9928TIP3    H251276   0.431   4.114   0.765 -0.3994  0.5488  0.0733
 9929TIP3   OH251277   5.598   3.707  13.610  0.0560  0.0087  0.4509
 9929TIP3    H151278   5.621   3.712  13.702 -1.2777 -1.8144  0.9231
 9929TIP3    H251279   5.587   3.614  13.592  0.3548  0.3134 -1.5828
 9930TIP3   OH251280   5.898   1.760  12.221 -0.4266  0.0485 -0.4071
 9930TIP3    H151281   5.937   1.829  12.167  0.9376 -1.1411 -1.0091
 9930TIP3    H251282   5.804   1.778  12.218 -0.0750  2.3346  0.1361
 9931TIP3   OH251283   3.373   1.274  13.599 -1.0784 -0.2987 -0.7588
 9931TIP3    H151284   3.325   1.203  13.643  0.2988 -0.9613 -0.2390
 9931TIP3    H251285   3.326   1.354  13.624 -1.2896 -0.8123  0.6111
 9932TIP3   OH251286   2.901   1.142   0.054 -0.0813  0.3764 -0.6034
 9932TIP3    H151287   2.846   1.220   0.050  0.2773  0.5994 -1.5003
 9932TIP3    H251288   2.898   1.107  -0.035  0.1833 -0.3404 -0.3348
 9933TIP3   OH251289   6.198   0.967  15.850 -0.6561 -0.2851  0.8916
 9933TIP3    H151290   6.175   0.954  15.942  0.4859  0.4409  1.3027
 9933TIP3    H251291   6.132   1.029  15.818  0.4347  1.5280  1.9610
 9934TIP3   OH251292   4.458   0.586   2.698 -0.7389  0.6490  0.5124
 9934TIP3    H151293   4.431   0.674   2.724 -1.0279  0.7556 -0.1272
 9934TIP3    H251294   4.377   0.546   2.665 -0.0622  1.1623 -1.9713
 9935TIP3   OH251295   5.059   4.609  11.160 -0.1997 -0.1319  0.0713
 9935TIP3    H151296   5.002   4.604  11.237 -0.6104  0.3856 -0.1897
 9935TIP3    H251297   5.146   4.586  11.193 -0.5095 -0.6815  0.5296
 9936TIP3   OH251298   6.360   0.336   1.033  0.1029  0.6025 -0.5176
 9936TIP3    H151299   6.293   0.325   0.966 -1.0587  0.4988  0.6254
 9936TIP3    H251300   6.314   0.322   1.116  2.1010 -2.5515  0.2426
 9937TIP3   OH251301   5.032   6.444  14.467 -0.3293 -0.5052 -0.3994
 9937TIP3    H151302   4.962   6.509  14.459 -0.4789 -0.6492 -0.2708
 9937TIP3    H251303   4.998   6.367  14.422  0.0947 -0.3027 -1.0881
 9938TIP3   OH251304   3.382   3.261  13.202 -0.2752 -0.1168  0.1885
 9938TIP3    H151305   3.435   3.271  13.123 -0.5902 -0.2926 -0.0484
 9938TIP3    H251306   3.415   3.328  13.262 -0.3548  0.3276 -0.2683
 9939TIP3   OH251307   1.660   5.046  11.565  0.1942 -0.3479 -0.5400
 9939TIP3    H151308   1.614   4.993  11.631 -1.1522  1.2768 -0.1089
 9939TIP3    H251309   1.661   5.134  11.602  1.4573  0.1653 -1.7074
 9940TIP3   OH251310   4.042   0.548   1.521  0.2173 -0.1640 -0.1992
 9940TIP3    H151311   3.996   0.474   1.559  0.3380  1.0339  2.5056
 9940TIP3    H251312   4.132   0.517   1.507  0.0820 -0.7439  0.2179
 9941TIP3   OH251313   5.351   5.702   1.119  0.7509  0.9855  0.0392
 9941TIP3    H151314   5.354   5.669   1.209  0.3953  0.6132 -0.0804
 9941TIP3    H251315   5.350   5.797   1.128 -0.0321  0.9460  0.4602
 9942TIP3   OH251316   3.593   3.604  15.243 -0.2929  0.5601  0.0858
 9942TIP3    H151317   3.675   3.649  15.226  0.8591 -1.2950  0.4843
 9942TIP3    H251318   3.540   3.620  15.164  0.4614  1.6945 -0.2153
 9943TIP3   OH251319   5.624   3.835  12.935 -0.5999  1.0955 -0.9912
 9943TIP3    H151320   5.630   3.928  12.955 -1.1244  1.0746 -0.7164
 9943TIP3    H251321   5.715   3.806  12.923 -0.2564  1.1308  1.2277
 9944TIP3   OH251322   2.906   5.838  14.370 -0.3053 -0.3884 -0.2072
 9944TIP3    H151323   2.854   5.778  14.421  1.3074 -3.6287 -2.0669
 9944TIP3    H251324   2.889   5.814  14.279  0.8601  1.6135 -1.0374
 9945TIP3   OH251325   4.946   3.348  13.331  0.3533 -0.1511 -0.4221
 9945TIP3    H151326   4.960   3.442  13.343 -0.8264  0.0144 -0.2805
 9945TIP3    H251327   4.905   3.320  13.412 -0.0887 -0.6240 -0.8074
 9946TIP3   OH251328   4.017   5.684   1.290  0.1090 -0.4540 -0.4387
 9946TIP3    H151329   4.060   5.675   1.205 -0.9571 -3.6309 -0.7405
 9946TIP3    H251330   3.947   5.748   1.275  0.9201  0.2266 -1.4845
 9947TIP3   OH251331   6.829   0.659   1.316  0.7469 -0.3349  0.0975
 9947TIP3    H151332   6.790   0.651   1.403  2.5021 -0.8687  0.8854
 9947TIP3    H251333   6.909   0.608   1.321  2.8553  2.6281 -0.6204
 9948TIP3   OH251334   4.206   2.926  13.774  0.1009 -0.3874  0.8331
 9948TIP3    H151335   4.160   2.922  13.858 -0.7642 -0.9307  0.3509
 9948TIP3    H251336   4.214   2.835  13.746  0.7464 -0.2387  0.5123
 9949TIP3   OH251337   2.242   0.924  17.139 -0.1135 -0.6813  0.5509
 9949TIP3    H151338   2.283   0.937  17.225  1.0225  0.4010 -0.1307
 9949TIP3    H251339   2.295   0.857  17.097  0.8258  0.5262 -0.2286
 9950TIP3   OH251340   3.579   6.332  16.512  0.1113 -0.6681  0.0332
 9950TIP3    H151341   3.496   6.284  16.517 -0.2045 -0.3134 -1.3583
 9950TIP3    H251342   3.554   6.423  16.522  0.1409 -0.4451 -1.6160
 9951TIP3   OH251343   5.277   2.341  15.453 -0.5107  0.1861  0.3550
 9951TIP3    H151344   5.237   2.266  15.409 -1.5313  0.9577 -0.0594
 9951TIP3    H251345   5.327   2.385  15.384  1.1161 -0.7611  0.8620
 9952TIP3   OH251346   4.180   5.148   5.084 -0.2412 -0.5162  0.2356
 9952TIP3    H151347   4.186   5.083   5.154  1.2611 -2.2649 -1.3988
 9952TIP3    H251348   4.270   5.178   5.071 -0.4524 -0.3614 -1.0182
 9953TIP3   OH251349   4.069   4.273  12.302 -0.1526  0.0153  0.0581
 9953TIP3    H151350   4.112   4.337  12.359  0.4358  0.0529 -0.4113
 9953TIP3    H251351   3.975   4.287  12.316 -0.2632  3.4712 -2.5771
 9954TIP3   OH251352   3.474   4.688  15.151 -0.0526  1.1850 -0.8491
 9954TIP3    H151353   3.451   4.597  15.134 -0.1053  0.2140  3.3613
 9954TIP3    H251354   3.392   4.736  15.142 -0.7429  0.2165  0.1409
 9955TIP3   OH251355   2.478   1.183  16.172 -0.6012 -0.2112  0.2148
 9955TIP3    H151356   2.401   1.130  16.195 -0.0219 -0.7766  0.9073
 9955TIP3    H251357   2.516   1.138  16.097 -0.0551 -0.8636  0.8611
 9956TIP3   OH251358   3.824   5.700   2.135 -0.2393 -0.2227  0.1906
 9956TIP3    H151359   3.877   5.625   2.162  1.8701  0.6080 -1.3664
 9956TIP3    H251360   3.868   5.776   2.174 -1.1006  0.3758  0.0163
 9957TIP3   OH251361   6.496   2.288   1.900 -0.0740 -0.1701  0.0653
 9957TIP3    H151362   6.452   2.220   1.951 -3.1530 -0.0246 -2.1250
 9957TIP3    H251363   6.483   2.368   1.950 -0.6145 -0.4431  0.3647
 9958TIP3   OH251364   3.334   3.893  15.639 -0.5892  0.1432  0.1357
 9958TIP3    H151365   3.305   3.960  15.702 -2.1768  0.0480 -0.4299
 9958TIP3    H251366   3.412   3.930  15.599 -0.0455  0.5866  1.5196
 9959TIP3   OH251367   0.544   3.288   1.445 -0.0322 -0.2674 -0.0051
 9959TIP3    H151368   0.455   3.323   1.439 -0.3094 -1.1486 -1.6164
 9959TIP3    H251369   0.532   3.193   1.443  1.0388 -0.4305 -3.1102
 9960TIP3   OH251370   5.772   5.246  12.401  0.0226  0.1425 -0.8512
 9960TIP3    H151371   5.764   5.306  12.326 -0.1885 -0.5706 -1.4167
 9960TIP3    H251372   5.838   5.286  12.457 -0.4356  1.1256 -0.9993
 9961TIP3   OH251373   1.330   6.218  15.512 -0.4132  0.1920 -0.1370
 9961TIP3    H151374   1.242   6.186  15.493 -0.3399  0.5059 -1.0865
 9961TIP3    H251375   1.381   6.139  15.529 -0.8902  0.0124  0.4929
 9962TIP3   OH251376   0.849   5.278   1.768 -0.7255  0.4094 -0.8757
 9962TIP3    H151377   0.877   5.355   1.720 -1.0561  1.0926 -0.0035
 9962TIP3    H251378   0.772   5.307   1.818  0.0974 -0.0209  0.7046
 9963TIP3   OH251379   2.230   6.666   3.993 -0.2235 -0.0844  0.1435
 9963TIP3    H151380   2.285   6.660   3.915  0.7072  1.9721  0.5677
 9963TIP3    H251381   2.152   6.714   3.965  0.4470  1.3249  0.5832
 9964TIP3   OH251382   0.934   6.294   5.712  0.0017 -0.1396 -0.3202
 9964TIP3    H151383   0.883   6.340   5.779 -0.1165  1.7359 -1.6176
 9964TIP3    H251384   0.935   6.354   5.638 -0.8888 -2.6260 -2.4936
 9965TIP3   OH251385   5.710   1.147  12.618 -0.3639  0.0463  0.3660
 9965TIP3    H151386   5.620   1.115  12.615 -1.7171  3.0963  2.8633
 9965TIP3    H251387   5.752   1.095  12.687 -0.6076 -0.4618  0.1347
 9966TIP3   OH251388   3.124   2.349   6.097  0.1148 -0.3428  0.0766
 9966TIP3    H151389   3.109   2.315   6.009 -0.4456 -0.2308  0.1290
 9966TIP3    H251390   3.210   2.314   6.121  0.9770  0.8944 -1.1155
 9967TIP3   OH251391   1.064   2.932   2.686 -0.0979 -0.1764 -0.1640
 9967TIP3    H151392   1.021   2.877   2.621 -2.0466 -0.3481  1.1875
 9967TIP3    H251393   1.113   2.870   2.740 -0.7203 -0.3737  0.1833
 9968TIP3   OH251394   5.063   3.866   3.500  0.2037  0.0033 -0.2068
 9968TIP3    H151395   5.067   3.866   3.596  0.0542  0.4811 -0.1930
 9968TIP3    H251396   4.995   3.803   3.479  0.9142 -0.8419 -0.0447
 9969TIP3   OH251397   5.981   1.404   3.500 -0.2158 -0.1394  0.9525
 9969TIP3    H151398   5.982   1.319   3.455 -1.9239 -0.0047  0.6176
 9969TIP3    H251399   5.981   1.381   3.593 -0.0014 -0.4894  0.8705
 9970TIP3   OH251400   1.112   6.164   3.530 -0.2345 -0.3493  0.0257
 9970TIP3    H151401   1.150   6.087   3.572 -0.5990 -0.4018  0.2661
 9970TIP3    H251402   1.033   6.131   3.487  0.2095 -0.3232 -0.8321
 9971TIP3   OH251403   3.095   2.161  14.660  0.1564 -0.1220  0.1959
 9971TIP3    H151404   3.084   2.067  14.644 -0.8596 -0.0344  0.2642
 9971TIP3    H251405   3.028   2.203  14.605  1.6194  0.6892 -1.0352
 9972TIP3   OH251406   5.782   6.509  13.671 -0.0498  0.1821  0.0965
 9972TIP3    H151407   5.820   6.542  13.753  0.1598 -2.2622  1.0712
 9972TIP3    H251408   5.772   6.415  13.686 -1.9270 -0.0155 -1.9693
 9973TIP3   OH251409   4.085   4.077  16.256  0.4118 -0.0603  0.4231
 9973TIP3    H151410   4.103   4.132  16.333  2.1538 -0.8830  0.6586
 9973TIP3    H251411   4.023   4.128  16.204 -0.4876  0.6925  2.1674
 9974TIP3   OH251412   6.096   6.748  10.849 -0.1100  0.4072  0.3821
 9974TIP3    H151413   6.027   6.687  10.872 -1.5895  1.8436 -0.0646
 9974TIP3    H251414   6.148   6.701  10.784 -0.2668 -0.9211  1.1698
 9975TIP3   OH251415   4.495   4.882  11.184 -0.5797  0.5807 -0.3047
 9975TIP3    H151416   4.464   4.964  11.145 -1.8455  0.9650  1.3812
 9975TIP3    H251417   4.477   4.815  11.119  0.4178  1.6066 -1.6904
 9976TIP3   OH251418   2.153   1.242  14.245 -0.2328  0.2098 -0.5034
 9976TIP3    H151419   2.134   1.187  14.322  2.5721 -0.8873 -0.4709
 9976TIP3    H251420   2.070   1.246  14.198 -2.3656  1.7223  2.9778
 9977TIP3   OH251421   0.221   1.805  17.127  0.7527  0.2075 -0.6759
 9977TIP3    H151422   0.233   1.840  17.039 -0.9173 -0.6641 -1.2913
 9977TIP3    H251423   0.129   1.821  17.147  1.4168  1.8765  1.6246
 9978TIP3   OH251424   0.591   4.922   4.619  0.2444  0.2011  0.0666
 9978TIP3    H151425   0.552   4.957   4.700 -0.8057  0.1028 -0.3775
 9978TIP3    H251426   0.665   4.870   4.649  0.5293  1.0439  0.8954
 9979TIP3   OH251427   0.111   2.667   1.540  0.1094  0.3377  0.5261
 9979TIP3    H151428   0.114   2.743   1.598 -2.7579  1.8725 -1.1044
 9979TIP3    H251429   0.051   2.606   1.584  0.9051 -0.1896  0.9117
 9980TIP3   OH251430   3.309   3.659  11.012 -0.0217  0.5272 -0.0707
 9980TIP3    H151431   3.330   3.737  10.961  1.1785  0.0054 -0.4314
 9980TIP3    H251432   3.354   3.588  10.965  1.8019  0.1289  2.0957
 9981TIP3   OH251433   1.327   4.532   0.443 -0.2554 -0.3300  0.7067
 9981TIP3    H151434   1.399   4.581   0.403 -0.1320 -0.5950  0.6045
 9981TIP3    H251435   1.369   4.467   0.498 -0.4067  1.3126  2.9070
 9982TIP3   OH251436   6.360   0.472  11.897  0.3834 -0.5215  0.5256
 9982TIP3    H151437   6.335   0.380  11.910 -0.5642 -0.1980  1.0796
 9982TIP3    H251438   6.359   0.484  11.802  0.3743 -1.0432  0.4566
 9983TIP3   OH251439   3.033   0.070  12.256 -0.2293 -0.0942  0.2100
 9983TIP3    H151440   3.059  -0.003  12.312 -0.1662 -1.3260 -1.3518
 9983TIP3    H251441   2.961   0.112  12.303 -0.3951 -1.2889  1.0635
 9984TIP3   OH251442   0.751   2.813   0.722 -0.6638 -0.0008 -0.4927
 9984TIP3    H151443   0.833   2.822   0.673 -0.9882  1.0102 -0.8713
 9984TIP3    H251444   0.766   2.738   0.780  0.7625  0.5685 -0.0910
 9985TIP3   OH251445   4.015   4.474   0.318 -0.2863 -0.0873 -0.3762
 9985TIP3    H151446   3.947   4.429   0.269  0.5669 -0.2964 -1.4049
 9985TIP3    H251447   3.970   4.512   0.394 -0.8237 -3.9713  1.4676
 9986TIP3   OH251448   4.210   0.130   6.407 -0.2813  0.2760 -0.1133
 9986TIP3    H151449   4.303   0.110   6.399 -0.8269 -2.4363 -0.8190
 9986TIP3    H251450   4.193   0.134   6.501  0.6852  1.7762  0.0235
 9987TIP3   OH251451   0.711   2.841   3.753  0.4367  0.1145 -0.1306
 9987TIP3    H151452   0.628   2.855   3.799 -0.0827 -1.4220 -0.5601
 9987TIP3    H251453   0.686   2.816   3.664  1.2222 -2.6288  0.3255
 9988TIP3   OH251454   5.665   3.766  14.887 -0.3716  0.2871 -0.3305
 9988TIP3    H151455   5.742   3.800  14.932 -0.5159  1.3301 -0.8433
 9988TIP3    H251456   5.700   3.701  14.825  0.0024  0.1530  0.0205
 9989TIP3   OH251457   5.752   1.903  11.930  0.0728  0.1656 -0.5091
 9989TIP3    H151458   5.759   1.961  12.006 -1.0361  0.2349 -0.4451
 9989TIP3    H251459   5.754   1.962  11.855 -1.1111  0.3083 -0.4422
 9990TIP3   OH251460   4.986   3.526   3.009  0.8324 -0.1610 -0.3235
 9990TIP3    H151461   4.985   3.580   2.931  1.5104 -0.2432 -0.3905
 9990TIP3    H251462   4.894   3.523   3.037  0.5180 -0.4874 -1.3521
 9991TIP3   OH251463   4.520   1.916  13.694  0.2117  0.5128  0.4238
 9991TIP3    H151464   4.570   1.980  13.643 -0.8447  0.6251 -0.5105
 9991TIP3    H251465   4.569   1.834  13.685 -0.1202  0.4536 -1.0544
 9992TIP3   OH251466   3.075   0.576   1.265  0.3457  0.0677  0.6263
 9992TIP3    H151467   3.056   0.492   1.305  1.5300  0.2210  1.5677
 9992TIP3    H251468   3.045   0.567   1.174  2.5273 -2.1955  0.0305
 9993TIP3   OH251469   6.787   6.201   4.625 -0.0356 -0.2833 -1.0425
 9993TIP3    H151470   6.701   6.203   4.584  0.0031 -1.8750 -1.2914
 9993TIP3    H251471   6.800   6.289   4.661 -1.3808  0.2266 -1.7610
 9994TIP3   OH251472   0.713   5.198  11.431 -0.4861 -0.2911 -0.4009
 9994TIP3    H151473   0.772   5.188  11.506  0.9724  0.3906 -1.4018
 9994TIP3    H251474   0.684   5.109  11.411 -2.0143 -0.3694  1.7583
 9995TIP3   OH251475   5.044   2.043  16.413  0.2607 -0.0853 -0.2264
 9995TIP3    H151476   4.960   2.025  16.370 -0.7218  0.7736  1.2121
 9995TIP3    H251477   5.092   2.098  16.351 -0.4335 -0.2218 -0.8962
 9996TIP3   OH251478   1.747   0.689  12.574 -0.0381 -0.3419 -0.8397
 9996TIP3    H151479   1.792   0.611  12.607 -0.2215  0.1718  0.7347
 9996TIP3    H251480   1.654   0.669  12.584 -0.0876  0.3532  0.3870
 9997TIP3   OH251481   5.638   1.457  14.231 -0.0166  0.2678  0.5106
 9997TIP3    H151482   5.585   1.536  14.240 -0.9786 -0.1904 -0.9969
 9997TIP3    H251483   5.668   1.458  14.140 -0.4571 -1.3603  0.3278
 9998TIP3   OH251484   2.117   5.444   1.659  0.0297  0.2118  0.5092
 9998TIP3    H151485   2.176   5.453   1.584  0.7283 -1.7973  0.7448
 9998TIP3    H251486   2.030   5.458   1.624  0.4786  1.1414 -0.2782
 9999TIP3   OH251487   3.008   5.888  17.171  0.6960  0.0479 -0.4421
 9999TIP3    H151488   3.078   5.855  17.227  1.2500 -0.0569 -1.1734
 9999TIP3    H251489   3.008   5.983  17.184  2.0889  0.2379 -1.6681
10000TIP3   OH251490   5.924   3.696  13.857 -0.1253 -0.6891 -0.0520
10000TIP3    H151491   5.982   3.747  13.801 -2.3912  2.0425 -0.1512
10000TIP3    H251492   5.977   3.673  13.933  1.5728  0.0207 -0.9768
10001TIP3   OH251493   4.350   4.622   3.096  0.0588  0.1683 -0.3863
10001TIP3    H151494   4.278   4.618   3.032 -1.8967 -1.3660  1.7748
10001TIP3    H251495   4.417   4.564   3.060 -0.7039 -0.1496 -1.3538
10002TIP3   OH251496   4.455   6.562   4.115  0.2946 -0.1037  0.3970
10002TIP3    H151497   4.446   6.496   4.184 -0.5016  0.6543  1.0383
10002TIP3    H251498   4.546   6.592   4.122  0.2678 -0.1541  1.0064
10003TIP3   OH251499   1.427   4.071   4.525 -0.0843 -0.1847  0.2371
10003TIP3    H151500   1.522   4.060   4.518 -0.0998 -0.6264  0.7200
10003TIP3    H251501   1.392   4.023   4.450  0.0835  0.2997 -0.1645
10004TIP3   OH251502   1.157   5.812  15.036  1.1149 -0.0157  0.8010
10004TIP3    H151503   1.126   5.853  14.955  1.8974 -2.3002 -0.7761
10004TIP3    H251504   1.093   5.837  15.102 -0.6881  0.3291 -0.9665
10005TIP3   OH251505   4.979   2.242   5.678  0.0365 -0.6223  0.2061
10005TIP3    H151506   4.918   2.302   5.721 -0.2465  1.1479 -2.4293
10005TIP3    H251507   4.927   2.164   5.660 -0.5955 -0.3250  0.7023
10006TIP3   OH251508   1.575   4.942  11.062  0.2475  0.1561  0.0641
10006TIP3    H151509   1.510   4.999  11.102  1.1857  1.1422  0.2086
10006TIP3    H251510   1.658   4.985  11.077  1.0185 -1.3849  0.4053
10007TIP3   OH251511   6.184   5.993  15.382 -0.1736  0.0077  1.0403
10007TIP3    H151512   6.257   5.969  15.439  0.3768 -1.8302 -0.3177
10007TIP3    H251513   6.226   6.017  15.299 -1.0828 -1.4978  0.1037
10008TIP3   OH251514   6.674   0.267  11.531  0.0209 -0.2961 -0.5994
10008TIP3    H151515   6.763   0.241  11.507  0.5954  0.8315  0.2105
10008TIP3    H251516   6.639   0.308  11.451  0.1747 -0.8416 -0.9535
10009TIP3   OH251517   6.735   3.915   0.222 -0.4550 -0.2391  0.1295
10009TIP3    H151518   6.732   3.822   0.247 -0.2195 -0.0605  0.8564
10009TIP3    H251519   6.722   3.915   0.128  2.4488 -1.2403 -0.3848
10010TIP3   OH251520   2.243   1.474   2.964  0.4962  0.0347  0.7489
10010TIP3    H151521   2.217   1.516   3.046 -0.4165  0.2373  0.3682
10010TIP3    H251522   2.160   1.449   2.923  0.9792 -1.0673  0.4071
10011TIP3   OH251523   3.154   3.181   5.927 -0.6187  0.0064 -0.8450
10011TIP3    H151524   3.103   3.238   5.983 -0.4334  0.2660 -0.9392
10011TIP3    H251525   3.142   3.216   5.838  0.9851  1.0599 -0.7024
10012TIP3   OH251526   2.839   6.113  10.997  0.0183 -0.1339 -0.2408
10012TIP3    H151527   2.912   6.054  10.980  0.5738  0.3220  0.4967
10012TIP3    H251528   2.848   6.182  10.931  0.7233  0.3315  0.3240
10013TIP3   OH251529   2.095   0.635  17.155 -0.3196 -0.4113 -0.2465
10013TIP3    H151530   2.078   0.715  17.205  1.4382  1.1040 -1.9100
10013TIP3    H251531   2.182   0.607  17.184  1.2003  1.0643 -2.9730
10014TIP3   OH251532   5.544   2.315  12.324 -0.3476  0.3047  0.1114
10014TIP3    H151533   5.523   2.395  12.276 -1.9783  0.3579  0.8569
10014TIP3    H251534   5.558   2.249  12.255  2.5538  1.5119 -0.5738
10015TIP3   OH251535   1.556   3.740  15.317 -0.7355 -0.2506  0.5691
10015TIP3    H151536   1.605   3.676  15.368  0.2184  0.8084  1.0389
10015TIP3    H251537   1.553   3.704  15.229  1.9925  0.1529  0.2052
10016TIP3   OH251538   3.333   6.785  15.691 -0.1880 -0.1278  0.3077
10016TIP3    H151539   3.311   6.694  15.709 -3.3075  0.4215 -0.1446
10016TIP3    H251540   3.287   6.835  15.758  0.6046  1.1780 -0.0791
10017TIP3   OH251541   6.501   1.444   2.276  0.1164 -0.0745 -0.3028
10017TIP3    H151542   6.522   1.497   2.353 -0.6986 -0.0764 -0.0616
10017TIP3    H251543   6.469   1.507   2.211  0.2506 -0.1358 -0.4272
10018TIP3   OH251544   3.562   5.795  15.109  0.5136 -0.2721 -0.4730
10018TIP3    H151545   3.579   5.867  15.047 -1.8030  0.9785  0.2422
10018TIP3    H251546   3.604   5.719  15.069  1.8985  1.1790 -1.9352
10019TIP3   OH251547   5.010   5.032   3.294  0.0705  0.0295  0.1890
10019TIP3    H151548   4.999   4.937   3.292 -0.1461  0.0553  0.1104
10019TIP3    H251549   4.990   5.057   3.384 -4.4368  0.5220 -0.7232
10020TIP3   OH251550   0.234   3.681   0.773  0.1166 -0.4437  0.4893
10020TIP3    H151551   0.275   3.600   0.741 -0.4346 -0.7971  0.6647
10020TIP3    H251552   0.300   3.748   0.759  0.3766 -0.8280 -0.1767
10021TIP3   OH251553   3.361   0.120   5.153 -0.3977  0.2037  0.5860
10021TIP3    H151554   3.302   0.095   5.082  0.4068 -1.6328  0.5110
10021TIP3    H251555   3.389   0.037   5.191  2.0943  0.9947  0.6389
10022TIP3   OH251556   0.792   2.970   0.072  0.3673 -0.9285  0.5905
10022TIP3    H151557   0.759   2.902   0.130 -0.7435 -1.1235 -0.2272
10022TIP3    H251558   0.719   3.032   0.063  1.0347 -0.1259  0.5812
10023TIP3   OH251559   3.727   3.392  12.630  0.2704 -0.0020  0.0018
10023TIP3    H151560   3.735   3.426  12.541 -0.7918 -0.3939 -0.2617
10023TIP3    H251561   3.661   3.323  12.624 -1.1188  1.1324  1.3995
10024TIP3   OH251562   2.042   4.966  14.046  0.5934  0.0478 -0.6715
10024TIP3    H151563   2.021   5.052  14.083 -1.0230 -0.6652  0.1654
10024TIP3    H251564   1.994   4.964  13.963  0.7681  0.0148 -0.7713
10025TIP3   OH251565   1.006   0.842  16.676 -0.2003  0.0927 -0.5388
10025TIP3    H151566   1.030   0.762  16.630  0.1157  0.8836 -1.7861
10025TIP3    H251567   1.087   0.894  16.678 -0.4391  0.4619  0.1069
10026TIP3   OH251568   2.271   6.666   3.455  0.0558  0.0330  0.0087
10026TIP3    H151569   2.188   6.713   3.443  0.7549  1.0266 -1.1785
10026TIP3    H251570   2.247   6.589   3.506 -1.4510  0.7362  0.4499
10027TIP3   OH251571   0.947   2.052   5.571 -0.1853 -0.6162  0.4226
10027TIP3    H151572   0.924   2.138   5.604 -1.7872 -1.0728  0.5791
10027TIP3    H251573   0.985   2.006   5.646  3.1486  0.7235 -0.2651
10028TIP3   OH251574   2.203   1.239   5.726 -0.4705 -0.4607  0.5562
10028TIP3    H151575   2.242   1.255   5.640 -0.3045 -1.2702  0.4715
10028TIP3    H251576   2.109   1.250   5.712 -0.5087 -1.2952  0.0918
10029TIP3   OH251577   3.009   2.433  14.806 -0.5899  0.2521 -0.1770
10029TIP3    H151578   3.059   2.354  14.827 -1.0866  0.0629  0.3276
10029TIP3    H251579   2.919   2.401  14.790 -0.9775  0.8017  0.8479
10030TIP3   OH251580   5.695   5.945   4.522 -0.3406  0.1043  0.5573
10030TIP3    H151581   5.642   5.911   4.594 -0.7821 -1.3449 -0.4006
10030TIP3    H251582   5.644   5.923   4.443  0.7154  0.5207 -0.2624
10031TIP3   OH251583   2.575   2.724  11.263  0.2125  0.3915 -0.5123
10031TIP3    H151584   2.577   2.738  11.358 -0.6103 -1.2495 -0.2224
10031TIP3    H251585   2.636   2.652  11.248 -0.7932 -0.3768 -1.0091
10032TIP3   OH251586   5.550   5.621   3.355 -1.0169 -0.0618 -1.1450
10032TIP3    H151587   5.458   5.605   3.372 -0.6209 -0.3520  0.9681
10032TIP3    H251588   5.554   5.712   3.327 -1.9250  0.0001 -1.0875
10033TIP3   OH251589   6.656   0.697  13.666  0.3204 -0.1271  0.4772
10033TIP3    H151590   6.717   0.626  13.683 -0.1460 -0.6001  0.1868
10033TIP3    H251591   6.588   0.688  13.733 -0.5102 -0.8492 -0.4190
10034TIP3   OH251592   4.616   3.446   0.758 -0.8901  0.6434  0.0687
10034TIP3    H151593   4.634   3.480   0.671  0.4650  1.0563  0.4846
10034TIP3    H251594   4.643   3.354   0.754 -1.5815  0.4437 -0.1602
10035TIP3   OH251595   2.667   3.761  16.377  0.2603 -0.3975  0.8168
10035TIP3    H151596   2.760   3.744  16.369  0.5471  1.6391 -1.2412
10035TIP3    H251597   2.661   3.848  16.416 -0.7624 -0.2699  0.4206
10036TIP3   OH251598   2.904   0.962   1.078 -0.1956 -0.5026 -0.1935
10036TIP3    H151599   2.986   0.944   1.124 -0.6684 -1.0366  0.4585
10036TIP3    H251600   2.931   0.994   0.992  0.6975 -1.3947 -0.2582
10037TIP3   OH251601   6.475   3.212  10.961 -0.4426  0.4026  0.4454
10037TIP3    H151602   6.478   3.116  10.960 -1.3657  0.3735  0.4131
10037TIP3    H251603   6.556   3.238  10.916 -0.8999 -0.3674 -0.8809
10038TIP3   OH251604   4.604   0.735  15.082 -0.2928 -0.4156  0.0736
10038TIP3    H151605   4.589   0.715  15.174 -1.2811 -2.2890 -0.4438
10038TIP3    H251606   4.520   0.767  15.050 -0.6317 -1.9208 -0.6576
10039TIP3   OH251607   2.173   1.891  11.808 -0.1577 -0.0409  0.1733
10039TIP3    H151608   2.183   1.986  11.799  0.6347  0.2036  2.7949
10039TIP3    H251609   2.254   1.854  11.773 -0.7477  0.1559 -1.4802
10040TIP3   OH251610   0.247   4.151   3.678 -0.0706 -0.6437  0.0626
10040TIP3    H151611   0.342   4.164   3.685 -0.2165  1.2732 -0.9498
10040TIP3    H251612   0.230   4.071   3.729  1.8944 -0.3141  1.3452
10041TIP3   OH251613   5.287   0.911  13.352  0.0752  0.1303  0.0542
10041TIP3    H151614   5.359   0.852  13.330 -0.4830 -0.5660  0.0338
10041TIP3    H251615   5.320   0.998  13.332  0.5513 -0.2598 -0.9531
10042TIP3   OH251616   1.816   2.138   4.467 -0.3750  0.4220  0.0629
10042TIP3    H151617   1.880   2.067   4.471  1.4701  2.0328  0.6121
10042TIP3    H251618   1.743   2.107   4.520  0.8598 -0.6049  1.2372
10043TIP3   OH251619   5.600   1.637  12.456  0.4951 -0.0231 -0.0210
10043TIP3    H151620   5.650   1.718  12.445  0.2067 -0.0091 -1.3864
10043TIP3    H251621   5.646   1.573  12.402 -0.2252 -0.3323 -0.2828
10044TIP3   OH251622   0.753   5.805   2.828 -0.7149  0.1521 -0.2938
10044TIP3    H151623   0.700   5.788   2.749 -0.5318  3.2215 -1.2374
10044TIP3    H251624   0.714   5.884   2.865  1.2416  0.6346  0.8409
10045TIP3   OH251625   2.966   0.044  16.066 -0.2479 -0.3679  0.5997
10045TIP3    H151626   2.894  -0.007  16.102 -0.5028  0.3099  1.0608
10045TIP3    H251627   2.924   0.103  16.003 -0.3710  1.2071  2.0698
10046TIP3   OH251628   2.358   4.601   2.758  0.1197 -0.0752  1.1543
10046TIP3    H151629   2.379   4.639   2.673  2.6942 -0.8272  1.3688
10046TIP3    H251630   2.323   4.675   2.809 -1.2516  0.4246 -0.4378
10047TIP3   OH251631   4.261   4.771  13.093 -0.7334 -0.5360 -0.0535
10047TIP3    H151632   4.342   4.821  13.103 -0.8749 -0.5263  1.1958
10047TIP3    H251633   4.281   4.708  13.024 -0.1710  0.4609 -0.8426
10048TIP3   OH251634   1.093   2.193  10.892  0.2856 -0.1724  0.1803
10048TIP3    H151635   1.074   2.258  10.825 -1.2998 -0.9115 -0.1255
10048TIP3    H251636   1.091   2.109  10.846 -0.0303 -0.6275  1.0010
10049TIP3   OH251637   6.728   2.072  16.275  0.3614  0.8135  0.1216
10049TIP3    H151638   6.702   2.012  16.345 -1.4371  0.4697 -0.7727
10049TIP3    H251639   6.822   2.086  16.289  0.3894 -0.5309  1.6059
10050TIP3   OH251640   5.986   4.573  16.615  0.0819  0.2164  0.9179
10050TIP3    H151641   6.044   4.497  16.610  0.3027  0.4049  0.5488
10050TIP3    H251642   5.972   4.599  16.524  1.7015  1.8824  1.0859
10051TIP3   OH251643   5.057   6.339   3.195 -0.2679 -0.5076  0.1864
10051TIP3    H151644   5.129   6.348   3.133 -2.0215  2.0853 -1.7222
10051TIP3    H251645   5.073   6.408   3.260 -0.6019 -0.4496  0.2075
10052TIP3   OH251646   4.630   1.995   3.457 -0.3200 -0.7445 -0.5367
10052TIP3    H151647   4.653   2.082   3.490 -1.0979 -0.9737  0.6990
10052TIP3    H251648   4.540   2.005   3.425 -0.3398 -1.0366 -0.5708
10053TIP3   OH251649   4.138   2.416   1.262  0.3773 -0.7432  0.5402
10053TIP3    H151650   4.228   2.412   1.293 -0.4093 -1.8442  2.9046
10053TIP3    H251651   4.129   2.340   1.204  0.8340 -0.8847  0.6569
10054TIP3   OH251652   0.284   4.272   2.224 -0.1596 -0.1235 -0.4160
10054TIP3    H151653   0.205   4.326   2.215  1.4291  2.4655  0.0622
10054TIP3    H251654   0.322   4.271   2.136 -0.0796 -0.2734 -0.3799
10055TIP3   OH251655   2.967   0.961  16.292  0.5506 -0.1444  0.4315
10055TIP3    H151656   3.006   0.874  16.279  0.9193 -0.0734  1.0155
10055TIP3    H251657   2.887   0.944  16.342  0.2996 -0.2012  0.0190
10056TIP3   OH251658   2.003   3.215   1.698 -0.1144 -0.3305  0.2551
10056TIP3    H151659   2.034   3.124   1.700  0.1677 -0.2259  2.0844
10056TIP3    H251660   1.916   3.212   1.738 -0.4059  0.1236 -0.3210
10057TIP3   OH251661   6.273   2.665   4.797  0.5943 -0.4294  0.8288
10057TIP3    H151662   6.285   2.570   4.803  0.8177 -0.4341  0.3025
10057TIP3    H251663   6.178   2.677   4.807  0.5044 -0.7513  0.4111
10058TIP3   OH251664   6.370   4.071   5.113 -0.2608  0.4254 -0.2395
10058TIP3    H151665   6.407   4.132   5.050  1.8225  0.9406  1.3699
10058TIP3    H251666   6.426   4.079   5.190  0.1987 -3.5960  0.0362
10059TIP3   OH251667   2.635   1.458   4.977  0.3591 -0.6381  0.0072
10059TIP3    H151668   2.698   1.437   5.046  0.8165 -0.4013 -0.3259
10059TIP3    H251669   2.670   1.538   4.937  0.2715 -0.9518 -0.7036
10060TIP3   OH251670   1.726   1.515  14.466  0.3530  0.4614 -0.1854
10060TIP3    H151671   1.710   1.595  14.517  0.3182  1.1258 -1.2024
10060TIP3    H251672   1.814   1.489  14.491  0.7228  1.3480 -0.5032
10061TIP3   OH251673   3.805   0.001   0.253 -0.5497 -0.0540  0.2418
10061TIP3    H151674   3.862  -0.076   0.249 -0.3512  0.1354 -0.6120
10061TIP3    H251675   3.849   0.067   0.200 -2.7283 -0.6863 -2.6085
10062TIP3   OH251676   6.566   1.522  16.333  0.3295 -0.0311  0.0151
10062TIP3    H151677   6.631   1.457  16.307  1.3365  0.9265  0.0879
10062TIP3    H251678   6.493   1.508  16.272 -0.4157 -2.5981  1.3179
10063TIP3   OH251679   1.147   3.928  13.373 -0.5051 -0.0880 -0.5106
10063TIP3    H151680   1.108   3.878  13.444 -0.8007 -0.6058 -1.0242
10063TIP3    H251681   1.198   3.996  13.416 -2.2574  0.8453  0.2017
10064TIP3   OH251682   0.192   0.111  14.855  0.3497 -0.3788 -0.0478
10064TIP3    H151683   0.265   0.129  14.914  1.0143 -1.0196 -0.6521
10064TIP3    H251684   0.117   0.155  14.895  1.3373  1.4935 -0.1472
10065TIP3   OH251685   0.558   1.202   3.079  0.3221 -0.0447  0.3489
10065TIP3    H151686   0.550   1.244   3.165 -0.1007  1.6324 -0.4748
10065TIP3    H251687   0.470   1.169   3.061  0.3098 -0.0265  0.3745
10066TIP3   OH251688   0.265   5.974  15.648  0.3969  0.4870  0.1928
10066TIP3    H151689   0.252   5.906  15.582 -1.4653  0.4319  0.5750
10066TIP3    H251690   0.326   6.036  15.607  0.9673 -0.6294 -0.7217
10067TIP3   OH251691   6.639   5.096  15.311  0.2212 -0.5519  0.2167
10067TIP3    H151692   6.627   5.001  15.305 -2.1104 -0.2141 -2.5294
10067TIP3    H251693   6.705   5.116  15.245  1.8884 -0.3478  1.8744
10068TIP3   OH251694   1.224   2.608  16.454 -0.0204 -0.3366  0.1787
10068TIP3    H151695   1.186   2.526  16.421  0.8849 -0.4532 -0.6214
10068TIP3    H251696   1.176   2.676  16.406  0.4928 -0.4700 -0.5436
10069TIP3   OH251697   5.440   1.899   1.648 -0.2400  0.4133 -0.6845
10069TIP3    H151698   5.477   1.955   1.580  0.0357 -1.0976 -1.8354
10069TIP3    H251699   5.433   1.956   1.725  0.8430  1.7762 -1.5395
10070TIP3   OH251700   2.797   2.958   5.282  0.3618  0.5341 -0.2004
10070TIP3    H151701   2.718   2.943   5.333  0.2720 -1.1511 -0.7765
10070TIP3    H251702   2.766   2.993   5.198 -0.1124 -2.7405 -1.5228
10071TIP3   OH251703   4.941   4.218  14.028 -0.2901  1.1531 -0.1503
10071TIP3    H151704   5.031   4.242  14.050  0.0710  1.1851 -1.5839
10071TIP3    H251705   4.918   4.151  14.093  0.6425  1.3865  0.4410
10072TIP3   OH251706   5.803   0.683   0.336  0.9699 -0.3510  0.1422
10072TIP3    H151707   5.778   0.594   0.314 -0.0532 -0.4910  1.6958
10072TIP3    H251708   5.722   0.733   0.333  1.4598  0.4431 -0.2796
10073TIP3   OH251709   3.072   2.776   2.014  0.2737 -0.5083 -0.3913
10073TIP3    H151710   3.127   2.708   2.053  0.4988  0.6402  1.4332
10073TIP3    H251711   2.985   2.761   2.050  0.2079 -0.1309 -0.3895
10074TIP3   OH251712   4.357   4.759  16.965  0.9692  0.0961  0.1960
10074TIP3    H151713   4.368   4.827  16.899  1.6135  0.1666  0.3738
10074TIP3    H251714   4.270   4.723  16.947  0.5632  1.0461  0.1809
10075TIP3   OH251715   2.006   4.510   4.585 -0.0646  0.6022  0.1721
10075TIP3    H151716   2.011   4.567   4.662  2.2246  0.7771 -0.0292
10075TIP3    H251717   1.926   4.538   4.539  0.5561  3.1713  0.4821
10076TIP3   OH251718   6.059   0.608  15.407 -1.1697 -0.4001 -0.0741
10076TIP3    H151719   6.154   0.599  15.405 -1.0728  0.6060 -1.9039
10076TIP3    H251720   6.033   0.570  15.491  0.8118 -0.8965  0.3585
10077TIP3   OH251721   5.886   0.937   2.619 -0.6015  0.1304 -0.3340
10077TIP3    H151722   5.887   0.936   2.715 -0.2599 -2.1245 -0.3051
10077TIP3    H251723   5.937   1.015   2.596 -1.1070  0.9989  1.2833
10078TIP3   OH251724   0.284   4.519   5.656 -0.3503 -0.8177 -0.5320
10078TIP3    H151725   0.372   4.489   5.675  1.1447  3.0411 -0.4508
10078TIP3    H251726   0.227   4.459   5.704  2.3262 -2.1838  1.1511
10079TIP3   OH251727   1.606   5.624   4.988  0.2231 -0.0629  0.3711
10079TIP3    H151728   1.645   5.612   5.075  2.4833 -0.1179 -0.5928
10079TIP3    H251729   1.609   5.718   4.973  0.7992 -0.1472 -0.0600
10080TIP3   OH251730   3.963   3.753   4.611 -0.2264  0.1864  0.4136
10080TIP3    H151731   3.982   3.697   4.686 -1.2318  0.1913  0.6810
10080TIP3    H251732   3.962   3.842   4.647 -2.1915  0.0744  0.7178
10081TIP3   OH251733   2.175   1.399  16.718 -0.1854 -0.1160 -0.4002
10081TIP3    H151734   2.249   1.459  16.733  0.7832 -1.2222 -0.5859
10081TIP3    H251735   2.130   1.395  16.802  0.8077 -0.4965  0.1398
10082TIP3   OH251736   3.852   2.422  13.688  0.1670  0.3923  0.1206
10082TIP3    H151737   3.816   2.353  13.632 -2.3662 -0.3437  2.3826
10082TIP3    H251738   3.785   2.490  13.687  1.0649  1.3038  0.5906
10083TIP3   OH251739   1.354   6.634  14.436 -0.7244 -0.5743 -0.4491
10083TIP3    H151740   1.299   6.690  14.381 -0.2677  0.7326  0.3845
10083TIP3    H251741   1.301   6.618  14.515  0.1372  0.9312  0.4885
10084TIP3   OH251742   2.382   6.770   3.796 -0.7128 -0.3153  0.0926
10084TIP3    H151743   2.430   6.795   3.717  1.1888 -0.5297  1.1254
10084TIP3    H251744   2.370   6.852   3.844 -0.0055 -0.4886  0.5640
10085TIP3   OH251745   2.819   0.374   5.981 -0.0872  0.0344  0.7051
10085TIP3    H151746   2.753   0.361   5.912 -0.1696  0.8512  0.6194
10085TIP3    H251747   2.773   0.354   6.062  0.6790 -3.4481  0.4238
10086TIP3   OH251748   3.115   5.421   2.780  0.5056 -0.3175 -0.8198
10086TIP3    H151749   3.060   5.496   2.757  1.3948  1.5817  2.6050
10086TIP3    H251750   3.057   5.363   2.829  0.4165 -0.7187 -1.3891
10087TIP3   OH251751   1.735   3.725  14.555 -0.3142  0.3328  0.2037
10087TIP3    H151752   1.685   3.710  14.474 -1.2420  0.0591  0.8120
10087TIP3    H251753   1.778   3.642  14.573 -0.9216  0.0824  0.5284
10088TIP3   OH251754   0.205   2.519   0.378  0.2918  0.1118 -0.0392
10088TIP3    H151755   0.222   2.458   0.305  1.0705 -1.0568  1.0722
10088TIP3    H251756   0.190   2.462   0.453 -0.5783  1.2991  0.7074
10089TIP3   OH251757   5.920   2.526  15.850  0.2014  0.6350  0.2280
10089TIP3    H151758   5.826   2.540  15.852  0.1759  1.3283 -2.0650
10089TIP3    H251759   5.953   2.597  15.794  1.8952 -0.3795 -0.1330
10090TIP3   OH251760   6.031   5.403  15.443  0.2862 -0.0540  0.2977
10090TIP3    H151761   6.011   5.451  15.363  1.2903 -0.7180 -0.3769
10090TIP3    H251762   5.949   5.360  15.467  0.5589 -1.9536 -1.8481
10091TIP3   OH251763   6.807   1.542   4.191  0.1033 -0.3749 -0.0114
10091TIP3    H151764   6.729   1.599   4.197  1.1076  0.9567  1.0241
10091TIP3    H251765   6.774   1.461   4.152 -1.8013  0.1677  0.3427
10092TIP3   OH251766   4.456   3.810  13.290  0.5692 -0.3228 -0.0699
10092TIP3    H151767   4.388   3.764  13.240  1.3907 -0.3097 -1.2437
10092TIP3    H251768   4.407   3.864  13.352 -0.5354  0.1903 -1.3253
10093TIP3   OH251769   4.937   6.204   5.114 -0.0185  0.0153  0.1133
10093TIP3    H151770   4.953   6.248   5.031 -1.9287  0.7224  0.0675
10093TIP3    H251771   4.960   6.269   5.181 -0.7541  0.3129  0.0834
10094TIP3   OH251772   4.401   5.601   4.082  0.3131 -0.3812 -0.4121
10094TIP3    H151773   4.486   5.647   4.083  0.1471  0.1046  2.7112
10094TIP3    H251774   4.337   5.671   4.070  0.2177 -0.1093  1.3584
10095TIP3   OH251775   5.020   6.797   3.891  0.1810  0.1235  0.2084
10095TIP3    H151776   4.975   6.880   3.873  1.8337  1.2658  1.0531
10095TIP3    H251777   4.952   6.730   3.881 -0.8792  1.4043 -1.9431
10096TIP3   OH251778   6.079   0.123   3.815 -0.9666 -0.1427  0.3335
10096TIP3    H151779   6.048   0.068   3.743 -2.3957  0.7627  0.2170
10096TIP3    H251780   6.174   0.122   3.806 -1.0747 -0.6499 -1.1214
10097TIP3   OH251781   4.650   1.101  12.797 -0.2947  0.0751 -0.1093
10097TIP3    H151782   4.604   1.112  12.714 -2.5491  2.1485  1.2772
10097TIP3    H251783   4.712   1.174  12.800  1.0161 -0.9823 -0.6618
10098TIP3   OH251784   0.359   2.687  12.008  0.7105 -0.0381 -0.1850
10098TIP3    H151785   0.364   2.595  12.035 -0.5253 -0.0134  0.2287
10098TIP3    H251786   0.376   2.686  11.914 -1.3321 -0.9977 -0.6043
10099TIP3   OH251787   0.772   1.788  16.724  0.1649 -0.3390  0.0043
10099TIP3    H151788   0.718   1.710  16.714  0.5052 -0.6700  0.7501
10099TIP3    H251789   0.711   1.861  16.711 -0.6137 -0.6959  1.4804
10100TIP3   OH251790   1.186   1.249  12.302 -0.8977 -0.0013  0.4952
10100TIP3    H151791   1.249   1.194  12.255  0.3437  1.7225  0.0526
10100TIP3    H251792   1.239   1.310  12.351 -2.2278 -0.2209  2.3155
10101TIP3   OH251793   2.930   2.734   5.339  0.0365 -0.2241  0.4453
10101TIP3    H151794   2.889   2.820   5.352  0.9012  0.1954  0.5208
10101TIP3    H251795   2.982   2.721   5.419 -0.1748 -0.8699  0.4803
10102TIP3   OH251796   2.885   6.131   5.044 -0.2280 -0.3481 -0.6317
10102TIP3    H151797   2.869   6.040   5.071 -1.6515  0.2168  0.5857
10102TIP3    H251798   2.862   6.133   4.951 -0.8872 -1.0937 -0.4961
10103TIP3   OH251799   6.441   0.747   4.938  0.1228 -0.3493 -0.4032
10103TIP3    H151800   6.408   0.822   4.987 -1.2571 -0.1001 -1.6491
10103TIP3    H251801   6.511   0.783   4.884  0.4294 -0.2578  0.0520
10104TIP3   OH251802   0.370   6.770  12.184  0.6296  0.4783  0.4987
10104TIP3    H151803   0.441   6.787  12.122 -0.8450  0.2595 -1.3645
10104TIP3    H251804   0.325   6.854  12.193  0.0107  0.2042  0.1175
10105TIP3   OH251805   0.008   1.152   3.136  0.2544  0.6844 -0.0785
10105TIP3    H151806   0.065   1.081   3.168  0.0481  0.8956  0.7812
10105TIP3    H251807   0.005   1.214   3.208 -1.3566  0.5178  0.0397
10106TIP3   OH251808   4.093   6.619  12.623 -0.2304  0.1237 -0.3556
10106TIP3    H151809   4.187   6.630  12.606 -0.1938  0.5455  0.1017
10106TIP3    H251810   4.063   6.707  12.647 -0.6110 -0.1409  0.1409
10107TIP3   OH251811   1.859   5.927   3.016  0.7365  0.1153 -0.2533
10107TIP3    H151812   1.804   5.854   3.043  1.5045 -0.0798  0.8611
10107TIP3    H251813   1.799   6.002   3.013  0.1765 -0.3274 -0.2605
10108TIP3   OH251814   3.085   2.950   2.384 -0.1520 -0.0043  0.6341
10108TIP3    H151815   3.140   3.026   2.363  1.3084 -0.8881  1.1282
10108TIP3    H251816   3.068   2.957   2.478  1.1392 -0.9859  0.9635
10109TIP3   OH251817   1.055   3.212  11.338  0.6564  0.2089 -0.0657
10109TIP3    H151818   1.010   3.294  11.358 -0.3001  0.5165 -2.9291
10109TIP3    H251819   0.987   3.146  11.344  0.6710  0.1177 -0.8210
10110TIP3   OH251820   0.779   2.954  15.550  0.1729 -0.0253 -0.4888
10110TIP3    H151821   0.773   2.946  15.455  1.8102 -0.0816 -0.6211
10110TIP3    H251822   0.689   2.947  15.581 -0.2269 -2.0036 -1.8916
10111TIP3   OH251823   1.121   6.681  11.319 -0.0554  0.3097  0.2161
10111TIP3    H151824   1.198   6.634  11.353 -1.0380  0.7833  3.3228
10111TIP3    H251825   1.158   6.744  11.257  1.7342 -1.3234 -0.5095
10112TIP3   OH251826   4.785   4.851  11.648  0.2983  0.1719 -1.1400
10112TIP3    H151827   4.770   4.848  11.554 -0.3743  0.5718 -1.0449
10112TIP3    H251828   4.712   4.803  11.686  1.8582 -2.2496 -0.9329
10113TIP3   OH251829   6.000   1.142  13.694  0.3460  0.3865 -0.8693
10113TIP3    H151830   5.921   1.097  13.723  1.2266 -0.9777 -0.5015
10113TIP3    H251831   6.026   1.196  13.769 -0.3658  1.0430 -1.0859
10114TIP3   OH251832   1.173   3.898   1.772 -0.4918  0.3406 -0.0829
10114TIP3    H151833   1.247   3.946   1.809  1.8864 -1.8162 -1.7416
10114TIP3    H251834   1.136   3.851   1.847  1.7598 -0.8755  0.3423
10115TIP3   OH251835   2.597   0.722   2.672 -0.2160 -0.2402 -0.0205
10115TIP3    H151836   2.565   0.805   2.636 -0.0402 -0.9111 -1.8537
10115TIP3    H251837   2.627   0.744   2.760 -1.2138  1.3996 -0.0477
10116TIP3   OH251838   1.589   2.887  14.413 -0.0273  0.0852  0.4328
10116TIP3    H151839   1.598   2.978  14.384  0.0693 -0.0090  0.1685
10116TIP3    H251840   1.565   2.894  14.506 -2.7275  0.4413 -0.2064
10117TIP3   OH251841   6.111   6.470  13.130 -0.2401  1.2229  0.0726
10117TIP3    H151842   6.042   6.405  13.141  1.8756 -0.9291  1.6592
10117TIP3    H251843   6.128   6.501  13.219  3.2578 -1.0982  0.3917
10118TIP3   OH251844   2.675   0.633  14.450  0.4064  0.1079  0.5503
10118TIP3    H151845   2.682   0.631  14.355 -1.0346 -0.1342  0.4265
10118TIP3    H251846   2.732   0.563  14.480 -0.9425 -1.4251 -0.2881
10119TIP3   OH251847   1.329   3.791  14.918  0.4568  0.3175  0.6448
10119TIP3    H151848   1.365   3.765  14.833 -1.1890  0.0118 -0.0040
10119TIP3    H251849   1.376   3.737  14.982  0.6380 -0.5673 -0.2173
10120TIP3   OH251850   6.436   0.800   4.432  0.0198  0.0860 -0.2724
10120TIP3    H151851   6.423   0.836   4.519  1.6029  1.2115 -0.4661
10120TIP3    H251852   6.434   0.876   4.374  1.1585 -0.3819 -0.9600
10121TIP3   OH251853   0.391   6.153   5.484 -0.2956 -0.0569  0.6370
10121TIP3    H151854   0.458   6.095   5.522  0.7216  0.6699 -0.0087
10121TIP3    H251855   0.392   6.230   5.541 -0.4654  0.0357  0.5145
10122TIP3   OH251856   4.955   2.289   2.903  0.2763 -0.0046 -0.3693
10122TIP3    H151857   4.938   2.261   2.994 -0.8047 -1.6233 -1.0235
10122TIP3    H251858   4.882   2.348   2.883  0.9933  1.0605  0.0741
10123TIP3   OH251859   4.015   2.521  13.474 -0.0403  0.1156 -0.1370
10123TIP3    H151860   3.960   2.536  13.397 -0.2168 -0.0494 -0.0428
10123TIP3    H251861   3.961   2.466  13.531 -1.0548  2.5376  1.3784
10124TIP3   OH251862   4.341   5.582  15.853 -0.1727 -0.3600 -1.1464
10124TIP3    H151863   4.433   5.558  15.856 -0.4607 -1.4296  0.1417
10124TIP3    H251864   4.309   5.564  15.942 -1.3439  1.1439 -1.2140
10125TIP3   OH251865   5.146   5.554   1.012  0.1334 -0.9062  0.7153
10125TIP3    H151866   5.069   5.601   0.977 -0.0353 -1.4381  0.3606
10125TIP3    H251867   5.189   5.618   1.068 -0.6833 -0.6590  1.0810
10126TIP3   OH251868   5.722   4.054   5.223 -0.1320  0.3188  0.0968
10126TIP3    H151869   5.722   4.144   5.189  0.1254  0.8081  1.3237
10126TIP3    H251870   5.658   4.008   5.169  0.1227  1.1037 -0.9015
10127TIP3   OH251871   4.020   4.884   0.273  0.0833 -0.6411  0.1351
10127TIP3    H151872   4.089   4.820   0.289  3.6032  2.2883 -1.7289
10127TIP3    H251873   3.977   4.895   0.357  0.8566 -3.6647  1.0334
10128TIP3   OH251874   6.374   1.985   1.500 -0.3066 -0.2092  0.1233
10128TIP3    H151875   6.364   1.986   1.404 -4.6474 -0.0663  0.3659
10128TIP3    H251876   6.427   1.908   1.518  1.8897  0.5683 -2.3957
10129TIP3   OH251877   0.645   2.102   1.543  0.3567  0.3068 -0.7774
10129TIP3    H151878   0.595   2.062   1.614 -1.5395  1.8302 -1.1656
10129TIP3    H251879   0.617   2.055   1.465 -0.6624  1.2556 -1.0152
10130TIP3   OH251880   5.541   5.781  16.686 -0.1933 -0.4219 -0.3778
10130TIP3    H151881   5.628   5.821  16.676 -0.2015 -0.1821  0.4777
10130TIP3    H251882   5.505   5.822  16.764 -0.6645 -1.2794 -0.1432
10131TIP3   OH251883   6.367   5.158   1.642 -0.3668  0.1185 -0.1590
10131TIP3    H151884   6.296   5.095   1.653  0.4319 -0.9182 -0.7048
10131TIP3    H251885   6.330   5.241   1.670 -1.1980 -0.7339  1.4196
10132TIP3   OH251886   4.030   1.888   2.617 -0.4328  0.2724 -0.3645
10132TIP3    H151887   3.986   1.918   2.538  0.7039  0.5863 -0.8927
10132TIP3    H251888   3.959   1.853   2.671 -1.1121 -0.8932 -1.9309
10133TIP3   OH251889   5.753   2.528  14.508  0.3369  0.1952 -0.2858
10133TIP3    H151890   5.831   2.564  14.551 -0.3841  1.7510 -0.2299
10133TIP3    H251891   5.768   2.543  14.415  0.0648  0.5646 -0.2686
10134TIP3   OH251892   6.646   1.344   1.128  0.1816 -0.5093  0.4414
10134TIP3    H151893   6.653   1.301   1.213 -1.9628 -1.9135 -0.0217
10134TIP3    H251894   6.651   1.273   1.064  2.7204  0.5899 -0.7623
10135TIP3   OH251895   0.794   6.651  12.066 -0.5910  0.5052  0.3438
10135TIP3    H151896   0.792   6.666  11.972  0.8254 -1.7321 -0.1310
10135TIP3    H251897   0.731   6.580  12.081 -0.8215  0.8515  1.0784
10136TIP3   OH251898   4.822   4.390   2.019  0.2716 -0.4679  0.9459
10136TIP3    H151899   4.812   4.410   1.926  0.2126 -0.9368  0.8502
10136TIP3    H251900   4.750   4.436   2.062 -0.7991 -1.7138  0.5561
10137TIP3   OH251901   4.975   2.656   1.942  0.4977 -0.5060 -0.5584
10137TIP3    H151902   4.908   2.634   2.007  1.0929 -0.0965  0.2197
10137TIP3    H251903   4.926   2.688   1.867 -0.2051 -0.8401 -0.2510
10138TIP3   OH251904   3.141   3.365   5.373 -0.3074 -0.0920  0.2322
10138TIP3    H151905   3.056   3.325   5.356 -1.3262  0.4018  3.4565
10138TIP3    H251906   3.121   3.458   5.386  0.8830  0.1815  0.1737
10139TIP3   OH251907   5.177   3.662   0.642  0.1125  0.1121 -0.2456
10139TIP3    H151908   5.112   3.622   0.700  1.1559 -0.0314  0.8714
10139TIP3    H251909   5.196   3.595   0.577 -1.4691  0.4632 -1.1321
10140TIP3   OH251910   4.449   6.365  15.576  0.3816  0.0482  0.3245
10140TIP3    H151911   4.479   6.299  15.514 -1.8370 -1.0655  0.3517
10140TIP3    H251912   4.439   6.318  15.659 -2.9078 -0.1640 -0.0499
10141TIP3   OH251913   0.158   4.338  15.282 -0.0688  0.3467  0.2928
10141TIP3    H151914   0.159   4.309  15.191 -2.1335 -1.6593  0.8309
10141TIP3    H251915   0.100   4.414  15.282 -0.1445  0.2909 -0.0388
10142TIP3   OH251916   0.918   3.428  17.132 -0.0525  0.0655  0.1971
10142TIP3    H151917   0.900   3.522  17.132 -0.8208  0.1188 -3.7293
10142TIP3    H251918   0.989   3.417  17.194  0.7127  3.4052  0.1237
10143TIP3   OH251919   6.146   2.966  13.933 -0.7310 -0.1265 -0.1925
10143TIP3    H151920   6.205   2.982  14.007  0.2511 -0.5560 -0.8572
10143TIP3    H251921   6.112   3.053  13.911 -0.5154  0.1002  0.3410
10144TIP3   OH251922   5.901   5.479  13.353  0.1384  0.8706  0.6324
10144TIP3    H151923   5.890   5.392  13.391  1.1033  0.4766  0.0311
10144TIP3    H251924   5.968   5.521  13.409  0.2156  0.9571  0.4754
10145TIP3   OH251925   4.086   2.596   1.725  0.1925  0.0120 -0.1722
10145TIP3    H151926   4.154   2.612   1.659 -0.3697  0.1734 -0.7284
10145TIP3    H251927   4.010   2.570   1.674 -0.4986  0.9585  0.3536
10146TIP3   OH251928   2.875   2.782   2.677 -0.5852 -0.2027  0.0961
10146TIP3    H151929   2.864   2.863   2.728 -2.8115 -0.4767  0.1484
10146TIP3    H251930   2.889   2.714   2.743  0.0531 -0.0389  0.1291
10147TIP3   OH251931   6.463   5.215  11.649 -0.1052  0.2201 -0.3296
10147TIP3    H151932   6.431   5.153  11.714 -1.1899  0.0102 -1.0311
10147TIP3    H251933   6.434   5.300  11.681  1.7138  0.4572  0.8313
10148TIP3   OH251934   4.731   6.267  15.755  0.5016  0.1705 -0.1484
10148TIP3    H151935   4.676   6.271  15.676  0.6804  0.2444 -0.2682
10148TIP3    H251936   4.786   6.190  15.742  0.4867  0.1458 -0.0671
10149TIP3   OH251937   2.420   0.441   5.989  0.1505 -0.1523 -0.5128
10149TIP3    H151938   2.371   0.444   6.072  0.1710 -1.2628 -0.4457
10149TIP3    H251939   2.371   0.379   5.935  0.7214 -0.2304 -0.9487
10150TIP3   OH251940   3.226   0.669   6.288 -0.5938 -0.3913  0.3348
10150TIP3    H151941   3.224   0.640   6.197 -1.8410 -0.1998  0.2943
10150TIP3    H251942   3.303   0.625   6.326  0.6419  0.4322 -1.0923
10151TIP3   OH251943   4.268   4.277  11.884 -0.0549 -0.1079 -0.5263
10151TIP3    H151944   4.245   4.354  11.831 -0.0189 -1.3601 -2.4707
10151TIP3    H251945   4.347   4.243  11.843  0.4154 -0.7094  0.8458
10152TIP3   OH251946   4.517   1.349   4.751 -0.0027  0.1081 -0.1994
10152TIP3    H151947   4.429   1.333   4.718  0.4380  1.4769 -2.2257
10152TIP3    H251948   4.563   1.266   4.737 -0.4290  0.0059 -1.0501
10153TIP3   OH251949   1.275   5.032  11.940 -0.1076 -0.0848 -0.6148
10153TIP3    H151950   1.257   5.114  11.986 -0.6379 -0.9766  0.8378
10153TIP3    H251951   1.236   5.043  11.854  0.5631  1.4899 -0.7377
10154TIP3   OH251952   1.650   4.891  15.429  0.5275 -0.1184 -0.3029
10154TIP3    H151953   1.608   4.815  15.470 -1.8421  0.6172 -1.1759
10154TIP3    H251954   1.630   4.964  15.486 -2.6669  0.8889 -2.4505
10155TIP3   OH251955   0.432   6.304   0.807  0.0188  0.1974  0.6119
10155TIP3    H151956   0.461   6.291   0.897  0.9218 -0.2400  0.2700
10155TIP3    H251957   0.339   6.324   0.814 -0.0344 -0.3682  1.6085
10156TIP3   OH251958   0.273   5.088  13.848  0.2778  0.5797  0.0883
10156TIP3    H151959   0.367   5.103  13.855 -0.0471  3.8263 -0.7046
10156TIP3    H251960   0.236   5.138  13.921 -0.8734 -0.7812  0.4812
10157TIP3   OH251961   6.633   2.454  16.597  0.7038  0.2429 -0.3366
10157TIP3    H151962   6.580   2.376  16.579  0.5232 -0.0588  1.3688
10157TIP3    H251963   6.723   2.427  16.579  0.9213 -1.1245  2.2741
10158TIP3   OH251964   2.100   4.213  11.586  0.9984 -0.4672  0.2886
10158TIP3    H151965   2.073   4.132  11.627  0.8633  0.5827  2.3906
10158TIP3    H251966   2.026   4.238  11.530  1.0067 -1.6909 -0.2946
10159TIP3   OH251967   1.060   0.080   4.189 -0.3477  0.6523  0.2193
10159TIP3    H151968   1.066   0.165   4.146 -1.1583  1.7631  2.1730
10159TIP3    H251969   1.148   0.062   4.220 -0.1240  0.6664 -0.4059
10160TIP3   OH251970   0.618   6.738  11.620  0.5055 -0.4652 -0.3441
10160TIP3    H151971   0.656   6.731  11.707  1.0940 -0.3146 -0.5837
10160TIP3    H251972   0.694   6.746  11.561  0.1003 -0.1235 -0.8255
10161TIP3   OH251973   3.604   2.246  11.022 -0.2796 -0.3505 -0.0337
10161TIP3    H151974   3.602   2.166  10.970 -0.5763 -0.1536 -0.3315
10161TIP3    H251975   3.558   2.311  10.969  2.1818  0.7458 -0.9502
10162TIP3   OH251976   3.534   5.101  11.500 -0.2011  0.7395  0.3237
10162TIP3    H151977   3.512   5.011  11.475  0.8805  1.0939 -2.2779
10162TIP3    H251978   3.562   5.095  11.591 -2.1367 -1.1832  0.8661
10163TIP3   OH251979   4.162   5.732  16.929 -0.4041  0.5274 -0.1232
10163TIP3    H151980   4.242   5.785  16.938  0.5282 -0.5495 -1.6371
10163TIP3    H251981   4.136   5.714  17.020  2.5748 -1.2407  0.5291
10164TIP3   OH251982   0.293   5.037  13.444 -0.1159  0.4124  0.0310
10164TIP3    H151983   0.353   5.062  13.514 -1.1053  1.9982  0.3735
10164TIP3    H251984   0.257   5.120  13.414 -2.5983 -0.5134  0.2544
10165TIP3   OH251985   4.767   1.266  10.563 -0.1044 -0.6107  0.1329
10165TIP3    H151986   4.712   1.342  10.580 -0.1697 -0.6334  0.0222
10165TIP3    H251987   4.706   1.193  10.557 -0.1905 -0.4598 -1.1820
10166TIP3   OH251988   6.436   0.992   0.368 -0.1518 -0.0207  0.5248
10166TIP3    H151989   6.346   1.023   0.369 -0.6290 -1.3181 -0.2839
10166TIP3    H251990   6.476   1.035   0.293 -0.8515 -1.4286 -0.6832
10167TIP3   OH251991   3.906   3.041   1.131  0.4349  0.0843 -0.1945
10167TIP3    H151992   3.961   2.978   1.085 -1.2384 -0.6211 -1.3163
10167TIP3    H251993   3.966   3.084   1.193  2.3963 -0.1074 -1.8358
10168TIP3   OH251994   1.733   5.417   4.679 -0.1710  0.1164 -0.2768
10168TIP3    H151995   1.715   5.505   4.646  0.3929  0.3476  0.0139
10168TIP3    H251996   1.658   5.397   4.735 -0.8341 -0.0328 -1.1870
10169TIP3   OH251997   5.409   4.806  10.416  0.1909  0.2145 -0.0903
10169TIP3    H151998   5.377   4.853  10.339 -1.2575 -0.7124 -0.0941
10169TIP3    H251999   5.359   4.724  10.417  1.0917 -0.3558  1.1293
10170TIP3   OH252000   5.956   0.271  13.234 -0.3456  0.5835  0.9936
10170TIP3    H152001   5.980   0.272  13.142 -2.7770  0.9810  0.2787
10170TIP3    H252002   6.014   0.207  13.274  1.2291  0.9179 -0.6479
10171TIP3   OH252003   5.050   4.927   0.224  0.3447 -0.2515 -0.2553
10171TIP3    H152004   5.067   4.953   0.134  0.1075  1.3508  0.1358
10171TIP3    H252005   4.969   4.972   0.248  0.4913 -0.5133  0.8105
10172TIP3   OH252006   2.617   5.378   2.070  0.0144 -0.3047  0.0188
10172TIP3    H152007   2.646   5.310   2.009  1.0290 -1.8861  2.1370
10172TIP3    H252008   2.521   5.377   2.062  0.1263  0.9385 -2.8707
10173TIP3   OH252009   5.883   2.218   5.344 -0.6772 -0.8693  0.5161
10173TIP3    H152010   5.946   2.182   5.282  1.3887 -0.4706  2.2860
10173TIP3    H252011   5.798   2.209   5.300  0.7665  0.4502 -2.8293
10174TIP3   OH252012   2.442   5.899   6.403  0.0003 -0.3139 -0.4369
10174TIP3    H152013   2.411   5.817   6.364 -1.6950  0.6952 -1.3447
10174TIP3    H252014   2.368   5.959   6.393  1.1614  1.3019  0.2999
10175TIP3   OH252015   0.331   4.876   2.048 -0.1967  0.1933 -0.6918
10175TIP3    H152016   0.353   4.895   1.957 -0.9578 -0.6911 -1.0756
10175TIP3    H252017   0.313   4.961   2.087 -1.8820  0.4307 -1.9109
10176TIP3   OH252018   3.138   0.077  11.992 -0.1642 -0.1303 -0.1275
10176TIP3    H152019   3.112  -0.014  11.975  0.2792 -0.3419  0.2950
10176TIP3    H252020   3.164   0.077  12.084  0.0973  0.3668 -0.2009
10177TIP3   OH252021   6.647   4.923  11.503  0.6997  0.0700 -0.1561
10177TIP3    H152022   6.642   4.963  11.590  0.9234  1.7967 -0.8858
10177TIP3    H252023   6.740   4.909  11.488  0.6243 -0.7450  0.0846
10178TIP3   OH252024   3.888   1.937   5.633 -0.4170  0.4894 -0.1890
10178TIP3    H152025   3.914   1.846   5.622  0.9107  0.8989 -0.5608
10178TIP3    H252026   3.810   1.933   5.689 -0.9233 -0.9180 -0.9475
10179TIP3   OH252027   5.982   2.105   3.452  0.6520  0.0173  0.0913
10179TIP3    H152028   5.949   2.167   3.517 -1.9699  0.7033 -1.7441
10179TIP3    H252029   6.078   2.115   3.456  0.4809  1.5765  2.2849
10180TIP3   OH252030   0.962   5.304   0.898  0.0251  0.6204  0.7817
10180TIP3    H152031   1.028   5.240   0.923 -0.1122  0.1217 -0.1147
10180TIP3    H252032   0.933   5.341   0.982  1.0656  0.4925  1.2199
10181TIP3   OH252033   5.912   3.673  10.541 -0.0495  0.3060 -0.3103
10181TIP3    H152034   5.984   3.618  10.572  0.0731  0.5973 -0.0669
10181TIP3    H252035   5.938   3.700  10.453  0.3929  0.8485 -0.0188
10182TIP3   OH252036   3.289   3.958   3.584 -0.1290  0.1732 -0.7956
10182TIP3    H152037   3.334   3.897   3.643  1.3725  1.5297 -0.4522
10182TIP3    H252038   3.202   3.969   3.622 -0.2779 -1.3750 -0.6194
10183TIP3   OH252039   5.530   2.258  14.809 -0.2647  0.4337  0.3752
10183TIP3    H152040   5.536   2.283  14.717  1.7493 -0.5496  0.1742
10183TIP3    H252041   5.436   2.250  14.825 -0.6692  0.3616 -1.6749
10184TIP3   OH252042   6.060   3.091  16.866 -0.5881 -0.0297 -0.0126
10184TIP3    H152043   6.033   3.035  16.939  0.4848  0.0003  0.4269
10184TIP3    H252044   6.106   3.164  16.907 -0.1182  0.0737 -0.6994
10185TIP3   OH252045   5.310   2.215   4.677 -0.2970  0.0323  0.0580
10185TIP3    H152046   5.295   2.256   4.592 -1.2021  1.0706  0.6913
10185TIP3    H252047   5.280   2.280   4.741  2.7143  0.3619  1.3068
10186TIP3   OH252048   5.584   6.732  14.099 -0.3229  0.8841  0.4918
10186TIP3    H152049   5.638   6.784  14.159  1.3310 -0.0377 -0.1310
10186TIP3    H252050   5.494   6.748  14.128  0.1358  3.5671  0.7193
10187TIP3   OH252051   2.927   0.758  12.002 -0.1041 -0.6608  0.0556
10187TIP3    H152052   2.869   0.831  11.982 -1.0325 -1.3734  0.0943
10187TIP3    H252053   2.962   0.731  11.917  1.7039  0.9568  0.1911
10188TIP3   OH252054   1.536   5.996   4.641  0.3588 -0.3164  0.6291
10188TIP3    H152055   1.475   6.037   4.703 -1.4098 -1.4895 -0.2629
10188TIP3    H252056   1.610   5.967   4.696 -0.6783 -0.4058  2.0299
10189TIP3   OH252057   1.455   2.841  13.421 -0.2599 -0.5189  0.1678
10189TIP3    H152058   1.464   2.790  13.502  1.7145 -0.0943  0.2648
10189TIP3    H252059   1.543   2.841  13.384 -0.4942  1.7707 -0.4752
10190TIP3   OH252060   2.288   1.107   1.353  0.2056  0.1016  0.1947
10190TIP3    H152061   2.245   1.055   1.286  0.0135 -0.6160  0.8558
10190TIP3    H252062   2.232   1.099   1.430  0.9962 -0.0412  0.7779
10191TIP3   OH252063   2.034   1.334  16.281 -0.5083  0.7131  0.1527
10191TIP3    H152064   1.951   1.311  16.238  0.3855  0.0336 -1.2647
10191TIP3    H252065   2.089   1.368  16.211 -0.0167  2.4534  1.3318
10192TIP3   OH252066   3.023   6.484  11.240  0.3524 -0.2628 -0.2732
10192TIP3    H152067   3.009   6.470  11.146  1.0593 -1.1842 -0.2508
10192TIP3    H252068   3.070   6.406  11.269  0.5554  0.2329  0.7545
10193TIP3   OH252069   2.276   4.182   3.213 -0.0291  0.3658 -0.1568
10193TIP3    H152070   2.216   4.250   3.181  2.1490  1.9791 -1.0634
10193TIP3    H252071   2.292   4.126   3.138 -1.1041 -0.6610  0.3479
10194TIP3   OH252072   5.102   3.569   5.673  1.1035 -0.3059 -0.6169
10194TIP3    H152073   5.098   3.650   5.725 -0.9426 -0.9424  0.3111
10194TIP3    H252074   5.091   3.499   5.738  0.2764 -1.2112 -1.7123
10195TIP3   OH252075   2.516   5.892   1.343  0.4998 -0.0907  0.1821
10195TIP3    H152076   2.558   5.808   1.321  1.1259  0.2795 -0.0629
10195TIP3    H252077   2.515   5.894   1.438  1.3951  0.0683  0.1916
10196TIP3   OH252078   6.719   1.459   1.660  0.3500  0.7031 -0.0993
10196TIP3    H152079   6.796   1.426   1.612 -0.7632 -2.4546  0.0390
10196TIP3    H252080   6.689   1.533   1.607  1.2618 -0.4032 -2.3248
10197TIP3   OH252081   1.069   5.448  14.083  0.0095 -0.0692 -0.1373
10197TIP3    H152082   1.123   5.371  14.100 -0.3196 -0.4322 -0.6730
10197TIP3    H252083   1.003   5.448  14.152  0.6597  0.3530  0.4953
10198TIP3   OH252084   4.155   2.192   2.991  0.0866 -0.6300  0.5689
10198TIP3    H152085   4.073   2.210   3.038 -0.2248  0.5864 -0.3960
10198TIP3    H252086   4.206   2.273   2.999 -0.0588 -0.3029 -1.3013
10199TIP3   OH252087   3.487   5.929   2.975 -0.0622 -0.2346  0.1420
10199TIP3    H152088   3.434   6.004   2.951 -0.3069 -0.2778  0.5455
10199TIP3    H252089   3.494   5.877   2.894  0.1931  0.2665 -0.1603
10200TIP3   OH252090   4.195   4.670   1.297 -0.0567 -0.8373 -0.5476
10200TIP3    H152091   4.139   4.696   1.369  0.3213  0.3148 -0.6450
10200TIP3    H252092   4.174   4.578   1.281 -0.6985 -0.8816  0.5077
10201TIP3   OH252093   3.769   1.526  16.635  0.0482  0.4778  0.6567
10201TIP3    H152094   3.737   1.596  16.692  2.6313  1.2750  1.2626
10201TIP3    H252095   3.791   1.570  16.553 -1.1484 -0.2148 -0.0721
10202TIP3   OH252096   4.803   5.498  13.318 -0.7284  0.4330  0.4038
10202TIP3    H152097   4.742   5.425  13.324 -0.3859  0.2409  1.8980
10202TIP3    H252098   4.748   5.575  13.307 -1.1671  0.1086  0.3251
10203TIP3   OH252099   3.868   5.478   4.313  0.1966  0.1497 -0.4600
10203TIP3    H152100   3.954   5.456   4.351 -0.2289  1.4170  1.3925
10203TIP3    H252101   3.883   5.561   4.267  0.6639 -1.2849 -3.0948
10204TIP3   OH252102   0.038   5.787   1.664 -0.5658  0.4568 -0.0834
10204TIP3    H152103   0.005   5.748   1.583 -1.7290  2.3122 -0.5852
10204TIP3    H252104   0.132   5.770   1.663 -0.7230 -0.4878 -1.2835
10205TIP3   OH252105   2.973   2.004  12.461  0.0192  0.2131  0.2593
10205TIP3    H152106   2.965   1.924  12.513 -0.2407 -0.1002 -0.2508
10205TIP3    H252107   3.050   2.048  12.496  1.5293 -1.3708 -0.9395
10206TIP3   OH252108   3.427   3.046  14.928 -0.7599  0.3453  0.2338
10206TIP3    H152109   3.470   3.064  15.012  0.9500 -2.0581  0.0003
10206TIP3    H252110   3.463   3.111  14.869  1.6520 -0.6998  0.3975
10207TIP3   OH252111   5.008   4.792  15.610  0.2672  0.1081 -0.1682
10207TIP3    H152112   5.102   4.774  15.619  0.1177  0.2404  2.3101
10207TIP3    H252113   5.003   4.888  15.602  0.3008  0.2139  0.9508
10208TIP3   OH252114   3.543   2.505   4.471 -0.5502 -0.0195  0.0503
10208TIP3    H152115   3.486   2.432   4.492 -0.3071  0.2922  1.9297
10208TIP3    H252116   3.631   2.475   4.496 -0.2702  0.4756 -0.3111
10209TIP3   OH252117   5.661   3.991   3.287  0.5646  0.3062 -0.0374
10209TIP3    H152118   5.723   4.065   3.286  0.9451 -0.0121 -0.2599
10209TIP3    H252119   5.616   3.999   3.371 -0.0047  1.2849 -0.4129
10210TIP3   OH252120   2.314   3.515   3.420  0.4412 -0.2414  0.3300
10210TIP3    H152121   2.251   3.544   3.353 -0.4974 -1.6546  0.5451
10210TIP3    H252122   2.371   3.454   3.373 -0.3994 -1.4621  0.8372
10211TIP3   OH252123   2.923   0.840   2.108 -0.2809 -0.4340 -0.0425
10211TIP3    H152124   2.878   0.776   2.053  1.4036 -1.3932 -0.3672
10211TIP3    H252125   2.962   0.789   2.179 -0.3615  0.4730  0.6849
10212TIP3   OH252126   6.017   4.314   3.407 -0.3477  0.0386 -0.3184
10212TIP3    H152127   6.063   4.271   3.335  0.6359 -0.1418  0.3956
10212TIP3    H252128   5.995   4.401   3.373  3.2704  1.3554  0.2569
10213TIP3   OH252129   4.535   0.631  14.711 -0.0544 -0.4375 -0.4762
10213TIP3    H152130   4.595   0.573  14.663 -1.4954 -1.4397 -1.1364
10213TIP3    H252131   4.488   0.572  14.771 -0.7318  0.2420 -0.3273
10214TIP3   OH252132   6.146   1.671  16.871  0.2519 -0.4571  0.1103
10214TIP3    H152133   6.168   1.664  16.778  0.8697  1.0211  0.1263
10214TIP3    H252134   6.138   1.765  16.888 -1.3919 -0.7535  1.2232
10215TIP3   OH252135   3.866   1.722   2.049  0.1613  0.1823  0.0285
10215TIP3    H152136   3.917   1.645   2.075  1.2454  0.4998 -1.0793
10215TIP3    H252137   3.931   1.785   2.019 -0.8813 -0.4891 -4.4206
10216TIP3   OH252138   4.766   6.647  12.620  0.5745 -0.1182 -0.5794
10216TIP3    H152139   4.801   6.702  12.690 -0.9807  0.4939 -0.2524
10216TIP3    H252140   4.806   6.682  12.540  0.1338  1.0733 -0.3015
10217TIP3   OH252141   0.629   2.568   2.744  0.4910  0.2561 -0.5595
10217TIP3    H152142   0.634   2.561   2.840 -2.5906 -2.1944 -0.4258
10217TIP3    H252143   0.671   2.489   2.711 -0.4777 -0.0448 -1.1018
10218TIP3   OH252144   1.901   5.585   6.013 -0.0443  0.3363  0.3909
10218TIP3    H152145   1.879   5.660   6.068 -0.9738  1.2083 -1.1118
10218TIP3    H252146   1.959   5.620   5.945  0.7932 -0.6395  0.5756
10219TIP3   OH252147   5.604   3.521  15.720 -1.2304 -0.9358 -1.0062
10219TIP3    H152148   5.669   3.567  15.667  1.1633 -2.5910  0.2643
10219TIP3    H252149   5.571   3.452  15.664  0.4785 -2.0048 -0.7628
10220TIP3   OH252150   3.765   2.567   1.122  0.9421 -0.0061 -0.2852
10220TIP3    H152151   3.754   2.472   1.116  1.0255 -0.0890  0.8157
10220TIP3    H252152   3.780   2.595   1.031 -0.8845 -0.8176 -0.8932
10221TIP3   OH252153   5.857   0.007  16.957  0.0969 -0.1107  0.4316
10221TIP3    H152154   5.929   0.064  16.930 -0.6222  0.3367 -0.6465
10221TIP3    H252155   5.895  -0.081  16.959  0.8761  0.2251  0.7194
10222TIP3   OH252156   0.253   0.650   4.178 -0.2370 -0.2978 -0.1356
10222TIP3    H152157   0.239   0.703   4.257  1.3426 -0.4098  0.2492
10222TIP3    H252158   0.165   0.637   4.142 -1.1880 -1.3053  2.3137
10223TIP3   OH252159   6.440   3.699   1.343 -0.0309 -0.7550  0.2730
10223TIP3    H152160   6.512   3.740   1.391 -0.2179  0.3855 -0.3886
10223TIP3    H252161   6.397   3.644   1.408  0.8727 -0.7295  0.9162
10224TIP3   OH252162   3.775   3.898   2.913 -0.1185  1.0174  0.2477
10224TIP3    H152163   3.713   3.851   2.969  0.3083 -2.1001 -1.6316
10224TIP3    H252164   3.728   3.911   2.830  1.0614  0.2169 -0.5940
10225TIP3   OH252165   4.702   2.443  12.414 -0.0523  0.0800  0.0796
10225TIP3    H152166   4.624   2.461  12.467 -0.7141  0.0422 -0.8638
10225TIP3    H252167   4.728   2.529  12.380 -0.5673 -0.1046 -0.8025
10226TIP3   OH252168   3.279   4.478  13.952 -0.3452  0.1571  0.4408
10226TIP3    H152169   3.193   4.521  13.948 -0.3280  0.1203 -0.5820
10226TIP3    H252170   3.339   4.547  13.980 -0.5111  0.5178 -0.0607
10227TIP3   OH252171   5.399   2.650  16.665  0.0151 -0.0754 -0.4956
10227TIP3    H152172   5.355   2.615  16.741  1.2914 -0.3802  0.1298
10227TIP3    H252173   5.365   2.739  16.656 -1.3679 -0.5977 -0.5842
10228TIP3   OH252174   0.769   5.254   1.415 -0.9678 -0.1794  0.9924
10228TIP3    H152175   0.850   5.260   1.465 -0.1602  0.2836 -0.3435
10228TIP3    H252176   0.727   5.174   1.448  1.1808 -1.7829  0.0768
10229TIP3   OH252177   6.129   0.895  14.455  0.5272  0.3044  0.3262
10229TIP3    H152178   6.213   0.891  14.500 -0.2648 -2.6088  1.7923
10229TIP3    H252179   6.064   0.893  14.525 -0.7660  0.4507 -0.8195
10230TIP3   OH252180   2.242   6.780  14.710  0.1198  0.1620  0.0208
10230TIP3    H152181   2.174   6.827  14.663 -0.0532 -1.3193 -1.2979
10230TIP3    H252182   2.324   6.821  14.682 -0.1563  2.1223  1.8081
10231TIP3   OH252183   2.454   3.225   5.748 -0.1666  0.3839  0.3127
10231TIP3    H152184   2.524   3.239   5.685 -0.0997  2.2942  0.7436
10231TIP3    H252185   2.438   3.131   5.747  0.5886  0.2393 -1.7178
10232TIP3   OH252186   3.898   1.087  12.198 -0.5098 -0.0426  0.2066
10232TIP3    H152187   3.954   1.013  12.173 -0.9065 -0.0695 -0.6276
10232TIP3    H252188   3.941   1.163  12.159 -1.7158 -0.2194 -1.5526
10233TIP3   OH252189   5.967   5.840  12.432  0.3478 -0.6567  0.0260
10233TIP3    H152190   5.971   5.932  12.457  1.3715 -0.3474 -1.1894
10233TIP3    H252191   5.997   5.792  12.509 -2.1390 -0.1471  1.3955
10234TIP3   OH252192   4.140   1.283   2.149 -0.0312  0.0153 -0.1297
10234TIP3    H152193   4.201   1.273   2.076 -0.0926 -2.3156  0.0763
10234TIP3    H252194   4.102   1.196   2.161  0.5640  0.0800  3.2138
10235TIP3   OH252195   1.156   3.122  17.088  0.5339  0.3770  0.1963
10235TIP3    H152196   1.138   3.145  17.179  0.4040 -1.0061  0.5532
10235TIP3    H252197   1.092   3.053  17.068  0.0919  1.1450 -1.1816
10236TIP3   OH252198   6.331   5.335  10.650  0.6357 -0.0622 -0.3048
10236TIP3    H152199   6.391   5.410  10.648 -0.3289  0.7212 -0.7167
10236TIP3    H252200   6.257   5.363  10.596 -0.2404 -0.8884  0.4495
10237TIP3   OH252201   4.330   2.133  17.076  0.3170  0.7611  0.0601
10237TIP3    H152202   4.269   2.182  17.131  2.6797  0.8025  2.9080
10237TIP3    H252203   4.386   2.200  17.037 -0.2372  0.6284 -0.9737
10238TIP3   OH252204   4.992   3.160   0.443  0.2605  0.5506 -0.2573
10238TIP3    H152205   5.046   3.201   0.376 -0.2437  2.3958  0.3853
10238TIP3    H252206   4.941   3.094   0.396  0.1621  1.5679 -1.6379
10239TIP3   OH252207   0.894   4.098  11.445 -0.3204  0.5967  0.3937
10239TIP3    H152208   0.914   4.063  11.532  0.0565  1.2183  0.5660
10239TIP3    H252209   0.832   4.036  11.408 -0.7708  0.5182  1.2505
10240TIP3   OH252210   0.594   1.755  13.642  0.1051 -0.0185  0.0993
10240TIP3    H152211   0.644   1.772  13.562 -1.0489 -0.2637 -0.7151
10240TIP3    H252212   0.505   1.736  13.610 -0.0083 -1.7802  1.3185
10241TIP3   OH252213   2.528   5.649   1.130  0.7296 -0.2225  0.2218
10241TIP3    H152214   2.577   5.731   1.122 -1.6601  1.2407 -0.4179
10241TIP3    H252215   2.566   5.592   1.064  0.5117  1.4768 -1.4687
10242TIP3   OH252216   4.331   0.569  11.503 -0.0721 -0.1217  0.6467
10242TIP3    H152217   4.312   0.499  11.565  1.5053 -1.3309 -0.1589
10242TIP3    H252218   4.350   0.523  11.421 -2.6506  1.4337 -0.9492
10243TIP3   OH252219   4.624   4.071  11.193  0.1731 -0.0976  1.0822
10243TIP3    H152220   4.699   4.022  11.160 -0.1082 -0.0904  0.4158
10243TIP3    H252221   4.652   4.162  11.193  0.1254 -0.0804  0.7077
10244TIP3   OH252222   3.905   1.080  14.863  0.3190 -0.6425 -0.8786
10244TIP3    H152223   3.819   1.118  14.843  0.7509  0.7428 -0.1735
10244TIP3    H252224   3.914   1.087  14.958 -0.1613 -3.8468 -0.4730
10245TIP3   OH252225   4.782   1.509  15.054 -0.4968  0.3536 -0.0485
10245TIP3    H152226   4.769   1.600  15.078  0.3179  0.6430 -0.6447
10245TIP3    H252227   4.694   1.475  15.040 -0.7794  1.2847 -0.6405
10246TIP3   OH252228   4.904   4.890  14.799 -0.4845 -0.6579  0.0948
10246TIP3    H152229   4.933   4.887  14.890 -2.3637  0.6126  0.7995
10246TIP3    H252230   4.932   4.806  14.762 -0.2049 -1.4587  2.0028
10247TIP3   OH252231   0.551   3.812   1.111 -0.1948 -0.8392 -0.2764
10247TIP3    H152232   0.499   3.885   1.078  1.1049 -0.3774 -1.3715
10247TIP3    H252233   0.518   3.798   1.200  0.1157  1.6798  0.3137
10248TIP3   OH252234   5.367   3.382  12.413  0.3978 -0.7190  0.5709
10248TIP3    H152235   5.384   3.428  12.331  2.7661 -0.3658  1.1819
10248TIP3    H252236   5.331   3.450  12.471 -1.2798 -0.9709 -0.1239
10249TIP3   OH252237   2.523   0.194   3.265 -0.2352  0.1130 -0.8790
10249TIP3    H152238   2.491   0.113   3.225 -0.3343  0.7579 -2.1612
10249TIP3    H252239   2.463   0.261   3.233 -0.7063  0.5881  0.9025
10250TIP3   OH252240   1.621   3.753  15.936  0.2057 -0.4615  0.1064
10250TIP3    H152241   1.711   3.723  15.951  0.4594  0.0468 -0.3539
10250TIP3    H252242   1.622   3.845  15.961 -0.1189 -0.3874 -0.1451
10251TIP3   OH252243   6.777   5.666   1.453  0.6792 -0.6976  0.4232
10251TIP3    H152244   6.707   5.676   1.389  1.9435 -0.0629 -0.9005
10251TIP3    H252245   6.787   5.572   1.464 -0.9008 -0.8051  1.2510
10252TIP3   OH252246   3.054   5.222   4.776  0.3006 -0.0957  0.4203
10252TIP3    H152247   3.090   5.308   4.800 -0.3001  0.2082  0.2417
10252TIP3    H252248   2.980   5.241   4.719  1.3430 -0.8046 -1.2261
10253TIP3   OH252249   4.027   3.062  15.667  0.1052 -0.0378 -0.6576
10253TIP3    H152250   4.081   3.121  15.721 -1.3343 -0.6225  1.5543
10253TIP3    H252251   4.002   3.116  15.592  0.7031  1.4301  0.1374
10254TIP3   OH252252   2.206   5.495  11.488 -0.1389  0.0299  0.4987
10254TIP3    H152253   2.222   5.404  11.463 -0.5763  0.1597 -0.3018
10254TIP3    H252254   2.161   5.489  11.572  0.7137 -0.4532  0.9251
10255TIP3   OH252255   3.162   0.239   5.007 -0.5674 -0.4126  0.1706
10255TIP3    H152256   3.109   0.160   4.996  0.2654 -1.1209  1.0834
10255TIP3    H252257   3.115   0.291   5.073  0.5905 -1.7515  2.1605
10256TIP3   OH252258   2.339   3.642   4.750  0.2911  0.2200  0.3041
10256TIP3    H152259   2.395   3.633   4.673 -1.7670  1.5033 -1.4459
10256TIP3    H252260   2.334   3.736   4.765 -1.6810  0.1690  0.1551
10257TIP3   OH252261   1.857   0.984   2.265 -0.1958  0.5854 -0.2767
10257TIP3    H152262   1.823   1.037   2.193  2.0761  2.6171  0.0250
10257TIP3    H252263   1.939   0.948   2.231 -1.0807 -1.8595 -0.0363
10258TIP3   OH252264   1.810   2.194   0.381  0.5830  0.2656 -0.5252
10258TIP3    H152265   1.774   2.127   0.323 -0.2402  0.5499 -0.3451
10258TIP3    H252266   1.863   2.144   0.444 -0.5652 -0.2892  0.0159
10259TIP3   OH252267   3.254   0.812  14.755  0.1503  0.0957 -0.6109
10259TIP3    H152268   3.210   0.896  14.742  1.4388  0.9212  0.0946
10259TIP3    H252269   3.344   0.835  14.775  0.6181 -1.4881 -0.7294
10260TIP3   OH252270   6.022   3.939  12.061 -0.3140  0.5710 -0.0833
10260TIP3    H152271   5.977   3.856  12.045 -0.2557  0.1320  1.7761
10260TIP3    H252272   6.075   3.954  11.983 -1.6637 -0.2323 -1.1961
10261TIP3   OH252273   5.208   2.668   2.991  0.2642 -0.3365  0.0021
10261TIP3    H152274   5.189   2.584   2.949 -2.3341 -0.5605  1.3963
10261TIP3    H252275   5.148   2.671   3.066  1.2919  2.1492  0.8101
10262TIP3   OH252276   2.871   5.532  15.366  0.8187 -0.0735 -0.2909
10262TIP3    H152277   2.902   5.449  15.330  0.2524 -0.3434 -0.1683
10262TIP3    H252278   2.951   5.577  15.394  0.9816 -2.1257  3.0721
10263TIP3   OH252279   0.852   6.788   0.122  0.1518  0.4075 -0.7368
10263TIP3    H152280   0.822   6.711   0.170  3.3157 -0.7111 -0.3756
10263TIP3    H252281   0.773   6.820   0.077 -1.5205 -2.2757  0.0558
10264TIP3   OH252282   5.058   3.000   6.802  0.8161  0.2745  0.0408
10264TIP3    H152283   4.999   3.075   6.799  2.0197  1.2079 -0.7151
10264TIP3    H252284   5.139   3.034   6.839  1.2517 -0.7486  0.0547
10265TIP3   OH252285   3.189   0.854  14.170 -0.4422  0.2465 -0.1155
10265TIP3    H152286   3.202   0.904  14.251  1.3088  0.4105 -0.4614
10265TIP3    H252287   3.103   0.881  14.139 -1.0573  0.3554  1.5555
10266TIP3   OH252288   4.701   4.790  10.542  0.4184  0.4167 -0.1871
10266TIP3    H152289   4.690   4.724  10.610  0.9340 -0.8360 -1.2676
10266TIP3    H252290   4.670   4.871  10.581  0.5882 -0.2955  1.4806
10267TIP3   OH252291   1.308   2.644   1.801 -0.4506  0.5906 -0.2686
10267TIP3    H152292   1.337   2.598   1.880 -3.4850  0.1544  0.7130
10267TIP3    H252293   1.290   2.733   1.830 -1.5204  0.4480 -0.4692
10268TIP3   OH252294   3.276   4.995  12.071 -0.3425 -0.6037 -0.4678
10268TIP3    H152295   3.370   4.983  12.087 -0.2707 -1.8483 -1.6724
10268TIP3    H252296   3.270   5.024  11.980 -1.1788 -1.7383 -0.7917
10269TIP3   OH252297   3.860   1.024  13.882  0.4402 -0.1900  0.8180
10269TIP3    H152298   3.843   0.930  13.873 -0.5670  0.1092 -0.8083
10269TIP3    H252299   3.956   1.031  13.884  0.5639 -1.1773 -0.2830
10270TIP3   OH252300   2.504   4.932  11.057  0.2771  0.3142 -0.7100
10270TIP3    H152301   2.534   4.982  11.134  0.0062 -0.4132 -0.1183
10270TIP3    H252302   2.430   4.983  11.023  1.6929  1.7658 -1.7733
10271TIP3   OH252303   1.481   2.624   2.094  0.0292  0.8534 -0.4476
10271TIP3    H152304   1.463   2.695   2.156 -1.0340  0.2034  0.0229
10271TIP3    H252305   1.576   2.621   2.088  0.1323  1.2957  0.7239
10272TIP3   OH252306   3.160   1.636   0.791 -0.3015 -0.1382 -0.5214
10272TIP3    H152307   3.077   1.632   0.743  0.1654 -1.6044 -1.2781
10272TIP3    H252308   3.212   1.699   0.742 -0.5336 -0.1509 -0.7915
10273TIP3   OH252309   3.067   4.347   5.075  0.3101 -0.0020  0.3515
10273TIP3    H152310   3.026   4.260   5.077 -0.5990  0.4243  1.9730
10273TIP3    H252311   3.143   4.340   5.133  0.0523  0.3521  0.7403
10274TIP3   OH252312   3.809   2.931   0.614 -0.1557 -0.8104  0.1779
10274TIP3    H152313   3.750   2.991   0.569  0.4812 -0.0502  0.3264
10274TIP3    H252314   3.770   2.844   0.601  0.1191 -0.6646 -2.0576
10275TIP3   OH252315   6.820   0.094  13.826 -0.1603  0.6309 -0.0129
10275TIP3    H152316   6.811   0.129  13.915 -0.5296  0.5679 -0.0249
10275TIP3    H252317   6.837   0.000  13.840  0.6109  0.7670  0.0119
10276TIP3   OH252318   0.580   3.284   5.595  0.1062  0.1376 -0.6630
10276TIP3    H152319   0.603   3.364   5.643 -0.0262  0.5936 -1.3515
10276TIP3    H252320   0.526   3.234   5.657 -0.4354  0.9231 -0.4928
10277TIP3   OH252321   3.590   4.784  14.803 -0.0513 -0.8101 -0.1062
10277TIP3    H152322   3.625   4.803  14.889 -2.1317  1.0351  0.4472
10277TIP3    H252323   3.509   4.736  14.820 -1.4940  1.2193 -0.8369
10278TIP3   OH252324   5.098   4.178   4.128  0.2097  0.2197 -0.0200
10278TIP3    H152325   5.166   4.244   4.143  2.1199 -1.5256 -0.4541
10278TIP3    H252326   5.135   4.097   4.164 -1.9169 -0.7072  0.2429
10279TIP3   OH252327   1.425   4.697   2.988 -0.8775  0.1010 -0.3815
10279TIP3    H152328   1.487   4.686   2.916  0.0492 -1.1423  0.5745
10279TIP3    H252329   1.356   4.753   2.951 -0.7987 -1.0668 -2.4782
10280TIP3   OH252330   0.057   3.958  13.321 -0.5426 -0.2715 -0.0271
10280TIP3    H152331   0.065   4.031  13.259  0.1141 -0.5307 -0.2567
10280TIP3    H252332   0.003   3.894  13.274 -0.8911 -0.0512  0.0680
10281TIP3   OH252333   4.577   5.275   4.361  0.0857  0.2869  0.5690
10281TIP3    H152334   4.573   5.179   4.365 -1.2401  0.2860 -0.0318
10281TIP3    H252335   4.512   5.298   4.294 -0.3038  1.6421  1.3782
10282TIP3   OH252336   3.683   5.727  13.632 -0.2031  0.1861 -0.8888
10282TIP3    H152337   3.599   5.744  13.588 -0.2082 -1.8933 -1.7698
10282TIP3    H252338   3.748   5.761  13.570 -0.2630 -1.7010 -2.0486
10283TIP3   OH252339   3.661   3.713   4.653 -0.3934  0.2042  0.2093
10283TIP3    H152340   3.697   3.801   4.641 -0.2517  0.4252  1.9734
10283TIP3    H252341   3.722   3.670   4.712  0.0981 -1.4734 -1.4559
10284TIP3   OH252342   1.752   3.385  13.694 -0.0588  0.1490  0.2288
10284TIP3    H152343   1.784   3.454  13.751  0.0967 -0.5973  1.0746
10284TIP3    H252344   1.657   3.388  13.704 -0.0931  0.6302 -0.2114
10285TIP3   OH252345   1.761   2.615  14.414 -0.6866 -0.0279  0.1689
10285TIP3    H152346   1.680   2.654  14.448 -0.2469 -0.5655  1.9401
10285TIP3    H252347   1.744   2.520  14.415 -0.3172 -0.0987 -0.2159
10286TIP3   OH252348   1.609   1.308   5.786 -0.7775 -0.0415 -0.0203
10286TIP3    H152349   1.575   1.374   5.847 -0.5470 -0.5394  0.6558
10286TIP3    H252350   1.594   1.225   5.831 -0.4232 -0.3982 -0.5652
10287TIP3   OH252351   6.183   4.648  13.272 -0.6469  0.5545 -0.0191
10287TIP3    H152352   6.146   4.679  13.189 -1.0369 -3.7496 -1.7350
10287TIP3    H252353   6.108   4.643  13.332 -0.8713  1.2400 -0.2351
10288TIP3   OH252354   5.948   4.937  16.422 -0.5461  0.4433 -1.0875
10288TIP3    H152355   5.904   4.862  16.382 -1.3664  0.0092  0.5162
10288TIP3    H252356   6.002   4.898  16.492 -0.2880  1.2706 -0.8066
10289TIP3   OH252357   5.453   4.526  12.237 -0.0921  0.7697  0.6727
10289TIP3    H152358   5.373   4.572  12.212 -0.9371 -1.9946 -2.4257
10289TIP3    H252359   5.424   4.437  12.259  2.0326 -0.1991 -0.1273
10290TIP3   OH252360   1.138   0.728  14.702  0.4872  0.1421 -0.3387
10290TIP3    H152361   1.227   0.698  14.685  0.9802  1.1435  0.3415
10290TIP3    H252362   1.096   0.727  14.616  0.7719 -1.4884 -0.4851
10291TIP3   OH252363   5.316   6.207  14.677  0.1371  0.2306  0.7247
10291TIP3    H152364   5.397   6.170  14.641  0.1862  1.2950 -0.2882
10291TIP3    H252365   5.288   6.271  14.612 -2.0802 -0.8201  0.5640
10292TIP3   OH252366   3.728   4.769  16.209  0.1975 -0.1185  0.0194
10292TIP3    H152367   3.645   4.814  16.196 -0.5335 -1.0117  1.3912
10292TIP3    H252368   3.786   4.835  16.247  0.1963  0.5668 -1.1441
10293TIP3   OH252369   5.471   5.656   2.112  0.6118 -0.3431  0.2675
10293TIP3    H152370   5.497   5.725   2.172  0.3744 -1.0492  1.2059
10293TIP3    H252371   5.518   5.676   2.031 -0.5128  1.6711  0.0664
10294TIP3   OH252372   3.761   5.612   3.684 -0.4333  0.0982 -0.3832
10294TIP3    H152373   3.757   5.580   3.775 -0.6781  0.2633 -0.3361
10294TIP3    H252374   3.732   5.537   3.632 -0.2581 -0.0095 -0.3294
10295TIP3   OH252375   1.291   3.995   4.298 -0.1072  0.4638 -0.1871
10295TIP3    H152376   1.351   4.036   4.236  0.6784  0.2090  0.4007
10295TIP3    H252377   1.230   4.065   4.321  1.1298  1.2892  0.6909
10296TIP3   OH252378   2.882   1.245   4.520  0.1964 -0.5395 -0.2100
10296TIP3    H152379   2.854   1.153   4.526 -1.4808 -0.1205 -0.9181
10296TIP3    H252380   2.848   1.285   4.600 -0.6707 -0.1694 -0.7514
10297TIP3   OH252381   3.712   2.384   3.097 -0.2997 -0.0582  0.5036
10297TIP3    H152382   3.642   2.437   3.059  0.1041  0.0623 -0.0730
10297TIP3    H252383   3.763   2.446   3.149 -1.7865 -0.4927  2.6518
10298TIP3   OH252384   4.561   0.336  13.857 -0.2410 -0.4348 -0.5249
10298TIP3    H152385   4.604   0.377  13.932 -0.0753  0.0107 -0.8526
10298TIP3    H252386   4.633   0.304  13.803 -0.3744 -1.2336 -0.2349
10299TIP3   OH252387   0.538   0.027   2.039  0.1222  0.3976  0.5630
10299TIP3    H152388   0.611   0.031   2.101 -0.5740 -1.2497  1.5735
10299TIP3    H252389   0.467  -0.013   2.089 -1.6635  2.3827 -0.2430
10300TIP3   OH252390   6.437   2.801   6.579  0.4532  0.3843 -0.4516
10300TIP3    H152391   6.507   2.864   6.562  0.4611  0.8016  1.0267
10300TIP3    H252392   6.454   2.730   6.517  2.6855  0.0808  0.4115
10301TIP3   OH252393   5.599   2.416   6.142 -0.0966 -0.2495 -0.1152
10301TIP3    H152394   5.531   2.412   6.210 -0.4920 -1.2908 -0.5479
10301TIP3    H252395   5.560   2.370   6.067  1.0120 -0.6897 -0.4406
10302TIP3   OH252396   6.679   5.468  14.167  0.1739  0.0618 -0.6565
10302TIP3    H152397   6.695   5.438  14.078 -0.5707  1.3487 -1.2402
10302TIP3    H252398   6.762   5.454  14.213  0.2615 -1.5698 -1.2560
10303TIP3   OH252399   2.080   4.943  15.678 -0.4981 -0.4197  0.4214
10303TIP3    H152400   2.030   5.024  15.688 -0.1541  0.0036 -1.0418
10303TIP3    H252401   2.039   4.898  15.604  2.0033  0.5889 -1.7439
10304TIP3   OH252402   5.138   2.185  16.997 -0.5571 -0.2776  0.2371
10304TIP3    H152403   5.120   2.279  16.999 -0.1096 -0.1929  0.3546
10304TIP3    H252404   5.053   2.144  17.016 -0.8877  0.0859 -0.4236
10305TIP3   OH252405   1.289   0.741  15.927  0.0508  0.3916  0.2981
10305TIP3    H152406   1.381   0.717  15.927 -0.6395 -2.8135 -0.7093
10305TIP3    H252407   1.268   0.757  15.835 -0.0384  3.0960  0.7245
10306TIP3   OH252408   3.792   3.079   4.726 -0.0924 -1.0266 -0.1016
10306TIP3    H152409   3.721   3.093   4.788  0.7356  0.6852  0.5333
10306TIP3    H252410   3.851   3.019   4.771  1.4197  1.5832  1.6986
10307TIP3   OH252411   2.005   0.881  12.745 -0.2927  0.0308  0.4708
10307TIP3    H152412   2.050   0.797  12.753 -0.8438 -0.4208 -0.9370
10307TIP3    H252413   2.004   0.899  12.651 -3.2787 -0.1107  0.3940
10308TIP3   OH252414   4.663   1.252  17.004 -0.4565  0.9302  0.3796
10308TIP3    H152415   4.667   1.328  17.063  1.4569 -0.9159  2.8590
10308TIP3    H252416   4.752   1.241  16.973 -1.1143  0.8207 -1.5725
10309TIP3   OH252417   6.545   3.279  13.972 -0.7014 -0.2506  0.0545
10309TIP3    H152418   6.576   3.212  14.034  1.1224  1.1741  0.7921
10309TIP3    H252419   6.624   3.303  13.923 -1.3983  1.0711 -0.4485
10310TIP3   OH252420   3.886   2.753   6.041  0.3172  0.4372 -0.0699
10310TIP3    H152421   3.846   2.708   6.116  1.0768 -0.8984 -0.4439
10310TIP3    H252422   3.812   2.785   5.990 -0.2216  0.6694  0.8264
10311TIP3   OH252423   1.181   5.731   0.275  0.0616 -0.6036  0.8887
10311TIP3    H152424   1.092   5.719   0.307 -0.5988  0.0585 -0.6098
10311TIP3    H252425   1.220   5.794   0.335 -0.6643 -0.4656  1.2213
10312TIP3   OH252426   5.015   2.083   4.370  0.1496  0.4254  0.4862
10312TIP3    H152427   5.028   2.069   4.463  0.0598  1.9809  0.7624
10312TIP3    H252428   4.967   2.165   4.364  1.0123  0.8836 -0.9551
10313TIP3   OH252429   6.642   5.756   5.383  0.1633 -0.0310 -0.0025
10313TIP3    H152430   6.647   5.732   5.291 -0.4972  2.0277 -0.6234
10313TIP3    H252431   6.726   5.797   5.402 -0.1120  0.5401 -0.0034
10314TIP3   OH252432   5.814   5.487   4.860  0.5515  0.2411 -0.4414
10314TIP3    H152433   5.783   5.397   4.865  0.4670  0.0792 -2.8528
10314TIP3    H252434   5.883   5.486   4.793 -0.5076  2.1926 -1.6754
10315TIP3   OH252435   6.668   5.364  15.580 -0.1816  0.2079 -0.3489
10315TIP3    H152436   6.575   5.362  15.599 -0.0496  0.1470  0.3122
10315TIP3    H252437   6.676   5.423  15.505 -0.3763  3.4794  1.9571
10316TIP3   OH252438   0.624   1.767  12.183 -0.0359  0.0069 -0.3147
10316TIP3    H152439   0.688   1.769  12.255 -0.4055  0.2890  0.0144
10316TIP3    H252440   0.675   1.743  12.106  0.5022  0.4219 -0.0939
10317TIP3   OH252441   6.823   4.652   6.232  0.0572 -0.1275 -0.1667
10317TIP3    H152442   6.829   4.686   6.143  0.4209 -0.5848 -0.3198
10317TIP3    H252443   6.907   4.609   6.248  0.2017  0.4123  0.5918
10318TIP3   OH252444   2.784   6.101   5.555 -0.0963  0.0664  1.0588
10318TIP3    H152445   2.694   6.096   5.587 -0.3615 -1.5645  0.1485
10318TIP3    H252446   2.837   6.099   5.635 -0.8272 -1.2224  1.5470
10319TIP3   OH252447   6.757   0.516  16.188 -0.3798  0.1052 -0.3053
10319TIP3    H152448   6.744   0.553  16.101 -0.3832 -2.0596 -1.3030
10319TIP3    H252449   6.671   0.518  16.229 -0.3631  1.2051 -0.3150
10320TIP3   OH252450   1.484   4.588   2.270  0.4025  0.2971  0.1811
10320TIP3    H152451   1.563   4.632   2.303  0.6970  0.4903 -0.7371
10320TIP3    H252452   1.419   4.600   2.339  0.4464  2.2728 -0.0366
10321TIP3   OH252453   3.470   0.911  11.456  0.4554  0.3245  0.5104
10321TIP3    H152454   3.387   0.868  11.475 -0.3602  2.0358  1.0089
10321TIP3    H252455   3.536   0.848  11.486 -0.6184 -1.1414 -0.0505
10322TIP3   OH252456   2.725   5.906  16.172  0.1579  0.0311 -0.1241
10322TIP3    H152457   2.654   5.843  16.153  0.9057 -1.1548  0.8819
10322TIP3    H252458   2.680   5.990  16.183 -1.1341 -0.7389  0.7370
10323TIP3   OH252459   2.613   0.039  13.527 -0.8835  0.4313 -0.5352
10323TIP3    H152460   2.654  -0.014  13.458 -2.8496 -1.3032 -0.4442
10323TIP3    H252461   2.578   0.116  13.480  1.0974  1.2196 -0.8185
10324TIP3   OH252462   6.022   2.431   4.208  0.6698  0.3936 -0.2843
10324TIP3    H152463   5.970   2.489   4.264 -1.4325 -0.0612 -1.6401
10324TIP3    H252464   6.064   2.490   4.146 -0.3821  0.6102 -0.8181
10325TIP3   OH252465   4.587   1.931  14.426 -0.1715  0.1659 -0.4887
10325TIP3    H152466   4.538   1.986  14.364 -1.0879 -0.7664 -0.6174
10325TIP3    H252467   4.656   1.891  14.374 -0.9173 -0.5848 -0.9093
10326TIP3   OH252468   0.336   0.465   1.425 -0.6610 -0.4522 -0.1124
10326TIP3    H152469   0.344   0.477   1.519 -2.2076  1.2582 -0.1339
10326TIP3    H252470   0.370   0.377   1.409 -1.2654 -1.1832  2.1745
10327TIP3   OH252471   6.611   0.771  15.296 -0.4424  0.2685 -0.0199
10327TIP3    H152472   6.689   0.725  15.329 -0.7125  0.3459  0.7644
10327TIP3    H252473   6.549   0.702  15.277 -0.0119  0.1765 -1.1269
10328TIP3   OH252474   1.127   6.043   2.657  0.1337  0.2431  0.1528
10328TIP3    H152475   1.123   6.130   2.696 -1.2297  0.5751 -0.6476
10328TIP3    H252476   1.076   6.051   2.576  2.6162 -0.4584 -1.6026
10329TIP3   OH252477   0.126   0.007   5.263  0.1921 -0.1642  0.8502
10329TIP3    H152478   0.175   0.038   5.187 -1.2501 -0.2790 -0.1460
10329TIP3    H252479   0.168   0.051   5.337  0.6923  1.0998 -0.1432
10330TIP3   OH252480   5.279   5.454   2.334 -0.1124  0.4006  0.5703
10330TIP3    H152481   5.349   5.510   2.300 -1.0142  0.8775 -0.5665
10330TIP3    H252482   5.205   5.512   2.348  0.0465  0.1286  2.9791
10331TIP3   OH252483   5.590   4.921   6.418 -0.4993  0.2582 -0.1951
10331TIP3    H152484   5.592   5.015   6.436  1.4958  0.6837 -2.1947
10331TIP3    H252485   5.678   4.901   6.387 -1.8837 -1.4577 -3.5261
10332TIP3   OH252486   3.514   5.034   0.555  0.1593  0.9596  0.2218
10332TIP3    H152487   3.550   5.029   0.643  0.0915 -1.0852  0.1795
10332TIP3    H252488   3.421   5.010   0.565  0.4914 -0.7947 -0.5575
10333TIP3   OH252489   0.428   1.807  11.049  0.0245  0.3187 -0.1161
10333TIP3    H152490   0.409   1.713  11.057  1.4908  0.0366  0.3139
10333TIP3    H252491   0.497   1.823  11.113  0.6215  1.4422 -1.0069
10334TIP3   OH252492   1.013   3.103   6.035 -0.3269  0.4810  0.5090
10334TIP3    H152493   1.023   3.149   5.951 -2.5122 -0.0404 -0.1041
10334TIP3    H252494   0.942   3.040   6.019  2.5231 -3.2865  1.2149
10335TIP3   OH252495   1.374   5.050  11.455 -0.4675 -0.5624 -0.4349
10335TIP3    H152496   1.468   5.034  11.448  0.1175  1.6561  1.0163
10335TIP3    H252497   1.347   5.070  11.365  1.0943  1.4442 -0.5602
10336TIP3   OH252498   4.944   6.372  14.894 -0.7068  0.1054  0.0430
10336TIP3    H152499   4.907   6.356  14.981 -0.2258  1.3603  0.4954
10336TIP3    H252500   4.969   6.285  14.863  0.1732 -0.2521  1.6435
10337TIP3   OH252501   4.453   6.319   3.974 -0.1509  0.7783  0.3163
10337TIP3    H152502   4.471   6.336   3.882 -1.5387 -0.1456 -0.1476
10337TIP3    H252503   4.427   6.404   4.010 -3.8311  0.4530 -1.1994
10338TIP3   OH252504   5.140   4.946  11.247 -0.3848 -0.6463  0.0568
10338TIP3    H152505   5.100   5.024  11.284 -1.4951 -1.1716 -0.0097
10338TIP3    H252506   5.212   4.925  11.307 -0.4658  0.0556  0.4085
10339TIP3   OH252507   3.238   3.288  16.393 -0.0112  0.0173 -0.1960
10339TIP3    H152508   3.299   3.330  16.453  1.1109 -1.0840 -0.4901
10339TIP3    H252509   3.240   3.195  16.419 -0.4341 -0.2680 -1.1412
10340TIP3   OH252510   6.301   3.469  11.063  0.0937  0.3889 -0.1637
10340TIP3    H152511   6.364   3.399  11.046 -1.3793 -0.7827 -0.9482
10340TIP3    H252512   6.281   3.505  10.977  2.3604  3.2781  0.3261
10341TIP3   OH252513   2.855   4.922  13.000 -0.4507  0.6377 -0.1417
10341TIP3    H152514   2.850   4.829  13.020 -3.1904  1.1500  2.1725
10341TIP3    H252515   2.816   4.930  12.912  1.0109 -0.4651 -0.9270
10342TIP3   OH252516   2.158   6.426  13.690  0.1579 -0.1670  0.7624
10342TIP3    H152517   2.090   6.388  13.746 -1.2261 -0.4041 -1.0068
10342TIP3    H252518   2.134   6.399  13.601  0.4585  2.8824 -0.3343
10343TIP3   OH252519   6.742   2.814   5.364  0.2953 -0.2245  0.1362
10343TIP3    H152520   6.715   2.725   5.389 -1.1606  0.2235  0.2546
10343TIP3    H252521   6.672   2.845   5.307  0.4708  1.0853  0.5954
10344TIP3   OH252522   6.585   4.447   3.762 -0.2009 -0.1540 -0.0659
10344TIP3    H152523   6.490   4.450   3.770 -0.1334  0.6734  0.5342
10344TIP3    H252524   6.600   4.406   3.676 -1.1286  1.1634 -0.9040
10345TIP3   OH252525   0.393   3.142   5.686  0.1801  0.0445  0.5063
10345TIP3    H152526   0.352   3.056   5.689  0.1874  0.0212  0.0119
10345TIP3    H252527   0.386   3.169   5.594  1.0768  0.1286  0.4526
10346TIP3   OH252528   1.828   5.863   5.873 -0.3633 -0.2926 -0.0252
10346TIP3    H152529   1.869   5.852   5.959 -0.6146 -0.5123  0.0667
10346TIP3    H252530   1.833   5.958   5.857 -1.5948 -0.0496  0.8767
10347TIP3   OH252531   4.531   0.323   5.870 -0.4556  0.4367  0.3343
10347TIP3    H152532   4.459   0.386   5.872 -0.5482  0.3128  0.7991
10347TIP3    H252533   4.492   0.240   5.898 -0.4448  0.0520 -0.7325
10348TIP3   OH252534   6.832   0.158  13.387 -0.3360  0.0984  0.0038
10348TIP3    H152535   6.771   0.085  13.400 -0.1459  0.0538  0.7258
10348TIP3    H252536   6.846   0.161  13.293  0.6816 -1.6687  0.0522
10349TIP3   OH252537   4.132   3.071   5.045  0.1950 -0.2555  0.5809
10349TIP3    H152538   4.068   3.021   4.994  0.2327 -1.4075  1.6108
10349TIP3    H252539   4.117   3.043   5.135  1.6035  0.0745  0.9372
10350TIP3   OH252540   3.904   4.557  14.145  0.2767 -0.6360  0.7715
10350TIP3    H152541   3.983   4.504  14.136 -0.3458 -1.4041 -0.4023
10350TIP3    H252542   3.836   4.495  14.171 -0.4082 -0.4029 -0.3819
10351TIP3   OH252543   1.526   4.625  11.559 -0.1622  0.0093  0.0908
10351TIP3    H152544   1.581   4.684  11.507  0.6914 -2.1662 -1.6233
10351TIP3    H252545   1.437   4.640  11.527 -0.1344  1.0779  0.4517
10352TIP3   OH252546   2.250   4.250  13.801  0.0562 -0.3607  0.5689
10352TIP3    H152547   2.315   4.264  13.870 -0.3827 -0.3818  1.0004
10352TIP3    H252548   2.186   4.191  13.841  0.6036 -1.6648 -0.3876
10353TIP3   OH252549   2.664   5.171  13.487 -0.1557  0.5588 -0.0417
10353TIP3    H152550   2.715   5.246  13.457  0.9626 -0.1082  0.1218
10353TIP3    H252551   2.628   5.198  13.571 -0.6431  1.2782 -0.4717
10354TIP3   OH252552   4.336   3.897   2.191  0.2459 -0.2206  0.1452
10354TIP3    H152553   4.261   3.953   2.171 -0.6106 -0.7696  1.6665
10354TIP3    H252554   4.405   3.959   2.217 -0.3138  0.2089  0.6557
10355TIP3   OH252555   3.448   4.289  11.620  0.3930  0.7334  0.4281
10355TIP3    H152556   3.380   4.254  11.562  0.3168  1.8834 -0.2184
10355TIP3    H252557   3.421   4.380  11.635 -0.2399  0.2022  3.2380
10356TIP3   OH252558   2.252   3.454  12.834 -0.0602 -0.4637 -0.2461
10356TIP3    H152559   2.319   3.388  12.818  2.6405  2.2437 -1.1007
10356TIP3    H252560   2.230   3.446  12.927  0.5663 -2.1615 -0.2239
10357TIP3   OH252561   5.641   3.111  15.677  0.2044  0.2811  0.6420
10357TIP3    H152562   5.606   3.198  15.654 -1.1752 -0.2537  0.5913
10357TIP3    H252563   5.584   3.080  15.747 -0.1193 -1.0931 -0.1858
10358TIP3   OH252564   5.116   5.214   0.358  0.6626  0.6938 -0.0000
10358TIP3    H152565   5.091   5.170   0.439  0.0773 -0.0240 -0.5665
10358TIP3    H252566   5.099   5.151   0.289 -0.6346  1.9402 -0.8828
10359TIP3   OH252567   5.531   1.249  12.312 -0.1322 -0.5506 -0.2633
10359TIP3    H152568   5.468   1.237  12.383 -1.4910 -3.5109 -1.7938
10359TIP3    H252569   5.497   1.323  12.262 -1.1038 -0.6415  0.2351
10360TIP3   OH252570   1.519   0.048   2.140  0.0622 -0.6591 -0.3764
10360TIP3    H152571   1.508  -0.038   2.181 -0.2587 -0.4520 -0.0218
10360TIP3    H252572   1.537   0.107   2.213  3.7705 -0.9592 -0.8791
10361TIP3   OH252573   2.808   2.768   5.705 -0.1118 -0.8942 -0.5557
10361TIP3    H152574   2.724   2.779   5.659 -0.5029  0.8471  0.4947
10361TIP3    H252575   2.785   2.722   5.785  0.2090 -1.8281 -0.9841
10362TIP3   OH252576   6.708   0.834   3.191 -0.1685  0.3050 -0.1808
10362TIP3    H152577   6.784   0.841   3.248 -0.3814  2.0096 -0.0427
10362TIP3    H252578   6.736   0.778   3.119 -0.0305 -2.3030  1.7472
10363TIP3   OH252579   3.549   2.401   1.348 -0.2563  0.3562 -0.5756
10363TIP3    H152580   3.615   2.358   1.401 -0.1999  1.1760  0.0467
10363TIP3    H252581   3.575   2.493   1.348 -1.6256  0.7688  0.0544
10364TIP3   OH252582   5.384   3.655   0.239 -0.1833 -0.1151  0.5112
10364TIP3    H152583   5.386   3.570   0.196 -0.2861 -0.1357  0.5481
10364TIP3    H252584   5.367   3.635   0.331  2.0999 -0.2413  0.9634
10365TIP3   OH252585   6.590   0.541   4.800 -0.0316  0.4972  0.9532
10365TIP3    H152586   6.533   0.593   4.857 -1.4239 -1.0460  1.0503
10365TIP3    H252587   6.649   0.497   4.861 -0.9686 -0.4917  1.1951
10366TIP3   OH252588   6.625   0.859   1.549 -0.2578  0.3063 -0.2411
10366TIP3    H152589   6.535   0.881   1.528  0.0262  1.4746 -0.2978
10366TIP3    H252590   6.677   0.910   1.487  0.4921  1.2123  1.0740
10367TIP3   OH252591   4.039   4.535   3.910  0.1046 -0.0798  0.1311
10367TIP3    H152592   4.087   4.585   3.976 -0.6622  0.9132 -0.0294
10367TIP3    H252593   4.098   4.463   3.886  2.6400  2.4647 -1.9381
10368TIP3   OH252594   5.407   4.968   3.161  0.1935 -0.2934  0.6556
10368TIP3    H152595   5.421   4.908   3.234  0.3854 -0.5794  0.3828
10368TIP3    H252596   5.313   4.964   3.143 -0.5056  2.2547  3.0412
10369TIP3   OH252597   2.855   2.756  10.927 -0.3493 -0.0670 -0.0694
10369TIP3    H152598   2.785   2.788  10.870 -0.3187 -1.9350 -1.2550
10369TIP3    H252599   2.935   2.778  10.880 -0.2999 -1.0797 -0.4826
10370TIP3   OH252600   4.377   1.662  15.812  0.1730  0.4129 -0.1381
10370TIP3    H152601   4.421   1.598  15.869  0.2352  0.2802 -0.3331
10370TIP3    H252602   4.284   1.647  15.826  0.1742 -0.2626 -0.7700
10371TIP3   OH252603   5.543   2.964   1.015 -0.6068  0.5714  0.1841
10371TIP3    H152604   5.626   2.933   1.052 -0.2510  1.3113  0.0289
10371TIP3    H252605   5.476   2.924   1.071 -0.2893 -2.0437 -1.1429
10372TIP3   OH252606   2.473   1.220   4.560  0.7057  0.0825 -0.7782
10372TIP3    H152607   2.493   1.283   4.629  1.5902 -2.7524  1.7763
10372TIP3    H252608   2.377   1.215   4.559  0.6718  0.4237 -0.0098
10373TIP3   OH252609   3.088   5.929  10.917  0.3296  0.0125 -0.6457
10373TIP3    H152610   3.047   5.903  10.834 -1.0507 -0.1595  0.0751
10373TIP3    H252611   3.172   5.883  10.916 -1.4167 -3.5155 -0.0719
10374TIP3   OH252612   3.246   2.375   2.489 -0.7527  0.2347 -0.3003
10374TIP3    H152613   3.316   2.386   2.555 -0.3978 -0.9731 -0.4565
10374TIP3    H252614   3.189   2.451   2.502  0.5564  1.2194 -0.1265
10375TIP3   OH252615   2.031   0.922  13.609 -0.0671 -0.1492  0.5432
10375TIP3    H152616   2.056   0.849  13.667 -0.8192 -0.7053  0.1837
10375TIP3    H252617   1.976   0.881  13.542  1.1174  0.4064 -0.8172
10376TIP3   OH252618   3.562   2.567  15.232 -0.0236 -0.1249  0.1794
10376TIP3    H152619   3.478   2.609  15.217 -0.2493 -0.5959  0.1000
10376TIP3    H252620   3.560   2.489  15.177  0.6192  0.0554 -0.1147
10377TIP3   OH252621   6.630   2.357   3.124  0.0699  0.3375 -0.2937
10377TIP3    H152622   6.699   2.355   3.057 -0.6577 -0.9481 -1.0380
10377TIP3    H252623   6.676   2.344   3.206  0.7511 -0.2156 -0.7548
10378TIP3   OH252624   3.161   0.905   7.079 -0.2174  0.5548  0.4239
10378TIP3    H152625   3.212   0.827   7.058  1.2516  1.9223 -1.4489
10378TIP3    H252626   3.087   0.902   7.019  0.6160  1.2733 -0.6885
10379TIP3   OH252627   1.902   1.753   5.824  0.0980 -0.7521  0.5466
10379TIP3    H152628   1.975   1.807   5.795 -0.2139 -1.0268 -0.8399
10379TIP3    H252629   1.833   1.816   5.846 -0.2345 -0.5313 -0.9761
10380TIP3   OH252630   3.280   4.128   4.985  0.4776 -0.6892  0.2797
10380TIP3    H152631   3.245   4.201   4.935  2.4223 -0.8997 -1.5101
10380TIP3    H252632   3.266   4.153   5.077 -0.1224  1.2748 -0.3057
10381TIP3   OH252633   6.613   1.573  13.429  0.6306  0.4836  0.2131
10381TIP3    H152634   6.699   1.534  13.409  0.1711 -1.2714  1.3425
10381TIP3    H252635   6.597   1.547  13.520 -2.2622 -1.5778 -0.7638
10382TIP3   OH252636   1.674   6.095   3.132 -0.2080  0.0095  0.4588
10382TIP3    H152637   1.700   6.146   3.209 -1.8624  0.8264  0.5332
10382TIP3    H252638   1.649   6.010   3.167 -0.1436  0.0947  0.7164
10383TIP3   OH252639   6.033   2.864   2.089  0.1263 -0.1240  0.0047
10383TIP3    H152640   6.070   2.899   2.170 -0.3035 -0.5226  0.3777
10383TIP3    H252641   5.995   2.940   2.045 -1.0373 -0.1445  0.9363
10384TIP3   OH252642   6.002   1.629   1.537  0.5760 -0.2025 -0.3468
10384TIP3    H152643   5.967   1.641   1.449 -0.1213  1.4697  0.1227
10384TIP3    H252644   6.056   1.707   1.552  0.2214 -0.1698  0.8946
10385TIP3   OH252645   1.484   2.862   2.985 -0.2889 -0.2756  0.2364
10385TIP3    H152646   1.514   2.772   2.979  0.3541  0.0214 -2.3499
10385TIP3    H252647   1.560   2.912   3.014  0.6398 -0.1112 -2.1945
10386TIP3   OH252648   1.309   3.548   4.949 -0.4004 -1.0253 -0.4711
10386TIP3    H152649   1.219   3.579   4.938 -0.1482 -0.0662  0.0324
10386TIP3    H252650   1.347   3.555   4.862  0.2375  2.0884 -0.0454
10387TIP3   OH252651   3.486   6.402  17.001 -0.8150  0.2667 -0.4872
10387TIP3    H152652   3.475   6.469  16.933  1.1396 -0.8883 -2.0633
10387TIP3    H252653   3.457   6.321  16.958  2.3025 -0.8316 -0.7559
10388TIP3   OH252654   2.981   1.602  14.803 -0.3753 -0.1906 -0.1746
10388TIP3    H152655   3.001   1.583  14.712 -1.1088  0.6198 -0.5302
10388TIP3    H252656   2.890   1.632  14.801  0.4235  2.6330  0.3637
10389TIP3   OH252657   1.964   1.720  15.129 -0.4423  0.0993  0.1041
10389TIP3    H152658   1.991   1.644  15.181 -1.6001 -0.8627 -0.6481
10389TIP3    H252659   1.938   1.785  15.194  1.1203  0.1093  0.7795
10390TIP3   OH252660   3.066   1.934   3.721 -0.3707 -0.0301 -0.1546
10390TIP3    H152661   2.986   1.970   3.684  0.5710  1.3413 -0.9756
10390TIP3    H252662   3.122   2.011   3.737  0.4693 -0.8725  1.1676
10391TIP3   OH252663   5.158   3.217   6.217  0.2901 -0.4520  0.1259
10391TIP3    H152664   5.153   3.238   6.311  0.6432 -3.0299  0.7730
10391TIP3    H252665   5.071   3.182   6.197  0.6097 -1.0503 -0.2072
10392TIP3   OH252666   6.565   2.476  11.382  0.0472  0.2943 -0.0601
10392TIP3    H152667   6.509   2.470  11.460  0.3190 -2.0557  0.0289
10392TIP3    H252668   6.651   2.502  11.416 -0.2632  1.0664  0.1677
10393TIP3   OH252669   4.406   4.413   4.208 -0.5607  0.5044  0.1312
10393TIP3    H152670   4.314   4.392   4.226 -0.3656  0.5939  1.3354
10393TIP3    H252671   4.424   4.370   4.124 -0.8097 -2.2688  1.3706
10394TIP3   OH252672   3.258   4.563   3.776  0.1793 -0.4866 -0.0076
10394TIP3    H152673   3.350   4.545   3.755 -0.4010 -1.8357 -1.6673
10394TIP3    H252674   3.225   4.609   3.699 -0.4098  0.5482  0.8380
10395TIP3   OH252675   0.092   0.254   5.912 -0.1946  0.2939 -0.5217
10395TIP3    H152676   0.142   0.236   5.992 -2.2577  0.0338  0.7980
10395TIP3    H252677   0.043   0.173   5.896 -1.8600  1.2428 -0.4396
10396TIP3   OH252678   5.489   1.774  11.256  0.2059  0.3921 -0.1925
10396TIP3    H152679   5.479   1.728  11.173  0.0836  0.6071 -0.3005
10396TIP3    H252680   5.404   1.762  11.300  0.7849 -1.0295  0.5858
10397TIP3   OH252681   4.605   2.485   4.756 -0.0764 -0.1434 -0.5498
10397TIP3    H152682   4.592   2.527   4.841  0.5371 -0.4951 -0.2767
10397TIP3    H252683   4.532   2.424   4.747  1.2901 -2.1044  0.9540
10398TIP3   OH252684   1.802   3.809   0.154 -0.4300  0.5601  0.0973
10398TIP3    H152685   1.894   3.787   0.169 -0.4178  0.6779  0.2027
10398TIP3    H252686   1.780   3.867   0.227 -0.8368 -0.1741  0.5829
10399TIP3   OH252687   6.426   2.516  11.627  0.1283 -0.4434  0.4543
10399TIP3    H152688   6.414   2.527  11.721 -0.4355 -0.2805  0.3622
10399TIP3    H252689   6.409   2.603  11.590  4.4983  0.7419  0.5709
10400TIP3   OH252690   6.535   6.341   0.178  0.0310  0.3646 -0.2754
10400TIP3    H152691   6.586   6.321   0.257  0.4278 -0.5062 -0.7352
10400TIP3    H252692   6.455   6.381   0.211 -0.5173 -1.4247  0.7046
10401TIP3   OH252693   0.592   3.832  12.794 -0.0888 -0.6536 -0.4382
10401TIP3    H152694   0.566   3.924  12.794  0.9913 -0.3340  0.4792
10401TIP3    H252695   0.653   3.824  12.721  1.5964 -0.0832  0.8450
10402TIP3   OH252696   1.011   2.532  16.183  0.2754 -0.4628  0.0382
10402TIP3    H152697   1.091   2.583  16.171  1.6283 -2.2305  0.9897
10402TIP3    H252698   0.940   2.596  16.179  1.6690  1.0882 -1.4042
10403TIP3   OH252699   0.828   1.119   1.348 -0.2159  0.2503 -0.3039
10403TIP3    H152700   0.897   1.177   1.379  1.2047 -1.5840  0.1773
10403TIP3    H252701   0.809   1.149   1.259 -0.6107  2.3255  0.4236
10404TIP3   OH252702   6.540   2.562   4.594 -0.4574  0.3084 -0.5552
10404TIP3    H152703   6.518   2.653   4.571 -1.5124 -0.1561 -1.4786
10404TIP3    H252704   6.464   2.532   4.644  0.2968  0.1986  0.5731
10405TIP3   OH252705   3.594   5.805  11.859  0.0991  0.1775  0.1982
10405TIP3    H152706   3.570   5.897  11.849  0.5210  0.2397 -0.3221
10405TIP3    H252707   3.684   5.801  11.826  0.2832 -0.3141  0.7506
10406TIP3   OH252708   5.022   0.067   5.304  0.1789 -0.5534  0.2423
10406TIP3    H152709   4.999   0.060   5.396  0.9686 -1.5501  0.3785
10406TIP3    H252710   5.013  -0.022   5.270  1.6567 -0.5680 -0.1965
10407TIP3   OH252711   3.859   5.668  15.652  0.0257 -0.0314  0.2308
10407TIP3    H152712   3.855   5.645  15.745 -1.6766 -0.1136  0.1788
10407TIP3    H252713   3.767   5.667  15.624  0.5087  0.0447 -1.4388
10408TIP3   OH252714   3.690   2.610  13.815  0.0197  0.2422 -1.0074
10408TIP3    H152715   3.636   2.680  13.852  1.5835  0.8927  0.1375
10408TIP3    H252716   3.775   2.651  13.799  0.9523 -1.3760 -0.4007
10409TIP3   OH252717   3.888   5.370   1.643  0.2038  0.0553  0.8207
10409TIP3    H152718   3.807   5.318   1.641  0.5427 -0.5615  1.9638
10409TIP3    H252719   3.867   5.445   1.699 -0.3285  1.2777 -0.9446
10410TIP3   OH252720   3.924   4.683   5.557 -0.2940  0.7412 -0.3610
10410TIP3    H152721   3.940   4.757   5.614  1.5108  0.4030 -0.3507
10410TIP3    H252722   4.010   4.664   5.518 -0.2979 -2.3214  0.8633
10411TIP3   OH252723   4.489   3.350  16.745  0.3804  0.1545  0.2510
10411TIP3    H152724   4.470   3.321  16.834  0.5087  1.5333  0.7583
10411TIP3    H252725   4.514   3.442  16.755 -2.1245  1.1344 -1.4678
10412TIP3   OH252726   5.158   6.785  11.215 -0.0763  0.1877  0.3626
10412TIP3    H152727   5.174   6.692  11.204 -0.7428  0.1015  0.1233
10412TIP3    H252728   5.121   6.814  11.131  0.6322  0.7800  0.2375
10413TIP3   OH252729   3.599   2.615   5.727  0.2600  0.0891  0.5018
10413TIP3    H152730   3.569   2.524   5.733  0.7760 -0.1909 -0.9202
10413TIP3    H252731   3.684   2.615   5.770  0.2244 -0.0760  0.5723
10414TIP3   OH252732   4.271   5.551  14.109 -0.0726  0.5922 -0.0900
10414TIP3    H152733   4.205   5.537  14.177 -0.2467 -0.3668 -0.4476
10414TIP3    H252734   4.246   5.635  14.069 -1.5657 -0.1351 -0.7523
10415TIP3   OH252735   1.467   6.645  16.967  0.0034  0.1386  0.3370
10415TIP3    H152736   1.441   6.585  17.037  1.9028 -2.5229 -1.0312
10415TIP3    H252737   1.561   6.659  16.983 -0.2572  2.2557  0.2016
10416TIP3   OH252738   3.824   1.599  14.702 -0.3334 -1.1401  0.6960
10416TIP3    H152739   3.777   1.682  14.699 -0.9182 -1.4591  0.9298
10416TIP3    H252740   3.912   1.620  14.669  0.1895  0.0247  2.6355
10417TIP3   OH252741   3.126   0.478  12.892  0.2207 -0.0005  0.2252
10417TIP3    H152742   3.104   0.572  12.895 -0.8451 -0.2669  1.3359
10417TIP3    H252743   3.089   0.442  12.972 -0.4065 -1.5994 -0.7376
10418TIP3   OH252744   4.492   6.174  16.984 -0.0265  0.0631 -0.1954
10418TIP3    H152745   4.535   6.157  17.068  0.5524 -1.6079 -0.7858
10418TIP3    H252746   4.544   6.125  16.920 -0.7186  0.9335 -1.4798
10419TIP3   OH252747   5.675   1.800   0.578 -0.0613  0.0822  0.0117
10419TIP3    H152748   5.601   1.744   0.556 -0.1593  0.6462 -1.1963
10419TIP3    H252749   5.659   1.828   0.668 -0.9434 -0.3655  0.0024
10420TIP3   OH252750   1.994   2.627  10.855  0.3365 -0.9200 -0.2785
10420TIP3    H152751   2.021   2.550  10.905 -1.8231  0.3496  3.2248
10420TIP3    H252752   2.038   2.700  10.899 -1.4316  0.2388 -0.3223
10421TIP3   OH252753   0.100   1.331   1.855 -0.5787  0.3918 -0.1125
10421TIP3    H152754   0.043   1.266   1.814 -1.6277 -0.2403  2.2124
10421TIP3    H252755   0.134   1.289   1.933  1.0032  1.6942 -0.0350
10422TIP3   OH252756   2.033   3.905  11.597 -0.4213  0.2077 -0.0349
10422TIP3    H152757   2.067   3.888  11.509 -0.7577 -1.9272  0.1851
10422TIP3    H252758   1.943   3.872  11.595 -0.5988  0.5847  0.9793
10423TIP3   OH252759   5.652   2.792  14.333  0.0551 -0.5047  0.0106
10423TIP3    H152760   5.703   2.868  14.359 -0.6235 -0.0221 -0.0466
10423TIP3    H252761   5.606   2.820  14.254 -3.2683  0.4289  2.0599
10424TIP3   OH252762   6.341   6.767   0.104  0.4248 -0.2077  0.0227
10424TIP3    H152763   6.310   6.801   0.187 -1.4747 -0.1510 -0.6781
10424TIP3    H252764   6.318   6.834   0.039 -0.4560 -1.3677 -0.9059
10425TIP3   OH252765   6.429   0.832  16.034 -0.2398  0.5088 -0.0348
10425TIP3    H152766   6.367   0.879  15.978  1.4030  3.0316  0.1096
10425TIP3    H252767   6.390   0.745  16.045 -2.9234  1.4512 -1.2238
10426TIP3   OH252768   3.380   0.144   4.542  0.1460  0.6266 -0.5085
10426TIP3    H152769   3.458   0.123   4.594 -1.1682 -0.5383  1.0966
10426TIP3    H252770   3.344   0.222   4.583  1.2485  2.1146 -2.2180
10427TIP3   OH252771   2.455   4.934  13.925 -0.0574  0.6159 -0.7783
10427TIP3    H152772   2.414   4.980  13.851 -1.9945  0.9450  0.4351
10427TIP3    H252773   2.395   4.862  13.945  1.2385 -0.4117 -0.4950
10428TIP3   OH252774   5.477   2.159   1.519 -0.6377  0.3241 -0.0663
10428TIP3    H152775   5.438   2.186   1.602  0.1139  0.0642  0.3794
10428TIP3    H252776   5.556   2.212   1.511 -1.6048  1.6428 -1.4996
10429TIP3   OH252777   4.210   3.565  14.170  0.2029  0.0558 -0.5372
10429TIP3    H152778   4.289   3.536  14.217  0.3382 -1.1555 -1.4646
10429TIP3    H252779   4.240   3.581  14.080 -0.1801  1.7203 -0.3990
10430TIP3   OH252780   5.159   3.164   1.425  0.0255 -0.3112  0.4417
10430TIP3    H152781   5.103   3.200   1.356 -0.9130 -1.5781  0.5096
10430TIP3    H252782   5.236   3.221   1.425 -0.2047  0.0617 -1.2642
10431TIP3   OH252783   1.711   3.173  15.215  0.2590  0.4089  0.4344
10431TIP3    H152784   1.670   3.231  15.151  1.4685  0.4751 -0.3198
10431TIP3    H252785   1.805   3.185  15.201  0.5763  0.7395  2.5313
10432TIP3   OH252786   2.717   6.624   3.986  0.3531 -0.4110  0.9901
10432TIP3    H152787   2.648   6.611   4.051  0.6525  0.3869  1.4903
10432TIP3    H252788   2.791   6.573   4.018 -0.0022 -1.3046  0.4290
10433TIP3   OH252789   2.578   5.756   5.856  0.7581  0.1922 -0.1598
10433TIP3    H152790   2.625   5.710   5.786 -0.4230  0.0022 -0.8529
10433TIP3    H252791   2.501   5.701   5.873  0.2080  1.0502  0.1734
10434TIP3   OH252792   2.900   6.111   4.402  0.0334 -0.2655  0.4746
10434TIP3    H152793   2.974   6.054   4.421  0.5251  0.0395 -0.4430
10434TIP3    H252794   2.859   6.072   4.324 -0.2401  0.0579  0.4526
10435TIP3   OH252795   1.075   4.093  15.915  0.0769 -0.0784 -0.2470
10435TIP3    H152796   1.151   4.109  15.971  0.5634 -1.7053 -0.3918
10435TIP3    H252797   1.016   4.040  15.969 -1.1550  1.4815 -0.0061
10436TIP3   OH252798   3.674   3.253  12.215 -0.6125  0.1039  0.5072
10436TIP3    H152799   3.606   3.313  12.182 -0.0559 -0.5206 -1.9863
10436TIP3    H252800   3.633   3.167  12.212 -0.3059 -0.0509  0.7751
10437TIP3   OH252801   0.307   5.603   2.979 -0.3641  0.1457  0.1010
10437TIP3    H152802   0.319   5.511   3.001 -1.2311  0.0677  0.2657
10437TIP3    H252803   0.365   5.650   3.039  1.1668 -0.3560 -0.9171
10438TIP3   OH252804   6.610   4.841   4.968 -0.0897 -0.4294  0.4391
10438TIP3    H152805   6.552   4.887   5.028  0.8402 -0.8486  1.7053
10438TIP3    H252806   6.582   4.870   4.881  0.4017  2.5195  1.1256
10439TIP3   OH252807   0.615   5.610  11.992  0.1845  0.1732  0.1506
10439TIP3    H152808   0.547   5.654  12.042  1.3345 -0.1109  2.0427
10439TIP3    H252809   0.594   5.516  11.999  0.2718  0.1377 -0.0400
10440TIP3   OH252810   6.706   6.123  14.307 -0.5749 -0.1104  0.4415
10440TIP3    H152811   6.717   6.216  14.326  2.3668  0.3441 -2.3806
10440TIP3    H252812   6.686   6.121  14.213 -1.2024 -2.3274  0.5774
10441TIP3   OH252813   5.668   5.377   0.116  0.4245 -0.1178 -0.2739
10441TIP3    H152814   5.603   5.436   0.155  0.3517  1.1371 -2.1467
10441TIP3    H252815   5.623   5.339   0.041  0.1919 -3.3202  1.3522
10442TIP3   OH252816   6.377   1.644   2.678  0.0298 -0.0165 -0.0214
10442TIP3    H152817   6.363   1.555   2.711 -0.8256  0.3675  0.6900
10442TIP3    H252818   6.295   1.690   2.697  1.0951  1.4397  1.3387
10443TIP3   OH252819   3.813   3.449  13.527 -0.0872  0.0630 -0.0267
10443TIP3    H152820   3.845   3.464  13.438  0.1641 -0.3416 -0.0087
10443TIP3    H252821   3.811   3.353  13.536  0.1805  0.1026  0.5095
10444TIP3   OH252822   4.955   5.087  14.348  0.4974 -0.0054  0.1649
10444TIP3    H152823   4.970   5.051  14.260 -0.0866 -2.3723  0.9424
10444TIP3    H252824   4.972   5.013  14.407 -0.5498  1.0964  1.9412
10445TIP3   OH252825   5.705   6.621  11.651  0.4680  1.0673  0.2685
10445TIP3    H152826   5.746   6.589  11.731  1.4253 -0.1005 -0.6530
10445TIP3    H252827   5.647   6.550  11.624  1.2045  0.8525 -0.8044
10446TIP3   OH252828   4.589   2.754  13.227 -1.0946  0.3029  0.5176
10446TIP3    H152829   4.679   2.758  13.197 -0.9810  0.0457  0.8183
10446TIP3    H252830   4.574   2.836  13.273 -1.5443  1.0987 -0.9782
10447TIP3   OH252831   1.461   0.251   2.877  0.7705  0.1945 -0.3102
10447TIP3    H152832   1.382   0.231   2.827 -0.1774  1.4236  0.6620
10447TIP3    H252833   1.440   0.329   2.927  2.4980  0.3640  0.2337
10448TIP3   OH252834   1.272   5.703   4.393  0.4660 -0.2905 -0.0752
10448TIP3    H152835   1.215   5.626   4.389  0.0278 -0.0028  0.4177
10448TIP3    H252836   1.358   5.671   4.368  0.2042 -0.8547 -0.2726
10449TIP3   OH252837   6.830   2.332   5.046  1.1106 -0.1358  0.0531
10449TIP3    H152838   6.802   2.332   5.137  0.6693 -0.7539 -0.0752
10449TIP3    H252839   6.760   2.378   4.999  0.3163 -1.5943 -0.2543
10450TIP3   OH252840   5.429   4.287   0.672 -0.5693  0.0760 -0.1246
10450TIP3    H152841   5.416   4.381   0.690 -0.2236  0.4197 -1.6002
10450TIP3    H252842   5.422   4.246   0.758  0.6769  1.6125  0.7777
10451TIP3   OH252843   1.247   4.847   6.048  0.2542 -0.7986 -0.0076
10451TIP3    H152844   1.333   4.808   6.033  0.6255 -0.3864  0.9663
10451TIP3    H252845   1.197   4.825   5.970  1.3483 -0.7536 -0.7444
10452TIP3   OH252846   4.407   3.216  12.350  0.7002  0.0312 -0.4905
10452TIP3    H152847   4.441   3.241  12.436  0.3715 -1.2616  0.0561
10452TIP3    H252848   4.477   3.163  12.311  0.0292 -1.1904 -0.0876
10453TIP3   OH252849   2.789   3.706   2.460  0.2785  0.1057 -0.4160
10453TIP3    H152850   2.804   3.718   2.554  1.1849 -0.2596 -0.5002
10453TIP3    H252851   2.817   3.616   2.443 -0.3070  0.0203 -0.9560
10454TIP3   OH252852   4.052   6.011   5.138  0.3841 -0.3690  0.3997
10454TIP3    H152853   4.087   5.922   5.134  0.5344 -0.3061  0.3406
10454TIP3    H252854   4.029   6.032   5.047  1.8825  0.2795  0.1440
10455TIP3   OH252855   5.190   0.392   0.467 -0.1114 -0.3131 -0.8346
10455TIP3    H152856   5.131   0.328   0.428 -0.8053 -0.2863  0.1123
10455TIP3    H252857   5.141   0.474   0.463 -0.5374 -0.4547  0.7354
10456TIP3   OH252858   4.578   4.225  13.238  0.5578 -0.1449 -0.0587
10456TIP3    H152859   4.647   4.276  13.281  0.4158  0.0030 -0.0007
10456TIP3    H252860   4.601   4.225  13.146  1.6758 -1.7249  0.1871
10457TIP3   OH252861   5.811   1.164   3.463 -0.0249  0.0697  0.3650
10457TIP3    H152862   5.776   1.176   3.375  0.5000 -1.6129 -0.1167
10457TIP3    H252863   5.733   1.154   3.519 -0.3523 -0.4696 -0.1769
10458TIP3   OH252864   6.225   1.812  13.506 -0.2256  0.2051 -0.2212
10458TIP3    H152865   6.310   1.853  13.492 -0.7793  0.5183 -3.3660
10458TIP3    H252866   6.228   1.733  13.453 -0.6240 -1.8672  2.6214
10459TIP3   OH252867   6.551   5.942  13.351  0.1676  0.5327  0.0834
10459TIP3    H152868   6.611   6.003  13.309 -0.3017  0.3119 -0.9409
10459TIP3    H252869   6.466   5.986  13.349 -0.9877 -1.3672 -3.8121
10460TIP3   OH252870   5.242   2.053  16.061  0.3022 -0.0841 -0.3474
10460TIP3    H152871   5.223   2.002  16.140 -0.0580  0.2684 -0.2069
10460TIP3    H252872   5.157   2.084  16.030  0.6383  1.9729  0.6113
10461TIP3   OH252873   2.498   6.401  11.435 -0.3631  0.2995 -0.0617
10461TIP3    H152874   2.415   6.401  11.482  0.5160  1.1366  1.5613
10461TIP3    H252875   2.498   6.485  11.388  0.0472  0.8537  0.8920
10462TIP3   OH252876   3.013   0.591   4.917  0.0215  0.3635 -0.4163
10462TIP3    H152877   3.086   0.643   4.883  0.4845  0.4903  0.7493
10462TIP3    H252878   2.937   0.649   4.908  0.5295  1.2647  0.8697
10463TIP3   OH252879   0.505   6.292   0.333  0.2714 -0.2512 -0.5433
10463TIP3    H152880   0.584   6.272   0.283  0.7701 -0.0432  0.1427
10463TIP3    H252881   0.446   6.334   0.270  0.4729 -0.9423 -1.2002
10464TIP3   OH252882   1.538   1.542   3.194 -0.5650  0.5477 -0.1129
10464TIP3    H152883   1.453   1.561   3.153 -0.5841  2.1334  0.6081
10464TIP3    H252884   1.518   1.530   3.287 -0.3443 -1.8086 -0.2969
10465TIP3   OH252885   2.298   5.139  12.209  0.2210  0.6179 -0.3894
10465TIP3    H152886   2.208   5.137  12.243 -0.7914  0.0180 -2.9059
10465TIP3    H252887   2.324   5.231  12.215  0.3907  0.4803  2.4979
10466TIP3   OH252888   6.682   3.335  12.155  0.0050 -0.5114  0.0344
10466TIP3    H152889   6.667   3.317  12.062 -0.8875 -0.2252  0.1126
10466TIP3    H252890   6.643   3.421  12.169 -1.1513 -1.1575  0.9822
10467TIP3   OH252891   4.037   2.142  16.707  0.0565 -0.9130 -0.4910
10467TIP3    H152892   4.069   2.054  16.686  0.3595 -0.8644 -0.2454
10467TIP3    H252893   4.116   2.195  16.712  0.0047 -0.9511  0.8961
10468TIP3   OH252894   6.812   0.089  11.890  0.1223 -0.6886 -0.4358
10468TIP3    H152895   6.798   0.110  11.982 -0.7549 -0.9469 -0.5059
10468TIP3    H252896   6.858   0.166  11.855  1.9169 -1.2477  0.5517
10469TIP3   OH252897   4.795   2.139   1.959  0.2107 -0.1704 -0.0334
10469TIP3    H152898   4.830   2.167   1.874 -1.4619 -1.5281 -1.2541
10469TIP3    H252899   4.700   2.144   1.948 -0.1039 -2.5809  0.9410
10470TIP3   OH252900   4.442   3.460   2.356 -0.0823 -0.2918 -0.2880
10470TIP3    H152901   4.479   3.405   2.287  0.1050 -0.3910 -0.1048
10470TIP3    H252902   4.352   3.478   2.326 -0.7874 -2.2211  0.5402
10471TIP3   OH252903   4.379   2.839   2.157  0.1873  0.0514 -0.6159
10471TIP3    H152904   4.447   2.877   2.213 -1.0232  1.3764  0.0017
10471TIP3    H252905   4.399   2.745   2.156  0.1386 -0.0843  2.2414
10472TIP3   OH252906   2.537   4.937   3.647 -0.4532 -0.1444  0.2008
10472TIP3    H152907   2.511   4.949   3.738 -2.7207  1.0705 -0.5283
10472TIP3    H252908   2.585   5.017   3.625 -1.5441  0.4415 -0.1480
10473TIP3   OH252909   6.527   0.013   3.462 -0.1505  0.4416 -0.0333
10473TIP3    H152910   6.452   0.040   3.410 -0.1540  0.2351 -0.1382
10473TIP3    H252911   6.599   0.004   3.399  0.7387  3.4019  0.4230
10474TIP3   OH252912   5.998   2.171   4.125  0.3998 -0.1379 -0.0120
10474TIP3    H152913   5.904   2.176   4.145  0.5246 -0.1075  0.5806
10474TIP3    H252914   6.033   2.255   4.154  0.8280 -0.6415  0.9430
10475TIP3   OH252915   4.640   2.243  13.344  0.4835 -0.5587 -0.0684
10475TIP3    H152916   4.680   2.252  13.257  0.3368  0.2297 -0.0556
10475TIP3    H252917   4.671   2.319  13.393 -1.3301  0.2928 -0.1795
10476TIP3   OH252918   3.333   5.864  14.268 -0.1401  0.0251 -0.2106
10476TIP3    H152919   3.398   5.855  14.337 -0.9675  1.1988  0.7613
10476TIP3    H252920   3.359   5.942  14.220 -0.3468  0.0165 -0.3379
10477TIP3   OH252921   5.311   3.841  14.623 -0.0715  1.2558 -0.0557
10477TIP3    H152922   5.378   3.812  14.561  0.9195  4.3592 -0.6248
10477TIP3    H252923   5.350   3.824  14.709  0.5396  1.0977 -0.3551
10478TIP3   OH252924   6.264   0.342  13.272  0.4194  0.1460 -0.5029
10478TIP3    H152925   6.227   0.318  13.187  1.6882 -1.5934 -0.6170
10478TIP3    H252926   6.244   0.267  13.328  0.6216  0.7683  0.4167
10479TIP3   OH252927   4.206   4.989   5.295 -0.0083 -0.3609  0.3295
10479TIP3    H152928   4.291   4.982   5.337 -0.2723 -0.4699  0.8554
10479TIP3    H252929   4.143   4.962   5.362 -0.3685 -1.4654 -0.4237
10480TIP3   OH252930   0.947   2.335   2.821  0.0857  0.1473  0.5390
10480TIP3    H152931   0.989   2.421   2.826  1.2923 -0.3879 -0.0019
10480TIP3    H252932   1.018   2.275   2.797 -0.9156 -0.8614  0.0210
10481TIP3   OH252933   0.322   4.497  15.899 -0.0012  0.1353  0.0805
10481TIP3    H152934   0.388   4.492  15.829 -1.4465 -0.7356 -1.2974
10481TIP3    H252935   0.275   4.579  15.882 -1.6362 -1.0157 -1.2414
10482TIP3   OH252936   4.163   0.790   2.880 -0.2951  0.5806  0.0084
10482TIP3    H152937   4.081   0.797   2.831  0.0160 -0.0370 -0.6149
10482TIP3    H252938   4.231   0.785   2.813  0.3536  2.0231  0.5154
10483TIP3   OH252939   4.719   1.493  16.639 -0.3465 -0.0970 -0.5408
10483TIP3    H152940   4.763   1.571  16.605  2.5620 -0.3613  2.1308
10483TIP3    H252941   4.636   1.525  16.675  0.4345  1.6573 -0.1950
10484TIP3   OH252942   4.622   6.428  12.753 -0.0164  0.5108  0.6002
10484TIP3    H152943   4.679   6.487  12.702  0.7616  0.3103  1.2308
10484TIP3    H252944   4.562   6.487  12.799 -0.9133  0.6894 -0.7327
10485TIP3   OH252945   4.333   1.110  16.225 -0.0444  0.1524  0.3201
10485TIP3    H152946   4.361   1.095  16.315  0.5127 -2.1291 -0.1815
10485TIP3    H252947   4.403   1.164  16.187 -0.4622  1.4372  1.3208
10486TIP3   OH252948   0.372   3.446   6.362  0.3896 -0.4307 -0.4487
10486TIP3    H152949   0.393   3.363   6.319 -2.5266 -1.3127 -0.4391
10486TIP3    H252950   0.297   3.480   6.314  0.6128  1.4711  0.4588
10487TIP3   OH252951   6.073   2.960  11.665  0.8883 -0.1153  0.0761
10487TIP3    H152952   6.074   3.043  11.616  1.1296  0.7901  1.5362
10487TIP3    H252953   6.061   2.893  11.598 -1.5255  1.2171 -0.9787
10488TIP3   OH252954   4.905   6.580  11.311 -0.4046 -0.4261 -0.3602
10488TIP3    H152955   4.868   6.516  11.251  0.4139 -0.6713 -0.6167
10488TIP3    H252956   4.998   6.584  11.288 -0.3120  0.3436  0.1088
10489TIP3   OH252957   5.592   2.078  13.761 -0.3283 -0.1487 -0.2884
10489TIP3    H152958   5.599   1.983  13.745  0.7061 -0.0369 -0.6028
10489TIP3    H252959   5.681   2.110  13.748 -0.3438  0.6460  1.3494
10490TIP3   OH252960   5.303   4.036  11.361  0.4043 -0.4575  0.2927
10490TIP3    H152961   5.368   4.106  11.366  2.5880 -2.4072  1.1083
10490TIP3    H252962   5.296   4.003  11.450  0.7117 -2.3134 -0.3226
10491TIP3   OH252963   0.418   1.119  12.530  0.5965 -0.1528  0.1584
10491TIP3    H152964   0.474   1.060  12.480 -2.0882 -1.5908 -1.3447
10491TIP3    H252965   0.359   1.061  12.578  0.1671  1.3053  1.4658
10492TIP3   OH252966   2.730   3.622  15.889  0.2904 -0.3458  0.0419
10492TIP3    H152967   2.664   3.681  15.852 -0.0722  0.2214  1.5358
10492TIP3    H252968   2.715   3.538  15.845 -0.2418  0.2388 -0.9312
10493TIP3   OH252969   2.089   4.025  13.891 -0.3288  0.2137  0.4484
10493TIP3    H152970   2.134   3.974  13.823 -0.5059  1.6914 -0.8356
10493TIP3    H252971   2.109   3.979  13.973  0.7004 -1.0759 -0.4885
10494TIP3   OH252972   2.226   2.259   2.019  0.0302 -0.1451  0.5323
10494TIP3    H152973   2.135   2.254   1.988 -0.7277  0.8873  2.4384
10494TIP3    H252974   2.265   2.329   1.967 -0.1709 -0.7515 -0.4638
10495TIP3   OH252975   0.658   6.034   3.223  0.0244  0.4939  0.2093
10495TIP3    H152976   0.571   5.993   3.219  0.7827 -1.1519 -0.1215
10495TIP3    H252977   0.685   6.041   3.131  1.0166 -0.7923  0.3762
10496TIP3   OH252978   6.465   3.637  13.543 -0.1830  0.0445 -0.2213
10496TIP3    H152979   6.446   3.725  13.577  0.4535 -0.2716  1.0082
10496TIP3    H252980   6.558   3.639  13.522  0.0702 -0.6201  0.7642
10497TIP3   OH252981   6.052   3.212  16.552 -0.1500 -0.3189  0.4207
10497TIP3    H152982   6.133   3.257  16.574  0.3593 -1.4323  0.9205
10497TIP3    H252983   6.075   3.156  16.477 -1.5525  2.4969 -2.3754
10498TIP3   OH252984   6.143   2.344   1.205 -0.5483 -0.3372  0.6889
10498TIP3    H152985   6.205   2.413   1.184 -0.4840 -0.1365  1.4849
10498TIP3    H252986   6.190   2.287   1.266 -1.4312  0.3405  2.0520
10499TIP3   OH252987   2.706   4.297   0.737  0.1972  0.5608  0.4490
10499TIP3    H152988   2.684   4.374   0.685 -0.2986  0.1608  0.0465
10499TIP3    H252989   2.662   4.225   0.692 -0.0496  0.1667  1.2946
10500TIP3   OH252990   1.202   1.592  16.460  0.2891 -0.2731 -0.0626
10500TIP3    H152991   1.119   1.577  16.415  1.2094 -1.2892 -1.4771
10500TIP3    H252992   1.269   1.580  16.393  1.5518  2.2782  0.5862
10501TIP3   OH252993   6.629   3.898  12.083  0.1757 -0.4327  0.1160
10501TIP3    H152994   6.718   3.867  12.103  0.7195  0.7817 -0.3243
10501TIP3    H252995   6.639   3.949  12.003 -0.8470  0.0807  0.3017
10502TIP3   OH252996   1.918   3.112  14.383 -0.2008  0.1026  0.0473
10502TIP3    H152997   2.003   3.103  14.341 -0.0698  1.4109  0.0170
10502TIP3    H252998   1.902   3.026  14.422  2.1164  0.4188  1.8997
10503TIP3   OH252999   0.642   5.325  15.544 -0.0974 -0.8726 -0.5802
10503TIP3    H153000   0.725   5.367  15.520 -0.5341  1.1380  1.1239
10503TIP3    H253001   0.662   5.279  15.626 -0.0903 -2.5895 -1.4915
10504TIP3   OH253002   1.159   0.083   0.220 -0.0722 -0.2155  0.3389
10504TIP3    H153003   1.188   0.134   0.145  0.0599 -1.4931 -0.5244
10504TIP3    H253004   1.239   0.041   0.253 -0.2837 -0.4427  0.5688
10505TIP3   OH253005   2.318   2.370  14.570  0.6444 -0.5604  0.3564
10505TIP3    H153006   2.276   2.290  14.603 -0.4917  0.1068  0.5634
10505TIP3    H253007   2.411   2.357  14.589  0.3438 -1.3669  1.3724
10506TIP3   OH253008   5.222   3.468  11.746  0.3476 -0.2093 -0.3192
10506TIP3    H153009   5.154   3.476  11.680 -2.5426  0.2916  2.4754
10506TIP3    H253010   5.229   3.555  11.785 -0.3265 -1.1213  2.0285
10507TIP3   OH253011   1.224   0.278  11.710 -0.3062  0.1418 -0.0723
10507TIP3    H153012   1.249   0.337  11.638  2.4377  0.0226  0.6798
10507TIP3    H253013   1.221   0.335  11.787 -1.9777  0.0277 -0.0071
10508TIP3   OH253014   0.810   1.345  11.499  0.0193 -0.0066 -0.4686
10508TIP3    H153015   0.723   1.306  11.509  0.9250 -2.0927 -0.2723
10508TIP3    H253016   0.851   1.295  11.429  0.4470  2.1861 -1.9099
10509TIP3   OH253017   2.396   0.970   5.811  0.7501  0.1289  0.2085
10509TIP3    H153018   2.420   0.982   5.719  0.5684 -0.2957  0.1020
10509TIP3    H253019   2.307   1.005   5.818  0.2974 -0.9359 -0.0562
10510TIP3   OH253020   3.043   2.594  13.276 -0.5437  0.2486  0.0064
10510TIP3    H153021   2.948   2.606  13.279 -0.3996  1.7276 -0.3910
10510TIP3    H253022   3.077   2.663  13.333  0.3489  0.7247 -1.0691
10511TIP3   OH253023   2.353   1.365   6.307  0.0061 -0.1878 -0.1775
10511TIP3    H153024   2.279   1.425   6.305 -0.2182 -0.4298  0.5971
10511TIP3    H253025   2.386   1.370   6.397  0.3519 -0.7830 -0.2628
10512TIP3   OH253026   1.890   5.306  12.568  0.5538 -0.5266 -0.6462
10512TIP3    H153027   1.973   5.304  12.522  1.8880  0.4480  1.5789
10512TIP3    H253028   1.859   5.396  12.559  0.5942 -0.4500 -0.0619
10513TIP3   OH253029   4.374   0.258  12.842 -0.6501 -0.4668  0.5461
10513TIP3    H153030   4.343   0.178  12.800 -1.8354  1.2065 -2.0476
10513TIP3    H253031   4.296   0.314  12.847  0.7431  1.7551 -0.9232
10514TIP3   OH253032   1.946   1.394  13.439  0.2520  0.0649  0.3160
10514TIP3    H153033   2.008   1.447  13.490 -0.0735  0.7821 -0.0300
10514TIP3    H253034   1.984   1.391  13.351 -1.5549  2.9312 -0.7061
10515TIP3   OH253035   5.026   3.810   3.758 -0.7397  0.1016 -0.6614
10515TIP3    H153036   4.995   3.790   3.846  0.2617  1.3213  0.0003
10515TIP3    H253037   5.121   3.815   3.767 -0.6202  0.1912 -1.8312
10516TIP3   OH253038   5.907   3.713   1.651 -0.2955  0.0412  0.4918
10516TIP3    H153039   5.916   3.725   1.746  0.9847  0.5040  0.3281
10516TIP3    H253040   5.851   3.635   1.642 -0.0498 -0.2829  1.6192
10517TIP3   OH253041   6.649   0.949  15.092 -0.0333  0.0170  0.7288
10517TIP3    H153042   6.628   0.911  15.177  1.3594 -0.6112  0.8219
10517TIP3    H253043   6.696   1.030  15.114 -0.6262  0.4121  0.5471
10518TIP3   OH253044   6.136   5.133  11.479 -0.2442 -0.3197  0.0815
10518TIP3    H153045   6.069   5.065  11.482 -1.1891  0.5823  0.0744
10518TIP3    H253046   6.177   5.130  11.566  0.1748 -1.3114 -0.1354
10519TIP3   OH253047   4.551   6.408   3.244  0.0417  0.0467  0.1843
10519TIP3    H153048   4.499   6.330   3.229  0.7409 -0.1072 -1.6880
10519TIP3    H253049   4.641   6.376   3.251  0.1638  0.5382  1.0052
10520TIP3   OH253050   0.825   2.277  15.357  0.9550 -0.1944  0.0220
10520TIP3    H153051   0.839   2.186  15.382 -1.1904 -0.4804  0.4294
10520TIP3    H253052   0.785   2.272  15.270  2.1610  0.4570 -0.5946
10521TIP3   OH253053   6.134   6.293   4.095  0.3148  0.2925  0.1298
10521TIP3    H153054   6.168   6.207   4.070 -1.3359 -0.8773  1.6558
10521TIP3    H253055   6.203   6.354   4.070  1.3491 -1.4114 -1.4151
10522TIP3   OH253056   2.007   0.483  15.271 -0.4371  0.0306 -0.6939
10522TIP3    H153057   1.950   0.559  15.263  0.3694  0.8104  0.6891
10522TIP3    H253058   2.035   0.482  15.362  1.8658 -0.2366 -1.3292
10523TIP3   OH253059   1.019   6.082   1.689 -0.2876  0.2616 -0.2895
10523TIP3    H153060   0.940   6.030   1.703 -0.1863  0.7014  2.3626
10523TIP3    H253061   1.089   6.018   1.682 -0.2470 -0.0912  2.3606
10524TIP3   OH253062   3.945   0.630   1.278 -1.0290  0.5787 -0.5736
10524TIP3    H153063   3.991   0.603   1.357 -0.2687 -0.0924 -1.2278
10524TIP3    H253064   3.949   0.726   1.279  0.7721  0.5327 -0.8329
10525TIP3   OH253065   2.993   0.734  15.089  0.0314  0.2116 -0.3737
10525TIP3    H153066   3.034   0.740  15.176 -0.6550  0.4043 -0.0608
10525TIP3    H253067   2.957   0.645  15.086 -1.3751  0.7455  0.1884
10526TIP3   OH253068   1.761   1.675   3.558 -0.9283 -0.6463 -0.6409
10526TIP3    H153069   1.705   1.748   3.532 -0.5445 -0.5049 -1.0935
10526TIP3    H253070   1.715   1.597   3.526 -0.9262 -0.5368 -0.9181
10527TIP3   OH253071   0.148   3.655   1.969 -0.3426  0.1829  1.4235
10527TIP3    H153072   0.154   3.583   2.032  1.8070  0.2508  1.3977
10527TIP3    H253073   0.217   3.635   1.905  0.9438  2.6669  1.9073
10528TIP3   OH253074   1.623   3.611  13.425 -0.3199  0.0542 -0.4186
10528TIP3    H153075   1.619   3.529  13.376 -1.1552 -0.2131  0.0888
10528TIP3    H253076   1.685   3.594  13.496 -1.4571 -0.5599  0.4445
10529TIP3   OH253077   6.737   3.028   3.643  0.6674 -0.1855  0.1007
10529TIP3    H153078   6.727   3.036   3.549  0.5809  0.6054  0.1673
10529TIP3    H253079   6.667   2.969   3.670 -1.6296  2.3448  0.0954
10530TIP3   OH253080   1.084   5.422  10.781 -0.5610 -0.4434 -0.0096
10530TIP3    H153081   1.165   5.473  10.770 -0.3583 -0.5181  1.0565
10530TIP3    H253082   1.101   5.340  10.735  0.6898 -1.2198  1.7510
10531TIP3   OH253083   4.579   1.439  12.501  0.1139 -0.2242 -0.5310
10531TIP3    H153084   4.650   1.381  12.471  1.9385  1.0746  1.0354
10531TIP3    H253085   4.607   1.527  12.476 -0.9083  0.3355  0.2055
10532TIP3   OH253086   6.271   5.088  17.097 -0.1320  0.3842  0.1807
10532TIP3    H153087   6.266   5.106  17.003 -0.3056  0.1553  0.1449
10532TIP3    H253088   6.185   5.114  17.131  0.0274  0.7253  0.3203
10533TIP3   OH253089   5.749   4.658  13.110 -0.1220 -0.9887 -0.0762
10533TIP3    H153090   5.820   4.671  13.048 -1.1777  1.2596 -0.9240
10533TIP3    H253091   5.672   4.641  13.055 -0.4333 -2.7101  0.8006
10534TIP3   OH253092   2.250   1.552   1.645  0.7454  0.3720  0.2966
10534TIP3    H153093   2.261   1.543   1.550 -0.5642 -2.3279  0.2839
10534TIP3    H253094   2.189   1.625   1.655  0.5893  0.4472 -0.9721
10535TIP3   OH253095   5.133   1.865   6.490 -0.2233  0.5500  0.2342
10535TIP3    H153096   5.048   1.857   6.535 -0.7059  0.3369 -0.6911
10535TIP3    H253097   5.124   1.809   6.413  1.5584 -1.2691  1.2507
10536TIP3   OH253098   3.304   1.065  16.298 -0.3193  0.0916  0.2865
10536TIP3    H153099   3.352   1.136  16.255  1.3168 -0.9626  0.2859
10536TIP3    H253100   3.287   1.002  16.228  0.5204 -0.6725  0.7470
10537TIP3   OH253101   5.876   0.789   4.783  0.1392  0.2009  0.2971
10537TIP3    H153102   5.878   0.845   4.860 -0.8932  0.0838  0.4299
10537TIP3    H253103   5.864   0.849   4.710  1.4877  0.3427  0.1787
10538TIP3   OH253104   3.894   0.901   3.108 -0.2867 -0.2315  0.3913
10538TIP3    H153105   3.816   0.951   3.083  0.1593  1.2328  1.7459
10538TIP3    H253106   3.965   0.966   3.108  0.5209 -1.0920  1.2008
10539TIP3   OH253107   1.575   2.676   5.373 -0.0520 -0.9896 -0.4619
10539TIP3    H153108   1.526   2.604   5.412 -0.7553  0.1308  0.8165
10539TIP3    H253109   1.534   2.688   5.287 -1.0481 -1.0494 -0.0096
10540TIP3   OH253110   3.299   3.766   4.268  0.6651  0.5263  0.1670
10540TIP3    H153111   3.382   3.768   4.315 -0.2927  2.8021  2.0191
10540TIP3    H253112   3.291   3.854   4.230 -1.3968  0.8596  1.1796
10541TIP3   OH253113   3.018   0.888  12.379 -0.0160 -0.2675 -0.1824
10541TIP3    H153114   2.968   0.830  12.322 -2.0644 -0.1242  1.3347
10541TIP3    H253115   3.092   0.918  12.325 -0.9223 -1.4146 -2.1643
10542TIP3   OH253116   6.368   5.386  14.875 -1.0737 -0.7284 -0.2006
10542TIP3    H153117   6.276   5.360  14.877 -1.3344  0.1745  0.1739
10542TIP3    H253118   6.365   5.481  14.863 -0.2435 -0.2979  2.5168
10543TIP3   OH253119   0.596   0.193   0.374  0.3049 -0.7770  0.2661
10543TIP3    H153120   0.554   0.271   0.338  1.1367  0.1681  1.2730
10543TIP3    H253121   0.634   0.222   0.457  0.2422 -2.3699  0.9015
10544TIP3   OH253122   4.155   4.491  14.639  0.1681  0.2438 -0.2919
10544TIP3    H153123   4.135   4.443  14.720 -0.5459 -0.9125 -1.1259
10544TIP3    H253124   4.078   4.545  14.625  0.8515  1.4722  0.4891
10545TIP3   OH253125   0.484   6.595   3.587 -0.5982 -0.0633  0.6402
10545TIP3    H153126   0.546   6.534   3.628  1.1962  0.4222 -1.1379
10545TIP3    H253127   0.470   6.663   3.652 -0.9608 -1.2644  1.8685
10546TIP3   OH253128   6.177   2.048  11.653 -0.1516 -0.8449 -0.1444
10546TIP3    H153129   6.174   2.075  11.561 -0.7725 -1.6798 -0.3769
10546TIP3    H253130   6.260   2.084  11.686  0.0483 -0.4925 -1.0071
10547TIP3   OH253131   3.195   6.580  12.169 -0.8173  0.3626 -0.4415
10547TIP3    H153132   3.140   6.601  12.093 -0.7534  0.6450 -0.4100
10547TIP3    H253133   3.147   6.615  12.244 -0.8436  0.1508 -0.3569
10548TIP3   OH253134   6.248   5.290  13.705  0.0274 -0.0093  0.1534
10548TIP3    H153135   6.282   5.217  13.654 -0.1040 -0.3227  0.5061
10548TIP3    H253136   6.325   5.328  13.748 -0.0918 -0.9564  1.2582
10549TIP3   OH253137   2.430   2.101  13.973  0.1375  0.3429 -0.6822
10549TIP3    H153138   2.504   2.112  14.033 -0.1812 -0.3004 -0.1586
10549TIP3    H253139   2.384   2.185  13.976  0.5033  0.5401 -0.5435
10550TIP3   OH253140   1.353   2.696   3.287  0.2807 -0.3515  0.1710
10550TIP3    H153141   1.427   2.755   3.302 -0.2351  0.7367 -1.3372
10550TIP3    H253142   1.281   2.754   3.263 -0.9493 -1.4298  1.1101
10551TIP3   OH253143   4.977   4.782  12.489 -0.6269 -0.2455 -0.0396
10551TIP3    H153144   4.927   4.856  12.456  0.5599  1.2809  1.3906
10551TIP3    H253145   5.068   4.805  12.471 -0.0847 -0.3225  2.2447
10552TIP3   OH253146   1.438   0.441   1.941 -0.0751 -0.1917 -0.8252
10552TIP3    H153147   1.400   0.374   1.998 -1.7260  2.5472  1.5842
10552TIP3    H253148   1.528   0.450   1.971 -0.0828 -0.7604 -0.6196
10553TIP3   OH253149   1.352   5.791  12.288 -0.4071 -0.3150 -0.8131
10553TIP3    H153150   1.401   5.797  12.370  0.2064  0.6668 -1.2300
10553TIP3    H253151   1.262   5.809  12.312 -0.7313 -2.6758  0.0548
10554TIP3   OH253152   3.450   6.825   4.141 -0.5823 -0.4368  0.3801
10554TIP3    H153153   3.417   6.756   4.083  0.8278 -2.6359  2.0035
10554TIP3    H253154   3.392   6.824   4.216 -0.4350  0.0254  0.5045
10555TIP3   OH253155   5.402   3.967  12.536 -0.1140 -0.4788 -0.1255
10555TIP3    H153156   5.449   4.049  12.519  1.5323 -1.0005  1.5835
10555TIP3    H253157   5.319   3.994  12.574 -0.2476  0.4186 -1.0143
10556TIP3   OH253158   5.971   4.284  11.633  0.2782  0.1365  0.3817
10556TIP3    H153159   5.922   4.339  11.572 -0.9011  1.4389  2.3643
10556TIP3    H253160   5.941   4.195  11.616 -0.3509  0.5270 -0.6286
10557TIP3   OH253161   5.070   2.440   6.103  0.2291 -0.2050 -0.5147
10557TIP3    H153162   4.992   2.387   6.116  0.5914 -1.4081 -2.7474
10557TIP3    H253163   5.036   2.528   6.083 -0.5293 -0.5271 -0.6634
10558TIP3   OH253164   5.744   3.888  15.646 -0.0825  0.2708 -0.6717
10558TIP3    H153165   5.834   3.886  15.677 -0.0583 -1.0480 -0.7858
10558TIP3    H253166   5.691   3.891  15.726  0.0550  1.9433 -0.6141
10559TIP3   OH253167   0.607   2.139  12.857  0.5452 -0.2413  0.2685
10559TIP3    H153168   0.581   2.081  12.785 -0.0074 -0.3210  0.5262
10559TIP3    H253169   0.602   2.084  12.935  0.3208  0.0716  0.4734
10560TIP3   OH253170   1.054   4.868   0.197 -0.0243  0.0135  0.3489
10560TIP3    H153171   1.050   4.855   0.102  2.3176  3.2626 -0.3433
10560TIP3    H253172   1.146   4.880   0.216 -0.5180  0.2001  2.9788
10561TIP3   OH253173   4.726   2.224   2.436  0.8894 -0.0481  0.1190
10561TIP3    H153174   4.817   2.214   2.463  0.6818 -0.9407  0.5068
10561TIP3    H253175   4.676   2.219   2.517  0.4530 -0.0649 -0.1446
10562TIP3   OH253176   2.079   1.969   2.159 -0.3667 -0.5704  0.0850
10562TIP3    H153177   2.150   1.958   2.096  1.0688  0.8514  1.3651
10562TIP3    H253178   2.081   1.891   2.213 -1.0948 -1.4344 -1.0905
10563TIP3   OH253179   3.032   5.818  11.362  0.0399 -0.1034 -0.0350
10563TIP3    H153180   3.043   5.865  11.280  1.4649 -0.2177  0.0627
10563TIP3    H253181   2.940   5.831  11.385 -0.4446 -0.2581 -1.7476
10564TIP3   OH253182   2.785   5.702   0.747  0.2236  0.3158 -0.0287
10564TIP3    H153183   2.873   5.739   0.747  0.2183  0.3857 -1.8262
10564TIP3    H253184   2.727   5.778   0.748  0.2160  0.3825 -1.9531
10565TIP3   OH253185   5.181   2.375  16.477  0.2171 -0.0896 -0.5153
10565TIP3    H153186   5.128   2.417  16.545  0.5606 -0.6462  0.1161
10565TIP3    H253187   5.244   2.321  16.526 -0.0323 -1.1149 -1.2927
10566TIP3   OH253188   4.406   5.744  10.981 -0.0866 -0.1936 -0.5157
10566TIP3    H153189   4.492   5.728  10.942  0.0702  0.0026 -0.2571
10566TIP3    H253190   4.344   5.717  10.914  0.1470  2.4284 -1.9063
10567TIP3   OH253191   4.732   2.814   4.789  0.5992  0.4785  0.4937
10567TIP3    H153192   4.670   2.837   4.859  1.4168  0.4831  1.2356
10567TIP3    H253193   4.681   2.822   4.709 -0.4347  0.2376  1.1039
10568TIP3   OH253194   2.142   5.461   6.208 -0.2678 -0.5424  0.0139
10568TIP3    H153195   2.077   5.532   6.210  0.3796  0.0609  0.7298
10568TIP3    H253196   2.162   5.449   6.115 -1.8603 -1.1810 -0.2634
10569TIP3   OH253197   4.462   1.450   3.028  0.5142  0.3033  0.0088
10569TIP3    H153198   4.462   1.433   2.934  2.1371  2.1562 -0.3875
10569TIP3    H253199   4.430   1.539   3.036 -1.5348 -0.4880  1.4411
10570TIP3   OH253200   5.724   4.798   2.541  0.6337 -0.1609 -1.2978
10570TIP3    H153201   5.788   4.763   2.603  0.2282  0.5164 -0.4731
10570TIP3    H253202   5.669   4.723   2.518 -1.0967  0.1002  1.5042
10571TIP3   OH253203   2.741   6.155   6.100  0.1438  0.1731 -0.4750
10571TIP3    H153204   2.803   6.228   6.100 -0.4937  0.7224  0.1229
10571TIP3    H253205   2.702   6.157   6.187 -0.0993 -0.7017 -0.5562
10572TIP3   OH253206   0.067   1.920  11.878 -0.1085  0.5163 -0.5018
10572TIP3    H153207   0.047   1.826  11.873 -0.3620  0.5268  0.2404
10572TIP3    H253208  -0.002   1.962  11.827  0.2466  0.2774 -1.1965
10573TIP3   OH253209   2.970   3.662  14.732 -0.3760 -0.1009 -0.7790
10573TIP3    H153210   2.927   3.728  14.786  0.5800  0.3896 -0.5997
10573TIP3    H253211   2.900   3.627  14.677 -1.2703 -0.2811  0.4290
10574TIP3   OH253212   2.138   0.696  13.736  0.3959 -0.1223 -0.1581
10574TIP3    H153213   2.193   0.652  13.672  0.5042 -1.5146  0.8298
10574TIP3    H253214   2.157   0.651  13.819 -0.7445  0.6970  0.5851
10575TIP3   OH253215   2.891   0.476  15.151  0.6027 -0.4136  0.6859
10575TIP3    H153216   2.979   0.440  15.134  0.2935 -0.3359 -1.2559
10575TIP3    H253217   2.882   0.471  15.246  1.7197 -2.8104  0.7567
10576TIP3   OH253218   2.445   5.250  10.320 -0.1308  0.6519 -0.0196
10576TIP3    H153219   2.516   5.189  10.342 -0.8080 -0.0414  0.2984
10576TIP3    H253220   2.377   5.194  10.281  0.1014  1.5108 -1.7548
10577TIP3   OH253221   1.116   5.025   5.136  0.0133 -0.0595 -0.1451
10577TIP3    H153222   1.207   4.995   5.130  0.1424  0.4430 -0.7945
10577TIP3    H253223   1.114   5.106   5.086 -0.3052  1.1159  1.7009
10578TIP3   OH253224   1.842   4.605  14.112 -0.9066  0.3152  0.7006
10578TIP3    H153225   1.813   4.566  14.194  0.3593 -0.2124  0.9216
10578TIP3    H253226   1.916   4.550  14.084 -0.3854  1.3570 -0.0282
10579TIP3   OH253227   4.768   3.026  14.234  0.1963  1.0916  0.5072
10579TIP3    H153228   4.800   2.937  14.253  0.6110  0.8027 -1.3142
10579TIP3    H253229   4.684   3.031  14.279  1.0316  0.4771  2.2224
10580TIP3   OH253230   2.068   2.707  11.903 -0.6614 -0.0707 -0.2629
10580TIP3    H153231   1.986   2.659  11.917 -1.1093  1.1762  1.8482
10580TIP3    H253232   2.137   2.641  11.913 -1.3423 -0.9182 -0.9548
10581TIP3   OH253233   6.638   4.462   4.769 -0.2661 -0.0574  0.2991
10581TIP3    H153234   6.622   4.514   4.847 -0.1081 -1.0944  1.0411
10581TIP3    H253235   6.573   4.392   4.773  0.1820 -0.5078 -0.1325
10582TIP3   OH253236   5.826   3.058   5.337  0.0824  0.1789  0.2982
10582TIP3    H153237   5.760   3.067   5.268 -0.3960  0.1504  0.7448
10582TIP3    H253238   5.900   3.110   5.306 -0.3854  0.7266  0.0767
10583TIP3   OH253239   1.262   5.564  11.003 -0.2195  0.5716 -0.0459
10583TIP3    H153240   1.223   5.603  10.924 -0.4186 -0.1415 -0.3039
10583TIP3    H253241   1.332   5.508  10.970  0.3303  1.0088  0.3543
10584TIP3   OH253242   6.430   4.527   0.993  0.0747  0.0047  0.5247
10584TIP3    H153243   6.445   4.617   0.963  1.7972  0.8285  3.4544
10584TIP3    H253244   6.347   4.532   1.040 -0.3820 -0.2316 -0.2396
10585TIP3   OH253245   4.934   2.114  15.098  0.0092 -0.0119  0.2881
10585TIP3    H153246   4.872   2.171  15.145  0.9261  1.4556 -0.2039
10585TIP3    H253247   4.878   2.052  15.051 -1.2393  2.1199 -1.2482
10586TIP3   OH253248   1.917   0.661   1.317  0.2261  0.1214 -0.3141
10586TIP3    H153249   1.997   0.706   1.342  0.3277 -0.1237 -0.1939
10586TIP3    H253250   1.859   0.671   1.393 -0.1389  0.9424 -0.6833
10587TIP3   OH253251   5.029   6.456  12.274 -0.3526  0.3109  0.0258
10587TIP3    H153252   5.097   6.441  12.209  0.1934 -1.6359  0.9683
10587TIP3    H253253   5.076   6.480  12.353 -0.6892 -1.3863  0.7828
10588TIP3   OH253254   0.149   6.765   1.535 -0.9028 -0.0568  0.1171
10588TIP3    H153255   0.101   6.718   1.466 -0.7063 -1.3664  0.8539
10588TIP3    H253256   0.086   6.771   1.607 -0.3740 -0.7052  0.6401
10589TIP3   OH253257   5.493   1.208   1.726  0.2280  0.1031  0.5932
10589TIP3    H153258   5.448   1.255   1.656  0.6625  0.9771  0.8799
10589TIP3    H253259   5.582   1.195   1.692  0.3918  0.3788  0.9062
10590TIP3   OH253260   0.081   4.456  11.240 -0.6142  0.2717 -0.4567
10590TIP3    H153261   0.030   4.486  11.316 -0.0985 -0.7793  0.3268
10590TIP3    H253262   0.024   4.392  11.197 -0.8224  0.7147 -0.8495
10591TIP3   OH253263   2.982   5.732  12.957  0.4002  0.0169  0.3230
10591TIP3    H153264   2.932   5.805  12.919 -0.6138  0.1656  1.8293
10591TIP3    H253265   2.954   5.656  12.907 -0.1375  0.3472  0.1037
10592TIP3   OH253266   3.874   4.196   3.382  0.0059 -0.0765 -0.5512
10592TIP3    H153267   3.836   4.270   3.429  0.7648 -0.1134  0.1271
10592TIP3    H253268   3.809   4.175   3.315 -2.3935 -1.6816  2.0613
10593TIP3   OH253269   1.119   5.155   0.417  0.5048  0.1805  0.4670
10593TIP3    H153270   1.063   5.231   0.435 -0.7057 -0.4968 -0.2465
10593TIP3    H253271   1.061   5.080   0.428 -0.0908 -0.4348 -4.4413
10594TIP3   OH253272   0.194   5.748  16.286 -0.2864  0.4832  0.5796
10594TIP3    H153273   0.243   5.826  16.312  1.8114 -0.6001  0.0803
10594TIP3    H253274   0.260   5.687  16.256 -1.9478 -1.2277  0.2026
10595TIP3   OH253275   5.049   5.517   1.557 -0.0070  0.0855  0.0581
10595TIP3    H153276   5.010   5.555   1.478  1.0388  1.3012  0.0820
10595TIP3    H253277   4.976   5.478   1.604 -0.9745  1.1879 -0.4922
10596TIP3   OH253278   1.510   0.244  16.264 -0.3769 -0.1591  0.5615
10596TIP3    H153279   1.419   0.272  16.274 -0.5863 -0.4529 -0.4460
10596TIP3    H253280   1.522   0.231  16.170  0.2390 -1.6470  0.8048
10597TIP3   OH253281   5.746   6.782  15.886  1.2369 -0.3484 -0.4224
10597TIP3    H153282   5.706   6.848  15.829  1.1046 -0.1937 -0.1485
10597TIP3    H253283   5.672   6.745  15.934  1.6265  1.4740  1.7293
10598TIP3   OH253284   1.163   0.619  13.462  0.4205 -0.3020  0.6757
10598TIP3    H153285   1.230   0.678  13.427 -0.3074 -1.2699 -2.6186
10598TIP3    H253286   1.108   0.676  13.516  1.6253  1.3190  0.2826
10599TIP3   OH253287   5.265   6.435   1.350 -0.4544  0.0625 -0.2064
10599TIP3    H153288   5.358   6.417   1.360  0.4197  3.9130  0.4019
10599TIP3    H253289   5.236   6.462   1.437 -1.5986  0.8174 -0.7807
10600TIP3   OH253290   4.093   3.266  13.741  0.2560 -0.0984  0.0776
10600TIP3    H153291   4.177   3.224  13.728 -0.0627 -0.6547 -0.2216
10600TIP3    H253292   4.101   3.351  13.698  0.8131  0.0391  0.4533
10601TIP3   OH253293   6.706   1.467   1.966 -0.4599 -0.2595  0.4202
10601TIP3    H153294   6.740   1.555   1.985  0.4296 -0.1943 -1.2677
10601TIP3    H253295   6.783   1.417   1.940 -1.2657 -0.8779 -0.8794
10602TIP3   OH253296   3.723   5.960   6.517  0.4264 -0.1677 -0.5701
10602TIP3    H153297   3.808   5.967   6.561  1.1169  1.1458 -2.0027
10602TIP3    H253298   3.684   5.881   6.553  2.3198 -0.8882  0.0435
10603TIP3   OH253299   1.509   3.541   3.661 -0.7592  0.6582  0.0449
10603TIP3    H153300   1.446   3.613   3.653 -0.7806  0.5560 -0.8440
10603TIP3    H253301   1.526   3.514   3.570 -1.2423 -0.8775  0.3720
10604TIP3   OH253302   0.513   2.821  14.567  0.2716  0.7761  0.1447
10604TIP3    H153303   0.540   2.892  14.508  0.3578  0.4798 -0.1781
10604TIP3    H253304   0.506   2.745  14.510  1.2159  0.2835  0.6663
10605TIP3   OH253305   0.885   1.854  14.363  0.1211 -0.1383 -1.3791
10605TIP3    H153306   0.890   1.941  14.402 -0.3826  0.4826 -2.6347
10605TIP3    H253307   0.941   1.859  14.285 -0.0921 -0.8675 -1.5890
10606TIP3   OH253308   0.822   3.067   3.392  0.1100 -0.1491  0.0811
10606TIP3    H153309   0.848   3.066   3.484 -2.4525  1.3125  0.9246
10606TIP3    H253310   0.855   3.151   3.359  1.5464 -0.9327 -0.5491
10607TIP3   OH253311   0.491   6.754   2.813  0.0581  0.4742 -0.1790
10607TIP3    H153312   0.544   6.820   2.858  0.1019  0.4927 -0.2576
10607TIP3    H253313   0.432   6.720   2.880 -0.6530  1.2990 -0.3637
10608TIP3   OH253314   6.223   4.778  17.175 -0.1333  0.1765  0.4305
10608TIP3    H153315   6.223   4.874  17.178  1.2046  0.2045  0.1723
10608TIP3    H253316   6.273   4.756  17.097 -0.3173 -0.7354  0.5563
10609TIP3   OH253317   0.370   5.543   3.271  0.3488 -0.1950  0.5982
10609TIP3    H153318   0.462   5.560   3.287  0.3666  0.0408  0.2528
10609TIP3    H253319   0.369   5.457   3.227  0.4836  0.2569 -0.3057
10610TIP3   OH253320   6.710   3.014   3.348 -0.8283 -0.4432  0.1118
10610TIP3    H153321   6.647   2.956   3.304  0.6509 -1.4975 -0.7214
10610TIP3    H253322   6.796   2.986   3.315  0.1996  0.1272  2.1193
10611TIP3   OH253323   5.459   5.942  16.346 -0.2196 -0.5911 -0.1656
10611TIP3    H153324   5.404   5.921  16.422 -1.9654  0.7979 -0.9766
10611TIP3    H253325   5.458   5.862  16.294  1.7784 -1.9010  1.6218
10612TIP3   OH253326   1.710   5.982   6.281  0.1099  0.1293 -0.4962
10612TIP3    H153327   1.748   6.009   6.364 -0.7048 -1.9544  0.6428
10612TIP3    H253328   1.642   6.047   6.264  0.6288  0.8742  0.2086
10613TIP3   OH253329   0.153   4.109  16.204  0.5947 -0.4695 -0.7505
10613TIP3    H153330   0.149   4.028  16.153  0.3199  1.0209 -3.2600
10613TIP3    H253331   0.065   4.145  16.198  1.0423  0.6435 -0.7604
10614TIP3   OH253332   2.082   3.867  16.614  0.4283  0.4104  0.1927
10614TIP3    H153333   2.008   3.925  16.628  0.0670 -0.0317  0.1328
10614TIP3    H253334   2.155   3.910  16.658  1.0238  2.6446 -2.6707
10615TIP3   OH253335   0.679   4.445  14.777  0.2762 -0.2015  0.2185
10615TIP3    H153336   0.666   4.450  14.682  0.2354 -0.3430  0.2152
10615TIP3    H253337   0.771   4.421  14.787  0.0639 -1.0762  0.1902
10616TIP3   OH253338   2.404   4.452   2.465 -0.0588 -0.3378 -0.5099
10616TIP3    H153339   2.389   4.546   2.478  0.9748 -0.1995 -0.2634
10616TIP3    H253340   2.316   4.415   2.461 -0.4830  0.5242  0.2782
10617TIP3   OH253341   4.393   1.391  13.871  0.0613 -0.3571  0.0658
10617TIP3    H153342   4.335   1.358  13.940 -0.0599 -2.1334 -0.8303
10617TIP3    H253343   4.480   1.357  13.894  0.5986  1.4053  0.8218
10618TIP3   OH253344   1.809   2.885  16.278  0.3644  0.2642  0.1029
10618TIP3    H153345   1.804   2.964  16.224 -0.0709  0.1798  0.0195
10618TIP3    H253346   1.872   2.829  16.234 -0.1595  0.0989 -0.4463
10619TIP3   OH253347   1.286   0.313   2.427 -0.5587  0.2829  0.2309
10619TIP3    H153348   1.219   0.376   2.405 -0.3388  0.0894 -1.0339
10619TIP3    H253349   1.252   0.229   2.397 -0.6156 -0.1431  1.4098
10620TIP3   OH253350   4.038   0.218  14.712 -0.0737  0.3197  0.1368
10620TIP3    H153351   3.947   0.213  14.684 -1.3452  2.9287  3.1883
10620TIP3    H253352   4.046   0.152  14.781  0.0019  0.7032  0.5079
10621TIP3   OH253353   3.386   4.185   0.206 -0.1232  0.1138  0.6050
10621TIP3    H153354   3.465   4.145   0.170  0.3049  1.7126 -0.3012
10621TIP3    H253355   3.320   4.116   0.200  1.2152 -1.3046  1.5483
10622TIP3   OH253356   2.425   1.892  11.671 -0.0931  0.1051  0.2399
10622TIP3    H153357   2.506   1.916  11.716  0.3686 -0.0309 -0.4968
10622TIP3    H253358   2.435   1.929  11.583 -0.0901 -1.3404 -0.3959
10623TIP3   OH253359   1.002   4.149  13.268  0.1660 -0.2463  0.2128
10623TIP3    H153360   1.073   4.192  13.314 -0.0271  3.3448 -2.3823
10623TIP3    H253361   1.017   4.055  13.281  2.9125  0.4425  3.1197
10624TIP3   OH253362   0.337   4.073  11.624  1.0049  0.2219 -0.2714
10624TIP3    H153363   0.300   4.161  11.616  0.4056  0.6071  4.1572
10624TIP3    H253364   0.410   4.084  11.685  0.3871 -2.3793  1.0751
10625TIP3   OH253365   2.924   2.514  16.469  0.0908  0.1395  0.7406
10625TIP3    H153366   2.886   2.546  16.550  0.8556  1.4441  0.6078
10625TIP3    H253367   2.866   2.442  16.442 -0.7079  0.3121  1.9277
10626TIP3   OH253368   4.419   5.045  10.742 -0.2444 -0.2648 -0.0788
10626TIP3    H153369   4.407   4.950  10.737 -0.4064 -0.3530  1.3980
10626TIP3    H253370   4.463   5.068  10.661 -1.0155 -1.4715 -0.8735
10627TIP3   OH253371   2.061   3.584   4.653  0.1345  0.0460 -0.0835
10627TIP3    H153372   2.135   3.638   4.628 -0.6312  0.7260 -0.9618
10627TIP3    H253373   2.068   3.575   4.748  0.1226  1.9426  0.1312
10628TIP3   OH253374   1.361   4.152  16.903 -0.5079  0.0128 -0.6210
10628TIP3    H153375   1.387   4.133  16.993 -1.6047  0.3177 -0.2333
10628TIP3    H253376   1.418   4.095  16.850  1.7065  1.4115  0.0999
10629TIP3   OH253377   1.432   2.888  12.041  0.4292  0.1206  0.2517
10629TIP3    H153378   1.464   2.962  11.990  0.6051  0.0527  0.2654
10629TIP3    H253379   1.374   2.927  12.107  0.5339  0.2463  0.2686
10630TIP3   OH253380   4.898   0.363  11.809  0.7917  0.2559 -0.2083
10630TIP3    H153381   4.812   0.381  11.770 -0.8526 -2.7240  1.6679
10630TIP3    H253382   4.937   0.299  11.750 -0.3838 -1.9069  1.2118
10631TIP3   OH253383   4.709   4.456  11.794  0.2503  0.1197  0.6516
10631TIP3    H153384   4.675   4.471  11.705  0.7455 -1.4174  0.1753
10631TIP3    H253385   4.795   4.418  11.780 -0.6209 -2.4435  1.7262
10632TIP3   OH253386   1.857   1.899   1.981  0.3104  0.5211 -0.2372
10632TIP3    H153387   1.827   1.967   1.921  0.6270  0.6199 -0.2875
10632TIP3    H253388   1.880   1.946   2.061  0.2239  0.4343 -0.1618
10633TIP3   OH253389   3.179   2.386  13.918 -0.2385  0.4363 -0.1624
10633TIP3    H153390   3.157   2.478  13.933  1.3600  0.6762  1.0006
10633TIP3    H253391   3.197   2.350  14.005 -1.3065 -1.1396 -0.5447
10634TIP3   OH253392   0.299   5.347   3.556 -0.2881  0.1188  0.3160
10634TIP3    H153393   0.339   5.432   3.572  0.7021 -0.2575 -0.0831
10634TIP3    H253394   0.254   5.357   3.472  0.4107  0.0649 -0.0765
10635TIP3   OH253395   1.659   4.185  14.024  0.2043 -0.6597  0.7193
10635TIP3    H153396   1.662   4.261  14.081  0.5619 -2.0175  2.6102
10635TIP3    H253397   1.572   4.148  14.036 -0.3057 -0.0850 -0.9003
10636TIP3   OH253398   0.263   6.770   1.194  0.3188 -0.3898  0.3197
10636TIP3    H153399   0.347   6.810   1.214  0.2786  0.3206 -0.8485
10636TIP3    H253400   0.239   6.722   1.274  1.6444 -0.2990  0.7898
10637TIP3   OH253401   2.358   3.933  11.388  0.5492  0.2580 -0.3965
10637TIP3    H153402   2.329   3.848  11.421 -1.4106  0.9389 -0.2662
10637TIP3    H253403   2.385   3.915  11.297  0.2217 -0.5163 -0.3526
10638TIP3   OH253404   6.245   1.389  17.121 -0.4117  0.0413  0.6371
10638TIP3    H153405   6.229   1.445  17.196  0.9988  0.3601  0.7207
10638TIP3    H253406   6.340   1.390  17.109 -0.1342 -3.3552  1.4609
10639TIP3   OH253407   0.737   0.303  14.340  0.2204 -0.7201 -0.4351
10639TIP3    H153408   0.781   0.282  14.257  0.9682  2.0627 -0.8265
10639TIP3    H253409   0.664   0.360  14.316  0.6628  0.4313  0.8282
10640TIP3   OH253410   2.156   0.953  15.899 -0.0157 -0.1583 -0.3504
10640TIP3    H153411   2.072   0.927  15.862 -0.4681  1.6715 -0.6847
10640TIP3    H253412   2.134   0.995  15.983  0.4601  1.0996 -0.8317
10641TIP3   OH253413   0.262   2.281   4.264  0.3103  0.3606 -0.0492
10641TIP3    H153414   0.349   2.245   4.279  0.7942  0.4614 -2.2550
10641TIP3    H253415   0.203   2.223   4.312  1.5440  0.0928  1.2048
10642TIP3   OH253416   2.123   0.421   2.081 -0.1597 -0.6210  0.0464
10642TIP3    H153417   2.074   0.457   2.155 -1.9431 -1.1657 -0.8131
10642TIP3    H253418   2.070   0.442   2.004  1.9871  0.5432 -1.2115
10643TIP3   OH253419   4.820   1.030  14.690  0.3097  0.0416  0.0354
10643TIP3    H153420   4.783   1.118  14.683 -2.3023 -0.9622  0.2811
10643TIP3    H253421   4.777   0.991  14.766  1.6866 -1.3732  0.1593
10644TIP3   OH253422   3.071   3.581   2.125  0.2263  0.2201 -0.0339
10644TIP3    H153423   3.007   3.514   2.103 -0.0270  1.0020 -1.8749
10644TIP3    H253424   3.107   3.609   2.040 -0.9097  3.5934  0.4555
10645TIP3   OH253425   6.162   2.290   5.012 -0.1385 -0.3674  0.5752
10645TIP3    H153426   6.135   2.279   4.921 -1.5932  0.6621  0.8388
10645TIP3    H253427   6.091   2.341   5.052  1.2696  0.6914  1.8564
10646TIP3   OH253428   4.692   5.673   2.024  0.0416 -0.3315  0.1219
10646TIP3    H153429   4.685   5.636   2.111 -0.9525  0.4565  0.3963
10646TIP3    H253430   4.783   5.705   2.018  0.9385 -2.7535 -0.1463
10647TIP3   OH253431   6.413   5.301  12.601  0.2677  0.0354 -0.0767
10647TIP3    H153432   6.471   5.364  12.644 -0.9821 -0.1006  1.9297
10647TIP3    H253433   6.346   5.281  12.667 -2.8073  1.1069 -2.6361
10648TIP3   OH253434   6.827   5.305   3.301  0.4051 -0.0094  0.2061
10648TIP3    H153435   6.848   5.240   3.234 -0.4683 -0.3252  0.2300
10648TIP3    H253436   6.861   5.388   3.266  3.5988 -0.7741  1.1676
10649TIP3   OH253437   4.580   4.327   0.296 -0.0675  0.0820  0.4308
10649TIP3    H153438   4.572   4.405   0.351  0.9696  0.1520  0.5015
10649TIP3    H253439   4.507   4.272   0.322 -2.8646  2.3586 -1.8648
10650TIP3   OH253440   0.028   4.756   4.246  0.2331  0.9001 -0.0013
10650TIP3    H153441  -0.026   4.720   4.176 -1.0826  2.4959  0.1269
10650TIP3    H253442   0.092   4.688   4.265 -1.3977 -0.8639 -0.5322
10651TIP3   OH253443   2.530   6.644   4.182  0.0456 -0.2404 -0.0265
10651TIP3    H153444   2.506   6.732   4.155 -0.7614 -0.4588 -0.0310
10651TIP3    H253445   2.477   6.627   4.260 -1.3243 -1.4684 -1.1759
10652TIP3   OH253446   0.099   4.020   2.234 -0.2206 -0.0799 -0.3593
10652TIP3    H153447   0.013   4.031   2.273  0.5199  0.3585  1.2379
10652TIP3    H253448   0.156   4.078   2.285  1.7800 -3.1531  1.1988
10653TIP3   OH253449   4.962   2.957   4.335  0.0005  0.2643 -0.3039
10653TIP3    H153450   4.893   3.015   4.365 -1.3659 -0.8334 -1.2244
10653TIP3    H253451   5.031   2.966   4.401 -1.0719  1.2537  0.7275
10654TIP3   OH253452   1.065   4.524  16.431 -0.4059 -0.4516  0.1413
10654TIP3    H153453   1.108   4.561  16.508  0.8077 -1.5215  0.0186
10654TIP3    H253454   1.094   4.432  16.430 -0.7651 -0.5640 -1.3420
10655TIP3   OH253455   1.323   0.338   1.312 -0.3907 -0.0977  0.3343
10655TIP3    H153456   1.239   0.338   1.265 -0.7464 -0.6888  0.9552
10655TIP3    H253457   1.385   0.376   1.250 -0.7257 -1.4043 -0.8725
10656TIP3   OH253458   2.613   5.280  11.945 -0.0207 -0.3745 -0.1952
10656TIP3    H153459   2.629   5.190  11.974  1.1046  0.2500  1.3026
10656TIP3    H253460   2.650   5.284  11.857  0.0316 -1.3546 -0.2270
10657TIP3   OH253461   5.842   0.559  13.176 -0.6733  0.9004  0.3397
10657TIP3    H153462   5.888   0.642  13.166  3.3058 -0.9670  0.7843
10657TIP3    H253463   5.896   0.510  13.239 -1.9542 -2.5285 -0.9803
10658TIP3   OH253464   5.073   1.800   2.278 -0.2565 -0.2080  0.0430
10658TIP3    H153465   5.149   1.851   2.308  0.2834  0.0723 -1.6891
10658TIP3    H253466   5.057   1.831   2.189 -1.0561 -1.7988 -0.4052
10659TIP3   OH253467   0.431   1.524   1.864 -0.2825 -0.2349 -0.3634
10659TIP3    H153468   0.372   1.511   1.790 -2.7844 -1.4463  1.6960
10659TIP3    H253469   0.388   1.589   1.919  0.8879 -0.2760  0.6540
10660TIP3   OH253470   2.312   2.331  14.065  0.4478  0.0557 -0.5643
10660TIP3    H153471   2.226   2.319  14.024 -0.2745  1.6396  0.3730
10660TIP3    H253472   2.294   2.383  14.144  2.1831 -0.2143  0.0555
10661TIP3   OH253473   5.359   0.088  16.786 -0.8715  0.3668 -0.1749
10661TIP3    H153474   5.305   0.034  16.728  0.5652 -2.6478  1.1137
10661TIP3    H253475   5.446   0.046  16.784  0.5606  3.0727  0.4068
10662TIP3   OH253476   4.975   0.579  16.961  0.3595  0.4523 -0.0426
10662TIP3    H153477   4.943   0.662  16.925  0.2504 -0.1782 -1.4644
10662TIP3    H253478   5.059   0.600  17.001 -0.0506  1.3993  0.3369
10663TIP3   OH253479   0.030   3.509  10.474  0.1290 -0.3668 -0.3025
10663TIP3    H153480   0.051   3.437  10.534 -0.5531 -0.6626 -0.4106
10663TIP3    H253481   0.089   3.580  10.500  1.3977 -1.2224 -0.7077
10664TIP3   OH253482   3.064   3.771   0.461 -0.3812  0.2928 -0.1061
10664TIP3    H153483   3.091   3.679   0.459 -0.9022  0.1532 -0.9791
10664TIP3    H253484   3.091   3.806   0.376 -3.5436 -0.0502 -1.3725
10665TIP3   OH253485   0.197   3.833  14.841  0.6411  0.1151  0.4451
10665TIP3    H153486   0.194   3.829  14.936  2.3344 -0.5895  0.5018
10665TIP3    H253487   0.271   3.778  14.816 -1.7162 -2.5235 -1.4912
10666TIP3   OH253488   4.345   3.632  13.107  0.1391 -0.0695  0.0390
10666TIP3    H153489   4.256   3.612  13.136 -0.1662 -0.7713 -1.3056
10666TIP3    H253490   4.336   3.655  13.015  1.4405 -1.0670 -0.3753
10667TIP3   OH253491   1.084   2.966  10.512 -0.1356 -0.1348 -0.5886
10667TIP3    H153492   1.023   2.956  10.585 -1.3345 -1.3212 -1.7106
10667TIP3    H253493   1.038   3.022  10.449  0.6195  0.3494 -0.7184
10668TIP3   OH253494   1.845   0.810  16.903  0.0409  0.0721 -0.2609
10668TIP3    H153495   1.750   0.806  16.911  0.2020 -0.6777  2.0234
10668TIP3    H253496   1.874   0.856  16.981  1.6379 -1.1996 -0.0392
10669TIP3   OH253497   1.481   4.741   3.548 -0.3261 -0.2093  0.2069
10669TIP3    H153498   1.423   4.701   3.612 -0.4219  1.4762  1.2376
10669TIP3    H253499   1.426   4.756   3.471 -0.2444 -2.1181 -0.2709
10670TIP3   OH253500   0.148   2.772  11.584 -0.1582  0.7147  0.4405
10670TIP3    H153501   0.203   2.820  11.646  0.8203  0.8520 -0.5197
10670TIP3    H253502   0.116   2.697  11.635  0.6270  0.8195  1.1194
10671TIP3   OH253503   3.746   1.643  17.193  0.0201  0.2194 -0.4554
10671TIP3    H153504   3.770   1.627  17.102  0.8452  1.4858 -0.4980
10671TIP3    H253505   3.669   1.701  17.188  0.9838  1.5566 -0.3969
10672TIP3   OH253506   5.999   6.269   0.028 -0.3534 -0.3963  0.2478
10672TIP3    H153507   6.005   6.301  -0.062 -1.3105 -1.0207 -0.0536
10672TIP3    H253508   6.067   6.316   0.075  0.6540 -0.5995 -0.9601
10673TIP3   OH253509   4.441   4.493  11.043 -0.0361  0.1535  0.5215
10673TIP3    H153510   4.460   4.586  11.029 -1.1041  0.4345  0.8843
10673TIP3    H253511   4.348   4.490  11.063 -0.0637 -1.0270  0.2987
10674TIP3   OH253512   2.615   2.750   0.095  0.1742 -0.4440 -0.3193
10674TIP3    H153513   2.536   2.769   0.146  0.2312  0.7169 -0.6400
10674TIP3    H253514   2.641   2.662   0.124 -0.9569 -0.6503  0.1354
10675TIP3   OH253515   2.185   3.278  15.418  0.3824 -0.7310  0.2998
10675TIP3    H153516   2.189   3.298  15.324 -1.2742  0.6498  0.4564
10675TIP3    H253517   2.243   3.342  15.459 -0.0932 -0.2979  0.3135
10676TIP3   OH253518   4.998   4.163   4.784  0.4423  0.1931  0.3867
10676TIP3    H153519   4.998   4.238   4.725  1.8538 -0.1560 -0.1062
10676TIP3    H253520   4.964   4.091   4.731 -1.3199  0.5465  0.9873
10677TIP3   OH253521   3.340   5.137  15.080  0.2424 -0.0688 -0.4727
10677TIP3    H153522   3.247   5.136  15.059  0.2584  1.5732 -0.7248
10677TIP3    H253523   3.384   5.128  14.995  0.3519 -1.8803 -0.2647
10678TIP3   OH253524   4.478   2.592  15.873  0.1120 -0.0942 -0.7432
10678TIP3    H153525   4.412   2.604  15.805 -0.1698  0.8770 -0.3125
10678TIP3    H253526   4.432   2.546  15.943 -0.5696  1.9019  0.1854
10679TIP3   OH253527   6.075   2.750  14.302 -0.2536 -0.1705  0.1860
10679TIP3    H153528   6.136   2.769  14.231  0.5992 -0.6954  0.7637
10679TIP3    H253529   5.988   2.764  14.263  0.2168  0.1875 -0.7627
10680TIP3   OH253530   0.930   5.082   3.067 -0.7698 -0.4199 -0.1892
10680TIP3    H153531   0.943   5.159   3.012  1.4819 -0.7574 -0.2523
10680TIP3    H253532   0.882   5.115   3.143  0.2014  1.0826 -0.1775
10681TIP3   OH253533   0.680   5.002   1.511  0.6458  0.8740 -0.0621
10681TIP3    H153534   0.678   4.925   1.568  2.4675  1.4492  0.8329
10681TIP3    H253535   0.601   4.993   1.457  0.4729 -1.2687  0.4537
10682TIP3   OH253536   1.869   3.054  13.124 -0.0294 -0.0550  0.0740
10682TIP3    H153537   1.940   3.041  13.061  2.1286 -0.4130  2.4186
10682TIP3    H253538   1.807   2.984  13.105 -0.2472  0.7773 -2.5907
10683TIP3   OH253539   5.167   1.905   4.176  0.6938 -0.5964  0.0755
10683TIP3    H153540   5.095   1.963   4.151  0.5952 -0.6368  0.2679
10683TIP3    H253541   5.197   1.938   4.261  1.7195  0.1932 -0.5588
10684TIP3   OH253542   5.747   0.921   2.886 -0.2287 -0.0994 -0.5165
10684TIP3    H153543   5.674   0.880   2.932  0.1028 -2.1774 -1.7071
10684TIP3    H253544   5.728   1.014   2.888 -2.3936 -0.5108  0.0624
10685TIP3   OH253545   4.050   0.018  15.448 -0.0874  0.0186  0.3868
10685TIP3    H153546   3.979  -0.013  15.393 -0.8841  2.9059 -0.3530
10685TIP3    H253547   4.066   0.108  15.419  2.5644  0.1170  1.8420
10686TIP3   OH253548   2.597   6.093  14.114 -0.1039  0.3567 -0.4541
10686TIP3    H153549   2.566   6.009  14.080 -0.3389 -0.4383  1.5497
10686TIP3    H253550   2.688   6.099  14.086  0.3654 -1.2945  0.5662
10687TIP3   OH253551   3.025   6.725  15.684  0.4782  0.1814  0.1927
10687TIP3    H153552   3.060   6.803  15.726 -1.3290  0.4163  1.3768
10687TIP3    H253553   2.981   6.757  15.605 -0.7502  0.4824  0.9700
10688TIP3   OH253554   6.525   4.229   1.351  0.1290  0.1639  0.0098
10688TIP3    H153555   6.470   4.307   1.347 -0.6520 -0.4116 -0.8890
10688TIP3    H253556   6.533   4.210   1.445  0.2670  1.2631  0.2287
10689TIP3   OH253557   3.808   6.270  12.803 -0.1647  0.0574 -0.4657
10689TIP3    H153558   3.894   6.280  12.762 -0.2654 -1.7319 -1.2197
10689TIP3    H253559   3.756   6.342  12.767  1.2021  1.7063  0.6717
10690TIP3   OH253560   0.496   0.684  13.310  0.1310 -0.6749  0.3860
10690TIP3    H153561   0.488   0.742  13.235 -0.2942 -2.8482 -1.3742
10690TIP3    H253562   0.590   0.670  13.320  0.1719 -0.7259 -0.0513
10691TIP3   OH253563   4.864   4.168  17.196  0.3493  0.4452  0.8738
10691TIP3    H153564   4.847   4.160  17.102  0.4908  0.1184  0.8790
10691TIP3    H253565   4.802   4.107  17.236 -0.0428  0.9295  1.0245
10692TIP3   OH253566   2.748   5.293   5.028  0.7107 -0.2274 -0.5613
10692TIP3    H153567   2.830   5.338   5.009 -0.0482  1.7838  0.6328
10692TIP3    H253568   2.758   5.260   5.117  0.3412 -0.2363 -0.5191
10693TIP3   OH253569   5.034   5.627   4.260 -0.2930  0.0719  0.0293
10693TIP3    H153570   4.957   5.570   4.259 -0.6497  0.3773  2.5061
10693TIP3    H253571   5.107   5.568   4.241 -1.0889 -0.1352 -2.8447
10694TIP3   OH253572   2.716   1.771   2.379 -0.6883 -0.4635  1.2439
10694TIP3    H153573   2.788   1.811   2.428  0.7131 -0.3991 -0.7682
10694TIP3    H253574   2.655   1.843   2.363  0.4439  0.2999  0.1127
10695TIP3   OH253575   4.766   3.913  12.835  0.0188  1.4655  0.0475
10695TIP3    H153576   4.803   3.934  12.749  0.2902  0.4639 -0.0863
10695TIP3    H253577   4.689   3.860  12.815  1.7504 -1.3940  0.4502
10696TIP3   OH253578   2.745   1.446  13.100 -0.0617 -0.0288  0.4001
10696TIP3    H153579   2.783   1.531  13.124 -1.1670  0.8288 -0.7329
10696TIP3    H253580   2.666   1.438  13.153 -0.1008 -0.2154  0.3162
10697TIP3   OH253581   5.658   5.655   4.050 -0.9127 -0.5180 -0.3598
10697TIP3    H153582   5.612   5.680   3.969 -2.1199 -0.0100  0.4527
10697TIP3    H253583   5.607   5.582   4.084  0.8155 -2.1572 -1.1053
10698TIP3   OH253584   1.340   4.110   3.536  0.3010  0.8639  0.0771
10698TIP3    H153585   1.305   4.184   3.587 -1.6619 -1.2488  2.0343
10698TIP3    H253586   1.278   4.101   3.463 -1.5628 -0.8591  1.7486
10699TIP3   OH253587   6.405   2.896  16.545  0.0348 -0.3483  0.8771
10699TIP3    H153588   6.466   2.822  16.547 -2.0993 -2.2713 -0.2619
10699TIP3    H253589   6.318   2.856  16.556 -1.4550  1.6052 -2.3782
10700TIP3   OH253590   0.453   2.587  14.398  0.0281 -0.2818 -0.2230
10700TIP3    H153591   0.367   2.604  14.360  0.0212 -0.4323 -0.2759
10700TIP3    H253592   0.509   2.570  14.322  0.6992  2.2942 -0.4174
10701TIP3   OH253593   1.973   5.617   2.524  0.6873 -0.0925  0.2626
10701TIP3    H153594   1.977   5.549   2.456  0.3588  1.1944 -1.1089
10701TIP3    H253595   1.895   5.667   2.503  0.8992  0.6903  1.2694
10702TIP3   OH253596   1.898   4.019   2.377 -0.2517 -0.3211  0.4873
10702TIP3    H153597   1.945   4.005   2.459  2.1896 -2.7446 -1.1266
10702TIP3    H253598   1.952   4.082   2.328 -1.0628  0.2217  0.2631
10703TIP3   OH253599   2.585   3.985  14.437  0.0202  0.2908  0.0828
10703TIP3    H153600   2.607   3.987  14.530  0.3936 -0.1126  0.0094
10703TIP3    H253601   2.507   3.931  14.432  0.4517 -0.3466  0.0842
10704TIP3   OH253602   2.955   3.240  17.075 -0.5428  0.4251  0.4390
10704TIP3    H153603   2.948   3.264  17.167  1.7191  0.6974  0.5927
10704TIP3    H253604   2.949   3.323  17.028  2.8959  0.9563  0.7006
10705TIP3   OH253605   6.700   2.437   4.801  0.0898  0.1305  0.5633
10705TIP3    H153606   6.622   2.456   4.748  1.0375 -1.7925 -1.7001
10705TIP3    H253607   6.769   2.491   4.762  0.2620  0.6331  1.5364
10706TIP3   OH253608   2.512   3.385  13.127 -0.4237  1.0218 -0.3091
10706TIP3    H153609   2.465   3.311  13.090 -0.6882  1.3101 -0.5441
10706TIP3    H253610   2.530   3.442  13.053 -0.2682  1.2223 -0.1178
10707TIP3   OH253611   2.728   5.316  13.110  0.3258 -0.1978  0.1370
10707TIP3    H153612   2.758   5.225  13.117  0.2573 -0.2000  0.4350
10707TIP3    H253613   2.795   5.367  13.155 -0.5293 -0.2951  1.5905
10708TIP3   OH253614   2.768   1.461   0.502 -0.1164  0.3750 -0.9083
10708TIP3    H153615   2.674   1.460   0.521 -0.7862  2.5305 -3.4370
10708TIP3    H253616   2.804   1.527   0.562 -0.0689 -0.8209  0.4241
10709TIP3   OH253617   6.698   5.740  10.441 -0.3419 -0.0489 -0.0362
10709TIP3    H153618   6.730   5.661  10.397 -2.0006 -0.4793 -0.5236
10709TIP3    H253619   6.670   5.798  10.370 -0.6594  0.3077  0.3730
10710TIP3   OH253620   5.960   1.581   0.121  0.1549  0.5772  0.1748
10710TIP3    H153621   5.968   1.661   0.174 -0.5852  1.0543 -0.4271
10710TIP3    H253622   5.925   1.610   0.037 -1.8264 -0.5952  0.5295
10711TIP3   OH253623   3.966   1.058  15.825 -0.6977 -0.3211  0.3377
10711TIP3    H153624   3.999   0.969  15.833 -1.0864 -0.3878  1.4651
10711TIP3    H253625   4.031   1.104  15.773 -0.3701 -1.1943 -0.0441
10712TIP3   OH253626   5.769   0.546  11.275  0.4469 -0.1138 -0.0926
10712TIP3    H153627   5.787   0.638  11.297 -0.5684  0.2610 -0.7739
10712TIP3    H253628   5.747   0.506  11.359 -0.1154  0.5203  0.0742
10713TIP3   OH253629   6.319   0.808   4.695  0.4108 -0.0392  0.1854
10713TIP3    H153630   6.238   0.842   4.732 -0.3522 -0.4227 -1.0740
10713TIP3    H253631   6.355   0.751   4.764 -1.2048 -1.1105  0.1949
10714TIP3   OH253632   5.463   1.410   4.916 -0.1314  0.4089 -0.1162
10714TIP3    H153633   5.495   1.499   4.904 -0.3698  0.7240  1.4096
10714TIP3    H253634   5.437   1.406   5.008 -0.0141 -1.2763 -0.1286
10715TIP3   OH253635   2.675   1.848  14.615  0.3390  0.7774  0.5751
10715TIP3    H153636   2.706   1.880  14.699  0.7989 -0.8193  1.0395
10715TIP3    H253637   2.596   1.799  14.635  0.5213  0.2791  0.0948
10716TIP3   OH253638   0.250   5.209   0.787  0.0206  0.5204 -0.2610
10716TIP3    H153639   0.222   5.270   0.855  0.2499 -0.9351  1.1797
10716TIP3    H253640   0.316   5.154   0.829  0.2030 -0.3842 -1.6769
10717TIP3   OH253641   0.028   4.865  15.140  0.4529 -0.2892  0.0377
10717TIP3    H153642   0.105   4.812  15.122  0.5660 -0.4347  0.9193
10717TIP3    H253643  -0.009   4.829  15.221  0.8059  1.2387  0.9319
10718TIP3   OH253644   6.486   4.800   3.551  0.2021  0.8459 -0.5823
10718TIP3    H153645   6.420   4.869   3.552  0.2320  0.8722 -0.3056
10718TIP3    H253646   6.519   4.797   3.641  0.5579  0.8148 -0.7127
10719TIP3   OH253647   2.542   6.270   0.581  0.3331 -0.2367  0.7424
10719TIP3    H153648   2.525   6.296   0.671  1.8928  0.7563  0.7886
10719TIP3    H253649   2.522   6.347   0.529 -1.3465 -1.0507  0.0976
10720TIP3   OH253650   3.045   5.909  12.469 -0.0049 -0.1582  0.0510
10720TIP3    H153651   3.068   5.985  12.521  1.3633 -1.0400  0.8211
10720TIP3    H253652   3.068   5.933  12.379 -2.5128  1.4217 -0.2524
10721TIP3   OH253653   4.457   1.324  12.715  0.6937 -0.7159 -0.2007
10721TIP3    H153654   4.477   1.351  12.625  0.6507 -1.2527 -0.3768
10721TIP3    H253655   4.538   1.337  12.763  0.0818  1.8640  0.2560
10722TIP3   OH253656   0.818   3.511   4.450  0.4377  0.3248  0.0161
10722TIP3    H153657   0.836   3.517   4.356 -1.4609 -1.8625 -0.5828
10722TIP3    H253658   0.725   3.489   4.455  0.8541 -1.2319  2.3361
10723TIP3   OH253659   4.407   4.320   2.019 -0.3374  0.0915  0.5315
10723TIP3    H153660   4.437   4.233   1.993 -1.6577 -0.1113 -0.4173
10723TIP3    H253661   4.311   4.315   2.015 -0.4518  1.4959  0.7558
10724TIP3   OH253662   0.824   2.677  16.988  0.0173  0.2777  0.3902
10724TIP3    H153663   0.740   2.651  17.025  0.8219 -0.9685  1.4577
10724TIP3    H253664   0.889   2.632  17.043  1.3296 -2.0064 -2.7267
10725TIP3   OH253665   1.531   3.780   4.841  0.3199 -0.2446 -0.2079
10725TIP3    H153666   1.578   3.817   4.766  1.5730 -1.5552 -0.0933
10725TIP3    H253667   1.499   3.695   4.810  1.2106 -0.9941  0.8375
10726TIP3   OH253668   0.968   5.930  15.885 -0.4050 -0.2624 -0.2999
10726TIP3    H153669   1.043   5.918  15.826 -0.6341  1.7109 -1.0427
10726TIP3    H253670   1.003   5.908  15.972  0.6213 -0.7693 -0.8127
10727TIP3   OH253671   5.506   2.073  10.517  0.3357 -0.1647 -0.0533
10727TIP3    H153672   5.598   2.058  10.497  0.3464 -0.7829  0.4441
10727TIP3    H253673   5.502   2.166  10.540  0.8826 -0.1857  0.1493
10728TIP3   OH253674   4.425   5.252  12.563 -0.1112  0.0268 -0.5662
10728TIP3    H153675   4.344   5.302  12.576 -0.2358  1.0008 -4.2101
10728TIP3    H253676   4.494   5.319  12.563  0.3034 -0.4039 -0.8033
10729TIP3   OH253677   5.281   5.608  16.483  0.2198  0.0199 -0.5128
10729TIP3    H153678   5.248   5.579  16.568  1.3973 -4.4567 -1.2920
10729TIP3    H253679   5.203   5.633  16.434 -0.8609 -0.5075  0.8613
10730TIP3   OH253680   3.545   5.948  15.807  0.0996  0.1244  0.0541
10730TIP3    H153681   3.540   5.855  15.781  0.5216 -0.0039  0.4279
10730TIP3    H253682   3.460   5.983  15.783 -0.3825 -0.5668  0.6706
10731TIP3   OH253683   1.679   3.087   4.128 -0.0633  0.6069  0.1605
10731TIP3    H153684   1.592   3.074   4.090 -1.0599  0.4430  2.3915
10731TIP3    H253685   1.722   3.002   4.118 -0.1889  0.6364 -0.7886
10732TIP3   OH253686   0.424   4.323   1.980 -0.4990 -0.4184 -0.6487
10732TIP3    H153687   0.346   4.331   1.925 -0.0679 -1.7359 -1.5145
10732TIP3    H253688   0.470   4.246   1.945  1.1392  0.2614 -0.0981
10733TIP3   OH253689   4.000   5.623  17.114 -0.2831 -0.1743  0.4564
10733TIP3    H153690   3.976   5.691  17.177 -1.7252 -0.2976  0.0755
10733TIP3    H253691   3.923   5.614  17.058 -0.3801 -2.5328  0.8668
10734TIP3   OH253692   3.716   1.258  12.393  0.3550 -0.3458 -0.0794
10734TIP3    H153693   3.636   1.208  12.409  0.9784 -0.7755  2.0194
10734TIP3    H253694   3.783   1.193  12.373  0.4257 -0.0593 -0.8304
10735TIP3   OH253695   4.770   2.811  14.857 -0.3147  0.2100  0.2846
10735TIP3    H153696   4.675   2.814  14.847 -0.0702  2.2315 -2.1572
10735TIP3    H253697   4.804   2.857  14.781  2.7152 -1.7719  0.2910
10736TIP3   OH253698   1.299   1.283   1.380 -0.2257 -0.1836  0.2226
10736TIP3    H153699   1.305   1.289   1.285 -0.1283 -1.3708  0.1388
10736TIP3    H253700   1.390   1.272   1.409 -0.3161 -0.5018  0.3921
10737TIP3   OH253701   3.772   1.925  15.820 -0.2616  0.2685 -0.4136
10737TIP3    H153702   3.713   2.001  15.828 -1.4117 -0.6685  0.4189
10737TIP3    H253703   3.852   1.961  15.782 -1.0755  1.7463 -0.8214
10738TIP3   OH253704   4.221   4.730   5.893  0.2203 -0.5127 -0.8359
10738TIP3    H153705   4.269   4.759   5.970  0.1402 -1.6048 -0.3494
10738TIP3    H253706   4.218   4.807   5.836 -0.7724  0.6875  0.7515
10739TIP3   OH253707   5.110   5.510  17.165  0.4328 -0.6837  0.6506
10739TIP3    H153708   5.064   5.445  17.217  0.0890 -2.2520 -1.4548
10739TIP3    H253709   5.052   5.526  17.090  0.9300  1.4002  0.6515
10740TIP3   OH253710   3.610   1.174   4.180 -0.1716 -0.6917  0.4050
10740TIP3    H153711   3.651   1.122   4.110  0.4846 -0.1746  0.4027
10740TIP3    H253712   3.565   1.245   4.134 -0.7745 -1.0523  0.4315
10741TIP3   OH253713   2.059   5.222  13.771  0.3565 -0.3357 -0.1980
10741TIP3    H153714   2.097   5.154  13.715 -0.8130 -0.1214 -1.3065
10741TIP3    H253715   1.965   5.207  13.767  0.0994  1.0845 -0.1369
10742TIP3   OH253716   6.149   6.183   4.358  0.3121  0.4417 -0.0207
10742TIP3    H153717   6.166   6.214   4.269  1.2982  0.7407  0.2582
10742TIP3    H253718   6.069   6.130   4.350 -1.5913  3.1754 -0.4813
10743TIP3   OH253719   2.751   4.181  14.883 -0.5790  0.2835 -0.0474
10743TIP3    H153720   2.666   4.224  14.891 -1.0806 -0.2395 -2.0824
10743TIP3    H253721   2.770   4.149  14.971 -1.7300  1.7770  0.7945
10744TIP3   OH253722   5.127   3.814   3.213 -0.5960  0.7430  0.0524
10744TIP3    H153723   5.114   3.834   3.306 -1.4457 -1.1480  0.3951
10744TIP3    H253724   5.155   3.722   3.212  1.3169  1.2713 -1.4811
10745TIP3   OH253725   6.793   5.061  17.140  0.2676 -0.2487 -0.3347
10745TIP3    H153726   6.813   5.143  17.094  0.0051  0.0067 -0.0040
10745TIP3    H253727   6.771   4.999  17.071 -1.9091  0.6258 -0.5010
10746TIP3   OH253728   3.044   4.950   4.656  0.3625 -0.3261  0.1740
10746TIP3    H153729   3.085   4.901   4.727  0.5528 -0.4014  0.0124
10746TIP3    H253730   3.055   5.042   4.681 -0.6061 -0.3649  0.8222
10747TIP3   OH253731   1.773   4.459  10.383 -0.6307  0.5066 -0.0874
10747TIP3    H153732   1.701   4.451  10.320  2.8441 -0.5715 -4.4017
10747TIP3    H253733   1.826   4.532  10.349  1.5600 -0.2823  1.4262
10748TIP3   OH253734   0.898   0.373  15.612  0.2814  0.2628  0.7765
10748TIP3    H153735   0.941   0.449  15.572  0.7948 -0.3727  0.1138
10748TIP3    H253736   0.893   0.308  15.543  0.2700 -0.4897  1.4726
10749TIP3   OH253737   6.541   1.111   3.974  0.4509  0.0902 -0.1375
10749TIP3    H153738   6.568   1.134   4.063  0.4574 -0.4842  0.0104
10749TIP3    H253739   6.575   1.023   3.960  1.3207  0.5487 -1.0819
10750TIP3   OH253740   2.834   5.800   4.443  0.5290  0.7287  0.6546
10750TIP3    H153741   2.745   5.833   4.433  0.0439 -0.8987 -0.8842
10750TIP3    H253742   2.873   5.856   4.511 -0.6130  3.5843 -0.8579
10751TIP3   OH253743   6.298   4.270  11.976 -0.1074  0.2589 -0.0906
10751TIP3    H153744   6.300   4.365  11.963  1.5480  0.1586 -0.8871
10751TIP3    H253745   6.278   4.258  12.068  0.7318  1.4323  0.2698
10752TIP3   OH253746   2.403   3.021   6.175 -0.2507 -0.8546 -0.3354
10752TIP3    H153747   2.353   2.998   6.253 -0.6846  2.9051  0.7177
10752TIP3    H253748   2.338   3.060   6.116  0.7340  0.5421 -0.5644
10753TIP3   OH253749   0.366   1.286   0.093 -0.1224  0.4966 -0.4883
10753TIP3    H153750   0.430   1.276   0.022  1.1020  0.7708  0.5539
10753TIP3    H253751   0.338   1.378   0.087  2.1910  1.4116  1.1359
10754TIP3   OH253752   6.526   4.394   5.424  0.6649  0.2688  0.5761
10754TIP3    H153753   6.439   4.355   5.417  1.5533 -1.6356 -0.7454
10754TIP3    H253754   6.530   4.458   5.354  1.0351 -1.2472 -0.8659
10755TIP3   OH253755   0.782   2.096  13.893  0.2670 -0.2422  0.3849
10755TIP3    H153756   0.763   2.002  13.895  0.2940 -0.2939 -0.8310
10755TIP3    H253757   0.840   2.110  13.968 -1.8249 -0.6880  2.2011
10756TIP3   OH253758   2.114   0.623  12.729 -0.3856 -0.0388 -0.2237
10756TIP3    H153759   2.098   0.536  12.766  1.0218 -0.1339  0.2282
10756TIP3    H253760   2.208   0.623  12.710 -0.6006  0.9541 -1.3691
10757TIP3   OH253761   3.687   0.992   0.412  0.3836 -0.2956 -0.2078
10757TIP3    H153762   3.777   0.970   0.392  0.8640 -1.6161  2.7748
10757TIP3    H253763   3.667   0.940   0.491 -2.2772  1.5323  0.4527
10758TIP3   OH253764   4.096   3.110   0.378  0.3325 -0.5957  0.2302
10758TIP3    H153765   4.152   3.184   0.355 -1.2097  0.8658  0.9699
10758TIP3    H253766   4.134   3.076   0.459  0.5026  0.0034  0.4076
10759TIP3   OH253767   6.193   4.511  11.209  0.6279  0.0064  0.1652
10759TIP3    H153768   6.225   4.498  11.299 -0.3791  1.4299  0.7768
10759TIP3    H253769   6.273   4.524  11.157  1.1878  0.3021  1.0705
10760TIP3   OH253770   4.719   2.095  13.585 -0.0259  0.0799 -0.1380
10760TIP3    H153771   4.722   2.189  13.566  0.8960  0.1678  0.4076
10760TIP3    H253772   4.730   2.053  13.500  0.5173  0.4718 -0.2663
10761TIP3   OH253773   2.436   6.055   4.077  0.3350  0.1108 -0.8249
10761TIP3    H153774   2.480   5.986   4.026  2.6930  0.4392  0.5951
10761TIP3    H253775   2.390   6.008   4.146  0.1709 -0.1308 -1.0935
10762TIP3   OH253776   5.180   1.273  14.622 -0.7793 -0.1785 -0.2741
10762TIP3    H153777   5.168   1.248  14.713 -1.2670  0.7725 -0.0659
10762TIP3    H253778   5.239   1.348  14.625 -0.1274 -0.6500 -0.8119
10763TIP3   OH253779   4.267   5.978   2.214 -0.0236  0.6652  0.6386
10763TIP3    H153780   4.236   6.022   2.293  0.4521  1.6520  0.2901
10763TIP3    H253781   4.354   5.945   2.236  0.6486  2.0599  0.1458
10764TIP3   OH253782   4.297   2.637   1.559  0.3164 -0.0418  0.6120
10764TIP3    H153783   4.307   2.556   1.508  2.6833  0.5285  0.0083
10764TIP3    H253784   4.350   2.622   1.637  2.0419  1.3785 -0.1967
10765TIP3   OH253785   0.661   0.410   5.055 -0.1141 -0.2285  0.0393
10765TIP3    H153786   0.665   0.354   4.977  0.9448  1.6366 -1.3182
10765TIP3    H253787   0.746   0.454   5.057 -1.3041  2.1911  0.3498
10766TIP3   OH253788   1.856   4.645   6.024 -0.1072 -0.1186 -0.0472
10766TIP3    H153789   1.784   4.600   6.069 -1.3861  0.0779 -1.8222
10766TIP3    H253790   1.932   4.628   6.079 -1.5044 -0.2164  1.9904
10767TIP3   OH253791   2.660   0.240   4.198  0.1212  0.7057  0.1020
10767TIP3    H153792   2.717   0.174   4.159 -0.0670  0.2219  0.6325
10767TIP3    H253793   2.717   0.314   4.217  0.3353  0.6948 -0.4918
10768TIP3   OH253794   2.675   5.981  14.673 -0.2323  1.1030  0.1132
10768TIP3    H153795   2.583   6.007  14.674  0.0810  2.2399  0.4279
10768TIP3    H253796   2.694   5.961  14.765 -0.8600 -1.8162 -0.2827
10769TIP3   OH253797   4.168   3.994  13.276 -0.9213  0.1276  0.4073
10769TIP3    H153798   4.121   4.020  13.355 -3.0968  0.7162 -1.0099
10769TIP3    H253799   4.228   4.067  13.259 -0.1717 -0.1604  1.6584
10770TIP3   OH253800   0.140   4.707   1.784 -0.0437  0.8411 -0.2585
10770TIP3    H153801   0.204   4.762   1.737 -0.1608  0.9213 -0.3260
10770TIP3    H253802   0.061   4.761   1.788 -0.4261  0.3687 -1.0555
10771TIP3   OH253803   2.435   3.225  14.202  0.0211  1.1200  0.0505
10771TIP3    H153804   2.487   3.228  14.121  1.0878 -0.2770  0.6521
10771TIP3    H253805   2.499   3.226  14.272 -0.6477 -1.5655  0.8143
10772TIP3   OH253806   5.139   4.194   0.005 -0.6684 -0.4542 -0.3372
10772TIP3    H153807   5.153   4.168   0.095 -2.0411 -0.3905 -0.0774
10772TIP3    H253808   5.044   4.207  -0.002 -0.4407  0.9321 -1.4027
10773TIP3   OH253809   0.280   0.383  15.695 -0.0195  0.2711  0.1328
10773TIP3    H153810   0.204   0.429  15.658  0.8884  2.1800  0.5365
10773TIP3    H253811   0.347   0.388  15.627  0.4490  0.5255  0.6042
10774TIP3   OH253812   5.032   4.602   2.458  0.3263 -0.1532 -0.0772
10774TIP3    H153813   5.106   4.567   2.508 -1.6126 -2.3138  1.4678
10774TIP3    H253814   5.024   4.544   2.383  0.8663  0.7884 -0.8869
10775TIP3   OH253815   5.740   4.060  14.020 -0.0250 -0.4405  0.3840
10775TIP3    H153816   5.722   4.145  14.060 -0.1189 -0.3477  0.1479
10775TIP3    H253817   5.793   4.014  14.084  0.0131 -0.2080  0.5198
10776TIP3   OH253818   5.191   2.803  12.843  0.2951 -0.6466 -1.2085
10776TIP3    H153819   5.171   2.729  12.786  1.0387  0.1258 -2.5160
10776TIP3    H253820   5.286   2.815  12.836  0.4051 -0.5099  0.1848
10777TIP3   OH253821   6.763   0.666  16.845 -0.0565 -0.6219  0.1788
10777TIP3    H153822   6.719   0.722  16.909  1.3569  0.6517  0.1039
10777TIP3    H253823   6.851   0.705  16.837  0.3788 -1.8330 -1.1908
10778TIP3   OH253824   2.443   4.821  10.444  0.2900  0.2044  0.1475
10778TIP3    H153825   2.375   4.768  10.403  1.3311  0.2669 -1.7450
10778TIP3    H253826   2.401   4.907  10.457 -0.1312  0.1175 -0.5790
10779TIP3   OH253827   4.601   0.881   0.228  0.7395 -0.2627 -0.1026
10779TIP3    H153828   4.673   0.936   0.261  0.9929 -0.7962  0.2367
10779TIP3    H253829   4.641   0.795   0.215 -0.0608 -0.8342  1.0461
10780TIP3   OH253830   2.051   2.609  11.582 -0.1118  0.0620  0.0746
10780TIP3    H153831   2.100   2.568  11.510 -1.7030 -0.5780 -0.6873
10780TIP3    H253832   2.056   2.545  11.653  0.3842  0.1312  0.1101
10781TIP3   OH253833   6.117   1.464  14.457  0.0369  0.1299  0.0260
10781TIP3    H153834   6.040   1.431  14.503 -0.2491 -0.2507 -0.7009
10781TIP3    H253835   6.098   1.448  14.364  0.9345  0.1529 -0.1719
10782TIP3   OH253836   1.068   5.630   5.564  0.0897  0.4985 -0.5571
10782TIP3    H153837   1.061   5.707   5.507  0.0645  0.2892 -0.8391
10782TIP3    H253838   1.100   5.560   5.506 -3.8255 -0.8355 -1.3948
10783TIP3   OH253839   1.110   4.076  15.613  0.1279 -0.3540  0.8346
10783TIP3    H153840   1.040   4.131  15.575  0.4715 -0.3972  0.1074
10783TIP3    H253841   1.099   4.086  15.707 -0.4312  0.1918  0.7280
10784TIP3   OH253842   6.432   0.753  13.893 -0.3459  0.3460 -0.7193
10784TIP3    H153843   6.346   0.765  13.853 -0.2009  2.2669 -0.5584
10784TIP3    H253844   6.430   0.808  13.971  1.1122  0.6323 -0.8582
10785TIP3   OH253845   4.178   6.413  13.607 -0.4346  0.5444  0.3082
10785TIP3    H153846   4.270   6.403  13.583 -0.3921 -0.6138  0.8959
10785TIP3    H253847   4.130   6.378  13.532 -0.3540 -0.6450  0.8065
10786TIP3   OH253848   5.703   1.343   5.309 -0.5097 -0.6525 -0.1539
10786TIP3    H153849   5.625   1.338   5.364 -1.1814 -2.2593 -1.1639
10786TIP3    H253850   5.692   1.272   5.246  1.3970 -0.4027 -0.8346
10787TIP3   OH253851   5.973   3.647   2.494 -0.0906 -0.9780 -0.5221
10787TIP3    H153852   5.943   3.626   2.406 -1.7021 -0.6933 -0.0697
10787TIP3    H253853   5.896   3.636   2.549  0.0845  1.7687  0.4035
10788TIP3   OH253854   3.447   6.093  14.579  0.1339  0.5143  0.3478
10788TIP3    H153855   3.541   6.089  14.562  0.2837  2.2489  0.6177
10788TIP3    H253856   3.411   6.141  14.505 -0.7878 -1.4113 -0.5059
10789TIP3   OH253857   1.157   1.086  13.279 -0.1739  0.0750 -0.5444
10789TIP3    H153858   1.154   1.076  13.375 -0.5025  0.7366 -0.4755
10789TIP3    H253859   1.250   1.083  13.258 -0.1838 -3.5714 -0.6366
10790TIP3   OH253860   3.842   6.503  16.708  0.5567 -0.0293 -0.7109
10790TIP3    H153861   3.938   6.508  16.705  0.8455 -3.1025 -0.1465
10790TIP3    H253862   3.821   6.426  16.656 -1.5614  0.1634 -0.2094
10791TIP3   OH253863   0.741   5.450  14.392 -0.1075  0.5380  0.4957
10791TIP3    H153864   0.719   5.359  14.375  0.4143  0.6340 -0.7355
10791TIP3    H253865   0.697   5.470  14.475 -2.5755 -0.0041 -0.5925
10792TIP3   OH253866   2.054   1.547  13.819 -0.2588 -0.4743 -0.4127
10792TIP3    H153867   2.142   1.519  13.843 -0.1793  0.7144  0.7970
10792TIP3    H253868   1.998   1.515  13.890 -0.7585 -0.9781 -1.0274
10793TIP3   OH253869   4.014   4.730   3.076  0.3214 -0.4037  0.0782
10793TIP3    H153870   3.994   4.638   3.056 -0.7056 -0.0313 -0.6893
10793TIP3    H253871   3.981   4.779   3.001  1.6934  0.5333  0.0394
10794TIP3   OH253872   2.726   6.809  14.158  0.7341  0.2244 -0.0966
10794TIP3    H153873   2.754   6.812  14.067  0.9532 -3.0019 -0.2437
10794TIP3    H253874   2.645   6.860  14.160  0.0538 -0.6488 -2.3887
10795TIP3   OH253875   1.910   2.797  10.659  0.0437  0.2111  0.0033
10795TIP3    H153876   1.817   2.780  10.672 -0.0544 -0.1332 -1.1104
10795TIP3    H253877   1.953   2.749  10.730 -0.5636 -0.3879 -0.0265
10796TIP3   OH253878   3.543   6.325   2.792 -0.9782  0.0011 -0.5530
10796TIP3    H153879   3.540   6.393   2.724 -0.4746  0.4142 -0.1703
10796TIP3    H253880   3.605   6.260   2.758  1.7260  1.7035  0.8287
10797TIP3   OH253881   0.166   3.547  13.091  0.0671  0.6493  0.1301
10797TIP3    H153882   0.172   3.470  13.148 -1.1896  0.7273  0.3831
10797TIP3    H253883   0.110   3.519  13.018  0.4275  1.0240 -0.2989
10798TIP3   OH253884   6.150   6.317   6.267  0.4519 -0.3007  0.5640
10798TIP3    H153885   6.140   6.279   6.180 -3.0470  1.8643 -0.1989
10798TIP3    H253886   6.141   6.243   6.327  0.9275 -1.5750 -0.8714
10799TIP3   OH253887   0.159   5.194  10.251  0.5451  0.4029 -0.3004
10799TIP3    H153888   0.225   5.134  10.217  0.3692 -0.0922  0.2213
10799TIP3    H253889   0.207   5.252  10.311  0.4741 -0.1115  0.2659
10800TIP3   OH253890   5.400   5.783   5.135  0.1451 -0.2180  0.0344
10800TIP3    H153891   5.360   5.696   5.133  0.2429 -0.2512 -1.3163
10800TIP3    H253892   5.492   5.767   5.156 -0.2065 -0.2616  1.6763
10801TIP3   OH253893   6.318   4.383   2.365 -0.3297 -0.1195 -0.5063
10801TIP3    H153894   6.233   4.383   2.410 -0.9598 -3.7030 -1.4013
10801TIP3    H253895   6.298   4.413   2.276 -0.4996 -0.1112 -0.4658
10802TIP3   OH253896   3.055   1.973   1.777 -0.3665  0.2847  0.4347
10802TIP3    H153897   2.966   2.007   1.775 -0.0889  1.0442  0.6809
10802TIP3    H253898   3.049   1.887   1.736 -0.6699  1.5809 -2.5192
10803TIP3   OH253899   6.362   3.921  12.489 -0.2839 -0.1684  0.1737
10803TIP3    H153900   6.400   4.005  12.513  0.2499 -0.6158  0.9558
10803TIP3    H253901   6.436   3.867  12.462 -0.7198 -0.1318 -1.1804
10804TIP3   OH253902   3.065   5.609   5.174 -0.2795 -0.0506 -0.2454
10804TIP3    H153903   3.124   5.684   5.176  0.5423 -0.6871 -0.2640
10804TIP3    H253904   3.037   5.598   5.265 -1.1204  0.8188 -0.3795
10805TIP3   OH253905   6.365   2.505  16.338 -0.1635  0.3292 -0.1049
10805TIP3    H153906   6.341   2.448  16.265 -0.5264  0.8654 -0.4158
10805TIP3    H253907   6.396   2.585  16.296 -0.8086  0.8171  0.3257
10806TIP3   OH253908   6.601   5.457   2.792  0.3017  0.4792  0.4232
10806TIP3    H153909   6.681   5.405   2.784  1.7158  2.3864  1.2300
10806TIP3    H253910   6.622   5.521   2.860 -3.1033 -1.0114  3.2232
10807TIP3   OH253911   3.153   4.408  13.628 -0.4475 -0.1404 -0.4446
10807TIP3    H153912   3.091   4.455  13.572 -0.8942  0.8548  0.8613
10807TIP3    H253913   3.222   4.472  13.646 -0.4885 -0.3268  0.4172
10808TIP3   OH253914   0.429   5.009  16.093  0.1313 -0.0649  0.2277
10808TIP3    H153915   0.340   4.987  16.067 -0.0452  0.6459  0.2129
10808TIP3    H253916   0.476   4.925  16.091 -0.1646 -0.2246 -1.1903
10809TIP3   OH253917   6.535   4.262   0.819 -0.1754 -0.0712 -0.0435
10809TIP3    H153918   6.621   4.264   0.775 -0.9739  0.3288 -1.6821
10809TIP3    H253919   6.524   4.351   0.853 -0.6182  0.3709 -1.2799
10810TIP3   OH253920   0.744   6.796   0.940  0.3986 -0.4199  0.0438
10810TIP3    H153921   0.720   6.811   1.032 -0.3899 -0.9251 -0.0690
10810TIP3    H253922   0.702   6.713   0.918  1.1141 -0.6210 -0.5898
10811TIP3   OH253923   1.229   6.609   4.975  0.4133 -0.2261  0.1026
10811TIP3    H153924   1.253   6.520   5.000 -0.8276 -0.6915 -0.3087
10811TIP3    H253925   1.269   6.665   5.042 -0.6451 -1.2448  1.6393
10812TIP3   OH253926   5.683   5.245   4.251 -0.2773  0.6884 -0.1048
10812TIP3    H153927   5.725   5.318   4.205  1.7106 -0.5325 -0.3313
10812TIP3    H253928   5.682   5.174   4.187 -1.2164  0.1740  0.4559
10813TIP3   OH253929   3.341   5.176   5.078 -0.3179  0.0225 -0.0178
10813TIP3    H153930   3.400   5.176   5.153  0.9401  0.9945 -0.9666
10813TIP3    H253931   3.310   5.266   5.071 -0.3669 -0.0429 -0.7203
10814TIP3   OH253932   3.680   6.352  14.159  0.2528 -0.2121 -0.5703
10814TIP3    H153933   3.606   6.406  14.187  1.4220  0.8963  0.5270
10814TIP3    H253934   3.752   6.414  14.147  1.1217 -1.3071 -1.1969
10815TIP3   OH253935   1.284   3.976   2.966  0.0296 -0.5468  0.1480
10815TIP3    H153936   1.204   4.028   2.972  1.0842  1.0439  1.2305
10815TIP3    H253937   1.256   3.892   2.928 -1.9889  0.2425 -0.2075
10816TIP3   OH253938   4.313   1.707   2.749  0.0500  0.6357 -0.1707
10816TIP3    H153939   4.392   1.761   2.748 -0.4863  1.4604  0.7479
10816TIP3    H253940   4.258   1.746   2.817 -1.7410  0.9271 -1.7155
10817TIP3   OH253941   3.477   4.550   2.501  0.2968  0.1490  0.4852
10817TIP3    H153942   3.493   4.456   2.511  1.5648  0.5135  2.4324
10817TIP3    H253943   3.382   4.557   2.496  0.2136 -1.3253 -1.4514
10818TIP3   OH253944   4.596   0.042  13.819 -0.2129  0.0707 -0.2705
10818TIP3    H153945   4.664   0.108  13.805  0.8198 -1.3455 -2.4072
10818TIP3    H253946   4.524   0.068  13.762 -0.6686  0.4459  0.4535
10819TIP3   OH253947   5.165   5.037   3.616 -0.2152 -0.1280 -0.3011
10819TIP3    H153948   5.143   4.981   3.542  1.9039  0.3409 -1.3558
10819TIP3    H253949   5.170   4.977   3.690  1.1785 -1.2384 -1.2452
10820TIP3   OH253950   6.424   4.016  14.117 -0.2229 -0.4959 -0.7395
10820TIP3    H153951   6.427   3.925  14.087  0.6403 -1.6981  2.5775
10820TIP3    H253952   6.514   4.047  14.111 -0.2867 -0.2939 -0.6678
10821TIP3   OH253953   1.895   2.898   4.344  0.4669  0.4474  0.1935
10821TIP3    H153954   1.803   2.915   4.365  0.4677 -0.0563  0.6287
10821TIP3    H253955   1.895   2.811   4.304  0.4042  1.5530 -2.4225
10822TIP3   OH253956   3.550   2.101   2.750 -0.3927  0.2318 -0.0419
10822TIP3    H153957   3.470   2.119   2.799  0.5173  1.5394  1.0452
10822TIP3    H253958   3.529   2.123   2.660 -2.2323 -2.5741 -0.4224
10823TIP3   OH253959   5.138   1.922  11.165  0.1766  0.0960 -0.0853
10823TIP3    H153960   5.113   1.990  11.227  0.6432  0.6256 -0.4756
10823TIP3    H253961   5.176   1.969  11.092 -3.1636 -0.2098 -2.2449
10824TIP3   OH253962   6.792   2.897   2.414  0.4078  0.1461  0.1011
10824TIP3    H153963   6.861   2.832   2.420  0.6030  0.3449  0.0031
10824TIP3    H253964   6.714   2.848   2.387  0.0783 -0.3900  1.8582
10825TIP3   OH253965   5.782   3.933  16.010  0.0614  0.0840  0.6616
10825TIP3    H153966   5.833   3.988  15.951 -1.3314 -0.0300 -0.7169
10825TIP3    H253967   5.699   3.920  15.964 -0.2850 -1.7360  1.7230
10826TIP3   OH253968   6.185   1.814   3.917  0.0422  0.2745  0.1093
10826TIP3    H153969   6.217   1.901   3.891  0.5754 -0.0892 -0.4790
10826TIP3    H253970   6.112   1.796   3.858  1.1410 -0.4756 -1.0789
10827TIP3   OH253971   3.922   0.730  11.382  0.4435  0.4859  0.3639
10827TIP3    H153972   3.930   0.816  11.340  1.3997 -0.6639 -2.0418
10827TIP3    H253973   3.946   0.668  11.313  0.4786 -1.6902  2.2166
10828TIP3   OH253974   5.064   6.062  15.480 -0.4081 -0.3945 -0.1242
10828TIP3    H153975   5.022   5.985  15.439  0.1751 -0.7574 -0.0473
10828TIP3    H253976   5.094   6.114  15.405 -0.5336 -0.3889 -0.1718
10829TIP3   OH253977   2.726   3.377   1.219 -0.1398 -0.0289  0.2679
10829TIP3    H153978   2.650   3.361   1.163 -0.2017  1.4682 -0.1197
10829TIP3    H253979   2.701   3.453   1.272  1.3631  1.0167 -0.4533
10830TIP3   OH253980   6.437   5.439  15.985  0.3324 -0.4908  0.0103
10830TIP3    H153981   6.525   5.429  15.951  0.0876 -0.3931 -0.6595
10830TIP3    H253982   6.449   5.451  16.079  1.1561  1.4481 -0.3003
10831TIP3   OH253983   1.450   6.657  11.612  0.3294 -0.1263 -0.3936
10831TIP3    H153984   1.440   6.742  11.568  0.1157  0.5643  0.9567
10831TIP3    H253985   1.404   6.667  11.695  2.6250 -0.6097  1.0335
10832TIP3   OH253986   1.605   5.032   3.600 -0.2400  0.1906 -0.6614
10832TIP3    H153987   1.697   5.055   3.611  0.1973 -1.5665 -0.2513
10832TIP3    H253988   1.599   4.942   3.633 -2.0957  0.2499 -0.7297
10833TIP3   OH253989   3.642   1.017   3.955 -0.5533  0.2609 -0.4085
10833TIP3    H153990   3.557   0.997   3.995 -0.4652 -0.8670 -0.7345
10833TIP3    H253991   3.663   0.939   3.904  0.3032  0.8533 -0.9912
10834TIP3   OH253992   0.935   2.450  14.761  0.0945  0.0974 -0.1380
10834TIP3    H153993   0.860   2.453  14.821 -1.1474 -0.6494 -1.5937
10834TIP3    H253994   0.985   2.373  14.789 -0.0140  0.2416  0.4584
10835TIP3   OH253995   6.534   0.416   3.760 -0.1657 -0.0344  0.3744
10835TIP3    H153996   6.562   0.340   3.709  0.5337  0.9434 -0.7633
10835TIP3    H253997   6.464   0.455   3.707  1.9957  2.2182 -1.0482
10836TIP3   OH253998   0.627   4.193  10.666  0.2548  0.6413 -0.1362
10836TIP3    H153999   0.553   4.158  10.715  0.0904 -0.3369 -1.0515
10836TIP3    H254000   0.591   4.270  10.621  0.0017  0.6282  0.0434
10837TIP3   OH254001   4.882   2.779   3.124  0.2906 -0.6140  0.3912
10837TIP3    H154002   4.856   2.802   3.035  0.8518  1.3911  0.6786
10837TIP3    H254003   4.956   2.837   3.143  1.8883 -2.8230  1.2663
10838TIP3   OH254004   4.332   0.753  13.797 -0.3373 -1.0604 -0.4073
10838TIP3    H154005   4.410   0.807  13.783 -0.0766 -1.5402 -0.8268
10838TIP3    H254006   4.297   0.740  13.709 -1.0065 -0.6816 -0.1987
10839TIP3   OH254007   2.245   3.030   0.137 -0.4338  0.4155  0.4625
10839TIP3    H154008   2.154   3.057   0.127  0.0714  2.1742  0.2922
10839TIP3    H254009   2.263   2.979   0.058 -0.9814  0.9425 -0.0164
10840TIP3   OH254010   6.109   3.501   5.430 -0.0967  0.1988 -0.5395
10840TIP3    H154011   6.192   3.454   5.425  0.3447  0.7901  0.6746
10840TIP3    H254012   6.113   3.564   5.358 -0.2450 -0.8791 -1.5257
10841TIP3   OH254013   2.564   1.845  14.347  0.1830  0.6838 -0.4500
10841TIP3    H154014   2.536   1.935  14.332  1.9624  1.6963  1.6399
10841TIP3    H254015   2.618   1.850  14.426  1.1637 -2.0727 -0.8398
10842TIP3   OH254016   6.775   6.822   4.687  0.4155 -0.4710 -0.2390
10842TIP3    H154017   6.755   6.913   4.664 -1.4870 -0.4571  1.1889
10842TIP3    H254018   6.707   6.798   4.750 -0.0293 -3.3644 -1.6554
10843TIP3   OH254019   0.563   1.441   2.692 -0.3945 -1.1666  0.2103
10843TIP3    H154020   0.586   1.453   2.784  2.3817 -0.0354 -0.5064
10843TIP3    H254021   0.562   1.530   2.656  3.3719 -1.6915 -1.7173
10844TIP3   OH254022   0.995   1.870   0.268 -0.3361 -0.8618  0.8492
10844TIP3    H154023   0.982   1.954   0.224 -1.4732 -0.4430  1.9194
10844TIP3    H254024   1.073   1.884   0.323 -0.6834 -0.3899  1.2390
10845TIP3   OH254025   1.904   0.104   5.787 -0.3806  0.1904 -0.5121
10845TIP3    H154026   1.876   0.182   5.834  1.2574 -0.0119  0.9068
10845TIP3    H254027   1.864   0.031   5.835  1.1868 -0.0096  0.5622
10846TIP3   OH254028   2.421   0.652  12.413 -0.3506  0.1458  0.6023
10846TIP3    H154029   2.335   0.642  12.374 -0.7273  0.1633  1.4007
10846TIP3    H254030   2.475   0.691  12.344 -1.0709  0.4600  0.2112
10847TIP3   OH254031   6.786   4.117  13.604  0.5978 -0.7297 -0.4815
10847TIP3    H154032   6.863   4.101  13.549  1.1067  0.2186 -0.0802
10847TIP3    H254033   6.785   4.212  13.617 -1.2347 -0.5995 -1.3022
10848TIP3   OH254034   5.909   3.085  12.684 -0.1214 -0.3681  0.7213
10848TIP3    H154035   5.954   3.016  12.733 -0.8280 -0.8824  0.6694
10848TIP3    H254036   5.962   3.163  12.697  1.0570 -1.0673  0.2386
10849TIP3   OH254037   2.856   4.268   5.737  0.1709  0.2984 -0.2479
10849TIP3    H154038   2.815   4.223   5.663  1.9090  0.3841 -1.3141
10849TIP3    H254039   2.884   4.352   5.701 -0.3045  0.9937  0.9370
10850TIP3   OH254040   4.863   1.270  14.545  0.5580 -0.1107 -0.1922
10850TIP3    H154041   4.957   1.283  14.535  0.4589  2.0149  1.0586
10850TIP3    H254042   4.826   1.359  14.546 -1.1487 -0.7370  1.9361
10851TIP3   OH254043   1.222   6.190  14.806 -0.0911 -0.3109  0.1805
10851TIP3    H154044   1.227   6.117  14.867  1.6809 -0.7030 -0.3807
10851TIP3    H254045   1.254   6.155  14.723  0.3805  0.9698 -0.2093
10852TIP3   OH254046   4.542   2.387  16.684  0.2673 -0.1037 -0.1504
10852TIP3    H154047   4.453   2.421  16.675  0.4015  0.2794 -0.0654
10852TIP3    H254048   4.551   2.367  16.777  0.2861 -0.1032 -0.1526
10853TIP3   OH254049   3.848   1.522  11.227 -0.1709  0.1215 -0.4165
10853TIP3    H154050   3.787   1.588  11.192  1.5987  2.4960  0.6903
10853TIP3    H254051   3.920   1.521  11.164  1.0008  1.2277  0.8295
10854TIP3   OH254052   1.099   3.457   3.230  0.0556  0.1476 -0.1454
10854TIP3    H154053   1.184   3.473   3.271  1.0829 -1.0579 -1.6800
10854TIP3    H254054   1.083   3.536   3.178  0.7847 -0.0592 -0.7049
10855TIP3   OH254055   0.254   5.559   4.925  0.3559 -0.2839 -0.0264
10855TIP3    H154056   0.300   5.601   4.852  0.6176  0.4620  0.5534
10855TIP3    H254057   0.260   5.466   4.907 -0.4738 -0.0879 -1.4934
10856TIP3   OH254058   1.170   4.084  13.860  0.0389 -0.4896  0.2520
10856TIP3    H154059   1.116   4.020  13.907 -0.0696 -0.0743  0.6992
10856TIP3    H254060   1.114   4.162  13.855  1.6098  1.0062  3.3621
10857TIP3   OH254061   1.209   4.327   6.463 -0.3163  0.4500  0.3489
10857TIP3    H154062   1.200   4.345   6.369  0.4800  0.0770  0.2036
10857TIP3    H254063   1.190   4.234   6.472  2.2742 -0.1471  0.1708
10858TIP3   OH254064   4.306   0.722  16.970  0.1179 -0.3091  0.1776
10858TIP3    H154065   4.354   0.732  17.052 -1.7003  0.2533  1.2120
10858TIP3    H254066   4.260   0.805  16.959 -0.6106 -0.8253 -0.7851
10859TIP3   OH254067   5.630   3.760   2.324 -0.0461 -0.2872  0.3133
10859TIP3    H154068   5.550   3.708   2.332  1.0912 -2.0893  0.6813
10859TIP3    H254069   5.645   3.795   2.412  0.0397 -0.7200  0.4767
10860TIP3   OH254070   2.572   5.308   3.959  0.5176 -0.3995 -0.3165
10860TIP3    H154071   2.588   5.362   4.037  3.2329  0.2796 -1.2296
10860TIP3    H254072   2.479   5.321   3.939  0.8547  3.3364 -0.0189
10861TIP3   OH254073   6.792   0.971  11.074 -0.5871  0.5583 -0.5696
10861TIP3    H154074   6.833   1.030  11.010 -1.6934  0.3257 -1.5295
10861TIP3    H254075   6.709   0.945  11.033 -1.7037  0.9923  1.2701
10862TIP3   OH254076   0.627   4.456  10.370  0.3705 -0.6955  0.2879
10862TIP3    H154077   0.681   4.529  10.399  2.0155 -1.3747 -0.9270
10862TIP3    H254078   0.573   4.434  10.447 -1.0185  2.4478  0.3416
10863TIP3   OH254079   5.776   1.760  14.652 -0.1207  0.1635 -0.7913
10863TIP3    H154080   5.863   1.726  14.673 -0.2819 -1.0317 -1.9243
10863TIP3    H254081   5.785   1.802  14.567 -0.6320  0.1544 -0.8569
10864TIP3   OH254082   1.953   4.866   3.033  0.2881 -0.2876 -0.4313
10864TIP3    H154083   1.947   4.819   2.951 -0.5112 -2.4940  0.8093
10864TIP3    H254084   2.027   4.826   3.079 -0.0609  0.0405  0.4390
10865TIP3   OH254085   4.820   0.924   2.560 -0.3000 -0.3147  0.0114
10865TIP3    H154086   4.875   1.001   2.551  0.6010 -0.7310  1.4937
10865TIP3    H254087   4.831   0.898   2.652 -1.6792 -1.3800 -0.0986
10866TIP3   OH254088   3.054   2.756   5.605  0.4755  0.5153  0.6503
10866TIP3    H154089   2.976   2.715   5.642  1.6275 -3.5219 -0.8294
10866TIP3    H254090   3.123   2.739   5.669  1.3439 -1.7102 -0.7607
10867TIP3   OH254091   0.458   4.377   5.843  0.2633 -0.0940  0.0382
10867TIP3    H154092   0.494   4.450   5.894  1.0784 -0.4899  0.0597
10867TIP3    H254093   0.427   4.315   5.910 -2.0649  0.9752  0.0202
10868TIP3   OH254094   1.327   1.177   2.373  0.0640 -0.5691 -0.5311
10868TIP3    H154095   1.316   1.174   2.278 -1.1398  0.0002 -0.4416
10868TIP3    H254096   1.348   1.269   2.392 -0.2605 -0.5527 -0.2194
10869TIP3   OH254097   1.100   4.526   0.307  0.2959  0.1229 -0.6841
10869TIP3    H154098   1.035   4.563   0.367 -0.7821 -1.3371 -0.8826
10869TIP3    H254099   1.184   4.556   0.342 -0.3777  0.5658  0.6632
10870TIP3   OH254100   2.307   2.862   3.818  0.0089  0.2305 -0.3496
10870TIP3    H154101   2.277   2.932   3.876  1.1602  0.5744 -0.1395
10870TIP3    H254102   2.274   2.886   3.732 -0.8242  0.2691 -0.0240
10871TIP3   OH254103   3.335   0.377   0.327 -0.2944  0.1085 -0.0233
10871TIP3    H154104   3.430   0.379   0.334 -0.4048  1.9395  2.0286
10871TIP3    H254105   3.314   0.448   0.266 -0.3739 -0.9121 -1.2489
10872TIP3   OH254106   5.755   4.496  15.987  0.2376 -0.1149 -0.2139
10872TIP3    H154107   5.689   4.541  15.935 -0.4192  2.0910  2.3516
10872TIP3    H254108   5.838   4.535  15.958 -0.1165  1.0929  0.3452
10873TIP3   OH254109   1.550   3.546  10.653  0.2002  0.5144 -0.3999
10873TIP3    H154110   1.480   3.552  10.588 -0.9456 -1.3943  0.5628
10873TIP3    H254111   1.595   3.464  10.632  1.4717  1.1661 -0.3260
10874TIP3   OH254112   5.442   6.398   3.296  0.2144  0.2923 -0.5087
10874TIP3    H154113   5.374   6.365   3.238  0.3108  0.6083 -0.8084
10874TIP3    H254114   5.403   6.397   3.383  0.0985 -0.2693 -0.5638
10875TIP3   OH254115   0.840   3.162  12.354  0.0781  0.1580 -0.2342
10875TIP3    H154116   0.924   3.166  12.399  0.5908 -0.9419 -1.0318
10875TIP3    H254117   0.817   3.069  12.354 -2.1063  0.6216  1.6394
10876TIP3   OH254118   0.235   1.345   3.216  0.1175 -0.3888 -0.2401
10876TIP3    H154119   0.245   1.256   3.249 -0.0913 -0.0565  0.7465
10876TIP3    H254120   0.152   1.375   3.252  0.7687  0.6301  0.4787
10877TIP3   OH254121   6.096   0.405  10.560 -0.3698  0.5870 -0.2465
10877TIP3    H154122   6.084   0.349  10.483  0.7874 -0.1821  0.1102
10877TIP3    H254123   6.186   0.437  10.552 -0.6350  1.4535  0.1731
10878TIP3   OH254124   5.231   6.576   5.791 -0.2300 -0.3549 -0.1874
10878TIP3    H154125   5.221   6.541   5.879  0.2987 -0.3545 -0.1213
10878TIP3    H254126   5.142   6.589   5.760 -0.4665 -2.0788 -0.3495
10879TIP3   OH254127   3.495   0.977   5.020 -0.3478 -0.5553 -0.3569
10879TIP3    H154128   3.520   1.047   5.080 -1.0010  0.9781 -1.7866
10879TIP3    H254129   3.403   0.994   5.000 -1.0842 -2.9163  0.6243
10880TIP3   OH254130   0.196   3.075   2.683 -0.1326  0.4646 -0.5548
10880TIP3    H154131   0.102   3.094   2.682 -0.1570  0.3365 -0.9957
10880TIP3    H254132   0.222   3.079   2.591 -0.2621 -2.1661 -0.7998
10881TIP3   OH254133   1.876   2.212   1.181 -0.7891 -0.1645  0.2798
10881TIP3    H154134   1.814   2.265   1.232 -0.7632  2.1554 -1.8897
10881TIP3    H254135   1.822   2.169   1.115 -0.2781  0.9229 -0.8773
10882TIP3   OH254136   0.002   2.055   2.391  0.1742  0.5009 -0.3143
10882TIP3    H154137  -0.002   2.082   2.483  0.6601  1.5971 -0.5954
10882TIP3    H254138   0.059   1.978   2.391  2.2007  1.9370  0.0172
10883TIP3   OH254139   2.043   0.866  15.185 -0.3503  0.6390  0.0297
10883TIP3    H154140   2.002   0.856  15.271 -2.0050  1.1290 -0.6568
10883TIP3    H254141   2.136   0.853  15.201 -0.6819  0.1724  1.7969
10884TIP3   OH254142   3.759   0.924   1.017 -0.1460  0.4890 -0.0748
10884TIP3    H154143   3.701   0.876   0.957  0.4462 -0.9227  0.4488
10884TIP3    H254144   3.773   1.008   0.974  0.1174 -0.4135 -1.8506
10885TIP3   OH254145   5.424   4.134  15.862  0.0372 -0.1827  0.2676
10885TIP3    H154146   5.424   4.176  15.776  1.8456 -1.0738 -0.2068
10885TIP3    H254147   5.347   4.171  15.906 -0.9264  0.3025 -1.7015
10886TIP3   OH254148   2.189   0.282   3.242  0.0521  0.1680 -0.4821
10886TIP3    H154149   2.213   0.328   3.161 -1.8876  0.6742 -0.8250
10886TIP3    H254150   2.123   0.218   3.214 -0.2527 -0.0165  0.6256
10887TIP3   OH254151   3.717   3.325   1.104  0.4417  0.5873  0.3365
10887TIP3    H154152   3.709   3.237   1.068 -0.0349  0.5073  0.6231
10887TIP3    H254153   3.631   3.364   1.090  0.9287  1.3426 -0.6384
10888TIP3   OH254154   3.166   1.251   3.914  0.1843  0.6020  0.5253
10888TIP3    H154155   3.225   1.326   3.914  1.1638 -0.1435  0.0771
10888TIP3    H254156   3.186   1.205   3.996  0.3647  0.2373  0.2771
10889TIP3   OH254157   4.723   5.852   3.252 -0.2816 -0.3377 -0.9817
10889TIP3    H154158   4.672   5.784   3.295 -0.2807  0.5653  0.5330
10889TIP3    H254159   4.683   5.934   3.280  2.8309  0.5201  1.6469
10890TIP3   OH254160   0.234   5.389  15.816  0.5027  0.0671 -0.7075
10890TIP3    H154161   0.320   5.369  15.851  0.2009  0.5703  0.3425
10890TIP3    H254162   0.176   5.325  15.856 -0.0193  1.3017  0.5846
10891TIP3   OH254163   3.732   5.820   3.027 -0.1936 -0.1367  0.6000
10891TIP3    H154164   3.650   5.870   3.023  0.2983  0.6203 -1.6813
10891TIP3    H254165   3.714   5.741   2.975  0.8844  0.7170 -1.1658
10892TIP3   OH254166   5.399   3.812  14.868 -0.1253  0.2810 -0.9085
10892TIP3    H154167   5.487   3.773  14.871  0.2057  0.9203 -2.0029
10892TIP3    H254168   5.384   3.843  14.958 -0.1833 -1.8535 -0.1237
10893TIP3   OH254169   2.005   4.742  16.080 -0.6586 -0.3605 -0.1464
10893TIP3    H154170   2.003   4.649  16.101 -3.3484 -0.2266  0.5781
10893TIP3    H254171   1.968   4.785  16.157 -2.4347  0.9708 -1.6176
10894TIP3   OH254172   5.835   2.819  14.674  0.2606 -0.3068  0.2137
10894TIP3    H154173   5.864   2.821  14.765 -1.7787 -2.9169  1.0263
10894TIP3    H254174   5.896   2.759  14.630 -0.7638 -1.7871  0.7356
10895TIP3   OH254175   5.727   0.414  12.637 -0.2601 -0.0196 -0.1358
10895TIP3    H154176   5.791   0.447  12.700  0.3222  0.7016 -1.0659
10895TIP3    H254177   5.773   0.344  12.591 -0.8047 -0.7856  0.4643
10896TIP3   OH254178   3.188   4.149  17.165 -0.9082 -0.2900  0.4533
10896TIP3    H154179   3.123   4.079  17.165 -1.0252 -0.2043 -0.9017
10896TIP3    H254180   3.219   4.152  17.075  0.0325  0.5496  0.7929
10897TIP3   OH254181   5.692   5.640  10.812 -0.1600 -1.0749  0.1338
10897TIP3    H154182   5.600   5.626  10.833 -0.2776  0.1999  0.5682
10897TIP3    H254183   5.691   5.695  10.733  0.1662  0.5790  1.2298
10898TIP3   OH254184   6.452   5.560  13.945  0.3639 -0.6153  0.3968
10898TIP3    H154185   6.538   5.543  13.906  0.5861  1.9491 -0.4347
10898TIP3    H254186   6.470   5.563  14.039  1.7715  2.1084  0.1608
10899TIP3   OH254187   1.641   6.620   1.766  0.2298 -0.1618 -0.0218
10899TIP3    H154188   1.547   6.622   1.748  0.2020  1.7418  0.1820
10899TIP3    H254189   1.649   6.575   1.850 -0.4304 -0.7893 -0.2806
10900TIP3   OH254190   5.303   0.666  14.815  0.0034  0.0851 -0.5140
10900TIP3    H154191   5.222   0.626  14.785  1.8256 -2.7005 -2.1348
10900TIP3    H254192   5.333   0.719  14.741 -0.9480  2.3201  0.5955
10901TIP3   OH254193   4.580   5.491   1.315 -0.3447  0.0098  0.4144
10901TIP3    H154194   4.526   5.482   1.394  0.0756 -0.0969  0.6897
10901TIP3    H254195   4.524   5.458   1.245 -0.1268 -1.4659  0.8999
10902TIP3   OH254196   1.787   6.139  10.952  0.1380  1.0065 -0.5164
10902TIP3    H154197   1.704   6.170  10.986  0.7588  0.8909  1.2068
10902TIP3    H254198   1.769   6.115  10.861 -1.3377  2.3666 -0.6093
10903TIP3   OH254199   0.173   1.156   0.374  0.2602 -0.3123 -1.1439
10903TIP3    H154200   0.224   1.137   0.452 -0.9914 -0.8263 -0.4147
10903TIP3    H254201   0.181   1.251   0.362  0.2381 -0.1833 -0.2112
10904TIP3   OH254202   4.917   0.155   0.602 -0.4879 -0.5934  0.4034
10904TIP3    H154203   4.927   0.103   0.522 -1.9568  0.1340 -0.2917
10904TIP3    H254204   4.970   0.109   0.667 -0.2599 -1.9058 -0.6636
10905TIP3   OH254205   2.504   4.311   6.687  0.9060  0.3611 -0.1438
10905TIP3    H154206   2.593   4.289   6.659  1.6770  0.6065  1.8984
10905TIP3    H254207   2.481   4.242   6.750 -0.8779 -0.3962 -1.5389
10906TIP3   OH254208   4.105   6.152  14.474 -0.0388 -0.6271  0.1185
10906TIP3    H154209   4.153   6.110  14.402 -1.0851 -1.3189 -0.1893
10906TIP3    H254210   4.144   6.239  14.480  0.7729 -0.9172 -0.5921
10907TIP3   OH254211   4.479   2.876  12.156 -0.0931  0.6551  0.0941
10907TIP3    H154212   4.417   2.926  12.103 -2.8324 -0.6197  1.8433
10907TIP3    H254213   4.537   2.941  12.194 -1.7815  2.2320  0.0960
10908TIP3   OH254214   4.507   1.216   4.431 -0.5302  0.3104 -0.3620
10908TIP3    H154215   4.548   1.169   4.504  1.1708 -0.9747 -2.0719
10908TIP3    H254216   4.526   1.308   4.449 -1.8887  0.2687  1.8014
10909TIP3   OH254217   1.655   5.389   2.368 -0.0618  0.0955  0.5960
10909TIP3    H154218   1.722   5.337   2.324 -0.2062 -0.6989  1.2996
10909TIP3    H254219   1.576   5.376   2.316  0.1405  0.4365  0.1931
10910TIP3   OH254220   4.667   1.032   3.633 -0.6165 -0.3220  0.1312
10910TIP3    H154221   4.621   1.111   3.604  0.3625  0.8441  1.6008
10910TIP3    H254222   4.690   1.050   3.724  2.2987 -1.0507 -0.3831
10911TIP3   OH254223   3.948   2.731  16.629  0.1973  0.3070  0.0512
10911TIP3    H154224   3.912   2.764  16.711 -0.9776  1.3502 -0.8452
10911TIP3    H254225   4.039   2.760  16.629  0.0563  0.7780  0.7276
10912TIP3   OH254226   3.008   2.124  15.419 -0.0923  0.8456  0.2545
10912TIP3    H154227   2.961   2.120  15.336  0.2775  0.0262  0.0707
10912TIP3    H254228   3.033   2.216  15.429 -0.8443  1.1002 -0.1363
10913TIP3   OH254229   5.088   6.507   0.902  0.3292  0.3191  0.6186
10913TIP3    H154230   5.183   6.509   0.902  0.3983 -0.0390 -2.2525
10913TIP3    H254231   5.065   6.423   0.864 -1.2291 -0.2532  2.6026
10914TIP3   OH254232   4.235   1.989  15.508 -0.3461  0.2295  0.2345
10914TIP3    H154233   4.277   2.075  15.509  2.3413 -0.9627 -0.8404
10914TIP3    H254234   4.179   1.990  15.430 -0.2372  0.9493  0.1606
10915TIP3   OH254235   5.941   3.296   5.226 -0.5231 -0.0408  0.4348
10915TIP3    H154236   5.967   3.377   5.269 -0.5591  1.7138 -2.5547
10915TIP3    H254237   6.017   3.271   5.173 -1.8928  0.4085 -1.8485
10916TIP3   OH254238   5.964   6.365  12.344 -0.0047 -0.0937 -0.2509
10916TIP3    H154239   5.893   6.362  12.408  0.0984  1.8388  0.0079
10916TIP3    H254240   5.920   6.348  12.260 -0.9121  1.5267 -0.1565
10917TIP3   OH254241   3.689   6.145  13.009 -0.4762 -0.5053 -0.0200
10917TIP3    H154242   3.744   6.174  12.936 -1.6572 -0.1296 -0.7887
10917TIP3    H254243   3.637   6.222  13.032 -0.9652 -0.9573  0.4169
10918TIP3   OH254244   5.965   5.342   2.126 -0.1086  0.0207 -0.4390
10918TIP3    H154245   5.883   5.378   2.159 -2.1675 -4.1175 -0.4669
10918TIP3    H254246   5.948   5.322   2.034  2.3525  2.4947 -1.6010
10919TIP3   OH254247   0.170   0.662   4.916 -0.3701 -0.3563  0.0163
10919TIP3    H154248   0.178   0.745   4.964  0.4158 -0.2916 -0.2161
10919TIP3    H254249   0.249   0.613   4.940 -0.9392 -1.1384  0.3335
10920TIP3   OH254250   0.217   5.380  16.567 -0.2597  0.3402 -0.5886
10920TIP3    H154251   0.132   5.411  16.537 -0.5750  1.0424  0.8986
10920TIP3    H254252   0.249   5.450  16.624  0.2042 -0.9434  0.8076
10921TIP3   OH254253   4.769   3.631  15.479  0.2060  0.3149  0.0012
10921TIP3    H154254   4.731   3.601  15.562 -0.0791  1.0499  0.1409
10921TIP3    H254255   4.710   3.598  15.412  1.3273 -1.7442 -0.0603
10922TIP3   OH254256   6.203   1.812   5.179  0.1067  0.2655 -0.6856
10922TIP3    H154257   6.170   1.727   5.209  0.5407 -0.5581 -2.3803
10922TIP3    H254258   6.129   1.872   5.191  0.0510 -0.1258  1.2987
10923TIP3   OH254259   2.544   2.472  15.867 -0.1377  0.2548 -0.4747
10923TIP3    H154260   2.537   2.417  15.790 -1.3067  1.6220 -1.3872
10923TIP3    H254261   2.465   2.452  15.918 -0.4550  0.9010 -0.7023
10924TIP3   OH254262   4.698   6.639  15.331 -0.7304 -0.2214 -0.1952
10924TIP3    H154263   4.793   6.628  15.338 -0.3535  2.2424 -0.7931
10924TIP3    H254264   4.671   6.569  15.272  0.9092 -0.1900 -1.0389
10925TIP3   OH254265   4.449   1.701  14.807 -0.2007  0.4420  0.0909
10925TIP3    H154266   4.373   1.755  14.785 -0.0751  1.4241  1.9017
10925TIP3    H254267   4.413   1.617  14.832 -0.6296  0.6287  0.1105
10926TIP3   OH254268   5.654   6.424   4.646  0.5056  0.3548  0.3219
10926TIP3    H154269   5.567   6.461   4.659  0.5714  1.5604 -2.0880
10926TIP3    H254270   5.686   6.466   4.567  2.3128 -1.8495 -0.2287
10927TIP3   OH254271   5.905   2.684  17.064 -0.4146 -0.1426 -0.0586
10927TIP3    H154272   5.867   2.688  17.151  1.9697  2.1450  1.0200
10927TIP3    H254273   5.838   2.722  17.007 -1.5231 -0.5251  0.9458
10928TIP3   OH254274   2.571   2.744   4.617  0.2393  0.1441 -0.3241
10928TIP3    H154275   2.570   2.726   4.711  2.7231  2.7191  0.3402
10928TIP3    H254276   2.485   2.781   4.599 -0.1820 -0.1116  0.9931
10929TIP3   OH254277   6.620   6.147   3.124  0.3655  0.1702  0.5138
10929TIP3    H154278   6.684   6.159   3.054  0.0145 -1.2400 -0.0907
10929TIP3    H254279   6.661   6.187   3.201  0.0060  3.4293 -0.8066
10930TIP3   OH254280   2.178   4.323  16.216  0.3850  0.5806 -0.8673
10930TIP3    H154281   2.163   4.341  16.309  1.6269 -0.7843 -0.3666
10930TIP3    H254282   2.271   4.340  16.202  0.5038 -0.4659 -1.5321
10931TIP3   OH254283   2.720   0.858  16.432 -0.0092  0.1834 -0.1872
10931TIP3    H154284   2.678   0.780  16.469  0.2207 -0.0646 -0.4486
10931TIP3    H254285   2.734   0.916  16.508 -0.7133  0.2228 -0.0764
10932TIP3   OH254286   5.533   0.690   1.669  0.2626 -0.0548  0.0230
10932TIP3    H154287   5.446   0.717   1.699  0.4108 -1.3732  1.8272
10932TIP3    H254288   5.590   0.702   1.746  1.1136 -1.6046 -0.3263
10933TIP3   OH254289   5.892   1.994  16.016 -0.1381 -0.6037 -0.2392
10933TIP3    H154290   5.910   1.919  15.959 -0.4239 -0.4889 -0.4792
10933TIP3    H254291   5.883   2.068  15.957  1.8827 -0.0220  0.0770
10934TIP3   OH254292   6.233   3.503  11.324  0.0655  0.8899  0.6582
10934TIP3    H154293   6.231   3.480  11.231 -2.5406 -0.7323  1.0327
10934TIP3    H254294   6.295   3.441  11.362 -2.2131 -1.6007  0.6228
10935TIP3   OH254295   4.820   6.581   0.492  0.4436  0.0764  0.2213
10935TIP3    H154296   4.761   6.603   0.419  1.3053 -0.1865 -0.5755
10935TIP3    H254297   4.903   6.624   0.469  1.9214 -3.1283 -0.9116
10936TIP3   OH254298   2.349   6.198  16.954 -0.2949  1.0036 -0.6611
10936TIP3    H154299   2.401   6.154  17.022 -1.9250  0.1173  0.0516
10936TIP3    H254300   2.372   6.291  16.963 -1.3412  1.0888  1.9536
10937TIP3   OH254301   1.863   5.917  11.733  0.0188 -0.1231  0.3560
10937TIP3    H154302   1.918   5.902  11.811 -0.9257  0.1211  1.0836
10937TIP3    H254303   1.780   5.950  11.768 -0.1064  0.8763 -0.8162
10938TIP3   OH254304   5.551   2.772  14.591  0.7124 -0.0462 -0.0681
10938TIP3    H154305   5.636   2.796  14.629  0.8887 -0.3239 -0.2771
10938TIP3    H254306   5.574   2.735  14.505  0.4296 -0.7516  0.1560
10939TIP3   OH254307   4.795   3.723   2.492  0.0160 -0.3901 -0.7788
10939TIP3    H154308   4.768   3.804   2.449  2.3863  0.3573 -1.0497
10939TIP3    H254309   4.718   3.666   2.489 -1.8756  1.9716 -0.1946
10940TIP3   OH254310   5.654   0.942   2.373 -0.2301  0.1855 -0.5221
10940TIP3    H154311   5.606   0.965   2.453 -0.2904 -0.2732 -0.4251
10940TIP3    H254312   5.621   0.856   2.350  1.5746 -0.7949  0.3431
10941TIP3   OH254313   0.047   3.125   0.149 -0.3053  0.4294 -0.0335
10941TIP3    H154314   0.012   3.184   0.082 -0.4541  0.3235 -0.0509
10941TIP3    H254315   0.100   3.181   0.206 -0.1217  0.5084 -0.2791
10942TIP3   OH254316   5.476   5.204  14.970 -0.0557 -0.5587 -0.3611
10942TIP3    H154317   5.572   5.207  14.971 -0.0383 -1.0389  0.6260
10942TIP3    H254318   5.454   5.162  14.887  0.6186 -1.1014 -0.2770
10943TIP3   OH254319   4.718   1.451   5.749  0.0889 -0.6214 -0.3484
10943TIP3    H154320   4.753   1.432   5.662  0.4351  1.2357 -0.6478
10943TIP3    H254321   4.790   1.493   5.795 -0.7778  0.4420  0.0700
10944TIP3   OH254322   2.830   5.630   4.757 -0.2714  0.5317  0.0674
10944TIP3    H154323   2.757   5.592   4.709 -1.2028  0.4016  1.5367
10944TIP3    H254324   2.907   5.609   4.704 -1.1836 -0.1553 -1.0283
10945TIP3   OH254325   1.589   5.803   4.137  0.6570  0.1760 -0.4982
10945TIP3    H154326   1.649   5.878   4.134 -0.5126  1.1361 -1.5003
10945TIP3    H254327   1.571   5.791   4.230  1.9099  0.2582 -0.2261
10946TIP3   OH254328   1.347   1.276   1.761 -0.0742 -0.0318 -0.1126
10946TIP3    H154329   1.284   1.339   1.729 -1.6861 -0.8069  1.3581
10946TIP3    H254330   1.335   1.199   1.705  0.3001  0.1778 -0.4828
10947TIP3   OH254331   5.300   3.216   3.657  0.3486  0.2092  0.0800
10947TIP3    H154332   5.208   3.193   3.645  0.2289  0.4505  0.5271
10947TIP3    H254333   5.329   3.160   3.729 -0.1548  1.9914  1.7209
10948TIP3   OH254334   1.281   4.605   3.673 -0.2039 -0.5178 -0.0639
10948TIP3    H154335   1.195   4.633   3.641  0.1735  0.9046  0.1111
10948TIP3    H254336   1.282   4.629   3.765 -0.1810 -1.9499  0.3379
10949TIP3   OH254337   3.019   1.495  16.218 -0.0123 -0.0430 -0.5449
10949TIP3    H154338   3.001   1.588  16.232 -0.0048  0.0440 -1.1230
10949TIP3    H254339   2.964   1.451  16.283 -2.2260  0.2330 -2.1018
10950TIP3   OH254340   5.682   6.005   5.937 -0.0202  0.0163  0.5172
10950TIP3    H154341   5.733   6.031   6.013 -0.1709 -0.8437  0.9242
10950TIP3    H254342   5.605   6.063   5.938  0.7200  1.0392  0.1339
10951TIP3   OH254343   5.554   3.897  15.874 -0.1254  0.2313  0.2607
10951TIP3    H154344   5.495   3.972  15.866  0.1924  0.5476  0.8269
10951TIP3    H254345   5.496   3.821  15.874 -0.5366  0.5378  0.7509
10952TIP3   OH254346   3.901   5.370   4.710  0.5122 -0.2326 -0.4541
10952TIP3    H154347   3.824   5.339   4.757  1.2363  1.7031  2.3005
10952TIP3    H254348   3.896   5.329   4.624 -2.6620 -1.4795  0.2082
10953TIP3   OH254349   1.945   6.352  11.834 -0.2421  0.4833 -0.1572
10953TIP3    H154350   1.963   6.307  11.917 -0.0549  0.7458 -0.0538
10953TIP3    H254351   2.002   6.308  11.771 -1.7407 -0.9839 -0.5639
10954TIP3   OH254352   6.830   2.641  15.711 -0.5027  0.8147 -0.1478
10954TIP3    H154353   6.830   2.605  15.800 -0.0167  0.5996 -0.2319
10954TIP3    H254354   6.822   2.736  15.724  1.3404  0.9460  0.2084
10955TIP3   OH254355   5.470   0.788   2.725  0.1912 -0.3238 -0.4636
10955TIP3    H154356   5.409   0.715   2.713 -0.0259 -0.1267 -0.5712
10955TIP3    H254357   5.542   0.751   2.776 -0.3656 -0.3856  0.2951
10956TIP3   OH254358   2.639   3.213  12.445 -0.0814  0.2808  0.5392
10956TIP3    H154359   2.705   3.181  12.507 -0.4374  0.1488  0.8479
10956TIP3    H254360   2.583   3.138  12.427  0.2555  0.2050 -0.2632
10957TIP3   OH254361   1.446   1.599   5.502 -0.5512 -0.0196 -0.0842
10957TIP3    H154362   1.430   1.542   5.427  1.9071  0.4095 -0.9937
10957TIP3    H254363   1.541   1.599   5.513 -0.7708  0.6058  2.5235
10958TIP3   OH254364   3.741   0.459  11.746  0.4499 -0.4143  0.4070
10958TIP3    H154365   3.684   0.401  11.796 -0.4358  0.2216  0.1680
10958TIP3    H254366   3.756   0.413  11.663  1.9547 -1.4880  1.2370
10959TIP3   OH254367   4.320   4.988   2.523  0.4121 -0.0698 -0.0460
10959TIP3    H154368   4.320   4.953   2.613 -0.3202  1.8829  0.7620
10959TIP3    H254369   4.412   4.984   2.496  0.8009  0.1932  1.1636
10960TIP3   OH254370   5.959   3.380  15.428  0.1286  0.2685  0.5416
10960TIP3    H154371   5.952   3.305  15.486  1.2894 -0.7611 -0.5985
10960TIP3    H254372   5.955   3.343  15.340  2.0476  1.3514 -0.0587
10961TIP3   OH254373   2.024   5.782  11.425  0.3206  0.0642  0.3437
10961TIP3    H154374   1.947   5.838  11.416  0.9769  1.5877  3.2016
10961TIP3    H254375   2.092   5.839  11.459  2.2884 -1.6117 -0.5507
10962TIP3   OH254376   0.588   5.683   4.602  0.0467 -0.4980  1.0753
10962TIP3    H154377   0.614   5.657   4.513 -0.8808  0.9949  0.3425
10962TIP3    H254378   0.545   5.605   4.638  0.7639 -1.2438  0.3771
10963TIP3   OH254379   1.049   3.810   1.425 -0.6238  0.0460  0.1491
10963TIP3    H154380   1.066   3.889   1.373 -0.9859  0.0434  0.0192
10963TIP3    H254381   1.133   3.765   1.429 -0.8591 -0.6318 -1.5816
10964TIP3   OH254382   4.682   0.556   1.947  0.1178 -0.3636 -0.4917
10964TIP3    H154383   4.671   0.601   2.031 -2.6381  0.6260 -1.2634
10964TIP3    H254384   4.720   0.622   1.889  2.0984 -1.0720 -0.0592
10965TIP3   OH254385   0.493   2.235   0.234 -0.5650 -0.5719  0.4476
10965TIP3    H154386   0.539   2.172   0.289 -0.3938 -0.3760  0.5308
10965TIP3    H254387   0.452   2.182   0.165  0.2570 -0.6832  0.0430
10966TIP3   OH254388   2.401   5.349   1.864 -0.1631 -0.6186 -0.2531
10966TIP3    H154389   2.309   5.345   1.835 -0.0616 -0.1210 -0.6543
10966TIP3    H254390   2.427   5.440   1.849  0.7801 -1.0428 -1.3272
10967TIP3   OH254391   3.715   2.130   0.374 -0.8213  0.0862 -0.3517
10967TIP3    H154392   3.663   2.090   0.443 -2.3749 -0.2221 -1.6452
10967TIP3    H254393   3.772   2.193   0.419 -1.0585 -0.8388  1.2813
10968TIP3   OH254394   2.975   4.775   5.637 -0.3271  0.2801  0.1523
10968TIP3    H154395   2.931   4.823   5.567 -1.2293  1.2071  1.3194
10968TIP3    H254396   3.013   4.843   5.693  1.2696 -0.4693  0.0462
10969TIP3   OH254397   3.300   5.401  14.814 -0.7408 -0.5830  0.0880
10969TIP3    H154398   3.348   5.318  14.814  1.7488  0.7056  2.4672
10969TIP3    H254399   3.352   5.459  14.758 -0.8048  0.1885  0.8105
10970TIP3   OH254400   0.045   2.088   3.663 -0.0205  0.2394  0.2984
10970TIP3    H154401   0.091   2.069   3.744  0.8602  0.7476 -0.0733
10970TIP3    H254402   0.052   2.008   3.611  1.8084  0.8091 -0.3862
10971TIP3   OH254403   5.893   4.869   0.240 -0.4121 -0.5258  0.1593
10971TIP3    H154404   5.969   4.926   0.234  0.2590 -1.1970  1.7038
10971TIP3    H254405   5.817   4.927   0.234  0.2178  0.1692 -1.1830
10972TIP3   OH254406   6.414   2.148   0.549  0.1857 -0.2618  0.2070
10972TIP3    H154407   6.507   2.137   0.532 -0.1696 -2.3735 -0.5581
10972TIP3    H254408   6.390   2.074   0.605 -1.4178 -0.9623 -1.2940
10973TIP3   OH254409   5.716   2.923  12.084  0.5292  0.2771 -0.1975
10973TIP3    H154410   5.788   2.986  12.081  1.7464 -1.0145 -4.1460
10973TIP3    H254411   5.748   2.855  12.144  2.3056  0.1399 -1.2208
10974TIP3   OH254412   2.655   6.726  15.235 -0.1872  0.1073  0.0756
10974TIP3    H154413   2.593   6.746  15.306 -1.1902  2.4722 -1.3429
10974TIP3    H254414   2.705   6.807  15.224  1.2117 -0.8364 -0.7134
10975TIP3   OH254415   5.406   3.729   3.516  0.4071  0.9441  0.2227
10975TIP3    H154416   5.412   3.771   3.431  2.2185  2.2746  0.9365
10975TIP3    H254417   5.420   3.636   3.498 -1.4366  0.8895 -1.1344
10976TIP3   OH254418   1.420   6.803  16.134 -0.3026  0.0096 -0.1353
10976TIP3    H154419   1.389   6.831  16.220 -1.6079  0.1701 -0.6302
10976TIP3    H254420   1.465   6.880  16.098 -1.9554  0.8120 -0.5911
10977TIP3   OH254421   5.546   4.819  15.299 -0.0493 -0.3822  0.0890
10977TIP3    H154422   5.581   4.895  15.346  0.9148 -1.0430  0.4904
10977TIP3    H254423   5.510   4.855  15.218  3.3231  0.2301 -1.3304
10978TIP3   OH254424   3.660   4.201  13.079 -0.2645  0.0060 -0.0690
10978TIP3    H154425   3.626   4.136  13.018 -0.1871  0.7066 -0.8861
10978TIP3    H254426   3.596   4.272  13.075 -0.5460 -0.1655  1.0964
10979TIP3   OH254427   2.136   6.816   4.236  0.1257 -0.3269  0.5520
10979TIP3    H154428   2.141   6.905   4.199 -1.5142 -0.9921 -1.4701
10979TIP3    H254429   2.077   6.826   4.311  0.0487  0.3271  0.4174
10980TIP3   OH254430   2.312   1.375  15.780  0.6210  0.3507 -0.4937
10980TIP3    H154431   2.334   1.359  15.688  1.5971  0.5907 -0.3175
10980TIP3    H254432   2.346   1.462  15.798  0.2431  0.3914  0.0340
10981TIP3   OH254433   3.082   4.966   5.821  0.5476  0.2694 -0.0872
10981TIP3    H154434   3.134   5.017   5.883 -1.3139  0.6560  1.2279
10981TIP3    H254435   3.050   5.032   5.758 -0.4939  0.4884  0.6497
10982TIP3   OH254436   1.791   5.924   4.726  0.6632 -0.0031 -0.3296
10982TIP3    H154437   1.858   5.991   4.739 -1.5693  2.3813 -0.2446
10982TIP3    H254438   1.840   5.842   4.721  3.4562  1.4410  0.8617
10983TIP3   OH254439   0.525   2.955  12.260  0.0853 -0.5860 -0.4304
10983TIP3    H154440   0.520   2.866  12.295 -0.1257  0.0253  1.1691
10983TIP3    H254441   0.619   2.975  12.260  0.0988 -0.6493 -0.3783
10984TIP3   OH254442   1.673   1.854  16.921  0.3426  0.1246 -0.0053
10984TIP3    H154443   1.738   1.785  16.928 -0.1924 -0.2486  1.6393
10984TIP3    H254444   1.589   1.808  16.915  0.1150  0.6212 -0.9040
10985TIP3   OH254445   0.314   6.314  12.353 -0.1784 -0.0745  0.0227
10985TIP3    H154446   0.317   6.266  12.436  2.6464 -0.9018 -0.4407
10985TIP3    H254447   0.366   6.393  12.370  0.9478 -0.5527 -1.0987
10986TIP3   OH254448   5.677   4.680   0.689 -0.7570  0.8030 -0.1099
10986TIP3    H154449   5.720   4.598   0.714  0.7149  1.8499  0.9289
10986TIP3    H254450   5.619   4.700   0.763 -0.8745  0.8691 -0.2196
10987TIP3   OH254451   0.851   5.245   4.536  0.0774  0.4797 -0.8403
10987TIP3    H154452   0.802   5.226   4.456 -2.8112 -1.1895  1.1290
10987TIP3    H254453   0.889   5.161   4.562 -1.3131  0.3357  0.8953
10988TIP3   OH254454   1.484   2.068   1.674  0.0458  0.4875 -0.2709
10988TIP3    H154455   1.425   2.031   1.740  1.3274  1.7526  1.7036
10988TIP3    H254456   1.452   2.157   1.661 -0.7511 -0.0223 -2.1448
10989TIP3   OH254457   3.909   3.930   3.352  0.5611 -0.0847  0.0061
10989TIP3    H154458   3.902   4.024   3.369 -0.9414 -0.1963  0.0768
10989TIP3    H254459   3.982   3.901   3.408 -0.5579  0.6049  1.9082
10990TIP3   OH254460   5.058   1.414   3.223  0.0901  0.2757 -0.2962
10990TIP3    H154461   5.101   1.346   3.276 -0.1233  1.1922  1.1002
10990TIP3    H254462   4.974   1.428   3.265  1.0305  3.0204  0.9194
10991TIP3   OH254463   6.364   6.239  16.254  1.0522 -0.0365 -0.5612
10991TIP3    H154464   6.429   6.309  16.244  2.0336 -0.6738  1.0052
10991TIP3    H254465   6.362   6.195  16.169  2.3880  0.2469 -0.7528
10992TIP3   OH254466   5.591   1.514   0.531 -0.4613  0.4144 -0.2261
10992TIP3    H154467   5.678   1.515   0.571 -0.7784 -3.0701  0.8758
10992TIP3    H254468   5.608   1.499   0.438  0.1703 -1.2808  0.1269
10993TIP3   OH254469   6.309   5.251   5.424  0.0024 -0.4654  0.2541
10993TIP3    H154470   6.302   5.157   5.410 -1.7426 -1.2718  4.8830
10993TIP3    H254471   6.221   5.285   5.408  0.8585  0.7131 -2.4818
10994TIP3   OH254472   1.165   5.278   1.692 -0.3230  0.1121 -0.3630
10994TIP3    H154473   1.225   5.313   1.758 -0.1734  0.6924 -0.7906
10994TIP3    H254474   1.079   5.283   1.732 -0.3000  0.9373 -0.3852
10995TIP3   OH254475   6.052   4.873   0.964  0.4307 -0.0449  0.2884
10995TIP3    H154476   6.062   4.782   0.991  2.1012 -0.6371 -2.0671
10995TIP3    H254477   5.964   4.877   0.925  0.8657 -1.0205 -0.8241
10996TIP3   OH254478   2.416   2.431   4.782 -0.1948  0.2774  0.0392
10996TIP3    H154479   2.361   2.462   4.710  0.2452 -0.2070 -0.5142
10996TIP3    H254480   2.467   2.359   4.744  0.2172  0.1746  0.7702
10997TIP3   OH254481   2.280   2.514  13.106  0.0881  0.3510 -0.1279
10997TIP3    H154482   2.338   2.446  13.140 -1.0879 -0.1259  1.0313
10997TIP3    H254483   2.333   2.562  13.043  1.0662 -1.4013 -0.6955
10998TIP3   OH254484   6.741   0.445   6.252  0.4296  0.3357  0.3693
10998TIP3    H154485   6.722   0.538   6.242  1.9089  0.5967 -0.1602
10998TIP3    H254486   6.826   0.442   6.296  1.4960 -0.7380 -1.6526
10999TIP3   OH254487   2.911   0.541   0.198 -0.0155  0.3868 -0.3769
10999TIP3    H154488   2.998   0.559   0.161  1.2115 -0.1804  2.0326
10999TIP3    H254489   2.897   0.448   0.182  0.9748 -0.1045  1.3002
11000TIP3   OH254490   0.861   3.356   4.158 -0.1577 -0.1427  0.5003
11000TIP3    H154491   0.784   3.352   4.215 -1.6864  2.5193 -1.1367
11000TIP3    H254492   0.862   3.272   4.113 -1.5389 -0.6039  1.2649
11001TIP3   OH254493   2.172   3.057   0.659  0.2302 -0.1141  0.9729
11001TIP3    H154494   2.080   3.057   0.631 -0.2575  1.4249  2.3732
11001TIP3    H254495   2.222   3.069   0.578 -0.8161 -0.6734  0.2256
11002TIP3   OH254496   1.393   3.369  15.180  0.4370  0.8135  0.0046
11002TIP3    H154497   1.394   3.377  15.275 -0.6409  0.3468  0.0747
11002TIP3    H254498   1.303   3.391  15.155  0.9646  1.9157 -1.0068
11003TIP3   OH254499   4.017   0.612  15.244  0.3243  0.2240  0.5401
11003TIP3    H154500   4.062   0.532  15.270 -2.7214 -1.9345 -0.2362
11003TIP3    H254501   3.959   0.632  15.317 -1.1105 -0.1047 -0.4622
11004TIP3   OH254502   5.983   5.937  17.082  0.1424  0.6546  0.0647
11004TIP3    H154503   6.045   5.867  17.103 -1.5173 -0.7660  0.4474
11004TIP3    H254504   5.942   5.958  17.166 -0.3631  1.0844 -0.2899
11005TIP3   OH254505   4.663   2.595  15.651  0.3396 -0.2996  0.1518
11005TIP3    H154506   4.694   2.520  15.702  1.1102 -0.4222 -0.4669
11005TIP3    H254507   4.571   2.605  15.675  0.3151 -1.2464  0.4733
11006TIP3   OH254508   6.819   1.817  14.795 -0.3585  0.0784  1.0623
11006TIP3    H154509   6.823   1.798  14.701  0.7018  0.4767  1.0046
11006TIP3    H254510   6.796   1.734  14.836  0.7900 -0.5032  0.5620
11007TIP3   OH254511   1.729   0.410  15.683 -0.2213  0.2216 -0.2581
11007TIP3    H154512   1.680   0.346  15.734 -0.6273  0.3593 -0.4735
11007TIP3    H254513   1.798   0.360  15.641 -0.0376  0.0626  0.2182
11008TIP3   OH254514   1.217   0.085  16.326 -0.1485 -0.2011  0.4631
11008TIP3    H154515   1.135   0.061  16.371 -0.2312 -1.1853 -0.1723
11008TIP3    H254516   1.213   0.180  16.318 -2.1204 -0.3633 -1.1731
11009TIP3   OH254517   6.755   3.759  14.701 -0.1948 -0.1617  0.2976
11009TIP3    H154518   6.831   3.739  14.756  0.4502 -0.4312 -0.6581
11009TIP3    H254519   6.780   3.727  14.614 -0.9449  0.7789 -0.2818
11010TIP3   OH254520   2.980   1.203  12.017  0.1456 -0.5625 -0.2373
11010TIP3    H154521   2.948   1.160  12.096  0.2343 -0.4244 -0.1243
11010TIP3    H254522   2.928   1.166  11.946 -1.5294  0.9531  0.1347
11011TIP3   OH254523   1.172   6.698  13.901  0.1391  0.5678 -0.1791
11011TIP3    H154524   1.211   6.617  13.867 -0.9765 -0.2212  0.3760
11011TIP3    H254525   1.247   6.750  13.930  0.8184 -1.2767  1.6708
11012TIP3   OH254526   6.704   0.110   5.532 -1.0970 -0.2752  0.0254
11012TIP3    H154527   6.667   0.080   5.449 -2.4007 -1.3074  0.9349
11012TIP3    H254528   6.655   0.190   5.553  0.0575  0.6713 -0.7477
11013TIP3   OH254529   4.734   4.527   1.767  0.2945  0.0742 -0.1742
11013TIP3    H154530   4.640   4.524   1.785  0.6277  0.3698  1.8818
11013TIP3    H254531   4.759   4.617   1.788  1.4671 -0.6971  2.0647
11014TIP3   OH254532   1.104   2.256  12.805  0.0148 -0.4659 -0.0536
11014TIP3    H154533   1.076   2.166  12.819 -2.6610  0.3192  0.2515
11014TIP3    H254534   1.137   2.285  12.890  0.2738 -0.9428  0.0113
11015TIP3   OH254535   5.964   1.749  15.931  0.3220 -0.0638  0.0548
11015TIP3    H154536   6.049   1.753  15.975  1.0081  1.8160 -1.2913
11015TIP3    H254537   5.982   1.703  15.849 -0.0290  0.0401 -0.0816
11016TIP3   OH254538   0.216   0.251  13.214 -0.6594  0.2882 -0.2679
11016TIP3    H154539   0.300   0.293  13.235 -0.1205 -0.6380 -0.5209
11016TIP3    H254540   0.160   0.271  13.289 -0.4247  1.4540 -0.3772
11017TIP3   OH254541   2.304   3.210  11.756 -0.2103 -0.1704 -0.1205
11017TIP3    H154542   2.373   3.256  11.708 -0.2690  0.3791  0.3049
11017TIP3    H254543   2.298   3.256  11.839 -1.4423  0.1255 -0.3491
11018TIP3   OH254544   0.616   0.920  16.844 -0.1913 -0.0467  0.0476
11018TIP3    H154545   0.616   0.825  16.833 -1.0570 -0.4650  2.8409
11018TIP3    H254546   0.523   0.943  16.846 -0.1129  0.3151  2.5998
11019TIP3   OH254547   1.178   2.414   1.279  0.1692  0.3441 -0.1148
11019TIP3    H154548   1.113   2.484   1.285  1.0809  1.1369  0.9438
11019TIP3    H254549   1.150   2.350   1.345 -0.2188  0.0883 -0.5240
11020TIP3   OH254550   1.912   5.486   1.059 -0.8095  0.2246 -0.6458
11020TIP3    H154551   1.884   5.429   0.988 -2.2993 -0.1856  0.2158
11020TIP3    H254552   1.951   5.562   1.016  1.8126 -1.6577 -1.8202
11021TIP3   OH254553   4.753   4.856  13.769 -0.5345 -0.0800  0.1490
11021TIP3    H154554   4.775   4.763  13.779 -0.7311 -0.2152 -0.6115
11021TIP3    H254555   4.667   4.864  13.808 -0.8983 -0.4095 -0.5567
11022TIP3   OH254556   2.782   5.419  13.433  0.0805 -0.5740 -0.1187
11022TIP3    H154557   2.837   5.438  13.356 -0.7569  1.5705 -0.2528
11022TIP3    H254558   2.843   5.418  13.506  0.4084  1.6722 -0.2811
11023TIP3   OH254559   6.102   2.196  12.026 -0.1687 -0.4922 -0.5284
11023TIP3    H154560   6.093   2.242  12.110 -0.3428 -0.5562 -0.5106
11023TIP3    H254561   6.190   2.160  12.028 -1.1123 -2.9238  0.8774
11024TIP3   OH254562   4.592   4.201  13.573  0.4166 -0.4482 -0.1846
11024TIP3    H154563   4.541   4.280  13.557 -0.9196 -1.1679  0.2918
11024TIP3    H254564   4.680   4.222  13.543 -0.2542  0.7136 -1.4578
11025TIP3   OH254565   1.935   5.823   5.416  0.6269  0.2381 -0.0738
11025TIP3    H154566   1.877   5.801   5.489 -1.1281  1.4370 -1.0334
11025TIP3    H254567   2.020   5.786   5.441 -0.7931 -2.7304  0.8243
11026TIP3   OH254568   4.694   2.075  11.355  0.5199 -0.4728  0.4143
11026TIP3    H154569   4.633   2.096  11.284  1.1281 -0.9554 -0.2561
11026TIP3    H254570   4.692   2.153  11.412  1.0256  0.4806 -0.8269
11027TIP3   OH254571   2.662   6.207  12.488  0.5337  0.8915  0.0815
11027TIP3    H154572   2.650   6.240  12.577  0.9515  2.4000 -0.3755
11027TIP3    H254573   2.608   6.266  12.434 -0.7323 -0.7781 -0.5623
11028TIP3   OH254574   5.543   5.260   0.385 -0.2752  0.3400 -0.1213
11028TIP3    H154575   5.581   5.267   0.473  1.4057 -1.2958 -0.6459
11028TIP3    H254576   5.504   5.346   0.369  2.7658  2.0432  0.7221
11029TIP3   OH254577   2.665   5.528   3.269 -0.6440 -0.2186 -0.3377
11029TIP3    H154578   2.627   5.614   3.251  0.3397  0.5120  0.9323
11029TIP3    H254579   2.693   5.533   3.360  0.0368 -1.6641 -0.4515
11030TIP3   OH254580   1.548   1.692  12.939 -0.1375  0.4846 -0.0827
11030TIP3    H154581   1.622   1.726  12.988 -0.7602 -0.8406  1.9162
11030TIP3    H254582   1.554   1.734  12.853  2.8281  0.4784  0.0418
11031TIP3   OH254583   1.534   4.451  14.104 -0.3291 -0.4793 -0.5727
11031TIP3    H154584   1.511   4.486  14.190 -1.2751  2.7174 -1.9785
11031TIP3    H254585   1.450   4.431  14.063 -0.3521  2.8353 -2.4717
11032TIP3   OH254586   3.622   6.717  11.757 -0.5689  0.0971 -0.1781
11032TIP3    H154587   3.634   6.622  11.768 -1.7481  0.0639  1.0089
11032TIP3    H254588   3.658   6.755  11.836 -0.4417  0.6276 -0.4894
11033TIP3   OH254589   4.108   5.440  11.791 -0.1201 -0.0656  0.2160
11033TIP3    H154590   4.190   5.400  11.764 -0.7338 -1.2866  0.0802
11033TIP3    H254591   4.060   5.454  11.709 -1.5774 -2.8713  0.4405
11034TIP3   OH254592   6.774   2.725  13.153 -0.1469  0.3900  0.1724
11034TIP3    H154593   6.794   2.812  13.118 -0.4111  0.1232 -0.6741
11034TIP3    H254594   6.803   2.728  13.244  1.1547  0.9146 -0.2352
11035TIP3   OH254595   4.609   3.349   2.141  0.1155  0.1093  0.1570
11035TIP3    H154596   4.621   3.384   2.053 -0.4671  0.1946  0.1055
11035TIP3    H254597   4.691   3.304   2.161  0.8438  1.4192  0.1998
11036TIP3   OH254598   3.705   5.800   6.112 -0.3176 -0.1619 -0.2702
11036TIP3    H154599   3.794   5.788   6.081 -0.7985 -2.8719 -0.8381
11036TIP3    H254600   3.676   5.713   6.137 -2.0928  0.9764  2.0331
11037TIP3   OH254601   2.636   2.589   4.177  0.7742  0.7162 -0.1278
11037TIP3    H154602   2.646   2.519   4.112 -0.3643  0.0254  0.4094
11037TIP3    H254603   2.557   2.635   4.151  1.9494  2.3893 -0.9581
11038TIP3   OH254604   0.743   1.648   2.468 -0.1830  0.1540 -0.8380
11038TIP3    H154605   0.834   1.658   2.495  0.3605 -1.9509 -1.6960
11038TIP3    H254606   0.742   1.681   2.378  0.7743 -3.4443 -2.3373
11039TIP3   OH254607   4.839   4.919   5.365 -0.2088 -0.6226  0.5118
11039TIP3    H154608   4.906   4.942   5.430 -1.5713  2.9631  0.8560
11039TIP3    H254609   4.766   4.886   5.418 -0.7533  0.8433  0.7015
11040TIP3   OH254610   0.127   1.913  13.383  0.0935  0.3446  0.2407
11040TIP3    H154611   0.149   1.828  13.421  0.3248 -0.1712 -0.9836
11040TIP3    H254612   0.122   1.973  13.457  0.7641 -0.5632  1.0373
11041TIP3   OH254613   3.536   1.412  13.776 -0.2065 -0.3746  0.0274
11041TIP3    H154614   3.589   1.346  13.822  0.1318  0.3372  0.6802
11041TIP3    H254615   3.493   1.363  13.707 -0.4253 -1.4080  0.8631
11042TIP3   OH254616   0.716   2.587  11.857 -0.2650 -0.6455 -0.0276
11042TIP3    H154617   0.747   2.588  11.947 -0.4930 -3.2308  0.1537
11042TIP3    H254618   0.713   2.494  11.833 -0.7310 -0.0769 -2.5267
11043TIP3   OH254619   4.978   3.065   6.060 -0.3987 -0.2713  0.0761
11043TIP3    H154620   5.055   3.010   6.045 -0.3823 -0.1345 -0.3554
11043TIP3    H254621   4.910   3.003   6.088  0.1003 -0.2850  1.3325
11044TIP3   OH254622   0.136   6.199  10.807  0.1819  0.1502  0.0837
11044TIP3    H154623   0.139   6.276  10.751  1.8693 -0.4400 -0.7314
11044TIP3    H254624   0.148   6.125  10.747  0.0834 -0.6431  1.0068
11045TIP3   OH254625   3.579   3.131   5.455 -0.2126  0.1191 -0.7541
11045TIP3    H154626   3.505   3.170   5.410 -0.9770 -1.1792 -0.6748
11045TIP3    H254627   3.633   3.206   5.484  0.0872  1.0023 -3.3852
11046TIP3   OH254628   0.442   6.533   5.863 -0.8199  0.2898 -0.3785
11046TIP3    H154629   0.454   6.600   5.797 -0.2010  1.0000  0.4326
11046TIP3    H254630   0.407   6.580   5.939 -2.0035 -0.5896 -0.3549
11047TIP3   OH254631   5.886   1.117   4.205 -0.0448  0.0708 -0.0836
11047TIP3    H154632   5.981   1.128   4.204  0.1286 -1.0343 -2.1718
11047TIP3    H254633   5.864   1.103   4.297  1.5654  1.9231  0.6643
11048TIP3   OH254634   1.960   0.984  17.114  0.0580 -0.2615 -0.2749
11048TIP3    H154635   2.043   0.974  17.161 -0.3617  2.2836  1.2012
11048TIP3    H254636   1.961   1.074  17.081 -1.8943 -0.3274 -0.6450
11049TIP3   OH254637   6.219   0.516   2.832  0.6596 -0.2557  0.2900
11049TIP3    H154638   6.202   0.569   2.910  0.0411 -0.5449  0.3557
11049TIP3    H254639   6.165   0.438   2.844 -0.1074  0.0797 -0.8249
11050TIP3   OH254640   1.507   2.337  11.849 -0.1006  0.3659  0.2582
11050TIP3    H154641   1.416   2.312  11.834 -0.7330  0.3180  3.4484
11050TIP3    H254642   1.511   2.429  11.824  0.5428 -0.8038 -5.1469
11051TIP3   OH254643   5.962   5.754   4.417 -0.1540  0.2588 -0.4750
11051TIP3    H154644   6.034   5.801   4.376  0.0340  0.8561  0.5274
11051TIP3    H254645   5.944   5.802   4.498 -0.1133 -1.2382  0.4628
11052TIP3   OH254646   6.802   3.590   3.097  0.0016 -0.2534  0.8220
11052TIP3    H154647   6.737   3.644   3.054 -1.0946 -0.1429  2.5102
11052TIP3    H254648   6.873   3.650   3.119 -0.9423  0.4281  2.1509
11053TIP3   OH254649   0.156   3.731   5.482 -0.2101 -0.0378  0.6982
11053TIP3    H154650   0.239   3.709   5.525  0.3602  1.3779  0.3972
11053TIP3    H254651   0.180   3.744   5.390 -0.5719  1.2573  0.7664
11054TIP3   OH254652   0.032   5.872  12.360  0.8908  0.2298  0.3045
11054TIP3    H154653   0.058   5.873  12.268  0.7874 -0.3652  0.2647
11054TIP3    H254654  -0.037   5.938  12.366  1.3296  0.7200  0.0907
11055TIP3   OH254655   2.549   5.788  14.141 -0.1350  0.3506  0.2844
11055TIP3    H154656   2.548   5.787  14.045  0.2488  0.2155  0.2799
11055TIP3    H254657   2.474   5.734  14.167 -0.4001  0.6112  0.0610
11056TIP3   OH254658   2.721   3.112   0.287  0.2406 -0.2862  0.1437
11056TIP3    H154659   2.646   3.166   0.312  1.8625  0.8468  3.0412
11056TIP3    H254660   2.690   3.022   0.297 -0.7229  0.1648  1.4533
11057TIP3   OH254661   4.872   0.623  14.191 -0.0056  0.2455  0.1101
11057TIP3    H154662   4.798   0.641  14.132 -0.4234  2.9372  1.3235
11057TIP3    H254663   4.950   0.639  14.138 -0.3279  0.1144 -0.4102
11058TIP3   OH254664   4.777   4.596  10.944  0.3758 -0.2014  0.4257
11058TIP3    H154665   4.705   4.595  10.881 -0.0344  0.4679  0.8705
11058TIP3    H254666   4.837   4.662  10.910  0.0216  0.3604  0.8631
11059TIP3   OH254667   1.781   5.378  11.200  0.0994  0.4670 -0.0949
11059TIP3    H154668   1.826   5.459  11.222 -0.5406  0.5077  1.1660
11059TIP3    H254669   1.809   5.358  11.111  2.6926  0.3920  0.6725
11060TIP3   OH254670   6.199   3.472  15.127  0.2659  0.2464  0.2727
11060TIP3    H154671   6.211   3.413  15.053 -0.1689  0.3693  0.0995
11060TIP3    H254672   6.276   3.457  15.182 -0.3330 -1.2563  0.7571
11061TIP3   OH254673   6.262   5.526  12.517 -0.4767  0.3974  0.1894
11061TIP3    H154674   6.324   5.584  12.473 -0.7302  0.2315 -0.3953
11061TIP3    H254675   6.312   5.445  12.531  0.9167  1.6650  3.7808
11062TIP3   OH254676   1.458   1.006  11.671 -0.3140 -0.1304  0.3751
11062TIP3    H154677   1.470   0.922  11.628  1.3428  0.4288 -0.3189
11062TIP3    H254678   1.459   0.986  11.765  0.2268 -0.8534  0.2131
11063TIP3   OH254679   0.210   0.723   4.443  0.4914  0.2105  0.1075
11063TIP3    H154680   0.169   0.698   4.526 -2.3716  0.8369 -0.9950
11063TIP3    H254681   0.256   0.805   4.464  1.3202 -0.5584  1.4351
11064TIP3   OH254682   4.454   4.657   6.086  0.3187 -0.3829  0.2886
11064TIP3    H154683   4.449   4.738   6.137 -0.8935  0.3795 -0.9621
11064TIP3    H254684   4.402   4.594   6.137 -0.0373  0.0694  0.4964
11065TIP3   OH254685   4.363   3.094   1.941 -0.0839  0.0836 -0.4430
11065TIP3    H154686   4.387   3.101   2.033 -0.6261 -0.5871 -0.2389
11065TIP3    H254687   4.354   3.000   1.926  1.1929  0.0969 -1.5033
11066TIP3   OH254688   3.250   1.711   6.109  0.0527  0.0529  0.2901
11066TIP3    H154689   3.264   1.801   6.136  0.7572  0.1047 -0.2239
11066TIP3    H254690   3.237   1.663   6.191  0.3919  0.4952  0.6042
11067TIP3   OH254691   5.245   4.480   2.566  0.1275 -0.1141 -0.4159
11067TIP3    H154692   5.263   4.387   2.551 -0.0097 -0.2541  0.2407
11067TIP3    H254693   5.325   4.513   2.608  0.3684  0.1833 -1.0966
11068TIP3   OH254694   0.589   5.580  14.074 -0.0258 -0.1306 -0.0284
11068TIP3    H154695   0.574   5.654  14.132 -0.1791 -0.9015  0.9511
11068TIP3    H254696   0.511   5.577  14.018 -0.8789 -0.6064  1.1289
11069TIP3   OH254697   3.493   6.584  16.466 -0.7099  0.3589  0.5008
11069TIP3    H154698   3.515   6.570  16.374  1.2024 -0.4766  1.0294
11069TIP3    H254699   3.472   6.677  16.471  2.2499  1.1927 -0.2799
11070TIP3   OH254700   0.602   1.622  17.080 -0.3026 -0.4838 -0.0880
11070TIP3    H154701   0.516   1.627  17.122 -1.0508 -0.8512 -1.4964
11070TIP3    H254702   0.596   1.682  17.006  0.5759 -0.6806 -0.3311
11071TIP3   OH254703   0.724   3.920  12.046  0.2400 -0.0398  0.3134
11071TIP3    H154704   0.693   3.908  11.956 -0.5961  0.8473  0.4693
11071TIP3    H254705   0.743   3.831  12.077  0.1461 -0.3904 -0.5981
11072TIP3   OH254706   2.854   3.579   4.636 -0.5241 -0.5042  0.3799
11072TIP3    H154707   2.945   3.563   4.658 -0.4183 -0.0740  0.2524
11072TIP3    H254708   2.854   3.663   4.591 -0.8231 -1.0653 -0.7103
11073TIP3   OH254709   2.803   4.203   6.201 -0.3323  0.6082  0.5358
11073TIP3    H154710   2.854   4.142   6.254  0.8943  1.9909  1.0001
11073TIP3    H254711   2.729   4.227   6.257 -0.4255  0.1278  0.6268
11074TIP3   OH254712   6.520   6.026   1.423  0.1974 -0.5342 -0.0363
11074TIP3    H154713   6.427   6.014   1.445  0.1025  0.1820 -0.0228
11074TIP3    H254714   6.527   6.118   1.400  0.6027 -0.9177 -1.5527
11075TIP3   OH254715   0.430   1.970  10.272 -0.1277 -0.3951 -0.1909
11075TIP3    H154716   0.385   1.995  10.352  0.2880 -0.6803  0.1351
11075TIP3    H254717   0.437   2.051  10.222 -1.7610 -0.4872 -0.6499
11076TIP3   OH254718   3.377   2.654   5.047  0.6403 -0.0031  0.3450
11076TIP3    H154719   3.389   2.609   4.963  0.2741 -0.0351  0.3085
11076TIP3    H254720   3.460   2.642   5.092  0.7074 -0.3183  0.1422
11077TIP3   OH254721   1.214   5.074  11.673  0.5891  0.2768 -0.4796
11077TIP3    H154722   1.139   5.019  11.651  0.5356  0.5587 -1.0106
11077TIP3    H254723   1.268   5.074  11.594  1.5150 -0.5058  0.1248
11078TIP3   OH254724   2.789   3.050   4.668 -0.5595 -0.0585  0.0847
11078TIP3    H154725   2.851   3.121   4.659  0.1004 -0.3864  1.7785
11078TIP3    H254726   2.802   3.017   4.757 -3.4112  0.0988  0.6571
11079TIP3   OH254727   6.355   1.505  13.601 -0.1684 -0.3948 -0.4989
11079TIP3    H154728   6.321   1.416  13.604 -1.5098  0.1029  0.1861
11079TIP3    H254729   6.350   1.530  13.509 -0.2934 -0.8537 -0.6154
11080TIP3   OH254730   2.250   1.083   2.389  0.0308 -0.3150 -0.5445
11080TIP3    H154731   2.301   1.100   2.310 -1.2270 -0.1553 -1.3419
11080TIP3    H254732   2.194   1.009   2.366 -0.3048 -0.3112  0.2285
11081TIP3   OH254733   4.793   5.375  12.765  0.0432 -0.4831 -0.2401
11081TIP3    H154734   4.857   5.330  12.710  0.7334  0.9858 -0.6942
11081TIP3    H254735   4.844   5.446  12.807 -1.3508  0.9952 -0.9372
11082TIP3   OH254736   0.366   0.922   4.813 -0.0352 -0.3005 -0.2850
11082TIP3    H154737   0.384   0.828   4.804 -0.1823 -0.2413 -1.3069
11082TIP3    H254738   0.285   0.926   4.863 -0.9929 -0.7881 -1.7454
11083TIP3   OH254739   0.157   6.596   1.853  0.1533 -0.2137  0.4227
11083TIP3    H154740   0.101   6.674   1.858 -0.0879 -0.4420  1.5152
11083TIP3    H254741   0.178   6.576   1.944  0.5782 -1.1753  0.1239
11084TIP3   OH254742   3.803   0.273   5.798  0.1762 -0.7068 -0.8221
11084TIP3    H154743   3.747   0.207   5.756 -0.5164  0.3672 -1.6557
11084TIP3    H254744   3.744   0.322   5.855  1.0898 -2.0770  1.4258
11085TIP3   OH254745   3.603   3.822   3.138 -0.1295  0.0997 -0.0942
11085TIP3    H154746   3.618   3.850   3.228 -0.6807 -2.0621  0.7317
11085TIP3    H254747   3.516   3.855   3.117 -0.1341  0.3263  0.2724
11086TIP3   OH254748   4.253   6.752  13.642  0.1411  0.3188 -0.4162
11086TIP3    H154749   4.235   6.660  13.621  1.5478 -0.0243 -0.2153
11086TIP3    H254750   4.257   6.753  13.738  1.0510  0.3786 -0.4416
11087TIP3   OH254751   3.248   1.777   1.400 -0.2133  0.5127 -1.1051
11087TIP3    H154752   3.318   1.842   1.411 -1.4124  1.6159  0.3785
11087TIP3    H254753   3.184   1.799   1.467 -1.4458 -1.2174 -1.6472
11088TIP3   OH254754   3.128   4.266   3.750  0.6736 -0.9295 -0.2704
11088TIP3    H154755   3.045   4.221   3.734  0.8653 -0.7959 -1.7768
11088TIP3    H254756   3.104   4.344   3.799 -0.0553 -1.0701 -0.3918
11089TIP3   OH254757   2.158   5.277  12.483 -0.2850 -0.0175  0.3359
11089TIP3    H154758   2.253   5.286  12.473 -0.0076 -1.8843  0.9026
11089TIP3    H254759   2.147   5.207  12.548 -2.0664 -0.3877 -0.2995
11090TIP3   OH254760   4.225   5.094   0.767  0.1316  0.3344 -0.6082
11090TIP3    H154761   4.314   5.098   0.802 -0.0921  0.9508 -0.0741
11090TIP3    H254762   4.234   5.122   0.676  0.3312  1.5955 -0.2256
11091TIP3   OH254763   3.998   0.394   0.011  0.4937  0.9344  0.0602
11091TIP3    H154764   4.018   0.481   0.044  1.0574  1.1313 -0.7504
11091TIP3    H254765   3.971   0.344   0.088 -0.4814  2.0010  0.4345
11092TIP3   OH254766   4.862   5.706  15.168  0.0693 -0.1105 -0.0785
11092TIP3    H154767   4.925   5.656  15.116 -0.3257  0.3396 -1.0159
11092TIP3    H254768   4.794   5.643  15.190 -0.0059 -0.1915 -0.5329
11093TIP3   OH254769   3.941   0.358   0.937  0.2803 -0.0269 -0.3607
11093TIP3    H154770   3.865   0.354   0.878  1.1781 -0.7826 -1.5113
11093TIP3    H254771   3.947   0.451   0.961 -2.0740 -0.1929  1.2486
11094TIP3   OH254772   0.640   3.105   2.517 -0.1170 -0.3356 -0.1269
11094TIP3    H154773   0.565   3.050   2.539  0.1245 -0.4906  0.3146
11094TIP3    H254774   0.652   3.093   2.423 -1.0607  0.2090 -0.3329
11095TIP3   OH254775   3.357   4.399  14.479  0.4593  0.0899 -0.3966
11095TIP3    H154776   3.431   4.459  14.485  0.5874  0.1004 -1.7841
11095TIP3    H254777   3.342   4.371  14.569  2.6119 -0.4695 -0.1450
11096TIP3   OH254778   5.646   1.189  13.509  0.2327  0.3840  0.2548
11096TIP3    H154779   5.603   1.105  13.489  0.1699  0.2913  0.7583
11096TIP3    H254780   5.733   1.182  13.470 -0.4057  0.8160 -1.3300
11097TIP3   OH254781   4.959   1.191   5.097 -0.1321  0.3946 -0.3158
11097TIP3    H154782   4.903   1.215   5.172  0.0319  2.8232 -0.8925
11097TIP3    H254783   4.917   1.114   5.061 -1.1153  0.0890  1.3492
11098TIP3   OH254784   1.115   4.761   5.792  0.6474 -0.0866 -0.2034
11098TIP3    H154785   1.102   4.850   5.759  1.8017 -0.5707 -2.1085
11098TIP3    H254786   1.099   4.705   5.717  1.4465 -1.3888  0.5575
11099TIP3   OH254787   1.446   6.750  10.731 -0.5391  0.3023  0.3227
11099TIP3    H154788   1.422   6.695  10.657  1.6014 -2.0264  1.2382
11099TIP3    H254789   1.530   6.789  10.707 -1.3089  2.0506  0.3079
11100TIP3   OH254790   6.357   2.959   3.327  0.1541  0.2144 -0.2598
11100TIP3    H154791   6.301   2.893   3.288 -0.3345  0.5472 -0.1259
11100TIP3    H254792   6.311   3.042   3.312  2.0325  0.9346 -2.9499
11101TIP3   OH254793   1.568   0.364   5.393 -0.5542  0.1930  0.4368
11101TIP3    H154794   1.539   0.409   5.473 -0.3847  1.3641 -0.1433
11101TIP3    H254795   1.660   0.387   5.385 -0.4351 -0.3627  0.1834
11102TIP3   OH254796   1.293   5.299  16.050  0.1299 -0.2826  0.6032
11102TIP3    H154797   1.238   5.228  16.084 -0.8114 -0.2754 -0.8116
11102TIP3    H254798   1.236   5.375  16.050 -0.1879 -0.4572 -1.6705
11103TIP3   OH254799   0.103   6.324  15.301 -0.5894 -0.7282 -0.1701
11103TIP3    H154800   0.166   6.312  15.230  1.3505  1.7395  0.9681
11103TIP3    H254801   0.046   6.395  15.270 -0.2963 -0.2608  0.3436
11104TIP3   OH254802   4.931   6.664  16.460  0.2329  0.2348 -0.0030
11104TIP3    H154803   4.905   6.667  16.552  4.7297  1.2002  1.4606
11104TIP3    H254804   4.900   6.747  16.423 -0.0557  0.6421  1.1269
11105TIP3   OH254805   2.308   5.170  11.763  0.0462  0.3922 -0.0085
11105TIP3    H154806   2.320   5.089  11.814 -0.3646  0.1117 -0.3550
11105TIP3    H254807   2.221   5.201  11.787 -0.3720 -0.0388 -0.9571
11106TIP3   OH254808   4.657   4.937   6.305 -0.6143  0.3509 -0.1509
11106TIP3    H154809   4.711   4.939   6.384 -1.2748 -2.7088  0.5308
11106TIP3    H254810   4.717   4.916   6.234 -0.3369  0.9964 -0.1110
11107TIP3   OH254811   3.376   6.188  13.581 -0.5895  0.1039 -0.1772
11107TIP3    H154812   3.469   6.204  13.595 -1.0422  1.4540  1.7568
11107TIP3    H254813   3.353   6.243  13.506  0.3691 -1.1276 -1.4056
11108TIP3   OH254814   4.432   5.002   4.254  0.0055  0.5149  0.0715
11108TIP3    H154815   4.418   5.028   4.345  0.8298 -0.1570  0.4187
11108TIP3    H254816   4.495   4.930   4.260 -2.4605 -1.9002 -0.7549
11109TIP3   OH254817   3.239   1.635  16.345 -0.3303 -0.2328 -0.6819
11109TIP3    H154818   3.180   1.578  16.295  0.0038 -0.2103 -1.1094
11109TIP3    H254819   3.233   1.720  16.302 -0.0508 -0.2078 -0.6756
11110TIP3   OH254820   5.258   5.750   4.706 -0.0393 -0.3163 -0.0354
11110TIP3    H154821   5.272   5.840   4.678 -0.2864 -0.5686 -1.0081
11110TIP3    H254822   5.339   5.704   4.683 -0.2688 -0.5412 -0.4050
11111TIP3   OH254823   5.911   1.480  14.718 -0.0232  0.1091 -0.0837
11111TIP3    H154824   5.953   1.565  14.726 -2.5284  1.4372 -0.0910
11111TIP3    H254825   5.874   1.479  14.629 -0.5927 -0.6937  0.1426
11112TIP3   OH254826   5.437   0.782   0.890  0.3517 -0.1828  0.3865
11112TIP3    H154827   5.482   0.862   0.860  3.3963 -2.5437 -2.0851
11112TIP3    H254828   5.356   0.780   0.840  1.3056  0.3323 -1.2890
11113TIP3   OH254829   4.251   6.108  16.786  0.4719 -0.6031 -0.5599
11113TIP3    H154830   4.271   6.068  16.871 -0.4104 -1.5093 -0.7555
11113TIP3    H254831   4.238   6.201  16.806 -0.3539 -0.9019  0.4300
11114TIP3   OH254832   2.319   5.205  16.935 -0.0764  0.2424 -0.3169
11114TIP3    H154833   2.235   5.167  16.958  0.5970 -0.5136  1.0515
11114TIP3    H254834   2.306   5.299  16.943 -1.5640  0.3639 -3.0191
11115TIP3   OH254835   5.018   4.992   2.069  0.6177 -0.1371 -0.0958
11115TIP3    H154836   5.054   4.991   2.158  2.4223 -1.1187 -0.7899
11115TIP3    H254837   5.007   4.900   2.046 -0.3862  0.1105 -0.7091
11116TIP3   OH254838   0.438   1.618   3.894 -0.1099 -0.1662 -0.4723
11116TIP3    H154839   0.397   1.682   3.835  1.0636  0.1611 -0.9662
11116TIP3    H254840   0.491   1.671   3.953 -0.3790 -0.5796  0.1444
11117TIP3   OH254841   0.059   0.663   1.607  0.0575  0.1286  0.1587
11117TIP3    H154842   0.130   0.663   1.543  0.8572  0.3821  1.0261
11117TIP3    H254843   0.060   0.751   1.644 -1.7427  0.6606 -0.9019
11118TIP3   OH254844   5.772   5.050  13.227 -0.4963  0.0722  0.2924
11118TIP3    H154845   5.713   5.039  13.301 -1.2203  0.1101 -0.2625
11118TIP3    H254846   5.732   4.998  13.157 -1.0939  1.8850 -0.7749
11119TIP3   OH254847   3.460   2.120   1.598  0.4813  0.4269 -0.1456
11119TIP3    H154848   3.415   2.153   1.676  1.9225 -0.9699  1.3733
11119TIP3    H254849   3.532   2.180   1.584 -0.8101  1.7310 -1.5923
11120TIP3   OH254850   5.642   0.325   1.315  0.3214  0.1920 -0.9539
11120TIP3    H154851   5.557   0.336   1.273 -1.1990 -0.1953  1.7817
11120TIP3    H254852   5.656   0.230   1.316 -0.6721  0.0148  1.1084
11121TIP3   OH254853   5.284   2.593   4.984  0.2323  0.0698 -0.4521
11121TIP3    H154854   5.369   2.590   4.939 -0.6980 -0.6417 -2.2632
11121TIP3    H254855   5.292   2.667   5.044  1.9543  0.3496 -0.9589
11122TIP3   OH254856   3.586   3.438   1.474  0.0456  0.2508 -0.0912
11122TIP3    H154857   3.535   3.359   1.487  0.4611 -0.3008 -1.5645
11122TIP3    H254858   3.651   3.414   1.407  0.5033  1.6854 -0.2018
11123TIP3   OH254859   2.154   0.715  12.376 -0.4531 -0.5402  0.1832
11123TIP3    H154860   2.161   0.691  12.283 -0.1236 -0.2326  0.1239
11123TIP3    H254861   2.120   0.637  12.418 -1.6400 -0.3349 -0.3596
11124TIP3   OH254862   0.325   2.584   1.931  0.3129  0.1794 -0.1810
11124TIP3    H154863   0.234   2.577   1.903 -0.4011  0.5727  1.8598
11124TIP3    H254864   0.336   2.676   1.953  1.7935  0.5287 -2.0920
11125TIP3   OH254865   3.175   1.088  13.725  0.4773  0.7236  0.3214
11125TIP3    H154866   3.147   1.060  13.638  1.1104 -0.2471  0.4106
11125TIP3    H254867   3.094   1.114  13.769 -0.6423 -3.1569  0.9959
11126TIP3   OH254868   6.716   0.644   5.115  0.3459  0.1689 -0.1493
11126TIP3    H154869   6.628   0.649   5.153  0.5416  1.1789  0.2145
11126TIP3    H254870   6.740   0.736   5.100  1.3792 -0.0916 -0.1482
11127TIP3   OH254871   2.140   5.303  15.233  0.3572 -0.5883  0.2166
11127TIP3    H154872   2.147   5.224  15.287 -0.6751  0.0481  1.3424
11127TIP3    H254873   2.156   5.375  15.294  2.7523  0.0619 -1.0936
11128TIP3   OH254874   4.978   6.757  11.850 -0.6367  0.3098 -0.8537
11128TIP3    H154875   4.899   6.711  11.876  0.4441 -0.7605  0.7184
11128TIP3    H254876   5.012   6.794  11.931  1.4609 -0.8604 -1.1220
11129TIP3   OH254877   2.390   1.280  16.589 -0.4362 -0.3987 -0.6468
11129TIP3    H154878   2.299   1.302  16.609 -0.8733 -0.3110 -2.5616
11129TIP3    H254879   2.424   1.245  16.672 -2.4346 -1.1989 -0.0849
11130TIP3   OH254880   0.916   4.400   0.962 -0.4631  0.3667  0.2088
11130TIP3    H154881   0.991   4.434   0.913 -0.8176 -0.4519 -0.9519
11130TIP3    H254882   0.859   4.362   0.895 -0.9121 -0.9123  1.2741
11131TIP3   OH254883   0.391   0.049   4.643 -1.2327  0.1868  0.5569
11131TIP3    H154884   0.320   0.028   4.704 -0.8431 -0.8930  0.6636
11131TIP3    H254885   0.392  -0.024   4.581 -1.3539  1.0679 -0.5146
11132TIP3   OH254886   3.674   4.911   3.755 -0.2784 -0.4419 -0.3006
11132TIP3    H154887   3.742   4.913   3.821 -0.9710 -0.5038  0.4247
11132TIP3    H254888   3.595   4.939   3.800 -1.0776 -1.9249 -0.7198
11133TIP3   OH254889   4.761   5.019   3.527 -0.2594  0.4067  0.1016
11133TIP3    H154890   4.732   5.019   3.436  1.1167  1.3465 -0.3630
11133TIP3    H254891   4.759   5.111   3.553 -0.8181  0.1273  1.0924
11134TIP3   OH254892   2.464   0.565  16.323  0.2863  0.0092  0.2471
11134TIP3    H154893   2.492   0.630  16.259 -1.0907  0.1182 -0.2646
11134TIP3    H254894   2.425   0.616  16.394 -2.4297 -0.2493 -0.9460
11135TIP3   OH254895   2.465   0.314   1.061 -0.0925  0.2167  0.1567
11135TIP3    H154896   2.416   0.383   1.016 -1.5560  1.1807  2.9572
11135TIP3    H254897   2.398   0.250   1.086  0.9292 -1.1381 -0.4474
11136TIP3   OH254898   3.297   4.280   5.221 -0.1399  0.3205  0.2001
11136TIP3    H154899   3.290   4.300   5.315  2.5962 -0.7027  0.6981
11136TIP3    H254900   3.355   4.348   5.186  0.0873 -0.1865 -0.4302
11137TIP3   OH254901   6.121   0.696   3.689  1.1376  0.0826  0.4636
11137TIP3    H154902   6.155   0.612   3.719  0.9318 -0.0522  0.3145
11137TIP3    H254903   6.106   0.746   3.770 -0.6007 -0.7251  0.6831
11138TIP3   OH254904   5.118   4.494   6.245  0.2128  0.7497 -0.2121
11138TIP3    H154905   5.060   4.553   6.292  1.4211  1.0487  0.9703
11138TIP3    H254906   5.060   4.442   6.188 -0.9007  2.8990 -1.1420
11139TIP3   OH254907   5.721   1.427  12.810 -0.7629  0.9796 -1.0068
11139TIP3    H154908   5.680   1.350  12.849 -0.4657  0.3938 -1.8257
11139TIP3    H254909   5.789   1.392  12.753  0.4519  1.9131 -0.1925
11140TIP3   OH254910   4.339   3.322   0.281  0.0338  0.3680 -0.3133
11140TIP3    H154911   4.359   3.389   0.346  2.4429  0.0372 -0.6246
11140TIP3    H254912   4.334   3.369   0.198  0.1022  0.3553 -0.3239
11141TIP3   OH254913   6.465   5.760   4.526  0.3956  0.2497 -0.1682
11141TIP3    H154914   6.548   5.805   4.544  0.0677  0.0239  2.3139
11141TIP3    H254915   6.482   5.669   4.550 -0.6915  0.2997  0.8595
11142TIP3   OH254916   4.705   2.086   4.763  0.6164  0.1201 -0.5369
11142TIP3    H154917   4.769   2.157   4.769 -0.3041  1.1732 -2.2385
11142TIP3    H254918   4.642   2.105   4.834  1.1857  0.1210 -0.0230
11143TIP3   OH254919   0.888   0.640   5.414  0.7467 -0.0542  0.2434
11143TIP3    H154920   0.900   0.545   5.421  0.9698 -0.0541 -0.0937
11143TIP3    H254921   0.914   0.673   5.500 -1.0021 -0.4431  0.9543
11144TIP3   OH254922   2.643   1.247   5.837  0.0990 -0.0215 -0.7121
11144TIP3    H154923   2.552   1.230   5.861 -0.3063  1.6900 -0.9027
11144TIP3    H254924   2.659   1.337   5.865  1.3119  0.1602 -1.8673
11145TIP3   OH254925   3.315   2.636   6.606 -0.3950 -0.4062  0.0412
11145TIP3    H154926   3.352   2.716   6.569 -0.4109 -0.3015  0.2561
11145TIP3    H254927   3.392   2.580   6.621 -0.2059  0.2145  1.4885
11146TIP3   OH254928   2.999   1.984  13.894 -0.1286  0.0030  0.1431
11146TIP3    H154929   3.088   1.986  13.859 -0.1924 -0.1266 -0.0317
11146TIP3    H254930   2.966   2.073  13.882 -0.5473 -0.3061 -1.1761
11147TIP3   OH254931   1.127   4.548   1.924  0.8329  0.2941  0.1878
11147TIP3    H154932   1.034   4.544   1.945  1.0328 -0.0192  1.0711
11147TIP3    H254933   1.133   4.610   1.851 -0.2954 -1.1709 -1.2306
11148TIP3   OH254934   0.848   2.159  11.814  0.0032  0.1985  0.3766
11148TIP3    H154935   0.788   2.091  11.783 -0.9235  0.7249  0.9686
11148TIP3    H254936   0.851   2.146  11.909  0.2896  0.6115  0.4244
11149TIP3   OH254937   5.127   2.073  13.806  0.4052  0.1432  0.6773
11149TIP3    H154938   5.163   2.083  13.894 -0.2091  1.2632  0.8228
11149TIP3    H254939   5.033   2.088  13.817  0.4154  1.0497 -0.2725
11150TIP3   OH254940   2.499   1.118   5.000  0.0970 -0.1547 -0.1232
11150TIP3    H154941   2.434   1.185   4.979  0.6152 -0.0125 -1.3708
11150TIP3    H254942   2.448   1.039   5.014 -0.5295  0.4821  1.4193
11151TIP3   OH254943   6.463   0.028   0.414 -0.5490 -0.4685  0.1600
11151TIP3    H154944   6.497   0.036   0.504  0.0767  1.3089 -0.1974
11151TIP3    H254945   6.516  -0.042   0.375 -2.2287 -2.7907  1.7384
11152TIP3   OH254946   5.196   5.416  15.922 -0.1157 -0.6810  0.4466
11152TIP3    H154947   5.153   5.494  15.887  1.9899 -0.1172 -1.0812
11152TIP3    H254948   5.251   5.450  15.993 -0.1535 -0.9789  0.6170
11153TIP3   OH254949   2.120   2.243   2.952 -0.3382  0.2429  0.1407
11153TIP3    H154950   2.055   2.300   2.991  1.3522  0.6315  2.5820
11153TIP3    H254951   2.202   2.292   2.957  0.4218 -0.7633 -1.5766
11154TIP3   OH254952   0.043   5.611   6.366 -0.1504 -0.1394  0.4585
11154TIP3    H154953   0.001   5.544   6.313 -2.1135  1.6340 -0.3738
11154TIP3    H254954   0.054   5.686   6.307  4.5656 -0.4519  0.5076
11155TIP3   OH254955   6.450   0.674   1.426  0.2410  0.7697 -0.1300
11155TIP3    H154956   6.537   0.637   1.440 -0.0705  0.6967  1.8877
11155TIP3    H254957   6.451   0.703   1.334  1.6232 -1.1673 -0.7856
11156TIP3   OH254958   6.349   5.850   3.814 -0.0516  0.4582  0.3019
11156TIP3    H154959   6.266   5.822   3.776  0.6948 -1.7220  0.1385
11156TIP3    H254960   6.390   5.903   3.745 -1.1018  1.1968  0.2245
11157TIP3   OH254961   2.736   6.605  12.558 -0.0376  0.5583  0.5300
11157TIP3    H154962   2.830   6.592  12.542 -0.4249  0.4933 -2.1245
11157TIP3    H254963   2.701   6.516  12.568  0.0497  0.5387  0.6648
11158TIP3   OH254964   2.352   0.253   1.334 -0.0345 -0.2415 -0.0022
11158TIP3    H154965   2.298   0.176   1.352 -0.8090  0.1762 -0.4652
11158TIP3    H254966   2.288   0.323   1.315  0.6583  0.4438  0.1409
11159TIP3   OH254967   1.231   0.709  11.119  0.5998 -0.9621  0.8922
11159TIP3    H154968   1.169   0.673  11.055 -0.3939  0.4118  1.0393
11159TIP3    H254969   1.180   0.716  11.200  0.7301  0.7863  0.8599
11160TIP3   OH254970   4.289   0.601  13.181  0.0535 -0.1511 -0.9594
11160TIP3    H154971   4.359   0.575  13.241 -0.3295  0.9588  0.0033
11160TIP3    H254972   4.326   0.586  13.094  0.8820 -1.1245 -0.4683
11161TIP3   OH254973   3.937   0.625  11.126 -0.6438  0.4568 -0.3401
11161TIP3    H154974   4.025   0.587  11.117 -1.0873 -0.9072  0.6990
11161TIP3    H254975   3.938   0.701  11.068  1.4940  0.9631  0.2352
11162TIP3   OH254976   3.866   4.184  15.630  0.5328 -0.0122  1.1438
11162TIP3    H154977   3.891   4.131  15.554 -0.0312 -0.9872  1.6181
11162TIP3    H254978   3.920   4.263  15.623 -0.2786  0.4190 -0.8502
11163TIP3   OH254979   6.173   0.889   0.175  0.2243 -0.8528 -0.0976
11163TIP3    H154980   6.167   0.964   0.116  1.3395 -0.5552  0.1334
11163TIP3    H254981   6.195   0.815   0.119 -1.0985 -1.0733 -0.3566
11164TIP3   OH254982   3.632   0.706   4.159 -0.8143 -0.7226 -0.7268
11164TIP3    H154983   3.604   0.620   4.192  1.7607 -2.4210 -2.5290
11164TIP3    H254984   3.726   0.710   4.180 -0.6326  1.1620 -1.6781
11165TIP3   OH254985   1.210   4.386  14.416  0.1293  0.1417  0.2590
11165TIP3    H154986   1.164   4.408  14.497 -0.3161  0.0658  0.0308
11165TIP3    H254987   1.300   4.415  14.431 -0.1736  1.0252  0.4152
11166TIP3   OH254988   3.336   2.521   5.825  0.0100  0.3167  0.4109
11166TIP3    H154989   3.302   2.453   5.768 -0.1848  0.3796  0.4492
11166TIP3    H254990   3.262   2.544   5.882  0.3654 -0.1601  1.0869
11167TIP3   OH254991   4.938   3.331   3.366 -0.6666 -0.2969  0.2591
11167TIP3    H154992   4.932   3.246   3.322 -0.6970  0.5463 -1.4726
11167TIP3    H254993   4.867   3.382   3.328  0.3670  1.0134  0.0252
11168TIP3   OH254994   5.380   2.253  15.086 -0.3957  0.0192 -0.1792
11168TIP3    H154995   5.319   2.203  15.032  1.0189 -2.8523  0.7180
11168TIP3    H254996   5.410   2.191  15.153  2.8056  1.5295 -0.0296
11169TIP3   OH254997   3.004   2.727   0.376  0.4587  0.1474  0.1090
11169TIP3    H154998   3.062   2.708   0.302  0.3987 -0.6202  0.2414
11169TIP3    H254999   2.971   2.641   0.402 -1.0746  0.5901 -0.2326
11170TIP3   OH255000   2.904   3.836   1.591  0.4434 -0.2744  0.4165
11170TIP3    H155001   2.982   3.780   1.594  0.4661 -0.2054  1.5555
11170TIP3    H255002   2.873   3.837   1.681 -0.7678 -0.1329  0.0063
11171TIP3   OH255003   0.757   3.833  14.886  0.4324 -1.1195  0.1647
11171TIP3    H155004   0.801   3.780  14.819 -0.4170 -1.4860 -0.1112
11171TIP3    H255005   0.828   3.882  14.928  1.0922 -1.6314 -0.3341
11172TIP3   OH255006   3.621   1.916   5.288  0.0296  0.5256 -0.2237
11172TIP3    H155007   3.691   1.921   5.223 -0.3146 -0.3006 -0.6830
11172TIP3    H255008   3.643   1.984   5.352  0.9886  0.5992 -0.6026
11173TIP3   OH255009   4.516   3.197   3.424  0.8950 -0.2060  0.1840
11173TIP3    H155010   4.596   3.155   3.392  0.2102 -0.4648 -1.2752
11173TIP3    H255011   4.484   3.248   3.349 -1.3173 -1.6122  0.0860
11174TIP3   OH255012   4.286   1.893  16.563  0.2859 -0.2501 -0.1584
11174TIP3    H155013   4.223   1.873  16.632  0.4947  0.6784  0.3151
11174TIP3    H255014   4.255   1.976  16.525  0.1360 -0.7788 -1.2263
11175TIP3   OH255015   5.817   4.148   6.623 -0.7562 -0.3161 -0.0449
11175TIP3    H155016   5.868   4.222   6.592 -0.9486 -0.5953 -1.0384
11175TIP3    H255017   5.759   4.185   6.690 -0.3507  0.2918 -0.0300
11176TIP3   OH255018   3.984   6.690  13.211  0.6661  0.1823 -0.5032
11176TIP3    H155019   4.052   6.728  13.267 -0.0506  1.8104 -0.6863
11176TIP3    H255020   3.922   6.761  13.197 -1.3584 -1.3884  0.0376
11177TIP3   OH255021   6.802   0.710  12.728 -0.0145 -0.3180  0.0516
11177TIP3    H155022   6.772   0.761  12.652 -0.2145  0.8142  0.8744
11177TIP3    H255023   6.799   0.619  12.697 -1.4880 -0.0098 -0.8503
11178TIP3   OH255024   1.281   5.396   2.594  0.0899  0.2564 -0.3449
11178TIP3    H155025   1.225   5.370   2.667  0.3530  1.5205  0.3260
11178TIP3    H255026   1.368   5.367   2.619 -0.2276 -1.9982 -1.5298
11179TIP3   OH255027   5.910   3.903  15.074  0.4887  0.4489  0.1103
11179TIP3    H155028   5.950   3.822  15.104  1.3191  0.0552 -1.9294
11179TIP3    H255029   5.947   3.918  14.987 -1.8598  1.4693 -0.7904
11180TIP3   OH255030   0.573   3.532  15.409  0.1910  0.6925 -0.1292
11180TIP3    H155031   0.627   3.526  15.330 -1.0646  0.2137 -0.9950
11180TIP3    H255032   0.589   3.620  15.442  1.0609  0.7529 -0.6771
11181TIP3   OH255033   0.265   3.261  14.664 -0.3764 -0.6121 -0.0966
11181TIP3    H155034   0.228   3.325  14.725 -1.4193 -0.0915 -1.2198
11181TIP3    H255035   0.275   3.181  14.715  0.0525  0.1756  1.0880
11182TIP3   OH255036   2.409   6.688  12.573 -0.1329 -0.1719 -0.0910
11182TIP3    H155037   2.425   6.782  12.582 -3.6907  0.4834  1.1781
11182TIP3    H255038   2.379   6.677  12.482  0.2283 -0.0713 -0.2220
11183TIP3   OH255039   5.471   4.108   0.046 -0.2142 -0.0208  0.5541
11183TIP3    H155040   5.485   4.197   0.014 -2.1368 -0.9311 -3.4297
11183TIP3    H255041   5.378   4.104   0.065 -0.3718 -1.4412 -0.3894
11184TIP3   OH255042   4.717   5.674  11.151 -0.4860  0.0452 -0.3391
11184TIP3    H155043   4.631   5.652  11.186 -1.2217  0.7063 -1.6659
11184TIP3    H255044   4.706   5.671  11.056  0.9876  0.0609 -0.5392
11185TIP3   OH255045   1.979   6.404   2.895 -0.3400 -0.1504 -0.1124
11185TIP3    H155046   1.895   6.377   2.931  0.2463 -1.9721 -0.0338
11185TIP3    H255047   2.042   6.387   2.965  0.4060 -1.0526 -0.9722
11186TIP3   OH255048   5.193   5.267  15.105 -0.2933 -0.7683  0.9054
11186TIP3    H155049   5.197   5.306  15.192  0.5951  0.9132  0.1534
11186TIP3    H255050   5.279   5.282  15.067 -1.5662  1.4785 -1.4345
11187TIP3   OH255051   3.981   3.368  11.417  0.1184 -0.7018  0.8043
11187TIP3    H155052   3.912   3.336  11.475 -2.3614  1.5401 -0.6488
11187TIP3    H255053   3.978   3.463  11.427  2.7193 -0.5007  0.2711
11188TIP3   OH255054   3.638   2.015  16.256  0.1399 -0.0720  0.2306
11188TIP3    H155055   3.593   2.099  16.251  1.2380  0.5945  0.9685
11188TIP3    H255056   3.615   1.980  16.342 -0.9906 -0.9425 -0.4105
11189TIP3   OH255057   2.463   4.376  15.563 -0.0906  0.3053 -0.0257
11189TIP3    H155058   2.508   4.344  15.641 -0.6028 -0.9918 -0.2324
11189TIP3    H255059   2.512   4.338  15.489 -0.6910  0.0059 -0.2793
11190TIP3   OH255060   1.668   0.574  14.888 -0.1025 -0.3072 -0.0062
11190TIP3    H155061   1.676   0.623  14.806  0.3141 -0.5057 -0.0838
11190TIP3    H255062   1.577   0.588  14.915 -1.3594 -3.1168 -2.3056
11191TIP3   OH255063   1.872   6.107   2.082 -0.1994  0.0355  0.3898
11191TIP3    H155064   1.921   6.062   2.150  0.8141  3.4027  2.1345
11191TIP3    H255065   1.793   6.138   2.126 -0.0808  1.2963 -0.2464
11192TIP3   OH255066   4.805   5.392   1.431  0.0725 -0.3232 -0.1321
11192TIP3    H155067   4.718   5.397   1.392  0.4197 -0.7162 -0.9887
11192TIP3    H255068   4.790   5.353   1.518 -0.6780  0.3156  0.0381
11193TIP3   OH255069   5.720   2.820  11.536  0.2385 -0.3202  0.4353
11193TIP3    H155070   5.770   2.837  11.615  1.0588  0.5157 -0.2352
11193TIP3    H255071   5.629   2.841  11.560  0.2596 -1.3833  1.5223
11194TIP3   OH255072   2.383   5.346   1.091 -0.1502  0.0080 -0.3097
11194TIP3    H155073   2.397   5.381   1.003 -1.0864  2.4662  0.4147
11194TIP3    H255074   2.291   5.366   1.111 -0.1509 -1.0994  0.9842
11195TIP3   OH255075   2.020   3.000  15.875  0.2520 -0.1011  0.1312
11195TIP3    H155076   2.010   3.066  15.943 -0.5133 -0.7185  0.6298
11195TIP3    H255077   1.941   3.006  15.822  1.1100  0.7970 -1.1116
11196TIP3   OH255078   3.690   0.245  15.509  0.1411  0.0781  0.0082
11196TIP3    H155079   3.604   0.273  15.538  0.7692  1.2996  0.8062
11196TIP3    H255080   3.730   0.325  15.474  1.3181 -0.2332  0.5884
11197TIP3   OH255081   5.454   4.927  16.099  0.1342  0.0357 -0.0498
11197TIP3    H155082   5.438   4.845  16.146  1.5714 -0.4831 -0.3864
11197TIP3    H255083   5.495   4.984  16.164 -0.7815  0.4742  0.1570
11198TIP3   OH255084   4.283   5.721  14.677  0.8199 -0.5926 -0.1229
11198TIP3    H155085   4.373   5.744  14.656 -0.3414  2.2603 -2.6930
11198TIP3    H255086   4.241   5.804  14.701 -1.5641 -1.4441 -0.9781
11199TIP3   OH255087   1.555   0.180   0.924 -0.3030  0.1880  0.1652
11199TIP3    H155088   1.587   0.107   0.871  0.2769 -0.6512  1.6216
11199TIP3    H255089   1.474   0.148   0.964 -0.8638  0.8965 -0.3728
11200TIP3   OH255090   4.202   2.551   0.175  0.3851 -0.1714  0.3268
11200TIP3    H155091   4.122   2.498   0.177 -0.1534  0.6347  1.2525
11200TIP3    H255092   4.239   2.541   0.263 -0.1020  1.5037  0.7582
11201TIP3   OH255093   4.038   5.541  11.209  0.3154  0.3685 -0.0358
11201TIP3    H155094   4.032   5.542  11.114  0.6995 -1.1603 -0.0901
11201TIP3    H255095   3.982   5.614  11.237 -0.5107  0.2782 -1.3788
11202TIP3   OH255096   3.755   1.472   0.808 -0.4673 -0.0273  0.4241
11202TIP3    H155097   3.690   1.404   0.825 -0.4054  0.1281  1.3062
11202TIP3    H255098   3.706   1.554   0.813 -0.1262  0.1214  1.5849
11203TIP3   OH255099   3.060   0.609   0.970  0.4987 -0.0393 -0.1530
11203TIP3    H155100   3.100   0.671   0.909 -0.1491  0.4445 -0.0898
11203TIP3    H255101   3.080   0.523   0.933 -1.3138  0.2565 -1.9772
11204TIP3   OH255102   0.630   0.054  13.057  0.4943 -0.1611 -1.4394
11204TIP3    H155103   0.583   0.063  12.974  0.5868  0.5868 -1.4199
11204TIP3    H255104   0.576   0.102  13.120 -1.2223 -3.2411 -0.3568
11205TIP3   OH255105   2.468   1.885   4.425 -0.0222  1.1581 -0.8292
11205TIP3    H155106   2.550   1.929   4.402  1.4666 -0.6617  0.5918
11205TIP3    H255107   2.453   1.824   4.353  0.6044  0.5972 -0.4965
11206TIP3   OH255108   2.588   0.837   5.589 -0.5795  0.1846 -0.1031
11206TIP3    H155109   2.544   0.841   5.504  0.8727 -0.7043 -0.9429
11206TIP3    H255110   2.657   0.772   5.577 -0.1708  0.2334  1.6924
11207TIP3   OH255111   5.177   1.543   4.766 -0.5735  0.0936 -0.2675
11207TIP3    H155112   5.159   1.586   4.682 -1.5847 -0.0208 -0.1203
11207TIP3    H255113   5.205   1.455   4.742  0.2267  0.4143 -0.5220
11208TIP3   OH255114   2.587   2.480  15.352  0.5040 -0.0234  0.4063
11208TIP3    H155115   2.509   2.438  15.316  1.5303 -1.8962  0.2471
11208TIP3    H255116   2.556   2.526  15.430 -0.7284 -0.8569  0.4306
11209TIP3   OH255117   3.253   3.173   2.407 -0.8531  0.5205 -0.3406
11209TIP3    H155118   3.213   3.254   2.375  0.2060  0.6984 -1.3113
11209TIP3    H255119   3.347   3.187   2.395 -0.4196  0.3151  2.3185
11210TIP3   OH255120   3.802   3.568  16.906 -0.3415 -0.4557 -0.0724
11210TIP3    H155121   3.812   3.624  16.829 -1.6843  0.5790  0.4493
11210TIP3    H255122   3.861   3.606  16.971  0.4182 -1.0281 -0.4080
11211TIP3   OH255123   0.462   1.925  13.325  0.0605  0.4197 -0.0949
11211TIP3    H155124   0.481   2.010  13.364  1.6754  1.5353 -2.9917
11211TIP3    H255125   0.545   1.878  13.327 -0.5897 -0.7455  0.6048
11212TIP3   OH255126   6.193   6.599   2.254 -0.1288 -0.1268  0.2039
11212TIP3    H155127   6.283   6.569   2.243  0.3767  1.7581 -1.2099
11212TIP3    H255128   6.200   6.682   2.301 -1.0908  0.2137 -0.2169
11213TIP3   OH255129   0.765   3.496  14.566 -0.7009  0.1584  0.0639
11213TIP3    H155130   0.701   3.476  14.498  0.1560 -1.0110 -0.4300
11213TIP3    H255131   0.767   3.591  14.570 -1.7326  0.2288 -0.5961
11214TIP3   OH255132   5.660   2.380   2.399 -0.1207  0.1570  0.0431
11214TIP3    H155133   5.669   2.285   2.397 -1.0081 -0.0089  1.9432
11214TIP3    H255134   5.727   2.409   2.461 -2.1466  0.3608  2.2891
11215TIP3   OH255135   2.327   5.614   3.797 -0.1759 -0.6529 -0.5355
11215TIP3    H155136   2.270   5.668   3.743  0.7881  0.0751 -0.8558
11215TIP3    H255137   2.352   5.541   3.740  0.0031 -0.4402 -0.7348
11216TIP3   OH255138   4.956   1.720   5.040  0.4889 -0.4460  0.3870
11216TIP3    H155139   5.046   1.690   5.052 -0.5551 -3.6023  1.3710
11216TIP3    H255140   4.958   1.769   4.957  2.5913 -2.9710 -1.2244
11217TIP3   OH255141   1.896   2.667  13.470 -0.0994  0.1207 -0.2329
11217TIP3    H155142   1.968   2.677  13.407 -0.1017 -0.4241 -0.3327
11217TIP3    H255143   1.845   2.593  13.435 -1.0708  0.9047 -0.5025
11218TIP3   OH255144   3.054   5.678   3.771 -0.4397  0.3166 -0.0178
11218TIP3    H155145   3.054   5.720   3.857 -2.2618  0.7891 -0.2220
11218TIP3    H255146   2.972   5.705   3.731 -0.2195 -0.9667 -1.3999
11219TIP3   OH255147   3.268   6.494  13.847  0.0168 -0.1008 -0.0636
11219TIP3    H155148   3.196   6.500  13.911  0.4246 -0.4535  0.4389
11219TIP3    H255149   3.252   6.565  13.786 -1.7181 -1.1921 -0.9487
11220TIP3   OH255150   5.118   2.767   2.153 -0.1482  0.3978 -0.5365
11220TIP3    H155151   5.086   2.726   2.073 -0.0716 -2.7039  0.8749
11220TIP3    H255152   5.041   2.772   2.210  0.4965 -1.0964  0.5421
11221TIP3   OH255153   2.728   3.865   4.004  0.2156  0.0666 -0.4930
11221TIP3    H155154   2.677   3.827   3.932 -1.2704 -1.2677  1.1739
11221TIP3    H255155   2.804   3.905   3.961 -2.0820  2.0629 -3.1252
11222TIP3   OH255156   5.540   0.302  11.690  0.5361 -0.1424  0.0053
11222TIP3    H155157   5.517   0.283  11.781 -0.5161  0.2491 -0.1687
11222TIP3    H255158   5.477   0.369  11.663  0.9213 -0.1642 -0.9705
11223TIP3   OH255159   3.298   4.855   0.476 -0.0431 -0.1965  0.8182
11223TIP3    H155160   3.278   4.773   0.431  1.3953  1.3832 -3.2116
11223TIP3    H255161   3.226   4.914   0.452 -0.2472  0.1978  2.3195
11224TIP3   OH255162   0.441   6.780  16.341 -0.0209 -0.3337 -0.0155
11224TIP3    H155163   0.488   6.753  16.263  1.0632  0.5773  0.2970
11224TIP3    H255164   0.370   6.716  16.350 -0.5017 -0.1459 -2.0368
11225TIP3   OH255165   3.455   1.716  17.203 -0.2514 -0.2404 -0.7747
11225TIP3    H155166   3.501   1.799  17.190 -2.2116  0.9278 -0.7185
11225TIP3    H255167   3.496   1.678  17.280  0.9851  0.4354 -1.0610
11226TIP3   OH255168   2.162   5.175   6.599  0.3228  0.0153  0.1660
11226TIP3    H155169   2.201   5.108   6.543  0.7748 -0.1972  0.7256
11226TIP3    H255170   2.193   5.258   6.563  1.2023 -0.1449  0.5249
11227TIP3   OH255171   1.024   6.830  16.546 -0.2196  0.4440 -0.1446
11227TIP3    H155172   0.976   6.896  16.497 -0.4668  1.2230  1.1019
11227TIP3    H255173   0.998   6.844  16.638 -0.8078 -1.8126  0.1025
11228TIP3   OH255174   1.994   4.768   2.528 -0.2542 -0.2977  0.1393
11228TIP3    H155175   1.916   4.821   2.516  0.7239  1.3244  0.5700
11228TIP3    H255176   1.980   4.690   2.474 -1.7474  0.3925 -0.5054
11229TIP3   OH255177   5.630   0.714  14.422  0.1867 -0.8781 -0.4975
11229TIP3    H155178   5.556   0.693  14.479  0.1566 -0.6661 -0.4566
11229TIP3    H255179   5.637   0.809  14.426 -1.0849 -0.6376 -2.4188
11230TIP3   OH255180   2.010   5.134  17.027  0.3940 -0.3682  0.1361
11230TIP3    H155181   2.079   5.139  17.092  0.5224  0.1796 -0.0331
11230TIP3    H255182   1.943   5.196  17.058  0.6496  0.2261 -0.4615
11231TIP3   OH255183   0.412   5.931  14.587  0.7037  0.0153 -0.4185
11231TIP3    H155184   0.484   5.942  14.649  1.8237 -1.8680 -1.2924
11231TIP3    H255185   0.356   5.865  14.626  0.1913  0.4559 -0.3948
11232TIP3   OH255186   2.916   1.620   2.294 -0.0695  0.3015  0.4071
11232TIP3    H155187   2.834   1.668   2.303 -0.6010 -0.0574 -1.8513
11232TIP3    H255188   2.976   1.682   2.251  0.0623 -0.1819 -0.1289
11233TIP3   OH255189   5.077   4.191  13.564  0.2234  0.1021  0.0776
11233TIP3    H155190   5.097   4.170  13.472  0.7474 -1.0871  0.4434
11233TIP3    H255191   5.120   4.121  13.614 -1.3829 -0.1735  1.1494
11234TIP3   OH255192   2.755   3.789   1.390 -0.2500 -0.2837 -0.1373
11234TIP3    H155193   2.785   3.853   1.325  2.5285  0.3355  1.5891
11234TIP3    H255194   2.813   3.801   1.465 -0.5754 -3.8086  0.8755
11235TIP3   OH255195   1.320   0.106   4.580 -0.2007  0.3668 -0.1278
11235TIP3    H155196   1.236   0.142   4.608 -1.6452 -1.9042 -1.2282
11235TIP3    H255197   1.338   0.034   4.641 -0.5323 -0.9469 -1.4945
11236TIP3   OH255198   0.137   6.424   5.549 -0.0096 -0.6897  0.3880
11236TIP3    H155199   0.105   6.512   5.568  0.8969 -0.7234  2.3748
11236TIP3    H255200   0.231   6.428   5.570  0.8565 -1.2336 -2.8287
11237TIP3   OH255201   1.748   1.656   4.161 -0.0883 -0.6153  0.0558
11237TIP3    H155202   1.729   1.587   4.225  1.3327 -0.9100  0.1875
11237TIP3    H255203   1.768   1.610   4.080 -0.7606 -0.2802 -0.3115
11238TIP3   OH255204   2.426   5.490   5.578  0.0355  0.4317  0.7434
11238TIP3    H155205   2.419   5.469   5.671 -0.0538  0.0511  0.6521
11238TIP3    H255206   2.432   5.405   5.535  1.0810  0.6255  0.4801
11239TIP3   OH255207   3.206   1.967   5.494  0.1424 -0.1439 -0.2264
11239TIP3    H155208   3.219   2.023   5.418  2.7687 -0.2069  0.1051
11239TIP3    H255209   3.204   1.878   5.459 -1.2057 -0.0602 -0.4386
11240TIP3   OH255210   5.665   2.592  16.770  0.5347  0.1696  0.0084
11240TIP3    H155211   5.607   2.655  16.727 -0.6854 -0.9855 -0.1054
11240TIP3    H255212   5.678   2.628  16.858  0.1755  0.7740 -0.1728
11241TIP3   OH255213   4.594   3.785  13.795 -0.0481  0.1462  0.1446
11241TIP3    H155214   4.661   3.735  13.749 -1.2082 -0.9889 -0.3635
11241TIP3    H255215   4.605   3.760  13.887 -1.6875 -2.4666 -0.2698
11242TIP3   OH255216   2.620   1.139  15.002 -0.1609  0.5501 -0.1291
11242TIP3    H155217   2.551   1.118  15.065  1.9349  1.0072  2.5143
11242TIP3    H255218   2.666   1.056  14.987  0.9894  0.9179  1.1530
11243TIP3   OH255219   1.552   0.526   0.288 -0.4460 -0.9352  0.0075
11243TIP3    H155220   1.620   0.591   0.268 -0.0795 -1.7091 -1.3798
11243TIP3    H255221   1.500   0.567   0.357  1.1327 -0.1101  0.7862
11244TIP3   OH255222   4.802   3.231  16.760  0.0939  0.0010 -0.1001
11244TIP3    H155223   4.819   3.323  16.740  1.5564 -0.7298 -2.6687
11244TIP3    H255224   4.738   3.204  16.694 -1.4414 -0.5243  1.5270
11245TIP3   OH255225   3.176   1.847  12.057 -0.1566 -0.4339 -0.2126
11245TIP3    H155226   3.166   1.891  12.141  2.7556 -0.4448  0.2326
11245TIP3    H255227   3.208   1.915  11.998  0.5553 -1.0594 -0.5595
11246TIP3   OH255228   1.707   5.138   1.718  0.6194  0.1031  0.2391
11246TIP3    H155229   1.668   5.163   1.634  1.6591 -0.1784 -0.3440
11246TIP3    H255230   1.770   5.208   1.737  0.9864 -0.2581  0.3668
11247TIP3   OH255231   3.337   6.154  16.566 -0.0510  0.2678  1.2151
11247TIP3    H155232   3.400   6.087  16.591 -0.0724 -0.0805  0.3499
11247TIP3    H255233   3.301   6.123  16.483 -2.7453 -0.5419  2.5591
11248TIP3   OH255234   3.300   2.465   2.767 -0.1453  0.4312  0.4812
11248TIP3    H155235   3.240   2.539   2.755  0.3626  1.0405  1.5043
11248TIP3    H255236   3.386   2.506   2.772  0.2461 -0.3335  0.1155
11249TIP3   OH255237   6.108   2.350   5.613 -0.1427 -0.2275 -0.2139
11249TIP3    H155238   6.077   2.401   5.688  1.2411  0.2418  0.0689
11249TIP3    H255239   6.079   2.400   5.536 -0.1419  0.1520  0.0316
11250TIP3   OH255240   5.261   2.427   4.501 -0.0946  0.3606 -0.0445
11250TIP3    H155241   5.305   2.468   4.426  0.0207 -0.4716 -0.4490
11250TIP3    H255242   5.172   2.463   4.499 -0.3865 -0.3797 -1.1821
11251TIP3   OH255243   1.278   4.753  11.809 -0.2589  0.7567 -0.4329
11251TIP3    H155244   1.284   4.836  11.855 -0.3513  0.8361 -0.5638
11251TIP3    H255245   1.313   4.689  11.871 -0.5429  0.8363 -0.1813
11252TIP3   OH255246   3.087   2.837   4.610  0.1678  0.9460 -0.0418
11252TIP3    H155247   3.093   2.931   4.591 -2.0588  1.1596  0.0257
11252TIP3    H255248   3.120   2.795   4.530  0.5972  1.7884 -0.3248
11253TIP3   OH255249   3.437   4.252  16.308  0.0159 -0.3548 -0.0795
11253TIP3    H155250   3.414   4.260  16.400 -0.6160  1.8476 -0.3832
11253TIP3    H255251   3.364   4.292  16.261  1.3508  0.6472 -1.4185
11254TIP3   OH255252   1.598   3.689   0.339  0.3124  0.2827  0.3267
11254TIP3    H155253   1.593   3.738   0.256 -0.3070 -1.3449 -0.6382
11254TIP3    H255254   1.531   3.621   0.331  0.4480 -0.0959  2.0641
11255TIP3   OH255255   3.203   2.060   3.327 -0.0302 -0.4166  0.6225
11255TIP3    H155256   3.288   2.031   3.361  0.2193  0.5088  0.8109
11255TIP3    H255257   3.189   2.005   3.249  1.1318 -0.0360  0.1117
11256TIP3   OH255258   2.581   1.145   5.569  0.0025 -0.0982 -0.2947
11256TIP3    H155259   2.579   1.187   5.655  1.3863  3.1688 -1.7229
11256TIP3    H255260   2.601   1.053   5.588  0.8629  0.6300  2.8219
11257TIP3   OH255261   3.223   2.803  13.345  0.0854 -0.2036  0.4127
11257TIP3    H155262   3.262   2.852  13.418 -0.5254  0.0139  0.5993
11257TIP3    H255263   3.251   2.851  13.267  1.9528 -1.2532  0.3703
11258TIP3   OH255264   5.210   1.901   2.642 -0.0620  0.3800  0.2037
11258TIP3    H155265   5.295   1.933   2.671 -0.8402  0.9558  1.9587
11258TIP3    H255266   5.150   1.921   2.714 -1.5967 -0.4579 -0.7741
11259TIP3   OH255267   5.267   2.728   2.678 -0.0192  0.2742  0.3981
11259TIP3    H155268   5.271   2.715   2.772  0.2769  0.1426  0.3673
11259TIP3    H255269   5.342   2.784   2.658 -0.3000  0.6203  0.2931
11260TIP3   OH255270   1.260   2.094   0.743  0.0689 -0.2711  0.3251
11260TIP3    H155271   1.229   2.138   0.822  1.8182 -0.1620  1.0123
11260TIP3    H255272   1.225   2.146   0.670 -1.5914 -0.3945  1.0060
11261TIP3   OH255273   3.590   4.019  12.894  0.0584 -0.0791 -0.0568
11261TIP3    H155274   3.644   4.039  12.817 -1.1873  0.1689 -0.9058
11261TIP3    H255275   3.570   3.926  12.885 -0.7128  0.1189 -0.4618
11262TIP3   OH255276   6.379   3.741   0.651 -0.7254  0.2399 -0.2141
11262TIP3    H155277   6.329   3.729   0.732  2.2021 -0.9042  1.5811
11262TIP3    H255278   6.350   3.826   0.618 -3.4463 -0.1401  0.8995
11263TIP3   OH255279   0.751   1.140  14.062  0.0201 -0.1302 -0.2764
11263TIP3    H155280   0.659   1.117  14.061 -0.1780  0.3279  1.9952
11263TIP3    H255281   0.753   1.233  14.042  0.0795 -0.3059 -1.1204
11264TIP3   OH255282   4.453   5.885  15.721 -0.8072 -0.4125  0.0481
11264TIP3    H155283   4.389   5.832  15.673 -2.1225  0.3827  0.8668
11264TIP3    H255284   4.402   5.960  15.754  0.4530  0.0041  1.1238
11265TIP3   OH255285   1.435   5.781   5.388 -0.3086  0.7056 -0.0996
11265TIP3    H155286   1.448   5.871   5.358 -1.0702  0.0872 -2.5413
11265TIP3    H255287   1.386   5.739   5.316 -2.2191 -0.9978  2.0452
11266TIP3   OH255288   5.379   4.874  11.378  0.7273  0.2311  0.1607
11266TIP3    H155289   5.465   4.906  11.405 -0.3090  1.2756  2.4902
11266TIP3    H255290   5.381   4.781  11.400  1.4622  0.0956 -0.4168
11267TIP3   OH255291   2.642   4.592  16.020  0.7460 -0.2248  0.2260
11267TIP3    H155292   2.727   4.637  16.017  1.6063 -1.8058 -1.5556
11267TIP3    H255293   2.578   4.661  16.005  1.8857  0.6666 -0.7864
11268TIP3   OH255294   6.410   0.752   3.799  0.6164 -0.0258 -0.2272
11268TIP3    H155295   6.411   0.785   3.709 -2.2640 -2.4748 -1.3361
11268TIP3    H255296   6.350   0.810   3.846 -0.9384 -0.9610 -0.9868
11269TIP3   OH255297   3.257   1.684  13.963 -0.1457 -0.0719  0.6981
11269TIP3    H155298   3.314   1.691  13.886 -2.0225 -0.9355 -0.8572
11269TIP3    H255299   3.239   1.775  13.987 -1.1470  0.2915 -1.2116
11270TIP3   OH255300   3.606   4.898   4.351  0.1634  0.6032  0.3529
11270TIP3    H155301   3.541   4.887   4.281 -1.8905  4.0131  1.4664
11270TIP3    H255302   3.594   4.821   4.407 -3.4142  1.2809  0.7606
11271TIP3   OH255303   6.494   1.587   1.343 -0.3847  0.2045 -0.2316
11271TIP3    H155304   6.522   1.500   1.373 -1.4114  0.7917  2.7744
11271TIP3    H255305   6.426   1.569   1.278  1.5182 -1.1721 -1.9636
11272TIP3   OH255306   2.578   3.058  17.000 -0.1459  0.0716 -0.7401
11272TIP3    H155307   2.657   3.039  17.052 -0.6224  1.3808  0.5333
11272TIP3    H255308   2.547   3.142  17.034 -1.7252 -0.0953 -1.6909
11273TIP3   OH255309   3.865   5.509  15.952 -0.0872  0.2959 -0.1610
11273TIP3    H155310   3.905   5.545  16.031 -2.0497 -0.8225  1.4346
11273TIP3    H255311   3.850   5.417  15.972 -1.7190  0.2428 -1.3756
11274TIP3   OH255312   1.170   5.996   3.036 -0.0667 -0.5562 -0.1995
11274TIP3    H155313   1.172   5.916   3.089 -0.6996 -2.9166 -3.4189
11274TIP3    H255314   1.259   6.005   3.002  0.3258  0.9214  1.0760
11275TIP3   OH255315   1.932   2.606  14.041 -0.8979 -0.6010  0.3872
11275TIP3    H155316   1.875   2.676  14.072 -1.2620 -1.1388  0.9776
11275TIP3    H255317   2.017   2.649  14.026 -1.0389 -0.0868  1.0019
11276TIP3   OH255318   0.992   0.802  13.597 -0.3543  0.3468  1.1778
11276TIP3    H155319   0.966   0.735  13.659 -0.9436 -0.3628  0.2021
11276TIP3    H255320   1.021   0.875  13.651 -1.8914  0.1778  2.3172
11277TIP3   OH255321   5.632   5.148   1.411  0.0555  0.6641  0.3454
11277TIP3    H155322   5.676   5.159   1.326  0.0071  1.7961  0.4501
11277TIP3    H255323   5.603   5.236   1.435  0.2578  0.4030  1.6469
11278TIP3   OH255324   4.926   4.315  16.761 -0.2801 -0.6252  0.1493
11278TIP3    H155325   4.985   4.362  16.819 -1.3078 -1.7033  2.1477
11278TIP3    H255326   4.916   4.372  16.685  1.4842  0.6057  0.8002
11279TIP3   OH255327   6.780   2.149   2.145  0.2523 -0.1215 -0.4812
11279TIP3    H155328   6.858   2.156   2.090  0.4835 -1.8648 -0.4073
11279TIP3    H255329   6.806   2.095   2.219 -1.0390 -0.7776 -0.4764
11280TIP3   OH255330   1.612   4.993  13.719  0.2913  0.5791  0.1198
11280TIP3    H155331   1.600   4.913  13.771 -3.8366  0.7260 -0.2979
11280TIP3    H255332   1.597   5.064  13.781 -0.3865  0.8755 -0.3766
11281TIP3   OH255333   1.887   4.918  11.524  0.5381  0.0603  0.3760
11281TIP3    H155334   1.864   4.841  11.576 -0.2452  0.2586  0.3325
11281TIP3    H255335   1.817   4.980  11.540  1.4630  1.0015  0.8682
11282TIP3   OH255336   4.318   1.121  17.021  0.2735 -0.3548 -0.0922
11282TIP3    H155337   4.379   1.071  16.966 -0.5609 -1.2881 -0.2106
11282TIP3    H255338   4.264   1.170  16.959  1.9292  1.7999  0.0547
11283TIP3   OH255339   4.213   3.375   3.502 -0.0256  0.0016  0.3564
11283TIP3    H155340   4.279   3.440   3.527  0.3681 -0.6629  1.0702
11283TIP3    H255341   4.139   3.428   3.470 -0.0274  0.8464  1.6877
11284TIP3   OH255342   6.560   0.857  17.082 -0.2970  0.3118 -0.2639
11284TIP3    H155343   6.543   0.951  17.069  2.5871  1.0672  0.5867
11284TIP3    H255344   6.612   0.854  17.163  0.6628 -1.8839 -0.8883
11285TIP3   OH255345   1.916   1.180   3.644 -0.4849 -0.3381  0.4363
11285TIP3    H155346   1.828   1.164   3.678 -0.8780  0.7041 -0.0444
11285TIP3    H255347   1.909   1.263   3.598  1.4594  1.3645  2.9475
11286TIP3   OH255348   1.016   5.175   5.354  0.6528 -0.3401 -0.3318
11286TIP3    H155349   1.041   5.148   5.266 -0.2933 -2.5223  0.0045
11286TIP3    H255350   1.034   5.269   5.357  0.1976 -0.1079 -3.0188
11287TIP3   OH255351   1.365   5.235   3.383 -0.2806 -0.3663 -0.1125
11287TIP3    H155352   1.456   5.217   3.362  0.1396  1.8098 -0.4411
11287TIP3    H255353   1.367   5.316   3.434 -1.9913 -0.6377  0.4852
11288TIP3   OH255354   1.278   1.913  12.313 -0.3487 -0.2910 -0.1319
11288TIP3    H155355   1.228   1.938  12.235  0.5831 -0.0077 -0.6593
11288TIP3    H255356   1.363   1.884  12.279  0.4477  0.8134  0.8189
11289TIP3   OH255357   3.494   4.541  10.940 -0.4162  0.1037  0.0459
11289TIP3    H155358   3.474   4.632  10.919  0.6284 -0.0900 -2.0734
11289TIP3    H255359   3.434   4.490  10.885 -0.7563 -0.5128  0.9584
11290TIP3   OH255360   0.030   4.629   3.431  0.5661 -0.0582  0.5648
11290TIP3    H155361   0.019   4.562   3.500 -0.3185 -0.7801 -0.2465
11290TIP3    H255362  -0.019   4.705   3.464 -0.9158 -0.8220  0.2076
11291TIP3   OH255363   4.466   1.246  14.597 -0.3409  0.2879 -0.7453
11291TIP3    H155364   4.388   1.220  14.548  0.6394  0.5913 -2.5791
11291TIP3    H255365   4.523   1.169  14.594 -0.0937  0.4542 -0.4270
11292TIP3   OH255366   6.354   4.345  15.799  0.4261 -0.3371  0.1174
11292TIP3    H155367   6.339   4.407  15.871  0.4917 -0.0929 -0.0789
11292TIP3    H255368   6.269   4.305  15.783  0.2995 -0.0173 -0.0121
11293TIP3   OH255369   4.514   1.051  16.839  0.3004  0.0154  0.5296
11293TIP3    H155370   4.565   1.044  16.759  0.9766 -2.9242  1.0793
11293TIP3    H255371   4.564   1.112  16.894  1.3162 -0.0630 -0.2676
11294TIP3   OH255372   3.100   1.980   0.794  0.2258  0.1560 -0.5083
11294TIP3    H155373   3.092   1.908   0.856 -0.5622  1.1538  0.5959
11294TIP3    H255374   3.052   1.950   0.717  0.5617 -0.7954 -0.3625
11295TIP3   OH255375   1.836   0.507   0.480  0.2985  0.1328 -0.2391
11295TIP3    H155376   1.777   0.582   0.483  0.1774  0.0379 -0.2561
11295TIP3    H255377   1.886   0.512   0.562 -0.0082 -0.0102 -0.0410
11296TIP3   OH255378   4.651   6.027   6.036  0.3525 -0.3245  0.9803
11296TIP3    H155379   4.689   6.057   6.119 -0.9268 -2.0589  2.2528
11296TIP3    H255380   4.568   6.073   6.029  0.4282 -0.2301  0.6703
11297TIP3   OH255381   6.439   5.600  14.235  0.1007  0.3128  0.0049
11297TIP3    H155382   6.466   5.691  14.231  0.8517  0.1170  0.3490
11297TIP3    H255383   6.521   5.551  14.230 -0.0674 -0.2926  2.1891
11298TIP3   OH255384   2.819   5.918  11.507  0.1466 -0.1721 -0.4280
11298TIP3    H155385   2.763   5.890  11.579 -1.9305 -2.3681 -2.6630
11298TIP3    H255386   2.774   5.995  11.471  1.2957  1.0542  0.6505
11299TIP3   OH255387   3.852   4.893   2.169  0.1379 -0.0553 -0.3455
11299TIP3    H155388   3.775   4.938   2.204 -0.4408 -1.6018  0.4266
11299TIP3    H255389   3.926   4.935   2.214 -0.3849  0.1774  0.3225
11300TIP3   OH255390   3.643   2.823  12.110  0.3995 -0.1775 -0.3374
11300TIP3    H155391   3.641   2.827  12.014  0.5746 -0.1466 -0.3417
11300TIP3    H255392   3.607   2.907  12.139  1.3450  0.2611 -0.3886
11301TIP3   OH255393   4.380   0.366   6.628 -0.2545 -0.8589  0.1216
11301TIP3    H155394   4.456   0.314   6.652 -0.8389 -0.4314  3.4250
11301TIP3    H255395   4.306   0.306   6.636 -0.5559 -0.4895  0.1800
11302TIP3   OH255396   3.780   0.173   1.043 -0.1966 -0.0634 -0.2573
11302TIP3    H155397   3.838   0.224   1.098 -1.5419  1.2933 -0.0398
11302TIP3    H255398   3.826   0.167   0.959  1.7223 -1.8763  0.8334
11303TIP3   OH255399   6.005   4.533  12.816  0.1129  0.5955 -0.1913
11303TIP3    H155400   5.993   4.496  12.904  3.1641  1.9927  0.9759
11303TIP3    H255401   6.022   4.458  12.760 -2.3476 -0.3712  0.2133
11304TIP3   OH255402   2.877   3.309   0.139  0.9589  0.4208  0.4575
11304TIP3    H155403   2.841   3.237   0.191  2.3307  0.9074  2.1569
11304TIP3    H255404   2.831   3.387   0.170  1.8179  0.7224  0.9969
11305TIP3   OH255405   2.126   5.570   5.790  0.8799 -0.0765 -0.2550
11305TIP3    H155406   2.182   5.511   5.840  0.9560 -0.9115 -1.2903
11305TIP3    H255407   2.187   5.627   5.744  0.9594 -1.3751 -1.8562
11306TIP3   OH255408   3.918   0.808  13.583  0.2238  0.7417 -0.6038
11306TIP3    H155409   3.918   0.759  13.665  1.1605 -0.3461 -1.2180
11306TIP3    H255410   3.862   0.757  13.525  1.0414  0.4840 -1.1887
11307TIP3   OH255411   2.624   0.429  14.012 -0.2583 -0.1120 -0.0079
11307TIP3    H155412   2.597   0.494  14.077  1.4623  1.2634 -0.6135
11307TIP3    H255413   2.565   0.443  13.938  1.4703  2.3719 -1.0303
11308TIP3   OH255414   5.191   4.089  11.874 -0.3842 -0.8109  0.6675
11308TIP3    H155415   5.133   4.163  11.856 -0.0227 -0.4306  1.0506
11308TIP3    H255416   5.243   4.078  11.795  1.9844  1.5540  1.7528
11309TIP3   OH255417   3.791   5.646   0.432 -0.2017  1.3193 -0.0871
11309TIP3    H155418   3.839   5.671   0.511 -1.5133  1.0573  0.8220
11309TIP3    H255419   3.764   5.556   0.448  1.3695  0.4883 -1.7928
11310TIP3   OH255420   1.046   5.618   2.551  0.1509 -0.3334 -0.5771
11310TIP3    H155421   0.999   5.591   2.629 -1.6739  1.1393 -1.0829
11310TIP3    H255422   1.137   5.595   2.568 -0.3882 -1.1387  1.4514
11311TIP3   OH255423   1.439   5.429  13.578 -0.5549 -0.0736 -0.2208
11311TIP3    H155424   1.455   5.428  13.484 -1.2485  2.7018 -0.4635
11311TIP3    H255425   1.345   5.412  13.586 -0.4108 -0.7892  0.0358
11312TIP3   OH255426   0.564   0.007   1.700 -0.0710  0.5513 -0.0538
11312TIP3    H155427   0.536  -0.027   1.785  0.5073  1.0608  0.3543
11312TIP3    H255428   0.619  -0.062   1.663 -0.8054  0.0808 -0.2889
11313TIP3   OH255429   5.236   4.092   3.535 -0.0629  0.4757 -0.5600
11313TIP3    H155430   5.192   4.008   3.520 -0.0866 -0.0997  2.2400
11313TIP3    H255431   5.187   4.155   3.482 -0.4507 -1.1240 -2.2137
11314TIP3   OH255432   3.729   2.260  16.403 -0.3496  0.1345 -0.1303
11314TIP3    H155433   3.680   2.203  16.462 -0.2398 -0.7956 -0.8977
11314TIP3    H255434   3.771   2.324  16.460 -0.7505 -0.3554  0.7339
11315TIP3   OH255435   5.150   2.977  14.739  0.3406  0.0090 -0.6230
11315TIP3    H155436   5.232   2.927  14.740  0.8880  0.8930 -0.2029
11315TIP3    H255437   5.097   2.937  14.808  0.5049 -0.4149 -0.7364
11316TIP3   OH255438   0.640   0.969  13.331  0.2690 -0.0095  0.8402
11316TIP3    H155439   0.662   1.054  13.369 -0.8455  0.1525  1.1583
11316TIP3    H255440   0.682   0.969  13.245  0.5145  0.7432  0.9554
11317TIP3   OH255441   2.063   4.061  14.663 -0.4567  0.7788 -0.0747
11317TIP3    H155442   2.112   4.040  14.742 -3.6575 -1.4442  1.5368
11317TIP3    H255443   2.038   3.976  14.626 -1.7861  1.7674 -1.6375
11318TIP3   OH255444   0.052   2.998  14.620  0.8274  0.2184 -0.0979
11318TIP3    H155445   0.102   2.926  14.581  0.2636 -0.1653 -0.1103
11318TIP3    H255446   0.062   3.070  14.557 -0.0854 -0.4011 -0.9748
11319TIP3   OH255447   4.143   4.349   1.959 -0.5246  0.5070 -0.5416
11319TIP3    H155448   4.127   4.432   2.004 -0.1364 -0.3589  1.3269
11319TIP3    H255449   4.069   4.339   1.900 -1.5963  1.2847  0.6119
11320TIP3   OH255450   5.596   4.566   4.719  0.0793  0.4579 -0.0237
11320TIP3    H155451   5.624   4.475   4.706  0.7446  0.4093  1.5371
11320TIP3    H255452   5.501   4.563   4.708  0.2834 -0.0176 -2.0246
11321TIP3   OH255453   5.531   2.586   5.366 -0.3493  0.2452  0.1320
11321TIP3    H155454   5.573   2.556   5.285 -1.5998  1.1232 -0.8957
11321TIP3    H255455   5.565   2.674   5.380  0.9326 -0.4072  1.3919
11322TIP3   OH255456   3.975   3.204  12.466  0.3000  0.0889 -0.4301
11322TIP3    H155457   3.969   3.299  12.473  0.8748  0.2702 -2.0068
11322TIP3    H255458   3.887   3.177  12.438  0.2987  0.2168 -0.5510
11323TIP3   OH255459   3.518   5.519  11.624 -0.6682  0.0548 -0.2429
11323TIP3    H155460   3.580   5.530  11.695 -0.8742  2.5946 -0.3734
11323TIP3    H255461   3.449   5.464  11.660  0.0342 -0.0463  0.9726
11324TIP3   OH255462   1.679   1.837  16.275 -0.4771  0.2849  0.7019
11324TIP3    H155463   1.603   1.785  16.249 -1.6581  2.1434  0.2597
11324TIP3    H255464   1.703   1.804  16.361 -0.8801 -1.2909  0.2377
11325TIP3   OH255465   3.792   5.540   1.194  0.2790 -0.2458 -0.0558
11325TIP3    H155466   3.842   5.522   1.114  0.4064  0.3550 -0.1134
11325TIP3    H255467   3.813   5.630   1.216  0.5324 -0.5188  0.8694
11326TIP3   OH255468   3.306   1.680  12.759 -0.6935 -0.4546 -0.2653
11326TIP3    H155469   3.394   1.642  12.748 -0.4324 -0.3893  1.3044
11326TIP3    H255470   3.313   1.767  12.720 -0.0655 -0.4679 -0.1979
11327TIP3   OH255471   2.738   3.981  12.713  0.8168  0.4959 -0.3251
11327TIP3    H155472   2.777   4.069  12.718  0.7884  0.6364 -2.0590
11327TIP3    H255473   2.808   3.926  12.678  0.2971  0.2053 -0.9268
11328TIP3   OH255474   3.106   5.376   0.689  0.1648 -0.0272  0.3305
11328TIP3    H155475   3.014   5.352   0.685  0.2482 -0.3896  0.5549
11328TIP3    H255476   3.129   5.372   0.782  0.5244 -0.4016  0.2311
11329TIP3   OH255477   2.779   6.626   2.658  0.4261  0.1813  0.6441
11329TIP3    H155478   2.772   6.645   2.752 -0.3285 -0.8452  0.8134
11329TIP3    H255479   2.718   6.686   2.616  0.4153  0.3157  0.8518
11330TIP3   OH255480   0.330   4.908   0.260 -0.1075  0.4819 -0.0525
11330TIP3    H155481   0.294   4.855   0.330 -0.9539  1.5072  0.3200
11330TIP3    H255482   0.311   4.998   0.286 -1.1097  0.8634 -1.9290
11331TIP3   OH255483   3.261   3.027  11.479  0.4280  0.0608  0.0090
11331TIP3    H155484   3.181   3.060  11.439  0.7675  0.3030 -0.4950
11331TIP3    H255485   3.320   3.102  11.481  0.7608 -0.1956  0.0515
11332TIP3   OH255486   0.848   6.721   1.376 -0.9083  0.5183  0.1278
11332TIP3    H155487   0.928   6.668   1.377 -0.5028  1.1180 -0.0654
11332TIP3    H255488   0.788   6.674   1.318 -0.0288  1.0154 -1.2288
11333TIP3   OH255489   2.536   3.211   3.550  0.8723 -0.3347 -0.7415
11333TIP3    H155490   2.544   3.283   3.613  2.9550 -0.9824 -0.1959
11333TIP3    H255491   2.512   3.254   3.468 -3.0604  0.4421  0.5858
11334TIP3   OH255492   4.659   6.333  12.092 -0.0273 -0.6196  0.2929
11334TIP3    H155493   4.749   6.332  12.060 -0.4906 -1.1104 -1.0704
11334TIP3    H255494   4.625   6.247  12.066 -0.9842 -0.3010  0.4871
11335TIP3   OH255495   3.684   0.949  15.490 -0.8487  0.0211 -0.0617
11335TIP3    H155496   3.738   1.023  15.464 -0.5489  0.4282  1.6005
11335TIP3    H255497   3.604   0.958  15.437 -0.0260  0.3897 -1.2890
11336TIP3   OH255498   1.148   0.083  12.306  0.5117  0.6358  0.4839
11336TIP3    H155499   1.227   0.124  12.272 -0.0186  1.3192  0.0361
11336TIP3    H255500   1.173  -0.008  12.323  0.6913  0.1045 -2.2370
11337TIP3   OH255501   5.511   0.307  16.232  0.0881 -0.3705  0.0961
11337TIP3    H155502   5.475   0.380  16.181  0.4117 -0.8548 -0.8684
11337TIP3    H255503   5.443   0.239  16.226 -0.1030 -0.2452  0.7777
11338TIP3   OH255504   5.381   4.600   5.331 -0.5301 -0.3974  0.6883
11338TIP3    H155505   5.429   4.580   5.411  0.1612 -1.0199  0.1350
11338TIP3    H255506   5.412   4.686   5.304  0.1250 -0.7032  0.4513
11339TIP3   OH255507   4.288   0.422  16.981  0.2883 -0.4687 -0.2258
11339TIP3    H155508   4.342   0.391  17.053  1.6315 -0.3611 -1.1532
11339TIP3    H255509   4.241   0.497  17.017  1.4424 -0.0059  0.3652
11340TIP3   OH255510   2.827   0.100  16.382  0.3528  0.2910 -0.1776
11340TIP3    H155511   2.855   0.187  16.410  1.8910 -0.3070  0.2502
11340TIP3    H255512   2.764   0.117  16.311  2.1960  1.7505 -1.5821
11341TIP3   OH255513   3.384   3.362  16.641 -0.4732  0.4143  0.2694
11341TIP3    H155514   3.328   3.367  16.718  1.4202 -0.1321  1.7589
11341TIP3    H255515   3.427   3.277  16.648  1.4879  1.3225 -0.0917
11342TIP3   OH255516   5.822   0.737   3.595  0.7428  0.5210 -0.8521
11342TIP3    H155517   5.886   0.694   3.652  0.7777 -0.0666 -1.3255
11342TIP3    H255518   5.829   0.829   3.617 -1.7878  0.0676  2.7527
11343TIP3   OH255519   1.659   1.466  15.117  0.2222  0.3822  0.0953
11343TIP3    H155520   1.621   1.542  15.072 -0.7092 -1.1009 -1.7667
11343TIP3    H255521   1.719   1.428  15.053  1.7181  0.2457  1.4880
11344TIP3   OH255522   4.506   0.535  13.339  0.1700 -0.0729 -0.6497
11344TIP3    H155523   4.566   0.595  13.296  0.4510  0.1646  0.0636
11344TIP3    H255524   4.558   0.457  13.358  0.0649 -0.1523 -0.6819
11345TIP3   OH255525   1.649   6.181  16.377  0.4137  0.4192 -0.1593
11345TIP3    H155526   1.626   6.222  16.294  0.0369  0.0479 -0.2425
11345TIP3    H255527   1.705   6.108  16.353 -1.2786 -0.8933 -0.2699
11346TIP3   OH255528   2.790   0.046  15.585  0.3499 -0.0717 -0.1180
11346TIP3    H155529   2.716   0.030  15.528  0.6866 -0.9526 -0.3087
11346TIP3    H255530   2.814   0.138  15.568  0.4712 -0.3295 -1.4079
11347TIP3   OH255531   4.434   4.659   4.327  0.1796  0.2797 -0.4215
11347TIP3    H155532   4.441   4.579   4.275  0.8983  1.5358 -2.3913
11347TIP3    H255533   4.515   4.707   4.309  0.1027  1.1462  1.2963
11348TIP3   OH255534   3.747   1.461   6.150  0.2884  0.4922 -0.1687
11348TIP3    H155535   3.764   1.555   6.143  1.1990  0.2968 -0.7659
11348TIP3    H255536   3.680   1.444   6.084 -1.6753  1.1088  1.5653
11349TIP3   OH255537   2.299   1.838   3.555 -0.2575  0.3776  0.3180
11349TIP3    H155538   2.253   1.912   3.593  0.1390  1.2548 -0.8454
11349TIP3    H255539   2.384   1.874   3.528 -0.7476 -0.0102 -1.9355
11350TIP3   OH255540   2.707   3.642   5.673  0.0950 -0.2036  0.0060
11350TIP3    H155541   2.640   3.621   5.608 -1.9122 -0.1634  1.9770
11350TIP3    H255542   2.779   3.582   5.652 -1.8795 -2.6948 -0.1365
11351TIP3   OH255543   0.584   3.598   3.024  0.2515 -0.0240 -0.3101
11351TIP3    H155544   0.621   3.608   3.111 -1.1674 -0.2720  0.3354
11351TIP3    H255545   0.516   3.665   3.018  1.3027  0.9951 -1.8002
11352TIP3   OH255546   4.842   2.816   1.380 -0.5135 -0.8980  0.2844
11352TIP3    H155547   4.809   2.781   1.297 -0.9929  0.9357 -0.3430
11352TIP3    H255548   4.868   2.906   1.360 -0.1557 -0.5727  2.0141
11353TIP3   OH255549   3.835   1.556  13.195  0.1596  0.6101  0.3347
11353TIP3    H155550   3.922   1.521  13.216  0.4942  0.0032 -1.8084
11353TIP3    H255551   3.852   1.636  13.147 -0.4641  0.5518  0.0023
11354TIP3   OH255552   0.620   2.387  13.866 -0.1022 -0.1933 -0.5042
11354TIP3    H155553   0.565   2.310  13.875 -1.5514  0.9455  1.0094
11354TIP3    H255554   0.710   2.354  13.875 -0.7074 -1.6290  0.6932
11355TIP3   OH255555   0.193   0.757   3.874 -0.4036 -0.0726 -0.1743
11355TIP3    H155556   0.171   0.724   3.787  0.0291  0.4202 -0.4776
11355TIP3    H255557   0.288   0.748   3.880 -0.4163  0.0319  0.1906
11356TIP3   OH255558   2.360   4.994  14.519 -0.4926  0.1685 -0.1312
11356TIP3    H155559   2.293   5.043  14.470  0.3577  1.1970 -0.2995
11356TIP3    H255560   2.339   4.902  14.502 -1.0681  0.4883 -1.2878
11357TIP3   OH255561   4.426   6.238   5.288 -0.2672 -0.5339 -0.0129
11357TIP3    H155562   4.422   6.177   5.362  2.4116  0.8876  1.4684
11357TIP3    H255563   4.337   6.272   5.279 -1.2121 -2.5774  0.8729
11358TIP3   OH255564   4.191   0.659   4.810 -0.6128 -0.5930 -0.2365
11358TIP3    H155565   4.282   0.643   4.833 -0.4197  0.1194 -0.4585
11358TIP3    H255566   4.142   0.589   4.853  0.1252 -1.5218 -0.8702
11359TIP3   OH255567   3.567   0.184  15.803 -0.6279 -0.2750 -0.0488
11359TIP3    H155568   3.622   0.196  15.726 -1.1871 -1.5217 -0.6536
11359TIP3    H255569   3.551   0.090  15.808  0.0377 -0.3370  2.0463
11360TIP3   OH255570   1.749   3.396   0.117  0.3072 -0.1205 -0.9468
11360TIP3    H155571   1.696   3.444   0.052  1.3828  1.7990 -0.4997
11360TIP3    H255572   1.690   3.331   0.153 -1.3962  1.1631 -1.3026
11361TIP3   OH255573   0.763   2.830  15.799  0.2867  0.7407 -0.1569
11361TIP3    H155574   0.790   2.862  15.713  1.0279  2.0430  0.5254
11361TIP3    H255575   0.667   2.838  15.799 -0.1761 -2.8245 -2.1785
11362TIP3   OH255576   3.974   4.035   4.400 -0.1152 -0.4486 -0.1847
11362TIP3    H155577   4.067   4.034   4.426  0.6943 -0.0023 -2.7590
11362TIP3    H255578   3.975   4.008   4.308 -2.4584  0.3911 -0.5146
11363TIP3   OH255579   1.913   1.926  16.153 -0.6318  0.1029  0.3151
11363TIP3    H155580   1.964   1.946  16.231  0.2432  0.0422 -0.2336
11363TIP3    H255581   1.832   1.886  16.187 -0.4964  0.5714  1.2035
11364TIP3   OH255582   2.963   0.831  15.448 -0.2902 -0.6131  0.0485
11364TIP3    H155583   2.895   0.771  15.479 -0.1544 -1.0860 -0.5409
11364TIP3    H255584   3.040   0.776  15.435  1.3237  0.4303  3.9686
11365TIP3   OH255585   4.280   5.194  13.481  0.4774  0.5090  1.1515
11365TIP3    H155586   4.201   5.144  13.501  0.2796  0.3772  0.1010
11365TIP3    H255587   4.253   5.254  13.411  1.6091 -0.4163 -0.1214
11366TIP3   OH255588   2.961   2.251   6.522  0.1951  0.2225 -0.1035
11366TIP3    H155589   2.899   2.222   6.590 -1.2570  3.9504  0.3993
11366TIP3    H255590   2.905   2.286   6.452  1.6819  1.4947 -0.7082
11367TIP3   OH255591   3.929   5.928   1.768  0.5261  0.5747  0.1454
11367TIP3    H155592   4.007   5.913   1.820  0.0474 -0.4329  0.5961
11367TIP3    H255593   3.947   5.888   1.683 -0.4828 -2.1507  1.1169
11368TIP3   OH255594   1.144   3.492  12.426 -0.0138 -0.1995  0.0177
11368TIP3    H155595   1.157   3.496  12.331  1.2679  0.5010  0.1964
11368TIP3    H255596   1.057   3.454  12.437  0.5577 -2.0543 -1.4045
11369TIP3   OH255597   1.495   2.155  14.678 -0.3060 -0.4876  0.3209
11369TIP3    H155598   1.430   2.119  14.619  0.8170 -3.3278  0.6488
11369TIP3    H255599   1.485   2.105  14.759  0.6118  0.7963  1.2893
11370TIP3   OH255600   2.270   4.641   5.145 -0.2846  0.0463 -0.1520
11370TIP3    H155601   2.279   4.728   5.104 -1.1780  0.5311  0.6360
11370TIP3    H255602   2.358   4.621   5.177 -0.6353  2.2114  2.6130
11371TIP3   OH255603   3.185   3.125   5.574  0.2600  0.4910 -0.4536
11371TIP3    H155604   3.255   3.074   5.615  0.7608  1.6374  0.1868
11371TIP3    H255605   3.206   3.125   5.481  1.3929  1.1702 -0.2296
11372TIP3   OH255606   1.521   2.187  12.127 -0.2941 -0.0702  0.2445
11372TIP3    H155607   1.503   2.230  12.044  0.0785  2.0268  1.1965
11372TIP3    H255608   1.435   2.170  12.165 -0.5096  2.3735  1.0417
11373TIP3   OH255609   4.571   3.712   4.976  0.0230  0.4306  0.0335
11373TIP3    H155610   4.627   3.681   5.048 -0.6886  0.1827  0.4912
11373TIP3    H255611   4.527   3.633   4.944 -0.0327  0.6185 -0.3548
11374TIP3   OH255612   1.769   1.638   1.664 -0.8056  0.4929 -0.3768
11374TIP3    H155613   1.813   1.578   1.605 -1.5448 -1.0583  0.5800
11374TIP3    H255614   1.751   1.716   1.611  0.8547  0.1930 -1.4318
11375TIP3   OH255615   1.264   3.002   3.749  0.7715 -0.0906  0.0417
11375TIP3    H155616   1.173   2.973   3.760  0.7715  0.0389  0.4118
11375TIP3    H255617   1.277   3.006   3.654  0.7342 -1.1688 -0.0218
11376TIP3   OH255618   6.800   5.331   3.689  0.7760 -0.0754  0.7508
11376TIP3    H155619   6.764   5.333   3.777 -2.6293 -0.9818 -0.4645
11376TIP3    H255620   6.803   5.423   3.662  0.0631  0.0691  1.1534
11377TIP3   OH255621   3.415   0.868   1.100 -0.3302 -0.7343  0.1535
11377TIP3    H155622   3.419   0.813   1.022 -0.4018 -0.9762  0.3198
11377TIP3    H255623   3.491   0.841   1.152 -0.3615 -0.6720  0.2324
11378TIP3   OH255624   6.080   3.050   0.045  0.0722 -0.7505 -0.3436
11378TIP3    H155625   6.165   3.007   0.049  0.7075  0.5079 -0.1007
11378TIP3    H255626   6.044   3.042   0.134  1.2020  1.1910  0.3383
11379TIP3   OH255627   5.508   4.256  13.906  0.8582 -0.3710 -0.4876
11379TIP3    H155628   5.462   4.172  13.910 -0.6977  0.4158 -0.9788
11379TIP3    H255629   5.541   4.261  13.816 -0.8013  0.3800 -1.0994
11380TIP3   OH255630   1.424   0.031  12.045  0.0858  0.0917  0.3846
11380TIP3    H155631   1.453  -0.057  12.071  1.1362  0.4311  0.4175
11380TIP3    H255632   1.332   0.020  12.024  0.7856 -1.6340 -2.2602
11381TIP3   OH255633   3.771   3.983   4.578 -0.3106  0.4271 -0.0881
11381TIP3    H155634   3.801   4.043   4.647  0.8766 -1.3818  1.0447
11381TIP3    H255635   3.829   4.002   4.504 -0.2031  0.9250  0.1167
11382TIP3   OH255636   1.840   3.544   3.252  0.2226 -0.9807 -0.4481
11382TIP3    H155637   1.844   3.481   3.180 -0.7238 -1.1334 -0.3854
11382TIP3    H255638   1.823   3.628   3.209 -0.4802 -1.0942 -0.4012
11383TIP3   OH255639   2.326   0.015   2.810 -0.0432  0.0088 -1.2474
11383TIP3    H155640   2.370  -0.057   2.765 -0.5421 -0.9111 -0.3193
11383TIP3    H255641   2.398   0.064   2.851  0.2935 -0.0651 -1.7402
11384TIP3   OH255642   6.252   5.378   1.721  0.5012  0.6070  0.5263
11384TIP3    H155643   6.234   5.401   1.812  0.9028 -0.6995  0.9642
11384TIP3    H255644   6.184   5.422   1.670 -0.5416  0.2563  1.5881
11385TIP3   OH255645   1.018   1.809  16.805  0.1118 -0.1813  0.1887
11385TIP3    H155646   0.929   1.775  16.803  1.5533 -4.6077 -1.1350
11385TIP3    H255647   1.053   1.781  16.890  0.3912  1.1452  0.5283
11386TIP3   OH255648   1.098   4.248  12.410  0.0718  0.2457 -0.0153
11386TIP3    H155649   1.105   4.251  12.315  0.0496  0.0694 -0.0212
11386TIP3    H255650   1.093   4.341  12.436  0.3913  0.3059 -0.1620
11387TIP3   OH255651   2.954   6.760  16.804 -0.2398  0.0334 -0.7930
11387TIP3    H155652   2.952   6.703  16.727  1.4769 -0.0252 -0.8341
11387TIP3    H255653   2.961   6.699  16.878  0.0264  0.1283 -0.7372
11388TIP3   OH255654   0.059   5.483  15.043  0.3825  0.0251  0.5906
11388TIP3    H155655   0.113   5.404  15.038  0.2585  0.0153 -0.8209
11388TIP3    H255656   0.004   5.480  14.965 -2.7140 -0.6822  2.6183
11389TIP3   OH255657   4.834   5.594  14.031 -0.2709 -0.2087 -0.4359
11389TIP3    H155658   4.790   5.544  13.961 -1.7369  2.0083 -1.2047
11389TIP3    H255659   4.926   5.572  14.021 -0.6065 -1.0641 -2.1671
11390TIP3   OH255660   1.372   4.261   3.876  0.3012 -0.1140  0.2425
11390TIP3    H155661   1.319   4.274   3.798  0.8979  0.3310 -0.0899
11390TIP3    H255662   1.309   4.258   3.948 -0.1711  0.4422 -0.1470
11391TIP3   OH255663   1.726   2.613   3.219 -0.0448 -0.2384  0.2906
11391TIP3    H155664   1.671   2.631   3.295  0.0719 -0.9140  0.5427
11391TIP3    H255665   1.812   2.648   3.242 -0.1595  0.0961  0.2206
11392TIP3   OH255666   1.850   1.260  16.515 -0.2184  0.4662  0.3674
11392TIP3    H155667   1.834   1.235  16.606  0.8604 -1.8791 -0.0139
11392TIP3    H255668   1.771   1.308  16.489 -2.0427 -1.7249  1.5462
11393TIP3   OH255669   6.655   3.504  10.318  0.5444 -0.2076 -0.1654
11393TIP3    H155670   6.640   3.414  10.289  0.9360 -0.7096  1.1212
11393TIP3    H255671   6.729   3.498  10.379  0.3497  0.9321  0.2104
11394TIP3   OH255672   3.093   1.795   4.454  0.0733  0.4664 -0.3693
11394TIP3    H155673   3.108   1.882   4.490 -2.0468  0.8515 -0.2946
11394TIP3    H255674   3.060   1.743   4.527  3.0864 -1.0158  0.0702
11395TIP3   OH255675   4.390   3.933  14.136  0.7082  0.2043 -0.1609
11395TIP3    H155676   4.473   3.886  14.128 -1.2200 -3.6087  0.1097
11395TIP3    H255677   4.325   3.873  14.099 -2.3191  1.7810  2.1947
11396TIP3   OH255678   4.599   2.019   1.587 -0.5946 -0.0372  0.5399
11396TIP3    H155679   4.597   1.923   1.594 -0.9920 -0.0482  0.3047
11396TIP3    H255680   4.692   2.041   1.586 -0.4937 -0.3423  1.6445
11397TIP3   OH255681   3.586   5.433   3.187  0.4388 -0.0066  0.4600
11397TIP3    H155682   3.518   5.378   3.148  0.3329  1.2120 -1.1451
11397TIP3    H255683   3.544   5.471   3.264 -0.5180  0.2325 -0.1567
11398TIP3   OH255684   6.062   5.064   5.557 -0.5945  0.7636  0.3591
11398TIP3    H155685   6.122   4.995   5.586 -1.6297  0.2528  1.3541
11398TIP3    H255686   5.992   5.064   5.622 -2.5086  0.2602 -1.5938
11399TIP3   OH255687   2.493   0.747  16.624 -0.1530 -0.2781  0.0114
11399TIP3    H155688   2.414   0.794  16.596  1.0851  1.0739 -1.4335
11399TIP3    H255689   2.527   0.799  16.697  1.9138  2.0150 -2.3919
11400TIP3   OH255690   1.004   6.329  15.126  0.0922 -0.4818  0.2555
11400TIP3    H155691   1.037   6.395  15.064 -0.2009  1.9558  2.5100
11400TIP3    H255692   0.953   6.269  15.072 -1.5166  2.4164 -1.7263
11401TIP3   OH255693   6.558   0.221  14.633 -0.2561  0.5513 -0.4002
11401TIP3    H155694   6.618   0.147  14.635 -1.9214 -0.8537  0.5412
11401TIP3    H255695   6.559   0.251  14.542  0.4198 -0.6574 -0.8112
11402TIP3   OH255696   2.864   2.892  11.558 -0.4284 -0.2255 -0.4870
11402TIP3    H155697   2.911   2.944  11.493 -1.3129  0.8018 -0.3273
11402TIP3    H255698   2.792   2.852  11.509  0.3534 -1.4847 -0.6499
11403TIP3   OH255699   6.247   0.509  11.630  0.2997  0.1457  0.1882
11403TIP3    H155700   6.170   0.565  11.640  2.0805  2.5315  1.7417
11403TIP3    H255701   6.212   0.424  11.604 -2.6524  1.6717 -1.2889
11404TIP3   OH255702   4.778   0.792   0.978 -0.0085 -0.0387  0.3735
11404TIP3    H155703   4.772   0.737   0.900 -2.7140 -0.1854  0.5737
11404TIP3    H255704   4.737   0.740   1.047 -0.7597  1.3879  1.0547
11405TIP3   OH255705   1.607   6.230   2.181 -0.1067 -0.0171 -0.8894
11405TIP3    H155706   1.597   6.288   2.106  0.0345 -0.6921 -1.4439
11405TIP3    H255707   1.529   6.174   2.179 -0.2754  0.1886 -0.3245
11406TIP3   OH255708   2.657   2.439   6.590  0.2689 -0.2312  0.0069
11406TIP3    H155709   2.679   2.351   6.621  0.8199 -0.1778 -0.2233
11406TIP3    H255710   2.600   2.425   6.514  0.8875 -0.4091 -0.4346
11407TIP3   OH255711   0.827   1.644   4.183 -0.5298  0.1659  0.4129
11407TIP3    H155712   0.884   1.648   4.260 -0.8098  2.0090  0.5740
11407TIP3    H255713   0.887   1.633   4.109 -0.1689 -0.4328  0.7881
11408TIP3   OH255714   0.480   3.626   1.993  0.3942  0.3939 -0.2724
11408TIP3    H155715   0.421   3.682   2.044  0.6528  1.0533 -0.6917
11408TIP3    H255716   0.565   3.635   2.037  0.4893  0.5207 -0.4809
11409TIP3   OH255717   1.069   1.566  12.274 -0.0058 -0.4055 -0.0970
11409TIP3    H155718   1.101   1.478  12.294  0.3792  0.0081  1.2320
11409TIP3    H255719   0.974   1.558  12.278  0.0196 -0.8208 -0.2722
11410TIP3   OH255720   3.871   4.618   1.143  0.8540  0.6128  0.5686
11410TIP3    H155721   3.861   4.617   1.238 -0.6334 -1.0620  0.4351
11410TIP3    H255722   3.860   4.526   1.117  1.5753  0.9952 -1.2007
11411TIP3   OH255723   4.928   5.483   0.650 -0.1217 -0.2536  0.1448
11411TIP3    H155724   5.018   5.516   0.651 -0.8697  2.0270 -1.2460
11411TIP3    H255725   4.877   5.548   0.697 -1.3606 -0.4196 -0.9160
11412TIP3   OH255726   6.478   2.724  11.890  0.0092 -0.3513 -0.2168
11412TIP3    H155727   6.507   2.815  11.903 -0.3261  0.0974 -2.3664
11412TIP3    H255728   6.383   2.730  11.882 -0.3555 -1.2863  2.2622
11413TIP3   OH255729   6.724   3.584  13.387  0.2266 -0.2594 -0.3775
11413TIP3    H155730   6.815   3.604  13.362 -0.1127 -0.0317 -1.4760
11413TIP3    H255731   6.678   3.575  13.304 -0.7987 -0.2197  0.1767
11414TIP3   OH255732   2.372   5.247   2.373  0.1262  0.0140  0.0792
11414TIP3    H155733   2.333   5.159   2.377  1.0765 -0.3811  1.1408
11414TIP3    H255734   2.466   5.232   2.384  0.1685  1.2750  1.7348
11415TIP3   OH255735   3.521   5.754  17.040 -0.5755 -0.3924  0.2253
11415TIP3    H155736   3.476   5.820  16.987 -1.8534 -1.1505  0.3057
11415TIP3    H255737   3.455   5.686  17.053  1.3726 -2.8874 -1.9054
11416TIP3   OH255738   5.033   3.627   5.106  0.3197  0.1982 -0.0017
11416TIP3    H155739   5.121   3.665   5.104  1.5854 -2.3659  1.6104
11416TIP3    H255740   5.047   3.533   5.096 -2.3794 -0.2161 -0.8337
11417TIP3   OH255741   0.814   2.920   2.038 -0.5152 -0.1019  0.2839
11417TIP3    H155742   0.781   2.899   1.950 -1.6802 -0.0187  0.6904
11417TIP3    H255743   0.778   2.852   2.094  1.0647 -0.7482  0.5567
11418TIP3   OH255744   3.562   2.935  16.763  0.1121 -0.8587  0.1862
11418TIP3    H155745   3.533   2.862  16.707 -1.4821 -0.3710  0.3085
11418TIP3    H255746   3.587   2.893  16.845 -0.3080 -1.3198  0.0880
11419TIP3   OH255747   0.901   0.132  12.781 -0.0839 -0.4361  0.2270
11419TIP3    H155748   0.858   0.053  12.815 -2.4078  1.0478  0.9801
11419TIP3    H255749   0.875   0.135  12.689 -2.3348  0.8248  0.8434
11420TIP3   OH255750   1.757   2.322  11.941 -0.1124 -0.6244 -0.1500
11420TIP3    H155751   1.666   2.323  11.912 -0.7307  0.8792  1.6996
11420TIP3    H255752   1.760   2.257  12.011 -0.0050 -0.0038  0.4350
11421TIP3   OH255753   0.929   4.963   0.410 -0.1396  0.0411 -0.0664
11421TIP3    H155754   0.865   5.033   0.405  0.7895  0.8348 -2.3040
11421TIP3    H255755   0.957   4.949   0.319  0.5463 -2.4521  0.4355
11422TIP3   OH255756   6.105   3.476   0.330 -0.4444  0.1829 -0.7420
11422TIP3    H155757   6.050   3.417   0.383 -0.9863  1.1212 -0.2440
11422TIP3    H255758   6.170   3.509   0.392  0.8293 -1.0404 -1.3573
11423TIP3   OH255759   6.553   0.664  12.833  0.4132  0.8003 -0.5807
11423TIP3    H155760   6.644   0.645  12.811  0.2546  3.1111 -3.9469
11423TIP3    H255761   6.558   0.742  12.887  0.4239 -0.1903  0.9190
11424TIP3   OH255762   3.932   6.083  11.931 -0.4856 -0.2152 -0.1826
11424TIP3    H155763   3.945   6.167  11.889 -1.2563 -0.2202 -0.4491
11424TIP3    H255764   3.975   6.091  12.016 -2.1646  1.1166  0.5903
11425TIP3   OH255765   4.373   6.202  14.394 -0.3655 -0.0773 -0.2820
11425TIP3    H155766   4.423   6.280  14.371 -0.0910 -0.2710 -0.3412
11425TIP3    H255767   4.412   6.172  14.476 -0.3692 -0.2404 -0.3399
11426TIP3   OH255768   0.823   1.754   2.947 -0.0921  0.0033 -0.0188
11426TIP3    H155769   0.733   1.758   2.980  0.0007  0.2895  0.1993
11426TIP3    H255770   0.828   1.826   2.884 -0.1803 -0.3569 -0.4445
11427TIP3   OH255771   0.043   2.453   2.189 -0.0199  0.0164 -0.1450
11427TIP3    H155772   0.088   2.385   2.138 -1.0166 -0.2922 -0.6387
11427TIP3    H255773   0.031   2.413   2.275  1.7353  0.5651  0.4085
11428TIP3   OH255774   0.433   2.283  10.868  0.4993 -0.2711  0.5986
11428TIP3    H155775   0.390   2.244  10.791  0.5127  0.3837  0.2509
11428TIP3    H255776   0.490   2.351  10.832 -0.1138  0.6105  1.2353
11429TIP3   OH255777   5.581   2.498  12.684  0.2990  0.5818 -0.8695
11429TIP3    H155778   5.634   2.576  12.668 -0.5297  1.5352  0.7840
11429TIP3    H255779   5.644   2.433  12.716  0.8681  0.8532 -1.4214
11430TIP3   OH255780   2.331   6.314   2.251 -0.1505 -0.0885  0.1892
11430TIP3    H155781   2.308   6.371   2.178 -1.1864  0.3036  0.8066
11430TIP3    H255782   2.313   6.225   2.218 -0.0257  0.0382 -0.2314
11431TIP3   OH255783   3.417   3.714   5.756 -0.3711 -0.2262  0.0065
11431TIP3    H155784   3.355   3.752   5.818 -0.1781 -1.1025  0.7671
11431TIP3    H255785   3.498   3.764   5.769 -0.3181 -0.4307  0.5097
11432TIP3   OH255786   6.113   4.237  15.851 -0.3697  0.3969 -0.7468
11432TIP3    H155787   6.018   4.233  15.838 -0.2986  1.0428 -1.5338
11432TIP3    H255788   6.141   4.146  15.852 -0.7911  0.2296 -2.2237
11433TIP3   OH255789   0.032   6.145   1.341  0.2553 -0.4399  0.6081
11433TIP3    H155790   0.036   6.086   1.416 -0.6894 -1.4119 -0.0609
11433TIP3    H255791   0.095   6.214   1.360 -0.4166 -0.3225  2.5781
11434TIP3   OH255792   5.107   2.403   3.320 -0.4915 -0.1707  0.1578
11434TIP3    H155793   5.047   2.342   3.364  0.6689  0.0435  2.1506
11434TIP3    H255794   5.187   2.351   3.306  0.9550  1.0755  2.9635
11435TIP3   OH255795   1.936   0.801   2.627 -0.2018  0.1875 -0.2633
11435TIP3    H155796   1.958   0.884   2.670 -0.2172  1.1977 -2.0866
11435TIP3    H255797   1.873   0.825   2.559 -0.2155 -1.3265 -0.8317
11436TIP3   OH255798   2.953   3.209   5.015 -0.5904 -0.0515 -0.3095
11436TIP3    H155799   2.922   3.299   5.007 -1.6581 -0.4216 -0.5265
11436TIP3    H255800   3.035   3.207   4.965 -0.3636  0.8792  0.0160
11437TIP3   OH255801   2.424   2.380   1.638 -0.2744  0.8613 -0.1182
11437TIP3    H155802   2.438   2.433   1.559  1.2054  1.5438  0.5662
11437TIP3    H255803   2.336   2.344   1.627  0.3757 -0.1281 -2.6898
11438TIP3   OH255804   4.616   2.152   2.714  0.4778 -0.9632  0.6978
11438TIP3    H155805   4.684   2.117   2.772  0.5501 -3.1698 -0.6232
11438TIP3    H255806   4.570   2.075   2.681 -1.2994  0.3768 -0.1240
11439TIP3   OH255807   3.109   1.881  13.170 -0.4535 -0.2113  0.5263
11439TIP3    H155808   3.176   1.828  13.127  0.2693  0.4882  0.7852
11439TIP3    H255809   3.151   1.917  13.248 -0.9159  0.7572  0.3508
11440TIP3   OH255810   0.942   4.039  14.521  0.4597 -0.1908  0.3331
11440TIP3    H155811   1.026   4.023  14.478  1.8216  1.9738  1.9633
11440TIP3    H255812   0.965   4.057  14.612 -1.7104  1.0446  0.7084
11441TIP3   OH255813   4.543   3.741   5.389  0.3125  0.1208 -0.0770
11441TIP3    H155814   4.541   3.802   5.315  0.1242  0.0063 -0.1668
11441TIP3    H255815   4.608   3.778   5.448 -0.2425  0.7392  0.1516
11442TIP3   OH255816   2.537   3.012  14.654 -0.1253 -0.0327  0.2226
11442TIP3    H155817   2.477   3.068  14.703  1.3648 -0.1910  2.3505
11442TIP3    H255818   2.596   2.976  14.720  1.0704 -1.4623 -1.5250
11443TIP3   OH255819   0.169   6.315   2.694 -0.1652  0.0997  0.3759
11443TIP3    H155820   0.125   6.381   2.641 -1.5163 -0.1501  1.1375
11443TIP3    H255821   0.138   6.331   2.783 -2.4583 -2.9608  0.2965
11444TIP3   OH255822   6.493   2.044   4.429 -0.1616 -0.1130  0.3982
11444TIP3    H155823   6.418   2.078   4.478 -0.1948 -0.1707  0.3872
11444TIP3    H255824   6.569   2.079   4.475 -0.1962 -0.0025  0.3714
11445TIP3   OH255825   0.325   6.391   5.161 -0.5296  0.3099 -0.4852
11445TIP3    H155826   0.354   6.467   5.213  1.5350 -0.2102 -0.8001
11445TIP3    H255827   0.317   6.426   5.072 -4.3541  1.2736  0.0777
11446TIP3   OH255828   1.998   3.066  11.386 -0.2509 -0.0331  0.0730
11446TIP3    H155829   1.940   2.991  11.399 -0.0183 -0.1287  0.6126
11446TIP3    H255830   1.956   3.119  11.319 -1.3426  0.2915  0.9994
11447TIP3   OH255831   2.750   3.372  16.413  0.0554  0.2245 -0.1471
11447TIP3    H155832   2.806   3.445  16.441 -0.2674  0.9587 -1.3731
11447TIP3    H255833   2.763   3.305  16.481  2.7185  0.2079 -0.5603
11448TIP3   OH255834   1.870   3.466  11.747 -0.0757 -0.2394  0.2845
11448TIP3    H155835   1.846   3.378  11.775 -0.2574  0.6142  3.1044
11448TIP3    H255836   1.791   3.518  11.763  1.0884  1.0755  2.1050
11449TIP3   OH255837   2.804   0.310  16.169  0.0244  0.0500  0.2196
11449TIP3    H155838   2.889   0.275  16.196 -0.3445 -0.5468  0.6314
11449TIP3    H255839   2.747   0.233  16.162  0.1980  0.0929 -2.7200
11450TIP3   OH255840   1.617   1.232   0.746 -0.4268 -0.5538 -0.0109
11450TIP3    H155841   1.590   1.218   0.837  1.1493 -1.5255  0.3364
11450TIP3    H255842   1.616   1.327   0.735 -1.1047 -0.4456  0.8634
11451TIP3   OH255843   4.956   3.139   3.146  0.0686 -0.4318 -0.9971
11451TIP3    H155844   5.017   3.080   3.101  1.4188  0.3874 -0.3403
11451TIP3    H255845   4.974   3.225   3.109  0.3262  0.0515  0.1883
11452TIP3   OH255846   0.658   0.882  16.272  0.5443  0.2250  0.7080
11452TIP3    H155847   0.672   0.853  16.182  0.5122  0.8706  0.4924
11452TIP3    H255848   0.563   0.874  16.286  0.7964 -2.1186  1.4732
11453TIP3   OH255849   3.065   4.959   5.283  0.4118 -0.4843  0.0260
11453TIP3    H155850   3.065   5.051   5.311  0.7851 -0.8047  1.1549
11453TIP3    H255851   3.157   4.933   5.285  0.4501 -0.5497 -1.5186
11454TIP3   OH255852   6.298   4.441  15.287 -0.3590 -0.0320 -0.2497
11454TIP3    H155853   6.212   4.472  15.260 -0.1948  1.4464  0.8211
11454TIP3    H255854   6.359   4.508  15.257  0.0248  0.7241  2.0463
11455TIP3   OH255855   2.039   1.603   3.492 -0.1156  0.5287 -0.2804
11455TIP3    H155856   1.948   1.604   3.523 -0.0888  2.8267 -0.1455
11455TIP3    H255857   2.091   1.630   3.567  0.8692 -1.9170 -0.0028
11456TIP3   OH255858   1.688   0.048  15.371 -0.5263 -0.1354  0.1480
11456TIP3    H155859   1.720   0.013  15.288 -1.4320 -0.2516 -0.1621
11456TIP3    H255860   1.661  -0.029  15.420  0.4027 -0.0999  0.7293
11457TIP3   OH255861   1.844   2.787  12.212  0.4234  0.0110 -0.0769
11457TIP3    H155862   1.748   2.793  12.209  0.0906 -0.5872  4.0510
11457TIP3    H255863   1.864   2.706  12.163 -1.3608 -0.7459  0.3517
11458TIP3   OH255864   2.331   1.509   4.410 -0.7433 -0.0552 -0.1309
11458TIP3    H155865   2.263   1.549   4.356 -2.1821 -2.3907 -0.1879
11458TIP3    H255866   2.410   1.513   4.356 -1.5060  0.1207 -1.2536
11459TIP3   OH255867   1.787   0.239  15.897 -0.2036  0.2618 -0.3830
11459TIP3    H155868   1.787   0.313  15.958 -1.9268  1.4588 -1.7140
11459TIP3    H255869   1.880   0.218  15.885  0.2077 -0.6548  3.2336
11460TIP3   OH255870   2.402   4.152  11.533  0.1006  0.0886 -0.2083
11460TIP3    H155871   2.387   4.073  11.481  0.8522  2.0255 -3.6897
11460TIP3    H255872   2.319   4.165  11.580 -0.8702 -1.4946 -1.3633
11461TIP3   OH255873   5.309   3.556  14.719  0.3019  0.2923 -0.3230
11461TIP3    H155874   5.328   3.514  14.803  0.0447 -0.5777 -0.6898
11461TIP3    H255875   5.277   3.643  14.743 -0.1819 -0.0999  0.5122
11462TIP3   OH255876   4.814   3.609  13.697 -0.1931  0.0736  0.8349
11462TIP3    H155877   4.902   3.645  13.702  0.1133 -0.7021  1.2287
11462TIP3    H255878   4.775   3.650  13.620  0.2230  1.0374  1.1224
11463TIP3   OH255879   3.179   6.039  10.666  0.0002  0.4833 -0.4821
11463TIP3    H155880   3.085   6.035  10.681 -0.2698  1.8360 -1.5652
11463TIP3    H255881   3.188   6.084  10.582  1.6272  0.9881 -0.0795
11464TIP3   OH255882   5.198   4.296  13.275 -0.5223 -0.3073  0.2190
11464TIP3    H155883   5.178   4.257  13.190  0.1116  1.1762 -0.6510
11464TIP3    H255884   5.221   4.222  13.330  1.6265 -1.1566 -1.6339
11465TIP3   OH255885   1.390   3.582  13.038 -0.1207 -0.1553  0.4701
11465TIP3    H155886   1.393   3.496  13.080 -0.1641  0.3228  1.4849
11465TIP3    H255887   1.342   3.637  13.100  0.6796  0.8128  0.2473
11466TIP3   OH255888   4.401   1.545  10.959  0.2210 -0.4914  0.3999
11466TIP3    H155889   4.420   1.596  10.880 -0.2301  0.8269  1.1142
11466TIP3    H255890   4.330   1.487  10.933 -1.2844  1.2909  0.3250
11467TIP3   OH255891   6.068   0.247  11.770 -0.8187  0.0596 -0.1903
11467TIP3    H155892   6.003   0.177  11.760 -1.1805  0.4439 -0.5811
11467TIP3    H255893   6.084   0.277  11.680 -2.8443  2.4431  0.1422
11468TIP3   OH255894   1.350   5.063   2.304  0.0515  0.0170 -0.1002
11468TIP3    H155895   1.347   5.070   2.400 -3.1687  0.5741 -0.1064
11468TIP3    H255896   1.336   4.970   2.287  0.7194 -0.0972 -0.0377
11469TIP3   OH255897   2.705   1.429   4.449 -0.4266 -0.1994  0.1174
11469TIP3    H155898   2.675   1.478   4.526  0.4761 -1.1762  1.1316
11469TIP3    H255899   2.778   1.376   4.482 -0.8791 -1.6416 -1.1101
11470TIP3   OH255900   5.288   4.689   4.954  0.3773 -0.6304  0.0775
11470TIP3    H155901   5.306   4.623   5.022  1.2924 -1.0467 -0.5443
11470TIP3    H255902   5.285   4.772   5.001  0.4761 -0.9756  0.7059
11471TIP3   OH255903   0.105   4.251  11.620  0.8889  0.2756 -0.0666
11471TIP3    H155904   0.013   4.265  11.599  0.8399 -1.1408 -0.9568
11471TIP3    H255905   0.104   4.186  11.691  1.1936 -0.2313 -0.5137
11472TIP3   OH255906   5.775   3.342   0.060 -0.6103 -0.0429 -0.8688
11472TIP3    H155907   5.759   3.349   0.154  2.8300 -0.8492 -0.0822
11472TIP3    H255908   5.742   3.255   0.037 -0.3729 -0.3603 -0.0770
11473TIP3   OH255909   2.635   3.741  12.932  0.5997  0.3067 -0.0373
11473TIP3    H155910   2.628   3.781  13.019 -0.2147 -0.5785  0.3241
11473TIP3    H255911   2.651   3.815  12.874  4.0047  0.6777  1.1253
11474TIP3   OH255912   4.970   4.817  10.811  0.4053 -0.1756  0.3285
11474TIP3    H155913   4.973   4.912  10.820 -1.5359 -0.1651  1.4746
11474TIP3    H255914   5.027   4.798  10.736  1.2107  1.8194  0.3793
11475TIP3   OH255915   1.707   4.626  15.868  0.6630  0.5963 -0.5817
11475TIP3    H155916   1.799   4.606  15.882 -0.0974 -2.0107  1.5653
11475TIP3    H255917   1.667   4.541  15.850 -1.5162  1.4818 -0.1969
11476TIP3   OH255918   0.434   5.403   2.055  0.0538  0.2056  0.0663
11476TIP3    H155919   0.352   5.451   2.044 -0.2012 -0.5116 -1.4512
11476TIP3    H255920   0.408   5.314   2.076  0.3735 -0.2989 -1.5293
11477TIP3   OH255921   1.420   5.358  12.716 -0.2822  0.1947 -0.1179
11477TIP3    H155922   1.484   5.309  12.767  0.7842 -0.2840 -1.8736
11477TIP3    H255923   1.336   5.319  12.740 -0.0096  0.9510  2.3476
11478TIP3   OH255924   1.741   1.036   4.984  0.2790 -0.5835 -0.1943
11478TIP3    H155925   1.674   0.982   5.024 -1.9111  2.6815  0.9527
11478TIP3    H255926   1.788   1.075   5.058  0.1923  0.9072 -0.9011
11479TIP3   OH255927   6.513   1.604   3.041  0.0807 -0.2178 -0.5892
11479TIP3    H155928   6.480   1.529   2.992 -2.8776  0.5076  0.1288
11479TIP3    H255929   6.440   1.665   3.045  1.5145  1.5295  1.2303
11480TIP3   OH255930   3.618   1.428  15.217 -0.0871  0.3077 -0.1720
11480TIP3    H155931   3.685   1.493  15.243  1.3537 -1.6091  1.2251
11480TIP3    H255932   3.535   1.473  15.231  0.8148  1.3910  2.3334
11481TIP3   OH255933   2.524   2.830   1.332  0.3233 -0.0544  0.1191
11481TIP3    H155934   2.508   2.853   1.424  0.0993  1.1368 -0.2071
11481TIP3    H255935   2.589   2.759   1.337 -0.8802 -1.1527  1.2351
11482TIP3   OH255936   0.553   6.513  12.018  0.2761 -0.2692 -0.2600
11482TIP3    H155937   0.588   6.468  11.941 -1.9734 -0.0841 -1.4833
11482TIP3    H255938   0.487   6.573  11.982 -0.4745  0.1951  1.7801
11483TIP3   OH255939   5.433   3.367   3.145 -0.1211 -0.0108  0.4979
11483TIP3    H155940   5.345   3.336   3.120 -0.6286  0.3027  1.7903
11483TIP3    H255941   5.448   3.443   3.090 -0.7065 -0.0226  0.3143
11484TIP3   OH255942   4.784   6.679  13.900  0.4103 -0.2477 -0.0337
11484TIP3    H155943   4.822   6.627  13.829 -0.1089 -1.0273  0.2401
11484TIP3    H255944   4.736   6.749  13.856  2.3340  0.9102 -0.3790
11485TIP3   OH255945   6.699   2.437   4.406 -0.3646  0.2151  0.6913
11485TIP3    H155946   6.643   2.442   4.483  0.4026  0.2604  1.2652
11485TIP3    H255947   6.787   2.423   4.442  0.0761  0.7389 -0.1499
11486TIP3   OH255948   2.152   3.926   3.310 -0.0381  0.4323 -0.7753
11486TIP3    H155949   2.178   4.018   3.306  0.7329  0.3918  1.5440
11486TIP3    H255950   2.057   3.928   3.319 -0.0073  1.0294 -0.5400
11487TIP3   OH255951   6.033   2.844   5.491 -0.4935  1.0954  0.3545
11487TIP3    H155952   6.052   2.752   5.477 -1.5251  1.1100 -1.4011
11487TIP3    H255953   5.954   2.844   5.545 -1.2398  0.9300 -0.7297
11488TIP3   OH255954   2.902   5.949  15.957  0.1846  0.2030  0.5445
11488TIP3    H155955   2.868   5.928  16.044  0.7154 -1.3777  0.4030
11488TIP3    H255956   2.834   6.003  15.917 -0.9139 -0.6011  1.2643
11489TIP3   OH255957   2.740   1.238  10.909 -0.0945 -0.1216  0.7337
11489TIP3    H155958   2.812   1.297  10.932  1.8520 -2.3974  0.9020
11489TIP3    H255959   2.727   1.184  10.987  0.3353 -1.9005 -0.3580
11490TIP3   OH255960   6.091   6.012   3.584 -0.4126 -0.7721  0.4441
11490TIP3    H155961   6.174   6.020   3.631  0.7907 -0.3620 -1.6443
11490TIP3    H255962   6.024   6.035   3.650  1.1528 -0.3178  1.9499
11491TIP3   OH255963   0.815   2.277  12.986 -0.1731 -0.0071 -0.2976
11491TIP3    H155964   0.736   2.240  12.948  0.0837 -1.8031  0.8025
11491TIP3    H255965   0.847   2.339  12.921  0.1188 -2.7306 -2.9277
11492TIP3   OH255966   6.599   5.097  13.332 -0.4692  0.2895  0.5075
11492TIP3    H155967   6.637   5.010  13.329 -1.3561 -0.2595 -4.8492
11492TIP3    H255968   6.504   5.083  13.325 -0.6128  1.5714 -0.8209
11493TIP3   OH255969   4.180   6.715   4.626 -0.4478  0.1778  0.6533
11493TIP3    H155970   4.089   6.745   4.628  0.0098  1.7290 -0.4413
11493TIP3    H255971   4.211   6.737   4.538  0.7989 -0.9546  0.7712
11494TIP3   OH255972   2.891   3.196  10.833 -0.3469  0.3495 -0.1075
11494TIP3    H155973   2.958   3.224  10.770 -0.1964 -0.0393 -0.1239
11494TIP3    H255974   2.941   3.167  10.910 -0.4918  0.0161 -0.1365
11495TIP3   OH255975   6.114   4.703   5.416 -0.0479 -0.2593  0.2712
11495TIP3    H155976   6.097   4.616   5.380  1.2951 -0.4169 -0.0426
11495TIP3    H255977   6.079   4.764   5.351  3.3819 -0.5064 -2.0980
11496TIP3   OH255978   6.736   5.478  11.569  0.0168  0.0486  0.0896
11496TIP3    H155979   6.771   5.450  11.654 -0.7818 -1.4976 -0.0443
11496TIP3    H255980   6.808   5.466  11.508  0.1610 -0.2385  0.3121
11497TIP3   OH255981   3.050   2.607   2.551  0.0595  0.0739 -0.5272
11497TIP3    H155982   3.125   2.641   2.599  0.6311  0.3967 -1.6132
11497TIP3    H255983   2.980   2.670   2.568  0.0775 -0.1232  0.3297
11498TIP3   OH255984   3.358   5.416   1.711 -0.0609  0.1854  0.0309
11498TIP3    H155985   3.395   5.408   1.799 -2.6323 -1.8299  1.0668
11498TIP3    H255986   3.285   5.477   1.721 -0.6137 -0.3542 -0.6025
11499TIP3   OH255987   6.541   0.674  14.681 -0.3277 -0.7832 -0.1685
11499TIP3    H155988   6.475   0.614  14.717  0.1609 -1.9070 -1.0612
11499TIP3    H255989   6.594   0.698  14.756 -0.7307 -1.2238  0.2704
11500TIP3   OH255990   0.581   3.328   0.684 -0.4017 -0.6345  0.7616
11500TIP3    H155991   0.596   3.238   0.655  2.3899 -0.2523  0.8072
11500TIP3    H255992   0.622   3.333   0.771  1.7667  1.2790 -0.2708
11501TIP3   OH255993   3.204   1.414  12.930  0.8077  0.1734  0.2073
11501TIP3    H155994   3.141   1.486  12.927 -1.0074 -1.3212  0.7543
11501TIP3    H255995   3.175   1.354  12.861  0.7861 -1.1786  1.3396
11502TIP3   OH255996   5.051   1.327   5.422 -0.4801  0.1333 -0.1503
11502TIP3    H155997   5.091   1.240   5.428 -0.6033  0.1674  1.7663
11502TIP3    H255998   4.986   1.329   5.493  0.1199  2.0727  0.4169
11503TIP3   OH255999   4.030   4.534  16.198  0.1296  0.2049 -0.1542
11503TIP3    H156000   4.030   4.573  16.285 -3.0750 -0.5610  0.2966
11503TIP3    H256001   4.122   4.512  16.182  1.0252  1.6807  2.3878
11504TIP3   OH256002   5.216   4.798  14.666  0.0935 -0.6673  0.2642
11504TIP3    H156003   5.166   4.785  14.584 -0.5662  1.0895  0.3422
11504TIP3    H256004   5.305   4.814  14.637 -0.1346 -0.0634 -0.1260
11505TIP3   OH256005   2.704   4.161   5.133  0.2159 -0.6006  0.4728
11505TIP3    H156006   2.661   4.228   5.078  1.0766 -0.3058  0.1388
11505TIP3    H256007   2.655   4.163   5.215 -1.3684 -1.3300 -0.3906
11506TIP3   OH256008   0.863   2.781  16.124 -0.2786 -0.2991 -0.3163
11506TIP3    H156009   0.838   2.845  16.190 -0.6933 -0.1480 -0.6130
11506TIP3    H256010   0.780   2.753  16.085  0.0638  1.0573 -2.1105
11507TIP3   OH256011   5.472   3.330   3.890  0.3199 -1.0241 -0.2647
11507TIP3    H156012   5.437   3.297   3.807 -0.6560 -1.7859  0.4318
11507TIP3    H256013   5.516   3.411   3.866 -2.3131  0.2634 -1.1539
11508TIP3   OH256014   1.178   0.907  16.925 -0.9197  0.0795  0.1538
11508TIP3    H156015   1.217   0.919  16.839  1.1856  0.2577  1.0617
11508TIP3    H256016   1.152   0.816  16.927 -2.9050  0.5511 -1.3619
11509TIP3   OH256017   5.089   5.196  15.391 -0.2045  0.1772  0.2397
11509TIP3    H156018   5.079   5.291  15.396 -1.4708  0.0474  0.3694
11509TIP3    H256019   5.023   5.162  15.451  1.2384 -0.7628  1.3604
11510TIP3   OH256020   2.986   3.831  12.649  0.4454  1.1278  0.3248
11510TIP3    H156021   3.078   3.855  12.659  0.7590  0.0899  0.1019
11510TIP3    H256022   2.987   3.765  12.580 -0.4980  1.2465  0.1889
11511TIP3   OH256023   3.578   6.486   5.337  0.7341 -0.4935  0.2402
11511TIP3    H156024   3.530   6.422   5.284 -0.5021  0.4866  0.1392
11511TIP3    H256025   3.513   6.552   5.361  1.5464 -0.2337  1.9224
11512TIP3   OH256026   5.432   0.058   4.763  0.4694 -0.1028 -0.5266
11512TIP3    H156027   5.338   0.069   4.745  0.2206 -1.8095 -0.4807
11512TIP3    H256028   5.459   0.142   4.800 -0.9912  0.5007 -0.7267
11513TIP3   OH256029   1.116   3.768  14.644  0.2814  0.1122 -0.0436
11513TIP3    H156030   1.117   3.692  14.703  1.7681 -0.0452 -0.2508
11513TIP3    H256031   1.095   3.842  14.701  1.2012 -0.1120  0.6017
11514TIP3   OH256032   4.085   2.306   3.897  0.1670 -0.4471  0.3532
11514TIP3    H156033   4.178   2.324   3.885 -0.1186  1.7129  0.8560
11514TIP3    H256034   4.078   2.274   3.987  0.1951  1.9758  1.2921
11515TIP3   OH256035   1.771   0.265   4.224  0.2767  0.4534  0.4760
11515TIP3    H156036   1.756   0.355   4.197 -0.2276  0.6643  1.4187
11515TIP3    H256037   1.711   0.252   4.298  0.2298 -0.6987  0.2505
11516TIP3   OH256038   5.638   6.428  16.080  0.6833 -0.0711 -0.0635
11516TIP3    H156039   5.690   6.398  16.154  1.1330  0.6617 -0.0758
11516TIP3    H256040   5.592   6.505  16.113 -0.5223 -0.7936 -0.0047
11517TIP3   OH256041   0.171   1.131  10.943  0.0048 -0.3739  0.3154
11517TIP3    H156042   0.117   1.146  10.865 -1.3906 -0.8774  1.1556
11517TIP3    H256043   0.234   1.064  10.916 -2.3703 -2.8254  0.4134
11518TIP3   OH256044   1.527   4.297  11.924 -0.2340  0.1322  0.2188
11518TIP3    H156045   1.590   4.311  11.995  1.0528  0.6044 -0.9733
11518TIP3    H256046   1.476   4.221  11.952  1.9309 -1.2984  0.5281
11519TIP3   OH256047   2.247   2.128   3.201 -0.2192 -0.9923 -0.2310
11519TIP3    H156048   2.303   2.054   3.177 -0.4323 -0.9698 -0.8127
11519TIP3    H256049   2.184   2.135   3.129 -1.3865 -1.4370  0.7052
11520TIP3   OH256050   4.446   3.112   2.198  0.2978  0.5332 -0.1144
11520TIP3    H156051   4.477   3.202   2.194  1.4714  0.1934  0.7173
11520TIP3    H256052   4.484   3.077   2.279  0.0750 -0.7735 -0.5489
11521TIP3   OH256053   3.790   4.609   5.303  0.3144  0.2411  1.0531
11521TIP3    H156054   3.854   4.625   5.372  1.5405  2.5242 -0.4875
11521TIP3    H256055   3.752   4.696   5.286 -0.9889 -0.5272 -0.1537
11522TIP3   OH256056   5.263   0.713  10.520 -0.4365  0.0312  0.2471
11522TIP3    H156057   5.232   0.669  10.598 -1.2960 -0.6599 -0.4611
11522TIP3    H256058   5.279   0.643  10.457  1.3150  0.4854  0.1478
11523TIP3   OH256059   0.156   4.294   1.521 -0.0589 -0.6618 -0.2821
11523TIP3    H156060   0.124   4.245   1.446 -3.2528  0.4966  0.1518
11523TIP3    H256061   0.222   4.353   1.485 -0.3613 -1.2633 -1.8820
11524TIP3   OH256062   6.617   5.195  15.007 -0.0993  0.3469  0.9106
11524TIP3    H156063   6.606   5.100  14.995  2.1580  0.2501 -1.3437
11524TIP3    H256064   6.708   5.204  15.037  0.9102  1.8878 -2.2285
11525TIP3   OH256065   3.649   6.512   1.275 -0.6874  0.2578 -0.2400
11525TIP3    H156066   3.580   6.569   1.239 -0.6933  0.6292  0.3424
11525TIP3    H256067   3.728   6.538   1.228 -0.7747  0.4376 -0.2905
11526TIP3   OH256068   5.227   4.841  12.352 -0.3303 -0.1281  0.2632
11526TIP3    H156069   5.319   4.818  12.365 -1.0055 -2.1908  2.2344
11526TIP3    H256070   5.196   4.778  12.287 -0.3297  0.6257 -0.4673
11527TIP3   OH256071   0.878   5.135   1.201 -0.1023 -0.2246 -0.3546
11527TIP3    H156072   0.964   5.178   1.203  0.5306 -1.4889  1.0410
11527TIP3    H256073   0.818   5.202   1.232  0.2514  0.8546 -1.8553
11528TIP3   OH256074   2.075   1.047  16.153 -0.0382 -0.2417  0.1420
11528TIP3    H156075   2.028   1.125  16.123 -0.1741 -0.7834 -1.1257
11528TIP3    H256076   2.072   1.053  16.249 -1.1851  0.6356  0.0831
11529TIP3   OH256077   3.484   0.685   6.724 -0.1057  0.3022 -0.2482
11529TIP3    H156078   3.541   0.681   6.647  0.8022  1.2101  0.3556
11529TIP3    H256079   3.539   0.656   6.797 -0.1667  1.8466  0.4499
11530TIP3   OH256080   4.501   5.337  13.445 -0.5522 -0.4650 -0.0243
11530TIP3    H156081   4.567   5.278  13.408  0.4468  1.0640 -0.7817
11530TIP3    H256082   4.425   5.281  13.462  0.3762 -1.9630 -0.6594
11531TIP3   OH256083   2.319   5.987  14.446 -0.1126 -0.0651  0.1642
11531TIP3    H156084   2.262   5.967  14.372 -0.5294 -0.3730  0.5600
11531TIP3    H256085   2.402   5.945  14.424 -1.2771 -3.4710  1.5046
11532TIP3   OH256086   4.979   5.344   4.460  0.4146 -0.5733  0.1747
11532TIP3    H156087   4.964   5.318   4.369 -0.3587  0.4033 -0.0050
11532TIP3    H256088   5.056   5.400   4.457 -0.7551  1.1110 -0.2446
11533TIP3   OH256089   3.775   1.402   4.971 -0.1259 -0.5975  0.3194
11533TIP3    H156090   3.695   1.356   4.946 -0.5255 -0.2805  1.0002
11533TIP3    H256091   3.817   1.344   5.035  0.5052 -1.0429 -0.4691
11534TIP3   OH256092   6.506   6.759   1.667 -0.1544 -0.0859  0.1318
11534TIP3    H156093   6.559   6.828   1.627 -0.0947  0.1861  0.6756
11534TIP3    H256094   6.442   6.805   1.721 -1.8629 -0.3545 -1.5589
11535TIP3   OH256095   5.913   6.313   2.037  0.3559  0.7467  0.4252
11535TIP3    H156096   5.986   6.372   2.016  0.1818  0.4072 -1.3529
11535TIP3    H256097   5.922   6.295   2.130  1.7263  1.8150  0.5283
11536TIP3   OH256098   1.125   1.038   2.523 -0.3018  0.2715  0.5247
11536TIP3    H156099   1.090   1.088   2.597 -0.2058 -0.4346  1.0644
11536TIP3    H256100   1.194   1.093   2.487  1.0339 -0.1880  2.2181
11537TIP3   OH256101   4.261   0.471   0.235 -0.0198 -0.0264 -0.4577
11537TIP3    H156102   4.246   0.488   0.328  1.5662 -2.0371  0.2226
11537TIP3    H256103   4.277   0.377   0.229 -1.6594 -0.2798 -3.0260
11538TIP3   OH256104   6.458   0.022  13.096  0.1976 -0.2536  0.1289
11538TIP3    H156105   6.468   0.107  13.139 -0.2515  0.3056 -0.8558
11538TIP3    H256106   6.399  -0.027  13.154 -0.7541  0.6484 -0.0461
11539TIP3   OH256107   1.494   0.703  14.697  0.1611 -0.5388 -0.0838
11539TIP3    H156108   1.494   0.754  14.778 -2.4617  0.8546 -0.8414
11539TIP3    H256109   1.536   0.761  14.633 -2.0824  0.4614 -0.7525
11540TIP3   OH256110   1.815   1.306  16.079  0.3790  0.7017  0.1703
11540TIP3    H156111   1.771   1.384  16.111 -0.1761  0.0453  1.0444
11540TIP3    H256112   1.857   1.334  15.998 -0.0555  1.8260  0.3148
11541TIP3   OH256113   4.500   4.152  16.684  0.0887 -0.2322  0.0983
11541TIP3    H156114   4.562   4.133  16.755  0.4092  1.7339  0.3954
11541TIP3    H256115   4.528   4.096  16.612  1.2494 -0.5141  0.7461
11542TIP3   OH256116   1.948   3.280  17.172 -0.2363  0.1019 -0.4712
11542TIP3    H156117   1.888   3.322  17.234 -1.3878 -0.3606 -1.2250
11542TIP3    H256118   1.903   3.286  17.088  0.9929  0.1158 -1.1409
11543TIP3   OH256119   3.774   6.073   1.531 -1.2657  0.1341  0.0117
11543TIP3    H156120   3.836   6.056   1.601 -0.3280  0.6045 -0.6749
11543TIP3    H256121   3.782   6.167   1.513  0.8043 -0.4304 -2.7455
11544TIP3   OH256122   1.274   6.415  12.762  0.3949  0.2917  0.2249
11544TIP3    H156123   1.332   6.341  12.744  0.1597  0.2275 -0.2782
11544TIP3    H256124   1.204   6.407  12.698  0.2886  0.8660  0.2624
11545TIP3   OH256125   6.029   6.628  12.425 -0.6128 -0.1879  0.0963
11545TIP3    H156126   5.965   6.559  12.412  1.0865 -2.1466  1.5735
11545TIP3    H256127   6.081   6.628  12.345 -0.7819 -0.3971 -0.0137
11546TIP3   OH256128   4.128   6.183  13.800 -0.1120  0.5317  0.4824
11546TIP3    H156129   4.103   6.224  13.882 -0.7988 -0.1825  0.6330
11546TIP3    H256130   4.173   6.253  13.751 -0.8848  1.3335  0.9028
11547TIP3   OH256131   1.626   0.742  11.021  0.2349  0.0092  0.0538
11547TIP3    H156132   1.554   0.754  11.083  0.0336  0.7232 -0.3144
11547TIP3    H256133   1.584   0.702  10.944  0.0718  1.1731 -0.4773
11548TIP3   OH256134   3.674   2.249  14.295 -0.4737  0.1494  0.0710
11548TIP3    H156135   3.695   2.342  14.302  1.9778 -0.2547 -0.8889
11548TIP3    H256136   3.682   2.216  14.384  1.4484  0.3646  0.0082
11549TIP3   OH256137   0.586   5.000  15.606  0.6468  0.1625  0.7317
11549TIP3    H156138   0.518   5.067  15.610  2.7744  2.6679 -1.4088
11549TIP3    H256139   0.662   5.041  15.647  1.9045 -1.0933 -0.2720
11550TIP3   OH256140   2.600   6.317  15.790 -0.2621  0.0012 -0.1073
11550TIP3    H156141   2.505   6.306  15.791 -0.2026 -0.5462  0.0268
11550TIP3    H256142   2.617   6.376  15.716 -0.6291 -0.7498 -0.8160
11551TIP3   OH256143   4.858   2.537  14.563 -0.8934  0.1037  0.0903
11551TIP3    H156144   4.798   2.502  14.630 -1.5424 -0.9385 -0.9812
11551TIP3    H256145   4.897   2.459  14.524 -0.3106  0.7025 -0.5454
11552TIP3   OH256146   3.199   5.992   1.368  0.6213 -0.0410 -0.0194
11552TIP3    H156147   3.198   5.978   1.463  0.2099 -0.0926 -0.0314
11552TIP3    H256148   3.286   5.963   1.341  0.1530 -1.6606  0.0990
11553TIP3   OH256149   3.848   5.191   5.970  0.2620 -0.6260 -0.0330
11553TIP3    H156150   3.782   5.259   5.978  1.2603  0.5190 -1.1460
11553TIP3    H256151   3.827   5.147   5.887 -0.7340 -2.1157  0.9600
11554TIP3   OH256152   4.042   6.655   5.037  0.2037 -0.6482  0.2224
11554TIP3    H156153   4.008   6.608   5.112  0.3013 -1.5486 -0.2846
11554TIP3    H256154   4.138   6.652   5.047  0.2102 -0.5560  0.1923
11555TIP3   OH256155   2.952   5.768  12.125  0.1589 -0.2802 -0.3030
11555TIP3    H156156   2.931   5.801  12.038 -0.8020 -0.1557 -0.0363
11555TIP3    H256157   2.867   5.740  12.161  0.4709  0.1123  0.7700
11556TIP3   OH256158   6.752   4.685  12.051  0.4989 -0.1241  0.3179
11556TIP3    H156159   6.840   4.669  12.086  1.0087 -0.9175 -1.2495
11556TIP3    H256160   6.766   4.703  11.958 -1.1261 -1.9342 -0.3382
11557TIP3   OH256161   5.141   3.252   2.715 -0.1429  0.0018  0.2749
11557TIP3    H156162   5.232   3.246   2.687  0.4835 -0.3115  2.2227
11557TIP3    H256163   5.114   3.342   2.693  1.2694  0.7385  1.4029
11558TIP3   OH256164   6.296   3.406  11.620  0.5605  0.4015 -0.1697
11558TIP3    H156165   6.305   3.319  11.581  1.6222  1.1510 -1.7114
11558TIP3    H256166   6.271   3.390  11.710 -1.3926 -1.4467 -0.9702
11559TIP3   OH256167   4.794   4.080   1.676 -0.0324  0.6938 -0.1079
11559TIP3    H156168   4.808   4.107   1.766 -0.1998 -1.3967  0.5981
11559TIP3    H256169   4.735   4.147   1.640 -0.2338  1.3823  1.4140
11560TIP3   OH256170   1.247   2.061  11.343 -0.5359 -0.3421  0.1046
11560TIP3    H156171   1.194   2.094  11.415 -0.7470  1.4254 -0.8068
11560TIP3    H256172   1.195   2.078  11.264  0.7287  0.0330 -0.6768
11561TIP3   OH256173   0.380   6.486  13.230 -0.0322 -0.0265 -0.2081
11561TIP3    H156174   0.327   6.558  13.265 -0.8880  0.4449 -2.2618
11561TIP3    H256175   0.402   6.515  13.141 -1.8563 -2.9396 -1.7601
11562TIP3   OH256176   2.558   0.774  16.006 -0.4074  0.4361 -0.5389
11562TIP3    H156177   2.508   0.704  15.965  0.9357 -1.4892  0.8982
11562TIP3    H256178   2.514   0.788  16.090 -0.9643  1.7328 -1.0171
11563TIP3   OH256179   1.094   5.506  16.257 -0.1233 -0.1331 -0.1985
11563TIP3    H156180   1.103   5.521  16.163  1.0990 -0.4841 -0.1564
11563TIP3    H256181   1.028   5.437  16.265  0.5992 -0.9167 -0.8705
11564TIP3   OH256182   3.563   3.061   3.579 -0.1624  0.6946 -0.2935
11564TIP3    H156183   3.561   3.152   3.550 -1.1959  1.1201  1.0505
11564TIP3    H256184   3.597   3.065   3.668 -0.3332 -0.2240 -0.1789
11565TIP3   OH256185   2.975   2.246  13.817  0.0461  1.0707 -0.3209
11565TIP3    H156186   2.901   2.294  13.855 -0.9304  0.0150 -0.8587
11565TIP3    H256187   3.051   2.280  13.864 -0.8961  1.3408  1.0808
11566TIP3   OH256188   1.343   5.687   5.119  0.1862  0.0481  0.1952
11566TIP3    H156189   1.365   5.753   5.053  1.7415  0.4100  1.0344
11566TIP3    H256190   1.392   5.610   5.093  0.7398  0.1655  0.8682
11567TIP3   OH256191   1.967   4.778   6.469  0.2092  0.0602 -0.8854
11567TIP3    H156192   2.030   4.709   6.449  0.6623  0.9577 -2.7756
11567TIP3    H256193   1.892   4.760   6.412  0.1128  0.8253 -1.0177
11568TIP3   OH256194   6.025   5.701   1.234  0.5391 -0.1232  0.1785
11568TIP3    H156195   6.098   5.676   1.291  0.8778  0.9933  0.2501
11568TIP3    H256196   6.062   5.767   1.175 -0.8032  1.7845  1.3587
11569TIP3   OH256197   3.179   5.762  13.155 -0.2565 -0.7703 -0.0673
11569TIP3    H156198   3.100   5.766  13.102  0.2290 -2.2860 -0.9522
11569TIP3    H256199   3.247   5.731  13.095  0.1156 -3.4921  1.6138
11570TIP3   OH256200   1.912   2.012   4.762  0.2687 -0.0550 -0.6032
11570TIP3    H156201   1.833   2.060   4.786  1.1263  1.7304 -1.1895
11570TIP3    H256202   1.882   1.943   4.703 -1.1725 -1.2283  1.3618
11571TIP3   OH256203   3.664   1.274  16.942  0.2674 -0.1846  1.3252
11571TIP3    H156204   3.626   1.360  16.925 -2.1856 -1.3766  0.1870
11571TIP3    H256205   3.741   1.270  16.887 -1.6637  0.0011 -1.6182
11572TIP3   OH256206   4.270   6.191   2.437 -0.3017 -0.1528 -0.7257
11572TIP3    H156207   4.250   6.255   2.369  2.2201  0.3804 -1.0595
11572TIP3    H256208   4.343   6.230   2.486 -1.3031 -1.0273  1.6146
11573TIP3   OH256209   6.623   1.745  12.139  0.0585  0.5953 -0.1531
11573TIP3    H156210   6.633   1.718  12.230 -0.1816  1.1696  0.0483
11573TIP3    H256211   6.627   1.840  12.141 -1.6111  0.7182 -0.5034
11574TIP3   OH256212   4.232   3.996   1.099  0.4271 -0.1382 -0.2731
11574TIP3    H156213   4.277   4.047   1.166  1.3269 -0.9875 -0.2062
11574TIP3    H256214   4.253   3.905   1.119 -0.8042 -0.5308 -0.6382
11575TIP3   OH256215   0.892   3.703  13.489  0.6442  0.1595 -0.1304
11575TIP3    H156216   0.897   3.740  13.576  0.0338 -1.7456  0.7758
11575TIP3    H256217   0.847   3.769  13.436  1.9075  1.7632  0.7016
11576TIP3   OH256218   3.691   1.728   1.541 -0.0197 -0.4772 -0.6875
11576TIP3    H156219   3.702   1.817   1.573  1.3003 -0.3938 -1.3116
11576TIP3    H256220   3.614   1.695   1.588  0.4861  0.4110  0.8509
11577TIP3   OH256221   6.063   4.865   5.181  0.0494 -0.1776  0.6067
11577TIP3    H156222   6.026   4.952   5.196 -0.6336 -0.1921 -0.8592
11577TIP3    H256223   6.155   4.881   5.163 -0.3505  0.4226 -1.0826
11578TIP3   OH256224   4.882   3.693   3.419  0.2690  0.1683  0.5835
11578TIP3    H156225   4.961   3.640   3.425 -0.1901 -0.6327 -0.3018
11578TIP3    H256226   4.814   3.640   3.460 -0.8011 -1.2235 -2.6521
11579TIP3   OH256227   3.309   0.654  16.038  0.3128 -0.8556  0.1517
11579TIP3    H156228   3.329   0.691  16.124 -2.3505 -1.8011  1.2721
11579TIP3    H256229   3.334   0.723  15.976  0.4916  0.6319  1.8108
11580TIP3   OH256230   5.338   0.648  12.634 -0.5013 -0.4521 -0.1890
11580TIP3    H156231   5.399   0.696  12.578 -2.1236  1.7379 -0.2211
11580TIP3    H256232   5.394   0.604  12.698  1.2173 -0.5387 -1.6462
11581TIP3   OH256233   1.226   3.160   2.978  0.3234 -0.3939  0.0031
11581TIP3    H156234   1.276   3.188   2.902 -0.5158  1.5527  0.1204
11581TIP3    H256235   1.140   3.200   2.966  0.3545  0.4890  2.2782
11582TIP3   OH256236   5.964   5.749  16.406 -0.2816  0.3452 -0.5847
11582TIP3    H156237   5.933   5.775  16.493 -1.0414 -1.4794 -0.2423
11582TIP3    H256238   5.910   5.800  16.345 -1.9838 -0.5960  0.0376
11583TIP3   OH256239   4.106   5.325   1.975 -0.2208 -0.3246 -0.1347
11583TIP3    H156240   4.021   5.359   2.005 -0.7106 -1.6584  0.0817
11583TIP3    H256241   4.110   5.237   2.012  0.6005 -0.8298 -1.3693
11584TIP3   OH256242   4.113   2.103   3.686 -0.0815  0.2186  0.1877
11584TIP3    H156243   4.103   2.144   3.600 -0.5096 -0.4889 -0.1044
11584TIP3    H256244   4.079   2.169   3.748  0.2037  0.7163 -0.1793
11585TIP3   OH256245   6.684   5.810  16.666  0.1200 -0.0955  0.3794
11585TIP3    H156246   6.720   5.825  16.754  0.8276 -1.3939  0.3356
11585TIP3    H256247   6.590   5.798  16.681  0.1810  0.0434  0.9102
11586TIP3   OH256248   5.007   4.506  12.398 -0.5547 -0.3397 -0.4956
11586TIP3    H156249   5.061   4.567  12.448 -0.8889  0.1280 -0.6975
11586TIP3    H256250   4.944   4.562  12.352  0.1573 -0.7039 -1.9702
11587TIP3   OH256251   4.829   3.074   5.512 -0.4280  0.0234 -0.4470
11587TIP3    H156252   4.894   3.078   5.441 -0.8159 -0.4785 -0.8459
11587TIP3    H256253   4.855   3.143   5.572  0.7872 -0.4880 -0.3382
11588TIP3   OH256254   1.217   5.539   3.612 -0.0702  0.4122 -0.4587
11588TIP3    H156255   1.258   5.624   3.627  0.3860  0.3900 -1.5031
11588TIP3    H256256   1.151   5.532   3.681 -1.1283  2.2614 -1.2273
11589TIP3   OH256257   2.870   4.151   3.697  0.4696 -0.1198  0.2841
11589TIP3    H156258   2.790   4.180   3.742 -1.1358 -2.3056 -0.9606
11589TIP3    H256259   2.883   4.216   3.628  0.4736  0.8942  1.2105
11590TIP3   OH256260   2.532   2.178   5.773  0.1097  0.0220  0.1905
11590TIP3    H156261   2.576   2.256   5.806 -0.0651 -0.0721  0.6678
11590TIP3    H256262   2.497   2.136   5.852  0.0722 -0.4545 -0.0757
11591TIP3   OH256263   2.432   2.622  13.914  0.0453 -0.0889  0.0356
11591TIP3    H156264   2.442   2.688  13.846  2.5278 -0.7223 -0.3111
11591TIP3    H256265   2.384   2.550  13.872  0.5852 -0.0155 -0.7134
11592TIP3   OH256266   2.302   1.198   3.602 -0.2728  0.1777 -0.0912
11592TIP3    H156267   2.287   1.292   3.588 -0.1182  0.1908 -0.1819
11592TIP3    H256268   2.375   1.195   3.664  1.1889  0.1368 -1.7087
11593TIP3   OH256269   6.467   2.216  16.891 -0.3056 -0.6299  0.0352
11593TIP3    H156270   6.468   2.152  16.962  2.1130  0.9237  1.5403
11593TIP3    H256271   6.441   2.298  16.934 -0.3222  0.0316 -1.2030
11594TIP3   OH256272   5.531   2.230   3.538  0.0673  0.4069  0.1171
11594TIP3    H156273   5.579   2.224   3.456  0.9988 -0.9099  0.7196
11594TIP3    H256274   5.499   2.141   3.553 -0.4226  0.7157  0.9970
11595TIP3   OH256275   3.719   1.157  15.745  0.0285 -0.1013 -0.4279
11595TIP3    H156276   3.746   1.172  15.654 -0.6134  0.4047 -0.5405
11595TIP3    H256277   3.799   1.126  15.789 -0.0417 -2.0479 -1.5433
11596TIP3   OH256278   4.805   0.872  12.382  0.0210 -0.9771  0.1338
11596TIP3    H156279   4.851   0.947  12.418 -0.8301 -0.9784  1.2793
11596TIP3    H256280   4.874   0.815  12.348  0.6671  0.4243 -1.0341
11597TIP3   OH256281   3.029   1.859  12.700 -0.0893  0.0579 -0.2066
11597TIP3    H156282   2.946   1.881  12.742 -0.0939  0.8531 -0.6178
11597TIP3    H256283   3.078   1.941  12.699 -0.2883  0.1944 -2.2108
11598TIP3   OH256284   5.610   2.989  13.818  0.0753 -0.0907  0.2010
11598TIP3    H156285   5.586   2.968  13.908  2.3401 -0.0274  0.9000
11598TIP3    H256286   5.665   3.067  13.826 -0.7560  0.6867 -1.3876
11599TIP3   OH256287   3.706   5.537   0.853 -0.2412  0.4500 -1.1047
11599TIP3    H156288   3.708   5.622   0.809 -0.4265  1.1245  0.1398
11599TIP3    H256289   3.795   5.524   0.885 -0.2737  0.2946 -1.0767
11600TIP3   OH256290   3.098   1.984  15.016  0.4564  0.0450  0.5544
11600TIP3    H156291   3.023   2.037  15.043 -0.8801 -0.7225 -1.3498
11600TIP3    H256292   3.144   1.963  15.097 -1.4054  0.5540  1.8116
11601TIP3   OH256293   4.771   2.021   4.272  0.5261 -0.1274  0.1258
11601TIP3    H156294   4.865   2.038   4.284  0.3265  0.0079  1.6388
11601TIP3    H256295   4.760   1.929   4.295  0.3640 -0.3039 -0.6224
11602TIP3   OH256296   4.426   3.733   1.909 -0.0721 -0.2065 -0.6063
11602TIP3    H156297   4.383   3.659   1.953  0.5230 -0.8974 -1.1486
11602TIP3    H256298   4.402   3.723   1.817 -1.1070  1.0826 -0.5087
11603TIP3   OH256299   3.576   4.146  14.671  0.0208 -0.1054 -0.6922
11603TIP3    H156300   3.525   4.227  14.674 -0.6336 -0.4671 -1.8302
11603TIP3    H256301   3.648   4.166  14.611 -0.2902 -0.4454 -1.1822
11604TIP3   OH256302   4.044   1.635   5.692 -0.2733 -0.1868 -0.0714
11604TIP3    H156303   3.960   1.615   5.733 -0.3272  0.5731  0.2000
11604TIP3    H256304   4.106   1.637   5.765 -0.3474  1.0461 -0.0300
11605TIP3   OH256305   3.373   6.472  12.822  0.6255 -0.1199 -0.0263
11605TIP3    H156306   3.323   6.548  12.853  2.0629  0.5310  0.7897
11605TIP3    H256307   3.431   6.450  12.895  1.1184 -1.2175 -0.7303
11606TIP3   OH256308   1.369   1.779   3.352  0.0980  0.1349 -0.4553
11606TIP3    H156309   1.314   1.851   3.324 -0.9258  0.7130  2.6328
11606TIP3    H256310   1.312   1.726   3.409  1.7783 -1.1357  0.1398
11607TIP3   OH256311   5.973   1.520   5.531  0.6994  0.2006  0.2803
11607TIP3    H156312   6.006   1.575   5.602 -0.0454 -0.2334  0.9797
11607TIP3    H256313   5.911   1.577   5.484  0.0149  0.0155  0.9351
11608TIP3   OH256314   0.860   2.675  14.184 -0.4296 -0.1008 -0.3890
11608TIP3    H156315   0.795   2.746  14.177 -0.5984  0.0175  1.7370
11608TIP3    H256316   0.911   2.697  14.262 -1.2559 -2.8924  1.0642
11609TIP3   OH256317   5.545   0.813  12.549  0.5418 -1.1597 -0.1335
11609TIP3    H156318   5.630   0.771  12.541  1.4511  0.5958 -0.3478
11609TIP3    H256319   5.550   0.889  12.491  0.1373  0.9201  2.3298
11610TIP3   OH256320   4.240   1.146  12.695 -0.4449 -0.7931 -0.2485
11610TIP3    H156321   4.282   1.232  12.700  1.0735 -1.5504  0.6928
11610TIP3    H256322   4.289   1.099  12.627 -2.5181 -0.3349 -2.2184
11611TIP3   OH256323   5.218   4.983   4.782 -0.2360  0.2873 -0.0769
11611TIP3    H156324   5.178   5.065   4.811  1.0838  0.6616  0.7977
11611TIP3    H256325   5.269   4.953   4.857 -0.0410 -0.9194 -0.6564
11612TIP3   OH256326   0.828   0.442   3.187 -0.4221  0.2881 -0.4849
11612TIP3    H156327   0.911   0.403   3.159 -0.3677  1.1766 -1.6504
11612TIP3    H256328   0.851   0.500   3.259 -0.5718 -2.1056  1.6248
11613TIP3   OH256329   0.170   4.609  12.145 -0.2764  0.5874 -0.5174
11613TIP3    H156330   0.215   4.683  12.184  0.9039  0.2001 -1.0786
11613TIP3    H256331   0.235   4.539  12.145 -1.3795 -0.4728  0.0587
11614TIP3   OH256332   1.085   0.105   3.383  0.1440  0.0178 -0.1392
11614TIP3    H156333   1.148   0.154   3.330 -0.6973  0.7293 -0.5218
11614TIP3    H256334   1.092   0.143   3.471 -0.9283  1.3213 -0.5623
11615TIP3   OH256335   5.575   3.451  11.954  0.0166  0.5223  0.4716
11615TIP3    H156336   5.539   3.363  11.962 -0.7763  0.9216  1.3571
11615TIP3    H256337   5.670   3.437  11.955 -0.0890 -0.2771  1.2306
11616TIP3   OH256338   1.234   2.348  17.193  0.7844  1.2140 -0.0409
11616TIP3    H156339   1.232   2.253  17.176 -0.0459  1.5106 -1.9016
11616TIP3    H256340   1.161   2.364  17.252 -1.0366  1.0152 -2.0842
11617TIP3   OH256341   4.554   1.431  10.599 -0.2116  0.1697  0.6578
11617TIP3    H156342   4.527   1.522  10.609  1.6826  0.6539  1.8978
11617TIP3    H256343   4.507   1.384  10.668 -0.9483  0.2411  0.2169
11618TIP3   OH256344   5.606   1.077  11.247 -0.3277  0.3633  0.1650
11618TIP3    H156345   5.589   1.145  11.312  0.1472  0.1285  0.5454
11618TIP3    H256346   5.559   1.105  11.169 -0.5528  0.8674  0.4807
11619TIP3   OH256347   2.069   2.746  16.127  0.4803  0.2927 -0.0338
11619TIP3    H156348   2.072   2.768  16.220  1.0194  0.6085 -0.1238
11619TIP3    H256349   2.146   2.789  16.089  0.0528  0.4913 -0.6948
11620TIP3   OH256350   0.843   6.625  11.449 -0.1822 -0.2554 -0.8248
11620TIP3    H156351   0.912   6.560  11.463 -0.8937 -0.7972  0.3389
11620TIP3    H256352   0.883   6.691  11.392  0.8912 -1.1743 -1.1600
11621TIP3   OH256353   4.781   5.131  13.735  0.3891 -0.2732  0.1450
11621TIP3    H156354   4.726   5.069  13.783 -0.8214  0.7083  0.0626
11621TIP3    H256355   4.842   5.075  13.687  1.3348 -1.3096  2.3919
11622TIP3   OH256356   1.990   1.311  12.684 -0.1735 -0.0809 -0.6999
11622TIP3    H156357   1.903   1.293  12.721  0.1438  1.2717  0.8209
11622TIP3    H256358   2.018   1.228  12.646 -1.2541 -1.1023  0.6466
11623TIP3   OH256359   5.905   2.393   1.362 -0.0958 -0.3149  0.1431
11623TIP3    H156360   5.870   2.478   1.335  0.0852  0.6252  2.6431
11623TIP3    H256361   5.980   2.379   1.303 -0.2477  1.1499 -0.4546
11624TIP3   OH256362   3.340   5.504   2.907  0.8146 -0.4011 -0.1143
11624TIP3    H156363   3.272   5.476   2.845 -1.5637  1.5803  1.3897
11624TIP3    H256364   3.319   5.459   2.988  2.3272 -0.9847 -0.0194
11625TIP3   OH256365   1.501   3.134  11.920  0.4087  0.8198  0.1074
11625TIP3    H156366   1.433   3.201  11.915 -1.1020 -0.5533  1.2845
11625TIP3    H256367   1.554   3.160  11.996 -0.0273  0.8060  0.4191
11626TIP3   OH256368   5.956   6.064   1.520  0.3912 -0.3531  0.0115
11626TIP3    H156369   5.862   6.065   1.500  0.3531  1.7808  0.0856
11626TIP3    H256370   5.962   6.089   1.612  1.0504 -0.4921  0.0127
11627TIP3   OH256371   6.337   6.386  10.647 -0.2472  0.4964  0.2172
11627TIP3    H156372   6.277   6.339  10.705 -1.9428  0.2905 -1.5605
11627TIP3    H256373   6.296   6.472  10.636 -0.8524 -0.0060 -1.8533
11628TIP3   OH256374   3.495   3.585   0.297 -0.1027 -0.9613  0.1315
11628TIP3    H156375   3.582   3.625   0.300 -0.1060 -0.9702  2.2460
11628TIP3    H256376   3.499   3.521   0.227  1.3997 -0.5342 -0.1965
11629TIP3   OH256377   3.541   1.671  16.362 -0.1767 -0.7590  0.6215
11629TIP3    H156378   3.516   1.736  16.297 -0.1427 -0.2827  1.0802
11629TIP3    H256379   3.457   1.638  16.395 -0.2988  1.4798  2.8110
11630TIP3   OH256380   6.317   4.392  12.579  0.4133 -0.5748 -0.1714
11630TIP3    H156381   6.340   4.411  12.670 -0.4607 -0.2340 -0.0085
11630TIP3    H256382   6.300   4.298  12.577 -0.0689 -0.5000  0.1428
11631TIP3   OH256383   2.114   1.860  14.743  0.2349  0.0056  0.0408
11631TIP3    H156384   2.115   1.794  14.812 -0.7126 -1.6944 -1.4785
11631TIP3    H256385   2.199   1.849  14.699  0.7467  0.9381  0.7614
11632TIP3   OH256386   1.266   3.000   3.437  0.3642  0.0682  0.0094
11632TIP3    H156387   1.306   3.012   3.351 -0.1378  1.0220 -0.1120
11632TIP3    H256388   1.192   2.941   3.422 -0.7920  1.6129 -0.5713
11633TIP3   OH256389   4.329   2.577  13.477 -0.1441  0.2302  0.9150
11633TIP3    H156390   4.258   2.522  13.508  1.1680 -1.5382  0.8937
11633TIP3    H256391   4.313   2.587  13.383  0.1662 -1.0393  0.7094
11634TIP3   OH256392   5.018   0.315   1.319  0.1419 -0.4390 -0.3349
11634TIP3    H156393   5.093   0.374   1.323 -2.4081  3.0851  1.1390
11634TIP3    H256394   5.042   0.241   1.375  3.1347 -0.4344 -1.4386
11635TIP3   OH256395   4.866   3.844  16.688 -0.0740 -0.7233 -0.3537
11635TIP3    H156396   4.894   3.847  16.780 -2.0784 -0.5458  0.2937
11635TIP3    H256397   4.905   3.923  16.649 -1.0992  0.4907  0.9656
11636TIP3   OH256398   1.782   4.179  10.645 -0.1934 -0.1933 -0.2550
11636TIP3    H156399   1.707   4.123  10.626  1.4180 -2.8810  0.7658
11636TIP3    H256400   1.836   4.128  10.705  1.7072  2.2782  0.3080
11637TIP3   OH256401   2.044   1.043   2.720 -0.0600  0.0674 -0.3506
11637TIP3    H156402   2.136   1.063   2.739 -0.2752  1.4541 -0.6544
11637TIP3    H256403   1.995   1.084   2.792 -0.3894 -1.6366  0.4298
11638TIP3   OH256404   5.315   1.839   3.594  0.1982  0.2365 -0.1051
11638TIP3    H156405   5.246   1.893   3.557  0.0638  0.7633  0.8705
11638TIP3    H256406   5.279   1.808   3.677  0.7172 -0.4012 -0.1095
11639TIP3   OH256407   1.064   4.007   1.227  0.6616  0.3235 -0.4865
11639TIP3    H156408   1.040   4.037   1.139  1.7349 -1.0996 -1.3022
11639TIP3    H256409   1.039   4.079   1.285  1.3018  1.9308 -2.1266
11640TIP3   OH256410   3.485   0.185   3.375  0.6308  0.7246 -0.1782
11640TIP3    H156411   3.534   0.260   3.409 -0.0776  0.5694  1.2247
11640TIP3    H256412   3.504   0.185   3.281  3.2717  0.6858  0.2867
11641TIP3   OH256413   1.355   6.422  15.331 -0.0178  0.9306  0.1393
11641TIP3    H156414   1.325   6.336  15.358 -2.2839  1.1241 -1.4626
11641TIP3    H256415   1.341   6.478  15.407  1.2948 -0.0126  1.1240
11642TIP3   OH256416   6.257   2.952   5.644 -0.1136 -0.2256  0.3804
11642TIP3    H156417   6.192   2.957   5.574 -0.0943 -2.4733  0.1474
11642TIP3    H256418   6.231   2.878   5.697  1.1725  0.0266  1.4328
11643TIP3   OH256419   0.800   5.823   6.285  0.5858  0.3241 -0.2143
11643TIP3    H156420   0.852   5.866   6.217  1.0924 -1.1907 -0.8361
11643TIP3    H256421   0.751   5.894   6.326  0.7269  1.3754 -1.7557
11644TIP3   OH256422   2.862   3.543   0.979  0.2037 -0.0408 -0.1001
11644TIP3    H156423   2.774   3.535   0.941 -0.3780 -1.8399  1.4645
11644TIP3    H256424   2.919   3.498   0.917 -0.3167 -0.6011 -0.1884
11645TIP3   OH256425   2.763   6.577  15.646  0.5694  0.2148  0.2402
11645TIP3    H156426   2.849   6.618  15.654  0.8560 -0.5349  1.2848
11645TIP3    H256427   2.773   6.516  15.573  0.2256  1.7520 -1.1271
11646TIP3   OH256428   6.728   4.952  14.703  0.3982 -0.0280 -0.2698
11646TIP3    H156429   6.752   4.863  14.679  0.4332 -0.0100 -0.3009
11646TIP3    H256430   6.699   4.993  14.621  0.0579 -0.1139 -0.1968
11647TIP3   OH256431   4.225   3.400   3.075  1.0402  0.2834  0.0628
11647TIP3    H156432   4.191   3.489   3.087  1.1522  0.1961  1.1056
11647TIP3    H256433   4.169   3.346   3.130 -0.3927 -0.6395 -2.1646
11648TIP3   OH256434   5.072   0.929  14.686 -0.2810 -0.1838 -0.2478
11648TIP3    H156435   5.102   0.958  14.600  1.7196 -0.3189  0.3556
11648TIP3    H256436   4.981   0.958  14.691 -0.8589 -1.2407 -2.8716
11649TIP3   OH256437   1.303   3.503   5.770 -0.1877  0.1377 -0.1259
11649TIP3    H156438   1.353   3.583   5.787  0.6873 -0.5510  0.6821
11649TIP3    H256439   1.212   3.530   5.775  0.0848  0.9523  0.8635
11650TIP3   OH256440   3.547   6.127   6.372 -0.2882  0.3921  0.4011
11650TIP3    H156441   3.558   6.101   6.280 -3.1000  1.0020 -0.1742
11650TIP3    H256442   3.598   6.062   6.420 -1.2039 -1.8385 -1.4209
11651TIP3   OH256443   0.554   1.206   0.281 -0.1057  0.6259 -0.2119
11651TIP3    H156444   0.482   1.210   0.219  0.2919  0.3781 -0.7038
11651TIP3    H256445   0.606   1.284   0.263  1.2538 -0.5585 -1.7817
11652TIP3   OH256446   0.420   1.471   4.238 -0.3436  0.6685  0.0407
11652TIP3    H156447   0.468   1.551   4.215 -0.5147  1.2479  1.5787
11652TIP3    H256448   0.464   1.439   4.317  0.0162 -1.0439 -0.8056
11653TIP3   OH256449   5.903   0.823   2.029 -0.6639  0.6176 -0.0017
11653TIP3    H156450   5.962   0.888   1.992  2.8362 -2.1105  0.3233
11653TIP3    H256451   5.930   0.814   2.121 -1.7144 -0.5614  0.2271
11654TIP3   OH256452   4.253   4.565   3.647  0.3952 -0.2953 -0.0471
11654TIP3    H156453   4.227   4.657   3.652  0.7491 -0.2676  2.5581
11654TIP3    H256454   4.182   4.522   3.599 -0.5051  1.0770  0.0174
11655TIP3   OH256455   2.048   6.666  15.286  0.5255  0.0156  0.2748
11655TIP3    H156456   1.994   6.604  15.334  0.7084  0.4181  1.0184
11655TIP3    H256457   1.987   6.713  15.229  0.2593 -0.2311  0.3568
11656TIP3   OH256458   1.697   6.778   4.045  0.5815 -0.6264  0.3892
11656TIP3    H156459   1.762   6.730   3.993  0.4035  0.3371 -0.7747
11656TIP3    H256460   1.683   6.859   3.996  0.4032  0.3272  1.9755
11657TIP3   OH256461   3.550   1.544  16.939  0.0536 -0.4431  0.2831
11657TIP3    H156462   3.491   1.547  16.864  1.3306  0.3116 -0.7391
11657TIP3    H256463   3.493   1.539  17.015 -1.2726 -1.6608 -0.7491
11658TIP3   OH256464   6.788   4.709  14.334  0.1109 -0.1392  0.3314
11658TIP3    H156465   6.706   4.758  14.335  1.2115  1.7792  0.4280
11658TIP3    H256466   6.763   4.620  14.358 -2.1034  0.1106 -0.8172
11659TIP3   OH256467   6.408   1.992  14.804  0.6551  0.3474  0.1872
11659TIP3    H156468   6.327   1.948  14.777  0.7159 -1.4347  2.5705
11659TIP3    H256469   6.478   1.934  14.774  0.8953  0.4631  0.5111
11660TIP3   OH256470   2.587   5.029   3.249  0.1992  0.2371  0.0065
11660TIP3    H156471   2.576   5.124   3.244 -1.3968  0.0948  0.3407
11660TIP3    H256472   2.543   4.996   3.170 -0.9095 -0.3175  0.8266
11661TIP3   OH256473   2.902   2.572   3.633  0.2106 -0.0374 -0.2105
11661TIP3    H156474   2.961   2.501   3.660  0.6809 -0.0071 -1.1338
11661TIP3    H256475   2.822   2.557   3.684  1.3630  0.5565  1.9112
11662TIP3   OH256476   5.928   6.765   4.532 -0.0348  0.0989  0.0331
11662TIP3    H156477   6.019   6.738   4.542  0.4461  2.0314  1.6522
11662TIP3    H256478   5.908   6.810   4.615 -2.6282 -0.7222 -0.0662
11663TIP3   OH256479   6.766   6.659   4.453 -0.0599 -0.1114 -0.4400
11663TIP3    H156480   6.682   6.627   4.487  0.3836  0.1306  0.9541
11663TIP3    H256481   6.787   6.734   4.509  1.5244 -0.7307 -0.1486
11664TIP3   OH256482   0.712   4.300  14.282  0.2418  0.2096  0.0197
11664TIP3    H156483   0.664   4.382  14.269  2.6134  1.6628 -0.2704
11664TIP3    H256484   0.668   4.237  14.224 -1.1857  1.4698 -0.3277
11665TIP3   OH256485   1.247   6.164   1.078 -0.3236 -0.3414 -0.4532
11665TIP3    H156486   1.234   6.201   0.991 -1.5665 -0.1403 -0.2074
11665TIP3    H256487   1.233   6.070   1.067 -1.1734 -0.2332 -0.3564
11666TIP3   OH256488   2.243   4.415  11.429  0.2586 -0.1342  0.2718
11666TIP3    H156489   2.189   4.353  11.479 -0.3465 -0.3594 -0.6280
11666TIP3    H256490   2.314   4.362  11.395 -0.3507 -0.3885 -0.6371
11667TIP3   OH256491   3.674   6.204  11.670  0.2333 -0.1322 -0.0756
11667TIP3    H156492   3.623   6.160  11.602  0.9447 -1.6364  0.3074
11667TIP3    H256493   3.621   6.196  11.749 -1.5058  3.3165 -0.7132
11668TIP3   OH256494   1.545   6.186   5.512  0.6363  0.8470  0.5502
11668TIP3    H156495   1.500   6.222   5.588  0.3303  1.7232 -0.0292
11668TIP3    H256496   1.579   6.101   5.542  0.8386  1.3399  1.7575
11669TIP3   OH256497   3.469   6.240   0.829  0.3594  0.0631  0.1262
11669TIP3    H156498   3.500   6.327   0.851  0.5584 -0.3397  1.5078
11669TIP3    H256499   3.376   6.240   0.852 -0.2824  0.6516 -2.1859
11670TIP3   OH256500   3.914   3.612   1.513 -0.1172 -0.1420  0.2046
11670TIP3    H156501   3.964   3.594   1.593  2.3919  0.3642 -1.1416
11670TIP3    H256502   3.957   3.559   1.446 -1.5731  0.1480 -1.0057
11671TIP3   OH256503   3.143   5.831  13.972 -0.2258 -0.4262 -0.0726
11671TIP3    H156504   3.186   5.877  14.045 -0.6625 -1.3720  0.7937
11671TIP3    H256505   3.178   5.742  13.975 -0.0365 -0.4091 -1.2067
11672TIP3   OH256506   4.623   6.833  16.734  0.0793 -0.5778  0.7721
11672TIP3    H156507   4.535   6.872  16.734  0.5833  0.8126  3.4160
11672TIP3    H256508   4.674   6.888  16.675 -0.1479  0.4590  1.5184
11673TIP3   OH256509   4.033   3.992  16.541  0.2475  0.0070  1.1181
11673TIP3    H156510   4.020   3.985  16.635 -0.7518 -0.9675  0.9324
11673TIP3    H256511   4.091   4.067  16.530 -0.0310  0.4501  2.4766
11674TIP3   OH256512   0.906   6.153   4.437 -0.3561 -1.0257 -0.2762
11674TIP3    H156513   0.828   6.109   4.472 -0.0454 -1.6167 -0.3082
11674TIP3    H256514   0.943   6.090   4.376 -1.0636  0.0994 -1.9424
11675TIP3   OH256515   3.362   6.691   5.708 -0.0269 -0.2907  0.1818
11675TIP3    H156516   3.450   6.661   5.731  0.3929  0.5001 -0.3535
11675TIP3    H256517   3.335   6.746   5.781 -0.0739 -0.5156  0.3357
11676TIP3   OH256518   2.468   1.667   5.569  0.0499  0.3198 -0.1664
11676TIP3    H156519   2.472   1.656   5.474  0.3285  1.3334 -0.2735
11676TIP3    H256520   2.461   1.577   5.603  0.2916 -0.0674 -1.1208
11677TIP3   OH256521   4.566   5.441  14.582 -0.5053  0.4744  0.0377
11677TIP3    H156522   4.661   5.434  14.592 -0.2323 -0.0655 -2.3179
11677TIP3    H256523   4.554   5.494  14.504 -2.1084 -0.3829 -0.3368
11678TIP3   OH256524   2.692   2.114   6.249  0.7742  0.2209 -0.1745
11678TIP3    H156525   2.618   2.113   6.310  0.5989 -0.6240 -0.3851
11678TIP3    H256526   2.735   2.197   6.265  1.2418 -0.3362  1.7168
11679TIP3   OH256527   3.882   0.538  15.777  0.4788  0.1953 -0.5597
11679TIP3    H156528   3.874   0.600  15.849 -1.1662 -0.3056 -0.2677
11679TIP3    H256529   3.792   0.510  15.760  0.8432  0.1417 -2.6727
11680TIP3   OH256530   1.405   1.434   2.464 -0.2933  0.5000 -0.2715
11680TIP3    H156531   1.482   1.435   2.521 -0.0887 -0.9647 -0.4962
11680TIP3    H256532   1.337   1.478   2.515  0.4327  0.9568  0.3105
11681TIP3   OH256533   5.706   5.520   2.682  0.1974 -0.3274 -0.6732
11681TIP3    H156534   5.799   5.505   2.664  0.1227 -0.2821 -1.1180
11681TIP3    H256535   5.665   5.433   2.675  0.2582 -0.3975 -0.1534
11682TIP3   OH256536   1.081   4.626   4.733  0.0712 -0.4804  0.3815
11682TIP3    H156537   0.996   4.606   4.772  0.4188  1.0176  2.0416
11682TIP3    H256538   1.081   4.579   4.651 -2.8202  0.3030 -0.1938
11683TIP3   OH256539   0.388   3.143  12.429  0.2225  0.4838  0.5538
11683TIP3    H156540   0.308   3.106  12.467 -0.7033  0.3884 -1.3307
11683TIP3    H256541   0.425   3.072  12.377  1.1772  0.7436  0.8665
11684TIP3   OH256542   1.382   6.113   4.841  0.3666 -0.1201 -0.4972
11684TIP3    H156543   1.329   6.034   4.830  0.8439 -0.2095 -2.5279
11684TIP3    H256544   1.321   6.185   4.824  0.7290 -0.2107 -2.4128
11685TIP3   OH256545   4.846   6.306  15.388  0.2820  0.1398  0.0449
11685TIP3    H156546   4.862   6.294  15.295  0.3334 -0.0691  0.0798
11685TIP3    H256547   4.770   6.251  15.407 -0.5206  1.1418 -0.1269
11686TIP3   OH256548   5.500   0.944  13.637  0.1940 -0.3787 -0.0799
11686TIP3    H156549   5.532   0.855  13.652  0.9259 -0.3709 -1.4866
11686TIP3    H256550   5.411   0.932  13.605 -0.0119 -0.5506  0.5311
11687TIP3   OH256551   3.737   3.659   5.374  0.4851 -0.2366  0.6138
11687TIP3    H156552   3.812   3.614   5.336  0.8125  0.3048  0.6083
11687TIP3    H256553   3.670   3.591   5.383  1.6300 -1.1999  2.4815
11688TIP3   OH256554   2.039   0.952   4.553 -0.1399 -0.3135 -0.0797
11688TIP3    H156555   1.968   0.964   4.491  0.2523 -1.8258 -0.8677
11688TIP3    H256556   2.101   1.022   4.532 -1.2339  0.8721  0.4673
11689TIP3   OH256557   6.700   5.897   2.252 -0.9556  0.0981  0.1430
11689TIP3    H156558   6.725   5.808   2.228  1.3401  0.7374 -0.0500
11689TIP3    H256559   6.604   5.898   2.244 -0.8722 -1.6664 -2.2109
11690TIP3   OH256560   4.943   6.706   3.328  0.4635 -0.2496 -0.4016
11690TIP3    H156561   4.907   6.778   3.379 -0.1053  0.7889 -2.1838
11690TIP3    H256562   4.973   6.643   3.394 -0.9084  0.6655  1.1899
11691TIP3   OH256563   4.475   5.342  11.447 -0.1154  0.0735 -0.9348
11691TIP3    H156564   4.400   5.363  11.392  0.5006  2.2098 -1.0701
11691TIP3    H256565   4.519   5.426  11.460  1.0916 -0.7722  0.8619
11692TIP3   OH256566   3.492   0.455  14.353  0.4759  0.1197  0.0369
11692TIP3    H156567   3.532   0.466  14.267 -0.3363  0.0526 -0.3612
11692TIP3    H256568   3.565   0.447  14.413  1.0532 -0.0872 -0.6851
11693TIP3   OH256569   4.339   3.899   5.020 -0.1260  0.0878 -0.5360
11693TIP3    H156570   4.358   3.806   5.035  0.3561  0.3208  0.3602
11693TIP3    H256571   4.420   3.944   5.041 -0.8640  0.8722  0.7996
11694TIP3   OH256572   3.290   3.390   4.848  0.3016  0.6454 -0.0604
11694TIP3    H156573   3.227   3.377   4.918  0.8982 -0.8699  0.2478
11694TIP3    H256574   3.250   3.455   4.790 -1.5251 -0.2468  0.1372
11695TIP3   OH256575   5.046   2.729   6.878 -0.2469 -0.2314  0.0750
11695TIP3    H156576   5.043   2.818   6.842 -0.5984 -0.2483  0.0542
11695TIP3    H256577   4.954   2.701   6.878 -0.1182 -0.6541 -0.0683
11696TIP3   OH256578   2.775   2.179  12.593  0.3465 -0.3286 -0.0371
11696TIP3    H156579   2.844   2.227  12.639 -0.5031 -0.7182  1.7317
11696TIP3    H256580   2.819   2.104  12.555  0.7762 -1.2509  2.1103
11697TIP3   OH256581   4.572   5.752   0.336  0.5934 -0.3419 -0.0243
11697TIP3    H156582   4.533   5.681   0.386 -0.7054  0.9182  0.8294
11697TIP3    H256583   4.646   5.781   0.390 -0.7248  0.9288  1.1829
11698TIP3   OH256584   0.441   1.912   2.016 -0.1270 -0.4589  0.1190
11698TIP3    H156585   0.513   1.893   2.076 -0.2661 -1.7537 -0.0975
11698TIP3    H256586   0.373   1.848   2.038 -0.1017 -1.0911 -1.5152
11699TIP3   OH256587   4.943   1.864   1.975  0.5530 -0.0200  0.2510
11699TIP3    H156588   5.036   1.866   1.956  0.2158  0.2501 -1.5436
11699TIP3    H256589   4.916   1.955   1.974  0.5875  0.0888  2.7771
11700TIP3   OH256590   6.338   4.067   0.818  0.2984 -0.4429 -0.0914
11700TIP3    H156591   6.324   4.038   0.728 -1.0990  0.4219 -0.1885
11700TIP3    H256592   6.419   4.117   0.815 -0.5074  0.8598 -1.2123
11701TIP3   OH256593   6.347   1.459   5.526  0.0624  0.2362 -0.2344
11701TIP3    H156594   6.392   1.543   5.519  1.9180 -0.6486  0.4538
11701TIP3    H256595   6.331   1.448   5.620  2.9330 -1.6412  0.1475
11702TIP3   OH256596   3.282   3.703  15.436  0.7788  0.3194  0.0160
11702TIP3    H156597   3.278   3.765  15.508 -1.2220 -0.8796  1.0215
11702TIP3    H256598   3.356   3.646  15.458  1.0475  0.7973  0.3813
11703TIP3   OH256599   3.430   5.941  11.163 -0.2244 -0.6706 -0.2974
11703TIP3    H156600   3.425   5.853  11.199  0.9412 -0.6755 -0.1069
11703TIP3    H256601   3.468   5.930  11.076  0.6108 -0.3089  0.0065
11704TIP3   OH256602   2.760   5.425  10.978 -0.1578  0.0987 -0.4013
11704TIP3    H156603   2.789   5.515  10.966 -0.1124 -0.1124 -2.0643
11704TIP3    H256604   2.690   5.413  10.914 -1.1703 -0.6218  0.7942
11705TIP3   OH256605   4.295   1.628  13.283 -0.2491  0.5005  0.1335
11705TIP3    H156606   4.222   1.575  13.251 -0.4351 -0.0467  1.3974
11705TIP3    H256607   4.341   1.570  13.344 -0.0696  1.5716  1.0389
11706TIP3   OH256608   2.882   5.930  12.780  0.0059  0.2823 -0.2025
11706TIP3    H156609   2.887   6.018  12.741 -2.1464  0.6236  0.1702
11706TIP3    H256610   2.846   5.875  12.711 -3.6129  0.8465  0.9804
11707TIP3   OH256611   5.389   5.931  15.261 -0.5359  0.3354  0.6767
11707TIP3    H156612   5.328   5.878  15.211  1.2320  0.0332 -1.3002
11707TIP3    H256613   5.415   5.876  15.334  0.0475 -0.9540 -0.4571
11708TIP3   OH256614   0.890   3.450  14.036  0.6220  0.2403 -0.2488
11708TIP3    H156615   0.954   3.508  14.077 -0.7508 -0.2003  2.7813
11708TIP3    H256616   0.924   3.362  14.053  0.7234  0.0557 -1.3563
11709TIP3   OH256617   6.715   1.278  15.893  0.4874 -0.5129  0.5469
11709TIP3    H156618   6.800   1.253  15.931  0.0031 -0.1586  1.9155
11709TIP3    H256619   6.665   1.197  15.890  1.4249 -1.0701 -1.8615
11710TIP3   OH256620   2.441   5.807  17.195 -0.1960  0.3002 -0.4420
11710TIP3    H156621   2.516   5.765  17.155  0.4935  2.0945 -1.1375
11710TIP3    H256622   2.365   5.761  17.159  0.5327 -1.1533 -0.1727
11711TIP3   OH256623   6.106   4.086  12.903 -0.4367 -0.1771 -0.4893
11711TIP3    H156624   6.029   4.041  12.936  0.3207 -1.7321 -0.7513
11711TIP3    H256625   6.178   4.056  12.959  0.3181 -0.3735 -1.5345
11712TIP3   OH256626   2.044   0.752   4.234  0.3382  0.6194 -0.5112
11712TIP3    H156627   1.961   0.713   4.208  0.5240  0.2180 -0.5183
11712TIP3    H256628   2.072   0.802   4.157  1.4560 -1.5014 -1.5841
11713TIP3   OH256629   0.772   1.087   2.912 -0.2084  0.0980  0.1493
11713TIP3    H156630   0.691   1.126   2.943 -0.2476 -0.7182  1.1465
11713TIP3    H256631   0.777   1.002   2.958  1.7703  0.6144  1.0429
11714TIP3   OH256632   4.266   0.401   1.491 -0.1352 -0.0292 -0.0470
11714TIP3    H156633   4.278   0.374   1.400 -0.3523  0.0921 -0.1125
11714TIP3    H256634   4.347   0.374   1.535 -0.8453 -1.9820  0.1601
11715TIP3   OH256635   1.321   4.193  16.021 -0.2893  0.3565  0.8395
11715TIP3    H156636   1.383   4.185  16.093  0.7289  0.0391 -0.0389
11715TIP3    H256637   1.349   4.270  15.972  0.2569 -0.5186 -0.3046
11716TIP3   OH256638   4.579   3.627  16.792 -0.0100 -0.2336  0.5538
11716TIP3    H156639   4.617   3.645  16.878  0.3297  0.1324  0.3317
11716TIP3    H256640   4.507   3.690  16.785 -0.8180 -1.0755  1.0672
11717TIP3   OH256641   6.026   3.176  13.452  0.2267  0.2956 -0.3295
11717TIP3    H156642   6.107   3.128  13.437  0.6133  0.8769 -0.1538
11717TIP3    H256643   5.958   3.122  13.413  0.6505 -0.3925 -0.1314
11718TIP3   OH256644   3.152   0.930   6.222  0.0948 -0.0247  0.0508
11718TIP3    H156645   3.150   0.839   6.253 -1.5516 -0.3165 -0.8066
11718TIP3    H256646   3.137   0.923   6.128 -1.5357  1.2085  0.1923
11719TIP3   OH256647   3.427   3.648  14.286  0.1669  0.2362 -0.1397
11719TIP3    H156648   3.334   3.625  14.283 -0.0230  0.6696  1.3210
11719TIP3    H256649   3.435   3.704  14.363  1.5576  0.6251 -0.5377
11720TIP3   OH256650   2.266   2.718  16.800 -0.8475  0.0658  0.1449
11720TIP3    H156651   2.323   2.790  16.824  2.0338 -1.6335 -0.9600
11720TIP3    H256652   2.178   2.756  16.796  0.1204  2.8179  2.1352
11721TIP3   OH256653   3.298   0.442   2.087  0.2065  0.3818 -0.0313
11721TIP3    H156654   3.335   0.527   2.066 -1.1004  0.5432 -1.8663
11721TIP3    H256655   3.218   0.461   2.136 -1.4873  0.3844 -2.6574
11722TIP3   OH256656   5.517   6.030  14.550 -0.2996  0.0219 -0.6436
11722TIP3    H156657   5.586   6.000  14.490 -0.2587  1.0884 -1.1703
11722TIP3    H256658   5.455   6.076  14.494 -1.8325 -1.5093 -0.2732
11723TIP3   OH256659   4.237   2.471  15.436  0.3067  0.1831 -0.6704
11723TIP3    H156660   4.146   2.490  15.413 -0.6121  0.1478  2.5600
11723TIP3    H256661   4.287   2.535  15.386 -1.5123  0.6253 -2.0573
11724TIP3   OH256662   6.369   4.896  10.906  0.4055  0.6632  0.1330
11724TIP3    H156663   6.388   4.946  10.827 -0.5377  0.3049 -0.3390
11724TIP3    H256664   6.290   4.938  10.941 -0.8971 -0.9505 -0.7161
11725TIP3   OH256665   6.711   2.766  11.450 -0.7518 -0.0426 -0.1568
11725TIP3    H156666   6.748   2.689  11.494  2.2367  0.8690 -0.8526
11725TIP3    H256667   6.673   2.817  11.521  0.3091 -0.5511  0.8174
11726TIP3   OH256668   2.771   2.278  16.372 -0.1006 -0.0769 -0.1251
11726TIP3    H156669   2.760   2.257  16.465 -1.9010 -0.6960 -0.4291
11726TIP3    H256670   2.834   2.212  16.340  1.4173  0.8408  0.8464
11727TIP3   OH256671   5.726   5.673  13.913  0.6073  0.7349 -0.7448
11727TIP3    H156672   5.710   5.588  13.871 -0.2310  0.5078 -0.0003
11727TIP3    H256673   5.651   5.686  13.971  2.1674  0.5393  1.4584
11728TIP3   OH256674   2.101   3.857   0.246 -0.0261  0.2982 -0.4218
11728TIP3    H156675   2.126   3.842   0.337  0.4616  0.0021 -0.6039
11728TIP3    H256676   2.141   3.942   0.224 -0.2866  0.4524 -0.3129
11729TIP3   OH256677   4.872   1.269   0.596  0.1260 -0.0335  0.4207
11729TIP3    H156678   4.869   1.354   0.553 -0.5510 -0.8002 -1.1436
11729TIP3    H256679   4.815   1.279   0.672 -1.1360  0.5307 -0.5491
11730TIP3   OH256680   0.782   0.373  12.418 -0.4921  0.2380  0.1078
11730TIP3    H156681   0.720   0.311  12.380 -2.0585  1.4739  0.5217
11730TIP3    H256682   0.843   0.319  12.469 -1.3169 -1.0148 -0.1997
11731TIP3   OH256683   0.963   0.874  13.344 -0.2654 -0.4470 -0.2748
11731TIP3    H156684   1.048   0.890  13.305 -0.5670  0.5901 -0.5587
11731TIP3    H256685   0.979   0.872  13.439  0.0177  0.1784 -0.3059
11732TIP3   OH256686   3.866   1.765  14.997 -0.1290  0.0112 -0.1200
11732TIP3    H156687   3.823   1.681  14.983 -2.5719  1.1888 -0.2574
11732TIP3    H256688   3.834   1.820  14.926  1.2161  1.1424  0.1146
11733TIP3   OH256689   2.031   6.715  12.908  0.9106  0.0840  0.4171
11733TIP3    H156690   2.054   6.622  12.909  0.8593  0.0774  0.9034
11733TIP3    H256691   2.047   6.745  12.997  2.2726  0.8774 -0.0731
11734TIP3   OH256692   6.627   6.571   5.526  0.0957 -0.4019  0.5795
11734TIP3    H156693   6.545   6.606   5.562 -0.3178 -1.5471  0.7942
11734TIP3    H256694   6.626   6.597   5.434  0.4932  1.3556  1.0451
11735TIP3   OH256695   4.594   2.409  11.501  0.2085 -0.0487 -0.1976
11735TIP3    H156696   4.539   2.488  11.503  1.1320  0.6403 -0.9736
11735TIP3    H256697   4.653   2.423  11.427  2.1799 -0.2478  1.2434
11736TIP3   OH256698   3.806   0.862  16.516  0.0917 -0.2468  0.2225
11736TIP3    H156699   3.840   0.773  16.528 -1.3625 -0.9011 -0.3195
11736TIP3    H256700   3.760   0.859  16.432  1.1115  1.3848 -0.4292
11737TIP3   OH256701   3.043   5.964  15.664  0.3347 -0.3059  0.2748
11737TIP3    H156702   3.008   6.042  15.620  2.0702 -0.2991 -1.1803
11737TIP3    H256703   3.126   5.946  15.620  0.5162 -2.3373  1.3241
11738TIP3   OH256704   2.466   5.478  16.813 -0.0069  0.2582 -0.4978
11738TIP3    H156705   2.374   5.496  16.832  0.1770 -0.2227  1.0302
11738TIP3    H256706   2.501   5.560  16.779 -1.0665  0.3447 -1.4415
11739TIP3   OH256707   4.007   4.759  16.015  0.1475  0.2651  0.2354
11739TIP3    H156708   4.097   4.740  16.042 -0.0147  2.9556  3.2551
11739TIP3    H256709   3.968   4.803  16.090 -2.7353  2.0441 -2.0784
11740TIP3   OH256710   4.287   2.705  11.285 -0.0383  0.2714  0.7745
11740TIP3    H156711   4.284   2.638  11.216 -0.4472  0.8984  0.1646
11740TIP3    H256712   4.380   2.725  11.296 -0.0551  1.5818 -1.0241
11741TIP3   OH256713   3.370   5.562  14.331 -0.3571 -0.0785 -0.2950
11741TIP3    H156714   3.347   5.651  14.304  0.4002  0.1701 -0.1506
11741TIP3    H256715   3.445   5.538  14.276 -0.4863 -0.5882 -0.2604
11742TIP3   OH256716   2.195   3.394  13.781  0.0750 -0.0065 -0.1923
11742TIP3    H156717   2.264   3.451  13.816 -1.2189 -0.0131  2.6767
11742TIP3    H256718   2.145   3.451  13.724  0.9747  0.6962 -0.3149
11743TIP3   OH256719   3.181   0.299   0.544  0.7226 -0.3030  0.1728
11743TIP3    H156720   3.231   0.337   0.472  1.1210 -3.2067 -1.2435
11743TIP3    H256721   3.175   0.368   0.609  4.2507  1.0383 -0.7261
11744TIP3   OH256722   3.892   2.262  15.204  0.2689  0.0511  0.2372
11744TIP3    H156723   3.923   2.338  15.252  2.5159 -0.6590  0.0298
11744TIP3    H256724   3.805   2.245  15.240 -0.1971  2.5329  0.4422
11745TIP3   OH256725   4.423   1.706  12.666 -0.0094  0.4916  0.2236
11745TIP3    H156726   4.478   1.717  12.589 -0.5270  1.6236 -0.0043
11745TIP3    H256727   4.337   1.685  12.632 -0.1465  0.5817  0.5076
11746TIP3   OH256728   2.247   3.890  15.234 -0.3010 -0.7966 -0.0153
11746TIP3    H156729   2.290   3.815  15.193 -1.4431 -1.3850 -0.1819
11746TIP3    H256730   2.297   3.907  15.313  1.4293 -0.1932 -1.1954
11747TIP3   OH256731   5.152   1.507  13.697  0.2175  0.4391  0.3380
11747TIP3    H156732   5.198   1.426  13.675  0.1978  0.9034 -1.5939
11747TIP3    H256733   5.218   1.575  13.688 -0.2545  0.8488 -0.0771
11748TIP3   OH256734   2.571   6.701   5.507 -0.0453  0.2058 -0.0430
11748TIP3    H156735   2.621   6.719   5.428  0.4766  1.1074  0.4801
11748TIP3    H256736   2.505   6.637   5.480  0.1044  0.5295 -1.2032
11749TIP3   OH256737   2.100   1.925  16.926 -0.0411 -0.1540  0.9091
11749TIP3    H156738   2.068   2.015  16.936  0.3647  0.1120 -0.1158
11749TIP3    H256739   2.195   1.934  16.927  0.0031 -0.4916  0.1337
11750TIP3   OH256740   2.357   3.165  12.717  0.2887 -0.4602 -0.2858
11750TIP3    H156741   2.304   3.093  12.751 -0.1512 -0.6870 -1.3835
11750TIP3    H256742   2.296   3.216  12.663  0.5683  0.8037  0.5382
11751TIP3   OH256743   0.267   4.736  11.129 -0.1373  0.1160  0.5290
11751TIP3    H156744   0.271   4.780  11.044  1.3647 -1.2994 -0.1890
11751TIP3    H256745   0.197   4.781  11.176 -1.3573  0.6137 -1.6370
11752TIP3   OH256746   3.823   2.118  13.116 -0.0640  0.0092  0.0219
11752TIP3    H156747   3.914   2.108  13.089 -0.2270 -0.5047 -0.3546
11752TIP3    H256748   3.774   2.123  13.034 -0.4675 -0.6298  0.2172
11753TIP3   OH256749   4.338   0.459  13.782  0.0773  0.2808 -0.5458
11753TIP3    H156750   4.419   0.418  13.812  1.4225  1.3803 -2.3745
11753TIP3    H256751   4.357   0.553  13.783 -1.1744  0.5627 -1.0339
11754TIP3   OH256752   0.793   5.828  10.277 -0.0135  0.0325  0.2825
11754TIP3    H156753   0.754   5.851  10.193 -0.3423 -0.8868  0.1778
11754TIP3    H256754   0.757   5.893  10.338  1.4674  1.7211 -0.5454
11755TIP3   OH256755   6.399   5.083   3.265  0.3044 -0.0131 -0.3291
11755TIP3    H156756   6.328   5.117   3.211 -0.9032 -1.6983  0.1087
11755TIP3    H256757   6.426   5.157   3.319 -1.6039  0.4870 -0.0012
11756TIP3   OH256758   0.695   0.066  17.149 -0.0408  0.0656 -0.7196
11756TIP3    H156759   0.734   0.053  17.063  1.6102 -0.1982  0.0178
11756TIP3    H256760   0.601   0.078  17.132  0.3633  0.8733 -2.6005
11757TIP3   OH256761   6.275   5.322   0.246 -0.1581  0.3893 -0.1213
11757TIP3    H156762   6.242   5.407   0.274 -0.4171  0.7625 -1.4898
11757TIP3    H256763   6.276   5.326   0.151  2.5499 -0.1040 -0.2027
11758TIP3   OH256764   6.359   1.763   0.215  0.8235  0.3475  0.1655
11758TIP3    H156765   6.324   1.735   0.130  1.1001  0.4670  0.0129
11758TIP3    H256766   6.283   1.801   0.260  0.8234  0.9276 -0.3068
11759TIP3   OH256767   4.144   1.251   4.156 -0.6862  0.0383 -0.0151
11759TIP3    H156768   4.079   1.274   4.090 -0.1697  2.2521  0.1899
11759TIP3    H256769   4.177   1.165   4.127 -1.4407  0.3137 -1.8512
11760TIP3   OH256770   1.298   6.487   1.932  0.1582 -0.3126 -0.1204
11760TIP3    H156771   1.295   6.424   1.860 -1.6247 -0.0745 -0.3142
11760TIP3    H256772   1.258   6.566   1.896  2.1758  0.9146  0.1796
11761TIP3   OH256773   2.953   0.396   5.102 -0.5206 -0.7711 -0.2143
11761TIP3    H156774   2.906   0.450   5.166 -1.0842 -1.8374  0.2959
11761TIP3    H256775   2.964   0.454   5.026  2.3362  1.3722  1.6214
11762TIP3   OH256776   6.759   0.870   0.514  0.6146 -0.0220 -0.4987
11762TIP3    H156777   6.738   0.927   0.440 -0.7022  0.9925  0.5937
11762TIP3    H256778   6.851   0.847   0.501  0.0696 -1.0974 -3.2052
11763TIP3   OH256779   2.954   5.869  15.155  0.0666 -0.0918 -0.7685
11763TIP3    H156780   2.995   5.850  15.239 -1.4623 -0.6537 -0.1176
11763TIP3    H256781   2.933   5.963  15.159  1.3261  0.2242 -1.1494
11764TIP3   OH256782   1.872   5.537   1.593  0.3706  0.0607 -0.7090
11764TIP3    H156783   1.911   5.623   1.612 -0.5606  0.3345  0.0320
11764TIP3    H256784   1.832   5.548   1.507 -0.3329  0.5896 -0.3244
11765TIP3   OH256785   5.942   1.411  13.573  0.4431 -0.2454 -0.1426
11765TIP3    H156786   6.032   1.419  13.542  0.6154  1.6137  0.6913
11765TIP3    H256787   5.923   1.318  13.569  3.1671 -0.9861  1.7158
11766TIP3   OH256788   0.812   3.368  16.688  0.0311 -0.5216  0.1070
11766TIP3    H156789   0.855   3.447  16.655  0.7449 -1.2539 -0.7604
11766TIP3    H256790   0.877   3.327  16.745  0.8761 -2.0813 -1.8784
11767TIP3   OH256791   4.564   3.752   1.255  0.1176  0.3919  0.1735
11767TIP3    H156792   4.520   3.835   1.235 -0.8055  0.1353  1.1079
11767TIP3    H256793   4.650   3.778   1.287  0.2847  0.9383 -0.6889
11768TIP3   OH256794   1.162   2.785   2.126  0.0235  0.1880 -0.4053
11768TIP3    H156795   1.084   2.793   2.181  2.4491  2.1668  3.1603
11768TIP3    H256796   1.192   2.875   2.114  0.9321 -0.3880 -3.1641
11769TIP3   OH256797   6.566   4.069  12.839 -0.3851  0.6708 -0.4201
11769TIP3    H156798   6.630   4.082  12.909 -1.4463  3.5198  0.1461
11769TIP3    H256799   6.502   4.008  12.876 -0.7751  1.9152  1.0752
11770TIP3   OH256800   2.984   2.089   5.081  0.2075 -1.0352 -0.0341
11770TIP3    H156801   2.915   2.151   5.055 -0.4895 -1.7036  0.1807
11770TIP3    H256802   2.966   2.071   5.173  1.5626 -0.0977  0.4505
11771TIP3   OH256803   4.810   1.275  12.421  0.2534 -0.1607 -0.2747
11771TIP3    H156804   4.839   1.197  12.468 -0.9660 -0.1085  0.5901
11771TIP3    H256805   4.873   1.342  12.445  0.4713 -0.5076  0.1422
11772TIP3   OH256806   2.630   1.439  16.722  0.1721 -0.0421  0.5167
11772TIP3    H156807   2.606   1.357  16.678 -0.4228  0.7392 -0.6742
11772TIP3    H256808   2.654   1.412  16.811 -2.5871 -1.2247  1.0053
11773TIP3   OH256809   1.960   5.891  14.563  0.3239  0.6776 -0.3610
11773TIP3    H156810   1.940   5.984  14.569 -1.4932  0.5139 -2.5395
11773TIP3    H256811   1.875   5.847  14.571  1.2630 -0.8998  1.6813
11774TIP3   OH256812   3.048   4.282  14.222 -0.1272 -0.1754 -0.6460
11774TIP3    H156813   3.113   4.351  14.225 -1.3676  1.1755 -2.6220
11774TIP3    H256814   3.004   4.286  14.307 -0.8844  2.2704 -1.0625
11775TIP3   OH256815   6.399   0.989  11.631  0.5849 -0.0677  0.4682
11775TIP3    H156816   6.377   0.981  11.724  1.4788  0.9701  0.7904
11775TIP3    H256817   6.492   1.012  11.631  0.8405 -1.0529 -0.7255
11776TIP3   OH256818   2.800   2.878   1.006  0.2982 -0.3842 -0.2600
11776TIP3    H156819   2.823   2.961   1.048 -0.3670 -0.2072 -0.2351
11776TIP3    H256820   2.878   2.854   0.955  1.3743 -0.9327  1.5674
11777TIP3   OH256821   2.303   6.393  12.017 -0.0139 -0.3533 -0.2684
11777TIP3    H156822   2.389   6.429  12.037 -0.7827  0.5331  1.7021
11777TIP3    H256823   2.242   6.464  12.036 -1.2508 -1.2335 -0.7791
11778TIP3   OH256824   0.177   1.166   5.777  0.3259  0.0026 -0.7836
11778TIP3    H156825   0.132   1.084   5.794 -0.5842  0.1148 -2.4409
11778TIP3    H256826   0.228   1.150   5.697  1.9047  0.4034  0.0977
11779TIP3   OH256827   3.475   5.022   1.621  0.0300 -0.2532 -0.0237
11779TIP3    H156828   3.407   5.074   1.662  1.1464 -0.0167  1.6120
11779TIP3    H256829   3.457   5.028   1.527 -0.0029  2.9427  0.0908
11780TIP3   OH256830   5.086   5.574  11.600 -0.4063 -0.1414  0.1315
11780TIP3    H156831   5.068   5.661  11.566 -0.0177  0.3096  1.0398
11780TIP3    H256832   5.000   5.533  11.607 -0.6755  0.4677  0.4664
11781TIP3   OH256833   3.762   5.121  15.016  0.2534 -0.5404  0.0534
11781TIP3    H156834   3.837   5.086  14.967 -0.7084 -2.2717 -0.2618
11781TIP3    H256835   3.709   5.044  15.037 -1.9808  0.7280 -0.6197
11782TIP3   OH256836   4.479   5.438   2.411  0.2043  0.2878  0.0439
11782TIP3    H156837   4.419   5.512   2.419  0.7087  0.9145 -1.5573
11782TIP3    H256838   4.468   5.408   2.321  2.1211  0.2802 -0.2235
11783TIP3   OH256839   5.995   3.227  16.065  0.6235  0.4914 -0.3736
11783TIP3    H156840   6.078   3.241  16.019  1.4857 -2.4058  0.0881
11783TIP3    H256841   5.929   3.269  16.009  2.2019  1.6388 -1.4701
11784TIP3   OH256842   1.273   0.274  14.159 -0.4348 -0.2561 -0.3788
11784TIP3    H156843   1.237   0.362  14.146 -0.8949 -0.4502 -0.4190
11784TIP3    H256844   1.279   0.265  14.254  1.8024  0.7007 -0.3648
11785TIP3   OH256845   2.325   5.125  13.012 -0.3704  0.0752  0.1815
11785TIP3    H156846   2.355   5.156  13.097 -2.2419  0.7296  0.6603
11785TIP3    H256847   2.385   5.054  12.990 -0.9626 -1.4357  2.9542
11786TIP3   OH256848   6.268   4.415   0.350 -0.4706 -0.0470  0.4512
11786TIP3    H156849   6.345   4.449   0.396  0.0200  0.7599 -0.8922
11786TIP3    H256850   6.245   4.484   0.288 -1.5026 -0.8150 -0.0563
11787TIP3   OH256851   4.947   2.918  11.597 -0.3044 -0.0363  0.3651
11787TIP3    H156852   4.947   2.833  11.641  0.5842  0.7652  2.0036
11787TIP3    H256853   4.868   2.962  11.629 -0.5507 -0.0678 -0.1756
11788TIP3   OH256854   2.589   0.151  15.079 -0.0779  0.2613 -0.1870
11788TIP3    H156855   2.554   0.238  15.099 -0.7868 -0.1239  0.2756
11788TIP3    H256856   2.518   0.091  15.100  1.5732 -0.7900  3.1508
11789TIP3   OH256857   1.288   1.335  11.060  0.3980 -0.4769  0.0025
11789TIP3    H156858   1.344   1.392  11.007  0.2305 -0.9436 -0.6963
11789TIP3    H256859   1.251   1.273  10.997 -1.2838  0.1065  0.3704
11790TIP3   OH256860   0.526   6.158  14.956 -0.5399  0.9619 -0.3745
11790TIP3    H156861   0.549   6.251  14.944  0.8467  0.6870 -0.0590
11790TIP3    H256862   0.467   6.158  15.031  0.4209  1.4857  0.4030
11791TIP3   OH256863   5.592   0.137  16.575 -0.0930  0.1004  0.0973
11791TIP3    H156864   5.635   0.210  16.532  1.4137 -2.0383 -2.3178
11791TIP3    H256865   5.648   0.117  16.650 -0.4780  1.3085  0.7341
11792TIP3   OH256866   0.015   0.497  13.713 -0.1185  0.2285  0.0080
11792TIP3    H156867  -0.002   0.410  13.676  0.3602  0.1202  0.0377
11792TIP3    H256868   0.110   0.507  13.707 -0.2702  1.2102 -1.0384
11793TIP3   OH256869   5.563   2.221  12.967  0.1810  0.4331 -0.4954
11793TIP3    H156870   5.488   2.262  12.924 -1.1203 -2.5573 -1.3841
11793TIP3    H256871   5.555   2.246  13.059 -0.0143  2.7207 -1.0772
11794TIP3   OH256872   4.717   6.236  13.387 -0.0422  0.2416  0.2535
11794TIP3    H156873   4.716   6.296  13.312 -0.6429  0.6007  0.5380
11794TIP3    H256874   4.661   6.163  13.360 -0.0809  0.2659  0.2670
11795TIP3   OH256875   0.658   4.681  11.352  0.1635 -0.4446 -0.1604
11795TIP3    H156876   0.563   4.673  11.359  0.1607 -0.6792 -0.4684
11795TIP3    H256877   0.673   4.775  11.341 -0.0601 -0.4493 -0.5294
11796TIP3   OH256878   4.306   2.408  11.035 -0.8326 -0.0717 -0.0017
11796TIP3    H156879   4.302   2.477  10.969  0.6046 -0.9660 -1.1019
11796TIP3    H256880   4.233   2.349  11.013 -0.5105 -0.2332 -0.6676
11797TIP3   OH256881   1.537   0.270   5.930 -0.2056 -0.1043 -0.0544
11797TIP3    H156882   1.545   0.255   5.836  2.3164 -0.2473  0.1098
11797TIP3    H256883   1.473   0.341   5.938 -1.5389 -1.0416 -1.7451
11798TIP3   OH256884   5.891   3.741   4.722 -0.4930  0.4810  0.6257
11798TIP3    H156885   5.807   3.699   4.738 -0.1074 -1.4416 -1.8572
11798TIP3    H256886   5.955   3.670   4.727  0.8215  1.6427  1.0228
11799TIP3   OH256887   3.403   2.406   0.086 -0.0422 -0.0133  0.2481
11799TIP3    H156888   3.401   2.315   0.058 -0.7638  0.2690 -0.6426
11799TIP3    H256889   3.350   2.408   0.166 -0.0801 -0.3604  0.2327
11800TIP3   OH256890   0.364   3.241  10.914 -0.6080 -0.5046  0.1222
11800TIP3    H156891   0.270   3.223  10.916 -1.0656  1.5265  2.9567
11800TIP3    H256892   0.398   3.200  10.993  0.8824 -0.9045 -0.6758
11801TIP3   OH256893   0.047   0.965  14.063  0.4357  0.4394  0.0187
11801TIP3    H156894   0.028   1.005  14.148  0.1220  2.7940 -1.0691
11801TIP3    H256895  -0.036   0.924  14.038  0.3328  0.3077  0.5527
11802TIP3   OH256896   1.455   6.672  16.678  0.6262  0.2924 -0.5640
11802TIP3    H156897   1.537   6.717  16.657 -0.1669  1.9805 -0.2711
11802TIP3    H256898   1.435   6.699  16.768  0.0286 -0.5407 -0.4338
11803TIP3   OH256899   6.535   2.102   3.366  0.1765  0.5540 -0.6514
11803TIP3    H156900   6.454   2.096   3.416 -0.1961  1.0072 -1.1906
11803TIP3    H256901   6.576   2.183   3.398  0.6468  0.0811 -0.0455
11804TIP3   OH256902   3.671   2.531  12.158 -0.2529  0.4483 -0.2229
11804TIP3    H156903   3.672   2.506  12.250 -1.4643  0.3619 -0.2228
11804TIP3    H256904   3.641   2.621  12.158 -1.4107  0.0727 -0.6041
11805TIP3   OH256905   5.016   2.826  14.175  0.2926  0.1512  0.4942
11805TIP3    H156906   4.956   2.751  14.187  0.5356  0.0636  1.1957
11805TIP3    H256907   4.990   2.863  14.091 -1.6435  0.9002  1.3476
11806TIP3   OH256908   1.634   6.574   0.190  0.1988  0.1651  0.3577
11806TIP3    H156909   1.713   6.521   0.195 -0.1491 -0.2618  1.8883
11806TIP3    H256910   1.660   6.660   0.224  0.3951  0.5366 -0.7040
11807TIP3   OH256911   2.438   4.985   4.845 -0.3750  0.1710 -0.0118
11807TIP3    H156912   2.488   4.918   4.892  0.0309 -1.0294 -2.0581
11807TIP3    H256913   2.504   5.046   4.812 -0.4200 -0.2852 -0.9755
11808TIP3   OH256914   1.494   0.823   0.296  0.3137 -0.0541 -0.1840
11808TIP3    H156915   1.424   0.818   0.361 -1.4347 -3.1351 -2.0400
11808TIP3    H256916   1.505   0.917   0.280 -1.6958  0.6313  1.9052
11809TIP3   OH256917   1.842   6.135  12.281  0.2754  0.4040 -0.3405
11809TIP3    H156918   1.829   6.230  12.286  0.7049  0.4331  0.3620
11809TIP3    H256919   1.936   6.123  12.294 -0.1039 -0.2578  2.2546
11810TIP3   OH256920   5.317   3.634   5.258 -0.2593  0.0138 -0.7719
11810TIP3    H156921   5.347   3.543   5.269 -1.1197 -0.2842 -0.7897
11810TIP3    H256922   5.360   3.682   5.329 -0.8928 -0.6925  0.1206
11811TIP3   OH256923   2.268   1.858   0.762 -0.0039 -0.1126  1.0874
11811TIP3    H156924   2.309   1.779   0.726 -0.6127 -0.4987  1.2176
11811TIP3    H256925   2.185   1.827   0.798 -0.0310  0.5081  1.5743
11812TIP3   OH256926   5.956   2.690  11.012 -0.3532 -0.4507 -0.4137
11812TIP3    H156927   6.037   2.719  10.969  0.0193 -0.7060  0.0938
11812TIP3    H256928   5.897   2.765  11.005  0.3070  0.1398  0.1561
11813TIP3   OH256929   5.445   6.694  15.075  0.0433  0.5878 -0.1905
11813TIP3    H156930   5.511   6.664  15.137 -0.8634 -1.7909 -0.2576
11813TIP3    H256931   5.363   6.690  15.124 -0.3561  1.1226 -0.8071
11814TIP3   OH256932   0.542   2.222  11.326  0.1304  1.0888  0.3432
11814TIP3    H156933   0.526   2.307  11.286 -1.2135  0.5281 -0.3684
11814TIP3    H256934   0.539   2.160  11.253 -1.7999  0.1224  1.1587
11815TIP3   OH256935   4.727   6.239  15.038 -0.4475  0.5033 -0.0494
11815TIP3    H156936   4.697   6.217  14.950  0.5604  0.3456 -0.3589
11815TIP3    H256937   4.758   6.156  15.074  2.4568  1.1426 -0.8644
11816TIP3   OH256938   1.764   4.950   4.732 -0.7628  0.4515 -0.1033
11816TIP3    H156939   1.685   4.973   4.683 -1.2599  1.0678  0.9470
11816TIP3    H256940   1.759   5.003   4.812  0.9620  0.8630 -0.2324
11817TIP3   OH256941   5.352   5.244  16.850 -0.0488  0.2150 -0.1376
11817TIP3    H156942   5.259   5.222  16.854 -0.3349  0.7090 -2.6720
11817TIP3    H256943   5.356   5.323  16.796  1.7345  1.1545  1.2400
11818TIP3   OH256944   5.989   1.998   4.612 -0.5895  0.0068 -0.0997
11818TIP3    H156945   5.904   1.958   4.633 -0.8754  0.3420 -0.5982
11818TIP3    H256946   6.041   1.926   4.575 -0.5821 -0.2477  0.3975
11819TIP3   OH256947   5.053   0.942  15.035  0.7644  0.0790  0.6257
11819TIP3    H156948   5.022   0.856  15.009  0.7797 -0.1852  1.4348
11819TIP3    H256949   4.987   1.003  15.003 -0.4058 -0.4371  1.9743
11820TIP3   OH256950   3.845   6.618  12.527 -0.1595 -0.0270 -0.3660
11820TIP3    H156951   3.928   6.597  12.570 -0.6608 -2.9816 -0.5838
11820TIP3    H256952   3.780   6.610  12.597 -0.6230 -1.5756 -0.9327
11821TIP3   OH256953   6.592   6.767  15.628 -0.5745  0.5743  0.6565
11821TIP3    H156954   6.605   6.707  15.555  1.4944  1.6354  0.0537
11821TIP3    H256955   6.599   6.713  15.706  1.1339 -0.0326  0.1239
11822TIP3   OH256956   0.964   0.342  12.957 -0.0706 -0.1705 -0.3099
11822TIP3    H156957   0.966   0.294  12.874  0.2860 -0.5424 -0.0858
11822TIP3    H256958   0.874   0.375  12.963 -0.1073 -0.1611 -0.8287
11823TIP3   OH256959   0.862   4.537   5.392  0.4577  0.4959  0.1374
11823TIP3    H156960   0.926   4.608   5.391 -0.7635  1.6440  0.4533
11823TIP3    H256961   0.789   4.570   5.339  0.7008 -1.3824 -1.4936
11824TIP3   OH256962   2.678   1.453   1.929  0.0178 -0.0227  0.3541
11824TIP3    H156963   2.658   1.404   1.849  1.3104  0.3190 -0.2094
11824TIP3    H256964   2.753   1.408   1.967 -0.7672 -0.3483  1.5535
11825TIP3   OH256965   6.760   5.028  10.278 -0.0492  0.1687  0.2721
11825TIP3    H156966   6.823   5.083  10.233  0.2532  0.2641  0.8076
11825TIP3    H256967   6.742   4.956  10.217  1.1929 -0.2989  0.4365
11826TIP3   OH256968   0.461   6.096  10.790  0.2261 -0.0649  0.4195
11826TIP3    H156969   0.483   6.184  10.823 -1.1001  0.8031 -0.8587
11826TIP3    H256970   0.528   6.078  10.724 -0.0354  0.4154  0.0149
11827TIP3   OH256971   4.244   5.277  13.088  0.6987  0.1694 -0.1181
11827TIP3    H156972   4.262   5.328  13.009  0.0553 -0.0469 -0.4060
11827TIP3    H256973   4.226   5.342  13.155  2.1665  0.3947  0.1033
11828TIP3   OH256974   1.010   0.048   6.285 -0.0958 -0.0980 -0.0273
11828TIP3    H156975   1.104   0.041   6.302 -0.3421 -2.2729  0.7748
11828TIP3    H256976   0.982  -0.042   6.267 -1.8604  0.6402 -1.2974
11829TIP3   OH256977   2.692   3.783  15.452 -0.4976  0.0390  0.0374
11829TIP3    H156978   2.663   3.855  15.397  0.8282  1.4321  1.0832
11829TIP3    H256979   2.747   3.729  15.395 -0.9527  0.2179 -0.5738
11830TIP3   OH256980   5.204   1.922  11.551 -0.1167  0.2096 -0.1353
11830TIP3    H156981   5.200   1.827  11.543 -0.2023  0.2098 -0.0980
11830TIP3    H256982   5.130   1.953  11.498 -1.0568  0.1853  1.1112
11831TIP3   OH256983   1.849   6.148   5.877  0.0135 -0.0720  0.2140
11831TIP3    H156984   1.773   6.152   5.935 -0.4238  1.6069 -0.4008
11831TIP3    H256985   1.897   6.229   5.895  1.3451 -0.8087  0.1421
11832TIP3   OH256986   2.740   0.395   2.402  0.0329 -0.0508  0.1749
11832TIP3    H156987   2.650   0.403   2.372  0.0938 -0.7242 -0.2334
11832TIP3    H256988   2.767   0.484   2.423 -1.0770  0.0243  1.3673
11833TIP3   OH256989   0.601   5.778  12.763 -0.0848  0.3375  0.3698
11833TIP3    H156990   0.548   5.712  12.717  0.9103 -1.6337  1.8958
11833TIP3    H256991   0.685   5.776  12.718 -0.2445  1.0891  0.0160
11834TIP3   OH256992   4.396   4.859   3.403 -0.6036  0.1122 -0.1594
11834TIP3    H156993   4.338   4.785   3.384 -1.4424  0.0122  2.4523
11834TIP3    H256994   4.483   4.820   3.408 -0.8472 -0.4610 -0.2294
11835TIP3   OH256995   6.302   2.186  11.152  0.1961  0.3797  0.0852
11835TIP3    H156996   6.213   2.161  11.128  1.3404 -3.0438 -1.3070
11835TIP3    H256997   6.322   2.261  11.095  0.0658 -2.4915 -4.2176
11836TIP3   OH256998   4.553   0.797   3.808 -0.4842  0.0305 -0.6950
11836TIP3    H156999   4.564   0.871   3.867  1.9383 -0.7071 -0.1128
11836TIP3    H257000   4.509   0.730   3.861 -0.4227  0.1836 -0.4495
11837TIP3   OH257001   6.205   2.273   3.622 -0.0086  0.2517  0.2347
11837TIP3    H157002   6.250   2.275   3.707 -0.9800  2.0128  0.7518
11837TIP3    H257003   6.114   2.296   3.642  0.1906  3.0194 -1.5049
11838TIP3   OH257004   0.563   0.057  12.041 -0.8286 -0.4629 -0.3348
11838TIP3    H157005   0.627   0.095  11.981 -0.4948 -1.4170 -0.6063
11838TIP3    H257006   0.576   0.104  12.123  0.8987 -1.2680 -0.1015
11839TIP3   OH257007   5.890   0.262  12.476  0.3337  0.3770  0.1543
11839TIP3    H157008   5.878   0.315  12.397  0.9685  1.5330  0.8165
11839TIP3    H257009   5.882   0.171  12.445 -0.2326  0.8352 -1.0899
11840TIP3   OH257010   2.621   5.910  11.232 -0.0655 -0.0483  0.5722
11840TIP3    H157011   2.614   5.840  11.296  2.2381  0.0985  1.0603
11840TIP3    H257012   2.622   5.865  11.147 -0.1449 -0.4620  0.7909
11841TIP3   OH257013   2.582   0.669   6.062 -0.1556 -0.0521 -0.3838
11841TIP3    H157014   2.521   0.602   6.032  0.5534  0.2132 -2.6234
11841TIP3    H257015   2.620   0.705   5.981  1.8516  0.8186  0.8582
11842TIP3   OH257016   5.921   2.044   3.128  0.3740 -0.5630  0.4239
11842TIP3    H157017   6.014   2.059   3.113  0.5416  0.1245  1.9112
11842TIP3    H257018   5.909   1.950   3.115  0.8430 -0.3752 -1.7105
11843TIP3   OH257019   5.016   3.155  11.478  0.4835  0.0409 -0.0758
11843TIP3    H157020   5.085   3.139  11.414  0.6530 -0.5643  0.2586
11843TIP3    H257021   5.020   3.080  11.537 -0.0972  0.2775  0.2668
11844TIP3   OH257022   1.726   0.875   2.471  0.8523  0.3187 -0.1720
11844TIP3    H157023   1.772   0.931   2.408  0.9154 -0.9599 -1.2953
11844TIP3    H257024   1.642   0.855   2.428  0.8539 -0.4949  0.1941
11845TIP3   OH257025   5.688   4.091  13.013 -0.0093  0.3806 -0.2092
11845TIP3    H157026   5.621   4.092  13.081  0.3112 -0.8072  0.1430
11845TIP3    H257027   5.767   4.060  13.057 -0.0722 -1.5435 -1.3133
11846TIP3   OH257028   1.982   5.694   4.869 -0.0992 -0.4075  0.3382
11846TIP3    H157029   2.012   5.761   4.930 -0.8591  0.8752 -0.6631
11846TIP3    H257030   2.061   5.668   4.821 -0.1521  1.5798 -0.9609
11847TIP3   OH257031   0.659   5.232  10.842 -0.5277 -0.0896  0.0751
11847TIP3    H157032   0.702   5.318  10.844 -0.4363 -0.0783 -1.1842
11847TIP3    H257033   0.575   5.248  10.799 -1.0716 -0.4139  0.9966
11848TIP3   OH257034   2.566   2.476  13.482  0.8634  0.5607  0.6857
11848TIP3    H157035   2.479   2.508  13.462  0.1460 -1.6570 -0.1107
11848TIP3    H257036   2.582   2.503  13.572 -1.4103 -0.4079  1.4558
11849TIP3   OH257037   0.290   6.315  13.514 -0.2810 -0.1364  0.1623
11849TIP3    H157038   0.280   6.256  13.440  0.5553 -1.3263  0.9576
11849TIP3    H257039   0.259   6.399  13.482 -1.1599 -0.9159 -1.1222
11850TIP3   OH257040   2.321   0.886   0.493  0.7797 -0.6522  0.7343
11850TIP3    H157041   2.387   0.827   0.457 -1.4619 -0.8479 -3.7286
11850TIP3    H257042   2.238   0.840   0.483 -0.8630  2.3500 -1.1393
11851TIP3   OH257043   2.112   0.970   5.852 -0.2194  0.4135 -0.3425
11851TIP3    H157044   2.137   0.892   5.902 -1.3356 -0.4217 -1.0247
11851TIP3    H257045   2.049   1.016   5.908  1.4392  1.5938  0.6387
11852TIP3   OH257046   1.613   4.859   0.201  0.0293 -0.4054  0.1069
11852TIP3    H157047   1.669   4.865   0.124 -0.3277  2.3869 -0.0734
11852TIP3    H257048   1.580   4.949   0.213 -1.8607 -1.2657  2.0753
11853TIP3   OH257049   1.731   2.382   0.217  0.1880 -0.1210 -0.1078
11853TIP3    H157050   1.731   2.316   0.286  2.5313 -0.1935 -0.1055
11853TIP3    H257051   1.643   2.420   0.221 -0.0571 -0.7416  2.3069
11854TIP3   OH257052   3.023   0.184  10.580 -0.3463 -0.4512 -0.1647
11854TIP3    H157053   2.956   0.126  10.543 -0.0684 -2.0806  1.7018
11854TIP3    H257054   2.988   0.208  10.666  0.9142 -0.3361  0.3325
11855TIP3   OH257055   1.525   6.273   0.707  0.6095  0.7278  0.0514
11855TIP3    H157056   1.527   6.351   0.763  1.7564  0.5926  0.2151
11855TIP3    H257057   1.587   6.213   0.747  0.1173 -0.0721 -0.3713
11856TIP3   OH257058   3.739   4.619  13.319  0.6480 -0.1116 -0.0234
11856TIP3    H157059   3.762   4.619  13.226 -0.0900  1.5285 -0.2435
11856TIP3    H257060   3.746   4.711  13.345 -0.6904 -0.3098  1.1531
11857TIP3   OH257061   3.457   2.007   3.831 -0.6793  0.2997 -0.4146
11857TIP3    H157062   3.471   1.957   3.912 -3.1390  1.0756  0.5709
11857TIP3    H257063   3.492   1.951   3.762 -1.1609 -1.7149  0.8938
11858TIP3   OH257064   5.014   3.817  13.645  0.0794  0.3836 -0.1013
11858TIP3    H157065   4.994   3.852  13.732  0.2756  2.8625 -0.9744
11858TIP3    H257066   5.107   3.833  13.633 -0.0918  0.7773 -1.0387
11859TIP3   OH257067   5.841   5.467   4.163  0.2391  0.8240 -0.0898
11859TIP3    H157068   5.801   5.539   4.113 -0.0992  0.2323 -0.6811
11859TIP3    H257069   5.925   5.452   4.120 -0.4818 -0.3664 -1.1651
11860TIP3   OH257070   6.711   6.670   0.281 -0.3957 -0.4393 -0.0477
11860TIP3    H157071   6.666   6.628   0.355  0.1817  0.1755  0.6678
11860TIP3    H257072   6.804   6.659   0.300 -0.2381  0.4235 -0.2590
11861TIP3   OH257073   3.466   4.624  12.412 -0.5394  0.0716 -0.1879
11861TIP3    H157074   3.518   4.672  12.348  0.8763 -2.7244 -1.2973
11861TIP3    H257075   3.488   4.666  12.496 -0.0963  1.8668 -1.1407
11862TIP3   OH257076   1.091   6.139   2.042  0.4454 -0.2351  0.1124
11862TIP3    H157077   1.119   6.049   2.061  1.1660 -0.3892 -1.4940
11862TIP3    H257078   0.996   6.137   2.053  0.5970 -0.7833  1.5639
11863TIP3   OH257079   0.350   4.406  13.210  0.6715  0.6621 -0.5425
11863TIP3    H157080   0.295   4.438  13.138 -3.1248 -1.0688  1.2962
11863TIP3    H257081   0.411   4.477  13.227 -0.6363  2.5760 -3.1545
11864TIP3   OH257082   3.466   6.347  10.593  0.4533 -0.1923 -0.0013
11864TIP3    H157083   3.508   6.432  10.610  2.2022 -1.2098  1.0743
11864TIP3    H257084   3.465   6.340  10.497 -2.0114  2.0680 -0.2420
11865TIP3   OH257085   0.249   5.469   5.306  0.5182 -0.4249  0.3606
11865TIP3    H157086   0.189   5.491   5.234  1.7346 -1.4092 -1.0155
11865TIP3    H257087   0.220   5.382   5.335 -0.2698  0.1698  1.4266
11866TIP3   OH257088   0.702   1.105   5.125 -0.4234 -0.1442 -0.3202
11866TIP3    H157089   0.687   1.026   5.177  1.0099  0.8978  1.8278
11866TIP3    H257090   0.670   1.083   5.038 -1.0870 -2.6900  0.4857
11867TIP3   OH257091   0.806   6.807   0.460  0.4002  0.2098 -0.1727
11867TIP3    H157092   0.829   6.827   0.550  0.7642  2.9443 -0.7949
11867TIP3    H257093   0.725   6.757   0.467  0.4004  0.4048  1.6700
11868TIP3   OH257094   0.823   5.438  10.951 -0.1142 -0.3150 -0.3346
11868TIP3    H157095   0.879   5.485  10.889  0.5119  0.2309  0.6235
11868TIP3    H257096   0.799   5.504  11.016  1.0596 -1.3700  1.2362
11869TIP3   OH257097   6.080   1.627  15.721  0.3401  0.4020 -0.3138
11869TIP3    H157098   6.146   1.686  15.683  0.0277  0.8449 -0.1747
11869TIP3    H257099   6.131   1.552  15.753  0.7939  0.7954 -0.0969
11870TIP3   OH257100   0.767   5.725   2.384  0.0941 -0.4655  0.1745
11870TIP3    H157101   0.800   5.647   2.429  1.2320  0.4599  1.0107
11870TIP3    H257102   0.698   5.692   2.327 -1.0477 -1.7604  2.1981
11871TIP3   OH257103   1.958   2.218  15.714  0.6178  0.1522 -0.3591
11871TIP3    H157104   1.904   2.170  15.651 -0.5281  0.5052  0.3225
11871TIP3    H257105   1.955   2.165  15.794  1.0140  0.3482 -0.2067
11872TIP3   OH257106   5.929   1.025  11.391  0.1918  1.1243 -0.8528
11872TIP3    H157107   6.012   1.048  11.432  0.2092  0.4327 -0.5005
11872TIP3    H257108   5.951   1.015  11.298  0.5491  0.7098 -0.7255
11873TIP3   OH257109   5.926   2.721  14.064  0.4434  0.0122  0.3711
11873TIP3    H157110   5.916   2.627  14.082 -3.3929  0.2894  0.5531
11873TIP3    H257111   5.986   2.725  13.990  1.5438 -2.4907  1.0073
11874TIP3   OH257112   2.007   1.368   1.613 -0.2871  0.1684  0.3389
11874TIP3    H157113   1.953   1.419   1.552  1.2715 -0.8503 -2.0288
11874TIP3    H257114   2.096   1.397   1.595  0.3290 -1.1682  1.1801
11875TIP3   OH257115   5.997   1.053  15.406  0.3816  0.1906  0.2178
11875TIP3    H157116   6.087   1.070  15.434 -0.0831  2.0070  0.7117
11875TIP3    H257117   5.991   1.093  15.319 -0.1484  0.7469  0.5038
11876TIP3   OH257118   0.497   1.667   4.532 -0.3310 -0.0445 -0.3262
11876TIP3    H157119   0.450   1.686   4.451  1.6551 -0.2110 -1.5651
11876TIP3    H257120   0.535   1.750   4.559 -0.7111 -0.0572  0.2690
11877TIP3   OH257121   6.135   5.606  10.735 -0.4827  0.1427 -0.5301
11877TIP3    H157122   6.114   5.542  10.667  1.3718  0.2251 -1.2413
11877TIP3    H257123   6.207   5.658  10.698  0.0965  0.6556  1.2025
11878TIP3   OH257124   1.014   0.730   2.106 -0.4839  0.2608  0.2577
11878TIP3    H157125   0.992   0.791   2.176 -0.8395 -0.6860  0.9953
11878TIP3    H257126   0.948   0.747   2.038 -0.8044  0.4473  0.6123
11879TIP3   OH257127   4.097   2.853   0.265  0.4907 -0.0483 -0.1423
11879TIP3    H157128   4.085   2.942   0.298  0.9155 -0.5171  1.3977
11879TIP3    H257129   4.012   2.811   0.277 -0.1659  0.5322 -2.2988
11880TIP3   OH257130   3.017   4.107  11.772  0.0143 -0.2170  0.3464
11880TIP3    H157131   3.036   4.200  11.770 -0.9541  0.0748  2.3462
11880TIP3    H257132   2.972   4.090  11.689  1.2762  0.8016 -0.5919
11881TIP3   OH257133   2.807   3.412   5.483 -0.0535 -0.0915  0.9710
11881TIP3    H157134   2.809   3.323   5.447  0.5828 -0.2501  1.3710
11881TIP3    H257135   2.840   3.402   5.573  0.6870  0.6489  0.7951
11882TIP3   OH257136   1.994   1.497   1.896 -0.2125 -0.0006 -0.0201
11882TIP3    H157137   1.915   1.457   1.932 -1.7561  0.8700 -2.2082
11882TIP3    H257138   2.012   1.447   1.816 -0.3894  1.6623 -1.1579
11883TIP3   OH257139   0.270   3.682  12.240  0.0041  0.5603  0.4196
11883TIP3    H157140   0.335   3.631  12.193  0.9616  0.5788  1.6779
11883TIP3    H257141   0.321   3.745  12.291 -1.0361  1.1212  0.7986
11884TIP3   OH257142   6.682   2.031  15.735  0.9513 -0.3516 -0.0141
11884TIP3    H157143   6.655   1.944  15.765 -2.6235  0.2894 -0.9973
11884TIP3    H257144   6.665   2.088  15.809 -1.4603  0.1889 -0.9071
11885TIP3   OH257145   6.708   6.547  10.257  0.5115 -0.4390 -0.0835
11885TIP3    H157146   6.790   6.520  10.297  0.7915 -0.0964 -0.4189
11885TIP3    H257147   6.697   6.488  10.183  1.5743  0.8708 -1.3547
11886TIP3   OH257148   3.881   2.905  12.703  0.9787  0.3689 -0.4861
11886TIP3    H157149   3.946   2.871  12.641 -0.3473 -2.1980 -0.6420
11886TIP3    H257150   3.926   2.905  12.787  1.4882 -0.4959 -0.7437
11887TIP3   OH257151   2.991   5.433  11.430  0.1822 -0.4438 -1.0693
11887TIP3    H157152   3.025   5.520  11.412  2.5128 -0.8360  0.9119
11887TIP3    H257153   2.923   5.446  11.496  1.5730 -0.1870  0.3632
11888TIP3   OH257154   5.200   4.623  12.188  0.5344  0.1847  0.2221
11888TIP3    H157155   5.167   4.533  12.190  2.4476 -0.5547  0.5651
11888TIP3    H257156   5.153   4.663  12.115 -2.1517 -0.3042  1.5459
11889TIP3   OH257157   3.573   2.802   4.533 -0.1810  0.2890  0.7485
11889TIP3    H157158   3.582   2.707   4.525  1.5446  0.3238  1.7123
11889TIP3    H257159   3.547   2.816   4.623 -3.6840  0.6445 -0.1798
11890TIP3   OH257160   2.310   5.590   3.441  0.1486 -0.0070  0.0069
11890TIP3    H157161   2.267   5.668   3.476  1.3442 -0.2954  2.3682
11890TIP3    H257162   2.292   5.592   3.347 -0.9769  2.3761  0.1999
11891TIP3   OH257163   4.089   6.100   0.747  0.1649  0.1879  0.4096
11891TIP3    H157164   4.021   6.148   0.795 -1.6552 -2.1473  0.3496
11891TIP3    H257165   4.161   6.093   0.810 -1.5790 -1.4791  2.3933
11892TIP3   OH257166   0.974   4.765   2.645 -0.4680  0.1061  0.1345
11892TIP3    H157167   0.967   4.786   2.552 -1.3582 -2.2519 -0.4043
11892TIP3    H257168   0.890   4.726   2.668  0.7389 -2.1564  1.1110
11893TIP3   OH257169   4.179   0.256  16.788  0.3176 -0.2419 -0.0865
11893TIP3    H157170   4.085   0.274  16.785  0.5866  1.3237 -2.9927
11893TIP3    H257171   4.213   0.313  16.857 -0.9540 -1.9152  2.0576
11894TIP3   OH257172   1.583   6.711   3.730 -0.1959  0.1289 -0.2438
11894TIP3    H157173   1.489   6.721   3.743 -0.2599  1.1297 -1.2860
11894TIP3    H257174   1.615   6.799   3.712  1.1217 -0.0414  1.0092
11895TIP3   OH257175   4.210   6.376   5.208  0.3019 -0.0168  0.2441
11895TIP3    H157176   4.123   6.342   5.228 -0.8594  2.1558 -0.7758
11895TIP3    H257177   4.223   6.357   5.115 -0.6777  2.7590 -0.5350
11896TIP3   OH257178   0.418   4.102  16.290 -0.1945  0.3913  0.1693
11896TIP3    H157179   0.325   4.121  16.277 -0.5815 -1.6222 -0.3740
11896TIP3    H257180   0.463   4.181  16.262 -1.7115  1.1112 -0.3465
11897TIP3   OH257181   5.302   4.090  13.088  0.6278  0.0999 -0.0330
11897TIP3    H157182   5.364   4.126  13.025  2.0584  0.3766  1.4621
11897TIP3    H257183   5.322   3.996  13.091  1.3626  0.2775  0.8460
11898TIP3   OH257184   4.354   3.187   1.470 -0.2852 -0.4289 -0.2060
11898TIP3    H157185   4.356   3.262   1.530 -1.6966 -1.9693  1.9265
11898TIP3    H257186   4.433   3.137   1.493  0.4858  0.2142 -1.4007
11899TIP3   OH257187   5.662   4.645   5.022  0.0470  0.0012  0.2376
11899TIP3    H157188   5.616   4.649   4.938 -0.5743  2.2713  0.6195
11899TIP3    H257189   5.751   4.672   5.001  0.4316 -1.3628  0.0180
11900TIP3   OH257190   3.069   0.820  13.573 -0.6685  0.5102 -0.1725
11900TIP3    H157191   3.039   0.797  13.661 -1.8004 -0.7779 -0.8592
11900TIP3    H257192   3.004   0.882  13.541 -1.9041 -1.1894 -1.1220
11901TIP3   OH257193   3.636   3.567   5.629  0.5393 -0.0543  0.1563
11901TIP3    H157194   3.552   3.523   5.619  0.8942 -0.5092 -1.0248
11901TIP3    H257195   3.619   3.658   5.606 -0.1651  0.4543  2.4583
11902TIP3   OH257196   6.680   0.990   2.652 -0.1264 -0.2595 -0.4819
11902TIP3    H157197   6.733   0.911   2.668 -0.7953 -0.2866  2.0262
11902TIP3    H257198   6.691   1.042   2.732 -1.4713  1.1610 -1.1816
11903TIP3   OH257199   5.514   6.492  11.837 -0.0481  0.2125  0.0064
11903TIP3    H157200   5.481   6.582  11.834  0.0453  0.2185 -1.1326
11903TIP3    H257201   5.606   6.502  11.861 -0.6112  0.2388  2.4240
11904TIP3   OH257202   4.652   4.488  14.171  0.1526 -0.5817 -0.4030
11904TIP3    H157203   4.672   4.395  14.182  1.0337 -0.4004 -0.3718
11904TIP3    H257204   4.692   4.529  14.248  0.0394 -0.1465 -0.5778
11905TIP3   OH257205   4.415   6.776  11.764  0.3566  0.1051 -0.0833
11905TIP3    H157206   4.489   6.716  11.748 -0.3369 -0.9112  0.3956
11905TIP3    H257207   4.435   6.816  11.849 -0.0030 -0.7714  0.4372
11906TIP3   OH257208   5.518   3.450   2.839 -0.3360 -0.1062 -0.2074
11906TIP3    H157209   5.603   3.414   2.862 -1.3995 -1.7514  1.5021
11906TIP3    H257210   5.511   3.529   2.892  0.4370  0.5054 -0.9936
11907TIP3   OH257211   4.660   2.686  10.695 -0.7441 -0.3430  0.0754
11907TIP3    H157212   4.744   2.721  10.726 -0.2513 -1.7526  0.4271
11907TIP3    H257213   4.596   2.718  10.758 -0.2827 -0.2304  0.4908
11908TIP3   OH257214   3.228   2.706   3.276 -0.2687 -0.6094  0.2385
11908TIP3    H157215   3.152   2.693   3.333 -0.7622 -0.8070 -0.4426
11908TIP3    H257216   3.262   2.791   3.301 -2.7552  1.1107 -1.6900
11909TIP3   OH257217   1.989   2.590   5.876  0.9178 -0.4476  0.0207
11909TIP3    H157218   2.065   2.559   5.827  1.9321  1.0381  0.5662
11909TIP3    H257219   1.974   2.679   5.842  0.6498  0.0084  1.2772
11910TIP3   OH257220   2.097   1.833   0.508  0.0745 -0.4691  0.2073
11910TIP3    H157221   2.176   1.807   0.555  1.1612  0.9422 -0.7653
11910TIP3    H257222   2.110   1.800   0.419 -0.7338 -0.7851  0.1973
11911TIP3   OH257223   1.744   6.148   5.176 -0.3658  0.4078  0.7113
11911TIP3    H157224   1.785   6.197   5.105 -0.7364 -2.0382 -1.3177
11911TIP3    H257225   1.798   6.070   5.186 -2.1594 -0.8691  0.8364
11912TIP3   OH257226   0.023   4.371   2.171  0.2549 -0.4027 -0.2029
11912TIP3    H157227   0.011   4.439   2.104  1.2492  1.2308  1.1911
11912TIP3    H257228  -0.034   4.300   2.143  1.7848 -0.4919 -3.6566
11913TIP3   OH257229   2.671   6.696  12.307  0.3720  0.3774  0.1846
11913TIP3    H157230   2.688   6.790  12.307  2.7074  0.0201 -0.3271
11913TIP3    H257231   2.690   6.668  12.397  0.5088  0.2760  0.1250
11914TIP3   OH257232   0.909   6.087   3.364 -0.3900 -0.1062 -0.6588
11914TIP3    H157233   0.834   6.110   3.419  0.0433 -2.4488  1.0871
11914TIP3    H257234   0.872   6.077   3.277 -1.6785  0.8543 -0.2655
11915TIP3   OH257235   2.608   1.041  15.955 -0.4487 -0.1900  0.0698
11915TIP3    H157236   2.669   1.047  15.882  0.0504  1.4034  0.5625
11915TIP3    H257237   2.597   0.947  15.970  0.6507 -0.5234 -1.0453
11916TIP3   OH257238   2.459   2.734  15.435 -0.6101 -0.0959  0.3829
11916TIP3    H157239   2.427   2.810  15.387 -0.1752  0.7997  1.4599
11916TIP3    H257240   2.392   2.717  15.501  0.0114  0.3031  1.1215
11917TIP3   OH257241   3.442   6.135  16.042 -0.1949 -0.4379  0.2127
11917TIP3    H157242   3.431   6.113  15.950  0.3105 -2.0769  0.5092
11917TIP3    H257243   3.376   6.201  16.059 -0.0405  0.1661 -1.4112
11918TIP3   OH257244   4.649   6.617  11.729 -0.7770  0.0213 -0.0368
11918TIP3    H157245   4.714   6.619  11.799 -0.2489  1.2746 -0.5359
11918TIP3    H257246   4.699   6.627  11.649 -1.5740  1.2232 -0.4200
11919TIP3   OH257247   0.158   2.361   0.954  0.3068 -0.3288  0.8804
11919TIP3    H157248   0.156   2.445   0.909  0.3654 -1.1925 -0.7995
11919TIP3    H257249   0.067   2.343   0.977  0.2955  0.1723  1.2529
11920TIP3   OH257250   3.046   0.478  13.945 -0.0255  0.1799 -0.4199
11920TIP3    H157251   2.964   0.428  13.946 -0.9097  1.5455  0.6335
11920TIP3    H257252   3.075   0.478  14.036  0.8904  0.1391 -0.7024
11921TIP3   OH257253   2.096   3.722   5.334 -0.3684  0.3773 -0.5426
11921TIP3    H157254   2.131   3.704   5.421 -0.7186  1.2883 -0.1998
11921TIP3    H257255   2.009   3.759   5.350 -0.3576  0.7445 -1.2687
11922TIP3   OH257256   6.070   2.675   2.992 -0.0863  0.0798 -0.3960
11922TIP3    H157257   6.159   2.664   3.027  0.2709 -0.3784 -1.4044
11922TIP3    H257258   6.021   2.602   3.029 -0.3684  0.9888  1.1040
11923TIP3   OH257259   1.804   2.778  13.052 -0.3803  0.3785  0.1093
11923TIP3    H157260   1.821   2.683  13.048 -2.7632 -0.0699 -0.6044
11923TIP3    H257261   1.859   2.815  12.983  1.5757 -0.2637  1.2347
11924TIP3   OH257262   1.052   1.228   4.394 -0.3190 -0.4005 -0.2877
11924TIP3    H157263   1.147   1.231   4.382 -0.4265  2.0063 -1.0613
11924TIP3    H257264   1.027   1.319   4.412 -2.2886 -1.2464  1.7997
11925TIP3   OH257265   4.198   1.735   5.501  0.0272 -0.3171 -0.2825
11925TIP3    H157266   4.146   1.683   5.563 -0.5646 -0.0304 -0.5353
11925TIP3    H257267   4.133   1.786   5.452  0.6394  1.1187  0.3671
11926TIP3   OH257268   1.870   0.324   2.424  0.2614  0.6517  0.0319
11926TIP3    H157269   1.845   0.409   2.387  0.3773  1.3305  1.4381
11926TIP3    H257270   1.824   0.320   2.508  1.3730 -0.0511  0.6301
11927TIP3   OH257271   0.356   2.096   1.581  0.1503 -0.4969 -0.0750
11927TIP3    H157272   0.345   2.183   1.543  0.2271  0.6435  2.3818
11927TIP3    H257273   0.293   2.092   1.652  0.1355 -2.4783 -0.1508
11928TIP3   OH257274   1.115   0.858  14.947  0.8283 -0.4636  0.1919
11928TIP3    H157275   1.132   0.816  14.863  1.5249 -0.8216  0.5091
11928TIP3    H257276   1.113   0.952  14.926  1.5865 -0.5154 -0.1219
11929TIP3   OH257277   2.224   1.610   3.714  0.6488 -0.6265  0.6019
11929TIP3    H157278   2.285   1.556   3.663 -0.2596 -0.8709 -0.2642
11929TIP3    H257279   2.235   1.698   3.678 -1.1310 -1.0685 -1.2094
11930TIP3   OH257280   5.883   1.085   2.346 -0.0798  0.6390 -0.0762
11930TIP3    H157281   5.837   1.121   2.270  1.2426 -0.6179 -1.5624
11930TIP3    H257282   5.837   1.004   2.367 -0.9091  1.3674  0.9877
11931TIP3   OH257283   4.265   0.858  11.510 -0.1264  0.1022 -0.4170
11931TIP3    H157284   4.347   0.906  11.492 -0.7163  0.5835 -2.0205
11931TIP3    H257285   4.292   0.767  11.516  0.5582  0.2712 -0.7729
11932TIP3   OH257286   2.670   2.819  12.822 -0.0177 -0.0668  0.0920
11932TIP3    H157287   2.686   2.727  12.800 -2.8341 -1.0492  1.5841
11932TIP3    H257288   2.613   2.851  12.752  2.4566  1.2321 -1.4562
11933TIP3   OH257289   3.542   5.107  13.514 -0.4654  0.5286 -0.3265
11933TIP3    H157290   3.572   5.168  13.582  0.0902  0.9546 -0.9402
11933TIP3    H257291   3.599   5.125  13.439 -0.8635 -0.1549 -0.8016
11934TIP3   OH257292   5.380   6.234   5.677 -0.1713 -0.0110 -1.0596
11934TIP3    H157293   5.387   6.144   5.646  3.1933 -0.2073 -0.0800
11934TIP3    H257294   5.414   6.232   5.766 -0.1570  2.1927 -0.9673
11935TIP3   OH257295   6.765   1.952  14.366 -0.3410 -0.4269  0.2817
11935TIP3    H157296   6.846   1.997  14.390 -1.2440  0.7424  1.2700
11935TIP3    H257297   6.776   1.932  14.273  0.1019  1.8887 -0.2237
11936TIP3   OH257298   0.684   1.952   4.308  0.2016 -0.2843 -0.0124
11936TIP3    H157299   0.615   2.015   4.284  1.4635  1.3312  0.3878
11936TIP3    H257300   0.668   1.933   4.400 -0.5349 -1.0495 -0.2844
11937TIP3   OH257301   2.126   3.254   3.501  0.2737  0.3422  0.1850
11937TIP3    H157302   2.147   3.181   3.559  0.0712 -0.4832 -0.7509
11937TIP3    H257303   2.034   3.241   3.478 -0.3477  1.9828  1.5127
11938TIP3   OH257304   0.711   0.615   1.802  0.2216  0.1709  0.7413
11938TIP3    H157305   0.645   0.652   1.744 -1.1014  0.5127  2.3797
11938TIP3    H257306   0.740   0.536   1.757  0.1551  1.0592 -0.9313
11939TIP3   OH257307   5.794   6.236   5.463 -0.1218 -0.6740  0.0607
11939TIP3    H157308   5.768   6.210   5.551 -3.5575 -0.9151 -0.8928
11939TIP3    H257309   5.776   6.330   5.459  1.0015 -0.4519 -0.1129
11940TIP3   OH257310   0.332   5.882   2.872 -0.0597  0.3226 -0.5987
11940TIP3    H157311   0.373   5.823   2.809  0.7925 -0.1506  0.3703
11940TIP3    H257312   0.267   5.931   2.821  3.1422  2.7174 -2.7239
11941TIP3   OH257313   3.483   2.169  11.676 -0.2063  0.0281  0.1745
11941TIP3    H157314   3.458   2.226  11.748  2.2014  0.4727  0.7389
11941TIP3    H257315   3.520   2.091  11.718  0.6745  0.0322 -0.5508
11942TIP3   OH257316   2.595   0.321  15.525 -0.1373  0.7633 -0.9185
11942TIP3    H157317   2.661   0.312  15.594 -1.2440  1.1765  0.2435
11942TIP3    H257318   2.535   0.388  15.559 -0.1086  1.8105 -2.7939
11943TIP3   OH257319   3.920   0.860  12.474  0.7557 -0.5443  0.4494
11943TIP3    H157320   3.957   0.916  12.542 -0.1285  1.5887 -0.6981
11943TIP3    H257321   3.963   0.889  12.394 -0.6055 -0.6465 -0.3582
11944TIP3   OH257322   4.964   1.969  13.440  0.2388 -0.0838 -0.0327
11944TIP3    H157323   5.003   1.946  13.524 -0.7419  2.2564  1.1465
11944TIP3    H257324   5.025   2.033  13.403 -1.7928  2.9415  1.4310
11945TIP3   OH257325   5.438   3.317  15.674 -0.3979  0.2870 -0.3254
11945TIP3    H157326   5.369   3.369  15.633 -0.5322 -0.0799 -0.5793
11945TIP3    H257327   5.393   3.238  15.704  0.2340 -0.9046 -2.3235
11946TIP3   OH257328   5.134   3.787  16.403  0.1738  0.5137 -0.4541
11946TIP3    H157329   5.136   3.699  16.364 -1.5235 -0.5664  1.6390
11946TIP3    H257330   5.189   3.779  16.481 -0.3028  1.1946 -0.0420
11947TIP3   OH257331   4.433   6.192   5.912 -0.2384 -0.1851  0.0255
11947TIP3    H157332   4.404   6.128   5.847 -1.5117 -1.4012  1.6811
11947TIP3    H257333   4.362   6.194   5.976  1.0289  0.8281  1.4715
11948TIP3   OH257334   5.681   3.273  13.525  0.4502  0.5227  0.3211
11948TIP3    H157335   5.715   3.226  13.449  1.3743  0.7186  0.5896
11948TIP3    H257336   5.760   3.300  13.573 -0.0117  2.6320  0.0007
11949TIP3   OH257337   5.151   5.192  15.751 -0.2844 -0.3139  0.3021
11949TIP3    H157338   5.156   5.267  15.810  0.5422 -0.9069  1.0151
11949TIP3    H257339   5.205   5.125  15.793 -0.1254 -0.9414 -0.8672
11950TIP3   OH257340   1.162   3.061   1.390 -0.8863 -0.6474  0.1650
11950TIP3    H157341   1.137   2.979   1.347  1.8233 -1.6262  0.2721
11950TIP3    H257342   1.246   3.084   1.350 -0.5561  0.9277  1.6709
11951TIP3   OH257343   6.724   0.737  11.570  0.2410  0.1751  0.6175
11951TIP3    H157344   6.762   0.703  11.489 -2.0963  2.0805 -1.4651
11951TIP3    H257345   6.656   0.674  11.593 -0.0710  0.3766  0.2477
11952TIP3   OH257346   2.063   2.971  13.686  0.2367  0.0883 -0.3978
11952TIP3    H157347   1.987   3.028  13.696 -0.1922 -0.4375 -0.5986
11952TIP3    H257348   2.138   3.027  13.708 -0.0040  1.2238 -2.2445
11953TIP3   OH257349   2.596   4.598  14.818  0.1984  0.1912 -0.2463
11953TIP3    H157350   2.569   4.507  14.834 -1.5196  0.5675 -0.7835
11953TIP3    H257351   2.663   4.591  14.750  1.9579 -0.8296  1.4806
11954TIP3   OH257352   3.773   3.292  16.416  0.1942  0.4504 -0.2070
11954TIP3    H157353   3.735   3.238  16.486 -0.8485  0.5801 -0.6472
11954TIP3    H257354   3.839   3.346  16.461  0.0563  0.0124  0.5431
11955TIP3   OH257355   3.921   1.170   1.660 -0.4190  0.2507  0.0469
11955TIP3    H157356   3.884   1.191   1.574  0.7029  0.9814 -0.2832
11955TIP3    H257357   3.986   1.239   1.675  0.4623 -0.7280  0.8160
11956TIP3   OH257358   0.259   5.911  11.810  0.2212 -0.2243  0.2602
11956TIP3    H157359   0.287   5.956  11.731  0.0816 -0.2561  0.1926
11956TIP3    H257360   0.335   5.916  11.868  1.4274 -2.8324 -0.9557
11957TIP3   OH257361   2.598   2.417  17.154 -0.2202  0.1041  0.7326
11957TIP3    H157362   2.564   2.328  17.164  0.5766 -0.6136 -1.9484
11957TIP3    H257363   2.535   2.461  17.097 -0.0072  0.8842  1.0862
11958TIP3   OH257364   3.947   2.585  15.970  0.0797  0.3663 -0.2031
11958TIP3    H157365   3.937   2.514  16.034  0.5589  0.8280  0.3914
11958TIP3    H257366   3.880   2.649  15.995 -0.3321  0.1449 -0.7212
11959TIP3   OH257367   1.556   6.820   4.316 -0.4078  0.1765  0.4679
11959TIP3    H157368   1.598   6.808   4.231 -1.9663  0.5519 -0.3845
11959TIP3    H257369   1.564   6.735   4.359  1.2213  0.2493  0.3570
11960TIP3   OH257370   6.825   4.813  16.407 -0.5170  0.4742 -0.2942
11960TIP3    H157371   6.766   4.841  16.477  1.0508 -0.4724  1.4909
11960TIP3    H257372   6.804   4.871  16.333 -1.9602  1.7720  1.0584
11961TIP3   OH257373   1.045   0.442   1.804 -0.5341  0.2846 -0.3503
11961TIP3    H157374   1.055   0.431   1.710 -2.4785 -0.9298 -0.4557
11961TIP3    H257375   1.058   0.354   1.841 -1.8339  0.3469  0.2972
11962TIP3   OH257376   2.986   4.502   5.658  0.4385 -0.2612  0.2080
11962TIP3    H157377   3.069   4.464   5.687  0.1964 -1.9186 -1.1103
11962TIP3    H257378   3.001   4.596   5.657  1.2381 -0.2649  3.1589
11963TIP3   OH257379   3.944   1.584   5.131 -0.2400 -0.1759  0.1862
11963TIP3    H157380   4.034   1.599   5.101  0.0212 -1.5689  0.2374
11963TIP3    H257381   3.895   1.568   5.050 -0.3195 -0.0593  0.2115
11964TIP3   OH257382   6.652   1.361  15.260 -0.2041  0.1473 -0.0747
11964TIP3    H157383   6.722   1.416  15.295 -0.3897  0.9778 -0.9716
11964TIP3    H257384   6.582   1.367  15.324  0.4068 -0.4226  0.6641
11965TIP3   OH257385   3.020   5.608   2.132 -0.2456  0.2793  0.4793
11965TIP3    H157386   2.931   5.580   2.151 -0.1464  0.1174  0.7052
11965TIP3    H257387   3.059   5.534   2.085 -0.1276  0.2202  0.6706
11966TIP3   OH257388   2.550   6.108   2.012  0.0175 -0.7291  0.0317
11966TIP3    H157389   2.607   6.098   2.088 -0.5578  0.7195  0.7123
11966TIP3    H257390   2.609   6.119   1.938  0.6574  0.9049  0.7438
11967TIP3   OH257391   5.639   1.496  13.960  0.1372  0.4657 -0.1146
11967TIP3    H157392   5.570   1.430  13.960  0.3286  0.2566  0.6716
11967TIP3    H257393   5.627   1.544  13.878  1.0144 -1.6332 -1.5505
11968TIP3   OH257394   0.343   1.534   1.235 -0.4276  0.4283 -0.1165
11968TIP3    H157395   0.357   1.604   1.171  0.4065 -0.6215 -1.1408
11968TIP3    H257396   0.279   1.476   1.194  0.5115 -0.5372 -0.2658
11969TIP3   OH257397   0.074   5.410  13.453  0.7172 -0.0687  0.1913
11969TIP3    H157398  -0.019   5.391  13.446  0.6783 -0.5018  1.5240
11969TIP3    H257399   0.099   5.374  13.538  1.9750  0.5673  0.1131
11970TIP3   OH257400   0.762   5.923   0.743  0.2292  0.1219 -0.0985
11970TIP3    H157401   0.737   5.831   0.746 -1.3754  0.5388 -0.1126
11970TIP3    H257402   0.795   5.936   0.654 -0.6690 -0.1715 -0.4851
11971TIP3   OH257403   5.394   1.777  12.079  1.2314  0.1145  0.2102
11971TIP3    H157404   5.458   1.756  12.011  1.3996 -1.6128  0.8504
11971TIP3    H257405   5.319   1.722  12.058  0.1305  1.7260 -0.2222
11972TIP3   OH257406   2.926   1.905  11.137  0.3596 -0.1826 -0.0663
11972TIP3    H157407   2.907   1.813  11.119 -0.6952  0.2912 -1.5846
11972TIP3    H257408   3.011   1.904  11.180 -0.3867 -1.9753  1.5132
11973TIP3   OH257409   6.297   1.655  17.163  0.3499 -0.1777 -0.3585
11973TIP3    H157410   6.370   1.700  17.121  0.2323 -0.2229 -0.6135
11973TIP3    H257411   6.239   1.630  17.091  0.4784 -0.8594 -0.2323
11974TIP3   OH257412   2.125   1.874  13.296 -0.4306 -0.1813 -0.5682
11974TIP3    H157413   2.044   1.847  13.339 -1.3493  0.6150 -1.7140
11974TIP3    H257414   2.129   1.969  13.309 -0.6902  0.0647 -2.1207
11975TIP3   OH257415   0.812   2.773   2.820  0.6356  0.3474 -0.1934
11975TIP3    H157416   0.816   2.854   2.872 -0.4542  0.8604 -0.8643
11975TIP3    H257417   0.720   2.746   2.825  1.4148 -2.4162  2.2876
11976TIP3   OH257418   6.809   0.714   5.725 -0.7482 -0.1927  0.5425
11976TIP3    H157419   6.773   0.649   5.786  0.4506  0.1362  1.6489
11976TIP3    H257420   6.852   0.778   5.781  2.6118 -1.1745 -0.6646
11977TIP3   OH257421   4.002   4.722  12.517  0.6384 -0.6591 -0.3685
11977TIP3    H157422   3.962   4.774  12.447 -0.0905 -1.5442 -0.6220
11977TIP3    H257423   4.050   4.786  12.570  1.0575  0.0477 -1.5654
11978TIP3   OH257424   4.403   5.751  13.421  0.2392 -0.1572  0.0995
11978TIP3    H157425   4.355   5.679  13.462 -1.2021  0.6136 -0.1373
11978TIP3    H257426   4.385   5.826  13.478 -0.8710  0.6835 -1.2891
11979TIP3   OH257427   4.660   5.810   1.012  0.0149  0.1480 -0.1005
11979TIP3    H157428   4.723   5.878   1.035 -0.6561  0.4251  1.0065
11979TIP3    H257429   4.674   5.741   1.077  0.5580 -0.7078 -1.0939
11980TIP3   OH257430   4.037   2.466  11.304 -0.2313 -0.2014 -0.1735
11980TIP3    H157431   3.985   2.400  11.259 -1.3287  0.2076  0.4543
11980TIP3    H257432   4.007   2.549  11.267 -2.1652  0.2575  2.2131
11981TIP3   OH257433   3.359   0.801  12.529  0.1190  0.0369 -0.2444
11981TIP3    H157434   3.318   0.760  12.605 -0.3853  1.4243  0.2531
11981TIP3    H257435   3.400   0.728  12.482 -1.8937 -1.2394 -0.1329
11982TIP3   OH257436   6.270   2.790  14.477  0.6179  0.1441 -0.2707
11982TIP3    H157437   6.204   2.781  14.409  1.6373 -2.1341 -1.0633
11982TIP3    H257438   6.292   2.700  14.500  1.5909  0.8583  1.8300
11983TIP3   OH257439   0.354   3.040   1.211  0.0367  0.0574  0.4672
11983TIP3    H157440   0.383   2.994   1.290  2.0920 -1.3094 -1.0065
11983TIP3    H257441   0.300   2.976   1.164  0.3693  0.2139 -0.1301
11984TIP3   OH257442   3.134   0.056   1.994 -0.3588 -0.7554 -0.3060
11984TIP3    H157443   3.055   0.109   1.992 -0.1053 -0.3964 -0.7808
11984TIP3    H257444   3.117  -0.016   1.933  0.7974  0.9253 -2.7535
11985TIP3   OH257445   4.985   2.094   5.027  0.3286 -0.2581  1.0282
11985TIP3    H157446   4.980   2.125   5.118  0.6996  0.8398  0.6916
11985TIP3    H257447   4.941   2.162   4.976  0.1063 -0.8760  0.3781
11986TIP3   OH257448   1.729   1.878   1.183  0.0583  0.5095 -0.0002
11986TIP3    H157449   1.666   1.831   1.238 -0.3916  0.5063 -0.5117
11986TIP3    H257450   1.812   1.835   1.200  0.0057  0.7679  0.9898
11987TIP3   OH257451   4.049   2.855   3.483 -0.4212 -0.1216 -0.1891
11987TIP3    H157452   4.110   2.918   3.446 -0.1245 -0.1313  0.2650
11987TIP3    H257453   3.998   2.905   3.546 -2.1483  0.3071 -1.8424
11988TIP3   OH257454   4.691   5.755  11.763  0.6356 -0.3825  0.3594
11988TIP3    H157455   4.774   5.802  11.767  0.2201  0.2868  1.4189
11988TIP3    H257456   4.691   5.700  11.842 -0.1013 -0.0815  0.5719
11989TIP3   OH257457   5.723   4.061   3.706  0.2170  0.3751 -0.3920
11989TIP3    H157458   5.802   4.097   3.665  0.5781 -0.4836 -0.4538
11989TIP3    H257459   5.651   4.098   3.654  0.5153  1.8165  0.1608
11990TIP3   OH257460   2.468   0.114   6.754  0.0479 -0.2207 -0.2007
11990TIP3    H157461   2.543   0.142   6.700 -0.5549  1.2074 -0.3473
11990TIP3    H257462   2.458   0.021   6.736  1.8780 -0.4814 -0.0679
11991TIP3   OH257463   5.635   0.161   1.573  0.0723  0.7348  0.7290
11991TIP3    H157464   5.552   0.114   1.585  1.1343 -1.2781  0.4235
11991TIP3    H257465   5.609   0.244   1.533 -1.7795  0.0577  0.4374
11992TIP3   OH257466   1.844   1.742  12.951  0.0303 -0.0129  0.0794
11992TIP3    H157467   1.811   1.794  12.877 -4.0806 -0.1123  1.5644
11992TIP3    H257468   1.897   1.674  12.911 -1.3208  0.4335 -2.7473
11993TIP3   OH257469   4.051   5.401  12.895 -0.2197  0.1205 -0.1083
11993TIP3    H157470   4.002   5.450  12.828  0.8468  3.0760  1.0882
11993TIP3    H257471   4.143   5.414  12.872  0.1075 -0.9408  0.5518
11994TIP3   OH257472   6.746   6.757  12.233 -0.0647  0.0685 -0.0109
11994TIP3    H157473   6.791   6.835  12.200  2.1274 -1.3309 -0.5225
11994TIP3    H257474   6.669   6.749  12.177 -0.8081  2.2923  0.5864
11995TIP3   OH257475   2.946   4.249   6.540  0.1107  0.1143  0.8970
11995TIP3    H157476   2.929   4.181   6.475 -0.2965  1.5185 -0.5299
11995TIP3    H257477   3.027   4.222   6.582  0.3335 -0.8967 -0.1215
11996TIP3   OH257478   4.616   6.093  11.507 -0.2145  0.0664  0.1593
11996TIP3    H157479   4.619   5.999  11.487 -0.0985 -0.0180  0.5710
11996TIP3    H257480   4.573   6.132  11.431 -3.7464 -0.7722  1.5265
11997TIP3   OH257481   0.153   3.013  15.985 -0.0837 -0.4584 -0.2879
11997TIP3    H157482   0.151   3.107  15.969 -1.2397 -0.1833  1.3329
11997TIP3    H257483   0.242   2.996  16.017 -0.6875  0.5926  2.1217
11998TIP3   OH257484   6.057   0.764  12.253  0.5235 -0.4002 -0.6854
11998TIP3    H157485   6.033   0.846  12.209 -1.2797 -0.7052 -0.3376
11998TIP3    H257486   6.120   0.723  12.194  0.3409  0.5605 -1.5765
11999TIP3   OH257487   2.398   0.387   3.073 -0.4867 -0.2895  0.2574
11999TIP3    H157488   2.377   0.448   3.143  2.3840 -0.9204  1.8221
11999TIP3    H257489   2.474   0.425   3.029 -0.2948 -1.4319 -0.4637
12000TIP3   OH257490   1.401   4.442  16.652 -0.0386 -0.0543  0.3217
12000TIP3    H157491   1.376   4.527  16.619 -0.2433  0.3281  1.4078
12000TIP3    H257492   1.355   4.434  16.736 -0.3215 -1.3884  0.0613
12001TIP3   OH257493   3.936   2.798   5.487  0.4119  0.3457  0.0763
12001TIP3    H157494   3.852   2.843   5.490  0.8332  1.1724 -0.2958
12001TIP3    H257495   3.970   2.815   5.399 -0.1507 -2.0968 -0.6893
12002TIP3   OH257496   1.266   4.951   1.847  0.3326 -0.0724 -0.8604
12002TIP3    H157497   1.352   4.973   1.811  0.5704 -2.2592 -1.7462
12002TIP3    H257498   1.280   4.869   1.894 -0.3598  1.7156  2.8583
12003TIP3   OH257499   6.035   6.367  16.907 -0.1692 -0.8488 -0.0725
12003TIP3    H157500   5.971   6.304  16.876 -1.0721  0.6031 -1.3348
12003TIP3    H257501   6.119   6.321  16.903 -0.9612 -2.3859  0.4326
12004TIP3   OH257502   3.955   2.325  15.502  0.1213 -0.5784 -0.2441
12004TIP3    H157503   4.006   2.295  15.577 -1.1071  0.7279  1.2109
12004TIP3    H257504   3.868   2.288  15.517 -0.2685  0.1184 -0.7322
12005TIP3   OH257505   0.924   2.087  15.014 -0.2017 -0.1054 -0.2734
12005TIP3    H157506   0.853   2.089  15.078 -1.1638  0.7842 -1.3275
12005TIP3    H257507   0.984   2.021  15.047 -0.5167  0.5255  1.6960
12006TIP3   OH257508   1.608   4.568  11.071  0.6267 -0.0378 -0.2252
12006TIP3    H157509   1.516   4.539  11.071 -0.0871  2.0134  1.3200
12006TIP3    H257510   1.657   4.489  11.095 -0.9425 -0.7242  0.9522
12007TIP3   OH257511   5.526   2.549   2.730 -0.0508  0.2335 -0.7321
12007TIP3    H157512   5.536   2.644   2.722  1.0182  0.1512 -0.5698
12007TIP3    H257513   5.509   2.518   2.641 -1.8073  0.6970 -0.6000
12008TIP3   OH257514   0.379   4.075  16.913 -0.1143 -0.4056  0.3284
12008TIP3    H157515   0.405   3.985  16.934  1.5306  0.1837  1.0072
12008TIP3    H257516   0.283   4.074  16.918 -0.1309 -1.1423  4.9305
12009TIP3   OH257517   5.024   3.175  17.152 -0.4282  0.1291 -0.0345
12009TIP3    H157518   4.964   3.203  17.222 -1.2394 -1.0109 -0.2604
12009TIP3    H257519   5.108   3.163  17.197 -1.2998 -2.2034  1.1323
12010TIP3   OH257520   2.409   1.457   4.691 -0.1691 -0.0225 -0.2481
12010TIP3    H157521   2.358   1.457   4.609 -1.4053 -1.3934  0.4560
12010TIP3    H257522   2.477   1.522   4.677  1.6630 -2.3605 -3.6073
12011TIP3   OH257523   2.396   2.316  15.257 -0.0862 -0.3151 -0.1793
12011TIP3    H157524   2.339   2.335  15.183  1.4161  1.4549 -0.9376
12011TIP3    H257525   2.467   2.264  15.220 -0.5785 -1.5437  0.5385
12012TIP3   OH257526   2.982   2.855   4.290  0.0934  0.6208 -0.2601
12012TIP3    H157527   2.913   2.883   4.350  0.6959  0.1138  0.6924
12012TIP3    H257528   2.939   2.793   4.231 -0.9610  2.5201 -1.6193
12013TIP3   OH257529   0.970   0.970   4.381 -0.7963  0.0188  0.2818
12013TIP3    H157530   0.902   0.973   4.449 -0.3585 -0.0344  0.7279
12013TIP3    H257531   1.015   1.055   4.388 -1.0619  0.2097 -0.2722
12014TIP3   OH257532   4.604   3.805   2.159 -0.1624 -0.5664 -0.2661
12014TIP3    H157533   4.531   3.782   2.101 -0.2990  0.1048 -0.3701
12014TIP3    H257534   4.563   3.821   2.243  0.0058 -1.2836 -0.0371
12015TIP3   OH257535   5.173   0.724  11.903  0.1212  0.1960  0.1496
12015TIP3    H157536   5.121   0.742  11.981 -1.0648  0.4248 -0.6600
12015TIP3    H257537   5.142   0.639  11.873 -1.7203  1.4434 -1.7794
12016TIP3   OH257538   2.469   5.879  16.011  0.3588 -0.6016 -0.0824
12016TIP3    H157539   2.486   5.963  15.969  0.6410 -0.7686 -0.3081
12016TIP3    H257540   2.547   5.827  15.992  0.2005 -0.9028  0.0856
12017TIP3   OH257541   1.462   4.658   1.665 -0.4361 -0.7959  0.6901
12017TIP3    H157542   1.535   4.603   1.639 -1.0849 -1.3669  0.0243
12017TIP3    H257543   1.384   4.610   1.638 -1.0372  1.6273 -2.4868
12018TIP3   OH257544   4.552   6.305   0.657 -0.2350 -0.0132  0.0865
12018TIP3    H157545   4.574   6.392   0.623  0.5233  0.3871  1.5268
12018TIP3    H257546   4.467   6.317   0.699  0.8034  0.6192  2.1618
12019TIP3   OH257547   5.999   5.059  15.056 -0.2089  0.1871 -0.3152
12019TIP3    H157548   6.006   5.072  14.962 -1.2172  0.1227 -0.4095
12019TIP3    H257549   6.079   5.097  15.091  1.1017 -1.5366 -1.3380
12020TIP3   OH257550   3.578   5.020   3.395  0.5076 -0.1653 -0.5724
12020TIP3    H157551   3.483   5.032   3.401  0.6203  0.2908  0.6142
12020TIP3    H257552   3.612   5.059   3.475  1.5680 -1.9161 -0.1204
12021TIP3   OH257553   3.400   0.705  15.644  0.1999 -0.1307 -0.4349
12021TIP3    H157554   3.341   0.765  15.598  2.0335  0.6900 -1.8512
12021TIP3    H257555   3.403   0.739  15.733  0.7117  1.5687 -1.0539
12022TIP3   OH257556   0.174   2.881  12.102 -0.0135 -0.2614  0.2216
12022TIP3    H157557   0.244   2.834  12.058 -1.3040 -1.5174 -0.5657
12022TIP3    H257558   0.181   2.971  12.070  0.4620 -0.6570 -0.7954
12023TIP3   OH257559   6.779   1.451  11.661  0.2782 -0.0265 -0.1823
12023TIP3    H157560   6.741   1.477  11.577  0.8151 -0.0159 -0.4282
12023TIP3    H257561   6.734   1.370  11.685  0.5919 -0.3916 -0.8108
12024TIP3   OH257562   6.040   6.463  14.720 -0.3388  0.2987 -0.7296
12024TIP3    H157563   6.005   6.508  14.797 -0.0391  1.0259 -1.0142
12024TIP3    H257564   6.058   6.374  14.750  1.1302  0.9500  0.4427
12025TIP3   OH257565   6.585   4.340   2.325 -0.2854 -0.1496  0.3004
12025TIP3    H157566   6.617   4.364   2.238 -1.4198 -1.2298 -0.4462
12025TIP3    H257567   6.507   4.393   2.337 -1.0520 -1.1709 -0.0494
12026TIP3   OH257568   6.472   4.504   6.232 -0.1147 -0.1142 -0.2085
12026TIP3    H157569   6.500   4.595   6.242  2.3141 -0.6656 -1.1929
12026TIP3    H257570   6.552   4.457   6.209 -1.3251 -2.4979  0.1596
12027TIP3   OH257571   4.102   4.653  16.881 -0.0986  0.6567  0.0694
12027TIP3    H157572   4.132   4.576  16.930 -0.0324  0.3389 -0.4501
12027TIP3    H257573   4.008   4.657  16.897 -0.2845 -0.1581 -0.7203
12028TIP3   OH257574   4.328   1.967   3.110  0.2027  0.1055  0.1749
12028TIP3    H157575   4.249   1.935   3.066 -0.5188 -0.0641  1.5303
12028TIP3    H257576   4.332   2.060   3.087 -0.1525  0.0214 -0.2479
12029TIP3   OH257577   2.107   5.042   1.121  0.1505 -0.3170  0.3032
12029TIP3    H157578   2.106   5.002   1.208 -2.3943  1.3112  1.1315
12029TIP3    H257579   2.070   4.975   1.064 -2.9383  0.2293  1.4589
12030TIP3   OH257580   5.513   3.893  16.843  0.3789  0.7218 -0.3175
12030TIP3    H157581   5.426   3.876  16.879 -0.0018 -0.7696 -1.8050
12030TIP3    H257582   5.561   3.937  16.913 -0.5468 -1.3231  1.6901
12031TIP3   OH257583   4.192   4.765  13.389  0.2738  0.5092  0.0322
12031TIP3    H157584   4.242   4.763  13.307  0.4222  2.7581  0.0196
12031TIP3    H257585   4.187   4.673  13.415  2.7714  0.0035 -0.9638
12032TIP3   OH257586   0.480   3.653  10.868 -0.0478 -0.3251  0.3059
12032TIP3    H157587   0.490   3.680  10.960 -0.7680  1.4852 -0.0992
12032TIP3    H257588   0.403   3.595  10.869  0.5411 -1.1198  0.9710
12033TIP3   OH257589   6.469   1.026   4.297 -0.3353  0.6651  0.0028
12033TIP3    H157590   6.563   1.037   4.280 -0.0246  2.2511  2.3229
12033TIP3    H257591   6.441   1.110   4.334 -2.2537 -0.3834  1.0871
12034TIP3   OH257592   5.984   3.160   3.470  0.3287 -0.0206 -0.6813
12034TIP3    H157593   6.015   3.251   3.479  2.1033 -0.6917  0.4739
12034TIP3    H257594   6.038   3.123   3.401  0.5521 -0.5667 -0.2215
12035TIP3   OH257595   3.064   0.272  15.213  0.0106  0.2474  0.0017
12035TIP3    H157596   3.074   0.313  15.299 -1.5014 -2.9315  1.8798
12035TIP3    H257597   3.128   0.201  15.212  0.0898  0.3006 -1.5974
12036TIP3   OH257598   5.621   0.269  15.022  0.2470  0.1926 -0.1129
12036TIP3    H157599   5.640   0.299  15.111 -0.2594  0.7399 -0.1795
12036TIP3    H257600   5.618   0.349  14.970 -2.6376  0.2457 -0.0257
12037TIP3   OH257601   3.719   6.218  15.650 -0.2518  0.0250 -0.0136
12037TIP3    H157602   3.695   6.147  15.591  1.3650 -0.6187  0.0569
12037TIP3    H257603   3.679   6.194  15.734 -0.0806 -0.5734 -0.1004
12038TIP3   OH257604   0.053   6.208  11.089  0.4962 -1.1231 -0.4332
12038TIP3    H157605   0.078   6.202  10.996  0.4019 -2.8599 -0.3836
12038TIP3    H257606   0.137   6.203  11.136  0.6121  0.5019 -0.4055
12039TIP3   OH257607   4.355   1.478  14.271  0.0034  0.3358  0.1280
12039TIP3    H157608   4.277   1.530  14.284  0.5901  2.4498 -3.4947
12039TIP3    H257609   4.327   1.405  14.215  0.2008 -0.3825  0.9283
12040TIP3   OH257610   0.234   0.400  16.437 -0.6725 -0.6784  0.6373
12040TIP3    H157611   0.244   0.485  16.395  0.8063 -0.8686  0.5533
12040TIP3    H257612   0.311   0.392  16.493 -1.2348 -1.5978  1.3069
12041TIP3   OH257613   2.157   5.324  11.091  0.1346 -0.4654  0.3720
12041TIP3    H157614   2.240   5.370  11.104  1.8316 -2.3972 -2.4519
12041TIP3    H257615   2.151   5.265  11.166  1.0777  0.0559  0.8842
12042TIP3   OH257616   4.938   2.784  13.904  0.3236 -0.5580  0.3558
12042TIP3    H157617   4.930   2.693  13.877 -1.2187 -0.7480  1.3328
12042TIP3    H257618   4.848   2.818  13.901  0.5355  0.2715  2.1562
12043TIP3   OH257619   3.616   0.643   2.251  0.6359  0.6345 -0.2448
12043TIP3    H157620   3.563   0.652   2.330  0.7379  1.8431 -0.2927
12043TIP3    H257621   3.606   0.551   2.225 -0.3774  0.5240  0.4801
12044TIP3   OH257622   4.876   2.093  13.829  0.1923 -0.6268 -0.8981
12044TIP3    H157623   4.805   2.109  13.767 -1.0178 -0.1584  0.5510
12044TIP3    H257624   4.838   2.112  13.915  1.1111 -3.4258  0.2478
12045TIP3   OH257625   2.046   3.784   6.194  0.4533 -0.6799 -0.1620
12045TIP3    H157626   1.977   3.727   6.229  0.9124  0.0761  2.1840
12045TIP3    H257627   2.127   3.734   6.208  1.0084  0.8496  3.0780
12046TIP3   OH257628   2.949   3.961   3.279 -0.2761 -0.0611  0.0120
12046TIP3    H157629   2.915   3.894   3.337  1.7554  0.7654  2.2999
12046TIP3    H257630   3.038   3.932   3.258 -0.0690  0.9499 -0.5729
12047TIP3   OH257631   2.219   1.388   5.202  0.4296  0.1150  0.3611
12047TIP3    H157632   2.276   1.369   5.127 -0.5549  3.3103 -1.4046
12047TIP3    H257633   2.275   1.377   5.278  2.1028 -1.2010 -0.9624
12048TIP3   OH257634   6.683   3.102   4.344 -0.4394  0.5520  0.0643
12048TIP3    H157635   6.707   3.071   4.431  0.7293  0.5683 -0.2296
12048TIP3    H257636   6.624   3.035   4.309 -0.1484  0.0631  0.5039
12049TIP3   OH257637   3.201   0.350   0.960  0.0789 -0.2163  0.9648
12049TIP3    H157638   3.284   0.395   0.973 -0.2266  0.4810  0.5087
12049TIP3    H257639   3.165   0.340   1.049  0.2990  0.1392  1.0926
12050TIP3   OH257640   1.318   0.750   3.099  0.3256 -0.2391  0.3400
12050TIP3    H157641   1.235   0.784   3.134  0.0578  0.1599 -0.6491
12050TIP3    H257642   1.362   0.827   3.064  0.9329 -0.5197  0.4690
12051TIP3   OH257643   5.095   1.377   1.433  0.0121  0.5089 -0.5796
12051TIP3    H157644   5.060   1.404   1.348  1.4817  2.0529 -0.7686
12051TIP3    H257645   5.035   1.416   1.497 -0.7006 -0.0569 -0.8891
12052TIP3   OH257646   3.835   1.998   3.835  0.3682  0.1130  0.1626
12052TIP3    H157647   3.843   1.919   3.781  0.9203  1.1132 -1.2703
12052TIP3    H257648   3.753   1.986   3.883  0.8628 -1.7114  0.6380
12053TIP3   OH257649   5.815   5.447  10.131 -0.2734 -0.2469 -0.3769
12053TIP3    H157650   5.754   5.384  10.093  0.3334 -2.6628  2.3057
12053TIP3    H257651   5.884   5.394  10.170  0.0077  1.9624  2.5526
12054TIP3   OH257652   1.579   6.743  14.883  0.5371 -0.8835  0.4217
12054TIP3    H157653   1.526   6.765  14.807  1.8974 -1.0707 -0.6316
12054TIP3    H257654   1.615   6.827  14.912  1.3902 -1.0111 -0.2293
12055TIP3   OH257655   2.568   6.715   4.966  0.0425  0.0867 -0.3671
12055TIP3    H157656   2.563   6.640   4.906  1.9792 -0.1506 -0.2885
12055TIP3    H257657   2.588   6.790   4.910  1.0847  0.0005 -0.1285
12056TIP3   OH257658   3.999   6.263  16.883 -0.3182 -0.4977 -0.2717
12056TIP3    H157659   4.074   6.321  16.872 -0.5741 -0.0954  0.0752
12056TIP3    H257660   3.946   6.276  16.804  0.1286 -1.0147 -0.6618
12057TIP3   OH257661   4.846   4.372  12.679  0.1253  0.1366  0.0199
12057TIP3    H157662   4.850   4.468  12.677 -0.3364  0.1844  0.7696
12057TIP3    H257663   4.753   4.353  12.693  0.5459 -0.3240  2.7029
12058TIP3   OH257664   1.123   4.058   6.462 -0.3462 -0.0198  0.3194
12058TIP3    H157665   1.135   3.964   6.473  1.0608  0.1700  0.5800
12058TIP3    H257666   1.028   4.069   6.455 -0.7335 -1.2058  2.6683
12059TIP3   OH257667   2.745   3.992  14.212 -0.2666  0.0651  0.3211
12059TIP3    H157668   2.698   4.066  14.174 -1.9770 -1.4361 -0.6283
12059TIP3    H257669   2.706   3.980  14.299 -1.3078 -0.8301 -0.2472
12060TIP3   OH257670   5.890   3.397   6.062  0.0490 -0.5996 -0.1805
12060TIP3    H157671   5.955   3.328   6.049  0.7025 -0.2787  1.2838
12060TIP3    H257672   5.935   3.463   6.113 -0.7491  0.6822 -1.0806
12061TIP3   OH257673   1.841   5.481   0.742 -0.5913  0.5746  0.3953
12061TIP3    H157674   1.788   5.435   0.677 -0.9396 -0.1406  1.1614
12061TIP3    H257675   1.926   5.438   0.738 -0.2585  1.2850 -0.3715
12062TIP3   OH257676   6.667   6.560  14.773  0.5984 -0.3282 -0.0282
12062TIP3    H157677   6.643   6.593  14.687  0.0257  0.5900  0.4658
12062TIP3    H257678   6.738   6.616  14.802 -0.0393  0.1707  0.6052
12063TIP3   OH257679   3.072   3.855   2.214 -0.3746 -0.1791  0.3088
12063TIP3    H157680   3.068   3.760   2.214 -1.2106 -0.1832 -1.6762
12063TIP3    H257681   2.999   3.882   2.270 -1.2106 -0.7121 -0.4976
12064TIP3   OH257682   6.214   4.162  14.640  0.0588 -0.5448 -0.0884
12064TIP3    H157683   6.195   4.248  14.676  3.1221 -0.3863  1.4856
12064TIP3    H257684   6.297   4.173  14.594 -0.3283 -2.3120 -1.2927
12065TIP3   OH257685   0.729   0.512  15.426 -0.0177 -0.1315 -0.1446
12065TIP3    H157686   0.761   0.601  15.413 -0.5887  0.4012  1.8809
12065TIP3    H257687   0.730   0.499  15.520 -0.1690 -2.2071 -0.3833
12066TIP3   OH257688   3.041   2.622  12.557 -0.1470  0.1826 -0.8253
12066TIP3    H157689   3.082   2.703  12.528  0.2605  1.5528  3.0200
12066TIP3    H257690   2.950   2.647  12.576 -0.2864 -0.5371 -0.5355
12067TIP3   OH257691   0.443   3.288  11.555  0.0285  0.5085 -0.0948
12067TIP3    H157692   0.509   3.287  11.486 -0.5895  1.0802 -0.7167
12067TIP3    H257693   0.492   3.299  11.636  0.6577  1.5451 -0.6021
12068TIP3   OH257694   1.368   6.617  12.420 -0.5719  0.1475  0.1860
12068TIP3    H157695   1.281   6.631  12.457 -1.2214  1.0402 -1.5296
12068TIP3    H257696   1.365   6.528  12.385 -1.2349  0.5556 -0.8627
12069TIP3   OH257697   2.347   0.223   3.891 -0.0469 -0.5290 -0.4004
12069TIP3    H157698   2.267   0.244   3.938  0.1366  0.7757 -0.6124
12069TIP3    H257699   2.336   0.266   3.806 -0.1002 -2.2877 -1.3250
12070TIP3   OH257700   1.219   2.908  14.468 -0.7573 -0.3047 -0.0750
12070TIP3    H157701   1.148   2.973  14.463 -1.5606 -1.2413 -1.6254
12070TIP3    H257702   1.292   2.950  14.422 -0.3019  0.6133  1.4180
12071TIP3   OH257703   5.540   6.005  11.405 -0.4193 -0.3130 -0.1357
12071TIP3    H157704   5.565   5.915  11.384  1.3375  0.0671  0.1422
12071TIP3    H257705   5.480   6.030  11.335 -0.5227 -1.5288 -0.5094
12072TIP3   OH257706   0.967   6.531   5.057 -0.7236  0.0378  0.4384
12072TIP3    H157707   0.979   6.436   5.051  0.8867 -0.0442  3.3803
12072TIP3    H257708   1.052   6.567   5.034 -0.9107  0.7053  0.7896
12073TIP3   OH257709   2.078   0.446  15.984  0.1971  0.2350 -0.0936
12073TIP3    H157710   2.113   0.470  16.070 -0.4712 -0.9122  0.5127
12073TIP3    H257711   2.156   0.439  15.928  0.6010  1.4364  0.2897
12074TIP3   OH257712   0.340   0.857  14.104  0.1769 -0.9893  0.0129
12074TIP3    H157713   0.344   0.803  14.183 -0.6731 -0.1679  0.6435
12074TIP3    H257714   0.247   0.877  14.094  0.4764  0.4496 -0.1326
12075TIP3   OH257715   5.620   6.031  12.224 -0.4738  0.0091 -0.2902
12075TIP3    H157716   5.545   6.078  12.187 -2.2830 -1.7544  0.9045
12075TIP3    H257717   5.603   6.031  12.318  1.3538  0.0243  0.0656
12076TIP3   OH257718   3.459   1.666  13.772 -0.4465  0.0436  0.1078
12076TIP3    H157719   3.442   1.655  13.679 -0.3861 -0.8301  0.1853
12076TIP3    H257720   3.499   1.583  13.799  0.8490  0.7910  0.6227
12077TIP3   OH257721   4.945   4.847  11.091 -0.5316  0.7463 -0.6160
12077TIP3    H157722   4.968   4.755  11.074 -3.2800 -0.1557  0.0270
12077TIP3    H257723   5.007   4.875  11.158 -0.2349 -0.9647 -0.1100
12078TIP3   OH257724   2.761   2.567  12.726  0.6154 -0.2650  0.3547
12078TIP3    H157725   2.731   2.482  12.757  1.6506 -0.8237 -0.1605
12078TIP3    H257726   2.734   2.571  12.635  1.5074 -0.4912  0.0769
12079TIP3   OH257727   3.445   1.215  11.697  0.0595  0.1857 -0.4617
12079TIP3    H157728   3.420   1.248  11.611  1.5786 -1.6805 -1.7053
12079TIP3    H257729   3.418   1.123  11.696  0.3348  0.0658  0.9879
12080TIP3   OH257730   2.875   4.329  16.743  0.1701  0.2711 -0.6008
12080TIP3    H157731   2.953   4.341  16.797 -0.4680 -2.0605  0.9888
12080TIP3    H257732   2.909   4.308  16.656  1.2527  1.5644 -0.5160
12081TIP3   OH257733   5.294   2.143   0.946  0.5700 -0.4091 -0.2901
12081TIP3    H157734   5.281   2.237   0.959  1.0116 -0.4510  0.5231
12081TIP3    H257735   5.206   2.107   0.945  0.3319  0.1203 -1.6418
12082TIP3   OH257736   4.783   4.661  14.398 -0.3552 -0.6557 -0.1094
12082TIP3    H157737   4.756   4.587  14.452 -0.0526  0.5553  1.7873
12082TIP3    H257738   4.733   4.735  14.431 -0.0255  0.1853 -1.3932
12083TIP3   OH257739   2.617   4.261   3.749 -0.2485 -0.0203 -0.2431
12083TIP3    H157740   2.527   4.229   3.757  0.2171 -0.9865  1.5675
12083TIP3    H257741   2.615   4.348   3.790 -0.6894  0.7306 -1.7686
12084TIP3   OH257742   0.453   2.222  11.622  0.1096 -0.0249  0.2144
12084TIP3    H157743   0.498   2.179  11.549 -0.2776 -0.1549  0.0518
12084TIP3    H257744   0.466   2.316  11.606 -2.1441  0.0818 -1.4582
12085TIP3   OH257745   0.843   3.273   5.531 -0.0316 -0.4200 -0.3092
12085TIP3    H157746   0.850   3.276   5.626  0.8339 -3.5688 -0.1581
12085TIP3    H257747   0.749   3.261   5.514 -0.3070  1.0384  0.0400
12086TIP3   OH257748   0.717   3.835   2.410 -0.0511 -0.3543 -0.4142
12086TIP3    H157749   0.812   3.847   2.417  0.1220 -1.7434  0.0654
12086TIP3    H257750   0.685   3.840   2.500 -0.6705  1.5507 -0.6955
12087TIP3   OH257751   2.539   6.211   0.305 -0.0384 -0.3394  0.0654
12087TIP3    H157752   2.496   6.128   0.282  0.1370 -0.1352 -1.0609
12087TIP3    H257753   2.509   6.229   0.394 -0.4041 -1.4027  0.1812
12088TIP3   OH257754   6.312   2.829  12.494 -0.8568 -0.2982 -0.3106
12088TIP3    H157755   6.261   2.765  12.543 -0.6598 -2.2252 -2.4597
12088TIP3    H257756   6.250   2.864  12.430 -0.5562  0.5704 -0.1428
12089TIP3   OH257757   4.709   5.377   2.726 -0.2639 -0.0323 -0.1592
12089TIP3    H157758   4.736   5.287   2.745 -0.5437  0.2347  1.6816
12089TIP3    H257759   4.734   5.427   2.804 -2.4649  0.9912 -0.0300
12090TIP3   OH257760   1.528   2.856  16.848 -0.1951  0.2788  0.8218
12090TIP3    H157761   1.586   2.901  16.909  0.0105  2.0117 -0.5942
12090TIP3    H257762   1.441   2.891  16.869 -0.2888  0.0310  0.8521
12091TIP3   OH257763   4.814   3.591  16.201  0.4990 -0.3890  0.1802
12091TIP3    H157764   4.823   3.620  16.292 -2.1631 -0.6186  0.5992
12091TIP3    H257765   4.720   3.576  16.190  0.8875 -1.4783 -2.2871
12092TIP3   OH257766   0.481   0.695   1.633  0.0952  0.6019  0.3760
12092TIP3    H157767   0.437   0.615   1.665  1.1963 -0.7280 -1.2869
12092TIP3    H257768   0.424   0.728   1.565 -0.4278  1.3497  1.1568
12093TIP3   OH257769   2.926   1.821  16.597  0.5151 -0.2550 -0.0129
12093TIP3    H157770   2.902   1.868  16.677 -1.1884 -1.7031  0.3909
12093TIP3    H257771   2.847   1.773  16.572  1.4706 -1.0563 -1.7048
12094TIP3   OH257772   5.440   3.192  13.653  0.6590 -0.1042  0.2575
12094TIP3    H157773   5.522   3.203  13.605  1.2357 -2.0188  0.7107
12094TIP3    H257774   5.375   3.175  13.584  0.5595  1.5800 -0.1146
12095TIP3   OH257775   3.857   5.822  11.794 -0.1596  0.2829 -0.0774
12095TIP3    H157776   3.883   5.910  11.819  1.5903 -0.0430 -0.6031
12095TIP3    H257777   3.939   5.772  11.791 -1.2195 -1.6849  1.3603
12096TIP3   OH257778   4.181   3.494   2.278 -0.0717 -0.1787  0.3811
12096TIP3    H157779   4.108   3.537   2.322  0.0232  0.2755  0.1046
12096TIP3    H257780   4.162   3.400   2.287  0.2715 -0.1307  1.9255
12097TIP3   OH257781   4.606   4.826   4.997  0.3220  0.2315  0.2262
12097TIP3    H157782   4.643   4.912   5.015  0.0145  0.2948  0.5559
12097TIP3    H257783   4.681   4.767   5.000  0.8567  0.7188 -1.8479
12098TIP3   OH257784   1.360   1.475   5.745  0.0279  0.3346 -0.1503
12098TIP3    H157785   1.365   1.380   5.746  0.2770  0.3468  1.2204
12098TIP3    H257786   1.297   1.495   5.676 -0.2251 -0.8255 -0.2714
12099TIP3   OH257787   3.317   2.863  13.967  0.5049 -0.0403 -0.6679
12099TIP3    H157788   3.272   2.803  13.908 -0.2000  1.7264 -2.0202
12099TIP3    H257789   3.324   2.945  13.918  1.1479  1.1023  1.2025
12100TIP3   OH257790   4.987   3.237   3.638 -0.8071  0.2063  0.3405
12100TIP3    H157791   4.971   3.287   3.558 -0.2951 -0.5806 -0.2703
12100TIP3    H257792   4.923   3.166   3.635 -0.6131  0.0218  0.4865
12101TIP3   OH257793   5.535   5.155  15.887 -0.6374  0.2563 -0.3924
12101TIP3    H157794   5.457   5.100  15.892  0.8355 -1.8447  0.4047
12101TIP3    H257795   5.516   5.229  15.944 -2.4677  0.3772 -1.0977
12102TIP3   OH257796   2.700   3.907   4.773 -0.8348  0.4133 -0.5802
12102TIP3    H157797   2.687   3.869   4.686  0.0979  0.4325 -0.7436
12102TIP3    H257798   2.787   3.875   4.800 -0.8755  0.8640  0.1042
12103TIP3   OH257799   0.748   0.723  14.321 -0.2274 -0.0648 -0.5739
12103TIP3    H157800   0.785   0.706  14.407 -1.0057 -1.4557 -0.4960
12103TIP3    H257801   0.708   0.810  14.329  1.0290  0.4881 -0.0113
12104TIP3   OH257802   5.570   0.628  16.254  0.0520 -0.2273 -0.0847
12104TIP3    H157803   5.542   0.623  16.162  1.0556  0.1769 -0.4272
12104TIP3    H257804   5.635   0.559  16.263 -1.6977 -1.8502  0.9812
12105TIP3   OH257805   0.774   0.938   3.571  0.3097  0.6453  0.4213
12105TIP3    H157806   0.756   0.890   3.652 -1.5548 -1.1641 -0.9476
12105TIP3    H257807   0.700   0.997   3.561  0.8932  1.3787  0.3806
12106TIP3   OH257808   4.494   0.213  14.566  0.1713  0.6749 -0.6899
12106TIP3    H157809   4.475   0.148  14.498  0.0144 -0.6374  0.5524
12106TIP3    H257810   4.415   0.267  14.571  0.1477  0.7132 -1.4596
12107TIP3   OH257811   0.477   4.224  16.709 -0.4061  0.3322 -0.0381
12107TIP3    H157812   0.522   4.177  16.639  1.9721  1.7658  0.4088
12107TIP3    H257813   0.455   4.156  16.773  1.2192 -0.4580 -0.2672
12108TIP3   OH257814   3.142   5.638  12.531 -0.2010 -0.4186 -0.7338
12108TIP3    H157815   3.164   5.606  12.444 -1.1050  0.8465 -1.4779
12108TIP3    H257816   3.089   5.716  12.514 -0.8895 -0.4862  0.9576
12109TIP3   OH257817   5.449   1.100  12.653 -0.3924 -0.5338  0.0170
12109TIP3    H157818   5.427   1.192  12.644 -0.3883 -0.4914  0.4448
12109TIP3    H257819   5.400   1.057  12.583 -2.3848 -0.5254  1.3338
12110TIP3   OH257820   2.366   1.968   4.664 -0.3620 -0.2895 -0.7099
12110TIP3    H157821   2.385   2.061   4.651  4.5658 -0.5032  2.3773
12110TIP3    H257822   2.406   1.925   4.587  1.2258  0.0309 -0.1140
12111TIP3   OH257823   0.744   4.915  17.043  0.0092 -0.4913  0.5617
12111TIP3    H157824   0.708   4.900  17.131  0.6438 -0.6933  0.7969
12111TIP3    H257825   0.709   4.842  16.991 -1.8083  0.5934  0.1749
12112TIP3   OH257826   0.600   3.203   5.922 -0.1164 -0.1696  0.1601
12112TIP3    H157827   0.592   3.290   5.883  1.4095 -0.1398 -0.1520
12112TIP3    H257828   0.667   3.213   5.990  1.4107 -1.4491 -1.0707
12113TIP3   OH257829   5.133   4.078   5.674  0.1003  0.3146  0.5409
12113TIP3    H157830   5.190   4.033   5.612 -0.4586  0.6826 -0.2642
12113TIP3    H257831   5.164   4.051   5.760  2.0146  1.1688  0.1561
12114TIP3   OH257832   0.862   2.269   2.352  0.2798 -0.3671  0.0871
12114TIP3    H157833   0.909   2.186   2.358 -0.9388 -1.1102 -0.3852
12114TIP3    H257834   0.927   2.330   2.315  1.0720 -1.1931  0.0849
12115TIP3   OH257835   3.720   6.352   1.943 -0.3600 -0.1886  0.3001
12115TIP3    H157836   3.800   6.302   1.924  1.5086  2.7858 -0.3111
12115TIP3    H257837   3.650   6.287   1.939  1.7041 -2.4991 -1.7943
12116TIP3   OH257838   5.140   2.123  12.976 -0.0364  0.0241 -0.7526
12116TIP3    H157839   5.126   2.029  12.985  1.1452 -0.1058 -0.1403
12116TIP3    H257840   5.078   2.162  13.038 -0.0173 -0.3830 -0.4719
12117TIP3   OH257841   1.975   2.098  15.970 -0.5059  0.1501  0.4011
12117TIP3    H157842   1.885   2.131  15.970 -0.8884 -0.8644  0.2595
12117TIP3    H257843   1.971   2.018  16.023  0.1282 -0.3714 -0.3210
12118TIP3   OH257844   0.169   5.791   3.333 -0.4860 -0.0385  0.0384
12118TIP3    H157845   0.213   5.708   3.348  0.8216  0.4402 -0.9423
12118TIP3    H257846   0.085   5.767   3.293 -1.1726 -0.9639  1.8976
12119TIP3   OH257847   5.389   6.727   6.392  0.6224 -0.2987  0.6882
12119TIP3    H157848   5.483   6.735   6.375  0.5463 -0.4754  0.1696
12119TIP3    H257849   5.349   6.727   6.305 -0.0677  2.1583  0.9294
12120TIP3   OH257850   4.419   1.729  12.038 -0.0346 -0.7334  0.1643
12120TIP3    H157851   4.342   1.765  11.994  0.5790  0.5739  0.1309
12120TIP3    H257852   4.429   1.783  12.117  1.3188 -0.3337 -0.2462
12121TIP3   OH257853   2.880   6.506   5.300  0.0300  0.3355  0.3758
12121TIP3    H157854   2.817   6.437   5.320  0.6572 -0.1375  0.7179
12121TIP3    H257855   2.966   6.467   5.315  0.4802  0.5611 -1.3585
12122TIP3   OH257856   3.702   3.084  13.952 -0.1495  0.1842  0.4000
12122TIP3    H157857   3.670   2.995  13.965  0.7947 -0.3716 -0.8757
12122TIP3    H257858   3.720   3.116  14.040 -2.1995 -0.2138  1.0067
12123TIP3   OH257859   3.205   4.665   1.473 -0.5649  0.8394 -0.2109
12123TIP3    H157860   3.225   4.594   1.534 -0.0803 -0.7663 -2.1427
12123TIP3    H257861   3.284   4.676   1.422 -0.5309  3.0298  0.2108
12124TIP3   OH257862   4.231   2.050  11.987 -0.0007 -0.5597  0.1951
12124TIP3    H157863   4.282   2.112  11.934 -1.0728 -0.3011 -0.5613
12124TIP3    H257864   4.171   2.105  12.036 -0.1679 -0.9241  0.3974
12125TIP3   OH257865   5.736   3.144   2.981  0.1126  1.0299 -0.0950
12125TIP3    H157866   5.715   3.180   3.066  0.8085 -1.1246  1.0770
12125TIP3    H257867   5.663   3.086   2.960  0.9952 -0.2286  0.1728
12126TIP3   OH257868   3.384   2.802  15.785 -0.0239  0.3414  0.5681
12126TIP3    H157869   3.436   2.742  15.732 -1.3269 -2.3012  2.1368
12126TIP3    H257870   3.363   2.874  15.725  1.0825 -1.0191 -1.5708
12127TIP3   OH257871   6.085   5.116  15.471 -0.0537 -0.1195 -0.7889
12127TIP3    H157872   6.065   5.207  15.491 -2.1190 -0.9392  1.2147
12127TIP3    H257873   6.178   5.117  15.447  0.6697  2.1422  1.6612
12128TIP3   OH257874   4.526   3.749  15.295 -1.0307  0.9806  0.0914
12128TIP3    H157875   4.483   3.818  15.346 -0.3143  1.6696 -0.2293
12128TIP3    H257876   4.605   3.790  15.260 -1.2657  0.3826 -1.1877
12129TIP3   OH257877   6.035   0.219   5.305  0.4078  0.2747  0.2060
12129TIP3    H157878   6.044   0.166   5.384  0.2049  0.2853  0.2384
12129TIP3    H257879   6.022   0.308   5.337 -0.6115  0.1444  0.1910
12130TIP3   OH257880   3.616   1.421  13.135 -0.0214  0.7950  0.1710
12130TIP3    H157881   3.695   1.448  13.182 -1.1914 -1.0056  3.5544
12130TIP3    H257882   3.553   1.400  13.204 -1.8532 -2.5108 -2.1975
12131TIP3   OH257883   5.384   2.799   5.173  0.3817 -0.2305  0.1330
12131TIP3    H157884   5.309   2.842   5.214  0.6667 -0.3989  0.8624
12131TIP3    H257885   5.456   2.815   5.234  0.8803 -0.2800 -0.4369
12132TIP3   OH257886   0.262   4.987   4.174  0.0260  0.1710  0.0318
12132TIP3    H157887   0.222   4.914   4.127 -1.3020  0.2072  1.0327
12132TIP3    H257888   0.332   4.946   4.225 -1.4674 -0.6754  1.5094
12133TIP3   OH257889   6.459   5.987   2.990 -0.1978  0.1461 -0.0114
12133TIP3    H157890   6.487   6.052   3.055  1.0239 -0.0817 -0.2827
12133TIP3    H257891   6.465   6.033   2.906  0.7503 -0.3088 -0.2137
12134TIP3   OH257892   3.691   1.671   0.509  0.0139  0.2177  0.0060
12134TIP3    H157893   3.766   1.664   0.568  0.2178  1.2128 -0.1189
12134TIP3    H257894   3.641   1.591   0.524  0.2182  0.3192  1.2984
12135TIP3   OH257895   2.292   1.301   2.552  0.5469  0.2690 -0.3421
12135TIP3    H157896   2.251   1.242   2.490 -0.9984  0.5332  0.3833
12135TIP3    H257897   2.348   1.245   2.606  0.7539 -0.1818 -1.0230
12136TIP3   OH257898   5.103   6.161  13.570 -0.5390 -0.3317  0.0246
12136TIP3    H157899   5.174   6.197  13.516 -1.4580  0.7397 -0.5133
12136TIP3    H257900   5.048   6.113  13.508 -1.0640  0.0661  0.1798
12137TIP3   OH257901   0.561   3.267  16.376 -0.2793  0.1474  0.1329
12137TIP3    H157902   0.606   3.211  16.439  0.2655  1.1821  0.6947
12137TIP3    H257903   0.477   3.287  16.418 -0.3221  0.0465  0.0955
12138TIP3   OH257904   3.168   6.272   2.164  0.0878  0.5505 -0.5470
12138TIP3    H157905   3.255   6.240   2.141  0.4031  1.2145 -0.3015
12138TIP3    H257906   3.133   6.308   2.082  0.7648  1.9023 -0.2664
12139TIP3   OH257907   6.311   6.494   4.341  0.0426  0.7111  0.5705
12139TIP3    H157908   6.351   6.407   4.343 -0.2924  0.4772 -1.3742
12139TIP3    H257909   6.312   6.519   4.249 -0.8411  2.3268  0.9622
12140TIP3   OH257910   6.668   6.471   2.832  0.1024  0.0982 -0.0859
12140TIP3    H157911   6.708   6.483   2.746  1.2051  0.8617  0.5198
12140TIP3    H257912   6.574   6.483   2.816  0.3062  0.3923 -1.1454
12141TIP3   OH257913   1.622   0.872   1.422  0.3450  0.4663 -0.5670
12141TIP3    H157914   1.528   0.867   1.437  0.2302  0.5438 -1.2342
12141TIP3    H257915   1.657   0.792   1.463  0.1688  1.1080  0.8926
12142TIP3   OH257916   6.045   6.343   4.565  0.4479 -0.4509 -0.2438
12142TIP3    H157917   6.051   6.420   4.508  0.0713  0.2677  0.6686
12142TIP3    H257918   6.105   6.280   4.525  2.2353  0.9839  0.0352
12143TIP3   OH257919   0.091   5.497   2.190  0.0168  0.1372 -0.1683
12143TIP3    H157920   0.128   5.545   2.265  0.4193 -0.2293 -0.1323
12143TIP3    H257921   0.013   5.547   2.167 -0.8025 -0.4070  1.2600
12144TIP3   OH257922   0.365   5.389  11.701  0.4733  0.4976  0.2449
12144TIP3    H157923   0.433   5.383  11.635  1.5312  1.3365  1.2081
12144TIP3    H257924   0.347   5.483  11.708 -0.3238  0.3396  0.4712
12145TIP3   OH257925   4.359   0.911  15.369 -0.0869 -0.3621  0.3753
12145TIP3    H157926   4.397   0.863  15.442  1.6135 -1.5726 -1.2034
12145TIP3    H257927   4.307   0.981  15.410  0.1224 -1.4760  2.6983
12146TIP3   OH257928   6.048   0.569  12.444  0.3731  0.1571  0.0803
12146TIP3    H157929   6.062   0.640  12.381  1.6854  0.1523  0.3332
12146TIP3    H257930   6.091   0.493  12.405  1.3601  0.1944  1.0345
12147TIP3   OH257931   5.934   1.899   0.170 -0.1787  0.0283  0.1803
12147TIP3    H157932   5.895   1.881   0.084  0.7718  1.1817 -0.5150
12147TIP3    H257933   5.861   1.932   0.222 -0.9767 -1.5835  0.1344
12148TIP3   OH257934   5.422   2.079   5.762  0.0971  0.4989 -0.4460
12148TIP3    H157935   5.436   2.002   5.817  0.7143  0.8271 -0.1320
12148TIP3    H257936   5.334   2.110   5.784 -1.1647 -1.4921 -2.2995
12149TIP3   OH257937   2.535   3.645   2.694  0.2072 -0.2176  0.1308
12149TIP3    H157938   2.615   3.611   2.733 -0.4463  0.0251  1.7766
12149TIP3    H257939   2.524   3.732   2.733 -0.8896 -0.2758 -0.0100
12150TIP3   OH257940   5.446   3.603  15.136 -0.1959  0.0446  0.1626
12150TIP3    H157941   5.455   3.699  15.134 -0.4562  0.0610 -1.9310
12150TIP3    H257942   5.485   3.574  15.054  0.8904 -1.7787  1.2665
12151TIP3   OH257943   4.517   5.404   5.476  0.1043 -0.5545  0.1393
12151TIP3    H157944   4.609   5.399   5.449  0.9206  1.0242  2.3250
12151TIP3    H257945   4.506   5.331   5.537 -0.0812 -0.6819 -0.0441
12152TIP3   OH257946   0.705   2.327  15.595  0.2225  0.0841 -0.0096
12152TIP3    H157947   0.668   2.409  15.626 -1.2127  0.4186 -2.3535
12152TIP3    H257948   0.736   2.347  15.506  0.9073 -1.6304 -0.1996
12153TIP3   OH257949   3.683   3.332  11.454  0.1662 -0.0153  0.1857
12153TIP3    H157950   3.737   3.372  11.522  1.6393 -0.0306 -0.9333
12153TIP3    H257951   3.658   3.404  11.397 -0.3552 -0.1298  0.2656
12154TIP3   OH257952   0.675   6.340  10.968  0.7456 -0.1371 -0.4739
12154TIP3    H157953   0.745   6.290  11.009  0.6451 -1.3391 -1.6829
12154TIP3    H257954   0.667   6.419  11.022  1.6848 -0.8850  0.8227
12155TIP3   OH257955   2.910   3.821   4.473 -0.1473 -0.2381 -0.0091
12155TIP3    H157956   2.942   3.868   4.396  0.1591 -2.4020 -1.2760
12155TIP3    H257957   2.816   3.811   4.458 -0.2453  0.0992  0.3524
12156TIP3   OH257958   1.844   6.686  11.153 -0.1510  0.4376 -0.5023
12156TIP3    H157959   1.757   6.690  11.113  0.4619  1.5124 -1.8316
12156TIP3    H257960   1.892   6.759  11.113  0.9464  0.7353  1.2393
12157TIP3   OH257961   2.382   5.768  14.838  0.0550  0.3307 -0.9525
12157TIP3    H157962   2.293   5.742  14.813 -0.1832  0.0035  0.1975
12157TIP3    H257963   2.438   5.716  14.780 -0.4815 -0.5817 -0.6758
12158TIP3   OH257964   3.985   0.644   0.086 -0.1570  0.1923 -0.1037
12158TIP3    H157965   4.033   0.727   0.091 -2.2337  1.3917  2.0532
12158TIP3    H257966   3.918   0.660   0.018  0.7636 -0.5354 -1.2182
12159TIP3   OH257967   4.028   4.376   0.902  0.0674 -0.8528  0.2446
12159TIP3    H157968   4.026   4.454   0.846  2.8841 -0.0494  1.0833
12159TIP3    H257969   3.937   4.362   0.927 -1.2381 -0.7615 -3.7451
12160TIP3   OH257970   2.858   0.325  13.620 -0.6063  0.2950 -0.5306
12160TIP3    H157971   2.841   0.241  13.578 -0.1264  0.4552 -1.0435
12160TIP3    H257972   2.836   0.310  13.712 -0.0966 -0.5172 -0.5337
12161TIP3   OH257973   0.135   5.819   5.058 -0.0204  0.1426 -1.0188
12161TIP3    H157974   0.198   5.820   5.130 -0.3743  1.5485 -0.6887
12161TIP3    H257975   0.186   5.793   4.981  0.3303 -1.5198 -0.2593
12162TIP3   OH257976   0.835   3.236  13.211 -0.1871  0.1897 -0.1552
12162TIP3    H157977   0.929   3.240  13.196 -0.2867  1.4460 -0.5454
12162TIP3    H257978   0.820   3.148  13.245  0.9279 -0.5489 -1.4813
12163TIP3   OH257979   4.793   4.553   4.722 -0.0202 -0.3109  0.0509
12163TIP3    H157980   4.846   4.585   4.795 -0.4075  1.0539 -0.2347
12163TIP3    H257981   4.722   4.504   4.763 -0.4214  0.7283  0.6212
12164TIP3   OH257982   4.234   0.606   3.071  0.4692 -0.2529 -0.7012
12164TIP3    H157983   4.246   0.663   2.995  1.0636 -1.0111 -1.1939
12164TIP3    H257984   4.322   0.573   3.091  0.2256 -0.5579 -0.0775
12165TIP3   OH257985   0.932   1.781  16.186  0.4330  0.1468  0.0131
12165TIP3    H157986   0.928   1.877  16.191 -0.0002  0.1557 -0.4452
12165TIP3    H257987   0.890   1.751  16.267  1.7893  0.3470  0.8238
12166TIP3   OH257988   2.292   5.103  15.602  0.1184 -0.7158  0.0182
12166TIP3    H157989   2.237   5.070  15.673 -0.9559 -0.1553 -0.5092
12166TIP3    H257990   2.298   5.198  15.618 -0.5540 -0.5025 -0.8811
12167TIP3   OH257991   5.391   5.970   3.194 -0.1030  0.5118  0.4151
12167TIP3    H157992   5.323   6.036   3.208  0.9215  1.7668 -0.2531
12167TIP3    H257993   5.471   6.021   3.181  0.8166 -0.8917  0.3187
12168TIP3   OH257994   2.206   4.523  14.565 -0.3728  0.4321 -0.1174
12168TIP3    H157995   2.140   4.575  14.520 -0.8193 -0.3894 -0.4338
12168TIP3    H257996   2.158   4.476  14.633  0.2525  1.4730  1.0896
12169TIP3   OH257997   6.066   3.518   4.222 -0.0343  0.4735 -0.3029
12169TIP3    H157998   6.079   3.608   4.252 -1.4850  0.7063 -0.3134
12169TIP3    H257999   5.982   3.520   4.175  0.3704 -0.6912 -1.1065
12170TIP3   OH258000   4.154   6.162  10.729  0.1928  0.5938 -0.6525
12170TIP3    H158001   4.238   6.174  10.684 -0.0679  0.0286 -1.3097
12170TIP3    H258002   4.165   6.082  10.780  0.5462  1.3231  0.4724
12171TIP3   OH258003   3.802   3.593   3.181  0.4859  0.1386 -0.5748
12171TIP3    H158004   3.738   3.665   3.187  1.0646  0.5757  0.7640
12171TIP3    H258005   3.753   3.521   3.142 -0.9311  0.3729  0.6778
12172TIP3   OH258006   6.088   0.313   2.953  0.6853  0.6180 -0.5130
12172TIP3    H158007   6.012   0.372   2.962  1.3461  1.3778  0.2762
12172TIP3    H258008   6.052   0.234   2.912 -0.6069  0.8280  0.1568
12173TIP3   OH258009   3.900   6.520  14.222 -0.0865  0.5757 -0.1439
12173TIP3    H158010   3.907   6.615  14.229  1.2603  0.4475  0.5860
12173TIP3    H258011   3.922   6.488  14.309  0.3859 -0.4358 -0.6159
12174TIP3   OH258012   2.210   0.589   0.286  0.0823  0.6486  0.0469
12174TIP3    H158013   2.247   0.528   0.350 -1.8222  0.2148  0.8107
12174TIP3    H258014   2.270   0.585   0.211  0.6406 -1.2889  0.5331
12175TIP3   OH258015   0.408   2.011   1.144 -0.2709 -0.0827 -0.4209
12175TIP3    H158016   0.387   2.052   1.060 -3.3825  1.7416  1.0710
12175TIP3    H258017   0.325   2.011   1.192  1.4852 -0.5232  2.8658
12176TIP3   OH258018   1.767   5.559  13.823  0.4321  0.0038  0.0769
12176TIP3    H158019   1.763   5.623  13.752 -1.4898 -0.0970  0.0464
12176TIP3    H258020   1.719   5.483  13.789 -0.1364 -0.2086  1.3080
12177TIP3   OH258021   1.155   1.935   4.032  0.1553  0.3962  0.2888
12177TIP3    H158022   1.064   1.961   4.016  0.3519  1.0588  0.2084
12177TIP3    H258023   1.149   1.851   4.078 -0.4770 -0.0353 -0.5687
12178TIP3   OH258024   1.897   1.690  16.951 -0.2172 -0.0093  0.3472
12178TIP3    H158025   1.958   1.755  16.916 -2.0561  1.2645 -0.6532
12178TIP3    H258026   1.941   1.657  17.030  1.3851  1.4408  0.1389
12179TIP3   OH258027   3.579   5.409  11.370  0.4532  0.6528 -0.5653
12179TIP3    H158028   3.605   5.453  11.452 -1.4780  1.4642 -0.3414
12179TIP3    H258029   3.654   5.353  11.349  0.7391 -0.1304  2.1448
12180TIP3   OH258030   2.669   4.368   1.987  0.2737 -0.4934  0.5776
12180TIP3    H158031   2.649   4.444   2.041  0.7728  0.2487 -0.2604
12180TIP3    H258032   2.740   4.397   1.929 -1.8961 -0.3622 -2.2607
12181TIP3   OH258033   2.180   1.847   1.463  0.1866 -0.5651 -0.3614
12181TIP3    H158034   2.206   1.935   1.436  0.7815 -0.5979  0.0892
12181TIP3    H258035   2.084   1.849   1.459  0.1876  0.1298 -0.2769
12182TIP3   OH258036   6.451   0.973  15.486  0.5814 -0.3834 -0.2888
12182TIP3    H158037   6.496   0.926  15.556 -1.9157 -1.5843  0.6291
12182TIP3    H258038   6.460   0.916  15.409  0.0312 -0.9753  0.0787
12183TIP3   OH258039   4.494   6.070  12.949  0.0153 -0.3117 -0.3987
12183TIP3    H158040   4.464   6.051  12.861 -1.4724  0.0968 -0.0011
12183TIP3    H258041   4.565   6.133  12.937 -0.8927  0.5758 -1.2539
12184TIP3   OH258042   5.400   4.243  13.512  0.0485  0.2740  0.7049
12184TIP3    H158043   5.473   4.288  13.555  1.6562  0.3544 -1.9000
12184TIP3    H258044   5.337   4.313  13.495  0.4681  0.6851  0.7903
12185TIP3   OH258045   6.431   3.781   6.121  0.2058  0.7750 -0.0146
12185TIP3    H158046   6.339   3.799   6.102  0.1633 -0.2443 -0.8509
12185TIP3    H258047   6.475   3.864   6.106 -0.2933  0.7927 -1.5471
12186TIP3   OH258048   1.635   6.671  12.087  0.7959 -0.3094  0.2402
12186TIP3    H158049   1.670   6.684  12.175  2.9778 -0.4061 -0.5488
12186TIP3    H258050   1.708   6.692  12.029 -0.2586 -1.2597 -1.5189
12187TIP3   OH258051   4.618   1.656   5.445 -0.1513  0.5953 -0.0813
12187TIP3    H158052   4.662   1.576   5.472  0.2780  1.3175  1.5271
12187TIP3    H258053   4.609   1.649   5.350 -2.2164 -2.3718  0.2208
12188TIP3   OH258054   3.350   3.181  17.046  0.0812 -0.2474 -0.2204
12188TIP3    H158055   3.292   3.120  17.093 -1.3056 -0.0263 -1.5501
12188TIP3    H258056   3.325   3.267  17.078  2.1330 -0.3025  1.7543
12189TIP3   OH258057   6.045   6.808  11.533 -0.0276  0.2909  0.2510
12189TIP3    H158058   6.137   6.792  11.554  0.3656  2.5296  0.4646
12189TIP3    H258059   5.998   6.737  11.576  1.5226 -0.4390  0.8250
12190TIP3   OH258060   0.316   2.275   3.662  0.5107  0.2271  0.6811
12190TIP3    H158061   0.315   2.187   3.625 -0.3542  0.4313  0.1961
12190TIP3    H258062   0.224   2.299   3.671  0.7033  1.5988 -0.5079
12191TIP3   OH258063   4.102   1.085   1.343 -0.1852 -0.0764 -0.0489
12191TIP3    H158064   4.134   1.013   1.397 -1.4524 -0.1182  0.6733
12191TIP3    H258065   4.010   1.065   1.328 -0.4975  1.2668 -0.0310
12192TIP3   OH258066   2.904   5.410  12.135 -0.0411  0.2203  0.2577
12192TIP3    H158067   2.835   5.430  12.199 -0.5379  0.1542 -0.2509
12192TIP3    H258068   2.864   5.428  12.050  0.1317 -1.0853 -0.1144
12193TIP3   OH258069   0.324   5.869  17.082  0.4806 -0.5082  0.4819
12193TIP3    H158070   0.279   5.938  17.129 -0.7404 -1.7676  1.2194
12193TIP3    H258071   0.293   5.877  16.991  2.1049  1.3101  0.0241
12194TIP3   OH258072   1.372   3.045  13.666 -0.1279  0.2908  0.7897
12194TIP3    H158073   1.352   2.995  13.745  0.7614 -0.6203  0.4573
12194TIP3    H258074   1.463   3.023  13.646  0.1068  1.6230  0.3125
12195TIP3   OH258075   5.188   4.215  16.031  0.4386  0.1053 -0.1585
12195TIP3    H158076   5.222   4.293  16.074 -0.0833  0.1604  0.1635
12195TIP3    H258077   5.171   4.154  16.102  2.0647 -0.8044 -0.5037
12196TIP3   OH258078   5.432   6.738  10.770 -0.0509  0.3360  0.0412
12196TIP3    H158079   5.343   6.747  10.737 -0.3857  0.4957  0.9516
12196TIP3    H258080   5.442   6.810  10.833  1.5000  1.7321 -1.6495
12197TIP3   OH258081   4.467   6.199  11.301 -0.5374  0.1654 -0.3473
12197TIP3    H158082   4.465   6.133  11.232 -0.5894  2.0224 -2.2335
12197TIP3    H258083   4.488   6.281  11.255 -2.2105  1.7950  1.5803
12198TIP3   OH258084   6.586   3.894   4.984  0.0982  0.3453 -0.1035
12198TIP3    H158085   6.588   3.831   4.912  0.3247 -0.4915  0.6147
12198TIP3    H258086   6.518   3.957   4.959 -0.4755 -0.4623 -0.6141
12199TIP3   OH258087   4.767   6.321  16.181 -0.0879 -0.1656  0.4503
12199TIP3    H158088   4.743   6.398  16.234  0.3403  0.2076  0.1129
12199TIP3    H258089   4.838   6.279  16.230  0.8752  0.6399 -0.2074
12200TIP3   OH258090   0.526   2.072   4.821 -0.1297  0.1873 -0.2496
12200TIP3    H158091   0.503   2.165   4.822  0.1026  0.2555  1.2214
12200TIP3    H258092   0.561   2.056   4.908 -2.3813 -1.8299  0.3964
12201TIP3   OH258093   2.458   6.057  16.491 -0.4961 -0.2057  0.2318
12201TIP3    H158094   2.511   6.034  16.566  0.2263  2.2416  0.5586
12201TIP3    H258095   2.377   6.007  16.502  1.5255 -3.9310 -0.2153
12202TIP3   OH258096   5.254   6.739   6.150 -0.6878  0.4867  0.3532
12202TIP3    H158097   5.207   6.658   6.132  0.0266  0.4313 -1.4305
12202TIP3    H258098   5.191   6.808   6.129 -0.8937  0.4145  0.7150
12203TIP3   OH258099   6.615   6.216  12.895 -1.3780 -0.1047  0.0007
12203TIP3    H158100   6.652   6.201  12.983 -0.2639  2.4203  0.0326
12203TIP3    H258101   6.656   6.149  12.841  0.2719  0.1704  0.8413
12204TIP3   OH258102   4.578   4.236   1.705 -0.7980  0.1380 -0.0749
12204TIP3    H158103   4.547   4.327   1.699  1.4217  1.2901  3.3475
12204TIP3    H258104   4.535   4.201   1.783 -0.9665 -1.5456 -0.8744
12205TIP3   OH258105   3.609   0.153   4.693 -0.0248 -0.3953  0.2736
12205TIP3    H158106   3.552   0.140   4.769  1.0757 -2.0513  0.8855
12205TIP3    H258107   3.620   0.247   4.687 -0.7653 -0.1893  1.6946
12206TIP3   OH258108   4.204   3.988   1.801 -0.3859 -0.1009 -0.2038
12206TIP3    H158109   4.296   3.961   1.794 -0.4788 -0.3616 -0.4740
12206TIP3    H258110   4.155   3.914   1.764 -0.7199 -0.0622  0.1578
12207TIP3   OH258111   1.599   2.386  12.561  0.2675  0.3760 -0.1987
12207TIP3    H158112   1.668   2.381  12.494 -0.2323  0.2550 -0.7167
12207TIP3    H258113   1.614   2.469  12.605  1.0393  0.1291  0.0225
12208TIP3   OH258114   2.100   6.709   5.472  0.0924  0.0798  0.3097
12208TIP3    H158115   2.007   6.687   5.466  0.3489 -0.9852  0.1407
12208TIP3    H258116   2.121   6.748   5.387 -0.4592  1.4483  0.7574
12209TIP3   OH258117   4.588   1.532   2.712 -0.0986 -0.2176 -0.1030
12209TIP3    H158118   4.508   1.577   2.685  0.2694 -0.6503 -2.0676
12209TIP3    H258119   4.657   1.598   2.701  0.1597 -0.6224 -1.0267
12210TIP3   OH258120   6.410   2.785   3.894  0.1614 -0.3785 -0.6095
12210TIP3    H158121   6.328   2.834   3.889  0.2332 -0.2707 -0.7446
12210TIP3    H258122   6.474   2.849   3.925 -0.2472 -0.9915  1.6536
12211TIP3   OH258123   0.486   2.166   2.413  0.0235 -0.2712 -0.4349
12211TIP3    H158124   0.533   2.230   2.359  0.6919 -0.7152 -0.4023
12211TIP3    H258125   0.396   2.168   2.380 -0.3128  1.6855  0.5023
12212TIP3   OH258126   1.356   5.600  14.440  0.0152  0.2254 -0.3008
12212TIP3    H158127   1.362   5.691  14.413  0.1189  0.3623  0.1855
12212TIP3    H258128   1.388   5.550  14.364  1.6073  0.6597  0.0466
12213TIP3   OH258129   1.158   5.267   2.861  0.3701 -0.2466  0.9308
12213TIP3    H158130   1.198   5.184   2.887  1.6067  0.1610  0.3995
12213TIP3    H258131   1.123   5.304   2.942 -1.2140 -1.7818  1.0049
12214TIP3   OH258132   6.822   4.387  12.433 -0.7698 -0.1104 -0.2095
12214TIP3    H158133   6.776   4.443  12.496 -0.2440  1.6208 -1.3009
12214TIP3    H258134   6.848   4.310  12.485  0.9548  1.8810  2.1234
12215TIP3   OH258135   2.013   2.289   4.664 -0.0475  0.1263  0.3844
12215TIP3    H158136   1.935   2.343   4.659 -1.5216 -1.8264  0.9247
12215TIP3    H258137   1.981   2.203   4.692  1.8564 -1.6669 -2.4077
12216TIP3   OH258138   6.243   4.396  14.472 -0.0184  0.1924  0.1307
12216TIP3    H158139   6.175   4.445  14.518 -0.0131 -1.0988  1.5812
12216TIP3    H258140   6.323   4.411  14.522 -0.1198 -1.6431  0.9440
12217TIP3   OH258141   1.445   2.637  11.930 -0.0118 -0.0613 -0.1220
12217TIP3    H158142   1.444   2.733  11.929  0.9753 -0.0405  0.0687
12217TIP3    H258143   1.356   2.613  11.956 -1.2658  0.7202 -3.2071
12218TIP3   OH258144   5.945   5.514  11.234  0.1882  0.0276 -0.2246
12218TIP3    H158145   5.916   5.449  11.169 -0.0195 -2.0593  1.8069
12218TIP3    H258146   5.977   5.587  11.182  1.0102 -1.9412 -2.7087
12219TIP3   OH258147   0.643   0.944   6.159  0.2536  0.1169  0.5499
12219TIP3    H158148   0.557   0.960   6.197 -0.5023  0.5678 -1.2673
12219TIP3    H258149   0.683   1.031   6.154 -0.7981  0.5433 -2.2068
12220TIP3   OH258150   5.720   6.718  10.752 -0.4862 -0.2081  0.3012
12220TIP3    H158151   5.681   6.725  10.665  1.6854  0.8057 -0.6652
12220TIP3    H258152   5.766   6.635  10.752  0.3337  0.2314  0.0884
12221TIP3   OH258153   4.202   1.306  15.275 -0.5537  0.0452  0.3412
12221TIP3    H158154   4.184   1.264  15.359  0.3081 -1.2241 -0.0815
12221TIP3    H258155   4.265   1.248  15.232 -1.7547  0.0994 -1.6222
12222TIP3   OH258156   5.574   3.915   4.823  0.1160  0.2271  0.2285
12222TIP3    H158157   5.599   4.006   4.837  2.4220 -0.0144 -1.7139
12222TIP3    H258158   5.639   3.864   4.871  1.7265 -0.3842 -2.4052
12223TIP3   OH258159   0.239   0.476  14.505 -0.0158 -0.6086 -0.4973
12223TIP3    H158160   0.204   0.407  14.562  0.6306 -0.6102 -0.0914
12223TIP3    H258161   0.162   0.524  14.476 -0.3497 -0.4432  0.6053
12224TIP3   OH258162   2.315   0.699   3.880  0.3122 -0.3008 -0.7907
12224TIP3    H158163   2.225   0.695   3.912  0.5546  0.8505  0.0819
12224TIP3    H258164   2.339   0.791   3.886  2.1465 -0.8190  0.7136
12225TIP3   OH258165   0.729   6.576   6.375  0.0200  0.5534  0.3328
12225TIP3    H158166   0.712   6.491   6.336 -1.8166  2.0292 -2.3990
12225TIP3    H258167   0.656   6.590   6.435 -2.4815  1.9913 -2.7268
12226TIP3   OH258168   5.053   6.042   4.876  0.2294 -0.2336 -0.0025
12226TIP3    H158169   4.981   6.047   4.813  1.6022  1.1838 -1.5903
12226TIP3    H258170   5.064   5.949   4.894 -0.2990 -0.6867 -1.8256
12227TIP3   OH258171   5.419   1.623   2.164  0.0607  0.0496  0.6223
12227TIP3    H158172   5.496   1.568   2.154 -0.8241 -1.1972  0.4815
12227TIP3    H258173   5.448   1.695   2.220  1.9310  0.8201 -1.1676
12228TIP3   OH258174   0.744   1.818   4.862 -0.0427 -0.5378 -0.1185
12228TIP3    H158175   0.834   1.819   4.829 -0.3834 -0.0071 -1.0592
12228TIP3    H258176   0.738   1.896   4.917 -0.0007 -0.4333 -0.2619
12229TIP3   OH258177   5.224   2.431  13.086  0.4251 -0.1412  0.0188
12229TIP3    H158178   5.187   2.504  13.135  0.9521  0.3483 -0.3027
12229TIP3    H258179   5.292   2.395  13.143  0.5481 -0.0256 -0.0547
12230TIP3   OH258180   0.640   5.238  11.927 -0.4743 -0.0811 -0.2497
12230TIP3    H158181   0.570   5.288  11.969  0.1854  0.4630  0.2329
12230TIP3    H258182   0.637   5.153  11.970 -0.4832  0.1251  0.1691
12231TIP3   OH258183   2.722   5.025   0.112  0.6313  0.8828  0.6614
12231TIP3    H158184   2.724   4.959   0.042 -0.1579  1.0665  0.4509
12231TIP3    H258185   2.724   4.973   0.193  0.9111  0.6408  0.5019
12232TIP3   OH258186   4.156   1.922   3.888 -0.2015  0.3195  0.3036
12232TIP3    H158187   4.162   1.999   3.944  1.8419 -0.2564  0.9683
12232TIP3    H258188   4.129   1.956   3.803 -1.7374  1.4167  1.1868
12233TIP3   OH258189   0.847   2.215  16.461  0.2972 -0.5789  0.5792
12233TIP3    H158190   0.875   2.296  16.503  1.7912 -0.6269 -0.2539
12233TIP3    H258191   0.849   2.150  16.530  0.9415 -0.2847  0.8445
12234TIP3   OH258192   2.965   0.141   2.689  0.4926 -0.0875 -0.0475
12234TIP3    H158193   2.998   0.127   2.601  0.9367 -0.1059  0.1208
12234TIP3    H258194   3.030   0.100   2.747  0.2844  0.0553  0.2949
12235TIP3   OH258195   6.263   4.903  14.600 -0.6036 -0.1593  0.0582
12235TIP3    H158196   6.248   4.955  14.522  0.0989 -0.3864 -0.2417
12235TIP3    H258197   6.335   4.947  14.645 -1.2294  0.1641  0.7629
12236TIP3   OH258198   6.585   0.739  12.043 -0.1023  0.2456 -0.1732
12236TIP3    H158199   6.662   0.743  11.986  1.6841  3.8774  2.0913
12236TIP3    H258200   6.614   0.691  12.120 -1.4182 -1.6537 -0.7847
12237TIP3   OH258201   5.742   3.234  13.198 -0.1954 -0.0762  0.6743
12237TIP3    H158202   5.723   3.241  13.105  0.0136  0.3281  0.6599
12237TIP3    H258203   5.786   3.316  13.220 -0.5114 -0.0393  1.1921
12238TIP3   OH258204   2.675   3.235   1.714 -0.4867  0.3333  0.7259
12238TIP3    H158205   2.747   3.182   1.680 -0.0655  1.1948  0.2481
12238TIP3    H258206   2.605   3.172   1.731  0.5415 -0.5976  1.7146
12239TIP3   OH258207   3.712   2.659   1.794  0.1701 -0.1074 -0.3886
12239TIP3    H158208   3.771   2.723   1.833 -0.0596  0.5339 -1.0813
12239TIP3    H258209   3.769   2.605   1.738  0.0483  0.7759 -1.3867
12240TIP3   OH258210   5.373   4.535   6.350  0.1559  0.6184  0.1292
12240TIP3    H158211   5.281   4.540   6.323 -0.3267 -0.8970  1.3640
12240TIP3    H258212   5.421   4.522   6.269 -1.0505 -1.8093 -0.2939
12241TIP3   OH258213   4.629   3.230  14.702  0.3698 -0.2834  0.2034
12241TIP3    H158214   4.658   3.170  14.634 -0.7164 -0.4764 -0.1193
12241TIP3    H258215   4.551   3.272  14.665  0.7554  0.8831  0.6603
12242TIP3   OH258216   0.541   2.490   2.423 -0.4897  0.2061 -0.1904
12242TIP3    H158217   0.604   2.537   2.369 -2.8717  4.0199  0.0110
12242TIP3    H258218   0.589   2.468   2.503  0.6643  3.0415 -0.0045
12243TIP3   OH258219   2.080   0.175   2.217 -0.5042  0.0285  0.0438
12243TIP3    H158220   2.086   0.093   2.266  0.9361  0.2877  0.3290
12243TIP3    H258221   2.169   0.209   2.214 -0.8768  1.0005 -1.1013
12244TIP3   OH258222   0.385   4.134  14.251 -0.2925  0.1454  0.0943
12244TIP3    H158223   0.362   4.055  14.300  1.3815  1.1095  2.6602
12244TIP3    H258224   0.305   4.157  14.203 -1.1253 -2.5004  0.0623
12245TIP3   OH258225   3.863   5.434   2.996  0.7173  0.1238 -0.5641
12245TIP3    H158226   3.781   5.402   3.032  1.6432 -1.0024  0.6483
12245TIP3    H258227   3.888   5.506   3.054  0.2494  0.9621 -1.3704
12246TIP3   OH258228   6.364   0.272   3.258 -0.2997 -0.1326 -0.4811
12246TIP3    H158229   6.400   0.327   3.189 -0.3725  0.6708  0.1009
12246TIP3    H258230   6.297   0.219   3.215 -0.0788  0.0748 -1.0925
12247TIP3   OH258231   4.831   0.638  13.810  0.7002  0.0319  1.1429
12247TIP3    H158232   4.874   0.553  13.802  0.2926 -0.0526 -0.5422
12247TIP3    H258233   4.780   0.632  13.891 -0.5163 -1.9148  0.2980
12248TIP3   OH258234   4.843   1.261  13.515  0.1696  0.6564 -0.1525
12248TIP3    H158235   4.775   1.218  13.464  0.8875 -0.1067 -0.5035
12248TIP3    H258236   4.925   1.225  13.480  0.6825 -0.5161  2.0588
12249TIP3   OH258237   5.115   0.399   3.218 -1.3647 -0.3756  0.0456
12249TIP3    H158238   5.181   0.453   3.262 -1.5200 -0.3713  0.2737
12249TIP3    H258239   5.125   0.312   3.256 -2.2127 -0.1306  0.8757
12250TIP3   OH258240   1.363   1.804  13.887 -0.0016 -0.4230  0.3402
12250TIP3    H158241   1.361   1.709  13.900 -0.3555 -0.2207  1.9502
12250TIP3    H258242   1.451   1.822  13.855 -0.1323 -1.3530 -0.6117
12251TIP3   OH258243   5.703   0.346  16.435 -0.1018 -0.3499  0.1667
12251TIP3    H158244   5.615   0.351  16.397  0.2244  0.5992 -0.4893
12251TIP3    H258245   5.756   0.303  16.367 -0.1331 -1.3277  0.7358
12252TIP3   OH258246   4.207   3.287   0.974 -0.1403  0.1225 -0.7849
12252TIP3    H158247   4.234   3.250   1.057 -0.2909 -2.4391 -1.7762
12252TIP3    H258248   4.112   3.297   0.982 -0.0391  0.7573 -0.3452
12253TIP3   OH258249   2.576   3.464   2.245 -0.5181 -0.1141 -0.0168
12253TIP3    H158250   2.631   3.514   2.306 -1.2947 -0.8753  1.3537
12253TIP3    H258251   2.488   3.498   2.258 -0.4704  0.8710 -1.9675
12254TIP3   OH258252   5.623   5.814   5.613  0.0975  0.0775 -0.5676
12254TIP3    H158253   5.655   5.864   5.539 -1.9441  0.7786 -1.0605
12254TIP3    H258254   5.534   5.849   5.628 -0.3161 -1.4756  0.8713
12255TIP3   OH258255   6.732   6.779  13.127  0.4185  0.0542  0.6839
12255TIP3    H158256   6.645   6.794  13.090  0.9585  0.7603 -0.3823
12255TIP3    H258257   6.718   6.774  13.221 -0.5943  1.7512  0.6777
12256TIP3   OH258258   5.043   5.204   4.837 -0.3284 -0.1059 -0.2644
12256TIP3    H158259   5.065   5.220   4.928  0.3749  0.1351 -0.4715
12256TIP3    H258260   4.974   5.267   4.817 -0.0395  0.2654 -0.0813
12257TIP3   OH258261   6.177   2.724   5.784 -0.2892  0.0929 -0.4665
12257TIP3    H158262   6.208   2.696   5.698 -1.2057 -0.2330 -0.7020
12257TIP3    H258263   6.129   2.649   5.818  0.7221 -0.0589  0.6775
12258TIP3   OH258264   1.618   1.115  13.590  0.4584 -0.0352 -0.0764
12258TIP3    H158265   1.676   1.058  13.640  0.0498  0.5841  1.1430
12258TIP3    H258266   1.675   1.182  13.553  0.5290  0.5703  1.1137
12259TIP3   OH258267   5.181   1.456   0.658  0.1844 -0.7228  0.2895
12259TIP3    H158268   5.177   1.493   0.570 -0.8143  1.3232  1.1342
12259TIP3    H258269   5.096   1.415   0.671  0.8545 -2.3581 -0.1886
12260TIP3   OH258270   2.757   4.042   1.879  0.2403 -0.1168 -0.1092
12260TIP3    H158271   2.668   4.059   1.910  1.3415  1.1250  2.7230
12260TIP3    H258272   2.776   3.953   1.909  0.2012 -0.1275 -0.1159
12261TIP3   OH258273   0.293   0.908   1.186 -0.1056 -0.0988  0.2181
12261TIP3    H158274   0.245   0.913   1.104 -0.5119  0.7724  0.4867
12261TIP3    H258275   0.276   0.992   1.229  1.7803  0.3020  0.2734
12262TIP3   OH258276   2.374   4.838  13.576  0.2429  0.1371 -0.6207
12262TIP3    H158277   2.341   4.811  13.491 -0.9910 -0.9457  0.1640
12262TIP3    H258278   2.461   4.797  13.583 -1.0448 -2.7227 -0.0018
12263TIP3   OH258279   6.514   4.546   2.581 -0.0515 -0.3235 -0.1460
12263TIP3    H158280   6.589   4.487   2.588  1.5038  1.6983  2.1353
12263TIP3    H258281   6.535   4.602   2.506  0.0257 -0.6682 -0.3826
12264TIP3   OH258282   6.007   1.773  12.480  0.3393  0.2294  0.5297
12264TIP3    H158283   5.962   1.764  12.396 -0.2934  2.0376  0.6225
12264TIP3    H258284   5.950   1.831  12.531  1.1552 -0.1195  1.8914
12265TIP3   OH258285   1.404   0.028  17.190 -0.8202  0.3450 -0.1709
12265TIP3    H158286   1.425   0.035  17.097 -0.1886 -0.7646 -0.1279
12265TIP3    H258287   1.488   0.029  17.234 -1.0414 -0.4199  0.2860
12266TIP3   OH258288   3.610   3.857  12.632  0.5658  0.2499  0.1563
12266TIP3    H158289   3.590   3.951  12.626 -0.9574 -0.0807 -0.4239
12266TIP3    H258290   3.679   3.843  12.567 -1.6207  0.3977 -2.3722
12267TIP3   OH258291   1.104   6.096  11.149  0.6428 -0.1213 -0.1441
12267TIP3    H158292   1.165   6.157  11.106 -1.1818  0.5934 -1.8441
12267TIP3    H258293   1.077   6.037  11.079 -2.7235  1.3068 -0.2105
12268TIP3   OH258294   5.881   2.560  13.776 -0.0784 -0.0812  0.8334
12268TIP3    H158295   5.936   2.482  13.779  0.2254  0.1499  1.3072
12268TIP3    H258296   5.935   2.625  13.732 -0.2506 -0.0711  0.6348
12269TIP3   OH258297   4.135   1.961   2.001  0.3561 -0.0371  0.0290
12269TIP3    H158298   4.211   1.992   1.952 -0.7280 -0.8950 -2.3151
12269TIP3    H258299   4.172   1.910   2.073  2.0031  1.3509  0.2324
12270TIP3   OH258300   1.901   3.656   1.267 -0.8850 -0.2199  0.5987
12270TIP3    H158301   1.957   3.581   1.281 -1.5794 -0.6959  0.8945
12270TIP3    H258302   1.933   3.696   1.186  1.3227  0.8478  1.8953
12271TIP3   OH258303   5.507   4.812   3.782  0.0162  0.6877 -0.4452
12271TIP3    H158304   5.487   4.803   3.876 -1.5721  0.8739 -0.7278
12271TIP3    H258305   5.555   4.733   3.760 -0.6330  0.0644  0.2911
12272TIP3   OH258306   1.668   5.136   4.919  0.0112 -0.2599 -0.4578
12272TIP3    H158307   1.683   5.133   5.014 -1.8131 -2.2897 -0.1367
12272TIP3    H258308   1.619   5.217   4.905 -2.0166 -1.1836  0.8171
12273TIP3   OH258309   5.703   4.177  11.809  0.0130  0.7624 -0.2866
12273TIP3    H158310   5.722   4.188  11.903  2.2049  1.4346 -0.7403
12273TIP3    H258311   5.746   4.095  11.785  0.9756  1.4582 -1.0266
12274TIP3   OH258312   3.858   0.600  13.196 -0.5700 -0.3846 -0.3866
12274TIP3    H158313   3.889   0.646  13.118  1.6735 -0.9337  0.1063
12274TIP3    H258314   3.932   0.547  13.224 -1.4398 -0.5226  1.9034
12275TIP3   OH258315   5.127   1.336  14.047  0.2055 -0.0606 -0.2684
12275TIP3    H158316   5.221   1.350  14.038  0.2408  1.9424  1.9488
12275TIP3    H258317   5.089   1.424  14.042 -1.7410 -0.9223 -2.2793
12276TIP3   OH258318   1.170   0.364   0.112 -0.2712  0.3816 -0.3181
12276TIP3    H158319   1.249   0.339   0.160 -0.0737 -0.5889 -1.0867
12276TIP3    H258320   1.110   0.397   0.178  0.0128 -0.8506  0.5884
12277TIP3   OH258321   1.507   3.606  15.071  0.0909 -0.2835 -0.0297
12277TIP3    H158322   1.559   3.586  14.993  0.6686  3.1874 -0.6970
12277TIP3    H258323   1.477   3.520  15.102  1.2407 -1.9461 -3.0481
12278TIP3   OH258324   5.605   5.557   5.523 -0.3929  0.1756  0.0843
12278TIP3    H158325   5.683   5.541   5.471  0.5576  0.3802  1.3940
12278TIP3    H258326   5.628   5.631   5.579 -1.5551  0.2937  0.4359
12279TIP3   OH258327   3.757   2.584   5.421 -0.5952 -0.4559  0.4189
12279TIP3    H158328   3.774   2.490   5.417  0.1219 -0.2936 -0.7881
12279TIP3    H258329   3.837   2.622   5.458  0.6212 -0.0120 -2.3690
12280TIP3   OH258330   4.000   5.833   0.279 -0.3465  1.0543  0.9794
12280TIP3    H158331   4.072   5.772   0.290 -0.2668  1.3538  2.2171
12280TIP3    H258332   3.921   5.783   0.299 -0.3824  1.0504  0.8329
12281TIP3   OH258333   4.565   1.022  10.485  0.6183 -0.0542 -0.2376
12281TIP3    H158334   4.508   1.092  10.451 -0.0167  0.0952  1.0567
12281TIP3    H258335   4.531   0.942  10.445  2.1790  0.4589 -2.7834
12282TIP3   OH258336   5.061   0.241   0.235 -0.3784  0.1347 -0.0128
12282TIP3    H158337   5.139   0.280   0.195 -0.0095 -0.2610  0.3170
12282TIP3    H258338   5.003   0.223   0.161 -0.1764  0.4705 -0.2568
12283TIP3   OH258339   5.722   4.680  14.266  0.0097 -0.1313  0.0945
12283TIP3    H158340   5.688   4.661  14.354  1.3730 -1.8955  0.3030
12283TIP3    H258341   5.653   4.733  14.225 -0.4700  1.1168  2.3372
12284TIP3   OH258342   4.873   2.824   0.754 -0.1405 -0.1434  0.2435
12284TIP3    H158343   4.930   2.801   0.681 -0.3295 -0.4599  0.1944
12284TIP3    H258344   4.823   2.744   0.771 -0.8760  0.2517 -0.0017
12285TIP3   OH258345   2.707   1.178  11.203  0.0814 -0.4447  0.0823
12285TIP3    H158346   2.773   1.240  11.233 -0.6130  0.3271  0.0490
12285TIP3    H258347   2.648   1.168  11.278  0.0477 -0.8658  0.0010
12286TIP3   OH258348   4.073   3.007   2.597  0.1851  0.0749 -0.5278
12286TIP3    H158349   4.078   2.951   2.519 -0.0942 -0.1490 -0.3865
12286TIP3    H258350   3.980   3.010   2.619  0.4229 -1.3387  0.8472
12287TIP3   OH258351   0.460   0.313  12.508 -0.3485  0.2781  0.0821
12287TIP3    H158352   0.447   0.395  12.462 -1.7350  0.0970  0.1031
12287TIP3    H258353   0.476   0.338  12.598  1.0149  0.5810 -0.2297
12288TIP3   OH258354   0.521   2.631  17.090 -0.5191 -0.2562 -0.3181
12288TIP3    H158355   0.505   2.720  17.121 -0.3178 -0.4521  0.3657
12288TIP3    H258356   0.495   2.576  17.164  0.1813 -0.7257 -0.4217
12289TIP3   OH258357   2.346   2.876   4.500 -0.1171 -0.9690 -0.4888
12289TIP3    H158358   2.255   2.872   4.529  0.0142 -0.9969 -0.0686
12289TIP3    H258359   2.383   2.952   4.545 -0.2440 -0.2494 -1.5861
12290TIP3   OH258360   0.144   6.549   4.302  0.0904 -0.3719 -0.1678
12290TIP3    H158361   0.071   6.575   4.359 -1.5577 -0.3344 -2.1939
12290TIP3    H258362   0.222   6.556   4.358 -1.5440 -1.5154  2.4173
12291TIP3   OH258363   5.124   3.525  12.196  0.2357  0.0599  0.2516
12291TIP3    H158364   5.213   3.508  12.229  0.3741 -0.1739 -0.2353
12291TIP3    H258365   5.079   3.441  12.204 -0.3593  0.4913  1.7355
12292TIP3   OH258366   6.300   0.300   0.777  0.2598 -0.3950 -0.2963
12292TIP3    H158367   6.345   0.316   0.694 -0.3417 -1.2300 -0.7995
12292TIP3    H258368   6.285   0.387   0.813  1.2023 -0.0562 -0.6931
12293TIP3   OH258369   1.703   5.230  13.146 -0.1513  0.7666  0.3434
12293TIP3    H158370   1.780   5.223  13.202  0.1576  0.4139 -0.1179
12293TIP3    H258371   1.644   5.288  13.194 -0.0736  0.1294  1.2382
12294TIP3   OH258372   5.347   3.028   6.173  0.0560 -0.2318 -0.8244
12294TIP3    H158373   5.370   3.011   6.264 -1.5238 -1.5623 -0.6264
12294TIP3    H258374   5.285   3.101   6.176 -0.4861 -0.6942 -0.7725
12295TIP3   OH258375   5.025   6.392  16.392  0.0180 -0.4172 -0.2032
12295TIP3    H158376   4.976   6.360  16.467 -0.5398 -0.2226 -0.4809
12295TIP3    H258377   5.028   6.487  16.403  0.2628 -0.4195 -0.2348
12296TIP3   OH258378   3.915   4.498   2.377  0.9141 -0.3675  0.3364
12296TIP3    H158379   3.920   4.585   2.417  1.7908 -0.9253  1.4991
12296TIP3    H258380   3.821   4.478   2.375  0.8136 -0.1940  1.9023
12297TIP3   OH258381   3.987   5.971  13.247 -0.2163 -0.2245  0.2437
12297TIP3    H158382   4.069   6.003  13.284  0.3366 -1.3791  0.0703
12297TIP3    H258383   3.998   5.979  13.152 -1.2934  1.9205  0.2430
12298TIP3   OH258384   0.265   2.756   4.547  0.3793  0.6385 -0.5758
12298TIP3    H158385   0.198   2.770   4.481 -0.3912  2.2886  0.4848
12298TIP3    H258386   0.346   2.743   4.497 -0.6094 -0.8280 -1.8531
12299TIP3   OH258387   1.954   4.255  13.287  0.3012 -0.5710  0.2570
12299TIP3    H158388   2.025   4.218  13.235 -0.6505 -1.5696 -0.3674
12299TIP3    H258389   1.885   4.189  13.284 -1.0146  0.7777  0.0786
12300TIP3   OH258390   2.159   3.217   6.056  0.5150 -0.1086 -0.1251
12300TIP3    H158391   2.072   3.255   6.067  0.2262 -0.7435 -0.1814
12300TIP3    H258392   2.184   3.243   5.967 -0.7128 -2.0378 -1.1206
12301TIP3   OH258393   6.330   3.673  12.330 -0.2873 -0.1194  0.1919
12301TIP3    H158394   6.316   3.685  12.236 -0.8243  0.3829  0.3308
12301TIP3    H258395   6.308   3.757  12.369 -1.0065 -0.6015  0.8646
12302TIP3   OH258396   5.463   2.823  16.269  0.0341 -0.3138 -0.2249
12302TIP3    H158397   5.371   2.837  16.247  0.3441 -0.0808 -1.4339
12302TIP3    H258398   5.470   2.729  16.284 -0.6152 -0.1885  0.9785
12303TIP3   OH258399   5.432   5.648  10.824  0.2150 -0.4744  0.2092
12303TIP3    H158400   5.384   5.589  10.766  0.3354 -0.1594 -0.2089
12303TIP3    H258401   5.374   5.723  10.836 -0.4822 -1.2052  1.7489
12304TIP3   OH258402   6.814   1.355   0.146 -0.4475 -0.0462 -0.4910
12304TIP3    H158403   6.770   1.437   0.164  1.6952  0.7395  1.7787
12304TIP3    H258404   6.900   1.364   0.188  0.5522 -2.7730 -1.6833
12305TIP3   OH258405   1.262   6.754   3.278  0.0275  0.3688 -0.1724
12305TIP3    H158406   1.200   6.804   3.331  0.0372 -0.8524  1.0386
12305TIP3    H258407   1.348   6.786   3.306  0.0287  1.9007 -1.6926
12306TIP3   OH258408   2.415   4.981   0.217 -0.8276 -0.4994  0.0948
12306TIP3    H158409   2.411   4.972   0.121 -1.8430 -1.9274  0.2257
12306TIP3    H258410   2.473   5.055   0.232 -0.1042 -0.6692 -1.6152
12307TIP3   OH258411   1.273   6.648  13.078  0.1559  0.0202 -0.2661
12307TIP3    H158412   1.305   6.587  13.145  1.2352 -3.2801 -3.4365
12307TIP3    H258413   1.334   6.721  13.081  0.4305 -0.2303  1.9695
12308TIP3   OH258414   2.566   3.840  15.849  0.0826  0.0109 -0.0443
12308TIP3    H158415   2.487   3.895  15.841 -0.4183 -0.4290  1.5039
12308TIP3    H258416   2.600   3.861  15.936  0.9014 -0.8167 -0.1630
12309TIP3   OH258417   5.660   6.081  16.046  0.0359 -0.9017 -0.3775
12309TIP3    H158418   5.665   6.162  16.096 -0.6017 -1.7564  1.1497
12309TIP3    H258419   5.595   6.099  15.978  2.3336  0.9243 -2.2539
12310TIP3   OH258420   1.024   5.657  15.448 -0.4813  0.4085  0.2734
12310TIP3    H158421   1.109   5.700  15.443 -0.2059  0.2510  2.6113
12310TIP3    H258422   1.012   5.617  15.361  0.4396  2.8782 -1.1031
12311TIP3   OH258423   4.709   1.607   6.521  0.3749  0.7104 -0.0084
12311TIP3    H158424   4.759   1.530   6.494 -2.0260 -0.9885  0.0965
12311TIP3    H258425   4.663   1.635   6.442  1.8734  2.6589 -0.2672
12312TIP3   OH258426   1.938   3.575   2.094  0.6741 -0.5568 -0.0030
12312TIP3    H158427   1.963   3.540   2.179  0.7170  0.0517  0.2393
12312TIP3    H258428   2.018   3.615   2.060 -0.2100  2.7057  1.4142
12313TIP3   OH258429   6.293   6.720  11.549  0.0194  0.3678 -0.1967
12313TIP3    H158430   6.264   6.638  11.510 -1.6477  0.4866  0.7088
12313TIP3    H258431   6.361   6.752  11.489  1.2238 -1.9756 -0.1961
12314TIP3   OH258432   0.777   2.573   3.448  0.2485 -0.2013 -0.8109
12314TIP3    H158433   0.842   2.583   3.517 -1.1728 -0.0348  0.5539
12314TIP3    H258434   0.726   2.654   3.451 -0.8383 -0.8529 -0.9476
12315TIP3   OH258435   6.019   6.162   2.765 -0.2632  0.0464 -0.1079
12315TIP3    H158436   6.000   6.194   2.676 -2.7399 -2.3347 -0.5681
12315TIP3    H258437   6.091   6.100   2.753 -1.4947 -1.3313 -0.7894
12316TIP3   OH258438   6.632   3.862  17.179  0.2681  0.4655  0.1438
12316TIP3    H158439   6.661   3.810  17.104 -1.5031  2.1844 -1.8965
12316TIP3    H258440   6.631   3.952  17.147 -1.6894  1.1426  1.8347
12317TIP3   OH258441   0.755   2.938  13.675  0.5656  0.2686  0.2192
12317TIP3    H158442   0.795   2.996  13.611  0.2325  0.8368  0.5220
12317TIP3    H258443   0.767   2.982  13.759 -0.6059  0.4106  0.3251
12318TIP3   OH258444   0.567   3.391  11.808 -0.2661 -0.3355  0.6171
12318TIP3    H158445   0.632   3.461  11.810  0.5903 -1.0304 -0.9582
12318TIP3    H258446   0.486   3.433  11.836 -0.1317  1.6998 -1.7060
12319TIP3   OH258447   4.322   0.922   5.582  0.0752 -0.7858  0.4111
12319TIP3    H158448   4.305   0.851   5.521  0.3251  0.0353 -0.6624
12319TIP3    H258449   4.242   0.974   5.582 -0.6003 -1.7845  2.2332
12320TIP3   OH258450   0.917   3.477   4.709 -0.4865  0.3118  0.9457
12320TIP3    H158451   0.840   3.442   4.753  0.6587 -2.1161  1.1875
12320TIP3    H258452   0.889   3.492   4.619 -2.4867  4.0891  1.9918
12321TIP3   OH258453   4.842   2.347   0.395  0.5917  0.3842 -0.2774
12321TIP3    H158454   4.848   2.431   0.351  2.5171  0.4886  0.0912
12321TIP3    H258455   4.913   2.348   0.459  1.2391 -1.8479 -0.8661
12322TIP3   OH258456   3.658   5.432  12.766  0.0738  0.8761  0.0206
12322TIP3    H158457   3.701   5.490  12.830 -0.9075  1.2515  0.3516
12322TIP3    H258458   3.602   5.491  12.715  2.7032  1.0807 -2.9470
12323TIP3   OH258459   5.993   3.719   5.077  0.1832  0.4633 -0.1734
12323TIP3    H158460   6.086   3.716   5.056  0.4895  1.0489  1.0308
12323TIP3    H258461   5.987   3.771   5.157 -1.1693  0.3332 -0.1542
12324TIP3   OH258462   1.051   4.325  13.837 -0.0668 -0.1468 -0.0121
12324TIP3    H158463   1.034   4.376  13.758 -1.5006  0.7215  0.8183
12324TIP3    H258464   1.133   4.359  13.871 -0.4124  0.7995 -0.1038
12325TIP3   OH258465   3.454   3.433  12.336  0.1000 -0.1667  0.4621
12325TIP3    H158466   3.393   3.470  12.401  1.0833 -0.2142  1.4345
12325TIP3    H258467   3.400   3.420  12.258 -1.0382  0.2121  1.1558
12326TIP3   OH258468   3.527   4.271  15.508 -0.2851  0.6579 -0.2877
12326TIP3    H158469   3.560   4.183  15.488 -0.8360  0.7182 -1.5101
12326TIP3    H258470   3.525   4.274  15.604  0.7756 -0.2654 -0.2084
12327TIP3   OH258471   0.988   5.141  11.330 -0.7154 -0.1267 -0.3968
12327TIP3    H158472   0.961   5.133  11.422  1.0767  0.4411  0.2214
12327TIP3    H258473   0.971   5.233  11.309  1.2639  0.4319  0.2291
12328TIP3   OH258474   0.144   4.813  14.104 -0.0547  0.1164 -0.3052
12328TIP3    H158475   0.062   4.770  14.081 -0.2824  0.0312  0.6486
12328TIP3    H258476   0.135   4.836  14.196  1.4021 -0.8628  0.1133
12329TIP3   OH258477   6.137   0.552   4.070  0.0622 -0.4043 -0.0262
12329TIP3    H158478   6.231   0.555   4.086  0.2474  1.3703 -1.2109
12329TIP3    H258479   6.119   0.461   4.048  1.3252 -0.9581  1.1014
12330TIP3   OH258480   2.515   4.084   4.023 -0.0236  0.5833 -0.6057
12330TIP3    H158481   2.455   4.009   4.029  1.9219 -0.9665  0.8126
12330TIP3    H258482   2.598   4.046   3.995  1.2571  2.0531  0.9745
12331TIP3   OH258483   2.578   1.286   1.720 -0.5266 -0.0453  0.0143
12331TIP3    H158484   2.494   1.283   1.766  0.0488 -0.9363  1.0475
12331TIP3    H258485   2.559   1.250   1.633 -1.1317 -0.6521  0.3840
12332TIP3   OH258486   2.174   3.984  14.252  0.5913  0.0590  0.2597
12332TIP3    H158487   2.260   3.977  14.210  0.4417 -0.8243  0.0837
12332TIP3    H258488   2.151   3.894  14.275 -0.8569  0.1075 -0.8381
12333TIP3   OH258489   5.971   1.162   3.006  0.4709  0.4737  0.2759
12333TIP3    H158490   5.910   1.153   2.934  0.3649 -0.9902  0.5130
12333TIP3    H258491   5.958   1.251   3.038 -0.4832  0.6679 -0.6004
12334TIP3   OH258492   4.292   6.671  15.156  0.2665 -0.6956 -0.5893
12334TIP3    H158493   4.376   6.679  15.112  0.0807 -1.2013 -1.0368
12334TIP3    H258494   4.265   6.581  15.141 -0.0646 -0.7144  0.0819
12335TIP3   OH258495   4.024   2.224   6.060 -0.1292 -0.0204 -0.7808
12335TIP3    H158496   4.081   2.283   6.011 -0.0838  0.0903 -0.5962
12335TIP3    H258497   3.980   2.280   6.124  0.6146 -0.3175  0.0299
12336TIP3   OH258498   1.188   0.474   4.596  0.2386  0.2842 -0.0748
12336TIP3    H158499   1.251   0.457   4.527  2.3870 -1.6831  2.1627
12336TIP3    H258500   1.237   0.523   4.663 -1.3271  0.8615  0.7234
12337TIP3   OH258501   4.569   2.276  15.091 -0.2327  0.2029  0.2206
12337TIP3    H158502   4.561   2.332  15.013 -0.3200 -3.0531 -2.3231
12337TIP3    H258503   4.485   2.230  15.095  0.0763 -0.2471  1.8220
12338TIP3   OH258504   1.867   5.143   2.040  0.1798  0.1198 -0.1933
12338TIP3    H158505   1.831   5.143   2.128 -0.4256 -1.9032 -0.3938
12338TIP3    H258506   1.835   5.225   2.001 -1.6438 -0.1506  0.6412
12339TIP3   OH258507   6.767   1.436   2.293  0.0246 -0.1067  0.3055
12339TIP3    H158508   6.678   1.410   2.268 -0.0115  0.6239 -0.3682
12339TIP3    H258509   6.763   1.443   2.388 -0.8980  0.7811  0.2235
12340TIP3   OH258510   6.452   5.022  13.678  0.0787 -0.1232 -0.0705
12340TIP3    H158511   6.530   4.981  13.642  0.7711  0.1572  1.0597
12340TIP3    H258512   6.477   5.113  13.693 -0.3499 -0.1053  0.6168
12341TIP3   OH258513   1.992   1.946   4.447 -0.3388  0.6552 -0.3153
12341TIP3    H158514   2.020   1.860   4.481  1.8331  1.6021  0.4810
12341TIP3    H258515   2.057   2.007   4.481 -0.7220  2.3590 -2.4596
12342TIP3   OH258516   2.907   3.920  11.126  0.1521 -0.1928 -0.2764
12342TIP3    H158517   2.941   3.942  11.039  1.5551  1.2503  0.5736
12342TIP3    H258518   2.814   3.901  11.111  0.1792  0.7617 -1.9679
12343TIP3   OH258519   2.664   4.566   2.187  0.2737 -0.0370 -0.6621
12343TIP3    H158520   2.629   4.651   2.161 -0.0862  0.1726  0.4199
12343TIP3    H258521   2.745   4.586   2.233  0.1119 -0.2536 -0.2702
12344TIP3   OH258522   5.724   2.336   0.992 -0.7176  0.1169 -0.0863
12344TIP3    H158523   5.749   2.418   1.035  1.2359 -1.3612  1.8383
12344TIP3    H258524   5.805   2.285   0.990 -1.8213 -1.7089 -1.4459
12345TIP3   OH258525   1.267   1.366  13.370 -0.0589 -0.6897  0.6824
12345TIP3    H158526   1.322   1.291  13.390 -0.2017 -0.8738  0.3796
12345TIP3    H258527   1.311   1.440  13.414  1.2304 -0.5644 -0.7260
12346TIP3   OH258528   4.323   6.826   0.203 -0.5190  0.3496  0.0215
12346TIP3    H158529   4.273   6.749   0.227  0.3318 -0.1996  0.0994
12346TIP3    H258530   4.343   6.813   0.110 -0.5893  0.6027 -0.0292
12347TIP3   OH258531   2.983   6.457   0.416 -0.5820  0.4125 -0.0259
12347TIP3    H158532   3.046   6.513   0.460 -0.3763 -0.5786  1.0031
12347TIP3    H258533   2.994   6.476   0.323  0.4178  1.0815  0.2142
12348TIP3   OH258534   2.907   5.119  13.176  0.0681 -0.0976  0.5622
12348TIP3    H158535   2.880   5.037  13.133 -2.3557  0.2461  1.2676
12348TIP3    H258536   2.973   5.156  13.117 -0.9609 -1.1060 -1.3408
12349TIP3   OH258537   0.001   5.103   0.297 -0.0546  1.0566 -0.2794
12349TIP3    H158538  -0.028   5.021   0.337  0.7000  1.2594  0.7021
12349TIP3    H258539  -0.067   5.123   0.232 -0.7574  0.1808  0.1713
12350TIP3   OH258540   5.220   3.870  15.110  0.2961 -0.6576 -0.6720
12350TIP3    H158541   5.152   3.813  15.075  1.0473 -0.3966 -2.6961
12350TIP3    H258542   5.178   3.956  15.117  0.0827 -0.7517 -0.7970
12351TIP3   OH258543   5.236   4.641   5.682 -0.3998  0.3624  0.0099
12351TIP3    H158544   5.230   4.621   5.775 -1.6542 -0.9397 -0.3057
12351TIP3    H258545   5.242   4.555   5.639  0.9091  0.9650 -1.0763
12352TIP3   OH258546   5.905   2.587  11.641 -0.3223  0.5225  0.5523
12352TIP3    H158547   5.934   2.496  11.651 -0.3378  0.5104  0.4907
12352TIP3    H258548   5.953   2.618  11.564 -1.5601  0.0490 -0.4570
12353TIP3   OH258549   4.061   0.649  16.853  0.3430 -0.1760 -0.0451
12353TIP3    H158550   4.033   0.739  16.872 -0.2449  0.3934 -3.1016
12353TIP3    H258551   4.156   0.653  16.855  0.3343  0.6682 -0.6720
12354TIP3   OH258552   1.827   2.270  13.143  0.0507 -0.8223  0.0206
12354TIP3    H158553   1.772   2.196  13.117  0.5203 -0.8652 -0.8925
12354TIP3    H258554   1.906   2.261  13.090  1.3329 -1.2270  1.8870
12355TIP3   OH258555   3.705   5.957   1.933 -0.5570 -0.0629 -0.0416
12355TIP3    H158556   3.672   5.869   1.945  1.8616 -1.3439 -1.8345
12355TIP3    H258557   3.778   5.947   1.872  0.5866  3.0173  0.6270
12356TIP3   OH258558   2.175   0.680   1.175  0.2930 -0.2586  0.4728
12356TIP3    H158559   2.105   0.666   1.110  0.5681 -2.0446  0.5125
12356TIP3    H258560   2.159   0.768   1.208 -1.3568 -0.2511 -0.2342
12357TIP3   OH258561   1.404   4.529  13.306 -0.4037  0.3543  0.0112
12357TIP3    H158562   1.361   4.580  13.375 -0.4718 -0.1206  0.3311
12357TIP3    H258563   1.372   4.566  13.224  1.3784  2.3977  0.1771
12358TIP3   OH258564   6.336   0.584  15.951  0.2754 -0.1023  0.1503
12358TIP3    H158565   6.270   0.628  15.897  0.7001  0.0634 -0.2371
12358TIP3    H258566   6.285   0.525  16.006 -0.2499  0.4156  0.2425
12359TIP3   OH258567   4.920   0.243  14.711  0.0213 -0.2259 -0.0855
12359TIP3    H158568   4.995   0.279  14.663 -0.5234  0.0954 -0.7192
12359TIP3    H258569   4.859   0.317  14.719 -0.6407 -0.7266 -0.4344
12360TIP3   OH258570   2.415   2.223   4.545 -0.1710  0.4123  0.1509
12360TIP3    H158571   2.504   2.189   4.550  0.1244  1.2796  1.3183
12360TIP3    H258572   2.418   2.286   4.473  0.1401  0.3742  0.1280
12361TIP3   OH258573   2.857   5.344   5.288  0.3525  0.4539 -0.0642
12361TIP3    H158574   2.787   5.366   5.350 -0.2740  2.1117 -1.2813
12361TIP3    H258575   2.842   5.402   5.214  2.0625 -0.3272 -1.0770
12362TIP3   OH258576   4.689   2.753   4.316  0.4639 -0.1153  0.5372
12362TIP3    H158577   4.619   2.716   4.261 -0.0767  0.9288  0.4929
12362TIP3    H258578   4.721   2.828   4.266  0.5054  0.3823  1.2926
12363TIP3   OH258579   4.783   2.606  11.894  0.0746 -0.0755 -0.2791
12363TIP3    H158580   4.805   2.691  11.933 -1.1111 -0.9068  2.4215
12363TIP3    H258581   4.818   2.541  11.955  0.9658 -1.5890 -2.2921
12364TIP3   OH258582   1.260   2.734   0.486 -0.0469  0.5485  1.2090
12364TIP3    H158583   1.323   2.802   0.511  0.6564 -0.5192  2.4466
12364TIP3    H258584   1.299   2.690   0.411  0.3477  0.3558  1.5255
12365TIP3   OH258585   4.488   2.006   2.472 -0.8647  0.2177  1.0777
12365TIP3    H158586   4.556   2.028   2.408 -1.4801  0.1192  0.3853
12365TIP3    H258587   4.490   1.910   2.478 -0.9880  0.2102  1.0042
12366TIP3   OH258588   0.884   6.693  11.808  0.1662  0.3274 -0.1864
12366TIP3    H158589   0.923   6.779  11.820  1.8375 -0.2849 -0.9643
12366TIP3    H258590   0.917   6.662  11.724  1.5263 -2.0420  1.1031
12367TIP3   OH258591   0.855   5.422  14.791  0.2166 -0.6664  0.0572
12367TIP3    H158592   0.858   5.439  14.885  2.1575  1.7365 -0.3459
12367TIP3    H258593   0.791   5.485  14.757  1.6624  0.5625 -0.5188
12368TIP3   OH258594   5.637   6.542  16.758 -0.5454  0.0090 -0.4216
12368TIP3    H158595   5.564   6.496  16.718 -0.9008 -1.7037  2.0334
12368TIP3    H258596   5.714   6.492  16.732 -0.3997  0.7132 -1.4304
12369TIP3   OH258597   4.169   4.486   2.467 -0.0484  0.0430 -0.3499
12369TIP3    H158598   4.084   4.498   2.423  0.6172  0.2206 -1.6437
12369TIP3    H258599   4.152   4.421   2.535 -1.3913  0.6447 -0.0771
12370TIP3   OH258600   3.481   6.655   6.590  0.1967 -0.0392  0.3890
12370TIP3    H158601   3.496   6.748   6.604 -2.2877  0.3823  0.6694
12370TIP3    H258602   3.433   6.650   6.507  0.6168 -1.1200  0.1863
12371TIP3   OH258603   2.646   0.765   2.930 -0.3746  0.5995  0.1729
12371TIP3    H158604   2.575   0.811   2.974 -0.0898  0.6475  0.5983
12371TIP3    H258605   2.724   0.790   2.979  0.5132  3.4248 -2.3808
12372TIP3   OH258606   1.995   3.510  12.011 -0.1851  0.7472  0.0417
12372TIP3    H158607   1.920   3.486  12.065  0.6485 -0.1197  0.8308
12372TIP3    H258608   1.958   3.517  11.922 -0.5977 -3.5252 -0.3535
12373TIP3   OH258609   4.228   6.048  15.163  0.7251  0.2002  0.6202
12373TIP3    H158610   4.243   6.056  15.257 -2.5417 -1.2448  1.3844
12373TIP3    H258611   4.161   6.113  15.143  2.2284  1.3456 -1.0478
12374TIP3   OH258612   3.763   5.968  15.558  0.0941 -0.2304  0.4398
12374TIP3    H158613   3.736   5.891  15.607 -0.4325  0.7968  1.8565
12374TIP3    H258614   3.710   5.966  15.478  1.7340 -2.5112 -0.6953
12375TIP3   OH258615   5.170   4.212  10.654  0.2250  0.1474  0.4612
12375TIP3    H158616   5.135   4.185  10.569 -0.6620 -0.8209  1.1059
12375TIP3    H258617   5.102   4.266  10.692  0.8286  0.9942  0.3613
12376TIP3   OH258618   4.791   2.974   0.357 -0.4256  0.1660  0.7485
12376TIP3    H158619   4.730   3.047   0.355  0.8016  1.2221 -1.0319
12376TIP3    H258620   4.736   2.897   0.373 -2.1047  1.1690  0.0662
12377TIP3   OH258621   3.639   5.442  12.342  0.1128  0.2085  0.2733
12377TIP3    H158622   3.603   5.357  12.317 -0.0690 -0.1974  1.7906
12377TIP3    H258623   3.565   5.502  12.339  0.3724  0.4689 -1.4199
12378TIP3   OH258624   1.049   5.095  14.576 -0.3370  0.0103  0.3648
12378TIP3    H158625   0.964   5.056  14.556 -0.8584  0.7117  1.1579
12378TIP3    H258626   1.029   5.169  14.634  0.7827  0.3832  0.3013
12379TIP3   OH258627   5.568   3.037   4.927 -0.8113  0.4433  0.0021
12379TIP3    H158628   5.503   3.017   4.859  0.3767 -1.6817 -0.6027
12379TIP3    H258629   5.628   3.099   4.886 -0.3177 -0.5347 -0.7710
12380TIP3   OH258630   3.799   0.916  14.333 -0.1356 -0.4093 -0.8185
12380TIP3    H158631   3.713   0.917  14.289  0.5907  1.0730 -2.3176
12380TIP3    H258632   3.825   0.824  14.333 -0.9785 -0.6645 -1.9020
12381TIP3   OH258633   0.092   4.040  16.871 -0.4516  0.6861 -0.1490
12381TIP3    H158634   0.043   4.007  16.947  2.4842  0.0816  1.6127
12381TIP3    H258635   0.071   3.979  16.801 -1.8298  0.1937  0.6414
12382TIP3   OH258636   5.263   3.117   4.707 -0.4228 -0.3560  0.2317
12382TIP3    H158637   5.346   3.070   4.719 -0.5391 -0.3039  1.3290
12382TIP3    H258638   5.287   3.210   4.710 -0.7371 -0.2776  2.7350
12383TIP3   OH258639   5.350   3.408  13.799 -0.0559 -0.6003  0.2933
12383TIP3    H158640   5.321   3.476  13.739  0.1122 -0.6803  0.1204
12383TIP3    H258641   5.373   3.334  13.743 -0.4252 -0.8690  0.4899
12384TIP3   OH258642   5.746   2.232  12.504  0.1163 -0.2591  0.4142
12384TIP3    H158643   5.734   2.266  12.593  1.3285  0.0659  0.4744
12384TIP3    H258644   5.671   2.265  12.455 -1.0182 -1.1460  1.4986
12385TIP3   OH258645   6.382   5.713  17.198  0.4109 -0.1321  0.3395
12385TIP3    H158646   6.468   5.685  17.230  1.3865  0.3960 -1.6529
12385TIP3    H258647   6.401   5.787  17.139 -1.4996  0.5805  0.5414
12386TIP3   OH258648   1.018   0.394  13.392  0.0848  0.2300 -0.1373
12386TIP3    H158649   0.996   0.357  13.477 -0.5704 -1.4628 -1.0098
12386TIP3    H258650   1.071   0.471  13.412 -1.5072  0.8711  1.8386
12387TIP3   OH258651   2.867   5.820  11.842  0.1717 -0.4906 -0.7873
12387TIP3    H158652   2.872   5.914  11.825 -0.6597 -0.4570 -0.8429
12387TIP3    H258653   2.777   5.795  11.820  0.3022 -1.2484 -0.5103
12388TIP3   OH258654   5.835   6.106  15.204  0.1958 -0.1166 -0.1619
12388TIP3    H158655   5.817   6.017  15.235  0.3182 -0.2292 -0.4117
12388TIP3    H258656   5.785   6.162  15.263  1.3468 -0.2551  0.9875
12389TIP3   OH258657   5.241   3.783  16.670  0.0404  0.1905 -0.5709
12389TIP3    H158658   5.202   3.806  16.754 -2.1048 -0.0530 -1.4468
12389TIP3    H258659   5.308   3.718  16.692  1.7216  2.3651  1.2299
12390TIP3   OH258660   5.106   6.768  15.066  0.3005  0.0340 -0.1530
12390TIP3    H158661   5.167   6.727  15.004 -0.0550  1.5272 -1.5936
12390TIP3    H258662   5.037   6.803  15.010 -0.4733  0.7122  1.1940
12391TIP3   OH258663   2.891   4.396   3.906 -0.3863 -0.5531 -0.0471
12391TIP3    H158664   2.865   4.428   3.992 -1.8861 -1.3679 -0.1554
12391TIP3    H258665   2.863   4.464   3.845  0.0015 -0.3176  0.0309
12392TIP3   OH258666   1.700   0.158  14.916 -0.6983 -0.6522  0.1913
12392TIP3    H158667   1.760   0.167  14.991 -1.3941  0.4970  0.6332
12392TIP3    H258668   1.692   0.247  14.881 -0.7445 -1.1015 -0.9889
12393TIP3   OH258669   6.730   2.381  16.241  0.1517  0.1917 -0.2306
12393TIP3    H158670   6.705   2.473  16.237 -1.1765 -0.1850 -1.5850
12393TIP3    H258671   6.651   2.333  16.216  1.4474 -1.1872 -1.9972
12394TIP3   OH258672   6.405   6.340  15.670 -0.0324  0.1817  0.0994
12394TIP3    H158673   6.416   6.433  15.650 -2.9166  0.6813  0.3893
12394TIP3    H258674   6.434   6.294  15.591  0.9996  1.3205 -0.2090
12395TIP3   OH258675   0.565   2.459  11.569  0.3488 -0.1545 -0.6424
12395TIP3    H158676   0.657   2.435  11.560  0.5688  0.1948  0.5019
12395TIP3    H258677   0.547   2.517  11.496  0.8499 -0.7601 -1.2546
12396TIP3   OH258678   5.779   1.876   4.716  0.0216  0.6110  0.0939
12396TIP3    H158679   5.757   1.791   4.678 -0.4437  1.1211 -0.7918
12396TIP3    H258680   5.697   1.925   4.716  0.6213  1.6647 -0.9811
12397TIP3   OH258681   0.744   2.918  14.077  0.1537 -0.8475 -0.2759
12397TIP3    H158682   0.827   2.916  14.029 -0.2514  1.1743 -1.1583
12397TIP3    H258683   0.698   2.995  14.043 -0.2346  0.6386  3.1822
12398TIP3   OH258684   2.283   4.496  15.875  0.0015  0.4563 -0.8319
12398TIP3    H158685   2.331   4.538  15.804  2.0576  2.3458  1.4821
12398TIP3    H258686   2.201   4.546  15.881 -0.5631 -0.2439 -2.3205
12399TIP3   OH258687   3.407   4.853  13.519  0.1254 -0.4147 -0.2443
12399TIP3    H158688   3.419   4.811  13.434 -0.6755 -2.3803  0.5583
12399TIP3    H258689   3.451   4.938  13.510 -0.1046 -0.4672 -2.6618
12400TIP3   OH258690   5.788   6.734  14.462 -0.0207 -0.5854 -0.3217
12400TIP3    H158691   5.773   6.696  14.549  2.0195 -2.8429 -0.8360
12400TIP3    H258692   5.721   6.694  14.407 -1.5357  1.1058  0.1786
12401TIP3   OH258693   2.825   2.976   4.930  0.1023 -0.1590 -0.8004
12401TIP3    H158694   2.747   3.015   4.969 -1.3230 -1.8119 -1.8217
12401TIP3    H258695   2.894   3.041   4.944 -1.7331  1.9763 -1.0270
12402TIP3   OH258696   5.739   5.220  16.311 -0.0452 -0.8943  0.2240
12402TIP3    H158697   5.702   5.132  16.316  0.5666 -1.0832  2.5490
12402TIP3    H258698   5.776   5.235  16.398  1.6384  0.8930 -0.7278
12403TIP3   OH258699   3.964   3.715  14.718  0.0405 -0.0186  0.1376
12403TIP3    H158700   3.974   3.635  14.770  1.7472 -0.1515 -0.3507
12403TIP3    H258701   4.046   3.723  14.670 -0.3720  1.6719 -0.3448
12404TIP3   OH258702   5.723   2.544  14.238 -0.0731  0.2426 -0.3371
12404TIP3    H158703   5.714   2.637  14.258  0.2538  0.1277  0.4093
12404TIP3    H258704   5.683   2.533  14.153 -1.7048  0.7480  0.3346
12405TIP3   OH258705   1.865   3.553   0.296  0.4961 -0.0196 -0.0637
12405TIP3    H158706   1.799   3.621   0.283 -1.6439 -1.7467  1.2385
12405TIP3    H258707   1.843   3.485   0.233  1.6091 -0.2740 -0.2114
12406TIP3   OH258708   1.722   4.312  16.991  0.3603 -0.5790 -0.1275
12406TIP3    H158709   1.687   4.232  16.952  0.7669 -0.6425 -0.3683
12406TIP3    H258710   1.706   4.379  16.925 -3.2710  0.3548  1.4484
12407TIP3   OH258711   4.239   5.027  15.354 -0.0573 -0.4404  0.4604
12407TIP3    H158712   4.330   5.056  15.345  0.0142 -0.9782 -0.8548
12407TIP3    H258713   4.193   5.073  15.284 -0.2086 -2.3232 -0.7615
12408TIP3   OH258714   3.142   2.439   1.923 -0.1768 -0.0387 -0.1816
12408TIP3    H158715   3.145   2.438   2.018  3.1334  0.8664 -0.1344
12408TIP3    H258716   3.163   2.349   1.897 -0.4370 -0.1352 -0.0605
12409TIP3   OH258717   3.089   3.110  11.053 -0.4433  0.0069 -0.5984
12409TIP3    H158718   3.078   3.106  11.148 -1.0081  1.6333 -0.5584
12409TIP3    H258719   3.109   3.202  11.036  0.0723 -0.3498 -2.0258
12410TIP3   OH258720   5.193   2.778  13.524  0.5912  0.1228 -0.3585
12410TIP3    H158721   5.284   2.770  13.553  0.0184 -1.0120  1.2818
12410TIP3    H258722   5.153   2.838  13.588  0.0118  0.0376 -0.6336
12411TIP3   OH258723   3.637   3.221  13.502 -0.0373 -0.8059 -0.6412
12411TIP3    H158724   3.692   3.215  13.580  0.7317  2.4008 -0.8236
12411TIP3    H258725   3.672   3.153  13.444  1.0219 -1.5698  0.8228
12412TIP3   OH258726   3.771   0.580  12.853  0.1824 -0.5548 -0.3634
12412TIP3    H158727   3.834   0.515  12.884  0.6961  0.9911  2.0101
12412TIP3    H258728   3.792   0.660  12.900 -3.0480  0.2608 -0.0481
12413TIP3   OH258729   2.230   2.597  16.528  0.1421  0.5964 -0.6289
12413TIP3    H158730   2.242   2.620  16.620 -0.3128 -2.5965  0.3524
12413TIP3    H258731   2.314   2.560  16.502  0.0512  0.8597 -1.3076
12414TIP3   OH258732   2.475   2.726  11.535 -0.3179  0.0742 -0.1427
12414TIP3    H158733   2.455   2.701  11.625  1.1198 -0.0306  0.1700
12414TIP3    H258734   2.394   2.712  11.488 -0.8936 -0.5652  0.9921
12415TIP3   OH258735   0.786   0.040   5.657  0.1386  0.1017  0.0140
12415TIP3    H158736   0.759   0.122   5.615  1.8601  0.8458  0.2806
12415TIP3    H258737   0.826  -0.012   5.587 -0.9912 -0.5509 -0.1644
12416TIP3   OH258738   6.226   6.802  16.065  0.0370  0.3216  0.3900
12416TIP3    H158739   6.160   6.812  15.996 -0.6203 -1.3049  0.7488
12416TIP3    H258740   6.266   6.717  16.048  2.3515  1.4014 -0.0311
12417TIP3   OH258741   4.669   4.965  15.232 -0.1625 -0.2099 -0.4470
12417TIP3    H158742   4.584   5.008  15.243  0.4347  1.9251 -3.1547
12417TIP3    H258743   4.726   5.033  15.197  2.8644 -1.4701  1.6363
12418TIP3   OH258744   3.340   5.259  16.518  0.0019 -0.1702 -0.0680
12418TIP3    H158745   3.384   5.319  16.458 -1.6843  1.5691  0.3341
12418TIP3    H258746   3.254   5.298  16.532 -0.5775 -1.8702  1.5082
12419TIP3   OH258747   1.755   2.144  12.259 -0.0243 -0.0047  0.2612
12419TIP3    H158748   1.665   2.129  12.229 -0.0410 -1.1235  0.8302
12419TIP3    H258749   1.756   2.236  12.286 -1.5813 -0.4648  2.1468
12420TIP3   OH258750   5.402   5.159   2.248 -0.5136 -0.0017 -0.0795
12420TIP3    H158751   5.369   5.247   2.230 -0.8965 -0.0122  0.5449
12420TIP3    H258752   5.485   5.173   2.293  0.2575  0.0250 -1.4718
12421TIP3   OH258753   4.067   0.273   3.645 -0.1101 -0.1094 -0.2037
12421TIP3    H158754   4.135   0.215   3.611  1.1312  0.5096  1.1018
12421TIP3    H258755   4.096   0.361   3.622  0.2726  0.2577  1.5159
12422TIP3   OH258756   1.875   5.202   4.186 -0.3879  0.0050 -0.2075
12422TIP3    H158757   1.960   5.246   4.177  0.2561 -1.2032 -0.2121
12422TIP3    H258758   1.849   5.220   4.276 -0.6901  1.3268 -0.5298
12423TIP3   OH258759   6.621   0.882  13.194  0.3116  0.0106 -0.1768
12423TIP3    H158760   6.673   0.949  13.239  0.8493  0.0497 -0.8311
12423TIP3    H258761   6.675   0.856  13.119  0.7885 -2.1930  0.8253
12424TIP3   OH258762   5.752   0.551   4.510 -0.0550  0.8972 -0.6339
12424TIP3    H158763   5.836   0.586   4.539  0.1449  0.4515 -0.6689
12424TIP3    H258764   5.773   0.466   4.472 -0.6755  0.2126  0.4810
12425TIP3   OH258765   1.310   4.193   6.216  0.1258  0.0830  0.1973
12425TIP3    H158766   1.389   4.154   6.179 -0.5401 -0.5127 -0.6488
12425TIP3    H258767   1.320   4.183   6.310  1.0257 -0.0467  0.1001
12426TIP3   OH258768   2.649   3.795   4.479 -0.2862 -0.5920 -0.0074
12426TIP3    H158769   2.607   3.864   4.428  1.7156  0.0629 -0.8738
12426TIP3    H258770   2.591   3.720   4.471 -1.7248  0.5158 -0.3691
12427TIP3   OH258771   3.011   6.657   3.500 -0.6158 -0.1917  0.0324
12427TIP3    H158772   2.926   6.689   3.469  0.5132  1.2201 -1.8299
12427TIP3    H258773   3.055   6.736   3.534  0.3145 -0.6972  0.0470
12428TIP3   OH258774   5.275   0.454   4.762 -0.1176  0.3096 -0.4041
12428TIP3    H158775   5.363   0.459   4.725 -0.2415  1.3780 -0.5974
12428TIP3    H258776   5.219   0.492   4.695 -0.5878  0.5613  0.1277
12429TIP3   OH258777   6.205   1.185   4.509  0.2894 -1.0431 -0.4124
12429TIP3    H158778   6.155   1.266   4.515  2.6888  0.8919 -3.2260
12429TIP3    H258779   6.245   1.174   4.595 -0.3204  0.6483  0.1198
12430TIP3   OH258780   1.726   2.265  13.658 -0.0112 -0.0290  0.4448
12430TIP3    H158781   1.645   2.234  13.698  0.4384 -1.0401  0.6019
12430TIP3    H258782   1.771   2.313  13.729 -0.8862  1.3821  0.0910
12431TIP3   OH258783   1.713   4.364   5.622  0.5853  0.5889  0.7915
12431TIP3    H158784   1.618   4.356   5.610  0.3051 -0.2013  2.9925
12431TIP3    H258785   1.728   4.458   5.628 -0.5152  0.6888  3.0225
12432TIP3   OH258786   0.312   2.724   2.922 -0.5417 -0.0995 -0.4429
12432TIP3    H158787   0.373   2.772   2.866  1.6865 -0.6746  1.3049
12432TIP3    H258788   0.289   2.786   2.992 -0.2578 -0.5306  0.0436
12433TIP3   OH258789   3.782   5.615  12.915 -0.3385  0.4707  0.2802
12433TIP3    H158790   3.859   5.614  12.973  0.6051  1.0875 -0.9153
12433TIP3    H258791   3.727   5.684  12.951 -0.7743 -0.5511  1.6610
12434TIP3   OH258792   3.746   5.258   4.216 -0.0611 -0.3879 -0.1416
12434TIP3    H158793   3.659   5.299   4.221 -0.4256 -1.0614 -0.7758
12434TIP3    H258794   3.806   5.326   4.247 -0.6129  0.7124 -1.3820
12435TIP3   OH258795   1.195   3.513   2.446  0.1753  0.2969 -0.0156
12435TIP3    H158796   1.238   3.497   2.362 -1.0312 -1.9363 -0.2980
12435TIP3    H258797   1.138   3.437   2.458 -0.8315  1.3064  2.1131
12436TIP3   OH258798   3.057   6.431   2.396 -0.0548  0.0791 -0.1083
12436TIP3    H158799   3.100   6.493   2.338  2.2219 -0.7698  0.5495
12436TIP3    H258800   3.048   6.351   2.344 -1.1644  0.3123 -0.3183
12437TIP3   OH258801   2.854   5.836  13.187  0.4223 -0.1667  0.3778
12437TIP3    H158802   2.789   5.842  13.118  1.6265  0.0106 -0.7802
12437TIP3    H258803   2.909   5.762  13.162  1.5514  0.5936  0.5187
12438TIP3   OH258804   1.039   6.673   5.884 -0.5035 -0.2758  0.5464
12438TIP3    H158805   1.063   6.640   5.797  1.6117 -0.2962  1.1043
12438TIP3    H258806   1.048   6.597   5.942  0.9954  0.4191  1.2611
12439TIP3   OH258807   0.806   1.669  11.970  0.5724 -0.1597  0.1626
12439TIP3    H158808   0.748   1.651  11.896  1.9167  1.1773 -1.2962
12439TIP3    H258809   0.865   1.594  11.973  0.7531 -0.0496 -0.4035
12440TIP3   OH258810   3.262   5.259   4.538 -0.1764 -0.4334 -0.4468
12440TIP3    H158811   3.291   5.180   4.582 -0.8210  0.3998  1.5914
12440TIP3    H258812   3.248   5.322   4.608  1.6780  1.9882 -2.0915
12441TIP3   OH258813   2.308   5.945  16.253  0.0278 -0.7461  0.2724
12441TIP3    H158814   2.357   5.931  16.334  0.1266 -0.9202  0.1810
12441TIP3    H258815   2.374   5.976  16.190 -0.2618  0.5973  0.5997
12442TIP3   OH258816   6.604   6.075   1.986  0.4169  0.0745  0.4052
12442TIP3    H158817   6.570   6.116   2.066  1.1139  0.8400  0.3283
12442TIP3    H258818   6.631   5.988   2.013  0.0724  0.1060  0.8677
12443TIP3   OH258819   6.779   5.682  15.577 -0.4895  0.2464 -0.2445
12443TIP3    H158820   6.806   5.704  15.666 -1.6346  0.2371  0.1216
12443TIP3    H258821   6.733   5.761  15.546  0.1665  0.3643 -0.9447
12444TIP3   OH258822   4.153   0.541  13.562 -0.3306  0.0952 -0.1874
12444TIP3    H158823   4.204   0.508  13.635 -0.9240 -2.3574 -0.7995
12444TIP3    H258824   4.211   0.605  13.519  1.1344 -0.5779  0.7216
12445TIP3   OH258825   3.977   5.898  15.002 -0.7686  0.7138  0.5607
12445TIP3    H158826   4.072   5.889  15.008 -0.6762  0.9289 -0.4081
12445TIP3    H258827   3.946   5.809  14.982 -0.5693  0.9944 -1.1461
12446TIP3   OH258828   6.079   1.858  14.397 -0.9190  0.3101  0.1124
12446TIP3    H158829   6.025   1.873  14.474  0.7523 -1.1407  1.6644
12446TIP3    H258830   6.158   1.910  14.413 -0.1593 -0.7310 -0.1254
12447TIP3   OH258831   2.793   6.825  13.868  0.1344  0.5688  0.0622
12447TIP3    H158832   2.718   6.799  13.815 -1.2124  2.4645  0.9088
12447TIP3    H258833   2.868   6.788  13.822 -1.0898  0.7228 -2.2577
12448TIP3   OH258834   6.660   6.764  13.400  0.5458  0.2312 -0.0032
12448TIP3    H158835   6.576   6.718  13.393  1.1581 -1.0593  0.7060
12448TIP3    H258836   6.680   6.764  13.494  1.5140  0.1875 -0.2005
12449TIP3   OH258837   6.446   0.963  16.301  0.3839 -0.0281  0.0832
12449TIP3    H158838   6.352   0.952  16.320  0.4831  0.7562  1.0816
12449TIP3    H258839   6.456   0.929  16.213 -0.8324 -0.2156 -0.0022
12450TIP3   OH258840   4.398   0.925   2.111 -0.3017 -0.6855  0.6875
12450TIP3    H158841   4.392   0.991   2.042 -0.5314 -1.1566  0.2486
12450TIP3    H258842   4.434   0.972   2.186 -2.2485  0.4060  0.9893
12451TIP3   OH258843   2.252   5.846   1.010 -0.2244  0.2361  0.6230
12451TIP3    H158844   2.318   5.850   0.940  0.3131 -1.2425  0.9985
12451TIP3    H258845   2.274   5.918   1.069  0.0084  0.7966 -0.1346
12452TIP3   OH258846   0.513   3.319  12.273  0.2607  0.2817  0.3248
12452TIP3    H158847   0.459   3.256  12.320  1.9085 -0.8299  0.8300
12452TIP3    H258848   0.573   3.353  12.339  2.0173 -0.6283 -0.7051
12453TIP3   OH258849   1.061   1.757  14.812  0.2707  0.2720 -0.2713
12453TIP3    H158850   1.097   1.669  14.815 -1.2974 -0.4159 -0.5262
12453TIP3    H258851   0.971   1.748  14.843 -0.6047  1.3767 -2.2238
12454TIP3   OH258852   0.871   2.354  16.760 -0.1773 -0.0725 -0.3920
12454TIP3    H158853   0.815   2.286  16.796 -0.6720 -0.0419 -1.0919
12454TIP3    H258854   0.937   2.370  16.828 -1.6994  0.7446  0.9502
12455TIP3   OH258855   0.628   3.101   2.844  0.0844  0.1500  0.2578
12455TIP3    H158856   0.717   3.065   2.838  0.0657  0.2528 -1.0084
12455TIP3    H258857   0.627   3.171   2.779 -0.9066  0.1964  0.3150
12456TIP3   OH258858   0.890   4.136  11.886 -0.5414  0.1876 -0.9671
12456TIP3    H158859   0.834   4.089  11.947  1.3913 -0.2427  0.5580
12456TIP3    H258860   0.886   4.227  11.915  1.4065 -0.2030  0.7529
12457TIP3   OH258861   3.529   3.206  11.814  0.2519 -0.0130 -0.3085
12457TIP3    H158862   3.522   3.200  11.718 -1.1385  0.2893 -0.2490
12457TIP3    H258863   3.470   3.137  11.846 -0.5424  0.9419  0.3222
12458TIP3   OH258864   1.114   3.311   5.203 -0.3142 -0.3696 -0.2415
12458TIP3    H158865   1.070   3.254   5.266 -0.3751  0.8049  0.8142
12458TIP3    H258866   1.179   3.358   5.254 -0.0683  0.3097 -1.1461
12459TIP3   OH258867   4.602   3.772   5.859  0.2425 -0.0156  0.2149
12459TIP3    H158868   4.507   3.758   5.865  0.1569 -0.4299 -1.5747
12459TIP3    H258869   4.638   3.716   5.928 -0.7503 -0.7578  0.1596
12460TIP3   OH258870   5.240   0.762  15.529 -0.0163  0.1207  0.7360
12460TIP3    H158871   5.279   0.674  15.522 -1.1638 -0.3179 -0.9789
12460TIP3    H258872   5.156   0.747  15.572  0.2040  0.5402  1.3216
12461TIP3   OH258873   0.684   3.165  12.078 -0.1838 -0.4096 -0.4723
12461TIP3    H158874   0.764   3.216  12.065 -0.0840 -0.2550  0.6530
12461TIP3    H258875   0.628   3.219  12.133  0.0447 -1.5919  0.9940
12462TIP3   OH258876   5.924   5.214   1.325  0.5482 -0.3851 -0.5547
12462TIP3    H158877   5.988   5.200   1.395  1.0513  0.8156 -0.7434
12462TIP3    H258878   5.930   5.135   1.272 -0.1346 -1.5086  0.9515
12463TIP3   OH258879   6.818   1.065  14.571 -0.0689  0.3064  0.6366
12463TIP3    H158880   6.907   1.030  14.567 -0.4748 -0.6990 -0.1531
12463TIP3    H258881   6.804   1.087  14.663 -0.0432 -2.4027  1.3603
12464TIP3   OH258882   6.778   5.700   3.177 -0.3281 -0.3602 -0.5420
12464TIP3    H158883   6.692   5.722   3.141  0.3520  1.1998 -1.3386
12464TIP3    H258884   6.822   5.654   3.106  0.4187  1.2351 -1.1581
12465TIP3   OH258885   4.138   5.383  15.256 -0.0265  0.3814  0.3660
12465TIP3    H158886   4.074   5.325  15.214 -0.2099 -0.1474  1.3492
12465TIP3    H258887   4.112   5.385  15.348  1.8166 -0.4934  0.9465
12466TIP3   OH258888   2.724   3.907   6.122 -0.7578 -0.1251 -0.8949
12466TIP3    H158889   2.643   3.856   6.127 -0.2496 -0.8905 -0.2400
12466TIP3    H258890   2.702   3.991   6.162 -0.6886 -1.0580  1.2049
12467TIP3   OH258891   2.617   2.304   5.107  0.0461 -0.4884  0.6835
12467TIP3    H158892   2.653   2.238   5.167  0.7577 -0.8629 -0.1289
12467TIP3    H258893   2.523   2.287   5.106  0.2598 -1.8209  0.1335
12468TIP3   OH258894   5.655   5.125  12.840  0.4144 -0.5273 -0.0558
12468TIP3    H158895   5.720   5.114  12.770  2.9940 -1.0559  2.2774
12468TIP3    H258896   5.665   5.047  12.895 -1.8772 -0.3610  0.7183
12469TIP3   OH258897   2.457   6.321  13.136 -0.1287 -0.2565  0.1966
12469TIP3    H158898   2.457   6.312  13.041  0.7877 -1.1782  0.2724
12469TIP3    H258899   2.419   6.407  13.152  0.4717  0.2578 -1.0406
12470TIP3   OH258900   1.398   4.394   2.740  0.1064  0.3089 -0.0992
12470TIP3    H158901   1.487   4.409   2.708  0.3464 -0.0020  0.4101
12470TIP3    H258902   1.355   4.345   2.669  0.0363  1.3119 -0.7626
12471TIP3   OH258903   0.024   1.371  11.953  0.0612  0.2363 -0.0931
12471TIP3    H158904   0.118   1.386  11.948  0.1822 -0.4295  0.1018
12471TIP3    H258905   0.006   1.312  11.880  0.1103 -1.1342  0.9621
12472TIP3   OH258906   1.719   6.736  17.033 -0.1825  0.2620 -0.1069
12472TIP3    H158907   1.719   6.734  17.128  2.4870 -0.2312 -0.0274
12472TIP3    H258908   1.796   6.789  17.010 -0.0615 -0.6239 -1.9357
12473TIP3   OH258909   6.023   1.394  16.260 -0.1879 -0.0064  0.2749
12473TIP3    H158910   6.085   1.340  16.210  1.5612  2.2986 -0.2102
12473TIP3    H258911   5.944   1.395  16.205 -0.5728 -2.5782  0.6549
12474TIP3   OH258912   2.580   6.659  14.741  0.2526 -0.5051  0.0080
12474TIP3    H158913   2.519   6.630  14.674  1.2422 -1.5792 -0.4685
12474TIP3    H258914   2.548   6.618  14.822 -0.8663  0.6894  0.2060
12475TIP3   OH258915   3.367   6.561   2.734  0.0643 -0.0673 -0.3359
12475TIP3    H158916   3.343   6.616   2.660  0.6593 -1.6369 -1.7767
12475TIP3    H258917   3.322   6.478   2.718  1.7861 -1.1099 -0.0385
12476TIP3   OH258918   4.777   1.347  12.839 -0.0859  0.4233 -0.5676
12476TIP3    H158919   4.781   1.382  12.928  0.8664  1.1739 -0.8861
12476TIP3    H258920   4.770   1.425  12.784 -0.7358 -0.0417 -1.1454
12477TIP3   OH258921   4.290   0.205   5.011  0.5439 -0.2462 -0.3840
12477TIP3    H158922   4.324   0.252   5.087  0.4444 -0.9146  0.0798
12477TIP3    H258923   4.206   0.170   5.039  0.7130 -0.8797 -0.6454
12478TIP3   OH258924   2.489   2.919   3.554  0.7889 -0.0952 -0.2308
12478TIP3    H158925   2.549   2.980   3.596  0.5666  0.2899 -0.4652
12478TIP3    H258926   2.432   2.974   3.501  0.9011 -0.5537 -0.8356
12479TIP3   OH258927   0.141   4.075  16.483 -0.0515 -0.2228  0.1971
12479TIP3    H158928   0.095   4.157  16.466 -0.0059 -0.1965  0.2021
12479TIP3    H258929   0.155   4.037  16.397 -0.5971 -0.5098  0.2280
12480TIP3   OH258930   1.119   0.512  15.886 -0.2920  0.0443 -0.0542
12480TIP3    H158931   1.071   0.440  15.926  0.8452 -0.4411  0.4869
12480TIP3    H258932   1.144   0.569  15.959 -0.9575  0.8660 -0.4460
12481TIP3   OH258933   5.696   1.110   3.844 -0.4514  0.0845  0.3537
12481TIP3    H158934   5.687   1.036   3.904 -0.2205 -0.2885 -0.0612
12481TIP3    H258935   5.750   1.076   3.773 -0.4938  0.6018  0.0711
12482TIP3   OH258936   5.710   5.809  11.335  0.1671  0.3791 -0.3046
12482TIP3    H158937   5.755   5.763  11.407 -0.6082  0.1617  0.0645
12482TIP3    H258938   5.766   5.795  11.259  0.8073  0.2699  0.1727
12483TIP3   OH258939   2.619   5.050   0.760  0.3987  0.1740  0.2984
12483TIP3    H158940   2.616   5.071   0.854  1.5293 -0.4870  0.4973
12483TIP3    H258941   2.697   5.095   0.727 -0.5518  1.2430 -0.5655
12484TIP3   OH258942   1.186   2.435   0.707  0.5231 -0.1841 -0.0486
12484TIP3    H158943   1.279   2.444   0.728  0.7619 -1.0676 -0.6737
12484TIP3    H258944   1.145   2.512   0.748  1.6563  0.7364 -0.5679
12485TIP3   OH258945   2.274   2.061   2.446  0.8407 -0.2026  0.0677
12485TIP3    H158946   2.268   2.152   2.476 -0.1109  0.7050 -2.5879
12485TIP3    H258947   2.314   2.067   2.359 -0.5900 -2.1564 -0.8132
12486TIP3   OH258948   4.341   6.383   2.177 -0.0897 -0.5728  0.4162
12486TIP3    H158949   4.318   6.452   2.239  1.2136  1.0390 -0.7826
12486TIP3    H258950   4.260   6.365   2.129 -0.0420  1.6463 -0.6220
12487TIP3   OH258951   3.760   3.553  12.850  0.0313  0.1908 -0.1086
12487TIP3    H158952   3.853   3.572  12.833  0.1464 -0.3622 -0.1108
12487TIP3    H258953   3.738   3.484  12.787  0.8324 -2.9201  2.7372
12488TIP3   OH258954   1.015   4.104   2.680  0.0054  0.1970 -0.0637
12488TIP3    H158955   0.981   4.171   2.620  1.9981  0.1945 -1.2652
12488TIP3    H258956   1.089   4.146   2.724  1.6426 -1.3170 -1.2277
12489TIP3   OH258957   3.256   2.248  12.971  0.2059  0.5264 -0.0002
12489TIP3    H158958   3.281   2.290  12.889  0.0222 -0.4374 -0.5665
12489TIP3    H258959   3.184   2.190  12.948  0.1914  0.1922  0.8322
12490TIP3   OH258960   5.797   3.125  16.638 -0.1175  0.4196  0.6897
12490TIP3    H158961   5.887   3.151  16.622  0.4979 -0.6790  2.1426
12490TIP3    H258962   5.745   3.177  16.577  1.4248  1.6251  0.3668
12491TIP3   OH258963   6.001   2.261   4.791 -0.1716 -0.0110 -0.2600
12491TIP3    H158964   5.921   2.311   4.806 -0.7373 -0.9423 -0.1216
12491TIP3    H258965   5.988   2.219   4.707  0.3251  0.1032 -0.4012
12492TIP3   OH258966   2.123   4.688   1.611 -0.2056 -0.0771 -0.3257
12492TIP3    H158967   2.031   4.679   1.636 -0.5848  1.7746 -0.9606
12492TIP3    H258968   2.123   4.680   1.515  0.7909 -3.4848 -0.1920
12493TIP3   OH258969   4.806   4.279   5.261  0.3946 -0.3078 -0.4076
12493TIP3    H158970   4.834   4.288   5.169  1.5951  0.4919  0.0016
12493TIP3    H258971   4.830   4.189   5.284 -0.9858 -0.8997 -1.2002
12494TIP3   OH258972   3.006   1.095   2.521  0.0995 -0.5539  0.2225
12494TIP3    H158973   2.979   1.108   2.430 -1.1823  0.5827  0.7248
12494TIP3    H258974   3.101   1.105   2.520  0.0882 -0.4603 -0.9697
12495TIP3   OH258975   4.618   1.741   0.790  0.0587  0.1284 -0.2297
12495TIP3    H158976   4.702   1.756   0.746 -0.3811  0.4578 -0.9673
12495TIP3    H258977   4.582   1.663   0.747  0.0512 -0.1164  0.2049
12496TIP3   OH258978   1.145   3.077   0.480 -0.0884 -0.3325  0.0169
12496TIP3    H158979   1.234   3.042   0.484  0.1507  0.3348  0.8809
12496TIP3    H258980   1.140   3.138   0.553 -1.4603 -0.8137  0.3658
12497TIP3   OH258981   0.622   1.501  15.570 -0.1446 -0.2260 -0.2622
12497TIP3    H158982   0.688   1.487  15.502 -0.5973 -1.4774 -0.4541
12497TIP3    H258983   0.618   1.597  15.580  1.0756 -0.0963 -0.8477
12498TIP3   OH258984   3.542   2.004   6.827  0.1081  0.1750  0.6077
12498TIP3    H158985   3.574   1.920   6.795 -0.7571 -0.7079  1.9276
12498TIP3    H258986   3.459   1.983   6.870 -2.1349  2.2747 -2.2707
12499TIP3   OH258987   4.158   3.325   4.926  0.1306  0.7320  0.2933
12499TIP3    H158988   4.147   3.234   4.954  1.6248  0.3173 -0.3691
12499TIP3    H258989   4.208   3.366   4.997  1.9774  0.2523 -0.6657
12500TIP3   OH258990   5.798   4.135  12.058  0.3663  1.0437 -0.1821
12500TIP3    H158991   5.848   4.055  12.042 -0.4443  0.2010  1.2742
12500TIP3    H258992   5.854   4.187  12.114  0.2917  0.8174  0.1068
12501TIP3   OH258993   4.869   3.995  16.150 -0.5184  0.5275 -0.7720
12501TIP3    H158994   4.939   4.036  16.202 -1.1198 -1.2855  1.6103
12501TIP3    H258995   4.916   3.933  16.094 -0.0645  0.6536 -0.5447
12502TIP3   OH258996   1.305   4.421  16.904 -0.0611 -0.1321 -0.3408
12502TIP3    H158997   1.333   4.330  16.915  1.5623  0.5579  1.8422
12502TIP3    H258998   1.218   4.425  16.944  0.8560 -0.2703  1.7716
12503TIP3   OH258999   0.432   4.360  12.498  0.0171  0.2692  0.3093
12503TIP3    H159000   0.381   4.313  12.564 -0.7519  0.7032  0.0280
12503TIP3    H259001   0.392   4.447  12.494  0.3383  0.3887 -0.4132
12504TIP3   OH259002   0.808   4.575   3.998 -0.2277 -0.3951  0.1295
12504TIP3    H159003   0.768   4.615   3.920  0.9215  1.0752  0.2526
12504TIP3    H259004   0.738   4.522   4.036 -1.3198  0.1864 -0.9964
12505TIP3   OH259005   5.186   0.443  14.989  0.2379  0.3100 -0.4313
12505TIP3    H159006   5.262   0.469  14.937  0.0873  1.5211 -0.0633
12505TIP3    H259007   5.203   0.351  15.011  0.7629  0.0422 -1.8034
12506TIP3   OH259008   1.033   4.293   4.732  0.3436  0.1026 -0.2968
12506TIP3    H159009   0.985   4.210   4.729  0.3506  0.1164 -1.7534
12506TIP3    H259010   1.090   4.290   4.655 -0.8507  2.1603 -1.3586
12507TIP3   OH259011   5.750   6.797   5.438  0.3287 -0.0661  0.6542
12507TIP3    H159012   5.829   6.813   5.488  0.0460 -2.4054  1.9897
12507TIP3    H259013   5.682   6.782   5.504 -0.8451  0.1678 -0.4523
12508TIP3   OH259014   0.227   5.843  16.807 -0.0085 -0.0657 -0.6643
12508TIP3    H159015   0.186   5.799  16.733 -1.5795 -0.5121  0.4269
12508TIP3    H259016   0.292   5.901  16.767  0.1421 -1.2810 -2.2974
12509TIP3   OH259017   1.601   6.672  16.335  0.3469 -0.6589 -0.4196
12509TIP3    H159018   1.608   6.767  16.331  0.9564 -0.6321  0.8020
12509TIP3    H259019   1.664   6.640  16.271 -0.8237 -0.2462 -1.8157
12510TIP3   OH259020   1.533   4.730  15.176 -0.1636  0.2243 -0.0532
12510TIP3    H159021   1.443   4.731  15.209 -0.2503 -1.2606 -0.2024
12510TIP3    H259022   1.567   4.644  15.199  0.5014 -0.0488 -1.8995
12511TIP3   OH259023   5.034   5.982  12.637 -0.3338 -0.2150  0.0437
12511TIP3    H159024   4.992   6.019  12.559 -0.9119 -2.0888 -0.5964
12511TIP3    H259025   5.000   5.892  12.642  3.7361 -2.0117 -0.6809
12512TIP3   OH259026   4.267   1.758   4.726 -0.6348 -0.3054  0.5580
12512TIP3    H159027   4.183   1.803   4.736 -0.0213  1.1551 -0.5346
12512TIP3    H259028   4.256   1.706   4.646 -0.1116  0.8971 -0.3297
12513TIP3   OH259029   3.347   2.607   1.502 -0.0498 -0.1226 -0.1285
12513TIP3    H159030   3.438   2.630   1.486 -0.4756  0.9840 -1.0877
12513TIP3    H259031   3.332   2.632   1.593  0.0064  1.8361 -0.6236
12514TIP3   OH259032   0.804   2.675   5.746 -0.1035 -0.3656  0.0107
12514TIP3    H159033   0.721   2.669   5.793  0.2960  0.8701  0.9134
12514TIP3    H259034   0.824   2.584   5.721  0.2760 -1.3371  3.3197
12515TIP3   OH259035   0.498   4.233   4.478 -0.3917  0.6599 -0.2895
12515TIP3    H159036   0.521   4.207   4.567 -0.3667  1.2050 -0.1365
12515TIP3    H259037   0.454   4.156   4.442 -1.0315  0.6762  0.4334
12516TIP3   OH259038   3.762   4.444  16.482  0.1238  0.6133 -0.3507
12516TIP3    H159039   3.759   4.399  16.398  0.4973  0.9161 -0.5224
12516TIP3    H259040   3.672   4.473  16.497 -0.1350 -0.2335 -0.2150
12517TIP3   OH259041   0.930   4.685   0.448  0.3871 -0.0303 -0.2461
12517TIP3    H159042   0.839   4.696   0.419  0.0765  1.5704  1.1670
12517TIP3    H259043   0.976   4.760   0.410  1.3385 -1.2335 -1.5863
12518TIP3   OH259044   4.558   2.296   0.367 -0.0174 -0.1102  0.1439
12518TIP3    H159045   4.648   2.301   0.398  0.4443  0.3708 -1.2205
12518TIP3    H259046   4.565   2.288   0.272 -1.4109  0.3194 -0.0183
12519TIP3   OH259047   1.974   6.122   3.520 -0.0123  0.7388 -0.4072
12519TIP3    H159048   1.954   6.060   3.450  1.0186  0.4057 -0.4315
12519TIP3    H259049   1.893   6.130   3.569 -0.4341  0.1120 -0.9765
12520TIP3   OH259050   6.463   5.790   5.574  0.2193  0.2801 -0.4162
12520TIP3    H159051   6.523   5.813   5.644  1.3983 -2.8248 -0.2619
12520TIP3    H259052   6.519   5.762   5.502 -0.9967 -0.7069 -1.0249
12521TIP3   OH259053   1.017   5.835   2.375  0.0202  0.1419  0.8102
12521TIP3    H159054   1.033   5.749   2.414 -1.9333 -1.3191 -1.3562
12521TIP3    H259055   0.922   5.844   2.373  0.1606  2.1362  0.4657
12522TIP3   OH259056   1.710   3.131   1.420 -0.2692  0.5789  0.2873
12522TIP3    H159057   1.745   3.212   1.456  0.5014  0.8760 -1.0630
12522TIP3    H259058   1.647   3.160   1.354  0.0831  0.1008 -0.2707
12523TIP3   OH259059   6.142   0.989  13.490 -0.2841 -0.0750 -0.2040
12523TIP3    H159060   6.158   1.012  13.582  0.7053 -0.7605 -0.1762
12523TIP3    H259061   6.227   0.956  13.460 -0.5426  0.3402 -1.4321
12524TIP3   OH259062   2.100   1.666   4.588 -0.1871 -1.0467 -0.1593
12524TIP3    H159063   2.029   1.628   4.640 -1.8585  2.0426  0.0271
12524TIP3    H259064   2.093   1.622   4.503 -2.6977 -0.5453 -0.3076
12525TIP3   OH259065   1.754   0.535  11.157  0.0057  0.2246 -0.4919
12525TIP3    H159066   1.695   0.610  11.166 -0.3074 -0.0011 -0.6011
12525TIP3    H259067   1.696   0.464  11.130 -0.0058 -0.5202  1.3649
12526TIP3   OH259068   6.160   3.260   4.244 -0.0164  0.6182 -0.8855
12526TIP3    H159069   6.205   3.281   4.326 -2.4081  2.0042  0.1616
12526TIP3    H259070   6.109   3.338   4.223 -0.8029 -0.3322 -2.8005
12527TIP3   OH259071   4.731   0.627  12.843 -0.0705  0.0135 -0.0411
12527TIP3    H159072   4.718   0.720  12.825 -0.4734 -0.1442 -0.5776
12527TIP3    H259073   4.729   0.585  12.757  0.3233 -0.4665  0.1804
12528TIP3   OH259074   6.570   3.770   3.683 -0.6441 -0.2206 -0.2270
12528TIP3    H159075   6.609   3.706   3.743  0.4741  0.6289 -0.0088
12528TIP3    H259076   6.633   3.777   3.611  0.2799  2.1069  0.7361
12529TIP3   OH259077   2.356   0.555  11.856  0.5953  0.2588  0.3421
12529TIP3    H159078   2.341   0.461  11.862 -0.1311  0.4244  1.1843
12529TIP3    H259079   2.280   0.589  11.809 -0.3380  0.7136  2.0944
12530TIP3   OH259080   6.312   0.140   4.499  0.0424  0.1537 -0.1225
12530TIP3    H159081   6.252   0.153   4.425 -0.0823 -0.2162 -0.0903
12530TIP3    H259082   6.381   0.205   4.486 -0.3791  0.6024 -0.1437
12531TIP3   OH259083   0.936   0.423  12.086 -0.1412  0.1376  0.0796
12531TIP3    H159084   0.842   0.439  12.078 -0.0255  0.0994 -1.7487
12531TIP3    H259085   0.944   0.328  12.085  0.0179  0.1429 -1.6910
12532TIP3   OH259086   3.266   3.445   4.374 -0.3041  0.0476 -0.3300
12532TIP3    H159087   3.271   3.352   4.352 -0.3645  0.3401 -1.6552
12532TIP3    H259088   3.193   3.478   4.320  0.8279  1.2078 -1.2123
12533TIP3   OH259089   1.671   1.682   4.944  0.2256 -0.4665 -0.2390
12533TIP3    H159090   1.684   1.751   5.009  1.0330 -1.2249  0.4121
12533TIP3    H259091   1.606   1.719   4.883 -0.0230  0.5131  0.5967
12534TIP3   OH259092   5.907   5.903  10.747  0.3049 -0.7445 -0.5487
12534TIP3    H159093   5.823   5.891  10.703  0.0143 -2.3899  0.3704
12534TIP3    H259094   5.970   5.855  10.693  1.1338  2.0995 -2.3449
12535TIP3   OH259095   0.321   3.030   0.398  0.2455 -0.1509  0.4700
12535TIP3    H159096   0.306   2.995   0.310  2.2158 -0.6767  0.3079
12535TIP3    H259097   0.392   3.093   0.387 -0.7698  1.2146  1.3935
12536TIP3   OH259098   6.145   1.460  12.640 -0.0334 -0.1360 -0.3850
12536TIP3    H159099   6.057   1.434  12.612  0.5641 -0.4720 -2.1073
12536TIP3    H259100   6.160   1.414  12.722 -0.2647 -2.7052 -1.6811
12537TIP3   OH259101   4.499   0.044   5.338 -0.3618 -0.2236 -0.3425
12537TIP3    H159102   4.516  -0.001   5.255  0.3661 -1.9077  0.6654
12537TIP3    H259103   4.452  -0.020   5.391 -0.6914  0.7733  0.6112
12538TIP3   OH259104   3.365   4.153  14.395 -0.1204  0.1493  0.2966
12538TIP3    H159105   3.369   4.222  14.461 -3.3749  0.7930 -0.0324
12538TIP3    H259106   3.400   4.193  14.316 -0.9530  1.1049  0.3897
12539TIP3   OH259107   5.336   2.602  16.374  0.4531 -0.4063 -0.6293
12539TIP3    H159108   5.368   2.617  16.463  4.0408 -1.4658 -1.5546
12539TIP3    H259109   5.263   2.541  16.385  1.2263 -1.0364  1.5963
12540TIP3   OH259110   1.445   1.075   2.632  0.2190 -0.1841  0.1833
12540TIP3    H159111   1.389   1.129   2.688  1.9279  0.0510  1.7638
12540TIP3    H259112   1.412   1.091   2.543 -0.9582  1.4546  0.8565
12541TIP3   OH259113   4.868   2.441  15.539  0.1862  0.2623  0.2541
12541TIP3    H159114   4.913   2.454  15.622  0.5275 -0.4633  0.1851
12541TIP3    H259115   4.783   2.483  15.552 -0.2163 -0.8239  1.3810
12542TIP3   OH259116   1.142   5.633   1.136 -0.3070  0.4565  0.0115
12542TIP3    H159117   1.170   5.593   1.054 -0.7957  0.2807 -0.0720
12542TIP3    H259118   1.202   5.597   1.202  1.0166  1.6893 -0.4676
12543TIP3   OH259119   1.075   4.664  14.016  0.1920 -0.0980 -0.5404
12543TIP3    H159120   1.131   4.639  13.943 -1.2962 -3.4780 -0.7457
12543TIP3    H259121   1.086   4.593  14.079 -1.5100  0.7245  0.7646
12544TIP3   OH259122   5.039   4.565   4.877  0.4593 -0.7821  0.2412
12544TIP3    H159123   5.063   4.524   4.794 -0.2810 -0.2664 -0.2383
12544TIP3    H259124   5.113   4.623   4.897 -0.5463  1.2359 -1.5195
12545TIP3   OH259125   2.891   0.161   0.718 -0.6660  0.0259  0.6224
12545TIP3    H159126   2.825   0.218   0.759 -0.1558  1.5511 -0.5685
12545TIP3    H259127   2.850   0.075   0.716 -2.3889  0.8065  0.4948
12546TIP3   OH259128   4.915   0.129  16.026 -0.4029 -0.3652  0.0411
12546TIP3    H159129   4.916   0.034  16.017  0.7614 -0.3577 -0.0711
12546TIP3    H259130   4.945   0.145  16.116  0.9532 -0.0894 -0.4232
12547TIP3   OH259131   2.525   5.692   4.985 -0.1059 -0.3020  0.0973
12547TIP3    H159132   2.463   5.733   5.045  0.4823  0.7558  0.0209
12547TIP3    H259133   2.532   5.602   5.014 -2.1475 -0.6297 -0.2769
12548TIP3   OH259134   4.544   6.441  16.958  0.2970 -0.1696  0.5200
12548TIP3    H159135   4.517   6.351  16.972  0.0054  0.2687  3.4232
12548TIP3    H259136   4.629   6.435  16.915 -0.3653 -1.7624 -0.6218
12549TIP3   OH259137   4.862   0.100   1.110 -0.1425  0.0809  0.1872
12549TIP3    H159138   4.947   0.143   1.124 -1.3407  2.6149  0.2895
12549TIP3    H259139   4.817   0.110   1.194 -1.4045  0.9326 -0.5630
12550TIP3   OH259140   1.115   6.542   1.163  0.4016  0.3902 -0.0652
12550TIP3    H159141   1.210   6.552   1.155  0.4315  0.0089 -0.1988
12550TIP3    H259142   1.078   6.605   1.100  0.5778  0.0229 -0.5400
12551TIP3   OH259143   3.730   2.931  15.767 -0.0588 -0.3702  0.2078
12551TIP3    H159144   3.802   2.979  15.725 -0.9008  0.9822  0.2525
12551TIP3    H259145   3.678   2.998  15.811 -1.5683 -1.2478 -0.1357
12552TIP3   OH259146   3.865   2.030   1.169 -0.0019 -0.1567 -0.4373
12552TIP3    H159147   3.774   2.045   1.142 -0.8101 -1.1220  1.4992
12552TIP3    H259148   3.860   2.023   1.265  2.0093 -0.9615 -0.3484
12553TIP3   OH259149   4.260   4.201   5.366 -0.3467 -0.3523 -0.0958
12553TIP3    H159150   4.262   4.259   5.289 -1.5290 -0.5333 -0.2798
12553TIP3    H259151   4.250   4.260   5.440 -2.2297 -0.3112 -0.3320
12554TIP3   OH259152   1.957   4.338   1.751  0.0653 -0.2364  0.0681
12554TIP3    H159153   1.999   4.371   1.672 -0.6118  0.5995  0.0342
12554TIP3    H259154   1.899   4.268   1.720 -1.7384  1.4223 -0.5172
12555TIP3   OH259155   3.781   6.443  11.777  0.3587 -0.1091  0.1056
12555TIP3    H159156   3.735   6.373  11.731 -0.3863  0.7965 -0.5639
12555TIP3    H259157   3.744   6.442  11.866 -0.9661  0.5826 -0.4128
12556TIP3   OH259158   2.998   2.695   3.418  0.1583  0.1344  0.0030
12556TIP3    H159159   3.050   2.734   3.488 -0.5035  1.7142 -0.3458
12556TIP3    H259160   2.943   2.631   3.462  0.3959  0.4559  0.7880
12557TIP3   OH259161   2.891   3.122   1.589 -0.2520 -0.4598  0.0609
12557TIP3    H159162   2.969   3.165   1.623  0.0787  0.0652 -1.2736
12557TIP3    H259163   2.905   3.029   1.608  0.3416 -0.2880  0.4990
12558TIP3   OH259164   2.112   4.590  16.350 -0.4110  0.0368  0.5995
12558TIP3    H159165   2.031   4.628  16.317 -0.1476 -0.1588 -0.3010
12558TIP3    H259166   2.175   4.603  16.279 -0.3998 -2.3837  0.0669
12559TIP3   OH259167   5.902   0.700   1.501  0.1856  0.2958 -1.0725
12559TIP3    H159168   5.878   0.678   1.411  0.3978 -0.0799 -1.0397
12559TIP3    H259169   5.997   0.713   1.498  0.2478 -0.0788 -0.8331
12560TIP3   OH259170   4.163   4.786   6.470  0.2026  0.0082  0.2650
12560TIP3    H159171   4.233   4.772   6.406  1.4770  4.0686  0.5250
12560TIP3    H259172   4.200   4.755   6.553 -0.0873 -1.9064 -0.2648
12561TIP3   OH259173   1.729   2.322  15.170  0.5973  0.1072 -0.4317
12561TIP3    H159174   1.688   2.310  15.084 -0.1494  3.0366 -0.5972
12561TIP3    H259175   1.674   2.388  15.213  2.5620  0.7824  1.1615
12562TIP3   OH259176   2.836   1.310   1.642 -0.2009  0.0580 -0.0478
12562TIP3    H159177   2.746   1.282   1.655 -0.2038  0.3604  0.6539
12562TIP3    H259178   2.875   1.306   1.730  0.9002 -1.5309 -0.5479
12563TIP3   OH259179   3.517   1.747   3.205 -0.3768 -0.3929  0.4119
12563TIP3    H159180   3.597   1.696   3.206 -0.2094 -0.3683  4.0465
12563TIP3    H259181   3.546   1.838   3.210 -0.5356 -0.4003  2.1859
12564TIP3   OH259182   0.251   2.874  13.798  0.5568  0.1201 -0.8049
12564TIP3    H159183   0.206   2.958  13.807 -0.3759 -0.2268 -1.9516
12564TIP3    H259184   0.332   2.884  13.847  0.3130  1.5848 -0.6778
12565TIP3   OH259185   0.301   3.642  15.700 -0.1813  0.0891 -0.5330
12565TIP3    H159186   0.219   3.690  15.690 -0.8349 -1.0906 -1.1140
12565TIP3    H259187   0.295   3.571  15.636 -0.0028 -1.7317  1.3498
12566TIP3   OH259188   2.147   4.670  11.428  0.2329  0.1751 -0.1102
12566TIP3    H159189   2.058   4.661  11.392 -0.2943  1.6709  0.7306
12566TIP3    H259190   2.182   4.581  11.425 -1.7372 -0.7016  0.6267
12567TIP3   OH259191   0.610   6.088  12.761 -0.2145  0.2174 -1.3496
12567TIP3    H159192   0.626   5.996  12.741  0.1464  0.3145 -1.5134
12567TIP3    H259193   0.666   6.136  12.700 -0.7735  0.5569 -1.6000
12568TIP3   OH259194   6.284   3.262   0.323 -0.2436  0.0052 -0.1902
12568TIP3    H159195   6.228   3.339   0.329 -2.0759 -1.3288  1.0028
12568TIP3    H259196   6.279   3.222   0.410  1.3800 -0.9824 -0.5229
12569TIP3   OH259197   3.306   0.511   1.759 -0.0241 -0.1805 -0.3712
12569TIP3    H159198   3.266   0.491   1.844 -0.9712 -1.7898 -1.1367
12569TIP3    H259199   3.260   0.454   1.697  0.4971  1.0993 -2.0145
12570TIP3   OH259200   6.631   6.080   5.377  0.7707 -0.3499  0.9484
12570TIP3    H159201   6.703   6.023   5.404  0.0486 -0.8487  1.8762
12570TIP3    H259202   6.651   6.165   5.416  0.6256 -0.6148  1.6199
12571TIP3   OH259203   6.298   0.140  12.902 -0.4131  0.9089  0.8003
12571TIP3    H159204   6.357   0.154  12.827  0.3541  0.2692  1.2661
12571TIP3    H259205   6.353   0.098  12.968 -1.7141 -0.9892  0.7658
12572TIP3   OH259206   4.295   1.053  12.441  0.1324 -0.0314 -0.0411
12572TIP3    H159207   4.226   1.042  12.375  0.4768 -0.5345 -0.3290
12572TIP3    H259208   4.365   1.099  12.394 -0.9964  2.8850  0.9469
12573TIP3   OH259209   5.055   6.766   0.798 -0.0154 -0.1787 -0.0821
12573TIP3    H159210   5.112   6.783   0.723 -2.0262  0.4278 -1.5829
12573TIP3    H259211   5.058   6.671   0.809  0.3838 -0.2749 -0.9009
12574TIP3   OH259212   3.342   4.885   4.250 -0.2482 -0.8519  0.5805
12574TIP3    H159213   3.276   4.875   4.318 -1.2719 -2.0973 -0.5480
12574TIP3    H259214   3.348   4.799   4.209  0.6447 -0.2485 -0.6263
12575TIP3   OH259215   4.594   3.130   3.047 -0.0344  0.1676 -0.1491
12575TIP3    H159216   4.615   3.102   3.136  0.9414  0.6606 -0.2100
12575TIP3    H259217   4.555   3.217   3.058  0.6938  0.5163 -0.2321
12576TIP3   OH259218   1.904   2.895  12.448  0.0799  0.6556 -0.7095
12576TIP3    H159219   1.836   2.961  12.463  0.6563  1.1055 -0.0179
12576TIP3    H259220   1.880   2.855  12.364 -0.3343  1.6802 -1.0985
12577TIP3   OH259221   1.011   5.228  16.505  0.0887 -0.6416  0.0727
12577TIP3    H159222   0.960   5.148  16.491  0.1039 -0.3662 -1.7376
12577TIP3    H259223   1.064   5.209  16.582  0.3300 -2.5108 -0.5153
12578TIP3   OH259224   2.523   0.735  15.509  0.1658 -0.5766  0.9613
12578TIP3    H159225   2.558   0.807  15.457  0.2731 -1.1297  0.2452
12578TIP3    H259226   2.450   0.773  15.558  1.1279  0.3567  1.7165
12579TIP3   OH259227   5.108   3.646  11.954  0.1037 -0.2743 -0.0330
12579TIP3    H159228   5.077   3.728  11.993 -2.2132 -1.0849 -0.0735
12579TIP3    H259229   5.119   3.587  12.028 -1.2835 -0.8687 -0.2873
12580TIP3   OH259230   2.513   3.293  16.310 -0.1308  0.5505  0.0848
12580TIP3    H159231   2.576   3.223  16.297 -0.4869 -0.2024  2.0462
12580TIP3    H259232   2.566   3.368  16.339 -0.0453  0.0876  1.1752
12581TIP3   OH259233   1.874   6.391  11.009  0.5232  0.1098  0.4942
12581TIP3    H159234   1.797   6.435  10.973  0.7468  0.3376  0.2855
12581TIP3    H259235   1.854   6.298  11.001  0.7273  0.1425 -0.5960
12582TIP3   OH259236   2.309   2.921  12.814  0.1839  0.2161 -0.2276
12582TIP3    H159237   2.310   2.838  12.767 -3.8405 -1.3267  1.9288
12582TIP3    H259238   2.323   2.898  12.906 -1.6540  1.7259  0.5177
12583TIP3   OH259239   1.883   6.429  11.349 -0.2604 -0.0314 -0.6983
12583TIP3    H159240   1.955   6.492  11.352 -0.7889  0.7411 -2.7241
12583TIP3    H259241   1.884   6.394  11.260 -1.0096 -1.7048 -0.1110
12584TIP3   OH259242   2.161   5.067  15.373 -0.5465 -0.1082  0.5282
12584TIP3    H159243   2.205   5.086  15.456 -1.6771 -0.5935  1.2548
12584TIP3    H259244   2.195   4.981  15.347  0.6687  0.5370 -0.1263
12585TIP3   OH259245   0.777   5.821  12.092 -0.1856  0.3802  0.0540
12585TIP3    H159246   0.767   5.850  12.002  0.3175 -0.8173 -0.3949
12585TIP3    H259247   0.766   5.726  12.089  1.3468  0.1446  1.0207
12586TIP3   OH259248   1.584   0.049  13.751  0.4796  0.1211 -0.3339
12586TIP3    H159249   1.630   0.122  13.791  0.0044  0.5696 -0.5861
12586TIP3    H259250   1.519   0.090  13.693 -2.7363 -0.2849  2.6117
12587TIP3   OH259251   1.270   6.341   0.839  0.1386 -1.0598 -0.2770
12587TIP3    H159252   1.346   6.351   0.781  1.1529  0.5126  1.2134
12587TIP3    H259253   1.200   6.389   0.795  1.2114  1.1369  0.2255
12588TIP3   OH259254   6.759   5.548  13.151  0.1854 -0.0810  0.2328
12588TIP3    H159255   6.754   5.502  13.067  0.6421  0.4989 -0.1210
12588TIP3    H259256   6.853   5.552  13.170  0.2683  1.8028 -0.3707
12589TIP3   OH259257   3.225   4.482  14.224 -0.0035 -0.0794  0.3624
12589TIP3    H159258   3.293   4.500  14.159 -0.1778  0.1405  0.2434
12589TIP3    H259259   3.272   4.486  14.308 -0.2122  1.9076  0.4237
12590TIP3   OH259260   2.559   1.260   0.792 -0.7549  0.0555 -0.7083
12590TIP3    H159261   2.568   1.213   0.709  0.9537  0.2656 -0.6832
12590TIP3    H259262   2.575   1.194   0.858  2.2368  0.6694 -0.6817
12591TIP3   OH259263   1.419   3.291   2.798  0.2095  0.0877 -1.0145
12591TIP3    H159264   1.342   3.340   2.769  1.6825  2.2518 -1.4899
12591TIP3    H259265   1.463   3.349   2.861 -0.5314 -2.6689  2.4192
12592TIP3   OH259266   2.498   2.403  12.284  0.2000  0.6219  0.2111
12592TIP3    H159267   2.563   2.360  12.228  1.1074 -1.0645  2.3967
12592TIP3    H259268   2.431   2.336  12.297 -0.3053  1.2024  0.6462
12593TIP3   OH259269   3.335   3.503   3.242  0.5893 -0.0549  0.5146
12593TIP3    H159270   3.341   3.580   3.298 -2.7660  0.9991 -0.3344
12593TIP3    H259271   3.301   3.434   3.299  0.4899  0.0110  0.5339
12594TIP3   OH259272   4.241   2.136  16.467  0.8175  0.4944  0.1385
12594TIP3    H159273   4.254   2.204  16.533  0.3241 -1.0042  1.8653
12594TIP3    H259274   4.165   2.166  16.416 -0.3013  0.5780  1.7914
12595TIP3   OH259275   1.491   2.615  14.866  0.9565 -0.2400 -0.2666
12595TIP3    H159276   1.454   2.630  14.779 -2.2548  0.9628  1.1547
12595TIP3    H259277   1.485   2.700  14.910  0.8655 -1.1871  1.6910
12596TIP3   OH259278   2.293   5.203  12.739  0.2132  0.3768  0.1880
12596TIP3    H159279   2.302   5.187  12.833  2.8042  2.2286  0.3767
12596TIP3    H259280   2.350   5.278  12.723  0.5077 -0.4146 -3.0243
12597TIP3   OH259281   1.837   6.042   3.857 -0.0149 -0.5442 -0.5744
12597TIP3    H159282   1.811   5.967   3.804  0.8777 -0.1212 -1.6345
12597TIP3    H259283   1.845   6.114   3.795 -0.4853  0.3555  0.3734
12598TIP3   OH259284   2.630   3.410   3.984  0.8086  0.0583  0.8914
12598TIP3    H159285   2.567   3.357   4.033 -0.7304  0.8078 -0.2006
12598TIP3    H259286   2.672   3.464   4.051  1.1739 -1.2759  1.7962
12599TIP3   OH259287   1.015   0.346  13.717  0.4527 -0.3112 -0.0308
12599TIP3    H159288   0.960   0.268  13.705  0.5816 -0.4701  0.4145
12599TIP3    H259289   1.105   0.314  13.709  0.5043 -0.1866  0.0515
12600TIP3   OH259290   2.870   1.241   0.605 -0.1488  0.2044 -0.3635
12600TIP3    H159291   2.839   1.320   0.561 -2.0307 -0.1835  0.1652
12600TIP3    H259292   2.931   1.272   0.672  0.8942  0.9896 -1.6319
12601TIP3   OH259293   6.230   2.501  11.876 -0.7320  0.8261 -0.5260
12601TIP3    H159294   6.161   2.454  11.829  0.4551  0.5200 -2.0609
12601TIP3    H259295   6.223   2.591  11.845 -1.3447  1.1063  0.4137
12602TIP3   OH259296   5.740   2.367  11.928  0.1200  0.6402  0.0758
12602TIP3    H159297   5.816   2.426  11.925  0.1587  0.6086  0.3740
12602TIP3    H259298   5.692   2.394  12.006 -0.4574  0.9993 -0.3952
12603TIP3   OH259299   3.739   6.355  17.082  0.7200 -0.1347 -0.1825
12603TIP3    H159300   3.684   6.381  17.008  0.8220 -1.5875 -0.7859
12603TIP3    H259301   3.691   6.285  17.125  1.5278 -0.5746  0.0156
12604TIP3   OH259302   1.919   1.841  11.873 -0.4737 -0.3628 -0.6251
12604TIP3    H159303   1.928   1.910  11.938 -1.1147  0.6343 -1.5652
12604TIP3    H259304   1.998   1.847  11.820 -1.1307  0.5971 -1.5547
12605TIP3   OH259305   4.233   2.057  10.455 -0.1244  0.5729 -0.0906
12605TIP3    H159306   4.289   2.132  10.434  0.3174  0.6445  1.2821
12605TIP3    H259307   4.294   1.985  10.469 -0.5350 -0.0166 -1.1861
12606TIP3   OH259308   1.007   4.840  13.391  0.6784  0.3027  0.3090
12606TIP3    H159309   0.951   4.766  13.368  2.0889 -0.5623 -0.4812
12606TIP3    H259310   1.041   4.871  13.307  2.6781 -0.2599  0.8626
12607TIP3   OH259311   5.487   4.070   5.799 -0.0043  0.6487 -0.6439
12607TIP3    H159312   5.517   4.059   5.708 -0.2879 -0.6217 -0.6012
12607TIP3    H259313   5.412   4.012   5.806  0.0271  0.7303  0.4209
12608TIP3   OH259314   1.108   1.414  15.940 -0.1727 -0.1246  0.0130
12608TIP3    H159315   1.097   1.501  15.979 -1.3343 -0.7375  1.1709
12608TIP3    H259316   1.034   1.405  15.880 -1.1875 -0.9900  1.3218
12609TIP3   OH259317   2.730   4.031  13.787  0.7403 -0.2812 -0.2079
12609TIP3    H159318   2.715   4.103  13.849 -0.8847 -0.0485 -0.8410
12609TIP3    H259319   2.825   4.029  13.776  0.7915  3.1107 -1.6702
12610TIP3   OH259320   2.445   5.179  13.773 -0.5110 -0.2503  0.4215
12610TIP3    H159321   2.384   5.220  13.834  0.4268  0.7729  0.7032
12610TIP3    H259322   2.394   5.169  13.692 -0.4903  2.4985 -0.0044
12611TIP3   OH259323   6.243   4.299   5.396 -0.1229 -1.0095 -0.1968
12611TIP3    H159324   6.233   4.207   5.419  0.7581 -1.2577 -0.7506
12611TIP3    H259325   6.162   4.321   5.349 -0.9865 -1.0807  1.2113
12612TIP3   OH259326   2.312   1.344  17.107 -0.4531  0.1756 -0.4649
12612TIP3    H159327   2.300   1.391  17.024  0.0011  1.1112 -0.0195
12612TIP3    H259328   2.234   1.289  17.115 -0.9872  0.8235 -1.0322
12613TIP3   OH259329   6.164   5.127  11.772  0.7685  0.7566  0.9331
12613TIP3    H159330   6.180   5.215  11.807  3.3223  1.5535 -1.7976
12613TIP3    H259331   6.213   5.069  11.829  0.8523  1.3737  1.5019
12614TIP3   OH259332   3.975   5.681  13.108  0.5802  0.0820  0.7483
12614TIP3    H159333   4.054   5.628  13.106  0.1036 -0.7217  1.9995
12614TIP3    H259334   4.004   5.767  13.140  1.1264  0.1503  0.0790
12615TIP3   OH259335   5.922   6.450   4.077 -0.6224  0.6647  0.5565
12615TIP3    H159336   6.000   6.396   4.070 -0.4006  1.0074  0.3713
12615TIP3    H259337   5.849   6.388   4.069 -0.4135  0.0628  2.6579
12616TIP3   OH259338   0.646   4.485  11.859  0.3115 -0.3120  0.1347
12616TIP3    H159339   0.710   4.519  11.796 -0.9289  0.9776 -0.4863
12616TIP3    H259340   0.608   4.564  11.898 -0.8640 -1.0497  0.5064
12617TIP3   OH259341   2.866   1.982   3.555  0.8959 -0.1200 -0.0356
12617TIP3    H159342   2.919   1.918   3.507 -0.8057  0.0438 -2.3057
12617TIP3    H259343   2.826   2.036   3.486 -1.5565  0.2566  1.5663
12618TIP3   OH259344   1.288   3.124   6.344  0.2521 -0.5134 -0.5601
12618TIP3    H159345   1.249   3.108   6.430  2.3374 -1.6189  0.2407
12618TIP3    H259346   1.323   3.213   6.350  2.7478 -1.4893  0.7834
12619TIP3   OH259347   4.179   1.448  13.574 -0.2492 -0.5739  0.1069
12619TIP3    H159348   4.122   1.456  13.650 -0.1294  0.2478  0.1181
12619TIP3    H259349   4.119   1.456  13.499 -0.0061  2.1755  0.0817
12620TIP3   OH259350   4.064   2.799  12.524  0.0494 -0.3095 -0.3489
12620TIP3    H159351   4.148   2.826  12.486  0.0833 -0.2677 -0.2442
12620TIP3    H259352   4.088   2.749  12.602 -0.0501  0.9348  0.4979
12621TIP3   OH259353   5.580   4.242   0.449  0.3652 -0.2020 -0.1283
12621TIP3    H159354   5.658   4.262   0.500  0.3823 -0.6201  0.0094
12621TIP3    H259355   5.508   4.278   0.500  0.4960  0.5238 -0.4393
12622TIP3   OH259356   2.168   5.806   2.617  0.5772  0.2388 -0.1217
12622TIP3    H159357   2.211   5.756   2.687 -2.5756 -0.6783  1.3363
12622TIP3    H259358   2.089   5.841   2.658  0.7930  3.4313 -2.1084
12623TIP3   OH259359   2.773   3.277   6.014 -0.6172  0.3114 -0.2864
12623TIP3    H159360   2.683   3.307   6.023 -0.3506  1.2054 -0.4869
12623TIP3    H259361   2.826   3.347   6.053  0.1316  1.0644 -2.4719
12624TIP3   OH259362   6.794   5.218   1.521 -1.0975 -0.5231 -0.1278
12624TIP3    H159363   6.879   5.250   1.493 -1.5291  0.0737 -0.8024
12624TIP3    H259364   6.755   5.291   1.568 -1.8875 -0.1914 -1.2435
12625TIP3   OH259365   1.699   4.766   1.307  0.4738 -0.6054  0.0079
12625TIP3    H159366   1.757   4.781   1.233 -2.9283 -0.1950 -2.8901
12625TIP3    H259367   1.676   4.854   1.337 -1.1433 -0.5558 -1.1886
12626TIP3   OH259368   4.058   6.646  12.256 -0.6786  0.4757  0.1523
12626TIP3    H159369   4.050   6.727  12.305 -4.0124  1.0416 -1.0506
12626TIP3    H259370   3.970   6.608  12.257  0.0681 -1.5818 -1.8361
12627TIP3   OH259371   3.309   0.873  16.509  0.1089 -0.6638 -0.3162
12627TIP3    H159372   3.294   0.949  16.453  1.4453 -0.6719 -0.7136
12627TIP3    H259373   3.327   0.802  16.448 -1.6881 -1.4776  0.0213
12628TIP3   OH259374   4.650   6.287  14.246 -0.0293  0.5272 -0.2556
12628TIP3    H159375   4.618   6.263  14.158 -0.4614 -0.0360  0.0432
12628TIP3    H259376   4.576   6.332  14.286  0.1212  0.6617 -0.1300
12629TIP3   OH259377   2.836   5.848   3.275 -0.1128 -0.2726  0.7141
12629TIP3    H159378   2.759   5.838   3.219  0.3825 -1.3159  0.1975
12629TIP3    H259379   2.907   5.871   3.215  0.5422 -1.9346  0.8135
12630TIP3   OH259380   6.583   3.089   0.681  0.0520 -0.7707 -0.8079
12630TIP3    H159381   6.596   2.999   0.708 -0.0534 -0.8308 -0.9592
12630TIP3    H259382   6.619   3.094   0.592  0.6469 -0.5070 -0.5569
12631TIP3   OH259383   5.359   2.696   3.470 -0.3370  0.0200  0.1002
12631TIP3    H159384   5.435   2.666   3.421 -0.1018  1.4648 -0.4813
12631TIP3    H259385   5.385   2.781   3.504 -1.3640  0.1054  0.6997
12632TIP3   OH259386   6.775   2.722   4.431  0.0059 -0.0014  0.4352
12632TIP3    H159387   6.835   2.710   4.358  0.3587 -1.2504  0.9134
12632TIP3    H259388   6.713   2.649   4.424 -0.9620  0.7835  0.4526
12633TIP3   OH259389   6.524   4.314  12.256 -0.2050 -0.0428  0.1520
12633TIP3    H159390   6.542   4.277  12.343  0.3054  1.8731  0.9168
12633TIP3    H259391   6.581   4.266  12.197 -1.2495 -2.0525  0.6787
12634TIP3   OH259392   3.918   5.908   2.293  0.3094  0.0494  0.4737
12634TIP3    H159393   3.868   5.979   2.254  0.4060  0.1303  0.4951
12634TIP3    H259394   3.910   5.922   2.388  0.1537 -0.0905  0.4805
12635TIP3   OH259395   6.612   1.260  13.137 -0.2328  0.3296 -0.0933
12635TIP3    H159396   6.650   1.335  13.091  1.9601 -1.0172 -0.6297
12635TIP3    H259397   6.637   1.184  13.083 -1.3994 -0.8940  1.0210
12636TIP3   OH259398   4.299   1.912   5.918  0.0599  0.0943 -0.2665
12636TIP3    H159399   4.300   1.894   5.824  2.4413  0.1020 -0.3076
12636TIP3    H259400   4.312   2.006   5.925 -1.3329  0.2745  0.0808
12637TIP3   OH259401   0.270   3.946   2.517 -0.1418  0.8851  0.1213
12637TIP3    H159402   0.239   4.035   2.530 -0.8507  1.0104 -2.0736
12637TIP3    H259403   0.196   3.899   2.479 -0.6960 -1.4326  3.5850
12638TIP3   OH259404   5.322   2.379   0.282 -0.2827 -0.0452  0.4610
12638TIP3    H159405   5.347   2.288   0.265 -2.2813 -0.6795  0.7253
12638TIP3    H259406   5.325   2.388   0.377 -1.3172 -0.2263  0.5185
12639TIP3   OH259407   5.850   6.057   0.086 -0.3371  0.5383  0.3475
12639TIP3    H159408   5.917   6.123   0.073  1.4832 -1.4839 -1.3710
12639TIP3    H259409   5.877   6.011   0.166 -1.0201  1.1875  0.9629
12640TIP3   OH259410   0.972   4.795  12.919 -0.0851  0.6837 -0.4891
12640TIP3    H159411   1.014   4.788  12.834  0.0277 -0.5243 -0.3456
12640TIP3    H259412   0.879   4.804  12.899 -0.2194 -1.0231 -0.7314
12641TIP3   OH259413   5.415   5.103   1.979 -0.1304 -0.9322  0.5168
12641TIP3    H159414   5.491   5.159   1.962 -0.6953 -0.1089  0.6153
12641TIP3    H259415   5.423   5.079   2.071  0.0895 -0.9667  0.4884
12642TIP3   OH259416   1.304   4.999   4.919 -0.2979  0.2446  0.2677
12642TIP3    H159417   1.361   5.075   4.918 -1.7631  1.4705 -2.9741
12642TIP3    H259418   1.363   4.925   4.904  0.7592  1.1484 -0.2205
12643TIP3   OH259419   0.352   1.539  13.261  0.4332 -0.2101 -0.0485
12643TIP3    H159420   0.335   1.611  13.200  3.5250 -0.0348 -0.9125
12643TIP3    H259421   0.348   1.460  13.207  1.9843 -0.1668 -0.2697
12644TIP3   OH259422   5.103   4.541   0.064 -0.0313  0.0929 -0.3034
12644TIP3    H159423   5.038   4.481   0.030  1.2268 -1.7643  0.4074
12644TIP3    H259424   5.154   4.567  -0.013  0.7706 -1.5149 -0.3628
12645TIP3   OH259425   6.472   1.075  13.618 -0.3532 -0.3509  0.4993
12645TIP3    H159426   6.427   1.154  13.588  0.5985  0.4049  0.9863
12645TIP3    H259427   6.486   1.024  13.538 -1.0650 -0.0833  0.1919
12646TIP3   OH259428   3.742   5.333  15.460 -0.4111 -0.2690 -0.1767
12646TIP3    H159429   3.835   5.334  15.435 -0.6368  0.2880 -1.0646
12646TIP3    H259430   3.703   5.268  15.402 -0.6382 -0.2309 -0.0638
12647TIP3   OH259431   2.546   3.521  15.203  0.1887 -0.0404 -0.2217
12647TIP3    H159432   2.635   3.541  15.231  0.6153  0.2251 -1.6823
12647TIP3    H259433   2.546   3.426  15.190  0.1207 -0.1002  0.1841
12648TIP3   OH259434   2.160   2.874  11.579  0.6324 -0.1527 -0.1157
12648TIP3    H159435   2.100   2.805  11.610 -0.9804  1.6381  1.0411
12648TIP3    H259436   2.213   2.832  11.512  2.0264 -3.4226  2.7528
12649TIP3   OH259437   2.258   0.501   6.205 -0.5678  0.0723  0.2440
12649TIP3    H159438   2.165   0.518   6.219 -0.9808 -2.2575  0.8405
12649TIP3    H259439   2.301   0.536   6.283 -0.8504  1.6276 -0.2772
12650TIP3   OH259440   2.663   0.876   1.228 -0.4367 -0.0799 -0.3814
12650TIP3    H159441   2.724   0.904   1.159  0.6466 -2.2230 -0.3806
12650TIP3    H259442   2.715   0.878   1.308 -0.0807 -2.4321 -0.4595
12651TIP3   OH259443   6.010   5.732  12.024  0.9516 -0.0059 -0.3149
12651TIP3    H159444   6.026   5.761  11.934 -1.4936  1.1560 -0.4545
12651TIP3    H259445   5.945   5.663  12.016 -0.4674  1.1622  0.6126
12652TIP3   OH259446   2.037   4.010  11.875 -0.0808  0.1270 -0.1342
12652TIP3    H159447   2.070   4.098  11.854  0.8871 -0.4129 -0.9495
12652TIP3    H259448   2.099   3.950  11.833 -1.4205 -0.9515 -0.6378
12653TIP3   OH259449   0.055   6.403  10.430  0.6024  0.3205  0.1283
12653TIP3    H159450   0.128   6.377  10.486  0.4320  0.0639  0.2357
12653TIP3    H259451  -0.010   6.439  10.490  0.5866  0.4225  0.0494
12654TIP3   OH259452   4.410   3.404  15.967 -0.4085 -0.1467 -0.0383
12654TIP3    H159453   4.341   3.395  16.032 -0.7512 -1.3700 -0.5544
12654TIP3    H259454   4.397   3.492  15.931 -1.4254 -0.1908  0.1884
12655TIP3   OH259455   5.277   1.039   0.199 -0.3141  0.1558 -0.0248
12655TIP3    H159456   5.331   1.000   0.131  1.3107 -1.6610  2.1724
12655TIP3    H259457   5.200   0.982   0.203 -0.2219  0.0256 -0.0748
12656TIP3   OH259458   0.589   1.298   3.367  0.6659  0.7709 -0.3255
12656TIP3    H159459   0.683   1.318   3.372  0.8559 -0.3816  1.3933
12656TIP3    H259460   0.551   1.346   3.441  0.0754  0.3266 -0.3387
12657TIP3   OH259461   2.438   1.957  13.730 -0.0835 -0.1917  0.2908
12657TIP3    H159462   2.529   1.949  13.703  0.2650  1.0144  1.0304
12657TIP3    H259463   2.441   2.004  13.813 -1.4481  1.2301 -0.3989
12658TIP3   OH259464   1.149   1.959   3.405  0.2472 -0.6412 -0.0613
12658TIP3    H159465   1.181   2.037   3.450 -1.7104 -0.1527  0.5688
12658TIP3    H259466   1.092   1.992   3.335 -0.8391 -1.4705  0.4015
12659TIP3   OH259467   1.638   6.704   4.624  0.3841 -0.2255  1.0478
12659TIP3    H159468   1.653   6.793   4.657  1.2652 -0.5120  1.4470
12659TIP3    H259469   1.724   6.674   4.594 -0.5474  0.4565 -2.7314
12660TIP3   OH259470   4.632   3.623   1.602  0.2113 -0.2076  0.3782
12660TIP3    H159471   4.563   3.558   1.587  0.6685 -0.8010  0.7729
12660TIP3    H259472   4.593   3.706   1.577  0.2685 -0.8656 -2.1149
12661TIP3   OH259473   3.797   3.610  11.299 -0.2680  0.0883 -0.2862
12661TIP3    H159474   3.871   3.613  11.360 -0.6994 -0.7209  0.2976
12661TIP3    H259475   3.724   3.649  11.348 -0.3852  0.3226 -0.6414
12662TIP3   OH259476   5.725   4.705  13.626  0.4119 -0.1473  0.4726
12662TIP3    H159477   5.689   4.634  13.679  1.3985 -0.5982  0.5536
12662TIP3    H259478   5.670   4.708  13.548 -0.0686 -0.5271  0.7962
12663TIP3   OH259479   2.410   5.728  12.794 -0.4817 -0.3684 -0.6844
12663TIP3    H159480   2.316   5.737  12.776 -0.3492  0.5142 -0.9597
12663TIP3    H259481   2.420   5.759  12.884 -0.2610  0.8131 -1.1045
12664TIP3   OH259482   0.794   6.221  12.622  0.4677 -0.0817 -0.3137
12664TIP3    H159483   0.799   6.313  12.645 -1.7945 -0.1847  0.8971
12664TIP3    H259484   0.735   6.218  12.546  0.7713 -0.5003 -0.5386
12665TIP3   OH259485   0.059   2.121  12.859 -0.2572  0.2558 -0.0065
12665TIP3    H159486   0.128   2.152  12.800 -0.3053 -1.6018 -1.1191
12665TIP3    H259487   0.003   2.198  12.873  1.8824  1.7575  0.7775
12666TIP3   OH259488   3.051   6.644  11.940 -0.2260  0.3414 -0.2714
12666TIP3    H159489   2.965   6.670  11.907 -0.5522 -0.2625  0.1048
12666TIP3    H259490   3.087   6.588  11.871 -0.2812  0.3031 -0.2694
12667TIP3   OH259491   2.866   5.570  16.832 -0.3119  0.6091 -0.2380
12667TIP3    H159492   2.907   5.566  16.918 -0.2788  0.0645 -0.2750
12667TIP3    H259493   2.773   5.554  16.849 -0.1192 -0.8305 -0.4380
12668TIP3   OH259494   5.779   3.412   2.909 -0.5893 -0.3488  0.5018
12668TIP3    H159495   5.841   3.344   2.934  0.8735 -0.1147 -2.1190
12668TIP3    H259496   5.810   3.491   2.952 -0.3453 -0.6702  0.9124
12669TIP3   OH259497   0.634   0.087   1.212  0.7030  0.3571  0.6375
12669TIP3    H159498   0.722   0.125   1.207 -0.0014  2.0064  0.3499
12669TIP3    H259499   0.649  -0.001   1.246  2.6237  0.0273 -0.8723
12670TIP3   OH259500   5.386   0.307  14.725 -0.0745  0.1116 -0.7050
12670TIP3    H159501   5.394   0.230  14.781 -1.4466  0.5936  0.2184
12670TIP3    H259502   5.294   0.308  14.699 -0.2469  1.7943 -0.1425
12671TIP3   OH259503   5.820   0.877  11.794  0.1339  0.5389 -0.5165
12671TIP3    H159504   5.897   0.928  11.818  0.8069 -0.4864 -0.4366
12671TIP3    H259505   5.778   0.928  11.724  1.9001  0.2190 -1.8655
12672TIP3   OH259506   6.696   5.024   4.748  0.0160  0.0135  0.0152
12672TIP3    H159507   6.751   4.991   4.678 -0.5243  1.7560 -1.2937
12672TIP3    H259508   6.607   5.020   4.713 -0.1915  1.5230  0.3228
12673TIP3   OH259509   3.741   2.599  12.936 -0.2261  0.4301  0.2310
12673TIP3    H159510   3.721   2.655  12.861 -1.0958 -0.4240 -0.1947
12673TIP3    H259511   3.775   2.518  12.898 -0.0598  0.2310  0.7908
12674TIP3   OH259512   2.883   0.359  16.481 -0.8122  0.2945 -0.6510
12674TIP3    H159513   2.973   0.352  16.512 -1.6033  1.0756  2.0300
12674TIP3    H259514   2.882   0.439  16.428 -0.1491  0.8220  0.1232
12675TIP3   OH259515   5.893   5.885   0.306 -0.4954 -0.3645 -0.7990
12675TIP3    H159516   5.805   5.862   0.334 -0.4859  0.5375  0.0142
12675TIP3    H259517   5.933   5.801   0.281 -1.0426 -1.0024  0.3767
12676TIP3   OH259518   6.561   6.621  11.480  0.3035  0.4483  0.5203
12676TIP3    H159519   6.596   6.607  11.568  0.8389  0.8599  0.3789
12676TIP3    H259520   6.491   6.556  11.472 -0.1239  0.7764  1.4525
12677TIP3   OH259521   4.066   5.641  14.805 -0.2944 -0.1295  0.1641
12677TIP3    H159522   4.051   5.577  14.874 -0.2549  0.5161  0.7872
12677TIP3    H259523   4.161   5.653  14.802 -0.3661  0.6811  0.7927
12678TIP3   OH259524   4.080   3.795   3.525 -0.1463  0.8476  0.0074
12678TIP3    H159525   4.056   3.718   3.474 -0.9382  1.7980 -1.1148
12678TIP3    H259526   4.010   3.805   3.589  0.4588  0.0975  0.8168
12679TIP3   OH259527   6.237   0.450   2.567 -0.5190  0.3150 -0.2288
12679TIP3    H159528   6.189   0.368   2.583  3.0027 -2.0114 -0.5725
12679TIP3    H259529   6.251   0.487   2.654 -1.2009 -0.0002  0.0232
12680TIP3   OH259530   4.235   5.773  15.108 -0.7059  0.1266  0.3264
12680TIP3    H159531   4.177   5.749  15.180  0.4945  1.3108  1.7482
12680TIP3    H259532   4.249   5.867  15.117 -0.1498  0.2264 -1.1864
12681TIP3   OH259533   3.589   0.325  11.922 -0.1591  0.2764  0.2625
12681TIP3    H159534   3.510   0.295  11.968  0.1056  0.4143  0.8261
12681TIP3    H259535   3.661   0.298  11.980  0.3421 -1.4451 -1.0872
12682TIP3   OH259536   6.353   4.053   4.815 -0.1735 -0.1214  0.1351
12682TIP3    H159537   6.369   3.990   4.746 -0.7350  0.5758 -0.6527
12682TIP3    H259538   6.266   4.088   4.796  0.7690  2.0957 -0.4517
12683TIP3   OH259539   3.265   4.027  16.163  0.3734  0.3393  0.6879
12683TIP3    H159540   3.235   3.943  16.130 -0.7542  0.2594  1.8252
12683TIP3    H259541   3.278   4.013  16.257  1.5358  1.0741  0.6533
12684TIP3   OH259542   5.503   3.754  14.423 -0.0218  0.0047 -0.0254
12684TIP3    H159543   5.534   3.693  14.357 -2.1414  0.3426 -1.4336
12684TIP3    H259544   5.508   3.840  14.381  1.4392  0.6571  1.3712
12685TIP3   OH259545   5.897   4.705  13.364 -0.1604  0.1629  0.7047
12685TIP3    H159546   5.936   4.776  13.415  1.7129  1.7950 -2.6342
12685TIP3    H259547   5.842   4.750  13.299 -2.5758 -1.7963  1.2423
12686TIP3   OH259548   3.456   5.185   2.737 -0.5788  0.1765  0.4416
12686TIP3    H159549   3.505   5.130   2.675 -1.4566  1.9301 -1.9510
12686TIP3    H259550   3.484   5.274   2.717 -1.2295  0.8464  2.3306
12687TIP3   OH259551   6.376   3.378  14.284  0.1450 -0.5104  0.4157
12687TIP3    H159552   6.471   3.366  14.280  0.3497  0.3509  1.9384
12687TIP3    H259553   6.350   3.329  14.363 -0.8291 -1.5089 -0.4995
12688TIP3   OH259554   3.634   3.049   3.836 -0.3500  0.0260  0.5179
12688TIP3    H159555   3.604   2.970   3.880  0.8065 -1.5757 -1.4159
12688TIP3    H259556   3.664   3.107   3.907 -1.7859 -0.9736  2.0117
12689TIP3   OH259557   1.936   2.554   0.168 -0.1419  0.9535  0.1174
12689TIP3    H159558   2.016   2.503   0.152 -0.8375  0.2933 -1.4811
12689TIP3    H259559   1.872   2.489   0.197 -0.6479  1.1285 -0.5730
12690TIP3   OH259560   2.145   2.009  13.003  0.7094  0.1092  0.0914
12690TIP3    H159561   2.143   1.992  13.097  0.8984 -0.3314  0.0163
12690TIP3    H259562   2.213   1.950  12.969  0.1527 -0.2447 -0.4213
12691TIP3   OH259563   4.391   1.191   3.106 -0.1686 -0.0968 -0.5512
12691TIP3    H159564   4.470   1.213   3.055  0.7928  1.3139  1.3858
12691TIP3    H259565   4.374   1.270   3.158 -1.2763 -1.3280  1.0552
12692TIP3   OH259566   4.388   6.418   3.683  0.0805  0.2957 -0.2845
12692TIP3    H159567   4.358   6.439   3.594  1.1836  0.4719 -0.6250
12692TIP3    H259568   4.325   6.461   3.740 -2.3946 -2.1760 -0.9061
12693TIP3   OH259569   1.780   2.000  16.723 -0.0497  0.6575 -0.0671
12693TIP3    H159570   1.709   1.954  16.768 -0.5073 -0.1129 -1.5152
12693TIP3    H259571   1.831   2.040  16.794 -0.8341 -0.3465  1.1193
12694TIP3   OH259572   3.173   6.107   5.911 -0.4605  0.0850  0.0613
12694TIP3    H159573   3.214   6.192   5.894 -0.5202 -0.3819 -2.8079
12694TIP3    H259574   3.088   6.129   5.949  0.1264  1.2234  0.8046
12695TIP3   OH259575   2.762   3.286  12.117 -0.3321  0.5073  0.4634
12695TIP3    H159576   2.770   3.361  12.175 -2.3978  0.1595  1.2932
12695TIP3    H259577   2.735   3.214  12.174 -1.0054 -0.1934 -0.6998
12696TIP3   OH259578   1.102   0.560  10.593  0.2716  0.6671  0.3117
12696TIP3    H159579   1.153   0.624  10.641  0.6790  0.0436  0.7215
12696TIP3    H259580   1.163   0.525  10.527 -0.1896  1.2919 -0.4758
12697TIP3   OH259581   4.122   0.639  12.729 -0.2063  0.2389 -0.0286
12697TIP3    H159582   4.029   0.634  12.749 -0.3955  2.0074 -0.2477
12697TIP3    H259583   4.136   0.732  12.707  0.7099 -0.7101 -4.3106
12698TIP3   OH259584   4.162   3.977   5.971  0.1042 -0.0231  0.1548
12698TIP3    H159585   4.142   4.020   5.888  3.1468  0.5013 -0.4568
12698TIP3    H259586   4.153   4.046   6.037  0.0342  0.2135 -0.0999
12699TIP3   OH259587   0.614   5.850   2.577 -0.1095  0.0675  0.0119
12699TIP3    H159588   0.689   5.822   2.526  0.0569 -0.2254  0.4086
12699TIP3    H259589   0.556   5.774   2.577 -1.5370  1.0390 -2.3019
12700TIP3   OH259590   5.198   0.629  10.777  0.2081 -0.1238 -0.1525
12700TIP3    H159591   5.283   0.662  10.806  0.9057 -2.7321  1.0123
12700TIP3    H259592   5.138   0.648  10.849  0.2373  0.0246 -0.1671
12701TIP3   OH259593   2.616   6.393  14.157 -0.2410 -0.5474 -0.6376
12701TIP3    H159594   2.561   6.461  14.118  0.0201 -0.4192 -0.7800
12701TIP3    H259595   2.640   6.336  14.083  0.7669  0.0446 -0.7844
12702TIP3   OH259596   1.796   6.363  13.288 -0.2626 -0.1666 -0.1067
12702TIP3    H159597   1.865   6.418  13.252  1.0354 -2.0287 -0.5666
12702TIP3    H259598   1.715   6.402  13.254  0.4109  2.6022  1.1861
12703TIP3   OH259599   2.086   6.015   2.288 -0.2808  0.5418 -0.3823
12703TIP3    H159600   2.165   6.055   2.252  0.4314  0.9239  1.4745
12703TIP3    H259601   2.052   6.080   2.350 -0.4323 -0.7345  0.9445
12704TIP3   OH259602   0.719   5.479  13.044  0.1048  0.8459 -0.3384
12704TIP3    H159603   0.790   5.467  13.107 -1.6160  1.0336  1.7779
12704TIP3    H259604   0.701   5.573  13.047 -1.6641  0.5140  0.9077
12705TIP3   OH259605   5.514   6.134   3.786 -0.1282 -0.0172  0.2818
12705TIP3    H159606   5.501   6.120   3.692  1.4196  1.5587 -0.2165
12705TIP3    H259607   5.502   6.047   3.824 -0.1621 -0.8212 -1.4341
12706TIP3   OH259608   0.733   6.559   0.234  0.7523 -0.5487 -0.3257
12706TIP3    H159609   0.753   6.484   0.177  1.6334  0.0176 -0.7794
12706TIP3    H259610   0.763   6.532   0.321  2.8569 -0.0421 -0.8287
12707TIP3   OH259611   3.601   5.425   2.709  0.4304  0.1112 -0.2492
12707TIP3    H159612   3.609   5.502   2.765  0.5081 -0.1797  0.1423
12707TIP3    H259613   3.686   5.382   2.715 -0.3400 -1.2971  1.4547
12708TIP3   OH259614   2.667   2.507   0.200  0.2001 -0.2095  0.1202
12708TIP3    H159615   2.684   2.447   0.127 -0.1823  1.6071 -1.5340
12708TIP3    H259616   2.602   2.461   0.254  0.7804 -1.7553 -0.4470
12709TIP3   OH259617   1.661   6.131  14.695 -0.0959  0.0715 -0.0055
12709TIP3    H159618   1.627   6.042  14.686 -0.8973  0.5166 -1.7137
12709TIP3    H259619   1.585   6.188  14.680  0.7211  1.0480 -0.6153
12710TIP3   OH259620   6.697   2.147   3.944 -0.4671  0.2899 -0.4399
12710TIP3    H159621   6.625   2.092   3.973 -1.7537  0.8652 -2.3788
12710TIP3    H259622   6.692   2.225   4.000  0.6544 -0.9452  1.5293
12711TIP3   OH259623   4.830   2.068   0.430 -0.1300  0.5181  0.1250
12711TIP3    H159624   4.795   2.093   0.515 -0.7761  1.1675 -0.3307
12711TIP3    H259625   4.886   2.141   0.404 -0.8882  0.8745 -0.5508
12712TIP3   OH259626   6.667   3.285   3.308 -0.2183  0.1692  0.3264
12712TIP3    H159627   6.725   3.314   3.238 -1.6532 -0.1646 -1.0443
12712TIP3    H259628   6.679   3.190   3.312 -0.9852  0.0414 -0.2711
12713TIP3   OH259629   4.323   0.093   1.446 -0.2311 -0.5521 -0.7008
12713TIP3    H159630   4.342   0.126   1.359 -0.5471 -3.3708 -1.9783
12713TIP3    H259631   4.230   0.111   1.459 -0.2701 -0.4491 -1.1239
12714TIP3   OH259632   3.718   0.528  10.490  0.4716  0.2038  0.2779
12714TIP3    H159633   3.791   0.513  10.551 -0.2187 -1.2708  0.7949
12714TIP3    H259634   3.722   0.454  10.429 -0.5194  0.1582  0.2499
12715TIP3   OH259635   3.016   0.820   5.456  0.2294  1.2354 -0.2302
12715TIP3    H159636   3.026   0.882   5.383  1.6547  1.1737 -0.1007
12715TIP3    H259637   3.080   0.751   5.439 -0.1411  0.6789  0.5480
12716TIP3   OH259638   3.636   5.828  14.209  0.2783 -0.2526 -0.3909
12716TIP3    H159639   3.632   5.771  14.286 -0.5158 -1.5304 -1.3500
12716TIP3    H259640   3.610   5.914  14.243 -0.3614 -0.8481  0.7185
12717TIP3   OH259641   4.913   3.891  12.208 -0.5294  0.1130 -0.2772
12717TIP3    H159642   4.871   3.949  12.145  1.2185  1.8261  0.0474
12717TIP3    H259643   5.007   3.899  12.191 -0.0965 -0.6753  1.4311
12718TIP3   OH259644   4.028   4.322   1.382  0.2947  0.4131  0.3707
12718TIP3    H159645   4.105   4.360   1.339  0.9240 -0.2000  0.9373
12718TIP3    H259646   4.026   4.231   1.353 -0.6036  0.5852 -0.1489
12719TIP3   OH259647   2.321   6.527   1.943 -0.0900  0.1150 -0.5723
12719TIP3    H159648   2.389   6.517   1.876 -0.1569  0.4465 -0.6893
12719TIP3    H259649   2.287   6.438   1.956 -2.2803  0.4262 -3.2674
12720TIP3   OH259650   1.886   3.954  13.345  0.1553 -0.0957 -0.4438
12720TIP3    H159651   1.847   3.869  13.364 -0.8603  0.1290 -1.3849
12720TIP3    H259652   1.962   3.960  13.403 -0.0371 -1.4310 -0.0267
12721TIP3   OH259653   6.486   3.471   2.565 -0.1847  0.3914 -0.9504
12721TIP3    H159654   6.528   3.387   2.547  0.1911  0.5890 -0.9988
12721TIP3    H259655   6.394   3.449   2.582  0.2354 -0.1977  0.6727
12722TIP3   OH259656   3.375   5.018  14.497  0.0307 -0.1986  0.2042
12722TIP3    H159657   3.430   5.092  14.521  2.4584 -1.6095 -0.6436
12722TIP3    H259658   3.306   5.056  14.443  0.5176  1.5785  0.7543
12723TIP3   OH259659   4.867   5.801   1.798 -0.0399  0.5270 -0.5368
12723TIP3    H159660   4.887   5.716   1.838  0.0931  0.7209 -0.1782
12723TIP3    H259661   4.940   5.817   1.739 -0.3068  0.1727 -0.9693
12724TIP3   OH259662   6.435   6.038   4.214  0.3097 -0.0037  0.1344
12724TIP3    H159663   6.369   6.025   4.145 -1.4281  0.3639  1.6620
12724TIP3    H259664   6.484   6.115   4.185 -0.5489  0.3003 -0.5719
12725TIP3   OH259665   5.470   3.385  14.925 -0.6335 -0.1105  0.1249
12725TIP3    H159666   5.461   3.354  14.835  0.4784  1.3275 -0.5195
12725TIP3    H259667   5.492   3.307  14.976 -0.9124 -0.8761 -0.9217
12726TIP3   OH259668   3.056   4.108   1.440  0.3645 -0.2543  0.0026
12726TIP3    H159669   2.979   4.076   1.486  0.0062 -0.1009 -0.4824
12726TIP3    H259670   3.082   4.186   1.489  0.7208 -0.7778  0.6647
12727TIP3   OH259671   0.970   1.933   4.292 -0.2402  0.3316  0.2034
12727TIP3    H159672   0.983   1.840   4.312  0.0012  0.0516 -1.1012
12727TIP3    H259673   0.876   1.942   4.277 -0.3205  0.3933  0.7208
12728TIP3   OH259674   6.385   4.172   0.307 -0.2533  0.2214 -0.3113
12728TIP3    H159675   6.335   4.103   0.264 -1.1553  0.9066 -0.3813
12728TIP3    H259676   6.323   4.244   0.319  0.3313  0.5586  0.8967
12729TIP3   OH259677   3.467   0.080  14.931  0.0947  0.2809  0.0866
12729TIP3    H159678   3.502   0.055  14.845 -0.6130  0.2538 -0.2040
12729TIP3    H259679   3.544   0.106  14.982  0.5654 -0.0558 -0.4348
12730TIP3   OH259680   5.987   6.161  16.521 -0.0460  0.7613  0.2935
12730TIP3    H159681   6.040   6.111  16.458 -2.1315 -0.5838 -0.5233
12730TIP3    H259682   5.921   6.098  16.551 -0.5490  2.0609  2.0477
12731TIP3   OH259683   0.262   1.718   1.995  0.4523 -0.0192  0.5550
12731TIP3    H159684   0.227   1.734   1.907  1.2320  0.9668  0.3989
12731TIP3    H259685   0.193   1.671   2.041 -0.9180  1.4855  0.1263
12732TIP3   OH259686   1.176   4.268   2.859  0.3347 -0.0719 -0.0053
12732TIP3    H159687   1.140   4.348   2.821  0.4939  0.1215  0.2516
12732TIP3    H259688   1.268   4.287   2.874  0.3599 -0.2807  0.1113
12733TIP3   OH259689   3.705   1.279   2.065 -0.2981 -0.2679  0.1364
12733TIP3    H159690   3.779   1.338   2.052  0.8714 -1.8991 -0.8708
12733TIP3    H259691   3.684   1.287   2.158  0.5508  0.8885  0.2437
12734TIP3   OH259692   3.567   1.358  16.201 -0.2673  0.4094 -0.8139
12734TIP3    H159693   3.656   1.383  16.179 -0.2884  1.0438 -0.2217
12734TIP3    H259694   3.532   1.433  16.249 -0.2274 -0.8511  1.3252
12735TIP3   OH259695   1.139   2.364   1.826  0.6860  0.0288  0.1509
12735TIP3    H159696   1.095   2.439   1.784  0.8782 -0.3080 -0.6646
12735TIP3    H259697   1.117   2.373   1.918  1.4338  1.6049  0.2176
12736TIP3   OH259698   0.583   3.268  15.502 -0.0207  0.1562  0.4332
12736TIP3    H159699   0.647   3.285  15.571 -1.3235  0.6547  1.5602
12736TIP3    H259700   0.554   3.355  15.474 -0.1453 -0.0626 -0.1399
12737TIP3   OH259701   0.455   3.541   3.519 -0.3656 -0.4444 -0.0527
12737TIP3    H159702   0.526   3.585   3.471 -1.0679 -0.3941 -1.0746
12737TIP3    H259703   0.429   3.605   3.586  1.4317 -0.9873  1.2363
12738TIP3   OH259704   6.796   4.311   4.513 -0.3049 -0.0540  0.4432
12738TIP3    H159705   6.885   4.277   4.516  0.4754  1.9083  0.5839
12738TIP3    H259706   6.785   4.359   4.595 -0.6170  1.7476 -0.6161
12739TIP3   OH259707   0.945   3.378   2.414 -0.2028  0.5735  0.1988
12739TIP3    H159708   0.873   3.375   2.351  0.2550 -0.5039 -0.3105
12739TIP3    H259709   0.920   3.316   2.482  0.6875 -0.6413 -0.5272
12740TIP3   OH259710   3.032   4.789   3.765  0.0143  0.3655  0.5063
12740TIP3    H159711   3.027   4.762   3.857  1.9052  2.4292  1.2853
12740TIP3    H259712   3.116   4.834   3.757 -0.5372  1.1233 -2.0170
12741TIP3   OH259713   0.507   0.175   2.930 -0.0874  0.4282  0.2754
12741TIP3    H159714   0.559   0.166   3.010 -0.3620 -1.1793  0.3085
12741TIP3    H259715   0.438   0.237   2.953 -1.0352 -1.1022  1.8094
12742TIP3   OH259716   6.315   6.645   3.307 -0.0894 -0.5671  0.2113
12742TIP3    H159717   6.341   6.660   3.398 -0.1564  0.3937  0.0740
12742TIP3    H259718   6.391   6.602   3.267  0.8240  1.0479  0.1440
12743TIP3   OH259719   3.822   4.552  16.018  0.0196 -0.2049  0.1004
12743TIP3    H159720   3.909   4.538  16.056  0.2431  2.0595  0.5757
12743TIP3    H259721   3.781   4.616  16.076 -1.2913  0.0905 -1.1108
12744TIP3   OH259722   5.879   3.678   3.017  0.0617 -0.5454  0.4645
12744TIP3    H159723   5.819   3.683   3.091 -0.1978  0.8844  0.1879
12744TIP3    H259724   5.855   3.752   2.961  0.1332 -1.6827 -1.1551
12745TIP3   OH259725   6.814   2.519  14.082  0.2988  0.3820  0.4030
12745TIP3    H159726   6.857   2.546  14.001  0.2819  2.0723  0.9337
12745TIP3    H259727   6.747   2.457  14.054  0.5802  0.6117 -0.8209
12746TIP3   OH259728   1.720   4.895   3.200  0.3414  0.2535 -0.1390
12746TIP3    H159729   1.769   4.820   3.234  1.1960  1.3478  1.2133
12746TIP3    H259730   1.786   4.946   3.151 -0.1948  0.1880 -0.9381
12747TIP3   OH259731   3.737   5.558  16.453 -0.5348 -0.1369  0.4216
12747TIP3    H159732   3.656   5.556  16.505 -2.0718  0.1831 -1.8244
12747TIP3    H259733   3.723   5.493  16.385  1.2495 -0.2735  0.1496
12748TIP3   OH259734   1.452   1.164  12.515  0.3406  0.0767 -0.2435
12748TIP3    H159735   1.427   1.072  12.528  1.8074 -0.2904  0.1550
12748TIP3    H259736   1.401   1.212  12.581  0.9478 -0.6895  0.8202
12749TIP3   OH259737   6.649   6.391  13.567 -0.3300 -0.0792 -0.4258
12749TIP3    H159738   6.689   6.304  13.571 -0.6576 -0.2028  0.3947
12749TIP3    H259739   6.672   6.425  13.481  0.8933 -0.4507 -0.2557
12750TIP3   OH259740   1.206   2.158   5.672 -0.4203  0.7152  0.4221
12750TIP3    H159741   1.112   2.159   5.688 -0.1195 -0.8952  2.7705
12750TIP3    H259742   1.216   2.117   5.586 -1.8349  0.2771  0.4460
12751TIP3   OH259743   0.455   0.661   3.372  0.3491  0.4998  0.4388
12751TIP3    H159744   0.525   0.689   3.431  1.9097 -1.5697 -0.3171
12751TIP3    H259745   0.407   0.595   3.421 -0.8900  1.6413  0.8125
12752TIP3   OH259746   1.632   1.981   0.080 -0.0733  0.2238  0.2168
12752TIP3    H159747   1.554   1.977   0.136 -0.0139 -0.3228  0.2706
12752TIP3    H259748   1.695   1.924   0.123  0.8830  1.7828  0.9517
12753TIP3   OH259749   0.134   4.240  15.900 -0.1995  0.0030  0.6678
12753TIP3    H159750   0.222   4.270  15.924  0.0289 -0.1320  0.0027
12753TIP3    H259751   0.098   4.206  15.982  0.9429 -1.3504  0.6623
12754TIP3   OH259752   1.926   2.705   1.423  0.2814  0.7081 -0.4780
12754TIP3    H159753   1.996   2.732   1.483  0.1819  0.9615 -0.4732
12754TIP3    H259754   1.972   2.665   1.349  0.5536  2.3541 -1.2536
12755TIP3   OH259755   1.178   4.503  12.395  0.5491  0.3061  0.6141
12755TIP3    H159756   1.263   4.471  12.363 -0.6714 -0.6438 -1.9310
12755TIP3    H259757   1.190   4.597  12.405  2.2828  0.0163  1.7563
12756TIP3   OH259758   6.152   1.192   4.167  0.0012 -0.3198  0.2460
12756TIP3    H159759   6.128   1.260   4.105 -1.6173 -0.0392  1.1327
12756TIP3    H259760   6.169   1.239   4.249 -0.4187 -0.9006  0.6791
12757TIP3   OH259761   6.578   6.259   1.775  1.1112 -0.5209  0.5589
12757TIP3    H159762   6.511   6.285   1.839  0.4327 -0.0424 -0.3176
12757TIP3    H259763   6.640   6.206   1.825  0.1602 -0.8433  1.4250
12758TIP3   OH259764   2.302   4.446  12.207 -0.0782  0.1746  0.9295
12758TIP3    H159765   2.367   4.474  12.143 -0.6763  1.6652  0.9406
12758TIP3    H259766   2.310   4.351  12.209  1.2565  0.2404  0.0454
12759TIP3   OH259767   0.527   0.514  10.624 -0.0524  0.6277  0.0585
12759TIP3    H159768   0.574   0.501  10.541  1.3092  1.5619  0.6439
12759TIP3    H259769   0.441   0.549  10.597 -0.4290 -1.0279 -1.0288
12760TIP3   OH259770   2.538   6.103  15.080  0.2687 -0.6724 -0.4160
12760TIP3    H159771   2.567   6.030  15.135  0.6161 -1.7056 -1.9119
12760TIP3    H259772   2.586   6.179  15.114 -0.1011 -1.1032  1.1731
12761TIP3   OH259773   6.801   4.328  13.823  0.3777  0.0503 -0.1877
12761TIP3    H159774   6.862   4.353  13.893 -1.4415 -0.0407  1.4935
12761TIP3    H259775   6.714   4.336  13.862 -0.6685 -0.9198 -2.1708
12762TIP3   OH259776   5.212   4.445  13.913  0.5564  0.0322 -0.0385
12762TIP3    H159777   5.195   4.351  13.918  2.0232 -0.2490  0.1971
12762TIP3    H259778   5.304   4.454  13.941  0.4735  1.5182 -0.1707
12763TIP3   OH259779   0.359   4.595   0.994  0.4569 -0.1735  0.5505
12763TIP3    H159780   0.420   4.666   1.013 -0.2580  0.2612  1.2800
12763TIP3    H259781   0.410   4.533   0.942  0.5611  1.7482 -1.7893
12764TIP3   OH259782   5.327   5.556   2.845 -0.4376 -0.4521 -0.1337
12764TIP3    H159783   5.280   5.516   2.773  0.0909  0.1338 -0.8261
12764TIP3    H259784   5.419   5.538   2.827 -0.0820  1.9061 -1.0550
12765TIP3   OH259785   3.856   4.916  14.471  0.1265  0.7056 -0.0585
12765TIP3    H159786   3.821   4.980  14.410  0.4778  2.1534  1.1900
12765TIP3    H259787   3.938   4.953  14.502  2.0629 -1.8696 -1.6850
12766TIP3   OH259788   0.625   1.379   1.479 -0.2216 -0.3401  0.3122
12766TIP3    H159789   0.578   1.296   1.471 -0.9829  0.1145 -0.1366
12766TIP3    H259790   0.556   1.446   1.473  0.5749  0.3969 -1.5940
12767TIP3   OH259791   2.130   0.888   0.846 -0.0774 -0.3613 -0.4860
12767TIP3    H159792   2.120   0.981   0.864 -0.7298 -0.0808 -2.1123
12767TIP3    H259793   2.223   0.870   0.859  0.1446  0.6353 -0.6483
12768TIP3   OH259794   1.148   4.478  13.070 -0.1587  0.0285 -0.1009
12768TIP3    H159795   1.228   4.512  13.029  0.7704  2.1639  3.0113
12768TIP3    H259796   1.146   4.385  13.048  3.0199 -0.0132 -0.6453
12769TIP3   OH259797   0.860   1.930   3.919 -0.0278  0.3513  0.0803
12769TIP3    H159798   0.895   1.842   3.931 -1.3086 -0.3476 -1.1481
12769TIP3    H259799   0.765   1.921   3.925 -0.1935  1.6302 -0.1532
12770TIP3   OH259800   1.525   4.605   0.254  0.1708 -0.1540  0.0386
12770TIP3    H159801   1.551   4.687   0.212 -1.0637  0.4542  0.4233
12770TIP3    H259802   1.512   4.543   0.181  2.4366 -0.4707 -0.1962
12771TIP3   OH259803   5.116   4.107  15.782  0.1250  0.0853  0.0884
12771TIP3    H159804   5.087   4.171  15.716  1.3607  0.8216  0.2445
12771TIP3    H259805   5.114   4.155  15.864  0.7281 -0.1776  0.2608
12772TIP3   OH259806   6.683   1.028   5.889  0.5530  0.0853 -0.0429
12772TIP3    H159807   6.741   0.971   5.940  1.2197  0.9587  0.2113
12772TIP3    H259808   6.720   1.027   5.801  1.1863  0.9190  0.2002
12773TIP3   OH259809   4.398   6.309  12.671 -0.0984 -0.1260 -0.0189
12773TIP3    H159810   4.387   6.392  12.624 -0.2000 -0.3354 -0.3618
12773TIP3    H259811   4.462   6.330  12.740 -2.6573  1.1821  2.1612
12774TIP3   OH259812   5.830   2.311  10.391 -0.1698 -0.5191  0.7385
12774TIP3    H159813   5.912   2.358  10.378 -0.3131 -0.0013  1.5789
12774TIP3    H259814   5.777   2.371  10.445  0.2009 -2.2020  3.1247
12775TIP3   OH259815   3.240   1.459   2.132 -0.2437  0.5260 -0.2292
12775TIP3    H159816   3.317   1.431   2.181 -0.9507 -0.4963  0.3303
12775TIP3    H259817   3.205   1.532   2.181 -0.1371  0.4133  0.0147
12776TIP3   OH259818   6.592   4.418  12.992  0.0214  0.2107 -0.3702
12776TIP3    H159819   6.514   4.447  13.038  0.6730  1.6776 -0.1256
12776TIP3    H259820   6.569   4.423  12.899 -1.0112 -1.9313 -0.2995
12777TIP3   OH259821   2.505   3.225  12.029  0.1788 -0.0652 -0.3067
12777TIP3    H159822   2.447   3.296  12.000  0.8882  0.8628  0.4523
12777TIP3    H259823   2.585   3.270  12.057  1.0546 -1.2662 -0.7917
12778TIP3   OH259824   2.494   4.166  17.044 -0.0556  0.1363 -0.0705
12778TIP3    H159825   2.457   4.216  16.972  0.1041  0.9139  0.3749
12778TIP3    H259826   2.441   4.086  17.048 -1.2290  0.8954  0.0934
12779TIP3   OH259827   4.783   5.298   3.538  0.4068 -0.2521 -0.0001
12779TIP3    H159828   4.776   5.344   3.455  0.5280 -1.1559 -0.5254
12779TIP3    H259829   4.872   5.316   3.569 -0.1675  1.4976  0.8188
12780TIP3   OH259830   1.165   5.882  16.791  0.3238 -0.6282 -0.2079
12780TIP3    H159831   1.132   5.970  16.771  0.1996 -0.3204  1.2851
12780TIP3    H259832   1.256   5.884  16.759 -0.1410 -0.4887 -1.5869
12781TIP3   OH259833   2.260   1.556  16.279 -0.4396 -0.4555 -0.0662
12781TIP3    H159834   2.337   1.564  16.336 -0.1999  0.4144 -0.4945
12781TIP3    H259835   2.188   1.593  16.330 -0.1399  0.7255 -0.4766
12782TIP3   OH259836   3.570   5.973   4.991 -0.0611 -0.2132  0.7281
12782TIP3    H159837   3.543   5.886   4.963 -0.7689  0.5358 -1.1070
12782TIP3    H259838   3.531   5.984   5.077 -0.8525 -1.3167  0.5327
12783TIP3   OH259839   4.903   1.662  16.508 -0.3271  0.4386 -0.2520
12783TIP3    H159840   4.931   1.745  16.547  1.0079  0.1482 -0.5563
12783TIP3    H259841   4.973   1.601  16.530 -1.8225 -0.9337  0.9676
12784TIP3   OH259842   0.601   3.108  16.122 -0.1308 -0.2796  0.1692
12784TIP3    H159843   0.562   3.026  16.092 -0.0842  0.1346 -1.0898
12784TIP3    H259844   0.557   3.127  16.205 -1.1962 -0.8225 -0.2535
12785TIP3   OH259845   5.255   0.847   5.462  0.2415 -0.2582  0.8040
12785TIP3    H159846   5.286   0.758   5.477 -2.0507 -1.0921  1.0466
12785TIP3    H259847   5.184   0.859   5.525  1.3626  2.2825  1.7213
12786TIP3   OH259848   0.758   3.498   2.832 -0.1602  0.2055 -0.2996
12786TIP3    H159849   0.720   3.544   2.907 -0.4917  0.2530 -0.4953
12786TIP3    H259850   0.848   3.530   2.827  0.3865 -1.0094  1.0879
12787TIP3   OH259851   6.651   3.344   1.268 -0.0704 -0.7415  0.3795
12787TIP3    H159852   6.560   3.331   1.239  0.0730  0.9205 -0.9345
12787TIP3    H259853   6.701   3.283   1.214 -0.4337 -2.1661  1.5874
12788TIP3   OH259854   0.513   3.664   4.249  0.4858  0.4008  0.8009
12788TIP3    H159855   0.524   3.732   4.182  0.0421 -0.6760 -0.4126
12788TIP3    H259856   0.516   3.711   4.332  1.6380  1.7101  0.0588
12789TIP3   OH259857   5.952   3.882   5.319 -0.1678 -0.3283  0.5541
12789TIP3    H159858   5.875   3.938   5.304 -0.8853 -1.2901  0.5174
12789TIP3    H259859   5.917   3.806   5.365  1.0658 -0.0316  2.0338
12790TIP3   OH259860   6.618   3.208   5.672 -0.1167 -0.2136  0.0844
12790TIP3    H159861   6.680   3.257   5.726  0.7930 -1.6416  0.4038
12790TIP3    H259862   6.551   3.178   5.733 -1.2827  1.5069 -0.2973
12791TIP3   OH259863   2.520   3.330   6.009  0.3679  0.2773 -0.8123
12791TIP3    H159864   2.480   3.417   6.010  1.0075  0.5657 -0.2459
12791TIP3    H259865   2.486   3.290   5.928 -0.4750  0.7858 -0.7264
12792TIP3   OH259866   3.765   2.260   1.948 -0.2368 -0.4773 -0.2795
12792TIP3    H159867   3.859   2.267   1.929  0.0002  1.3394  1.2622
12792TIP3    H259868   3.722   2.293   1.869  0.5087  0.5757 -0.2659
12793TIP3   OH259869   3.862   3.885  14.536 -0.6703  0.7643  0.1231
12793TIP3    H159870   3.880   3.820  14.604 -1.0503  1.1345  0.5865
12793TIP3    H259871   3.869   3.970  14.581 -0.5853  1.0274 -0.3785
12794TIP3   OH259872   6.337   3.646   2.369 -0.0935  0.4838  0.1375
12794TIP3    H159873   6.266   3.597   2.327  1.3037 -0.2177 -1.5019
12794TIP3    H259874   6.348   3.603   2.454 -1.5161  0.5200  0.3759
12795TIP3   OH259875   5.628   5.841  15.133 -0.0059 -0.3786  0.4294
12795TIP3    H159876   5.570   5.800  15.069 -0.3872  1.3710 -0.4051
12795TIP3    H259877   5.569   5.879  15.198  0.3097 -0.5749  0.8344
12796TIP3   OH259878   1.892   2.387   1.463 -0.2631 -0.2067 -0.4866
12796TIP3    H159879   1.803   2.422   1.467 -0.8813 -1.7252 -0.3930
12796TIP3    H259880   1.895   2.318   1.528  1.0910  0.0006 -0.2857
12797TIP3   OH259881   1.006   4.785   3.660 -0.4063  0.1021 -0.2701
12797TIP3    H159882   0.920   4.745   3.675  0.6459 -2.6108 -0.9236
12797TIP3    H259883   1.012   4.795   3.565  0.3614 -0.6724 -0.3152
12798TIP3   OH259884   0.439   1.864   0.772 -0.0117 -0.5386  0.4740
12798TIP3    H159885   0.473   1.805   0.705 -0.5690  0.8964 -1.1362
12798TIP3    H259886   0.346   1.873   0.751 -0.0689  0.3965  1.0825
12799TIP3   OH259887   2.638   6.557   3.315 -0.1066 -0.1489  0.6085
12799TIP3    H159888   2.588   6.492   3.363  0.0438  0.4442  1.6012
12799TIP3    H259889   2.572   6.605   3.265 -0.6555  0.9496  2.2800
12800TIP3   OH259890   2.192   6.222  16.162 -0.5772 -0.4658 -0.2163
12800TIP3    H159891   2.170   6.187  16.248 -0.4470 -1.6731 -0.6501
12800TIP3    H259892   2.108   6.251  16.125 -1.0298 -2.2218 -0.6473
12801TIP3   OH259893   6.732   6.267  17.205 -0.3208 -0.1461  0.0834
12801TIP3    H159894   6.652   6.288  17.254  0.7264 -1.2683  2.4527
12801TIP3    H259895   6.724   6.173  17.186  0.3518 -0.2305  0.2100
12802TIP3   OH259896   2.214   4.690  10.413 -0.0017  0.1411 -0.0222
12802TIP3    H159897   2.153   4.740  10.466 -0.0619 -1.2938  1.3573
12802TIP3    H259898   2.161   4.622  10.371  0.6798 -1.8188  2.0598
12803TIP3   OH259899   0.757   0.067  14.124 -0.0640  0.0033  0.2300
12803TIP3    H159900   0.805   0.026  14.196  2.6631  2.2468 -0.1223
12803TIP3    H259901   0.808   0.046  14.046 -0.7288  0.9040 -0.4702
12804TIP3   OH259902   0.438   0.716   0.451  0.1521 -0.0287 -0.0411
12804TIP3    H159903   0.397   0.787   0.499  0.9896 -1.7724  3.5915
12804TIP3    H259904   0.475   0.758   0.373 -4.2026  2.3919 -1.1159
12805TIP3   OH259905   0.544   1.935   4.591  0.1095  0.4446 -0.7862
12805TIP3    H159906   0.552   1.948   4.686  0.6017 -0.3827 -0.7015
12805TIP3    H259907   0.494   2.011   4.560  1.8292  1.8891 -0.1858
12806TIP3   OH259908   4.160   5.323   2.702  0.3641  0.0637  0.0520
12806TIP3    H159909   4.250   5.314   2.671  0.5567  0.3488  0.5164
12806TIP3    H259910   4.165   5.390   2.770 -0.3054  0.5439 -0.3606
12807TIP3   OH259911   6.419   4.671   4.780  0.1885 -0.5114  0.3770
12807TIP3    H159912   6.381   4.650   4.865  0.3234 -0.3609  0.4754
12807TIP3    H259913   6.421   4.587   4.733  1.7321 -0.9514  1.1588
12808TIP3   OH259914   3.424   1.376   0.574  0.1373 -0.8427 -0.4174
12808TIP3    H159915   3.459   1.384   0.663  3.0150  2.0717 -1.5882
12808TIP3    H259916   3.421   1.282   0.558 -0.1036 -1.4505  2.5763
12809TIP3   OH259917   0.170   5.620   5.512  0.0226  0.6303  0.5254
12809TIP3    H159918   0.228   5.559   5.468  0.6108  0.6356  1.2781
12809TIP3    H259919   0.208   5.706   5.493  0.3359  0.6258  1.1133
12810TIP3   OH259920   0.754   0.821   5.242  0.5942 -0.0200  0.0949
12810TIP3    H159921   0.763   0.797   5.150 -0.5765  3.0133 -0.9540
12810TIP3    H259922   0.818   0.767   5.288  0.5703 -2.2964 -2.3351
12811TIP3   OH259923   3.746   5.814  17.181  0.5140  0.6999 -0.0909
12811TIP3    H159924   3.690   5.781  17.251 -0.1087 -1.4020 -1.4887
12811TIP3    H259925   3.687   5.831  17.108  1.3696  1.0847 -0.7168
12812TIP3   OH259926   2.810   6.599   5.643  0.0411  0.4019 -0.1059
12812TIP3    H159927   2.814   6.511   5.680 -1.9943  0.2824 -0.0600
12812TIP3    H259928   2.718   6.610   5.616  0.5451  2.0029 -1.3645
12813TIP3   OH259929   2.779   4.445  12.198 -0.3065 -0.4955  0.0046
12813TIP3    H159930   2.691   4.451  12.235 -0.0070 -2.1546  1.1074
12813TIP3    H259931   2.835   4.489  12.262 -0.0803 -1.3055  0.3729
12814TIP3   OH259932   4.879   4.164   3.650  0.1752  0.4427 -0.0138
12814TIP3    H159933   4.937   4.176   3.725 -0.5347 -1.4494  0.9105
12814TIP3    H259934   4.925   4.104   3.592  0.5538  1.5970 -0.9644
12815TIP3   OH259935   6.202   5.775   3.439 -0.3945  0.0863  0.4016
12815TIP3    H159936   6.262   5.722   3.492 -0.2452 -1.5540 -1.2787
12815TIP3    H259937   6.167   5.840   3.499  0.8266 -0.7857  2.1405
12816TIP3   OH259938   6.186   1.098   6.055 -0.6535 -0.5398 -0.0510
12816TIP3    H159939   6.277   1.107   6.028 -0.3362  2.8287  1.6507
12816TIP3    H259940   6.190   1.049   6.138 -0.4109 -0.4943 -0.0371
12817TIP3   OH259941   1.824   6.362   4.330 -0.0007  0.0667 -0.7602
12817TIP3    H159942   1.901   6.320   4.368 -1.3229 -1.7967 -0.0048
12817TIP3    H259943   1.859   6.440   4.287  2.4561 -1.2381 -1.3660
12818TIP3   OH259944   6.666   5.095   4.161 -0.1509 -0.0318  0.1293
12818TIP3    H159945   6.697   5.108   4.071  1.0497 -0.6760  0.4238
12818TIP3    H259946   6.616   5.014   4.158 -1.4729  0.7728 -0.2580
12819TIP3   OH259947   2.208   3.555   1.622 -0.6738  0.3740 -0.4527
12819TIP3    H159948   2.170   3.482   1.573 -0.0819  0.1054 -0.5142
12819TIP3    H259949   2.152   3.564   1.699 -0.6805 -0.2154 -0.3900
12820TIP3   OH259950   0.903   0.161   1.256 -0.3187  0.2525  0.3246
12820TIP3    H159951   0.905   0.185   1.348  1.3267 -1.4342  0.7979
12820TIP3    H259952   0.928   0.068   1.255  1.1346  0.5934 -1.9009
12821TIP3   OH259953   2.521   3.275   0.983 -0.2587 -0.0155 -0.6306
12821TIP3    H159954   2.454   3.208   0.973  1.1281 -2.1099  2.5369
12821TIP3    H259955   2.595   3.243   0.932 -0.7174  1.0249 -2.0360
12822TIP3   OH259956   3.068   4.632  14.825 -0.1742 -0.4697 -0.1820
12822TIP3    H159957   3.020   4.619  14.907 -1.5213 -2.0639 -1.1547
12822TIP3    H259958   3.000   4.638  14.758  0.9238 -0.3358 -1.3197
12823TIP3   OH259959   1.107   5.676   3.036  0.4268  0.2984  0.6084
12823TIP3    H159960   1.201   5.661   3.047  0.6654  1.8083  0.8162
12823TIP3    H259961   1.100   5.724   2.954  0.2514  3.4561  2.3321
12824TIP3   OH259962   0.367   5.938  14.082 -0.1419 -0.5485  0.0215
12824TIP3    H159963   0.398   5.860  14.128  1.6777 -0.5354 -1.0677
12824TIP3    H259964   0.397   5.925  13.992 -0.1120  1.2558 -0.2572
12825TIP3   OH259965   0.900   0.971  16.965  0.1793  0.1994 -0.1226
12825TIP3    H159966   0.968   0.949  17.029  1.1641  1.8653 -0.5443
12825TIP3    H259967   0.941   0.955  16.880 -0.9320 -1.4561 -0.4011
12826TIP3   OH259968   2.225   0.024   0.071 -0.0621  0.2084 -1.0337
12826TIP3    H159969   2.292  -0.039   0.098  0.2178  1.4474  1.5099
12826TIP3    H259970   2.225   0.090   0.141 -2.4552  1.3965 -2.0386
12827TIP3   OH259971   2.489   2.187  15.509 -0.4657  0.2780  0.3775
12827TIP3    H159972   2.512   2.164  15.419 -0.8629 -0.5205  0.4715
12827TIP3    H259973   2.428   2.260  15.500 -1.2805 -0.4438 -0.0529
12828TIP3   OH259974   1.358   3.849  15.459  0.1765 -0.3041 -0.3441
12828TIP3    H159975   1.408   3.885  15.532 -0.0634  0.3193 -0.4777
12828TIP3    H259976   1.423   3.806  15.403  0.5199  0.2194 -0.3546
12829TIP3   OH259977   4.988   1.552   5.786 -0.1531 -0.5507 -0.3968
12829TIP3    H159978   5.035   1.570   5.868  1.0636  0.0442 -1.1980
12829TIP3    H259979   4.927   1.626   5.777  0.8913  0.2820 -0.8492
12830TIP3   OH259980   4.079   2.937  15.322  0.2568 -0.2258  0.2470
12830TIP3    H159981   4.060   3.016  15.371 -0.7436  0.2799 -0.8892
12830TIP3    H259982   4.035   2.867  15.370 -0.7585  0.2690  0.0718
12831TIP3   OH259983   4.268   6.006  15.443  0.5005 -0.5561  0.0178
12831TIP3    H159984   4.236   5.923  15.479  1.1427 -0.7478  0.1548
12831TIP3    H259985   4.234   6.073  15.503  0.8043 -0.8009  0.4672
12832TIP3   OH259986   5.963   3.505   4.835  0.3313 -0.1930  0.3469
12832TIP3    H159987   5.963   3.557   4.916 -0.7527  2.1191 -1.0602
12832TIP3    H259988   5.872   3.479   4.823  0.6602 -1.4268  0.3722
12833TIP3   OH259989   3.548   2.303  13.594  0.0754 -0.1500  0.3172
12833TIP3    H159990   3.635   2.289  13.557 -0.1735 -1.3763  0.1419
12833TIP3    H259991   3.493   2.321  13.519 -0.0432 -0.6083  0.2884
12834TIP3   OH259992   5.075   6.677   5.493  0.0422 -0.0765 -0.5923
12834TIP3    H159993   5.125   6.595   5.499 -0.0089 -0.2266 -1.8665
12834TIP3    H259994   4.986   6.652   5.520  0.8368  0.4752  2.9700
12835TIP3   OH259995   3.380   2.155  15.244 -0.0006  0.0976 -0.0639
12835TIP3    H159996   3.363   2.073  15.290  1.8493  0.3500  1.1907
12835TIP3    H259997   3.295   2.199  15.241 -0.3379 -0.2020  2.6625
12836TIP3   OH259998   0.832   6.479  16.718  0.2782 -0.7281  0.3256
12836TIP3    H159999   0.816   6.462  16.626 -2.3924  0.1510  0.5395
12836TIP3    H260000   0.863   6.570  16.721 -2.1252  0.1519  0.4095
12837TIP3   OH260001   3.964   3.618   4.370  0.1308  0.2627 -0.6876
12837TIP3    H160002   3.951   3.651   4.458  0.7678 -2.7261  0.6497
12837TIP3    H260003   3.885   3.568   4.351  0.7516 -0.6150 -1.0382
12838TIP3   OH260004   6.281   4.866   1.511 -0.4260 -0.6081 -0.2769
12838TIP3    H160005   6.194   4.855   1.550 -0.1965 -0.4117  0.3036
12838TIP3    H260006   6.269   4.933   1.444 -0.6203 -0.2127  0.1503
12839TIP3   OH260007   5.722   6.209   5.711  0.0740  0.1027 -0.8281
12839TIP3    H160008   5.680   6.141   5.765  1.0962  0.3377  0.3093
12839TIP3    H260009   5.668   6.287   5.725  0.8380  0.4020  0.6159
12840TIP3   OH260010   2.094   4.631   1.350  0.1928 -0.2182  0.1925
12840TIP3    H160011   2.096   4.536   1.354 -0.3208 -0.3658 -1.9770
12840TIP3    H260012   2.104   4.652   1.257  0.0092  1.8470  0.5780
12841TIP3   OH260013   4.934   0.241   3.839 -0.2168 -0.1555  0.3558
12841TIP3    H160014   4.943   0.202   3.753 -2.0144 -2.0367  0.9396
12841TIP3    H260015   4.944   0.335   3.824 -1.6949 -0.3032 -2.1086
12842TIP3   OH260016   6.398   6.388  13.181 -0.1559 -0.2299  0.2051
12842TIP3    H160017   6.312   6.405  13.142 -0.2396 -0.3872  0.3208
12842TIP3    H260018   6.459   6.438  13.126 -0.4373  0.7427  0.7421
12843TIP3   OH260019   3.215   1.039   5.028 -0.1959  0.1825  0.8600
12843TIP3    H160020   3.193   1.033   4.935 -0.7524  2.3213  0.8034
12843TIP3    H260021   3.138   1.081   5.068  0.6344  0.6487  2.0168
12844TIP3   OH260022   3.039   1.638  11.378  0.1748 -0.6665  0.2842
12844TIP3    H160023   3.075   1.608  11.462 -0.0900  2.3665  1.6295
12844TIP3    H260024   2.945   1.622  11.386 -0.1056  1.2036  1.4217
12845TIP3   OH260025   5.774   6.130  15.632  0.0115 -0.7344  0.4485
12845TIP3    H160026   5.816   6.199  15.684  0.6608 -0.1556 -0.8070
12845TIP3    H260027   5.684   6.127  15.666  0.2892 -0.0676  1.2998
12846TIP3   OH260028   2.686   3.973   5.787  0.3418 -0.2620 -0.4232
12846TIP3    H160029   2.656   3.922   5.863 -0.8312  2.9048  1.4374
12846TIP3    H260030   2.777   3.994   5.806  1.1959 -2.4269 -1.7470
12847TIP3   OH260031   0.778   6.720   2.970 -0.2946 -0.2931 -0.0885
12847TIP3    H160032   0.717   6.648   2.974 -0.6208 -0.0286 -0.2664
12847TIP3    H260033   0.842   6.702   3.040 -1.8824  0.6188  1.6983
12848TIP3   OH260034   6.664   3.984  15.009 -0.5784  0.5835 -0.1609
12848TIP3    H160035   6.626   4.066  15.041 -0.5457  1.2871 -1.8661
12848TIP3    H260036   6.689   4.002  14.919 -1.4342 -1.5896 -0.9018
12849TIP3   OH260037   0.180   1.142   4.836 -0.6036 -0.0599 -0.0772
12849TIP3    H160038   0.119   1.178   4.900 -0.6743 -0.9765  0.3958
12849TIP3    H260039   0.136   1.152   4.751 -1.1224 -0.1065  0.1834
12850TIP3   OH260040   2.482   2.463   5.404 -0.5246  0.3231 -0.5164
12850TIP3    H160041   2.417   2.397   5.427 -1.1128  1.4410  1.2725
12850TIP3    H260042   2.565   2.417   5.403 -0.5566 -0.1170  3.1218
12851TIP3   OH260043   3.257   2.829   5.409 -0.1714 -0.0289  0.2409
12851TIP3    H160044   3.335   2.802   5.457  0.4407  0.1614 -0.6498
12851TIP3    H260045   3.184   2.804   5.467  0.4054 -2.5994 -0.0454
12852TIP3   OH260046   1.346   6.291  11.333  0.1950 -0.1923  0.2387
12852TIP3    H160047   1.337   6.385  11.348 -0.5154 -0.0546 -0.8951
12852TIP3    H260048   1.436   6.281  11.301  0.0153  0.2363 -0.4401
12853TIP3   OH260049   0.207   2.104  15.215 -0.2750 -0.0048 -0.1706
12853TIP3    H160050   0.199   2.049  15.137 -2.6186  1.1601 -0.8615
12853TIP3    H260051   0.120   2.144  15.225  0.0881  0.2644  2.7732
12854TIP3   OH260052   4.000   3.599  15.404  0.3553 -0.3542  0.3440
12854TIP3    H160053   4.025   3.679  15.359  1.4895 -0.5905  0.5343
12854TIP3    H260054   4.020   3.529  15.343 -2.0313 -0.4454 -0.4280
12855TIP3   OH260055   0.212   6.735  14.194 -0.0379 -0.2194  0.0775
12855TIP3    H160056   0.234   6.644  14.214  1.6382  0.1175 -0.0447
12855TIP3    H260057   0.173   6.732  14.107 -1.4081 -0.9693  0.6927
12856TIP3   OH260058   2.991   1.066  14.309  0.2137 -0.4012  0.1223
12856TIP3    H160059   2.965   1.075  14.218  1.0400 -0.8917 -0.1709
12856TIP3    H260060   2.909   1.049  14.356 -0.1473 -0.6804 -0.6018
12857TIP3   OH260061   0.634   1.741   0.987  0.2933  0.2601 -0.2643
12857TIP3    H160062   0.694   1.790   0.931  0.4007  0.4291 -0.0053
12857TIP3    H260063   0.594   1.677   0.929 -0.3982  1.1355 -0.7717
12858TIP3   OH260064   4.519   3.426   5.577  0.2261  0.0403  0.1145
12858TIP3    H160065   4.474   3.362   5.522 -1.5982  0.8941  0.5323
12858TIP3    H260066   4.461   3.502   5.578  2.2309  1.6534 -0.2084
12859TIP3   OH260067   2.911   6.479   3.305  0.1450  0.5604 -0.0587
12859TIP3    H160068   2.820   6.508   3.293  0.6386  1.6670 -1.3727
12859TIP3    H260069   2.953   6.550   3.354  0.0270 -0.5284  1.7141
12860TIP3   OH260070   4.426   1.511  15.439  0.2106 -0.0800 -0.8063
12860TIP3    H160071   4.439   1.436  15.380 -0.9967 -0.8627 -0.1368
12860TIP3    H260072   4.359   1.564  15.396  3.9116  3.0436 -3.4283
12861TIP3   OH260073   2.610   5.761  12.013  0.6853  0.4301 -0.0617
12861TIP3    H160074   2.625   5.850  12.045  1.0643 -0.1029  1.2949
12861TIP3    H260075   2.517   5.759  11.989 -0.2522  0.2803  3.0985
12862TIP3   OH260076   3.319   1.251  14.068  0.1783 -0.1575 -0.0867
12862TIP3    H160077   3.256   1.322  14.075 -0.7892 -0.9750 -0.2296
12862TIP3    H260078   3.304   1.214  13.981 -0.6013 -1.6611  0.6376
12863TIP3   OH260079   4.471   5.516   1.791  0.5477 -0.0391  0.2014
12863TIP3    H160080   4.514   5.462   1.858 -1.5001  0.5849  2.1451
12863TIP3    H260081   4.486   5.606   1.820  2.2383  0.4627 -1.9363
12864TIP3   OH260082   6.202   5.505  13.494  0.6009  0.1355 -0.1000
12864TIP3    H160083   6.209   5.426  13.546 -0.5775 -0.4902 -0.8604
12864TIP3    H260084   6.248   5.572  13.545 -1.1757 -0.2355  2.1281
12865TIP3   OH260085   0.205   3.529   4.157 -0.3988  0.1426 -0.2647
12865TIP3    H160086   0.148   3.555   4.229 -2.0187 -2.0789 -0.6421
12865TIP3    H260087   0.261   3.460   4.195 -0.4363 -0.1927 -0.8064
12866TIP3   OH260088   3.613   4.797  12.259 -0.0590  0.1059 -0.2361
12866TIP3    H160089   3.568   4.859  12.202  0.7738  0.5238 -0.4545
12866TIP3    H260090   3.674   4.751  12.201  0.1650 -0.0928  0.1544
12867TIP3   OH260091   5.905   2.345   1.718 -0.2418  0.6863 -0.0272
12867TIP3    H160092   5.968   2.391   1.663  1.5780 -0.7391  0.7716
12867TIP3    H260093   5.941   2.351   1.806 -0.9014 -0.7040  0.3616
12868TIP3   OH260094   3.920   6.752   4.534  0.4158 -0.3402  0.4044
12868TIP3    H160095   3.916   6.736   4.628 -1.2153  0.4610  0.5170
12868TIP3    H260096   3.898   6.845   4.525 -1.4208 -0.8473 -0.8645
12869TIP3   OH260097   4.138   2.055   5.566 -0.2013  0.0557 -0.2966
12869TIP3    H160098   4.071   1.988   5.575 -0.0406 -0.0142  0.4720
12869TIP3    H260099   4.108   2.127   5.622  0.8366 -0.3754  0.8789
12870TIP3   OH260100   5.728   2.350  16.675  0.7960  0.5242  0.0299
12870TIP3    H160101   5.722   2.360  16.580  1.0716  0.0215 -0.0410
12870TIP3    H260102   5.705   2.437  16.709  1.8294  1.0423 -0.5361
12871TIP3   OH260103   0.763   2.977  13.248 -0.0575  0.2017 -0.1483
12871TIP3    H160104   0.782   2.956  13.339  1.2376 -0.8272 -0.6160
12871TIP3    H260105   0.825   2.924  13.198 -0.8903  0.5702 -1.6395
12872TIP3   OH260106   3.953   4.147   0.754  0.1538 -0.2499  0.2637
12872TIP3    H160107   3.988   4.203   0.684  2.2770 -1.6773  0.1142
12872TIP3    H260108   4.024   4.139   0.817 -2.2571  2.6085  3.8038
12873TIP3   OH260109   4.351   4.661  11.537  0.1307  0.0311  0.6560
12873TIP3    H160110   4.355   4.608  11.617 -0.0191 -0.9179  0.0472
12873TIP3    H260111   4.400   4.741  11.559 -0.7159  0.2184  2.0026
12874TIP3   OH260112   1.946   6.163  12.034  0.4814 -0.0344  0.3400
12874TIP3    H160113   1.904   6.175  12.119 -0.1947 -0.1753  0.0311
12874TIP3    H260114   1.979   6.073  12.036 -0.8245 -0.5482 -0.0888
12875TIP3   OH260115   3.741   3.004   2.267 -0.1174  0.7445 -0.1285
12875TIP3    H160116   3.785   3.070   2.321  1.5865  0.2397 -0.8019
12875TIP3    H260117   3.798   2.927   2.273 -1.1764 -0.1104 -0.7013
12876TIP3   OH260118   3.827   3.796  13.981 -0.2449 -0.3690 -0.0706
12876TIP3    H160119   3.854   3.888  13.973  1.2462 -0.8998 -2.0093
12876TIP3    H260120   3.765   3.796  14.054  1.6434  1.7383  1.7207
12877TIP3   OH260121   5.425   6.211  17.101 -0.4213 -0.0098  0.3797
12877TIP3    H160122   5.458   6.190  17.189  0.9314  0.5098  0.0333
12877TIP3    H260123   5.502   6.200  17.044 -1.3740 -0.7182 -0.7993
12878TIP3   OH260124   3.747   5.468   3.914  0.4737  0.2464 -0.5456
12878TIP3    H160125   3.822   5.464   3.973  0.7122  0.7987 -0.8025
12878TIP3    H260126   3.681   5.412   3.955  0.5034  0.9016  0.4371
12879TIP3   OH260127   5.495   3.518  15.414 -0.1495  0.0775 -0.0866
12879TIP3    H160128   5.473   3.575  15.341  1.3704  0.6602 -0.1371
12879TIP3    H260129   5.430   3.538  15.482 -0.9446  0.2727 -0.8925
12880TIP3   OH260130   2.751   3.512   0.248  0.2575 -0.3907  0.2044
12880TIP3    H160131   2.682   3.523   0.183 -0.2097 -3.0768  0.1315
12880TIP3    H260132   2.759   3.598   0.289 -2.5849  0.2198 -0.3084
12881TIP3   OH260133   5.858   1.412   3.042  0.3804  0.0932  0.3598
12881TIP3    H160134   5.767   1.423   3.018 -0.2456 -0.2448  2.3594
12881TIP3    H260135   5.907   1.425   2.961 -1.3243  1.7337 -0.4640
12882TIP3   OH260136   1.579   5.169   1.452 -0.5164  0.3383 -0.4315
12882TIP3    H160137   1.609   5.157   1.362  1.3453  0.0556  0.1845
12882TIP3    H260138   1.502   5.112   1.459  0.9048 -1.7904 -1.1126
12883TIP3   OH260139   6.690   5.897   4.628 -0.2132 -0.1263 -0.1506
12883TIP3    H160140   6.646   5.957   4.569 -1.1410  0.0574  0.6999
12883TIP3    H260141   6.695   5.944   4.711  1.5846 -0.1490 -0.1941
12884TIP3   OH260142   3.835   3.906   0.647 -0.4159 -0.1699 -0.3117
12884TIP3    H160143   3.910   3.887   0.590 -1.5759  0.4951 -2.1529
12884TIP3    H260144   3.864   3.979   0.702  0.4828 -0.2971 -0.6087
12885TIP3   OH260145   6.045   2.216  14.330 -0.5209 -0.7130 -0.2528
12885TIP3    H160146   6.124   2.209  14.276 -0.6242 -0.8106 -0.3867
12885TIP3    H260147   6.079   2.231  14.419 -0.3322 -1.6069 -0.1631
12886TIP3   OH260148   6.596   4.407  10.357  0.1573  0.2851  0.4814
12886TIP3    H160149   6.679   4.408  10.309  0.8698 -0.0089  1.6362
12886TIP3    H260150   6.591   4.318  10.393 -1.2188 -0.0503 -0.4776
12887TIP3   OH260151   1.146   6.807  15.327  0.5356 -0.5106  0.0200
12887TIP3    H160152   1.100   6.845  15.402  1.2537 -0.4402  0.4365
12887TIP3    H260153   1.086   6.740  15.293 -0.2531  0.2047 -0.0151
12888TIP3   OH260154   4.842   0.013  11.259 -0.5309  0.1326 -0.0913
12888TIP3    H160155   4.848  -0.081  11.273  1.2839  0.2654  0.2762
12888TIP3    H260156   4.829   0.024  11.165  0.9711 -0.4757 -0.3989
12889TIP3   OH260157   0.064   1.401   5.205  0.2661 -0.0788 -0.3173
12889TIP3    H160158   0.122   1.462   5.250 -0.6008 -0.2383  1.0735
12889TIP3    H260159   0.053   1.329   5.266 -2.0962  0.3625 -0.1173
12890TIP3   OH260160   1.400   0.979   0.738  0.1130  0.6981  0.1827
12890TIP3    H160161   1.412   0.897   0.786  0.7376  0.6992  0.0284
12890TIP3    H260162   1.466   1.039   0.774  0.3436  0.8133 -0.4145
12891TIP3   OH260163   2.284   5.661   1.248  0.4531  0.0807  0.1671
12891TIP3    H160164   2.254   5.716   1.175  1.1924 -1.6248 -1.5111
12891TIP3    H260165   2.372   5.632   1.221  1.0488 -0.0413  2.0905
12892TIP3   OH260166   3.148   3.681  14.304  0.4000 -0.4397  0.1364
12892TIP3    H160167   3.182   3.770  14.310  2.4702 -0.9992 -1.8349
12892TIP3    H260168   3.106   3.677  14.218 -1.8577 -0.7467  1.1729
12893TIP3   OH260169   5.444   6.433  14.129  0.0457 -0.1772 -0.5787
12893TIP3    H160170   5.373   6.473  14.179 -0.7142 -0.9567 -1.0043
12893TIP3    H260171   5.400   6.392  14.054  0.9722 -0.4934 -0.9626
12894TIP3   OH260172   0.473   1.356  12.270 -0.1803  0.6550  0.1751
12894TIP3    H160173   0.428   1.364  12.354 -1.0441  1.4105 -0.3414
12894TIP3    H260174   0.429   1.420  12.213  0.7347  0.5275 -0.7002
12895TIP3   OH260175   0.046   4.312   1.061 -0.2136 -0.1041 -0.3031
12895TIP3    H160176   0.094   4.267   0.991 -0.0253  1.2826 -1.1032
12895TIP3    H260177   0.115   4.356   1.112 -0.5531  1.3224 -1.0380
12896TIP3   OH260178   6.322   1.441  16.202  0.0767 -0.0419  0.0056
12896TIP3    H160179   6.315   1.364  16.147 -0.5306  0.1911 -0.2516
12896TIP3    H260180   6.238   1.446  16.248 -0.5095  1.3178 -1.1405
12897TIP3   OH260181   2.543   1.944   1.185 -0.0900 -0.7219  0.5217
12897TIP3    H160182   2.550   2.039   1.185 -0.3687 -0.6542 -1.7622
12897TIP3    H260183   2.624   1.914   1.225  1.1523  0.4680 -0.9802
12898TIP3   OH260184   1.376   4.369   0.184 -0.3413 -0.4072  0.2270
12898TIP3    H160185   1.294   4.395   0.142 -0.4427  0.0911  0.7158
12898TIP3    H260186   1.362   4.385   0.277  0.5438  0.3588  0.2509
12899TIP3   OH260187   6.220   0.917   4.180 -0.0603  0.1349 -0.4663
12899TIP3    H160188   6.233   1.006   4.146  1.2122 -0.8358 -2.7206
12899TIP3    H260189   6.306   0.877   4.174 -0.2484 -0.8232  2.0541
12900TIP3   OH260190   1.703   1.770  16.592 -0.0634 -0.1908  0.0342
12900TIP3    H160191   1.730   1.838  16.654  2.5985 -1.8107  0.8079
12900TIP3    H260192   1.608   1.780  16.585 -0.1292  1.6516  2.4044
12901TIP3   OH260193   3.833   1.207   0.607  0.5092 -0.0752  0.3700
12901TIP3    H160194   3.877   1.122   0.614 -0.3003 -0.4601  0.9342
12901TIP3    H260195   3.747   1.192   0.646  1.2515  1.6845  2.9001
12902TIP3   OH260196   6.215   6.342  12.501  0.2862 -0.3081  0.3380
12902TIP3    H160197   6.177   6.358  12.587  1.0665 -1.5548  0.9410
12902TIP3    H260198   6.148   6.371  12.439 -0.6847 -0.3175  1.3612
12903TIP3   OH260199   1.346   6.413   5.369 -0.4855 -0.3615  0.4444
12903TIP3    H160200   1.438   6.439   5.364 -0.7011  0.3662  0.2474
12903TIP3    H260201   1.334   6.383   5.459 -0.1703 -0.0285  0.5964
12904TIP3   OH260202   3.078   1.988   6.350 -0.3689 -0.5756 -0.4580
12904TIP3    H160203   3.048   2.077   6.365  0.7606 -0.0311 -1.2546
12904TIP3    H260204   3.038   1.963   6.267  2.6551  0.8547 -2.5321
12905TIP3   OH260205   2.548   1.235  17.205  0.2529 -0.0542 -0.2106
12905TIP3    H160206   2.468   1.266  17.163  0.3634  0.3586 -0.1149
12905TIP3    H260207   2.518   1.185  17.281  0.0661 -0.4746 -0.5534
12906TIP3   OH260208   5.020   4.590  13.792  0.6751 -0.4884 -0.1940
12906TIP3    H160209   4.947   4.606  13.851  0.6531  0.0615 -0.3691
12906TIP3    H260210   5.095   4.572  13.849  0.4559 -0.8389 -0.0130
12907TIP3   OH260211   1.772   4.804  13.928  0.5149  0.2264 -0.3264
12907TIP3    H160212   1.699   4.765  13.880  0.9013  0.5953 -1.2384
12907TIP3    H260213   1.812   4.731  13.975 -1.3942  0.2584  1.5005
12908TIP3   OH260214   6.210   5.939   2.748 -0.1638  0.4865 -0.4464
12908TIP3    H160215   6.267   5.959   2.674  0.7722 -1.4294 -0.3016
12908TIP3    H260216   6.136   5.891   2.708 -1.5658  2.6313 -0.5849
12909TIP3   OH260217   3.207   3.619  13.809  0.0356  0.4884 -0.0959
12909TIP3    H160218   3.116   3.610  13.782  0.0731 -0.5146  0.0908
12909TIP3    H260219   3.204   3.678  13.884 -0.0686  3.4033 -2.1946
12910TIP3   OH260220   6.815   0.347   0.219  0.1820  0.0468 -0.7581
12910TIP3    H160221   6.850   0.325   0.133 -0.0218  0.6015 -0.9865
12910TIP3    H260222   6.755   0.420   0.203 -1.3792 -1.1058 -0.4537
12911TIP3   OH260223   3.895   6.570  11.544  0.2070  0.0332  0.5270
12911TIP3    H160224   3.990   6.567  11.556  0.1810  0.1149  0.7701
12911TIP3    H260225   3.860   6.526  11.622  0.0482 -0.0966  0.3840
12912TIP3   OH260226   1.057   0.603  10.926 -0.2624  0.2544 -0.3935
12912TIP3    H160227   1.111   0.648  10.860  0.2816  1.0596  0.5787
12912TIP3    H260228   0.970   0.599  10.886 -0.2375  1.8422 -0.6679
12913TIP3   OH260229   2.839   0.613   3.298  0.0237  0.0806  0.4186
12913TIP3    H160230   2.747   0.637   3.288  0.4649  1.6488 -0.1062
12913TIP3    H260231   2.838   0.517   3.302 -1.6553  0.0757  0.8300
12914TIP3   OH260232   4.640   0.818   3.444 -0.5736  0.0921 -0.8176
12914TIP3    H160233   4.629   0.848   3.354 -0.8793  1.7717 -0.2559
12914TIP3    H260234   4.601   0.888   3.498 -0.7350 -1.0423  0.6040
12915TIP3   OH260235   3.589   3.193   6.612  0.0957 -0.1775  0.1406
12915TIP3    H160236   3.520   3.143   6.656 -1.6194 -0.0356 -2.2071
12915TIP3    H260237   3.590   3.277   6.659  0.9964 -1.2840  2.2512
12916TIP3   OH260238   4.329   6.284  17.191  0.5917  0.4682  0.4410
12916TIP3    H160239   4.332   6.211  17.129  0.8573  1.6315 -0.9935
12916TIP3    H260240   4.242   6.280  17.230  0.5292 -0.4742  0.2145
12917TIP3   OH260241   1.542   4.535   1.358  0.2460 -0.4008 -0.0713
12917TIP3    H160242   1.481   4.592   1.310  0.5890  0.3026  0.3272
12917TIP3    H260243   1.622   4.586   1.365  0.2467 -0.5560  1.1331
12918TIP3   OH260244   3.457   1.959   3.413 -0.1908 -0.2468  0.1934
12918TIP3    H160245   3.539   1.986   3.372  0.0013 -0.6657  0.2957
12918TIP3    H260246   3.482   1.931   3.501 -0.5151  0.0841  0.3941
12919TIP3   OH260247   3.413   5.600  11.917 -0.2061 -0.1381  0.6206
12919TIP3    H160248   3.356   5.602  11.840  0.0122 -0.2828  0.4519
12919TIP3    H260249   3.475   5.671  11.902 -0.7475  0.4608  1.1257
12920TIP3   OH260250   5.456   6.799  11.371  0.7204  0.0182  0.0699
12920TIP3    H160251   5.416   6.886  11.374 -0.7652 -0.6629  1.6143
12920TIP3    H260252   5.467   6.781  11.277  0.2110  1.4808 -0.2945
12921TIP3   OH260253   1.549   6.652  15.133 -0.0027 -0.3880  0.1769
12921TIP3    H160254   1.582   6.707  15.061  2.9148 -1.2119  0.7487
12921TIP3    H260255   1.494   6.711  15.184 -0.0540  0.9329 -1.3074
12922TIP3   OH260256   4.324   4.236  13.328 -0.0851 -0.7732  0.4462
12922TIP3    H160257   4.408   4.229  13.282 -0.8230 -0.3308 -1.0176
12922TIP3    H260258   4.341   4.300  13.397  0.1561  1.3008 -1.4169
12923TIP3   OH260259   5.612   4.108   2.257 -0.1385 -0.4927  0.2434
12923TIP3    H160260   5.540   4.143   2.310 -2.0984 -0.5131 -2.2158
12923TIP3    H260261   5.599   4.013   2.259  0.2167 -0.5384  0.3331
12924TIP3   OH260262   4.633   4.481  11.533 -0.2908 -0.7417 -0.5395
12924TIP3    H160263   4.558   4.522  11.491 -0.3637 -0.6949 -0.3653
12924TIP3    H260264   4.624   4.388  11.513 -1.6320 -1.0698  1.3424
12925TIP3   OH260265   4.145   1.497   2.826  0.3888  0.2194 -0.4465
12925TIP3    H160266   4.200   1.567   2.793  0.4503  0.1947 -0.3973
12925TIP3    H260267   4.056   1.522   2.802  0.4362  0.1859 -0.6589
12926TIP3   OH260268   2.375   3.250  17.120 -0.6047 -0.3756 -0.4087
12926TIP3    H160269   2.304   3.188  17.132 -1.5944  0.8542  0.3897
12926TIP3    H260270   2.359   3.318  17.185  1.1414  0.0926 -0.4175
12927TIP3   OH260271   4.297   4.195   2.358 -0.3723  0.0307  0.0856
12927TIP3    H160272   4.370   4.152   2.314  0.0634 -0.7945  1.5674
12927TIP3    H260273   4.306   4.287   2.334 -0.0693 -0.3524 -1.4036
12928TIP3   OH260274   1.703   3.451  12.668  0.3698  0.0853 -0.7954
12928TIP3    H160275   1.789   3.445  12.629  0.3280  0.0214 -0.8779
12928TIP3    H260276   1.649   3.494  12.601 -0.1289 -1.5965 -1.5098
12929TIP3   OH260277   1.491   1.785  12.698 -0.1444 -0.8730 -0.5142
12929TIP3    H160278   1.410   1.814  12.657  0.0842 -3.2765 -2.9525
12929TIP3    H260279   1.559   1.808  12.635  1.3254  1.7381  1.7767
12930TIP3   OH260280   2.453   4.836   5.297 -0.0951  0.0967  0.3449
12930TIP3    H160281   2.492   4.767   5.351 -0.8786  0.3983  1.3411
12930TIP3    H260282   2.365   4.846   5.332 -0.5163  0.5408 -0.8074
12931TIP3   OH260283   5.033   3.907  16.899 -0.0771 -0.2768  0.1850
12931TIP3    H160284   5.011   3.897  16.992 -0.7912 -0.1583  0.0306
12931TIP3    H260285   5.101   3.975  16.898 -0.1630 -0.1792  0.6061
12932TIP3   OH260286   4.761   4.258  15.416 -0.1283  0.0467 -0.0241
12932TIP3    H160287   4.826   4.326  15.435  1.2657 -1.2394 -0.0492
12932TIP3    H260288   4.745   4.267  15.322  0.1958  0.2181 -0.0640
12933TIP3   OH260289   5.570   4.653  14.510  0.4253  0.1539 -0.0265
12933TIP3    H160290   5.508   4.585  14.483  0.1883 -0.2022  1.3214
12933TIP3    H260291   5.515   4.731  14.524  0.4469  0.1513  0.0748
12934TIP3   OH260292   0.145   1.588  15.583  0.0281 -0.1456  0.0271
12934TIP3    H160293   0.151   1.683  15.574 -1.4161 -0.1606 -1.7933
12934TIP3    H260294   0.099   1.575  15.666  0.2187  0.7534  0.2888
12935TIP3   OH260295   5.419   1.653   1.808  0.3295 -0.3792  0.6966
12935TIP3    H160296   5.418   1.736   1.760 -1.3300  0.6335  2.3538
12935TIP3    H260297   5.508   1.620   1.795  1.0771  1.6875  0.0538
12936TIP3   OH260298   2.834   3.873   2.694  0.1770 -0.4090  0.5111
12936TIP3    H160299   2.816   3.967   2.690 -0.7237 -0.5523  0.9800
12936TIP3    H260300   2.799   3.845   2.779 -0.7214 -1.3966 -0.1561
12937TIP3   OH260301   3.396   3.692   2.821  0.3366  0.7727  0.4233
12937TIP3    H160302   3.390   3.776   2.867  0.7548  0.4289  1.1466
12937TIP3    H260303   3.329   3.637   2.863 -0.0714  0.8051 -0.1834
12938TIP3   OH260304   3.880   2.550   2.214 -0.4479 -0.2673  0.1379
12938TIP3    H160305   3.941   2.540   2.140  0.8759 -0.0729  1.1563
12938TIP3    H260306   3.869   2.462   2.249 -0.3609 -0.2397  0.2377
12939TIP3   OH260307   6.789   3.392   3.534 -0.3103 -0.1712  0.0974
12939TIP3    H160308   6.735   3.369   3.458  0.0898 -0.1771 -0.1863
12939TIP3    H260309   6.873   3.420   3.497 -0.2123  0.1112  0.5230
12940TIP3   OH260310   4.205   5.513   1.783  0.0081  0.4129  0.2440
12940TIP3    H160311   4.300   5.521   1.784  0.0122  0.3529  0.9248
12940TIP3    H260312   4.189   5.420   1.803 -0.2096  0.6560  1.2444
12941TIP3   OH260313   5.647   6.104  16.485  0.3137 -0.0747  0.2817
12941TIP3    H160314   5.596   6.063  16.415  3.5203 -1.1590 -1.6518
12941TIP3    H260315   5.708   6.036  16.514  0.9658  1.2139  2.1858
12942TIP3   OH260316   3.300   5.124   5.601  0.2799 -0.1364  0.7207
12942TIP3    H160317   3.225   5.144   5.658 -0.0789  0.1308  0.1641
12942TIP3    H260318   3.261   5.111   5.514  0.6862 -1.5754  0.7182
12943TIP3   OH260319   2.024   4.234  11.046  0.7179 -0.2765  0.0550
12943TIP3    H160320   2.040   4.159  11.103  0.9228 -1.4030 -1.4081
12943TIP3    H260321   2.096   4.231  10.983 -0.5348 -0.2595 -1.4281
12944TIP3   OH260322   1.642   5.753   6.530  0.1992 -0.1603 -0.0550
12944TIP3    H160323   1.697   5.682   6.497 -0.9397 -1.1122  0.0340
12944TIP3    H260324   1.687   5.783   6.609 -0.2164 -2.0469  0.9558
12945TIP3   OH260325   6.215   0.794   0.654 -0.1792  0.3774 -0.3198
12945TIP3    H160326   6.261   0.732   0.597 -1.5560 -1.0611  0.0825
12945TIP3    H260327   6.127   0.759   0.662 -0.7902  2.0107  0.5418
12946TIP3   OH260328   4.461   5.411   1.549  0.0376 -0.1618  0.6621
12946TIP3    H160329   4.449   5.472   1.622 -1.5824 -0.4779  0.6880
12946TIP3    H260330   4.485   5.328   1.591 -0.5984 -0.2683  0.8123
12947TIP3   OH260331   2.201   2.078  11.017  0.3982  0.1682  0.7726
12947TIP3    H160332   2.179   2.000  11.068  0.2011  0.1513  0.6599
12947TIP3    H260333   2.117   2.113  10.987  0.5898 -1.2534 -1.6690
12948TIP3   OH260334   2.332   1.910  14.591 -0.0247  0.4946 -0.7667
12948TIP3    H160335   2.384   1.973  14.540  0.6454  1.0795  0.6025
12948TIP3    H260336   2.391   1.836  14.603 -0.1458  0.3985 -0.7735
12949TIP3   OH260337   5.546   2.408  11.273 -0.0182 -0.0309  0.3347
12949TIP3    H160338   5.530   2.502  11.275 -0.0870 -0.0280 -0.1137
12949TIP3    H260339   5.467   2.368  11.310 -0.7414  0.0189 -1.0795
12950TIP3   OH260340   1.694   5.659   4.530  0.5826 -0.1760  0.0523
12950TIP3    H160341   1.626   5.639   4.466  1.4981  0.7162 -1.2437
12950TIP3    H260342   1.706   5.754   4.525  1.9852 -0.3167  0.1619
12951TIP3   OH260343   2.397   6.490   3.762  0.4346  0.2504  0.1985
12951TIP3    H160344   2.379   6.582   3.783 -0.5822  0.2294 -0.5357
12951TIP3    H260345   2.330   6.441   3.809  0.4071 -0.0521 -0.1542
12952TIP3   OH260346   5.362   3.468   4.949 -0.2626 -0.0587  0.0279
12952TIP3    H160347   5.426   3.529   4.986 -0.4152 -0.3257  0.7561
12952TIP3    H260348   5.367   3.482   4.854  2.0518 -1.2000 -0.1204
12953TIP3   OH260349   0.339   3.992   4.976 -0.7865  0.3162 -0.0691
12953TIP3    H160350   0.389   3.987   4.894 -1.9586  3.3640 -1.1042
12953TIP3    H260351   0.264   3.934   4.961  0.8150 -2.0224  0.3872
12954TIP3   OH260352   4.341   5.575  12.291 -0.0729 -0.2574  0.1644
12954TIP3    H160353   4.303   5.650  12.244 -0.4940 -0.5465  0.0318
12954TIP3    H260354   4.435   5.588  12.285 -0.1458  0.6717  0.8067
12955TIP3   OH260355   5.367   1.933   4.460 -0.2104  0.0589 -0.3962
12955TIP3    H160356   5.388   2.017   4.419  1.5001 -0.4487 -0.6345
12955TIP3    H260357   5.442   1.877   4.441 -0.2534 -0.8232  1.7213
12956TIP3   OH260358   5.313   2.327  16.067  0.1037  0.2528 -0.2629
12956TIP3    H160359   5.402   2.358  16.083  0.0578  2.3824 -3.2346
12956TIP3    H260360   5.324   2.259  16.000 -0.4993  2.3109 -2.6298
12957TIP3   OH260361   3.622   6.781   0.524 -0.4531  0.3477  0.0963
12957TIP3    H160362   3.557   6.838   0.483 -0.7685 -0.9317 -1.2629
12957TIP3    H260363   3.705   6.806   0.483 -0.1570  1.4759  1.3007
12958TIP3   OH260364   5.915   6.542   4.810 -0.5401 -0.3266 -0.2540
12958TIP3    H160365   5.954   6.621   4.771  0.2374 -1.3378 -1.6095
12958TIP3    H260366   5.899   6.566   4.901  0.4587  1.1291 -0.4253
12959TIP3   OH260367   3.301   6.080  12.890  0.1115 -0.1300 -0.3914
12959TIP3    H160368   3.362   6.107  12.820  0.6593 -0.7351 -0.1570
12959TIP3    H260369   3.270   5.994  12.863  0.2474 -0.3215  0.0639
12960TIP3   OH260370   0.739   4.090  13.462  0.5151  0.8770 -0.1328
12960TIP3    H160371   0.748   4.057  13.373  1.5709 -0.3887  0.4059
12960TIP3    H260372   0.676   4.162  13.455 -1.9386 -1.2120 -1.4042
12961TIP3   OH260373   1.122   6.434   3.004 -0.1288 -0.1545 -0.3775
12961TIP3    H160374   1.067   6.411   3.079  0.0453 -2.5113 -0.8999
12961TIP3    H260375   1.173   6.509   3.034 -0.3330 -0.7874  1.7234
12962TIP3   OH260376   1.995   2.942   3.043 -0.5062 -0.3513 -0.1977
12962TIP3    H160377   2.066   2.910   3.098 -1.1958 -0.3740  0.7052
12962TIP3    H260378   2.027   2.931   2.953  1.7439  2.2166  0.1748
12963TIP3   OH260379   0.230   1.434  12.978  0.3502  0.0183 -0.3128
12963TIP3    H160380   0.178   1.363  13.016  1.0708  0.0084  0.6667
12963TIP3    H260381   0.311   1.392  12.950  0.8714  0.4919  0.4678
12964TIP3   OH260382   2.311   1.515   5.889 -0.4128  0.5851 -0.1194
12964TIP3    H160383   2.343   1.604   5.878 -1.1724  0.7612 -1.0205
12964TIP3    H260384   2.225   1.515   5.846 -1.4806  0.0408  1.8617
12965TIP3   OH260385   0.326   6.136   1.662  0.3489 -0.3270 -0.0789
12965TIP3    H160386   0.302   6.227   1.674 -0.0612 -0.5049  0.5217
12965TIP3    H260387   0.246   6.092   1.635  0.5869 -0.4809 -0.5556
12966TIP3   OH260388   6.073   1.851  13.006 -0.3327  0.3267 -0.0248
12966TIP3    H160389   6.140   1.910  12.970 -0.8276  0.6832 -0.3843
12966TIP3    H260390   6.104   1.763  12.985 -0.5688  0.5255 -1.2782
12967TIP3   OH260391   4.706   5.043   3.256  0.4529 -0.0745 -0.2110
12967TIP3    H160392   4.622   5.090   3.249  1.0078  1.1113  0.7687
12967TIP3    H260393   4.768   5.099   3.209  0.8087 -0.7115 -0.5164
12968TIP3   OH260394   0.837   1.194  10.709 -0.6210  0.3541  0.0311
12968TIP3    H160395   0.807   1.230  10.793  1.2040  1.0078  0.4499
12968TIP3    H260396   0.871   1.269  10.661 -0.5338 -0.2042 -0.7937
12969TIP3   OH260397   2.081   6.262  12.725 -0.1754  0.2294 -0.4731
12969TIP3    H160398   2.014   6.196  12.706 -0.2419  0.4810 -1.1452
12969TIP3    H260399   2.040   6.319  12.790 -0.6879  0.4731 -0.9960
12970TIP3   OH260400   2.712   3.829   0.697  0.1462 -0.2714  0.0308
12970TIP3    H160401   2.687   3.737   0.701 -2.8310  0.1765 -3.1972
12970TIP3    H260402   2.663   3.871   0.767  1.0036 -1.0151  1.0933
12971TIP3   OH260403   3.390   6.120   5.162 -0.8923  0.5917 -0.0997
12971TIP3    H160404   3.303   6.128   5.121 -0.3657  2.2550 -1.0135
12971TIP3    H260405   3.420   6.211   5.172  0.0780  0.1209  1.7188
12972TIP3   OH260406   5.948   2.734   5.216  0.0446 -0.5142  0.1944
12972TIP3    H160407   5.945   2.802   5.284  0.2571  1.4230 -1.6423
12972TIP3    H260408   5.907   2.774   5.140  1.1326 -2.0819 -1.2848
12973TIP3   OH260409   1.278   1.676   2.584 -0.1699  0.3630  0.6010
12973TIP3    H160410   1.294   1.732   2.659 -0.5118  0.4029  0.6429
12973TIP3    H260411   1.335   1.711   2.515  1.3248 -0.6130  1.2918
12974TIP3   OH260412   2.756   4.676   1.258 -0.4287 -0.1198 -0.2289
12974TIP3    H160413   2.828   4.672   1.321 -1.4318  1.6856  1.1031
12974TIP3    H260414   2.764   4.763   1.218 -1.0551 -0.4423 -1.0876
12975TIP3   OH260415   3.550   0.647   1.735  0.5588 -0.0331  0.6431
12975TIP3    H160416   3.529   0.728   1.782  0.2042 -0.5137  1.3373
12975TIP3    H260417   3.468   0.599   1.733  0.9208 -0.6725  0.8366
12976TIP3   OH260418   4.669   3.205   5.282  0.1287  0.1868  0.0666
12976TIP3    H160419   4.715   3.258   5.348 -0.2018 -0.1556  0.5847
12976TIP3    H260420   4.632   3.268   5.221 -1.9508  0.7277  1.7618
12977TIP3   OH260421   5.685   3.721  16.468  0.5517 -0.1954 -0.1753
12977TIP3    H160422   5.734   3.651  16.425  0.3861 -1.0753  1.0163
12977TIP3    H260423   5.643   3.769  16.397  1.0627 -1.0115 -1.0392
12978TIP3   OH260424   1.474   2.061  15.872  0.2104  0.7385 -0.7567
12978TIP3    H160425   1.425   2.028  15.948 -0.0943  1.8419 -0.4475
12978TIP3    H260426   1.408   2.106  15.819 -0.4017 -3.1389 -3.7112
12979TIP3   OH260427   1.924   4.627  12.381  0.2836  0.1747  0.3143
12979TIP3    H160428   2.001   4.683  12.393  0.5855  0.0878 -1.0828
12979TIP3    H260429   1.958   4.546  12.346 -0.2896 -0.4748  1.2130
12980TIP3   OH260430   2.968   0.281  12.004  0.4988 -0.0792  0.4187
12980TIP3    H160431   3.027   0.207  12.016  1.2610  0.1577 -1.4798
12980TIP3    H260432   3.011   0.354  12.048  1.4565 -0.0182 -0.5587
12981TIP3   OH260433   2.709   4.049  15.381 -0.2304  0.1404 -0.0336
12981TIP3    H160434   2.689   4.071  15.472  0.5404 -0.0173  0.1781
12981TIP3    H260435   2.799   4.079  15.369  0.1673 -1.1175 -0.3266
12982TIP3   OH260436   3.923   2.859  13.357  0.0047 -0.2862  0.2233
12982TIP3    H160437   3.940   2.891  13.446 -1.6084 -1.2471  0.9257
12982TIP3    H260438   3.909   2.765  13.368  0.8240 -0.6041 -1.2264
12983TIP3   OH260439   5.302   6.563  10.427  0.4933  0.0881  0.1621
12983TIP3    H160440   5.263   6.649  10.442 -0.2510 -0.4699  1.5692
12983TIP3    H260441   5.292   6.516  10.510  4.1876 -0.1167  0.6782
12984TIP3   OH260442   4.262   1.066   0.765  0.1718 -0.2661 -0.3097
12984TIP3    H160443   4.240   0.994   0.706 -0.4707  1.0425 -1.7441
12984TIP3    H260444   4.216   1.045   0.847 -0.4539 -1.2052 -0.8856
12985TIP3   OH260445   0.683   1.778  13.392  0.2639 -0.0023  0.0177
12985TIP3    H160446   0.675   1.715  13.320 -1.2637 -0.5055  0.6006
12985TIP3    H260447   0.767   1.821  13.376  1.2445 -2.0014 -0.5543
12986TIP3   OH260448   5.833   0.721   1.240  0.7301 -0.1040  0.3247
12986TIP3    H160449   5.809   0.636   1.203 -0.7784  0.5506 -0.2899
12986TIP3    H260450   5.757   0.777   1.224  0.7561  0.7552  2.7903
12987TIP3   OH260451   0.158   4.801   0.064  0.4202  0.8194 -0.7698
12987TIP3    H160452   0.193   4.845   0.141 -0.6358  1.6777 -0.7614
12987TIP3    H260453   0.121   4.872   0.010 -0.8028  0.0248 -1.0227
12988TIP3   OH260454   3.164   4.218  12.488 -0.0985 -0.0510  0.3390
12988TIP3    H160455   3.213   4.290  12.528  0.7814 -0.9621  0.9629
12988TIP3    H260456   3.231   4.158  12.457 -0.8104 -1.1147  0.7908
12989TIP3   OH260457   3.142   4.598  11.102  0.4706 -0.1696 -0.0519
12989TIP3    H160458   3.131   4.666  11.036 -0.0766 -0.3883 -0.1938
12989TIP3    H260459   3.145   4.516  11.053  1.3902 -0.2388  0.0969
12990TIP3   OH260460   0.946   3.996   0.817 -0.4489  0.5697  0.0636
12990TIP3    H160461   0.907   4.082   0.806  0.6461  1.5996  3.0486
12990TIP3    H260462   0.877   3.942   0.854 -0.2292  1.2465  1.5429
12991TIP3   OH260463   5.766   2.068  16.757  0.6217 -0.3989  0.5115
12991TIP3    H160464   5.747   2.022  16.675 -0.3548 -0.1644  0.5927
12991TIP3    H260465   5.744   2.159  16.739  1.7862 -0.0817  0.5997
12992TIP3   OH260466   0.968   0.477   0.299 -0.4834  0.4203 -0.9071
12992TIP3    H160467   0.944   0.392   0.263  2.0930  0.2994 -2.6988
12992TIP3    H260468   1.004   0.458   0.385 -2.3551  0.0874 -0.1574
12993TIP3   OH260469   1.928   1.163   2.486 -0.4235 -0.4220  0.2643
12993TIP3    H160470   1.987   1.120   2.548  1.8658  2.7061  0.4664
12993TIP3    H260471   1.944   1.118   2.403  1.3993 -0.4287  0.5821
12994TIP3   OH260472   1.034   6.283  11.314 -0.2323  0.1053 -0.4349
12994TIP3    H160473   0.940   6.292  11.302 -0.0647  1.6186 -0.9333
12994TIP3    H260474   1.054   6.194  11.286 -1.8768 -1.3084  2.4177
12995TIP3   OH260475   5.807   1.541  15.740  0.2239 -0.2011 -0.0668
12995TIP3    H160476   5.812   1.492  15.657 -0.1899  2.2603 -1.6485
12995TIP3    H260477   5.893   1.581  15.749  0.0297  0.1420  0.2831
12996TIP3   OH260478   0.814   2.928   6.006  0.6012 -0.3650  0.8816
12996TIP3    H160479   0.865   2.862   5.958  1.2093  2.2044 -2.4218
12996TIP3    H260480   0.727   2.924   5.967  0.2673 -0.1082  1.5912
12997TIP3   OH260481   0.934   4.051   4.858  0.1314  0.2090  0.2235
12997TIP3    H160482   0.869   4.089   4.916  1.6504  1.2729  1.2912
12997TIP3    H260483   0.974   3.981   4.909 -0.7678 -1.0977 -0.7701
12998TIP3   OH260484   2.775   3.908  11.755  0.0766  0.0241 -0.7732
12998TIP3    H160485   2.756   3.999  11.732 -2.5728 -0.7289 -1.9159
12998TIP3    H260486   2.720   3.856  11.697  1.1617 -2.3276  0.1621
12999TIP3   OH260487   3.422   3.861   5.137 -0.6029  0.3116  0.1633
12999TIP3    H160488   3.370   3.924   5.087  0.1636  0.0922 -0.9466
12999TIP3    H260489   3.411   3.887   5.229 -1.3621  1.2351 -0.1810
13000TIP3   OH260490   1.355   0.305  15.837  0.4330  0.4605  0.1916
13000TIP3    H160491   1.386   0.304  15.746 -0.2227 -0.7414 -0.0452
13000TIP3    H260492   1.285   0.371  15.837  1.3640  1.4807  0.1782
13001TIP3   OH260493   6.756   5.695  13.446  0.6793 -0.3115  0.8783
13001TIP3    H160494   6.847   5.717  13.430  0.4902 -1.3643 -2.5661
13001TIP3    H260495   6.756   5.601  13.463  0.3056 -0.1253  1.9800
13002TIP3   OH260496   4.844   6.189  11.798 -0.4149 -0.0404  0.2292
13002TIP3    H160497   4.748   6.187  11.799 -0.4068 -0.4380  0.3397
13002TIP3    H260498   4.866   6.244  11.723 -0.7112 -1.2584 -0.7801
13003TIP3   OH260499   4.045   2.567   2.007  0.7159 -0.0024  0.0810
13003TIP3    H160500   4.087   2.621   1.940  3.4248  0.8822  2.2840
13003TIP3    H260501   4.084   2.480   1.995 -1.2148 -0.7349 -1.4071
13004TIP3   OH260502   5.345   5.563  11.473  0.4151  0.3168  0.4077
13004TIP3    H160503   5.320   5.646  11.434  0.8829  0.7211  0.9482
13004TIP3    H260504   5.265   5.530  11.514 -0.0417 -0.0338 -0.7158
13005TIP3   OH260505   6.621   0.739   2.214 -0.1015  0.0582  0.1280
13005TIP3    H160506   6.701   0.777   2.177 -0.9497  1.7804 -0.0471
13005TIP3    H260507   6.582   0.810   2.264 -1.5916 -0.7040  0.1060
13006TIP3   OH260508   2.639   0.834   1.582  0.0613  0.1261  0.2862
13006TIP3    H160509   2.715   0.786   1.549 -0.3428 -0.7532  0.5998
13006TIP3    H260510   2.660   0.926   1.567  0.3809 -0.1889 -1.3439
13007TIP3   OH260511   2.923   1.453  13.702 -0.4340 -0.4766  0.0813
13007TIP3    H160512   2.940   1.515  13.631  1.8031 -1.6747 -0.5067
13007TIP3    H260513   2.914   1.508  13.779 -0.9889  0.7261 -0.7992
13008TIP3   OH260514   6.130   5.668   5.453  0.4907 -0.5997 -0.0313
13008TIP3    H160515   6.222   5.662   5.426  0.1560 -3.4762 -0.8381
13008TIP3    H260516   6.107   5.760   5.439  3.7455  0.7099  2.1054
13009TIP3   OH260517   1.639   1.930  14.824 -0.4147 -0.2266 -0.2830
13009TIP3    H160518   1.558   1.960  14.865 -1.6254 -1.7894 -1.4220
13009TIP3    H260519   1.706   1.988  14.859 -1.9666  0.9270  0.9266
13010TIP3   OH260520   2.773   5.382   3.490  0.7473  0.5700  0.6391
13010TIP3    H160521   2.854   5.371   3.440 -0.7748  1.1479 -2.1983
13010TIP3    H260522   2.802   5.411   3.576  3.6178 -1.4183  0.4930
13011TIP3   OH260523   5.074   3.965  14.522  0.5035  0.4874 -0.2466
13011TIP3    H160524   5.116   3.933  14.602  1.0798 -1.6733 -1.3599
13011TIP3    H260525   5.036   3.888  14.482 -1.8083  1.8905 -0.9420
13012TIP3   OH260526   0.757   1.807   2.224 -0.7753 -0.5138  0.6980
13012TIP3    H160527   0.779   1.855   2.144 -1.6657 -0.4677  0.4668
13012TIP3    H260528   0.700   1.736   2.194  0.0023 -1.3310  1.1204
13013TIP3   OH260529   2.510   0.642  14.161 -0.5096  0.4227 -0.0462
13013TIP3    H160530   2.444   0.636  14.230 -0.0060  0.3365  0.4366
13013TIP3    H260531   2.486   0.719  14.111  0.0209  1.4342  1.2036
13014TIP3   OH260532   1.871   0.613  13.720 -0.5697 -0.0234  0.2222
13014TIP3    H160533   1.955   0.635  13.679 -0.5823  0.2933  0.3627
13014TIP3    H260534   1.816   0.583  13.648 -0.0672 -1.0405  0.2558
13015TIP3   OH260535   2.865   5.000   2.407  0.6826 -0.3363 -0.5202
13015TIP3    H160536   2.848   4.906   2.417  1.0295 -0.2983  0.6159
13015TIP3    H260537   2.915   5.023   2.486  0.3261  0.8685 -0.6339
13016TIP3   OH260538   0.302   2.765  16.528 -0.0155 -0.2592  0.4180
13016TIP3    H160539   0.279   2.822  16.601  0.0485 -0.7784  0.8508
13016TIP3    H260540   0.335   2.825  16.460  0.3821  0.1873  0.9889
13017TIP3   OH260541   5.083   2.897  11.904 -0.4293 -0.0750 -0.0593
13017TIP3    H160542   5.170   2.901  11.865  0.0926 -2.6384  0.6551
13017TIP3    H260543   5.043   2.981  11.882  1.1215  0.0376 -2.9468
13018TIP3   OH260544   4.720   1.167  12.144 -0.0108  0.1558  0.5269
13018TIP3    H160545   4.726   1.255  12.183 -0.8900  0.8583 -0.8187
13018TIP3    H260546   4.736   1.182  12.050 -1.8605 -0.8259  0.0074
13019TIP3   OH260547   6.629   1.788  15.824  0.0444  0.1179 -0.2756
13019TIP3    H160548   6.567   1.716  15.828 -0.5220  0.6247  0.5778
13019TIP3    H260549   6.715   1.746  15.817  0.0142 -0.8188  3.0691
13020TIP3   OH260550   1.581   1.482  15.517 -0.1289  0.5231  0.5420
13020TIP3    H160551   1.605   1.527  15.598 -1.5820  1.9683  0.2253
13020TIP3    H260552   1.511   1.423  15.543  1.3674 -1.2298  0.8377
13021TIP3   OH260553   5.399   0.767   4.306  0.1142  0.2964  0.3931
13021TIP3    H160554   5.481   0.750   4.260 -0.6809 -0.7486 -0.6960
13021TIP3    H260555   5.419   0.840   4.364  1.4054  1.0534 -0.9425
13022TIP3   OH260556   6.186   0.687   3.411  0.1590 -0.0055  0.1441
13022TIP3    H160557   6.161   0.686   3.504 -0.9298  0.1065 -0.1323
13022TIP3    H260558   6.187   0.780   3.388  0.3311 -0.0385  0.0209
13023TIP3   OH260559   5.780   3.115   0.753 -0.3432  0.5875 -0.2426
13023TIP3    H160560   5.702   3.129   0.698  0.5878  1.5194 -1.4023
13023TIP3    H260561   5.835   3.056   0.701 -0.1993  0.0711  0.4942
13024TIP3   OH260562   2.505   4.624   6.943 -0.6448 -0.6359 -0.3086
13024TIP3    H160563   2.469   4.614   7.031  0.8710  0.4908  0.4848
13024TIP3    H260564   2.596   4.593   6.950 -0.2356  0.2685 -1.2521
13025TIP3   OH260565   5.762   3.629  14.318 -0.3389 -0.4841  0.3712
13025TIP3    H160566   5.785   3.628  14.225 -1.1619  0.3558  0.1466
13025TIP3    H260567   5.846   3.635  14.364  0.0771 -1.0145 -0.3126
13026TIP3   OH260568   3.258   5.720   4.519  0.3029 -0.3182  0.4861
13026TIP3    H160569   3.242   5.805   4.478 -3.5071 -1.5418 -1.0981
13026TIP3    H260570   3.286   5.741   4.608 -0.2313  2.5910  0.0751
13027TIP3   OH260571   5.628   2.981  16.122  0.4173 -0.3582 -0.4428
13027TIP3    H160572   5.681   3.042  16.173 -1.7401  2.3741 -1.1813
13027TIP3    H260573   5.569   2.941  16.186  1.2706 -1.0302 -0.0704
13028TIP3   OH260574   3.838   5.009  11.407 -0.0891 -0.2703 -0.0164
13028TIP3    H160575   3.844   4.946  11.479 -0.0047  0.2235  0.4144
13028TIP3    H260576   3.867   4.960  11.330  0.4189 -0.6283  0.3905
13029TIP3   OH260577   2.563   1.845   3.801  0.3869  0.3700  0.5582
13029TIP3    H160578   2.649   1.803   3.804  0.2865 -0.0288 -1.3529
13029TIP3    H260579   2.504   1.776   3.771 -0.1777  1.2509 -0.4114
13030TIP3   OH260580   6.383   6.005   2.507 -0.1643  0.2766  0.0495
13030TIP3    H160581   6.409   6.075   2.447 -0.8937  1.1255  0.6984
13030TIP3    H260582   6.309   5.963   2.464 -0.6288  0.8261  0.3084
13031TIP3   OH260583   4.091   3.656  15.674  0.0258 -0.0661  0.2509
13031TIP3    H160584   4.024   3.644  15.607  0.1218 -1.8237  0.4183
13031TIP3    H260585   4.055   3.723  15.732 -1.3947 -0.6583  0.0928
13032TIP3   OH260586   0.881   4.379   1.968  0.6720 -0.0625 -0.1101
13032TIP3    H160587   0.902   4.293   1.932  0.3590 -1.0445  1.9172
13032TIP3    H260588   0.859   4.362   2.059 -1.5655  1.8703 -0.1880
13033TIP3   OH260589   0.609   3.953  11.807 -0.7484 -0.2748 -0.0083
13033TIP3    H160590   0.610   4.025  11.743 -0.8825 -0.3270 -0.0704
13033TIP3    H260591   0.646   3.879  11.760 -1.2138 -0.4174 -0.1505
13034TIP3   OH260592   4.674   4.286   4.686 -0.0274  0.2050  0.1291
13034TIP3    H160593   4.598   4.320   4.640 -0.1518  0.6117  0.6226
13034TIP3    H260594   4.653   4.299   4.779  1.2127  1.5929  0.2490
13035TIP3   OH260595   1.327   1.057  15.210 -0.0876  0.4961  0.0563
13035TIP3    H160596   1.360   1.039  15.122 -1.4359 -0.3894 -0.2921
13035TIP3    H260597   1.404   1.087  15.258  0.9734 -0.3423 -1.0471
13036TIP3   OH260598   1.164   5.318  16.807 -0.6808  0.2336 -0.1095
13036TIP3    H160599   1.194   5.229  16.789 -1.2066  0.1851 -0.7982
13036TIP3    H260600   1.187   5.368  16.729 -0.0047  0.8101  0.4463
13037TIP3   OH260601   3.903   5.506  13.848  0.2190 -0.1501 -0.1150
13037TIP3    H160602   3.938   5.578  13.900  1.1785 -0.8775  0.2907
13037TIP3    H260603   3.943   5.428  13.887 -0.8641 -0.9042 -0.4843
13038TIP3   OH260604   5.661   5.602  12.921 -0.5942  0.6575 -0.4600
13038TIP3    H160605   5.652   5.674  12.859  0.6778 -0.5772 -2.1757
13038TIP3    H260606   5.697   5.530  12.870  0.2850 -0.5256  1.6734
13039TIP3   OH260607   3.032   0.573  14.219  0.0285  0.6681  0.0016
13039TIP3    H160608   3.086   0.651  14.231  0.0977  0.9945 -2.0769
13039TIP3    H260609   2.942   0.608  14.215 -0.0328  0.5188  0.0866
13040TIP3   OH260610   2.694   1.092  12.205 -0.0752 -0.4213  0.1992
13040TIP3    H160611   2.729   1.137  12.282  0.8183  1.4080 -1.1939
13040TIP3    H260612   2.611   1.136  12.187  0.4692  0.2316 -0.7741
13041TIP3   OH260613   5.824   2.495  13.200 -0.4881  0.6391 -0.1693
13041TIP3    H160614   5.739   2.515  13.239 -0.9688 -2.0487  0.3586
13041TIP3    H260615   5.859   2.580  13.173 -4.5664  1.7082 -3.0595
13042TIP3   OH260616   6.347   4.890  13.426  0.0481 -0.3011  0.1394
13042TIP3    H160617   6.402   4.887  13.504  0.2825 -3.2655 -0.0184
13042TIP3    H260618   6.261   4.917  13.459  1.1484  3.0672  0.5840
13043TIP3   OH260619   0.241   0.430  10.943 -0.3290  0.3738 -0.3118
13043TIP3    H160620   0.191   0.400  11.019 -1.5053 -1.0399 -1.5869
13043TIP3    H260621   0.177   0.436  10.872  0.4213  3.1205 -0.9120
13044TIP3   OH260622   5.653   3.628   1.912 -0.5524 -0.0684  0.1160
13044TIP3    H160623   5.746   3.654   1.910 -0.1084 -1.4758  1.0029
13044TIP3    H260624   5.617   3.665   1.831  0.4518  1.6190  0.3668
13045TIP3   OH260625   5.485   1.282   5.465  0.6042  0.6093  0.7198
13045TIP3    H160626   5.491   1.281   5.560  0.8922 -0.1006  0.7006
13045TIP3    H260627   5.417   1.218   5.444  0.3569  0.9555  0.4622
13046TIP3   OH260628   0.781   1.102  14.776  0.0269 -0.0120  0.2075
13046TIP3    H160629   0.759   1.154  14.699  2.3462 -0.0325 -0.5415
13046TIP3    H260630   0.742   1.016  14.759 -2.2824  0.8883  0.6322
13047TIP3   OH260631   5.640   5.588   4.390  0.3583  0.2511  0.7102
13047TIP3    H160632   5.705   5.649   4.424 -0.8413  1.9744  0.0603
13047TIP3    H260633   5.632   5.611   4.298 -1.2074  0.1253  0.7922
13048TIP3   OH260634   4.832   6.299   3.861  0.2787  0.0750  0.3525
13048TIP3    H160635   4.831   6.391   3.887 -0.8259  0.1550  0.0799
13048TIP3    H260636   4.888   6.256   3.926  0.9708  0.9654  0.3592
13049TIP3   OH260637   6.140   3.896  16.991  0.2944 -0.2560  0.4220
13049TIP3    H160638   6.180   3.980  17.014  2.1509  0.3191 -3.7768
13049TIP3    H260639   6.057   3.919  16.950 -0.7941 -0.8273  2.2234
13050TIP3   OH260640   5.348   3.893   2.179  0.3951  0.5867  0.0931
13050TIP3    H160641   5.368   3.812   2.132  2.7744 -0.3497  2.4397
13050TIP3    H260642   5.337   3.959   2.111 -0.3176 -1.4306 -1.8501
13051TIP3   OH260643   0.833   3.344   1.478 -0.2474  0.3302 -0.1123
13051TIP3    H160644   0.866   3.264   1.519  0.3564  1.1603  1.0998
13051TIP3    H260645   0.760   3.315   1.424  0.1977 -1.0846  0.0063
13052TIP3   OH260646   3.248   4.879  16.121  0.6808  0.2674 -0.0556
13052TIP3    H160647   3.162   4.920  16.105  0.7281  0.3936  0.0088
13052TIP3    H260648   3.292   4.884  16.036  0.7853  0.5896  0.0149
13053TIP3   OH260649   3.581   6.574  16.764 -0.3445  0.1547  0.3911
13053TIP3    H160650   3.541   6.600  16.681 -1.6497  2.2690  1.5956
13053TIP3    H260651   3.673   6.560  16.742 -0.2546  2.4773 -1.1219
13054TIP3   OH260652   5.630   5.858   2.278  0.2328 -0.5254 -0.2968
13054TIP3    H160653   5.689   5.895   2.344 -0.9402 -1.6138  1.4687
13054TIP3    H260654   5.668   5.884   2.194  1.2939  1.7501  0.7851
13055TIP3   OH260655   0.558   6.780  16.083  0.3137 -0.4288 -0.4013
13055TIP3    H160656   0.524   6.691  16.095 -0.4218 -0.0491  0.5202
13055TIP3    H260657   0.481   6.836  16.092  0.4485  0.2274 -2.7953
13056TIP3   OH260658   4.785   5.853  13.858 -0.1361  0.0498 -0.2981
13056TIP3    H160659   4.811   5.942  13.879 -0.8992  0.0014  0.9082
13056TIP3    H260660   4.840   5.798  13.915 -1.1274 -0.1491  0.4870
13057TIP3   OH260661   2.379   0.665   5.716  0.4784  0.5639  0.0153
13057TIP3    H160662   2.440   0.702   5.652  1.3129  0.1312  0.5336
13057TIP3    H260663   2.398   0.572   5.716  0.2562  0.5135  0.6488
13058TIP3   OH260664   6.572   1.950   2.600  0.7124 -0.0632 -0.4858
13058TIP3    H160665   6.591   2.044   2.604  1.1962 -0.1445 -0.8528
13058TIP3    H260666   6.597   1.917   2.687 -0.5274  0.3289  0.0568
13059TIP3   OH260667   4.522   4.533  12.150  0.0775  0.2120 -0.3273
13059TIP3    H160668   4.617   4.541  12.138  0.3348 -1.9257 -0.1732
13059TIP3    H260669   4.512   4.505  12.241 -0.6300 -0.4484 -0.5973
13060TIP3   OH260670   2.293   6.801  16.283 -0.2748 -0.4747 -0.5642
13060TIP3    H160671   2.328   6.712  16.281 -0.7516 -0.6582 -0.9017
13060TIP3    H260672   2.314   6.833  16.371  0.2912 -0.7549 -0.5893
13061TIP3   OH260673   6.289   5.171   2.956 -0.1243 -0.5404  0.3640
13061TIP3    H160674   6.262   5.100   2.897 -0.5552  0.5484 -0.7887
13061TIP3    H260675   6.235   5.158   3.034 -1.0897 -0.7703 -0.3226
13062TIP3   OH260676   0.069   0.888  15.967 -0.7512 -0.2187  0.1526
13062TIP3    H160677  -0.013   0.841  15.952 -0.1691 -1.2807  0.2222
13062TIP3    H260678   0.134   0.819  15.977  0.3978  0.6064 -1.2639
13063TIP3   OH260679   0.808   5.412  16.569 -0.3973 -0.7085 -0.2433
13063TIP3    H160680   0.877   5.366  16.521 -1.1253 -1.2256 -0.8200
13063TIP3    H260681   0.749   5.342  16.597  0.0137 -0.4243  1.4391
13064TIP3   OH260682   5.010   3.674  14.911  0.4972  0.1565 -0.9379
13064TIP3    H160683   5.026   3.607  14.977  1.7983  0.9278 -0.4157
13064TIP3    H260684   4.962   3.629  14.841 -0.4005 -0.8159  0.2598
13065TIP3   OH260685   0.897   0.216  13.217  0.7113  0.1695 -0.4812
13065TIP3    H160686   0.933   0.280  13.278  1.3964 -0.5858 -0.0718
13065TIP3    H260687   0.911   0.254  13.130  2.6259 -0.1387 -0.3418
13066TIP3   OH260688   2.953   0.708   6.317 -1.0806  0.4351 -0.4807
13066TIP3    H160689   2.936   0.668   6.402 -0.8191  1.7946  0.2219
13066TIP3    H260690   3.043   0.681   6.296  0.5087  3.5033  1.7006
13067TIP3   OH260691   1.998   3.510  15.797  0.1036  0.1940 -0.6638
13067TIP3    H160692   1.970   3.484  15.709  0.3619  0.6215 -0.8722
13067TIP3    H260693   2.076   3.456  15.814  0.3131  0.4298 -0.8742
13068TIP3   OH260694   0.241   3.401  14.933  0.4385 -0.3439 -0.9301
13068TIP3    H160695   0.301   3.338  14.973  1.6812  1.5369  0.3698
13068TIP3    H260696   0.185   3.430  15.005  1.0631  1.2899 -1.0590
13069TIP3   OH260697   2.309   4.548  13.653  0.7975  0.2811  0.0674
13069TIP3    H160698   2.370   4.584  13.589  1.5287 -0.3087  0.4088
13069TIP3    H260699   2.310   4.454  13.636  0.3738  0.2142  0.4084
13070TIP3   OH260700   0.966   0.642   0.794 -0.3614  0.4603  0.2051
13070TIP3    H160701   0.874   0.664   0.811  0.2893  3.5360  0.3281
13070TIP3    H260702   1.014   0.680   0.868  1.3581  2.9346 -2.0111
13071TIP3   OH260703   2.324   6.557  13.173  0.3667  0.4051 -0.2901
13071TIP3    H160704   2.311   6.620  13.102 -0.1562  0.9321  0.2684
13071TIP3    H260705   2.280   6.596  13.249 -0.5565 -0.9302 -0.1063
13072TIP3   OH260706   5.780   4.232   3.118 -0.1668  0.9211  0.1402
13072TIP3    H160707   5.842   4.300   3.093  0.9103 -0.1766 -0.2858
13072TIP3    H260708   5.758   4.253   3.209  0.7005  1.4462  0.2499
13073TIP3   OH260709   2.343   5.976   6.654 -0.6033  0.4184 -0.3389
13073TIP3    H160710   2.326   6.061   6.613 -2.3960 -0.3024 -1.2178
13073TIP3    H260711   2.392   5.927   6.588 -2.4341 -0.3169 -1.2416
13074TIP3   OH260712   1.595   1.956   4.297 -0.1485  0.2779  0.1618
13074TIP3    H160713   1.502   1.935   4.289  0.3071 -1.6996 -0.3551
13074TIP3    H260714   1.601   2.006   4.379 -1.5907  0.0507  0.4356
13075TIP3   OH260715   4.221   3.256   3.755 -0.1132 -0.7020  0.1177
13075TIP3    H160716   4.210   3.286   3.665  3.7289  0.7729 -0.0511
13075TIP3    H260717   4.233   3.161   3.749  0.6001 -0.5484 -1.0048
13076TIP3   OH260718   1.983   0.053  13.773  0.3405 -0.4728  0.3091
13076TIP3    H160719   1.954  -0.018  13.831  0.6831  0.5965  1.8516
13076TIP3    H260720   2.076   0.064  13.794  0.3791  0.1913 -0.1824
13077TIP3   OH260721   0.451   3.272  14.045 -0.0650  0.2091  0.3869
13077TIP3    H160722   0.400   3.193  14.063 -2.1156  1.4647  0.4760
13077TIP3    H260723   0.506   3.283  14.122 -0.0611 -0.8817  0.5601
13078TIP3   OH260724   3.282   2.342   0.370  0.1382  0.0230 -0.1239
13078TIP3    H160725   3.331   2.264   0.344 -0.0536  0.1134 -0.7694
13078TIP3    H260726   3.280   2.338   0.466  0.9924 -0.2318 -0.1101
13079TIP3   OH260727   3.691   4.066  13.336 -0.5803 -0.0293  0.2656
13079TIP3    H160728   3.776   4.074  13.378 -1.4952  2.1852  1.8825
13079TIP3    H260729   3.699   4.114  13.253  0.1708 -1.2437 -0.3890
13080TIP3   OH260730   2.907   2.351  13.001 -0.1926  0.1329 -0.4095
13080TIP3    H160731   2.814   2.375  12.993 -0.8180 -2.1928 -1.0106
13080TIP3    H260732   2.907   2.274  13.058  1.3447 -0.1727 -0.7778
13081TIP3   OH260733   4.732   6.137   3.053  0.3023  0.1584 -0.1892
13081TIP3    H160734   4.807   6.079   3.046 -0.6882 -1.4934  1.8848
13081TIP3    H260735   4.751   6.191   3.130 -0.5328 -0.1583  0.2491
13082TIP3   OH260736   2.341   5.432  13.003 -0.0208  0.4872 -0.1047
13082TIP3    H160737   2.384   5.378  13.068  0.4430  1.3882  0.3601
13082TIP3    H260738   2.412   5.471  12.953 -0.3277  0.9739 -0.1717
13083TIP3   OH260739   4.299   6.274  11.981  0.2351  0.2516  0.0295
13083TIP3    H160740   4.273   6.251  11.892  1.3812  0.9676 -0.5109
13083TIP3    H260741   4.352   6.200  12.010 -2.6200 -1.4523  1.3229
13084TIP3   OH260742   4.549   2.601  17.089 -0.7044 -0.1039  0.2832
13084TIP3    H160743   4.562   2.609  16.995 -1.4918 -1.2778  0.0491
13084TIP3    H260744   4.455   2.613  17.102 -0.6592 -0.3360  0.8729
13085TIP3   OH260745   2.658   3.536   0.771 -0.1762 -0.5645 -0.3024
13085TIP3    H160746   2.676   3.484   0.694  0.2359 -2.0928  0.7837
13085TIP3    H260747   2.563   3.548   0.771 -0.0106  1.1869 -2.0826
13086TIP3   OH260748   3.153   4.330   1.562  0.5339  0.0660  0.1220
13086TIP3    H160749   3.246   4.352   1.559  0.7515 -0.7440  0.7271
13086TIP3    H260750   3.127   4.350   1.652  0.0100  0.7100 -0.1669
13087TIP3   OH260751   4.092   0.762   6.279 -0.0072 -0.1949 -0.8101
13087TIP3    H160752   4.002   0.732   6.290 -0.3137  1.2199  0.9945
13087TIP3    H260753   4.140   0.721   6.350  0.5206  0.0525 -1.0180
13088TIP3   OH260754   3.887   6.765  14.554  0.0720 -0.6372 -0.2601
13088TIP3    H160755   3.814   6.760  14.493  1.3123 -0.8187 -1.8043
13088TIP3    H260756   3.885   6.683  14.602 -0.1014 -1.1061 -1.0643
13089TIP3   OH260757   5.972   0.308   1.394  0.1764  0.3569 -0.2321
13089TIP3    H160758   5.934   0.221   1.400 -1.1506  0.7742 -1.8849
13089TIP3    H260759   5.955   0.347   1.479 -0.7686 -0.4019 -0.0575
13090TIP3   OH260760   3.661   3.077   1.642  0.2850 -0.5130 -0.1638
13090TIP3    H160761   3.613   3.060   1.723  0.0392 -1.8665 -0.5816
13090TIP3    H260762   3.600   3.129   1.589  1.1824  2.1880  1.2564
13091TIP3   OH260763   4.432   5.517  16.747  0.2379 -0.0252  0.4399
13091TIP3    H160764   4.438   5.549  16.657 -1.1181 -0.1654  0.2895
13091TIP3    H260765   4.353   5.463  16.748  1.5056 -1.9596  1.1322
13092TIP3   OH260766   3.849   5.356   2.074  0.9714  0.3341  0.1602
13092TIP3    H160767   3.800   5.379   2.153 -0.3355 -2.5845  0.3359
13092TIP3    H260768   3.839   5.431   2.016  2.3074  2.7703  2.8217
13093TIP3   OH260769   0.019   5.717  14.373 -0.0691 -0.6607 -0.0428
13093TIP3    H160770   0.044   5.715  14.465 -0.2958 -0.4376  0.0252
13093TIP3    H260771  -0.053   5.654  14.366 -1.9074  1.2417  0.5059
13094TIP3   OH260772   6.678   1.701  12.398 -0.0563  0.8180  0.0892
13094TIP3    H160773   6.619   1.687  12.472 -0.0458  1.3249  0.2028
13094TIP3    H260774   6.754   1.745  12.437 -0.2749  1.5602 -0.2931
13095TIP3   OH260775   4.843   5.804  16.043  0.2204  0.2861  0.2980
13095TIP3    H160776   4.830   5.872  16.110 -0.5061  1.0552 -0.6001
13095TIP3    H260777   4.766   5.810  15.988  0.1471 -1.2935  0.1946
13096TIP3   OH260778   1.729   0.299  11.480 -0.2651 -0.0349 -0.0527
13096TIP3    H160779   1.788   0.371  11.458  0.0059 -0.3138 -0.2526
13096TIP3    H260780   1.723   0.248  11.399 -1.4654  0.4582 -0.3035
13097TIP3   OH260781   4.417   0.844  12.809 -0.3666 -0.3481  0.2285
13097TIP3    H160782   4.420   0.830  12.714  1.5922 -1.4587  0.4018
13097TIP3    H260783   4.473   0.919  12.824 -1.3186  0.3310  0.4539
13098TIP3   OH260784   6.830   1.578  15.810  0.0081  0.1405 -0.0431
13098TIP3    H160785   6.867   1.612  15.892 -0.4437  0.6486 -0.0496
13098TIP3    H260786   6.806   1.488  15.831  0.0980  0.1989  0.3225
13099TIP3   OH260787   6.058   6.456   3.362  0.1758  0.1225  0.2619
13099TIP3    H160788   6.127   6.519   3.385  1.4443 -1.0401 -0.1973
13099TIP3    H260789   5.981   6.510   3.347  0.7295  1.4032  1.6841
13100TIP3   OH260790   2.496   4.858   6.211 -0.0851 -0.2083 -0.2578
13100TIP3    H160791   2.479   4.855   6.305  0.0331  0.6811 -0.2059
13100TIP3    H260792   2.452   4.780   6.177 -1.7342  0.4320  0.2889
13101TIP3   OH260793   5.600   4.848   2.014 -0.2582 -0.5085  0.2720
13101TIP3    H160794   5.506   4.842   2.000 -0.1961 -1.0926  0.0869
13101TIP3    H260795   5.622   4.770   2.064  0.0511 -0.1110  0.7757
13102TIP3   OH260796   3.216   1.638   1.178  0.2771 -0.0981  0.0739
13102TIP3    H160797   3.207   1.706   1.111 -0.0583 -1.8093 -1.7429
13102TIP3    H260798   3.236   1.685   1.259  1.5764  2.0303 -1.3902
13103TIP3   OH260799   6.284   4.358  14.009  0.0835  0.0547 -0.4113
13103TIP3    H160800   6.265   4.442  14.051 -0.0066  0.1506 -0.6377
13103TIP3    H260801   6.254   4.292  14.070  2.6338  0.1034  1.0342
13104TIP3   OH260802   1.255   6.795   0.783  0.3054 -0.1098  0.3730
13104TIP3    H160803   1.319   6.785   0.853  0.0201 -1.8593  0.4483
13104TIP3    H260804   1.298   6.758   0.706 -0.7696 -1.9115  0.5680
13105TIP3   OH260805   2.623   3.268  16.740  0.6441  0.0592 -0.1842
13105TIP3    H160806   2.617   3.199  16.806  0.5768  0.3727  0.1382
13105TIP3    H260807   2.659   3.224  16.663  0.6593 -0.3237  0.0375
13106TIP3   OH260808   4.676   0.213  12.985  0.0263 -0.1984  0.4498
13106TIP3    H160809   4.765   0.245  12.969  0.3541 -0.5444  1.4927
13106TIP3    H260810   4.626   0.242  12.909  0.5649  1.7668  0.7913
13107TIP3   OH260811   6.147   3.391  14.680 -0.5262 -0.4055 -0.0157
13107TIP3    H160812   6.070   3.442  14.658 -1.5991 -2.4939 -1.4325
13107TIP3    H260813   6.220   3.439  14.641 -1.0875  1.4569  1.1106
13108TIP3   OH260814   5.067   6.344   0.072 -0.0772 -0.0825 -0.3251
13108TIP3    H160815   5.009   6.405   0.117  1.2766 -0.2636  1.8376
13108TIP3    H260816   5.122   6.399   0.017  0.1903  0.5021  0.5191
13109TIP3   OH260817   1.108   5.577   5.226 -0.2671  0.4286 -0.1746
13109TIP3    H160818   1.197   5.601   5.199  0.0665 -0.0495  0.4550
13109TIP3    H260819   1.059   5.570   5.144  0.3414  0.4528 -0.5498
13110TIP3   OH260820   0.936   5.810   4.514 -0.0313  0.4275  0.3766
13110TIP3    H160821   0.941   5.821   4.609 -0.1562 -0.8791  0.5471
13110TIP3    H260822   0.924   5.716   4.501  1.2543  0.4195 -0.9921
13111TIP3   OH260823   3.929   2.802   2.404 -0.5943  0.0338 -0.2810
13111TIP3    H160824   3.929   2.709   2.426 -1.2696  0.1451  0.2204
13111TIP3    H260825   3.871   2.842   2.469 -1.8601  0.5324 -1.6605
13112TIP3   OH260826   3.231   0.955  12.237  0.4536 -0.3190 -0.3357
13112TIP3    H160827   3.222   0.998  12.152 -1.6049  0.8456  0.4147
13112TIP3    H260828   3.315   0.910  12.232  0.7168  0.3108 -2.7160
13113TIP3   OH260829   4.610   5.868   2.985  0.0561 -0.0156  0.3379
13113TIP3    H160830   4.610   5.964   2.984  0.9538 -0.0102 -1.0037
13113TIP3    H260831   4.701   5.844   3.001  0.2910 -0.6210 -1.6790
13114TIP3   OH260832   1.417   3.323   5.441  0.3490  0.4806 -0.5081
13114TIP3    H160833   1.339   3.379   5.433  1.7647  2.6792  0.2135
13114TIP3    H260834   1.438   3.297   5.351 -0.9276  0.2205 -0.7492
13115TIP3   OH260835   6.178   6.474   5.919 -0.6301  0.2836  0.7921
13115TIP3    H160836   6.112   6.470   5.851  1.0335 -0.6534 -0.8643
13115TIP3    H260837   6.184   6.384   5.952  0.4356  0.1547  0.2817
13116TIP3   OH260838   0.791   3.186  15.939 -0.1638 -0.1467  0.6107
13116TIP3    H160839   0.720   3.174  16.003 -0.7070  1.0299  0.2582
13116TIP3    H260840   0.871   3.178  15.991 -0.5961  1.8920  1.7150
13117TIP3   OH260841   4.338   0.332   0.939  0.9129  0.3509  0.2510
13117TIP3    H160842   4.386   0.408   0.970 -0.1684  2.3411 -2.5489
13117TIP3    H260843   4.398   0.287   0.880  1.5471 -1.0573  1.8924
13118TIP3   OH260844   5.292   5.988   1.900  0.3107  0.3727 -0.5288
13118TIP3    H160845   5.198   5.988   1.916 -0.0993 -0.6605 -2.5679
13118TIP3    H260846   5.317   5.895   1.903  1.2155  0.6159 -0.2085
13119TIP3   OH260847   0.969   1.009  15.950 -0.1661  0.2406 -0.2189
13119TIP3    H160848   0.931   1.094  15.972 -0.5761 -0.0082  0.0687
13119TIP3    H260849   1.033   0.993  16.019 -1.1368 -0.3394  0.5708
13120TIP3   OH260850   0.581   3.611  13.234 -0.0995  0.6353  0.3217
13120TIP3    H160851   0.628   3.607  13.151  0.3417  1.2910  0.5301
13120TIP3    H260852   0.623   3.544  13.288 -0.6320 -0.0454 -0.1012
13121TIP3   OH260853   5.429   3.096  16.766  0.5088 -0.0302  0.2083
13121TIP3    H160854   5.506   3.149  16.745 -0.6726  1.2836 -1.1571
13121TIP3    H260855   5.380   3.150  16.829  0.4195 -0.5769  0.6082
13122TIP3   OH260856   2.900   4.546  12.434  0.2763 -0.2380 -0.3620
13122TIP3    H160857   2.966   4.614  12.419 -1.1708  1.1641 -0.8197
13122TIP3    H260858   2.905   4.527  12.527 -0.2877  1.7019  0.1243
13123TIP3   OH260859   1.754   1.085  14.145  0.5942  0.4878 -0.5453
13123TIP3    H160860   1.705   1.044  14.074  0.1840 -1.7942  0.9521
13123TIP3    H260861   1.690   1.141  14.189 -0.3500 -1.2669  0.4461
13124TIP3   OH260862   4.084   0.753   5.512 -0.0160 -0.1515 -0.1729
13124TIP3    H160863   4.082   0.811   5.436 -0.0660 -0.6323 -0.5423
13124TIP3    H260864   4.097   0.665   5.475 -0.0779 -0.3927  0.3687
13125TIP3   OH260865   3.620   5.412   3.554  0.7278  0.7668 -0.0253
13125TIP3    H160866   3.530   5.383   3.536  0.7162 -0.1522  1.3728
13125TIP3    H260867   3.675   5.353   3.503  0.6086 -0.3336  1.0656
13126TIP3   OH260868   3.032   3.220  13.757  0.0794 -0.3595  0.2143
13126TIP3    H160869   3.022   3.292  13.818  0.1203 -0.0350 -0.1545
13126TIP3    H260870   2.977   3.245  13.682 -0.0412 -0.7909  0.1554
13127TIP3   OH260871   6.260   3.477   6.577 -0.0130 -0.4128  0.2137
13127TIP3    H160872   6.227   3.415   6.641 -0.1873  0.5345  1.0665
13127TIP3    H260873   6.300   3.423   6.509 -0.9618 -1.4845  0.4767
13128TIP3   OH260874   5.386   2.937   1.603  0.2730 -0.2384  0.3703
13128TIP3    H160875   5.322   2.913   1.536 -0.8903 -0.6177  1.5725
13128TIP3    H260876   5.427   2.855   1.628 -0.0846 -0.2691  0.8838
13129TIP3   OH260877   4.413   4.033   3.119  0.0458 -0.4650  0.3414
13129TIP3    H160878   4.455   4.038   3.033  0.3326  1.2626  0.5493
13129TIP3    H260879   4.469   3.974   3.170  1.1207  0.2333 -0.0008
13130TIP3   OH260880   1.088   3.756  11.246  0.6366 -0.3987 -0.1073
13130TIP3    H160881   1.153   3.814  11.286 -0.9140  2.5492 -1.5743
13130TIP3    H260882   1.072   3.793  11.159 -2.7255 -1.1485  0.0505
13131TIP3   OH260883   1.760   4.303   2.260 -0.5124  0.3423  0.0896
13131TIP3    H160884   1.778   4.263   2.175  1.4275 -0.1111  0.6655
13131TIP3    H260885   1.778   4.397   2.246  2.1536 -0.0217  0.5083
13132TIP3   OH260886   3.911   0.427   5.167 -0.4353 -0.0635 -0.4711
13132TIP3    H160887   3.856   0.502   5.188 -1.4432 -1.0243  0.3838
13132TIP3    H260888   3.982   0.431   5.231 -0.0768  0.5578 -0.8906
13133TIP3   OH260889   5.266   1.342  14.328 -0.5391 -0.1855 -0.2779
13133TIP3    H160890   5.197   1.367  14.390 -0.4348  0.5513 -0.4394
13133TIP3    H260891   5.280   1.421  14.276  0.9516 -0.0773  0.2385
13134TIP3   OH260892   3.308   1.311   5.155  0.0889 -0.2938  0.5581
13134TIP3    H160893   3.294   1.229   5.106  0.1724  0.4226 -0.7037
13134TIP3    H260894   3.362   1.365   5.097  0.6665  0.3836  1.6901
13135TIP3   OH260895   3.070   2.065  12.969  0.8327  0.3737  0.0756
13135TIP3    H160896   2.986   2.046  12.927  0.2602  1.2039  0.8103
13135TIP3    H260897   3.077   1.998  13.038  1.2270 -0.2750 -0.5855
13136TIP3   OH260898   6.619   6.178   2.339  0.2173  0.2985  0.5242
13136TIP3    H160899   6.644   6.085   2.337  1.3135  0.5839 -0.7386
13136TIP3    H260900   6.697   6.224   2.309 -1.3810  1.3225 -2.5384
13137TIP3   OH260901   3.542   0.674  11.874  0.0636  0.0270  0.0502
13137TIP3    H160902   3.595   0.607  11.832  0.4589  0.3352  0.0587
13137TIP3    H260903   3.605   0.733  11.915 -0.2715  0.5196 -0.1282
13138TIP3   OH260904   1.012   0.635  12.852 -0.3562 -0.1664  0.0205
13138TIP3    H160905   1.000   0.730  12.850  1.7133  0.1207 -0.6907
13138TIP3    H260906   1.022   0.614  12.945 -0.1655  0.4062  0.1284
13139TIP3   OH260907   1.889   0.890   3.075 -0.1133 -0.4366  0.2873
13139TIP3    H160908   1.827   0.922   3.009 -0.8123 -3.1459 -0.4909
13139TIP3    H260909   1.866   0.798   3.087 -0.0074 -0.1158  4.3689
13140TIP3   OH260910   1.934   1.270   0.860 -0.2788  1.0783  0.1611
13140TIP3    H160911   1.915   1.229   0.776  0.8460 -0.8866  0.7989
13140TIP3    H260912   2.029   1.283   0.859 -0.4955  2.9029  0.3544
13141TIP3   OH260913   1.451   2.255   4.140  0.0859  0.6805 -0.1285
13141TIP3    H160914   1.487   2.218   4.059 -0.3650 -1.3834  0.5557
13141TIP3    H260915   1.377   2.308   4.111  0.3972  0.6017 -1.1254
13142TIP3   OH260916   3.896   2.964   6.357 -0.4566 -0.1205  0.3458
13142TIP3    H160917   3.928   3.044   6.399 -1.2865  0.2065  0.3867
13142TIP3    H260918   3.890   2.901   6.429 -1.4182  0.2972  0.6558
13143TIP3   OH260919   3.464   4.492   1.861 -0.2638 -0.7616  0.1029
13143TIP3    H160920   3.508   4.411   1.886  0.2949  0.2014  2.4890
13143TIP3    H260921   3.484   4.554   1.931 -3.4438  0.4489  0.1472
13144TIP3   OH260922   0.351   2.151  12.710  0.0407  0.0073 -0.2231
13144TIP3    H160923   0.390   2.233  12.682 -0.1479 -0.0391 -0.6371
13144TIP3    H260924   0.345   2.099  12.630 -0.4640 -0.1471 -0.0900
13145TIP3   OH260925   2.035   5.069  12.262  0.0494 -0.1519  0.1321
13145TIP3    H160926   2.019   5.091  12.170 -1.0640 -1.0610  0.0912
13145TIP3    H260927   1.949   5.073  12.303  0.5765  0.5154  1.2119
13146TIP3   OH260928   3.345   0.583   1.329 -0.1833 -0.4974 -0.3906
13146TIP3    H160929   3.255   0.590   1.299 -0.1896 -0.5874 -0.3938
13146TIP3    H260930   3.392   0.652   1.282 -0.1037 -0.9311 -0.9518
13147TIP3   OH260931   4.664   1.281   6.376 -0.3585 -0.0016  0.2473
13147TIP3    H160932   4.647   1.229   6.455 -0.4427  0.4211  0.5136
13147TIP3    H260933   4.578   1.289   6.334 -0.9369  2.2974  1.6941
13148TIP3   OH260934   0.941   4.901   4.489 -0.1509 -0.1501  0.0865
13148TIP3    H160935   0.913   4.885   4.580  0.4049 -0.5565  0.1906
13148TIP3    H260936   0.906   4.826   4.440 -1.1128  0.4565 -0.1856
13149TIP3   OH260937   3.446   3.091  15.406  0.2592  0.3567  0.2588
13149TIP3    H160938   3.409   3.122  15.488  0.0637 -1.1790  0.7853
13149TIP3    H260939   3.456   2.997  15.418 -0.7736 -0.0832 -1.8608
13150TIP3   OH260940   2.484   6.551  13.478 -0.5076 -0.5764 -0.2577
13150TIP3    H160941   2.575   6.541  13.447  0.0536 -0.1412  1.1887
13150TIP3    H260942   2.454   6.461  13.491 -0.6099 -0.7628 -1.5609
13151TIP3   OH260943   6.480   2.818   5.792 -0.0375 -0.1333 -0.5863
13151TIP3    H160944   6.524   2.867   5.723 -0.0006  0.1886 -0.3411
13151TIP3    H260945   6.387   2.831   5.775 -0.0326  0.8996  0.0727
13152TIP3   OH260946   0.819   1.762   1.344 -0.0191  0.7683  0.4154
13152TIP3    H160947   0.849   1.674   1.367  0.7330  0.7829 -0.4446
13152TIP3    H260948   0.847   1.817   1.417 -0.2693  0.3389  0.8412
13153TIP3   OH260949   4.186   0.130  15.243 -0.2544  0.0022 -0.1931
13153TIP3    H160950   4.277   0.143  15.215 -0.0948  0.3153  0.4466
13153TIP3    H260951   4.177   0.035  15.252 -0.5102 -0.1667 -1.9123
13154TIP3   OH260952   2.112   3.807  16.039 -0.3022 -0.4431 -0.2393
13154TIP3    H160953   2.165   3.872  16.084  0.1253 -1.7966  1.2867
13154TIP3    H260954   2.131   3.725  16.083 -1.2352 -1.5395 -1.7612
13155TIP3   OH260955   6.781   6.366  11.405  0.6899 -0.0800  0.1047
13155TIP3    H160956   6.817   6.424  11.472 -1.8688 -0.0568  1.5907
13155TIP3    H260957   6.791   6.414  11.323 -0.2732  1.9722  1.1380
13156TIP3   OH260958   1.329   4.101   1.246  0.3158 -0.1616 -0.3694
13156TIP3    H160959   1.363   4.123   1.333  0.4674 -3.7381  0.6198
13156TIP3    H260960   1.246   4.056   1.264 -0.3817  0.3070 -2.2042
13157TIP3   OH260961   5.458   2.040  11.836 -0.2809  0.0905 -0.0670
13157TIP3    H160962   5.452   1.945  11.825  0.1246  0.2513 -2.0622
13157TIP3    H260963   5.548   2.061  11.815 -1.1770  1.2497 -3.3293
13158TIP3   OH260964   6.582   2.696   3.381  0.4348  0.3479 -0.4410
13158TIP3    H160965   6.586   2.743   3.298  1.1266  1.3267  0.1245
13158TIP3    H260966   6.530   2.618   3.362 -1.3527  1.6625 -1.2597
13159TIP3   OH260967   4.275   2.616  15.664  0.1712  0.7608  0.4805
13159TIP3    H160968   4.184   2.638  15.682  0.1791  0.3797  1.0339
13159TIP3    H260969   4.273   2.570  15.581 -0.3837 -0.7664  1.2973
13160TIP3   OH260970   1.978   0.999  14.256  0.6423  0.3701 -1.0223
13160TIP3    H160971   1.915   1.055  14.212 -0.5751 -0.2014 -0.0554
13160TIP3    H260972   1.940   0.911  14.253  1.5984 -0.0732 -0.8150
13161TIP3   OH260973   6.593   4.194   1.618 -0.1224 -0.2726 -0.1725
13161TIP3    H160974   6.643   4.254   1.672  0.0143 -0.2532 -0.3210
13161TIP3    H260975   6.548   4.137   1.681 -1.7876  1.1974  0.0402
13162TIP3   OH260976   0.368   4.198   0.404 -0.1691 -0.2081 -0.3805
13162TIP3    H160977   0.385   4.268   0.341 -0.1651 -0.2101 -0.3815
13162TIP3    H260978   0.279   4.169   0.385  0.2330 -0.9858 -1.1324
13163TIP3   OH260979   0.514   2.184   4.354 -0.3945  0.0340 -0.1757
13163TIP3    H160980   0.557   2.237   4.287  0.9181 -1.6890 -0.7669
13163TIP3    H260981   0.569   2.196   4.432  1.9006 -2.8763 -1.1670
13164TIP3   OH260982   5.194   6.100   0.046  0.1656  0.4289  0.0548
13164TIP3    H160983   5.127   6.164   0.068 -1.0511 -0.3354 -1.2549
13164TIP3    H260984   5.258   6.148  -0.006  1.2113  1.3930  2.1044
13165TIP3   OH260985   5.479   5.794  14.659 -0.3337 -0.1192  0.2477
13165TIP3    H160986   5.463   5.871  14.606 -0.3604 -0.6418 -0.5236
13165TIP3    H260987   5.572   5.774  14.647 -0.6219 -0.9949 -0.6665
13166TIP3   OH260988   5.691   4.768  15.699 -0.3725  0.2557 -0.0222
13166TIP3    H160989   5.636   4.769  15.778 -1.4424  0.0072 -0.7340
13166TIP3    H260990   5.634   4.729  15.632  1.0136 -0.9343 -0.5583
13167TIP3   OH260991   2.134   1.444   2.286  0.0593  0.0938 -0.3921
13167TIP3    H160992   2.065   1.480   2.231 -0.1771 -0.7262 -0.6389
13167TIP3    H260993   2.096   1.444   2.374 -0.9831 -2.0790 -0.7881
13168TIP3   OH260994   6.098   5.683  11.482  0.0208 -0.6665  0.0298
13168TIP3    H160995   6.091   5.735  11.402  1.5716  0.0175  0.2987
13168TIP3    H260996   6.114   5.594  11.451 -1.8426 -0.8747 -0.4273
13169TIP3   OH260997   3.150   4.781  11.809  0.1765 -0.0197 -0.1395
13169TIP3    H160998   3.073   4.833  11.834 -0.4242 -0.0671 -1.8098
13169TIP3    H260999   3.130   4.748  11.722  0.6440 -2.8609  0.6997
13170TIP3   OH261000   5.589   0.541  16.639  0.0293  0.3011  0.0123
13170TIP3    H161001   5.617   0.489  16.715 -1.8500 -0.4615  0.2240
13170TIP3    H261002   5.630   0.498  16.564 -0.6032 -0.8408  0.3013
13171TIP3   OH261003   6.626   6.192   5.142  0.0846  0.1920  0.2565
13171TIP3    H161004   6.706   6.244   5.151 -0.9385  1.5487  2.1358
13171TIP3    H261005   6.618   6.146   5.225 -0.4738 -0.8688 -0.3754
13172TIP3   OH261006   2.081   4.016   3.991  0.0126  0.1077 -0.7351
13172TIP3    H161007   2.070   3.948   3.925 -1.8777  0.8454 -1.2706
13172TIP3    H261008   2.063   3.973   4.074 -0.6191 -0.1733 -1.0141
13173TIP3   OH261009   0.592   5.278  16.666 -0.2024  0.2297  0.0063
13173TIP3    H161010   0.524   5.330  16.710 -0.0165  0.7930 -0.3548
13173TIP3    H261011   0.637   5.233  16.737 -0.7836  0.0554  0.2747
13174TIP3   OH261012   4.749   5.194   4.080 -0.0398 -0.2963 -0.0666
13174TIP3    H161013   4.785   5.114   4.118 -2.4572 -0.5439  2.0105
13174TIP3    H261014   4.813   5.262   4.099  0.8789 -1.2744  0.4125
13175TIP3   OH261015   4.480   5.737   3.444 -0.2097 -0.2866 -0.0300
13175TIP3    H161016   4.457   5.793   3.370  0.2870  3.0450  2.1315
13175TIP3    H261017   4.400   5.730   3.495 -0.6462 -2.8592 -0.8831
13176TIP3   OH261018   4.015   6.482  15.218 -0.2034 -0.5646  0.1629
13176TIP3    H161019   3.959   6.417  15.260 -1.1202 -0.4726 -0.8550
13176TIP3    H261020   4.091   6.490  15.275 -1.4179 -0.3923  1.8319
13177TIP3   OH261021   4.248   4.642   3.347  0.3248 -0.4532 -0.3279
13177TIP3    H161022   4.254   4.623   3.253  1.3616  0.1073 -0.3885
13177TIP3    H261023   4.155   4.634   3.367  0.4097 -3.9359 -0.6617
13178TIP3   OH261024   1.069   1.747  17.082 -0.2051 -0.0772  0.7939
13178TIP3    H161025   1.131   1.756  17.155 -2.8496  0.6417  3.1358
13178TIP3    H261026   0.983   1.740  17.124 -1.9605  0.8797 -2.2983
13179TIP3   OH261027   4.008   4.947   3.892 -0.1577 -0.4623 -0.2336
13179TIP3    H161028   3.974   4.873   3.942  0.8778 -0.4889  0.4708
13179TIP3    H261029   4.083   4.977   3.943  1.0364 -0.5826 -1.8360
13180TIP3   OH261030   2.979   4.783   3.086  0.2472 -1.0562 -0.1341
13180TIP3    H161031   3.033   4.858   3.063 -2.7344  0.3805 -3.1929
13180TIP3    H261032   2.912   4.819   3.144 -1.4396 -1.1619 -1.9372
13181TIP3   OH261033   5.901   1.021  17.182  0.2024  0.6123 -0.2545
13181TIP3    H161034   5.941   1.108  17.171 -0.8336  1.1550  0.0901
13181TIP3    H261035   5.872   1.020  17.273 -0.8960  0.4051 -0.5851
13182TIP3   OH261036   6.428   0.649  12.339  0.2609  0.0689 -0.6224
13182TIP3    H161037   6.386   0.699  12.409  1.0151 -0.5358  0.2907
13182TIP3    H261038   6.364   0.649  12.267 -0.5342  0.6895  0.0653
13183TIP3   OH261039   4.783   2.580  12.818 -0.1660 -0.4107  0.1201
13183TIP3    H161040   4.709   2.542  12.867  0.2019  0.9763  1.8579
13183TIP3    H261041   4.861   2.544  12.861  0.2369  2.9326  2.6000
13184TIP3   OH261042   0.503   0.472   2.698 -0.0988 -0.6201 -0.3403
13184TIP3    H161043   0.598   0.457   2.702 -0.0983 -0.4657  0.4776
13184TIP3    H261044   0.487   0.498   2.608  0.7013 -0.2905 -0.3986
13185TIP3   OH261045   2.478   3.149   0.645  0.2593 -0.0013 -0.6025
13185TIP3    H161046   2.393   3.150   0.690  0.0785 -1.5523 -0.8697
13185TIP3    H261047   2.537   3.105   0.705  0.7722  0.6143 -0.6400
13186TIP3   OH261048   6.104   6.468  13.902 -0.4454 -0.2755 -0.3151
13186TIP3    H161049   6.090   6.417  13.981  1.5684 -0.6889 -0.1596
13186TIP3    H261050   6.170   6.419  13.853  0.3981  1.3630 -0.9118
13187TIP3   OH261051   6.179   4.585   2.859  0.1162  0.1353 -0.1854
13187TIP3    H161052   6.103   4.572   2.804  0.4271 -1.6785 -0.2471
13187TIP3    H261053   6.239   4.514   2.836 -0.3787 -1.7502  3.5441
13188TIP3   OH261054   6.063   3.276  13.922  0.1851 -0.1729 -0.6894
13188TIP3    H161055   5.977   3.234  13.922 -1.0844  2.1504  1.4928
13188TIP3    H261056   6.068   3.320  13.837 -0.3605 -0.9983 -1.1751
13189TIP3   OH261057   5.911   1.285  16.771 -0.2551  0.7186  0.1667
13189TIP3    H161058   5.900   1.297  16.677  0.9858 -0.0164 -0.0962
13189TIP3    H261059   6.004   1.266  16.782 -0.6567 -0.6850  1.3819
13190TIP3   OH261060   4.191   3.467   4.318 -0.6657  0.5547 -0.0835
13190TIP3    H161061   4.119   3.422   4.272 -2.0011  1.8770  0.6485
13190TIP3    H261062   4.148   3.537   4.367  0.7666 -0.4072  2.7258
13191TIP3   OH261063   6.202   6.812   0.398  0.5891  0.1290  0.0515
13191TIP3    H161064   6.297   6.810   0.408  0.5446  0.9138  0.7188
13191TIP3    H261065   6.168   6.823   0.487 -0.1329 -0.2325 -0.1673
13192TIP3   OH261066   5.202   5.340  14.708 -0.0109  0.3406 -0.1436
13192TIP3    H161067   5.127   5.294  14.670  0.0288  0.4499 -0.3502
13192TIP3    H261068   5.267   5.271  14.722  0.1678  0.3816 -0.7467
13193TIP3   OH261069   6.541   0.930  10.942 -0.1126 -0.0236  0.5879
13193TIP3    H161070   6.508   0.866  10.878 -0.7370  0.3214  0.5551
13193TIP3    H261071   6.527   1.015  10.900  0.8414  0.1357  0.5733
13194TIP3   OH261072   0.490   6.590   6.490  0.1887  0.2822 -0.6303
13194TIP3    H161073   0.450   6.564   6.407  0.7246 -0.4271 -0.6761
13194TIP3    H261074   0.446   6.672   6.513  1.1146  1.3382 -2.3934
13195TIP3   OH261075   2.157   6.747   2.242 -0.3005 -0.0258  0.4034
13195TIP3    H161076   2.173   6.754   2.147 -2.2991  2.7743  0.1625
13195TIP3    H261077   2.107   6.666   2.251 -0.8350  0.1002 -1.0756
13196TIP3   OH261078   3.008   2.341   3.738 -0.2301  0.3064 -0.0323
13196TIP3    H161079   2.956   2.272   3.780  0.7256  0.6767  1.8517
13196TIP3    H261080   3.083   2.296   3.700 -0.7251  0.0576 -0.7307
13197TIP3   OH261081   1.957   4.168  15.775  0.0038  0.1626  0.1171
13197TIP3    H161082   2.030   4.199  15.722 -1.3178  0.1693 -1.7923
13197TIP3    H261083   1.924   4.091  15.728 -2.4664  1.3298 -0.2546
13198TIP3   OH261084   0.218   4.256   4.552  0.4503 -0.4177 -0.1168
13198TIP3    H161085   0.226   4.299   4.638  2.0311  1.7601 -1.2634
13198TIP3    H261086   0.305   4.262   4.514 -0.6302  0.4122 -2.6486
13199TIP3   OH261087   1.812   4.714  11.689 -0.0545 -0.6980  0.0159
13199TIP3    H161088   1.779   4.690  11.776  0.4777  0.8026  0.6628
13199TIP3    H261089   1.850   4.633  11.655 -0.2472 -1.3073  1.1853
13200TIP3   OH261090   5.356   0.375  16.751  0.3741 -0.0087 -0.3383
13200TIP3    H161091   5.305   0.421  16.684 -0.8321 -0.7224  0.0651
13200TIP3    H261092   5.311   0.291  16.762  0.8777 -0.1325  0.9712
13201TIP3   OH261093   0.247   2.051  14.415 -0.2370 -0.2618 -0.5628
13201TIP3    H161094   0.296   1.985  14.465 -0.4714 -0.3482 -0.4487
13201TIP3    H261095   0.291   2.134  14.437 -0.1345 -0.3412 -0.4659
13202TIP3   OH261096   1.380   4.419  13.732 -0.0788  0.2062  0.3845
13202TIP3    H161097   1.453   4.383  13.681 -0.3654 -1.8245  1.3190
13202TIP3    H261098   1.386   4.376  13.817 -2.3164  0.0320  0.5215
13203TIP3   OH261099   3.021   6.610  13.476  0.0512 -1.1779 -0.0777
13203TIP3    H161100   2.985   6.570  13.555 -0.3780 -0.3705  0.1366
13203TIP3    H261101   3.028   6.703  13.496  1.6463 -1.1994 -0.3464
13204TIP3   OH261102   2.501   3.184   1.969 -0.2131 -0.7759  0.6346
13204TIP3    H161103   2.528   3.275   1.957  0.4715 -0.8846  1.3141
13204TIP3    H261104   2.580   3.139   1.998 -0.7507 -1.4265  1.1150
13205TIP3   OH261105   1.556   0.058   1.529 -0.3733  0.4515 -0.4658
13205TIP3    H161106   1.565   0.036   1.436  1.1796  0.4483 -0.3467
13205TIP3    H261107   1.646   0.057   1.562 -0.9297  0.1363  1.1149
13206TIP3   OH261108   4.327   3.269  13.488 -0.5484 -0.0699  0.1490
13206TIP3    H161109   4.350   3.225  13.569 -1.2807  0.9316  0.9164
13206TIP3    H261110   4.233   3.255  13.478 -0.2856 -1.1501 -1.1341
13207TIP3   OH261111   3.644   5.863  13.921  0.3688 -0.5509  0.0495
13207TIP3    H161112   3.550   5.852  13.906  0.4017 -0.4672 -0.2262
13207TIP3    H261113   3.654   5.862  14.016  0.2759 -2.0481  0.0647
13208TIP3   OH261114   2.623   4.836   2.114  0.2784 -0.2426  0.1732
13208TIP3    H161115   2.703   4.842   2.061  2.3474 -1.0118  3.0124
13208TIP3    H261116   2.614   4.923   2.154  1.1896 -0.8720  1.8112
13209TIP3   OH261117   0.672   0.887   1.632 -0.4081 -0.0639  0.0023
13209TIP3    H161118   0.726   0.859   1.558  1.0527 -1.7233  1.5996
13209TIP3    H261119   0.600   0.825   1.635 -1.5675  1.1712 -1.1415
13210TIP3   OH261120   1.975   6.711  11.856  0.1926 -0.0657 -0.2802
13210TIP3    H161121   1.899   6.769  11.857  0.5098  0.3610 -0.7820
13210TIP3    H261122   1.943   6.630  11.817 -0.0414  0.0590 -0.3464
13211TIP3   OH261123   2.810   3.593  15.289 -0.3867 -0.1251 -0.0403
13211TIP3    H161124   2.815   3.590  15.193 -0.1045 -0.0747 -0.0276
13211TIP3    H261125   2.895   3.559  15.318 -1.1766 -2.0148  0.2257
13212TIP3   OH261126   4.786   4.195   6.070  0.3910  0.3537 -0.1082
13212TIP3    H161127   4.767   4.126   6.133  2.2047 -1.3619 -1.3059
13212TIP3    H261128   4.731   4.173   5.994 -1.1161  1.8999  0.4632
13213TIP3   OH261129   2.887   1.225  16.147  0.5486  0.1214  0.1123
13213TIP3    H161130   2.952   1.182  16.202 -0.0774  1.6951  2.2173
13213TIP3    H261131   2.805   1.182  16.168  0.6680 -1.1783 -1.7902
13214TIP3   OH261132   5.105   0.348  15.419 -0.1884  0.0378  0.6034
13214TIP3    H161133   5.060   0.269  15.388  0.2145 -0.3482  0.9796
13214TIP3    H261134   5.060   0.372  15.499 -1.1140  0.9308 -0.1674
13215TIP3   OH261135   4.126   5.719  11.838  0.3369 -0.4962  0.3266
13215TIP3    H161136   4.146   5.626  11.834  0.8838 -0.3755  0.1038
13215TIP3    H261137   4.097   5.734  11.928  1.0747 -0.7248  0.6143
13216TIP3   OH261138   2.064   0.200  15.246  0.6127 -0.2656 -0.1980
13216TIP3    H161139   2.059   0.294  15.231  1.0541 -0.1098  0.5362
13216TIP3    H261140   2.013   0.186  15.326  0.7903 -0.6035 -0.1429
13217TIP3   OH261141   4.507   5.349  11.956  0.2341 -0.5918  0.2246
13217TIP3    H161142   4.450   5.355  12.033 -1.5855 -1.8075 -0.9366
13217TIP3    H261143   4.455   5.386  11.885  0.8903 -1.7333 -0.8872
13218TIP3   OH261144   0.071   5.432  14.335  0.2586 -0.4237  0.0493
13218TIP3    H161145   0.124   5.496  14.288  0.1486  0.3480  0.9482
13218TIP3    H261146   0.123   5.410  14.412  0.1681 -1.2116 -0.1106
13219TIP3   OH261147   0.575   1.601  16.749 -0.3623 -0.4676 -0.1031
13219TIP3    H161148   0.489   1.606  16.790 -0.0491  0.3108  0.4862
13219TIP3    H261149   0.557   1.571  16.660 -1.1961 -0.7200  0.1396
13220TIP3   OH261150   0.136   0.505   2.737  0.3678 -0.2012 -0.1039
13220TIP3    H161151   0.215   0.480   2.690  0.9143 -1.3860  1.3909
13220TIP3    H261152   0.093   0.422   2.758  1.4080  0.0272  3.5787
13221TIP3   OH261153   1.601   1.088  11.251  0.0123 -0.1723  0.0795
13221TIP3    H161154   1.517   1.117  11.287 -0.3992 -0.0820 -0.9236
13221TIP3    H261155   1.641   1.168  11.218  0.0041 -0.3689 -0.4137
13222TIP3   OH261156   6.678   4.376  15.441  0.8756  0.5115 -0.7184
13222TIP3    H161157   6.723   4.304  15.486  1.2843  0.7564 -0.7344
13222TIP3    H261158   6.585   4.356  15.452  0.9931 -0.2502 -1.0961
13223TIP3   OH261159   2.376   2.141  16.410 -0.1284  0.0725 -0.0941
13223TIP3    H161160   2.311   2.175  16.472  1.2207 -0.2716  1.5939
13223TIP3    H261161   2.385   2.210  16.344 -0.4992  1.1464  0.9474
13224TIP3   OH261162   4.950   1.880   4.823  0.3518 -0.3222  0.0112
13224TIP3    H161163   4.997   1.923   4.895 -1.3054  0.6819  0.5482
13224TIP3    H261164   4.979   1.926   4.744 -0.8871  1.4324  0.5098
13225TIP3   OH261165   3.224   1.385   6.046 -0.1931  0.1375 -0.1671
13225TIP3    H161166   3.262   1.421   6.126 -1.3863  0.4821  0.2708
13225TIP3    H261167   3.231   1.456   5.982 -0.3179  0.2858 -0.0172
13226TIP3   OH261168   2.104   0.247   1.073 -0.2142  0.3541 -0.1082
13226TIP3    H161169   2.157   0.167   1.077 -1.1407 -0.2716  0.1478
13226TIP3    H261170   2.110   0.275   0.982  0.4309  0.2083 -0.1140
13227TIP3   OH261171   0.531   5.188   1.708 -0.1237 -0.7284 -0.3221
13227TIP3    H161172   0.561   5.265   1.757 -1.5516 -0.6781  0.5470
13227TIP3    H261173   0.598   5.173   1.642 -0.3871  2.0234 -1.3277
13228TIP3   OH261174   2.744   4.816  11.007 -0.4227 -0.7327  0.3602
13228TIP3    H161175   2.717   4.727  10.984 -1.8529  0.2135 -1.9939
13228TIP3    H261176   2.668   4.855  11.049 -0.9922  0.2875 -1.4795
13229TIP3   OH261177   1.003   2.613   1.456  0.6041  0.7284 -0.2248
13229TIP3    H161178   0.939   2.550   1.423  2.8285 -1.3919 -0.7617
13229TIP3    H261179   1.017   2.588   1.547 -0.9180  2.6291  0.5956
13230TIP3   OH261180   5.396   5.126  13.070  0.5254 -0.3326  0.2694
13230TIP3    H161181   5.371   5.071  12.996  1.9059 -1.7822  0.8258
13230TIP3    H261182   5.410   5.213  13.032  0.0062 -0.7627 -0.9446
13231TIP3   OH261183   1.991   6.746  11.451  0.7937 -0.8578  0.0228
13231TIP3    H161184   2.011   6.696  11.372  1.6240 -0.8863  0.2464
13231TIP3    H261185   2.061   6.724  11.512  0.5679 -0.2571  0.5067
13232TIP3   OH261186   1.271   0.587   2.191  0.3064  0.3130 -0.0845
13232TIP3    H161187   1.197   0.583   2.130  0.1428 -0.6912  0.1528
13232TIP3    H261188   1.247   0.654   2.254  0.3680  1.1977 -0.9772
13233TIP3   OH261189   0.310   5.888  15.007  0.3264 -0.1862 -0.1077
13233TIP3    H161190   0.323   5.970  14.960  1.1110 -1.4261 -2.2014
13233TIP3    H261191   0.218   5.866  14.991  0.1810  0.1499  0.2491
13234TIP3   OH261192   4.418   3.009   6.115 -0.3981  0.3471 -0.0113
13234TIP3    H161193   4.475   2.945   6.158 -0.3243 -1.1401 -2.1914
13234TIP3    H261194   4.440   3.092   6.158  2.4157 -0.3836  0.1783
13235TIP3   OH261195   5.803   4.359  15.647  0.0878  0.3353 -0.3490
13235TIP3    H161196   5.777   4.356  15.555  0.5302  2.2015 -0.5699
13235TIP3    H261197   5.826   4.450  15.663 -1.5341  0.4264  2.0387
13236TIP3   OH261198   1.934   3.380   6.196  0.2509  0.0177  0.7247
13236TIP3    H161199   1.934   3.475   6.205  0.0359 -0.0404  1.4255
13236TIP3    H261200   1.879   3.362   6.120  1.9286  0.5447 -0.6703
13237TIP3   OH261201   5.728   1.113  14.715  0.0193 -0.5217  0.2532
13237TIP3    H161202   5.778   1.165  14.778 -0.4307  0.2573 -0.0200
13237TIP3    H261203   5.664   1.066  14.768  0.5559 -0.9679  0.5233
13238TIP3   OH261204   0.031   5.399   1.778 -0.1775 -0.6514  0.0042
13238TIP3    H161205  -0.053   5.434   1.749 -0.2548 -0.2205  0.7236
13238TIP3    H261206   0.095   5.465   1.751 -0.2457 -0.2659  0.7615
13239TIP3   OH261207   5.875   1.889  16.288  0.1566  0.0654 -0.0390
13239TIP3    H161208   5.888   1.947  16.213 -1.7689  0.9277  0.2194
13239TIP3    H261209   5.830   1.813  16.252 -2.0041  1.0783  0.3837
13240TIP3   OH261210   3.472   2.518  13.069  0.3568  0.4685 -0.0819
13240TIP3    H161211   3.507   2.603  13.096 -0.0003  0.4190  0.5586
13240TIP3    H261212   3.377   2.531  13.066  0.0682 -0.5397  2.4013
13241TIP3   OH261213   3.909   6.619   4.049  0.1710  0.3039 -0.3300
13241TIP3    H161214   3.951   6.544   4.090  2.8657  1.7608 -0.1484
13241TIP3    H261215   3.827   6.630   4.097  1.2487 -0.5838  1.8486
13242TIP3   OH261216   3.797   2.778  11.213  0.4894  0.6852 -0.2592
13242TIP3    H161217   3.830   2.710  11.154 -1.9061 -0.6325 -0.2070
13242TIP3    H261218   3.873   2.834  11.230  2.1538 -1.0217 -1.6263
13243TIP3   OH261219   2.636   4.515   5.987  0.3931  0.2253 -0.1275
13243TIP3    H161220   2.712   4.458   5.976  1.4119  1.6363 -0.7134
13243TIP3    H261221   2.568   4.475   5.934  1.3802  0.0657 -1.3155
13244TIP3   OH261222   0.858   5.902   1.005 -0.1209  0.4713  0.1119
13244TIP3    H161223   0.805   5.912   0.926  0.0383  1.9855  0.1661
13244TIP3    H261224   0.818   5.961   1.069 -0.1861 -0.6490  1.1455
13245TIP3   OH261225   4.452   3.267  17.001  0.0315  0.0625 -0.2113
13245TIP3    H161226   4.441   3.345  17.055 -0.4080  0.0947 -0.3456
13245TIP3    H261227   4.521   3.217  17.045  0.5727  0.6951 -0.3225
13246TIP3   OH261228   2.787   2.379   6.306 -0.3395  0.3652 -0.9201
13246TIP3    H161229   2.840   2.438   6.252 -0.2904  1.1477 -0.0324
13246TIP3    H261230   2.710   2.430   6.329 -1.4513 -0.7177 -2.0730
13247TIP3   OH261231   3.177   4.270   3.253  0.1227  0.3157  0.2317
13247TIP3    H161232   3.266   4.285   3.285  0.1232 -0.4989  0.6287
13247TIP3    H261233   3.130   4.236   3.329 -0.3621  0.1353 -0.1480
13248TIP3   OH261234   0.731   3.799   4.715 -0.2458  0.1386 -0.3992
13248TIP3    H161235   0.644   3.759   4.714  0.1490 -0.9814  1.8244
13248TIP3    H261236   0.772   3.770   4.634 -0.8570 -2.0335 -0.0051
13249TIP3   OH261237   2.700   3.557  11.506  0.0102  0.5309 -0.3799
13249TIP3    H161238   2.700   3.598  11.419 -0.9417 -0.5103 -0.8925
13249TIP3    H261239   2.716   3.465  11.489 -0.5605  0.2558  0.5081
13250TIP3   OH261240   2.046   2.707   3.286 -0.1892  0.2524 -0.0816
13250TIP3    H161241   2.125   2.740   3.241 -1.1266 -0.5579 -2.4961
13250TIP3    H261242   2.056   2.612   3.285 -0.4481  0.1998  1.1111
13251TIP3   OH261243   4.953   2.197  13.167 -0.0592  0.1354  0.3276
13251TIP3    H161244   5.020   2.168  13.229 -0.2825 -2.2082 -0.4202
13251TIP3    H261245   4.887   2.127  13.170 -2.5933  2.3809  1.1158
13252TIP3   OH261246   4.332   0.191   0.674  0.0616 -0.5075  0.6502
13252TIP3    H161247   4.374   0.114   0.636 -1.1966 -0.5466 -0.7829
13252TIP3    H261248   4.238   0.175   0.663 -0.2390  1.3634 -0.0185
13253TIP3   OH261249   6.326   0.558   4.396  0.5232 -0.0695  0.3812
13253TIP3    H161250   6.237   0.558   4.429 -0.5602  0.6534 -2.2620
13253TIP3    H261251   6.362   0.643   4.422  0.9397 -0.8634  2.5395
13254TIP3   OH261252   6.392   3.545  12.581  0.1196 -0.3526  0.4079
13254TIP3    H161253   6.300   3.554  12.605  0.5449  0.7146  1.7958
13254TIP3    H261254   6.395   3.567  12.488 -0.9362  0.2742  0.5125
13255TIP3   OH261255   3.958   1.669  13.477 -0.1702  0.5451 -0.4551
13255TIP3    H161256   3.950   1.594  13.536 -0.3712  1.3344  0.5451
13255TIP3    H261257   3.869   1.687  13.448 -0.2063  0.7949 -0.1892
13256TIP3   OH261258   0.504   5.317   5.180  0.3497  0.1155  0.0250
13256TIP3    H161259   0.553   5.395   5.208  0.9046  0.6878 -2.3346
13256TIP3    H261260   0.429   5.313   5.239  0.2999  2.4700  0.2059
13257TIP3   OH261261   4.991   2.279  14.532 -0.1968  0.0668 -0.2895
13257TIP3    H161262   4.897   2.260  14.526 -0.4656 -0.5334  3.4700
13257TIP3    H261263   5.031   2.215  14.473 -2.0791  0.6510 -2.3653
13258TIP3   OH261264   5.568   6.567  12.673 -0.0169 -0.0144 -0.4082
13258TIP3    H161265   5.506   6.516  12.725  0.7132 -0.5732 -0.0782
13258TIP3    H261266   5.586   6.512  12.596  0.0627  0.1552 -0.5114
13259TIP3   OH261267   2.426   3.594   5.983  0.7695  0.2257 -0.2508
13259TIP3    H161268   2.337   3.582   5.950  1.1491 -2.0294 -0.6068
13259TIP3    H261269   2.426   3.682   6.021 -1.3207  0.6430 -1.0923
13260TIP3   OH261270   4.494   1.091   5.204 -0.6261  0.0440 -0.0173
13260TIP3    H161271   4.466   1.000   5.213 -1.4016  0.3804  1.3778
13260TIP3    H261272   4.428   1.141   5.253  0.7979  1.1708  0.8414
13261TIP3   OH261273   2.958   3.993  16.822  0.6084  1.2516 -0.5481
13261TIP3    H161274   3.040   4.041  16.809  0.9426  0.6079 -0.9075
13261TIP3    H261275   2.954   3.934  16.747  0.4604  0.3795  0.1295
13262TIP3   OH261276   4.701   1.539   1.263 -0.0502 -0.4094  0.0650
13262TIP3    H161277   4.715   1.560   1.170 -0.0043  0.4769  0.2688
13262TIP3    H261278   4.615   1.497   1.264 -0.1787 -0.1640 -0.3434
13263TIP3   OH261279   2.478   4.760  17.168 -0.5756 -0.9709 -0.0834
13263TIP3    H161280   2.541   4.822  17.134  0.9459 -2.7194 -0.6243
13263TIP3    H261281   2.449   4.710  17.091 -1.3983 -1.2492  0.3933
13264TIP3   OH261282   0.786   1.709   0.307 -0.5788 -0.2861 -0.0925
13264TIP3    H161283   0.854   1.776   0.318  1.0512 -1.6252 -1.4490
13264TIP3    H261284   0.720   1.751   0.251 -0.6870  0.8907  0.8854
13265TIP3   OH261285   3.640   0.783  10.574 -0.4125  0.1547 -0.5011
13265TIP3    H161286   3.725   0.794  10.617 -1.0312 -1.5975  1.3393
13265TIP3    H261287   3.648   0.702  10.525 -1.1751 -0.3371  0.1609
13266TIP3   OH261288   1.811   0.348  13.107  0.2049 -0.3034 -0.5935
13266TIP3    H161289   1.824   0.431  13.060 -2.9955  0.2454 -0.7434
13266TIP3    H261290   1.844   0.282  13.047  0.6175  0.7174 -1.5391
13267TIP3   OH261291   5.408   2.870  12.249  0.1589  0.2478  0.3139
13267TIP3    H161292   5.456   2.950  12.272  1.9846  0.9124 -4.5791
13267TIP3    H261293   5.472   2.800  12.262 -0.6602 -0.2194  2.2556
13268TIP3   OH261294   5.016   1.116   1.191  0.0539  0.4214  0.0888
13268TIP3    H161295   4.933   1.105   1.146 -1.4453  0.5093  2.6208
13268TIP3    H261296   5.019   1.209   1.215  0.8098  0.3918  0.1489
13269TIP3   OH261297   2.030   5.689  11.172 -0.4603  0.4531  0.3284
13269TIP3    H161298   2.051   5.705  11.264 -1.4874  0.4125  0.5741
13269TIP3    H261299   1.976   5.763  11.146  0.2670  0.7425 -0.4105
13270TIP3   OH261300   1.205   5.145   0.900 -0.4996 -0.1098  0.4074
13270TIP3    H161301   1.239   5.056   0.900 -0.1566  0.0212  0.4235
13270TIP3    H261302   1.229   5.180   0.814  1.9790  0.9529  1.4388
13271TIP3   OH261303   3.402   1.405  14.743 -0.1459  0.0021  0.3206
13271TIP3    H161304   3.311   1.429  14.724  0.5399  2.8096  0.2660
13271TIP3    H261305   3.448   1.420  14.661  0.1057 -3.7256 -0.4262
13272TIP3   OH261306   3.478   4.671   5.082 -0.0484 -0.0092 -0.2683
13272TIP3    H161307   3.544   4.706   5.141  0.6300 -1.1807 -0.3078
13272TIP3    H261308   3.483   4.576   5.093  0.5299 -0.3227 -2.6474
13273TIP3   OH261309   3.665   4.862  15.055  0.3749 -0.1848  0.6015
13273TIP3    H161310   3.755   4.849  15.084  0.9945  1.9690 -0.1338
13273TIP3    H261311   3.613   4.800  15.106  2.3749 -2.2532  0.2676
13274TIP3   OH261312   3.130   3.843   5.016 -0.0121 -0.5248 -0.2599
13274TIP3    H161313   3.069   3.908   5.051  3.3176  2.3136  0.9320
13274TIP3    H261314   3.137   3.866   4.923 -1.3724 -1.4546 -0.6058
13275TIP3   OH261315   4.199   0.849   0.585  0.4614  0.2326  0.1461
13275TIP3    H161316   4.219   0.784   0.518  0.5394  0.3705  0.0343
13275TIP3    H261317   4.160   0.799   0.657  1.4945 -0.0950  0.4952
13276TIP3   OH261318   5.556   4.966   2.944  0.0371  0.1139  0.1002
13276TIP3    H161319   5.632   5.018   2.969  1.2488 -1.4690 -0.1516
13276TIP3    H261320   5.507   4.955   3.026  2.4166 -2.5129  1.3643
13277TIP3   OH261321   6.081   4.841  11.958 -0.5252  0.0681  0.2722
13277TIP3    H161322   6.160   4.834  11.905 -0.4355  1.7804  0.1504
13277TIP3    H261323   6.107   4.891  12.035 -1.5507  0.9511  0.0651
13278TIP3   OH261324   2.253   0.416   3.670  0.3984 -0.2924  0.1123
13278TIP3    H161325   2.322   0.481   3.657 -0.7072  0.4357 -2.8918
13278TIP3    H261326   2.177   0.467   3.698  0.1307 -0.5923 -0.0602
13279TIP3   OH261327   5.870   5.490   2.461 -0.0967 -0.5342 -0.0874
13279TIP3    H161328   5.944   5.527   2.509 -1.2427  0.6146  0.8587
13279TIP3    H261329   5.905   5.410   2.422  2.4418  1.3436 -2.0105
13280TIP3   OH261330   3.087   1.388   1.204 -0.1050 -0.2810  0.2132
13280TIP3    H161331   3.064   1.381   1.296 -0.4767  0.9449  0.2272
13280TIP3    H261332   3.090   1.482   1.186 -0.8748 -0.4949 -1.2345
13281TIP3   OH261333   1.575   5.475   1.853 -0.3116 -0.3702 -0.8039
13281TIP3    H161334   1.533   5.487   1.768 -2.4557  0.6010  0.3055
13281TIP3    H261335   1.609   5.385   1.851 -0.8028 -0.5451 -2.4740
13282TIP3   OH261336   5.415   5.870   4.380  0.1376  1.0164 -0.1186
13282TIP3    H161337   5.328   5.833   4.393  0.1365  1.1498  0.2771
13282TIP3    H261338   5.424   5.934   4.451  1.7651 -1.1602  1.7428
13283TIP3   OH261339   0.858   1.659  17.203 -0.4394 -0.5153 -0.3513
13283TIP3    H161340   0.770   1.676  17.172 -0.9726 -1.8786  0.2970
13283TIP3    H261341   0.846   1.604  17.280  0.9913 -1.3568 -0.6806
13284TIP3   OH261342   4.372   4.833  13.646  0.2589 -0.2637 -0.1026
13284TIP3    H161343   4.325   4.903  13.692  0.2023 -1.0095  1.0081
13284TIP3    H261344   4.305   4.794  13.589 -0.2975 -0.7997  0.8808
13285TIP3   OH261345   4.900   0.889  14.084  0.5947  0.2729 -0.5192
13285TIP3    H161346   4.899   0.877  14.178  0.0560 -0.5017 -0.6139
13285TIP3    H261347   4.980   0.847  14.054  1.8072  2.2296 -0.2234
13286TIP3   OH261348   2.939   6.587  16.132  0.8258 -0.1487 -0.4620
13286TIP3    H161349   2.871   6.575  16.066 -0.2722 -1.0010  0.7803
13286TIP3    H261350   3.019   6.556  16.088  0.0815 -0.9353 -1.3201
13287TIP3   OH261351   0.655   4.290  11.346 -0.0632  0.1976 -0.2166
13287TIP3    H161352   0.633   4.265  11.436  1.0631 -1.5277 -0.3904
13287TIP3    H261353   0.640   4.212  11.294  0.2425  0.8955 -1.3961
13288TIP3   OH261354   0.962   4.775   0.890 -0.1086  0.0147 -0.1089
13288TIP3    H161355   0.908   4.854   0.898 -0.8207 -0.1434 -2.4859
13288TIP3    H261356   1.048   4.808   0.863 -0.3277  0.0202 -0.8247
13289TIP3   OH261357   4.848   5.784   0.442  0.2135  0.3089 -0.2214
13289TIP3    H161358   4.858   5.735   0.360  0.5754 -1.8485  1.0278
13289TIP3    H261359   4.930   5.769   0.489 -0.5644  0.2070  1.1715
13290TIP3   OH261360   0.046   3.751  15.705  0.4709 -0.7159  0.3660
13290TIP3    H161361   0.049   3.841  15.671  0.0706 -0.9308 -0.2441
13290TIP3    H261362  -0.000   3.759  15.788  0.0959 -0.4124  0.1298
13291TIP3   OH261363   1.206   2.884  16.294 -0.1288 -0.3955  0.3195
13291TIP3    H161364   1.277   2.938  16.328 -0.8535  2.5104 -2.3416
13291TIP3    H261365   1.241   2.845  16.214 -1.0271 -0.2143 -0.1752
13292TIP3   OH261366   2.506   4.741   4.985  0.0118 -0.2790 -0.1802
13292TIP3    H161367   2.580   4.701   4.940  0.4352  1.5910 -1.2877
13292TIP3    H261368   2.544   4.780   5.064  0.1147  0.2066 -0.4662
13293TIP3   OH261369   4.950   4.611   0.672 -0.0154  0.5378  0.2083
13293TIP3    H161370   4.981   4.655   0.751 -0.5554  1.2370  0.0448
13293TIP3    H261371   5.028   4.602   0.617  0.0495  1.5794  0.1200
13294TIP3   OH261372   5.949   0.665  15.142 -0.0982 -0.4277  0.5279
13294TIP3    H161373   5.977   0.630  15.227  0.0567  1.0873  1.1271
13294TIP3    H261374   5.901   0.745  15.164  1.4833  0.9671 -0.8893
13295TIP3   OH261375   3.041   0.890   5.965 -0.3610 -0.2746 -0.4999
13295TIP3    H161376   3.007   0.803   5.985  0.9768 -0.5597  0.6813
13295TIP3    H261377   2.963   0.941   5.944 -1.5735 -0.9039  2.0185
13296TIP3   OH261378   1.051   6.743   3.784  0.5275 -0.6040 -0.4504
13296TIP3    H161379   1.142   6.746   3.812  0.8180 -1.8581 -1.1645
13296TIP3    H261380   1.021   6.655   3.808 -0.9926  0.2792  1.1655
13297TIP3   OH261381   0.353   5.983   1.030  0.6181  0.3976 -0.3313
13297TIP3    H161382   0.406   5.954   0.956  0.4481  0.0011 -0.2981
13297TIP3    H261383   0.416   5.993   1.102  0.4404 -1.5612  0.1343
13298TIP3   OH261384   3.811   0.982  16.037 -0.4691  0.4625  0.6626
13298TIP3    H161385   3.883   0.998  16.099 -0.9709  0.6085  1.2218
13298TIP3    H261386   3.850   0.997  15.951  0.0640  0.9577  0.9819
13299TIP3   OH261387   2.371   2.820  14.508  0.0565 -0.1655  0.5448
13299TIP3    H161388   2.446   2.878  14.521 -0.3156  0.4714 -0.0436
13299TIP3    H261389   2.405   2.748  14.455  0.6701 -0.8238  1.7975
13300TIP3   OH261390   5.184   1.566   5.050  0.1150  0.0702 -0.2143
13300TIP3    H161391   5.187   1.552   4.955  2.1294 -0.1038 -0.1563
13300TIP3    H261392   5.203   1.481   5.088  0.7022  0.4309  0.3152
13301TIP3   OH261393   2.049   6.214   6.484  0.2913  0.4207  0.2402
13301TIP3    H161394   2.123   6.184   6.431  1.1730  1.1300  1.0288
13301TIP3    H261395   2.024   6.138   6.537 -0.2818 -0.1479 -0.8174
13302TIP3   OH261396   3.384   6.751   5.326 -0.2378 -0.1436  0.4267
13302TIP3    H161397   3.290   6.767   5.326 -0.1280  0.6567 -1.2234
13302TIP3    H261398   3.418   6.811   5.392 -0.6975  0.9717 -0.3190
13303TIP3   OH261399   3.662   4.566  11.648 -0.4328 -0.5359 -0.6870
13303TIP3    H161400   3.619   4.616  11.580 -2.3936  1.0999  1.6072
13303TIP3    H261401   3.595   4.552  11.715  1.3392 -2.1508  0.9043
13304TIP3   OH261402   0.406   5.529  14.896  0.1308 -0.2843  0.0016
13304TIP3    H161403   0.456   5.599  14.938  0.1850 -0.0413 -0.4500
13304TIP3    H261404   0.470   5.459  14.882 -0.0690 -0.6789  1.0262
13305TIP3   OH261405   6.316   0.703  12.047  0.5520  0.2704  0.0594
13305TIP3    H161406   6.406   0.734  12.055  0.6029 -0.0173  0.6104
13305TIP3    H261407   6.324   0.614  12.012  0.5248 -0.0849  0.9423
13306TIP3   OH261408   5.048   3.145   1.943 -0.8019 -0.4597 -0.0852
13306TIP3    H161409   5.070   3.126   2.034  0.5436  0.6552 -0.1524
13306TIP3    H261410   5.084   3.232   1.927 -3.4842  0.6286 -0.8631
13307TIP3   OH261411   5.894   1.623  16.760 -0.0641 -0.8265 -0.1248
13307TIP3    H161412   5.989   1.638  16.763 -0.2006  0.2915 -0.7835
13307TIP3    H261413   5.885   1.539  16.715  0.6312 -1.1485  0.3294
13308TIP3   OH261414   6.579   6.204  13.258  0.2535 -0.1275  0.6529
13308TIP3    H161415   6.496   6.248  13.240  0.5249 -0.3963 -1.4542
13308TIP3    H261416   6.646   6.273  13.249  0.6608 -0.7926 -2.4717
13309TIP3   OH261417   6.585   6.766  10.362  0.5878 -0.3156  0.2895
13309TIP3    H161418   6.496   6.734  10.374  0.6043 -0.6551 -0.4644
13309TIP3    H261419   6.626   6.702  10.305  0.4076  1.3894 -1.8832
13310TIP3   OH261420   1.849   4.643   1.747  0.6648 -0.1400 -0.4441
13310TIP3    H161421   1.802   4.582   1.690  0.0380  1.3288 -1.5568
13310TIP3    H261422   1.825   4.730   1.715  1.7548  0.7086  0.9122
13311TIP3   OH261423   3.496   4.522  16.450 -0.2212  0.1430  0.0868
13311TIP3    H161424   3.423   4.564  16.406  0.2769  0.4440 -0.4611
13311TIP3    H261425   3.457   4.483  16.529 -1.5887 -2.3206 -1.6699
13312TIP3   OH261426   0.623   0.516   5.899 -0.1191  0.3336 -0.0112
13312TIP3    H161427   0.653   0.607   5.904 -0.2496  0.4314 -0.9201
13312TIP3    H261428   0.554   0.518   5.833  0.0184 -0.4698 -0.1775
13313TIP3   OH261429   1.707   0.649   3.509  0.6906 -0.0251 -0.0305
13313TIP3    H161430   1.693   0.626   3.601  1.0357  1.1682  0.3384
13313TIP3    H261431   1.796   0.619   3.490  0.4839 -0.6089 -0.0927
13314TIP3   OH261432   3.869   2.972  11.593 -0.1190 -0.2905 -0.0351
13314TIP3    H161433   3.798   2.963  11.657  0.4307  1.3512  0.8605
13314TIP3    H261434   3.825   2.991  11.510 -0.7416  1.5465  0.6667
13315TIP3   OH261435   2.196   4.532   3.303  0.2903 -0.3020  0.7670
13315TIP3    H161436   2.132   4.480   3.353  1.3659 -0.3800  2.1379
13315TIP3    H261437   2.276   4.480   3.307  0.5774  0.0196 -0.5218
13316TIP3   OH261438   1.643   2.604  15.271  0.2928  0.4196  0.3857
13316TIP3    H161439   1.697   2.675  15.236  0.0977  1.2324  1.6727
13316TIP3    H261440   1.570   2.648  15.313  0.2127 -0.5393  1.2909
13317TIP3   OH261441   4.697   3.957  13.274 -0.0712 -0.3377  0.1162
13317TIP3    H161442   4.666   4.045  13.255 -0.2656 -0.4064  0.1122
13317TIP3    H261443   4.617   3.903  13.275  0.1129 -0.6270 -0.5246
13318TIP3   OH261444   2.249   2.879   5.112  0.5307 -0.5946  0.1260
13318TIP3    H161445   2.180   2.832   5.158  0.5672 -1.1698 -0.4003
13318TIP3    H261446   2.217   2.889   5.023  0.3143  0.8229  0.3352
13319TIP3   OH261447   1.922   6.264  16.148 -0.0532  0.7164 -0.2638
13319TIP3    H161448   1.828   6.251  16.155 -0.0579  1.5779  2.0906
13319TIP3    H261449   1.935   6.358  16.160  1.0136  0.9165 -2.4774
13320TIP3   OH261450   0.431   2.429   4.601  0.1600 -0.0839 -0.1078
13320TIP3    H161451   0.421   2.430   4.696 -0.4046 -0.7772 -0.1497
13320TIP3    H261452   0.483   2.507   4.581 -0.8913  0.8389  0.6368
13321TIP3   OH261453   0.579   0.793   1.141 -0.5124  0.3026 -0.0781
13321TIP3    H161454   0.518   0.860   1.171  0.5968  0.8348  1.0849
13321TIP3    H261455   0.654   0.842   1.108 -0.4246 -0.3469 -0.8642
13322TIP3   OH261456   1.629   5.937   5.628  0.3186  0.0211  0.3641
13322TIP3    H161457   1.583   5.861   5.593  1.9897 -0.8268 -0.0791
13322TIP3    H261458   1.587   5.953   5.713 -0.5770 -0.9116  0.1123
13323TIP3   OH261459   2.319   0.948  12.400 -0.7308 -0.1917  0.6072
13323TIP3    H161460   2.269   0.867  12.407  0.5069 -0.9113  1.5912
13323TIP3    H261461   2.356   0.946  12.312 -2.0573  0.1582  0.0117
13324TIP3   OH261462   3.770   3.372   4.338 -0.5684 -0.4351  0.3618
13324TIP3    H161463   3.802   3.345   4.425  1.1055  3.2691  1.1152
13324TIP3    H261464   3.683   3.408   4.355 -0.2083  0.3645  0.5750
13325TIP3   OH261465   4.520   6.200   2.898  0.7553 -0.3253 -0.2506
13325TIP3    H161466   4.519   6.236   2.809 -0.3527  1.8856  0.5838
13325TIP3    H261467   4.608   6.220   2.931  1.2469 -1.3470 -0.8658
13326TIP3   OH261468   2.592   1.409  14.186  0.0578 -0.6852  0.3835
13326TIP3    H161469   2.582   1.317  14.211 -3.6076 -0.6609 -0.4721
13326TIP3    H261470   2.636   1.406  14.101 -0.5991 -1.7022  0.0657
13327TIP3   OH261471   5.581   5.751   1.871 -0.2273  0.5406  0.2448
13327TIP3    H161472   5.623   5.689   1.811 -1.4961 -1.3675  1.2011
13327TIP3    H261473   5.601   5.837   1.835  2.4846 -0.3379 -0.5963
13328TIP3   OH261474   0.898   3.056   2.864 -0.0439  0.4552  0.2465
13328TIP3    H161475   0.955   3.012   2.801 -0.9057  0.8365 -0.8405
13328TIP3    H261476   0.921   3.018   2.949  0.5191 -0.7165 -0.4185
13329TIP3   OH261477   6.335   6.130   3.678 -0.6298  0.2967 -0.0582
13329TIP3    H161478   6.351   6.182   3.756 -2.0114  0.0647  0.4077
13329TIP3    H261479   6.408   6.150   3.620  0.6633  0.1231  1.4705
13330TIP3   OH261480   0.594   5.617  16.238 -0.2098 -0.0937 -0.1491
13330TIP3    H161481   0.559   5.704  16.218 -0.1371  0.0724  0.4220
13330TIP3    H261482   0.517   5.560  16.239 -0.2689 -0.0225 -0.4316
13331TIP3   OH261483   3.487   2.807   2.735 -0.3975 -0.2272  0.4901
13331TIP3    H161484   3.501   2.902   2.735 -0.1671 -0.2515 -0.2142
13331TIP3    H261485   3.554   2.772   2.792  0.2895 -0.0586 -0.1991
13332TIP3   OH261486   1.429   0.771  12.185 -0.4143 -0.4739  0.3194
13332TIP3    H161487   1.421   0.704  12.117  1.0693 -0.7651  0.3966
13332TIP3    H261488   1.428   0.721  12.267  0.3055 -0.3679  0.3938
13333TIP3   OH261489   2.283   6.044  12.753  0.1051  0.1977 -0.0665
13333TIP3    H161490   2.247   5.957  12.735 -0.3843  0.7237 -1.7825
13333TIP3    H261491   2.212   6.104  12.733  0.3596  1.0136  1.3549
13334TIP3   OH261492   0.346   2.151   0.923 -0.2877  0.1740 -0.3081
13334TIP3    H161493   0.328   2.125   0.832 -0.4185  1.5949 -0.7052
13334TIP3    H261494   0.284   2.221   0.941  0.6442  0.8420  0.4227
13335TIP3   OH261495   4.084   5.675   4.938 -0.1147  0.5255  0.1080
13335TIP3    H161496   4.004   5.635   4.973 -0.9046  0.3736 -1.7370
13335TIP3    H261497   4.141   5.601   4.917 -0.5770  0.4657 -1.0069
13336TIP3   OH261498   4.439   0.589   1.014 -0.3677 -0.0218 -0.0393
13336TIP3    H161499   4.462   0.666   1.066 -0.1000 -0.2432  0.1785
13336TIP3    H261500   4.445   0.618   0.923  0.0252  0.1330  0.0358
13337TIP3   OH261501   6.674   0.423  10.413 -0.1943 -0.1131 -0.4314
13337TIP3    H161502   6.762   0.443  10.380  0.5246 -0.1480  1.3432
13337TIP3    H261503   6.664   0.329  10.398 -0.1408 -0.0234 -1.0825
13338TIP3   OH261504   6.063   5.082  10.654  0.5239  0.3833 -0.7895
13338TIP3    H161505   6.137   5.122  10.700  0.9629 -0.8897 -0.3414
13338TIP3    H261506   6.015   5.156  10.617  0.8113  1.3844  0.7454
13339TIP3   OH261507   5.238   1.497  15.387 -0.8543 -0.7999  0.3182
13339TIP3    H161508   5.266   1.421  15.336  0.6495  0.2300 -0.4423
13339TIP3    H261509   5.144   1.505  15.368 -0.6146 -1.2577 -1.2070
13340TIP3   OH261510   1.878   6.680   3.540 -0.4287  0.0461  0.4307
13340TIP3    H161511   1.933   6.751   3.508  0.3313 -0.3374  0.8503
13340TIP3    H261512   1.803   6.724   3.581 -0.0856  0.5925  0.4759
13341TIP3   OH261513   5.051   0.649  14.656 -0.2146 -0.1958 -0.1159
13341TIP3    H161514   5.116   0.678  14.592 -0.1081 -1.4624 -0.6050
13341TIP3    H261515   5.024   0.729  14.700  1.7966  0.3359  0.2256
13342TIP3   OH261516   1.619   0.571   0.862 -0.1520  0.6416  0.0925
13342TIP3    H161517   1.686   0.639   0.876  0.7000  0.1663 -1.4439
13342TIP3    H261518   1.664   0.489   0.884 -0.4533  0.3777 -0.2739
13343TIP3   OH261519   1.774   2.441   4.999  0.3105 -0.3622  0.6970
13343TIP3    H161520   1.764   2.391   5.080  1.2707  0.0007  1.0513
13343TIP3    H261521   1.688   2.435   4.957 -1.0266  1.4704  2.9038
13344TIP3   OH261522   2.378   2.959  16.821 -0.4038  0.7735 -0.2275
13344TIP3    H161523   2.365   3.028  16.756 -0.5437  0.7229 -0.2523
13344TIP3    H261524   2.445   2.995  16.880  0.4539  0.4164 -0.9630
13345TIP3   OH261525   0.669   5.559   5.239 -0.1171 -0.1411  0.3459
13345TIP3    H161526   0.712   5.593   5.160  1.4899 -1.1623  0.7310
13345TIP3    H261527   0.714   5.602   5.311 -0.6484 -0.2409  0.7440
13346TIP3   OH261528   0.578   6.067   0.158 -0.1038  0.2364  0.3620
13346TIP3    H161529   0.668   6.056   0.189  0.2476 -0.7914 -0.9174
13346TIP3    H261530   0.540   5.980   0.166 -0.6228  0.4094 -0.1627
13347TIP3   OH261531   0.152   4.408   3.113  0.1260  0.2449 -0.3525
13347TIP3    H161532   0.124   4.328   3.070  1.9574 -1.2955  1.1044
13347TIP3    H261533   0.217   4.446   3.054  1.9695 -1.3767  0.5369
13348TIP3   OH261534   5.098   6.388   2.757  0.0249  0.4652 -0.1352
13348TIP3    H161535   5.085   6.470   2.805 -2.0720  0.1978 -0.1485
13348TIP3    H261536   5.066   6.407   2.669  0.3830 -0.1131 -0.3925
13349TIP3   OH261537   4.860   5.674  12.197  0.4384  0.2564 -0.5709
13349TIP3    H161538   4.953   5.654  12.209  0.8849  2.1851 -0.4045
13349TIP3    H261539   4.859   5.763  12.162 -1.3713  0.7250  0.4923
13350TIP3   OH261540   1.758   0.364  17.193  0.2146 -0.2349  0.3393
13350TIP3    H161541   1.818   0.400  17.257 -0.6679  1.0612  0.4896
13350TIP3    H261542   1.807   0.364  17.111  0.1304  1.7636  0.2526
13351TIP3   OH261543   1.986   3.081   0.151  0.0232  0.3834 -0.3761
13351TIP3    H161544   1.975   3.143   0.079  0.9929 -0.5836 -1.3843
13351TIP3    H261545   1.918   3.015   0.136 -1.2781  1.3519  0.9267
13352TIP3   OH261546   2.531   6.065   5.713  0.4634  0.6948 -0.6234
13352TIP3    H161547   2.532   6.106   5.800  0.0726  1.9222 -1.1680
13352TIP3    H261548   2.534   5.971   5.730  2.2991  0.9315  0.6732
13353TIP3   OH261549   3.351   2.063  15.931 -0.5678  0.0287  0.0423
13353TIP3    H161550   3.443   2.071  15.908 -1.0156 -0.4491 -2.0619
13353TIP3    H261551   3.351   2.037  16.023  1.4135 -1.0513 -0.2310
13354TIP3   OH261552   4.256   2.765  14.901 -0.6255  0.0778  0.5645
13354TIP3    H161553   4.223   2.702  14.838 -1.8551  0.9032  0.3451
13354TIP3    H261554   4.178   2.805  14.939  0.0906  2.2954 -0.1471
13355TIP3   OH261555   0.292   0.271   2.182  0.1061  0.0968 -0.1852
13355TIP3    H161556   0.229   0.246   2.250  0.1843 -1.2864 -0.5886
13355TIP3    H261557   0.377   0.264   2.226  0.3452 -2.8830 -0.9007
13356TIP3   OH261558   1.788   3.784  11.595 -0.2459  0.3021 -0.6753
13356TIP3    H161559   1.714   3.807  11.538 -1.5479  0.1773  0.8976
13356TIP3    H261560   1.778   3.690  11.609 -0.3068  0.4436  0.2548
13357TIP3   OH261561   5.286   6.773   4.023 -0.1051 -0.4373  0.7697
13357TIP3    H161562   5.196   6.797   3.999 -0.0853  0.4283  1.5120
13357TIP3    H261563   5.276   6.707   4.092 -0.1556 -1.9614 -0.6346
13358TIP3   OH261564   5.074   6.286  14.019 -0.5313 -0.3170  0.6724
13358TIP3    H161565   4.985   6.315  13.997 -0.9979 -0.0371  2.7595
13358TIP3    H261566   5.130   6.332  13.957 -1.6971  0.8538  0.4444
13359TIP3   OH261567   0.352   1.934  14.906  0.5700  0.0838 -0.4302
13359TIP3    H161568   0.263   1.903  14.924  0.5741  0.5096  0.3919
13359TIP3    H261569   0.373   1.897  14.820  0.1643 -1.2596  0.0127
13360TIP3   OH261570   2.416   3.160  13.008 -0.1426  0.0253  0.2536
13360TIP3    H161571   2.451   3.186  12.923 -2.3112  1.1120 -0.3714
13360TIP3    H261572   2.390   3.069  12.997 -0.0524  0.0436 -0.1265
13361TIP3   OH261573   3.877   5.402   5.684 -0.3535 -0.6272  0.0713
13361TIP3    H161574   3.869   5.402   5.589  2.4827 -0.8079 -0.2494
13361TIP3    H261575   3.847   5.316   5.711  0.1279 -1.0875 -0.8230
13362TIP3   OH261576   4.490   5.982  11.103  0.1047  0.1726  1.0055
13362TIP3    H161577   4.429   5.924  11.057 -1.7792  2.7430  0.0345
13362TIP3    H261578   4.572   5.974  11.054 -0.7733 -0.0285 -0.4866
13363TIP3   OH261579   0.222   3.508  10.850  0.4856 -0.5977  0.2446
13363TIP3    H161580   0.214   3.499  10.945  1.0188 -0.6083  0.2897
13363TIP3    H261581   0.155   3.448  10.815 -1.1725  0.9367  0.6112
13364TIP3   OH261582   0.777   2.129  10.857  0.4645 -0.7632 -0.6907
13364TIP3    H161583   0.774   2.211  10.807  2.7529  0.4480  0.9833
13364TIP3    H261584   0.840   2.074  10.809  1.0378 -0.4357 -0.3227
13365TIP3   OH261585   3.391   2.458  14.864  0.4079 -0.3745  0.2098
13365TIP3    H161586   3.434   2.428  14.944  0.9038 -2.1831 -0.6836
13365TIP3    H261587   3.320   2.396  14.850 -1.1093  1.2278  0.3988
13366TIP3   OH261588   6.785   5.587   5.656  1.1632  0.5894 -0.0549
13366TIP3    H161589   6.767   5.658   5.717  1.3471 -0.0373  0.7481
13366TIP3    H261590   6.862   5.616   5.607  0.5935  1.3993 -0.4979
13367TIP3   OH261591   6.580   0.160   2.742 -0.2323 -0.7908  0.3572
13367TIP3    H161592   6.485   0.158   2.755 -0.1987 -0.2759  0.7337
13367TIP3    H261593   6.597   0.093   2.676 -0.8079 -1.2064  0.6207
13368TIP3   OH261594   6.393   2.049  13.304 -0.0994  0.0398  0.0094
13368TIP3    H161595   6.453   1.977  13.324  0.0211 -0.9189 -3.2221
13368TIP3    H261596   6.447   2.127  13.305  0.0986 -0.0718  1.9804
13369TIP3   OH261597   2.540   1.095  11.395 -0.2234  0.0184  0.0743
13369TIP3    H161598   2.487   1.144  11.458  0.1865  0.5580  0.0070
13369TIP3    H261599   2.505   1.006  11.398 -3.2348  0.9269 -2.1569
13370TIP3   OH261600   4.543   1.733   5.718  0.6923 -0.4766 -0.2304
13370TIP3    H161601   4.553   1.686   5.636 -2.1753 -1.6624 -0.0030
13370TIP3    H261602   4.512   1.820   5.692 -0.4505 -0.9302 -0.4146
13371TIP3   OH261603   2.778   1.933  14.852  0.5298 -0.5669 -0.4663
13371TIP3    H161604   2.805   1.984  14.928  0.9983 -0.1503 -0.9114
13371TIP3    H261605   2.853   1.878  14.832 -0.0302 -1.5734  0.1115
13372TIP3   OH261606   0.379   0.126   3.496 -0.0046  0.2455  0.2727
13372TIP3    H161607   0.441   0.157   3.562  0.7710  0.8637 -0.7258
13372TIP3    H261608   0.311   0.080   3.547  1.0453 -0.0980  1.4162
13373TIP3   OH261609   0.543   1.370   0.835 -0.4668  0.4187 -0.2480
13373TIP3    H161610   0.613   1.343   0.776 -0.9341 -0.9247 -0.2124
13373TIP3    H261611   0.544   1.305   0.905 -2.0969  0.0341 -0.5384
13374TIP3   OH261612   6.557   3.086  12.650 -1.2394 -0.0117  0.5330
13374TIP3    H161613   6.562   3.030  12.728  0.7294 -0.5759  0.0628
13374TIP3    H261614   6.476   3.136  12.662  0.1974  1.8022  4.2331
13375TIP3   OH261615   3.002   5.554   0.873 -0.6837 -0.6537  0.2378
13375TIP3    H161616   3.090   5.571   0.906 -0.2079 -1.6653 -0.4303
13375TIP3    H261617   3.004   5.587   0.783 -0.8236 -1.1236  0.0584
13376TIP3   OH261618   1.965   3.665  13.375  0.5060  0.2966 -0.3581
13376TIP3    H161619   2.022   3.727  13.329  1.3224 -0.1389  0.0347
13376TIP3    H261620   1.937   3.602  13.308  0.1419  0.7541 -0.6385
13377TIP3   OH261621   1.555   6.514   3.250  0.1901  0.1460 -0.1193
13377TIP3    H161622   1.519   6.431   3.282 -2.1767  0.6416 -1.2244
13377TIP3    H261623   1.533   6.515   3.156  1.3281  1.4480 -0.4028
13378TIP3   OH261624   5.484   6.148  15.651  0.3383  0.4239 -0.3794
13378TIP3    H161625   5.450   6.163  15.739  0.8890  1.8679 -0.3901
13378TIP3    H261626   5.453   6.060  15.628 -0.2868  0.2548  1.0221
13379TIP3   OH261627   0.542   1.381   3.999  0.2760  0.0206  0.2851
13379TIP3    H161628   0.501   1.454   3.953 -0.1613  0.0289  0.6755
13379TIP3    H261629   0.489   1.371   4.079  1.0270  0.0222  0.7893
13380TIP3   OH261630   6.565   1.862   2.321  0.6172  0.3648  0.1247
13380TIP3    H161631   6.570   1.774   2.359 -2.1482 -0.1599 -0.4748
13380TIP3    H261632   6.526   1.916   2.390 -1.3558  0.1460 -0.7330
13381TIP3   OH261633   0.248   1.275  14.668  0.0677  0.4955 -0.5479
13381TIP3    H161634   0.336   1.302  14.640  1.1240 -0.0994  1.9512
13381TIP3    H261635   0.240   1.185  14.638  1.5724 -0.4617  1.6910
13382TIP3   OH261636   5.819   3.473  11.481 -0.0651  0.1411  0.2354
13382TIP3    H161637   5.875   3.539  11.441 -0.2413  0.8925  1.1895
13382TIP3    H261638   5.754   3.452  11.414  1.1903 -0.5647 -0.7930
13383TIP3   OH261639   2.186   2.345   2.326 -0.3324 -0.0116 -0.8171
13383TIP3    H161640   2.272   2.333   2.286 -0.2705  1.4507 -1.1683
13383TIP3    H261641   2.133   2.274   2.290  0.8467 -1.2915 -0.1575
13384TIP3   OH261642   4.963   3.726   4.028 -0.1041  0.1638  0.1006
13384TIP3    H161643   5.035   3.666   4.045 -0.5417 -1.0360 -1.9457
13384TIP3    H261644   4.885   3.670   4.026 -1.5081  1.6483  4.1099
13385TIP3   OH261645   4.286   1.713  16.371 -0.5219 -0.0777 -0.2365
13385TIP3    H161646   4.205   1.748  16.335 -0.1911  1.1751  0.1980
13385TIP3    H261647   4.296   1.756  16.455  1.1743  0.6701 -0.7729
13386TIP3   OH261648   4.560   1.018   2.588 -0.4827  0.4074 -0.3283
13386TIP3    H161649   4.561   1.114   2.597 -0.9369  0.3246  0.8074
13386TIP3    H261650   4.653   0.994   2.588 -0.3650  0.7099  1.4763
13387TIP3   OH261651   0.540   0.290  11.739  0.2116  0.1162 -0.2249
13387TIP3    H161652   0.549   0.226  11.809 -0.4954 -0.1716 -0.3805
13387TIP3    H261653   0.627   0.298  11.701 -0.1027 -2.5628 -1.7562
13388TIP3   OH261654   3.802   4.702  15.531 -0.0848  0.1394 -0.4926
13388TIP3    H161655   3.850   4.667  15.605 -0.1931 -0.0284 -0.5032
13388TIP3    H261656   3.817   4.797  15.536  1.0961  0.0096 -1.0793
13389TIP3   OH261657   4.950   5.845   5.144  0.3303 -0.2033  0.2348
13389TIP3    H161658   4.881   5.901   5.108  0.2976  0.4735  1.3186
13389TIP3    H261659   5.004   5.821   5.068 -1.3472 -1.1378 -0.7313
13390TIP3   OH261660   0.065   0.691   3.337  0.2378 -0.2636  0.5662
13390TIP3    H161661   0.124   0.707   3.263 -1.9900  0.6501 -1.1406
13390TIP3    H261662   0.038   0.600   3.327  0.1728 -0.2299  0.4317
13391TIP3   OH261663   1.035   3.807   5.391  0.5435 -0.2259  0.5473
13391TIP3    H161664   1.090   3.855   5.453 -0.0854  3.8853 -1.7511
13391TIP3    H261665   0.953   3.792   5.438  0.5212  1.6587  1.1937
13392TIP3   OH261666   5.083   2.890  17.158 -0.1787  0.0886  0.2067
13392TIP3    H161667   5.029   2.870  17.235 -1.1394  0.0125 -0.4774
13392TIP3    H261668   5.039   2.964  17.116  0.0103 -0.2466 -0.6029
13393TIP3   OH261669   6.685   3.879  13.137 -0.3844 -0.1780  0.5098
13393TIP3    H161670   6.677   3.974  13.138  0.4413 -0.0829 -0.6009
13393TIP3    H261671   6.597   3.847  13.154 -0.7975  0.7832  0.2029
13394TIP3   OH261672   6.734   4.867   3.470 -0.2866  0.0125  0.4489
13394TIP3    H161673   6.638   4.860   3.474 -0.2015 -0.8830  1.5291
13394TIP3    H261674   6.751   4.960   3.484 -1.0633  0.6381 -2.2581
13395TIP3   OH261675   4.506   4.528  17.081 -0.5188 -0.3021  0.3013
13395TIP3    H161676   4.563   4.483  17.020 -0.8211 -0.6479  0.2683
13395TIP3    H261677   4.472   4.603  17.032  0.4602  0.3244  0.5459
13396TIP3   OH261678   6.688   0.237   4.609 -0.1161 -0.2722 -0.6616
13396TIP3    H161679   6.639   0.298   4.664  0.9245  2.2044 -2.2935
13396TIP3    H261680   6.643   0.241   4.524  2.6335  2.0266 -2.1861
13397TIP3   OH261681   3.164   0.101   0.852  0.1713 -0.1775  0.2113
13397TIP3    H161682   3.115   0.127   0.774  1.0737 -0.3224 -0.4173
13397TIP3    H261683   3.200   0.183   0.886 -1.2281  0.0763  1.2262
13398TIP3   OH261684   0.359   1.080  15.328  0.4917 -0.6506 -0.0685
13398TIP3    H161685   0.439   1.129  15.348 -0.0708  0.0558  0.4947
13398TIP3    H261686   0.326   1.054  15.414 -0.2181 -0.4018 -0.2623
13399TIP3   OH261687   2.808   0.786   0.278 -0.0745 -0.3827 -0.1443
13399TIP3    H161688   2.881   0.838   0.246 -1.2680  0.1330 -2.2168
13399TIP3    H261689   2.822   0.699   0.241 -0.0897 -0.4985  0.1217
13400TIP3   OH261690   4.146   2.476   6.227  0.1467 -0.1863 -0.0721
13400TIP3    H161691   4.177   2.486   6.317  1.1426 -0.1348 -0.4077
13400TIP3    H261692   4.059   2.437   6.236 -0.2895  0.9522  0.9522
13401TIP3   OH261693   0.829   4.568   3.186 -0.0000 -0.0844  0.4335
13401TIP3    H161694   0.898   4.582   3.121  0.9156 -0.8550  1.2139
13401TIP3    H261695   0.784   4.488   3.156  1.5262 -1.4579  1.6166
13402TIP3   OH261696   4.576   4.647   3.644  0.0681 -0.0946  0.2643
13402TIP3    H161697   4.587   4.670   3.551  1.9550 -0.1912  0.4272
13402TIP3    H261698   4.615   4.721   3.691 -0.2469 -0.3762  0.9730
13403TIP3   OH261699   3.787   5.360  11.048 -0.2399  0.4663 -0.1027
13403TIP3    H161700   3.791   5.322  11.136  2.6785  1.2534  0.2098
13403TIP3    H261701   3.694   5.370  11.031 -0.9285  1.1305  3.2658
13404TIP3   OH261702   4.575   4.935   2.998 -0.1588 -0.1420  0.2627
13404TIP3    H161703   4.485   4.935   3.031 -0.4525  3.2094 -0.2680
13404TIP3    H261704   4.629   4.955   3.074  0.0889 -1.2731  0.4012
13405TIP3   OH261705   3.130   3.268  10.682  0.2659 -0.2140  0.4335
13405TIP3    H161706   3.223   3.262  10.704  0.6499 -2.7663 -1.4211
13405TIP3    H261707   3.128   3.320  10.601 -0.1014  0.8451  1.0945
13406TIP3   OH261708   5.716   2.463   2.039 -0.5137  0.4015 -0.5270
13406TIP3    H161709   5.776   2.389   2.047 -0.2637  0.5243 -1.2735
13406TIP3    H261710   5.653   2.437   1.972 -1.2522  0.3090  0.1845
13407TIP3   OH261711   3.444   1.107   0.491  0.3632 -0.0845 -0.0457
13407TIP3    H161712   3.483   1.049   0.556  0.2962 -1.5756 -1.2836
13407TIP3    H261713   3.518   1.154   0.452  0.6293 -0.7285 -0.3304
13408TIP3   OH261714   3.084   3.075  11.760  0.3463  0.6886 -0.1630
13408TIP3    H161715   3.141   3.106  11.690  1.0999 -0.9530 -0.3047
13408TIP3    H261716   3.056   2.988  11.733  0.8968 -0.1152  1.6987
13409TIP3   OH261717   3.646   2.569   5.151 -0.0670 -0.1900 -0.2250
13409TIP3    H161718   3.685   2.600   5.233 -2.8039 -0.3174  1.2606
13409TIP3    H261719   3.651   2.474   5.156 -2.8929 -0.3669  1.3811
13410TIP3   OH261720   0.815   0.173  15.399 -0.5084 -0.2258  0.0519
13410TIP3    H161721   0.769   0.211  15.324 -2.6156 -1.4281  0.6584
13410TIP3    H261722   0.833   0.082  15.373  0.0839 -0.2360  0.4608
13411TIP3   OH261723   6.398   4.839   5.284 -0.3872  0.8547 -0.0234
13411TIP3    H161724   6.473   4.855   5.342 -1.2949 -0.3755  1.5977
13411TIP3    H261725   6.409   4.902   5.213  3.4425 -0.7839 -1.1753
13412TIP3   OH261726   0.304   1.160  11.907 -0.3483  0.3014  0.2797
13412TIP3    H161727   0.330   1.252  11.910 -1.1208  0.4995  1.8253
13412TIP3    H261728   0.364   1.116  11.966 -0.8082  0.0416  0.5592
13413TIP3   OH261729   4.715   3.736   1.870  0.4185  0.0565  0.1061
13413TIP3    H161730   4.655   3.698   1.806  1.1630  2.2325 -2.0705
13413TIP3    H261731   4.659   3.760   1.943 -0.6747 -1.5005 -0.1706
13414TIP3   OH261732   5.764   3.216   1.578  0.2611  0.5472 -0.3015
13414TIP3    H161733   5.671   3.209   1.601  0.2547  0.2378 -0.4117
13414TIP3    H261734   5.765   3.206   1.482  0.2125  2.4960 -0.5539
13415TIP3   OH261735   1.505   4.213  14.443 -0.6987 -0.5688  0.0915
13415TIP3    H161736   1.501   4.296  14.489 -1.6944 -0.2960 -0.4535
13415TIP3    H261737   1.478   4.148  14.508  0.6888 -0.5687  0.7013
13416TIP3   OH261738   5.668   1.883  13.578  0.4105 -0.1840  0.0294
13416TIP3    H161739   5.638   1.863  13.489  0.6435 -2.2462  0.3656
13416TIP3    H261740   5.763   1.893  13.570  0.3292  0.5771 -0.0849
13417TIP3   OH261741   5.807   0.916  11.151 -0.0988  0.5609 -0.2201
13417TIP3    H161742   5.724   0.948  11.186  0.0544  0.0633  0.6162
13417TIP3    H261743   5.782   0.861  11.077 -0.5723 -0.1837  0.4763
13418TIP3   OH261744   4.205   4.226   2.613  0.0810 -0.7281 -0.3864
13418TIP3    H161745   4.231   4.236   2.521  1.1827  0.2912  0.0096
13418TIP3    H261746   4.238   4.140   2.638  1.5479 -0.2061 -0.4170
13419TIP3   OH261747   2.259   6.242   5.841  0.7293  0.2662 -0.0491
13419TIP3    H161748   2.316   6.173   5.874  0.5361 -0.5340 -1.3044
13419TIP3    H261749   2.244   6.218   5.750 -0.2761  1.3611 -0.1885
13420TIP3   OH261750   3.505   0.649  16.302  0.4855 -0.0717 -0.1180
13420TIP3    H161751   3.590   0.603  16.303  0.8117  0.4239 -1.7572
13420TIP3    H261752   3.527   0.740  16.283 -0.3744  0.2013  0.1467
13421TIP3   OH261753   4.800   4.138  11.772 -0.5667  0.0536 -0.6852
13421TIP3    H161754   4.876   4.176  11.727 -0.6144 -1.5287 -2.2059
13421TIP3    H261755   4.836   4.063  11.818 -0.5485  1.5647  1.9591
13422TIP3   OH261756   6.391   6.672   0.606  0.2042 -0.3603  0.6001
13422TIP3    H161757   6.381   6.577   0.614 -1.0213 -0.2442  0.6542
13422TIP3    H261758   6.306   6.707   0.633  0.7683  0.7773  0.9644
13423TIP3   OH261759   4.034   3.766   5.361  0.0814 -0.0975 -0.1706
13423TIP3    H161760   4.111   3.819   5.343  0.3826 -0.3031  0.4793
13423TIP3    H261761   3.978   3.776   5.284  0.1484  1.1410 -0.0692
13424TIP3   OH261762   5.436   0.915   5.090  0.1073 -0.1336  0.0916
13424TIP3    H161763   5.438   0.830   5.133  2.6448 -0.3146 -0.2219
13424TIP3    H261764   5.363   0.961   5.130  1.2808 -0.8862  3.4274
13425TIP3   OH261765   0.525   2.537   1.391  0.4883 -0.7199  0.0191
13425TIP3    H161766   0.472   2.478   1.444 -1.4949  1.4593  0.6327
13425TIP3    H261767   0.514   2.505   1.301 -2.3685 -0.0607  0.0599
13426TIP3   OH261768   3.208   3.433  16.857  0.0467  0.2319  0.1705
13426TIP3    H161769   3.276   3.396  16.913 -0.0307  0.9351  0.7319
13426TIP3    H261770   3.145   3.471  16.917  0.0944  1.2247 -0.3972
13427TIP3   OH261771   6.429   2.892   1.088 -0.0818 -0.0943 -0.0765
13427TIP3    H161772   6.427   2.923   1.179 -0.2628 -1.6693  0.4822
13427TIP3    H261773   6.510   2.929   1.052  0.0571  0.4431  0.7610
13428TIP3   OH261774   3.600   3.698  16.334 -0.3713 -0.3569  0.3588
13428TIP3    H161775   3.531   3.687  16.269 -0.1557 -2.2109  0.4141
13428TIP3    H261776   3.587   3.788  16.366 -1.1262  0.2309 -1.4563
13429TIP3   OH261777   5.342   3.324   0.720  0.0858 -0.2300  0.5221
13429TIP3    H161778   5.305   3.274   0.793  1.8847 -0.8241  1.0849
13429TIP3    H261779   5.358   3.259   0.652  0.8686 -0.1438  0.6156
13430TIP3   OH261780   5.608   1.972  16.182 -0.6194 -0.5109  0.6309
13430TIP3    H161781   5.627   1.879  16.183 -0.8876 -0.5712  0.2372
13430TIP3    H261782   5.523   1.980  16.224  0.2624 -0.2327  2.4547
13431TIP3   OH261783   3.835   1.918  14.102 -0.1407  0.1180 -0.3252
13431TIP3    H161784   3.874   2.005  14.113  0.7127 -0.2545 -0.3373
13431TIP3    H261785   3.778   1.927  14.026  0.1042  0.6176 -0.4577
13432TIP3   OH261786   2.412   1.269   3.165 -0.6942 -0.1073 -0.4588
13432TIP3    H161787   2.458   1.245   3.085  0.7722  0.3841  0.2027
13432TIP3    H261788   2.319   1.261   3.142 -0.3356 -2.8781 -1.2961
13433TIP3   OH261789   4.083   3.795  12.966  0.0884 -0.3445 -0.2233
13433TIP3    H161790   4.036   3.860  12.915 -0.2875  0.7397  1.4450
13433TIP3    H261791   4.167   3.785  12.920  0.3199  1.6065 -0.2942
13434TIP3   OH261792   2.448   2.677   4.840 -0.1072 -0.7590  0.5739
13434TIP3    H161793   2.505   2.668   4.916  1.7050 -1.8586 -0.8480
13434TIP3    H261794   2.430   2.587   4.813 -0.4893 -0.3758 -0.4872
13435TIP3   OH261795   3.336   4.024  12.357 -0.7257  0.9696 -0.0445
13435TIP3    H161796   3.363   4.064  12.274 -2.8641  1.0071 -0.7836
13435TIP3    H261797   3.380   3.939  12.358 -0.7782  0.8995 -1.3133
13436TIP3   OH261798   1.699   2.821  13.323  0.0851  0.3886 -0.1043
13436TIP3    H161799   1.777   2.789  13.370  0.0025 -1.5801 -1.1624
13436TIP3    H261800   1.731   2.839  13.235 -0.6402 -0.5612 -0.5857
13437TIP3   OH261801   0.563   1.634  12.703  1.0250 -0.1872 -0.0419
13437TIP3    H161802   0.619   1.613  12.628 -3.2517 -1.2885 -3.2814
13437TIP3    H261803   0.535   1.724  12.687  1.7274  0.3604  1.5541
13438TIP3   OH261804   6.495   1.062  14.084 -0.7293  0.4827 -0.2281
13438TIP3    H161805   6.547   1.026  14.012  0.6374  1.9118 -0.0271
13438TIP3    H261806   6.413   1.014  14.082 -0.3294 -0.1862 -2.1203
13439TIP3   OH261807   0.078   1.638  16.526 -0.3892  0.1269  0.0885
13439TIP3    H161808   0.076   1.544  16.505  0.0410 -0.0372  0.7378
13439TIP3    H261809   0.017   1.648  16.599 -0.1973  0.2858  0.2323
13440TIP3   OH261810   3.525   5.824   5.555  0.0758 -0.2724  0.0294
13440TIP3    H161811   3.619   5.824   5.573 -0.0118 -0.3890  0.4952
13440TIP3    H261812   3.496   5.912   5.577  0.2411  0.0723 -1.0414
13441TIP3   OH261813   1.186   2.893  13.511  0.2314 -0.1821  0.1359
13441TIP3    H161814   1.255   2.862  13.453  0.6363  2.3645 -0.8765
13441TIP3    H261815   1.228   2.960  13.565 -1.5521  2.1491 -1.1791
13442TIP3   OH261816   4.754   4.421  14.504  0.2395 -0.3898  0.3783
13442TIP3    H161817   4.763   4.398  14.597 -0.3813 -2.1095  0.0449
13442TIP3    H261818   4.692   4.357  14.469  1.4889 -0.6368 -1.5322
13443TIP3   OH261819   2.564   6.266   4.535 -0.2101 -0.2256  0.1304
13443TIP3    H161820   2.509   6.207   4.587 -0.3141 -0.2481 -0.0059
13443TIP3    H261821   2.588   6.335   4.596 -2.0254  0.8609 -0.3048
13444TIP3   OH261822   6.292   2.160  14.166  0.4782  0.2011 -0.9488
13444TIP3    H161823   6.388   2.155  14.172  0.5646  1.7433 -0.6571
13444TIP3    H261824   6.275   2.226  14.099 -0.3681  0.6757 -0.2846
13445TIP3   OH261825   4.437   6.147  12.339  0.8356 -0.1495 -0.7225
13445TIP3    H161826   4.514   6.129  12.392  0.9773 -2.2099 -1.5259
13445TIP3    H261827   4.368   6.166  12.402  1.3379 -1.1543  0.1553
13446TIP3   OH261828   0.505   0.672   4.787  0.0689 -0.0362 -0.3482
13446TIP3    H161829   0.516   0.589   4.833  1.0207 -0.1081 -0.6862
13446TIP3    H261830   0.513   0.650   4.695  2.4217  0.6926 -0.3880
13447TIP3   OH261831   3.367   4.019   3.339 -0.5253 -0.2658 -0.0588
13447TIP3    H161832   3.328   3.973   3.413  0.4600 -1.8288 -0.4591
13447TIP3    H261833   3.435   4.074   3.378 -0.8721 -0.1028  0.3187
13448TIP3   OH261834   1.238   0.759   3.922 -0.3807  0.1863  0.5987
13448TIP3    H161835   1.251   0.671   3.956  0.6192 -0.1803 -0.6733
13448TIP3    H261836   1.312   0.775   3.864 -1.0812  1.4633 -0.0122
13449TIP3   OH261837   2.619   4.074   0.588  1.0697  0.1207  0.0761
13449TIP3    H161838   2.655   3.992   0.623  0.7125  0.4314  1.2409
13449TIP3    H261839   2.527   4.055   0.573  1.5698 -0.5894 -2.6395
13450TIP3   OH261840   5.863   1.070  13.976 -0.4135  0.5273 -0.1893
13450TIP3    H161841   5.945   1.116  13.955  1.1456 -2.5330 -1.3225
13450TIP3    H261842   5.874   1.044  14.068  0.6042 -1.1087 -0.7346
13451TIP3   OH261843   6.547   3.503  11.244 -0.3123 -0.3073 -0.2649
13451TIP3    H161844   6.549   3.594  11.273  0.8066  0.1339 -1.6531
13451TIP3    H261845   6.567   3.506  11.151  0.5554 -2.0414 -0.1730
13452TIP3   OH261846   5.050   0.485   5.089  0.0934 -0.2115 -0.1052
13452TIP3    H161847   5.062   0.575   5.058  0.2072 -0.0535  0.3860
13452TIP3    H261848   5.118   0.435   5.044  0.1714 -0.0079 -0.2150
13453TIP3   OH261849   2.120   3.013   5.624  0.2637  0.5435 -0.1748
13453TIP3    H161850   2.215   2.998   5.616  0.4029  1.4321 -0.3083
13453TIP3    H261851   2.089   3.018   5.533 -0.3019 -1.9011 -0.1836
13454TIP3   OH261852   4.160   5.170   2.341 -0.5205 -0.2681 -0.0822
13454TIP3    H161853   4.215   5.156   2.418 -1.5511  0.2520  0.7767
13454TIP3    H261854   4.181   5.260   2.313 -0.3581 -0.3546 -0.2431
13455TIP3   OH261855   5.485   6.434  10.275  0.1306  0.2065 -0.1631
13455TIP3    H161856   5.412   6.384  10.236 -0.2317 -0.2347  1.0323
13455TIP3    H261857   5.444   6.490  10.341  0.7488  0.8105 -0.2773
13456TIP3   OH261858   3.658   4.962  12.469 -0.1803 -0.5132 -0.0308
13456TIP3    H161859   3.654   4.879  12.421 -0.4612 -0.3944 -0.2153
13456TIP3    H261860   3.601   4.948  12.546  1.5263 -1.2622  1.1545
13457TIP3   OH261861   3.593   6.506   3.342  0.1086 -0.1089 -0.4207
13457TIP3    H161862   3.602   6.580   3.282  1.0339  0.1003 -0.0398
13457TIP3    H261863   3.683   6.483   3.366 -0.2460 -0.0284  1.0767
13458TIP3   OH261864   3.390   4.922   6.222  0.2471 -0.5112 -0.3036
13458TIP3    H161865   3.317   4.983   6.210  1.4505  0.8608 -1.0124
13458TIP3    H261866   3.354   4.852   6.276 -1.7717 -0.2203 -1.1730
13459TIP3   OH261867   0.360   3.018  15.276  0.2276  0.0933 -0.0754
13459TIP3    H161868   0.360   2.928  15.244 -0.6569  0.8781 -2.5852
13459TIP3    H261869   0.449   3.050  15.260  0.7801 -0.5349  1.5901
13460TIP3   OH261870   2.354   2.853  12.329  0.0410 -0.4409 -0.7149
13460TIP3    H161871   2.330   2.786  12.265 -0.7422  1.0793 -2.1053
13460TIP3    H261872   2.279   2.860  12.387  0.0588 -0.6485 -0.6653
13461TIP3   OH261873   4.525   2.987  15.810 -0.3298  0.1841  0.4280
13461TIP3    H161874   4.607   3.033  15.827 -0.5392  0.3045  1.1493
13461TIP3    H261875   4.540   2.899  15.845  0.3347 -0.5663 -1.6015
13462TIP3   OH261876   5.702   1.909   0.313  0.1568  0.4520 -0.3687
13462TIP3    H161877   5.674   1.878   0.399  1.1426 -2.5641 -1.0062
13462TIP3    H261878   5.726   2.001   0.327  3.3279 -0.6874  3.3975
13463TIP3   OH261879   1.837   4.317   5.225 -0.4330  0.4948  0.2255
13463TIP3    H161880   1.812   4.253   5.292  0.2349  1.3191  1.2933
13463TIP3    H261881   1.932   4.325   5.234 -0.5448  1.8838  0.3543
13464TIP3   OH261882   5.270   5.957  15.635 -0.2608  0.2328 -1.0888
13464TIP3    H161883   5.225   6.011  15.570  0.0004  0.3433 -1.1793
13464TIP3    H261884   5.202   5.900  15.670 -1.3746  2.8147  1.4040
13465TIP3   OH261885   2.129   2.732   2.371  0.1453  0.0159 -0.4528
13465TIP3    H161886   2.122   2.827   2.361  2.7364  0.1501 -1.9683
13465TIP3    H261887   2.181   2.720   2.450 -0.2040 -0.1222 -0.2478
13466TIP3   OH261888   1.614   3.352   5.834  0.3036 -0.0524 -0.1740
13466TIP3    H161889   1.553   3.419   5.803  0.7617  0.4254 -0.0396
13466TIP3    H261890   1.605   3.281   5.770 -1.0663 -0.3786  0.3358
13467TIP3   OH261891   5.365   6.571   2.458 -0.2966  0.1694 -0.2284
13467TIP3    H161892   5.307   6.637   2.421  0.0551 -0.7722 -2.6668
13467TIP3    H261893   5.451   6.592   2.423  0.0942 -0.7097  0.1579
13468TIP3   OH261894   4.529   6.454   0.106 -0.3599 -0.0785 -0.3344
13468TIP3    H161895   4.502   6.523   0.045 -0.9048  0.7355  0.7790
13468TIP3    H261896   4.478   6.377   0.079 -1.3886  0.5560 -0.2807
13469TIP3   OH261897   1.130   2.161   2.703  0.4351 -0.0832  0.5127
13469TIP3    H161898   1.195   2.212   2.655  0.5170  0.2833  1.0103
13469TIP3    H261899   1.113   2.085   2.647  0.2436  0.5309 -0.2773
13470TIP3   OH261900   5.422   3.253  16.287 -0.5478 -0.4851 -0.0438
13470TIP3    H161901   5.427   3.183  16.353  0.4681  1.6663  2.3639
13470TIP3    H261902   5.342   3.236  16.239 -1.5552 -2.0245  2.0300
13471TIP3   OH261903   6.347   2.928  11.312  0.1119 -0.4236 -0.3090
13471TIP3    H161904   6.261   2.965  11.291  1.2184  2.4447 -0.1997
13471TIP3    H261905   6.396   2.932  11.230  0.7472 -0.2021  0.0728
13472TIP3   OH261906   2.750   6.509   3.744 -0.1067 -0.0937  0.5976
13472TIP3    H161907   2.674   6.454   3.727 -1.2285  1.2199  1.1745
13472TIP3    H261908   2.717   6.579   3.801  1.3174  1.0046  0.1367
13473TIP3   OH261909   0.884   4.856   6.704  0.6941 -0.2946 -0.6918
13473TIP3    H161910   0.793   4.829   6.691  0.6322 -0.5853  0.2901
13473TIP3    H261911   0.934   4.775   6.704  0.6374 -0.3752  1.1863
13474TIP3   OH261912   4.871   5.853  12.940 -0.2711  0.3975  0.2697
13474TIP3    H161913   4.888   5.765  12.907 -1.2271  0.4325 -0.3783
13474TIP3    H261914   4.775   5.857  12.945 -0.2419  1.4816  0.0481
13475TIP3   OH261915   5.142   3.827   1.475 -0.3826 -0.3963  0.5570
13475TIP3    H161916   5.097   3.889   1.532  0.1374  0.5485 -0.0187
13475TIP3    H261917   5.217   3.797   1.527  0.8432  1.4573 -0.0233
13476TIP3   OH261918   5.512   1.710  15.596  0.1593  0.0889 -0.5017
13476TIP3    H161919   5.531   1.789  15.647 -0.8586  0.2610 -0.3579
13476TIP3    H261920   5.430   1.731  15.551 -2.5217 -2.2738  2.7244
13477TIP3   OH261921   1.835   0.942   5.328  0.4015 -0.1540 -0.4094
13477TIP3    H161922   1.744   0.914   5.319 -0.1093  1.3474 -0.1366
13477TIP3    H261923   1.830   1.023   5.379  1.8475  0.2580 -0.8848
13478TIP3   OH261924   0.275   3.177   2.178  0.5630 -0.0575  0.2452
13478TIP3    H161925   0.297   3.261   2.138 -0.4949 -0.3723 -1.1108
13478TIP3    H261926   0.343   3.117   2.146  1.1452  0.2075  0.9684
13479TIP3   OH261927   2.467   0.520  16.776  0.0390 -0.0363  0.3756
13479TIP3    H161928   2.478   0.603  16.729 -0.1853  0.6598  1.5100
13479TIP3    H261929   2.375   0.497  16.763  0.0688 -0.0385  0.1663
13480TIP3   OH261930   6.070   3.954  16.213 -0.1678  0.1263  0.3641
13480TIP3    H161931   6.011   4.026  16.237 -0.6628  0.2144 -1.0029
13480TIP3    H261932   6.136   3.994  16.156 -1.7045 -0.7736 -2.2650
13481TIP3   OH261933   1.240   0.414  11.012 -0.3965  0.3488  0.3514
13481TIP3    H161934   1.218   0.336  10.960 -0.3063 -0.4828  1.5169
13481TIP3    H261935   1.160   0.467  11.009  0.2769  1.4031 -2.4018
13482TIP3   OH261936   0.346   3.905   5.292 -0.0256 -0.3085  0.4693
13482TIP3    H161937   0.413   3.838   5.308 -0.3221 -0.3049  1.8066
13482TIP3    H261938   0.359   3.929   5.200  0.6446 -1.5847  0.1942
13483TIP3   OH261939   5.145   4.201  10.964  0.3259  0.4920  0.7150
13483TIP3    H161940   5.069   4.256  10.943 -0.8280 -0.5303  1.9521
13483TIP3    H261941   5.182   4.177  10.880 -0.8317  0.8821  0.0751
13484TIP3   OH261942   3.666   2.267   3.769 -0.3285 -0.2356 -0.0068
13484TIP3    H161943   3.694   2.321   3.843  1.5243 -0.5746 -0.4279
13484TIP3    H261944   3.654   2.180   3.806 -1.5421  0.0287  0.2948
13485TIP3   OH261945   1.323   4.869   0.495  0.6933  0.2445 -0.0894
13485TIP3    H161946   1.246   4.900   0.544  1.1900 -1.9418  2.2387
13485TIP3    H261947   1.306   4.897   0.404 -1.2657  2.6497  0.8961
13486TIP3   OH261948   5.841   5.836  12.727 -0.4171  0.1645 -0.0766
13486TIP3    H161949   5.883   5.919  12.703  1.0407 -0.6844 -0.5735
13486TIP3    H261950   5.901   5.769  12.695 -0.9443 -1.0822  1.4427
13487TIP3   OH261951   4.443   0.779  16.233 -0.0722 -0.2045  0.0321
13487TIP3    H161952   4.364   0.726  16.250 -0.9446  0.4161 -1.7962
13487TIP3    H261953   4.506   0.717  16.197 -0.5692 -0.2757 -0.7256
13488TIP3   OH261954   4.292   2.230   2.521  0.0093 -0.8584  0.1191
13488TIP3    H161955   4.375   2.184   2.513  0.3934 -0.1871  0.1446
13488TIP3    H261956   4.242   2.179   2.585  0.8427 -0.6513  0.9623
13489TIP3   OH261957   2.025   2.294  12.431  0.4165 -0.1560  0.6674
13489TIP3    H161958   1.960   2.259  12.492 -1.6303 -0.4875 -1.5608
13489TIP3    H261959   2.014   2.389  12.437 -0.6661 -0.2108  0.0073
13490TIP3   OH261960   2.834   2.899   3.654 -0.0547 -0.3638  0.0775
13490TIP3    H161961   2.820   2.808   3.631  0.9645 -0.7266  0.8146
13490TIP3    H261962   2.901   2.897   3.722 -0.3432  0.9048  0.4361
13491TIP3   OH261963   3.489   1.789   2.626  0.4109 -0.6166  0.6946
13491TIP3    H161964   3.436   1.822   2.554  0.7968  1.2504  1.1949
13491TIP3    H261965   3.573   1.767   2.586 -0.2851 -2.3569  0.1229
13492TIP3   OH261966   0.753   5.764   4.155  0.3539 -0.9190  0.0359
13492TIP3    H161967   0.806   5.684   4.151  0.5934 -0.7626  0.0221
13492TIP3    H261968   0.663   5.733   4.164  0.4138 -1.1922 -0.3045
13493TIP3   OH261969   0.471   2.983  12.837  0.4177  0.3817  0.2008
13493TIP3    H161970   0.515   2.955  12.917  1.4689  1.6952  0.1200
13493TIP3    H261971   0.416   3.056  12.865  2.8549  2.7055 -0.6338
13494TIP3   OH261972   6.734   0.377   2.348  0.3564 -0.2439 -0.0277
13494TIP3    H161973   6.695   0.451   2.395 -0.9020 -1.2967  0.6513
13494TIP3    H261974   6.772   0.416   2.269 -1.4926  0.9561 -0.3822
13495TIP3   OH261975   5.490   1.075   5.966  0.2594  0.3526  0.0162
13495TIP3    H161976   5.487   1.040   6.055  0.0217 -2.4475 -1.0097
13495TIP3    H261977   5.485   1.170   5.978 -0.8814  0.0323  2.9204
13496TIP3   OH261978   0.979   5.942  13.302  0.1475 -0.1585  0.0002
13496TIP3    H161979   0.906   5.998  13.327 -0.1357  0.1033 -1.3658
13496TIP3    H261980   1.043   6.001  13.263  0.7406 -0.5080  0.4166
13497TIP3   OH261981   6.596   4.277   5.042  0.7602  0.5709 -0.2723
13497TIP3    H161982   6.653   4.242   5.111  0.5628  0.0019 -0.3903
13497TIP3    H261983   6.597   4.372   5.055 -1.1365  0.3816  2.0055
13498TIP3   OH261984   3.267   6.205  13.128  0.4774 -0.0054 -0.3780
13498TIP3    H161985   3.225   6.137  13.181  3.1310 -1.6845 -0.2334
13498TIP3    H261986   3.267   6.168  13.039  0.6659  0.4622 -0.5738
13499TIP3   OH261987   1.782   1.381   2.040  0.0071  0.3248 -0.2923
13499TIP3    H161988   1.726   1.420   2.106  0.5739  0.6761 -0.0136
13499TIP3    H261989   1.724   1.365   1.966 -0.2438  1.7518 -0.4416
13500TIP3   OH261990   0.450   4.265  11.961  0.1244  0.5748  0.7846
13500TIP3    H161991   0.492   4.242  12.044  0.2675  1.4010  0.9501
13500TIP3    H261992   0.517   4.314  11.913  0.3597 -0.6795 -0.2162
13501TIP3   OH261993   5.590   2.894  13.394 -0.0887 -0.4815  0.1787
13501TIP3    H161994   5.503   2.932  13.406 -0.6903 -1.8677  0.3800
13501TIP3    H261995   5.587   2.854  13.307  0.0949 -1.1562  0.4752
13502TIP3   OH261996   3.941   6.399  15.698 -0.0574  0.2761  0.1253
13502TIP3    H161997   3.958   6.466  15.764 -1.2191  0.4728  0.2471
13502TIP3    H261998   3.861   6.355  15.728 -1.6633  1.5089 -1.9721
13503TIP3   OH261999   1.571   0.848   2.714  0.5764  0.0885  0.4332
13503TIP3    H162000   1.640   0.834   2.649  3.1891  0.5386  2.8822
13503TIP3    H262001   1.531   0.931   2.689 -1.1598 -1.4690 -2.6129
13504TIP3   OH262002   2.679   1.658   0.725  0.2657  0.3372 -0.4033
13504TIP3    H162003   2.620   1.720   0.682 -0.6713 -0.9698 -1.0710
13504TIP3    H262004   2.624   1.613   0.789 -0.1065 -2.3595 -2.4445
13505TIP3   OH262005   3.508   1.885  14.525  0.4150 -0.1398 -0.3046
13505TIP3    H162006   3.443   1.834  14.575  1.8072  0.2826  2.0711
13505TIP3    H262007   3.542   1.823  14.460  0.3148 -1.5083  0.9040
13506TIP3   OH262008   1.520   1.577   3.775 -0.4588 -0.4636  0.7760
13506TIP3    H162009   1.572   1.524   3.835 -0.7727 -1.8407 -0.1245
13506TIP3    H262010   1.527   1.532   3.691 -2.5209 -0.3125  0.4676
13507TIP3   OH262011   2.792   5.796  15.705 -0.2132  0.0724  0.3803
13507TIP3    H162012   2.826   5.804  15.616 -1.2337 -2.0709 -0.2891
13507TIP3    H262013   2.760   5.883  15.727  1.4345  1.0040 -0.7406
13508TIP3   OH262014   2.376   1.100   1.031  0.1136  0.0361 -0.5484
13508TIP3    H162015   2.420   1.120   1.113 -0.3493  2.1896 -0.7654
13508TIP3    H262016   2.434   1.039   0.986 -0.3689 -2.5297  2.0078
13509TIP3   OH262017   2.912   3.013   5.635 -0.0117 -0.1645  0.4647
13509TIP3    H162018   2.897   2.923   5.665  1.0607 -0.3871  0.3749
13509TIP3    H262019   3.007   3.021   5.631 -0.1088  0.7410 -0.2569
13510TIP3   OH262020   4.320   6.770  12.254 -0.3371 -0.1721 -0.1934
13510TIP3    H162021   4.281   6.688  12.283  1.4385 -1.5017 -1.3669
13510TIP3    H262022   4.362   6.806  12.333 -0.1014 -1.0013  0.0656
13511TIP3   OH262023   3.354   1.038  11.997 -0.0969  0.1681 -0.1053
13511TIP3    H162024   3.352   1.027  11.902  1.7333 -1.3622 -0.0281
13511TIP3    H262025   3.446   1.029  12.020 -0.0614  3.3594  1.5725
13512TIP3   OH262026   1.980   3.119   3.869 -0.1451  0.0002 -0.1816
13512TIP3    H162027   2.004   3.079   3.953 -1.1907 -1.4379 -0.5333
13512TIP3    H262028   1.970   3.212   3.889 -0.2607 -0.2977  1.2694
13513TIP3   OH262029   3.165   4.097   6.614  0.6773 -0.3352  0.0803
13513TIP3    H162030   3.246   4.070   6.657  0.0734 -1.6746  0.4438
13513TIP3    H262031   3.113   4.016   6.608 -1.2717  0.7590  1.2459
13514TIP3   OH262032   5.639   1.506   0.261  0.3651  0.4569  0.4461
13514TIP3    H162033   5.703   1.440   0.287  1.3051  1.7998  1.6830
13514TIP3    H262034   5.687   1.563   0.201  0.2588  1.2921  1.1356
13515TIP3   OH262035   2.187   5.669  13.321  0.3622  0.1954 -0.4335
13515TIP3    H162036   2.128   5.597  13.296 -1.5693  1.3789  0.5415
13515TIP3    H262037   2.262   5.625  13.361  0.2612 -1.3666 -1.8233
13516TIP3   OH262038   2.476   4.774   4.289 -0.4409  0.1313  0.4215
13516TIP3    H162039   2.451   4.736   4.373 -1.8014  0.8282  0.3559
13516TIP3    H262040   2.401   4.758   4.232  0.3974 -0.1854 -0.6281
13517TIP3   OH262041   3.194   5.297  14.445 -0.3221 -0.1179  0.2140
13517TIP3    H162042   3.272   5.336  14.485  0.0033 -0.6307  0.0887
13517TIP3    H262043   3.214   5.294  14.351 -0.7444  0.3170  0.1081
13518TIP3   OH262044   6.730   0.455   3.344 -0.4678 -0.3958  0.1283
13518TIP3    H162045   6.650   0.494   3.308 -0.3989  1.0740  1.4909
13518TIP3    H262046   6.748   0.380   3.286 -1.6216  0.5114 -1.4828
13519TIP3   OH262047   2.251   1.316  12.371 -0.7963  0.6498 -0.6613
13519TIP3    H162048   2.180   1.285  12.427 -1.4736  1.5513 -0.9930
13519TIP3    H262049   2.330   1.292  12.418 -1.3238  0.0379 -0.0553
13520TIP3   OH262050   0.323   0.862  11.970 -0.0626 -1.0764 -0.4568
13520TIP3    H162051   0.278   0.802  12.028  0.6013 -0.1022  1.1186
13520TIP3    H262052   0.328   0.944  12.018  0.6087 -0.2532 -1.8484
13521TIP3   OH262053   5.480   1.950  13.351  0.2675 -0.0493  0.3969
13521TIP3    H162054   5.534   1.947  13.271 -1.2211 -0.2549 -0.6452
13521TIP3    H262055   5.493   2.038  13.385 -2.0910  1.5421 -2.3468
13522TIP3   OH262056   4.372   1.608   5.880 -0.7295  0.2695 -0.0554
13522TIP3    H162057   4.399   1.573   5.795  0.1719  0.6145  0.0749
13522TIP3    H262058   4.379   1.703   5.870 -2.3142  0.4112 -0.1372
13523TIP3   OH262059   3.081   6.316   1.750 -0.3137  0.1180 -0.2000
13523TIP3    H162060   3.176   6.327   1.746 -0.0629 -1.7159  0.0761
13523TIP3    H262061   3.046   6.395   1.708  1.3317  0.4959 -0.9296
13524TIP3   OH262062   2.914   2.331  14.516  0.1613 -0.1240 -0.1069
13524TIP3    H162063   2.893   2.335  14.422  0.5205  1.1908 -0.1467
13524TIP3    H262064   2.830   2.340  14.560  0.1158  0.4163 -0.2994
13525TIP3   OH262065   3.315   3.757   4.678  0.3893 -0.2355 -0.0575
13525TIP3    H162066   3.343   3.716   4.759  2.9883  0.7965 -0.3426
13525TIP3    H262067   3.388   3.813   4.652 -1.3944  1.4842 -1.7635
13526TIP3   OH262068   6.323   6.119   1.698  0.2924  0.1677 -0.4579
13526TIP3    H162069   6.410   6.094   1.668  0.0846  1.2319 -2.0926
13526TIP3    H262070   6.311   6.208   1.665 -1.4851 -0.0341 -0.4532
13527TIP3   OH262071   1.033   1.610  14.330  0.6326 -0.4281  0.6967
13527TIP3    H162072   0.981   1.685  14.358  0.3433 -0.4750  0.2951
13527TIP3    H262073   1.109   1.648  14.286 -0.6194 -0.3419 -1.5424
13528TIP3   OH262074   0.319   1.241  13.716 -1.1899  0.0791  0.2159
13528TIP3    H162075   0.354   1.326  13.743  0.5618 -0.6841  0.4920
13528TIP3    H262076   0.250   1.222  13.780 -0.9293  0.8379  0.7380
13529TIP3   OH262077   4.228   1.728   0.949  0.0964  0.8142 -0.1236
13529TIP3    H162078   4.167   1.661   0.917  1.6610 -0.3407 -0.8763
13529TIP3    H262079   4.179   1.810   0.945 -0.8240  0.2445 -2.5592
13530TIP3   OH262080   6.243   2.896  15.989  0.0297  0.0937 -0.8588
13530TIP3    H162081   6.250   2.864  15.899  0.2036 -0.5488 -0.6269
13530TIP3    H262082   6.270   2.987  15.985  1.9028 -0.4286 -1.1573
13531TIP3   OH262083   0.881   3.456  13.584  0.0291  0.0455  0.3182
13531TIP3    H162084   0.949   3.399  13.547 -1.6360 -0.7988 -1.6787
13531TIP3    H262085   0.901   3.542  13.549 -0.6657 -0.4742 -1.5164
13532TIP3   OH262086   1.922   5.915   3.337 -0.0922 -0.0316 -0.4972
13532TIP3    H162087   1.859   5.843   3.341  0.7418 -0.8469 -1.4918
13532TIP3    H262088   1.907   5.953   3.250 -0.6245  1.1077  0.0769
13533TIP3   OH262089   6.458   2.528   2.011  0.0531  0.7549  0.3471
13533TIP3    H162090   6.421   2.503   2.095 -0.6895 -1.2831 -0.5349
13533TIP3    H262091   6.537   2.577   2.034  0.3715 -0.5212  2.2484
13534TIP3   OH262092   4.912   6.559   6.225 -0.3157  0.3104  0.0651
13534TIP3    H162093   4.876   6.626   6.282  1.5704  1.8410 -0.3995
13534TIP3    H262094   4.960   6.500   6.284 -0.6046  0.3201  0.3117
13535TIP3   OH262095   0.945   3.711  16.066  0.1103 -0.0714  0.1801
13535TIP3    H162096   0.876   3.776  16.059  0.5341  0.3061 -0.6021
13535TIP3    H262097   1.001   3.743  16.137 -1.1455 -1.0028  1.6549
13536TIP3   OH262098   3.111   3.453   5.059 -0.0624 -0.1286  0.5093
13536TIP3    H162099   3.173   3.461   5.131  0.8736  0.2014 -0.3054
13536TIP3    H262100   3.050   3.526   5.071  1.0091  0.8611  0.1141
13537TIP3   OH262101   6.469   1.430  16.823  0.2732  0.9210 -0.2785
13537TIP3    H162102   6.456   1.516  16.861 -0.5173  0.5001  0.4417
13537TIP3    H262103   6.477   1.446  16.729 -0.7614  1.6918 -0.2524
13538TIP3   OH262104   0.511   3.749  14.949 -0.2755 -0.1578 -0.0675
13538TIP3    H162105   0.471   3.836  14.939 -0.4253 -0.3358 -1.0512
13538TIP3    H262106   0.602   3.761  14.921 -0.7619 -0.7117 -2.0169
13539TIP3   OH262107   6.445   0.378  14.851 -0.4015 -0.0149 -0.0334
13539TIP3    H162108   6.488   0.338  14.776  0.4938  0.4678  0.2074
13539TIP3    H262109   6.381   0.438  14.813  1.9486  2.3664 -0.5414
13540TIP3   OH262110   2.582   4.974  13.238  0.3857 -0.0606  0.3040
13540TIP3    H162111   2.572   5.040  13.306 -0.8389  0.1497 -0.0545
13540TIP3    H262112   2.663   4.927  13.261 -0.3373 -0.4307  2.2524
13541TIP3   OH262113   2.670   6.152   1.081 -0.0793 -0.2357  0.3961
13541TIP3    H162114   2.635   6.198   1.157 -1.3569 -0.8574  0.2172
13541TIP3    H262115   2.663   6.214   1.009 -0.7756 -0.3235  0.3807
13542TIP3   OH262116   2.824   0.677   1.071  0.5434  0.1377  0.5088
13542TIP3    H162117   2.811   0.771   1.087  0.1436 -0.0752  1.4745
13542TIP3    H262118   2.907   0.672   1.024  1.0275  0.9034  1.2602
13543TIP3   OH262119   2.827   2.451  13.951 -0.0148  0.7139 -0.4618
13543TIP3    H162120   2.916   2.486  13.947  0.6147 -0.8640 -1.0422
13543TIP3    H262121   2.790   2.472  13.865 -0.4453  1.8953 -0.0131
13544TIP3   OH262122   5.516   1.727   3.152 -0.0053 -0.0152  0.0279
13544TIP3    H162123   5.591   1.696   3.203 -0.3202 -0.1945  0.3864
13544TIP3    H262124   5.447   1.663   3.169 -0.1728  0.0248 -0.4811
13545TIP3   OH262125   5.123   0.038  15.556 -0.2895  0.1632 -0.1138
13545TIP3    H162126   5.099  -0.054  15.561  0.0974  0.0658  0.0109
13545TIP3    H262127   5.187   0.043  15.484  2.2455 -0.2642  1.9316
13546TIP3   OH262128   3.022   3.982  12.295 -0.7880  0.3255 -1.1913
13546TIP3    H162129   2.952   4.047  12.288  0.3285  1.7297 -0.2174
13546TIP3    H262130   3.090   4.027  12.346  0.3093 -1.4083 -1.0573
13547TIP3   OH262131   3.912   5.258   0.743  0.2467 -0.3396 -0.0566
13547TIP3    H162132   3.859   5.249   0.822  1.4765 -0.7563  0.7564
13547TIP3    H262133   3.928   5.167   0.715  0.0075 -0.2014 -0.6666
13548TIP3   OH262134   1.479   5.509   0.645  0.2092 -0.0591 -0.2621
13548TIP3    H162135   1.405   5.544   0.596 -0.6699 -0.6768  0.5725
13548TIP3    H262136   1.542   5.581   0.650 -0.6309  0.7030 -0.4039
13549TIP3   OH262137   1.049   1.005   5.796 -0.8333  0.3766 -0.0168
13549TIP3    H162138   0.973   1.039   5.843 -0.2412 -1.3541  2.4245
13549TIP3    H262139   1.017   0.989   5.708 -3.2015  0.0898  0.8036
13550TIP3   OH262140   1.350   1.719  15.652 -0.3252 -0.0050 -0.2560
13550TIP3    H162141   1.407   1.689  15.722 -0.4875 -0.0436 -0.1398
13550TIP3    H262142   1.291   1.782  15.693 -2.0671 -1.8236  0.2283
13551TIP3   OH262143   0.408   2.939  11.710  0.2253  0.7160 -0.2769
13551TIP3    H162144   0.410   2.844  11.722 -0.3053  0.6464 -0.6760
13551TIP3    H262145   0.459   2.974  11.783 -1.7175  0.2535  1.4125
13552TIP3   OH262146   4.646   2.700   1.631  0.0397 -0.1447 -0.0422
13552TIP3    H162147   4.713   2.760   1.662  0.7578 -0.7764 -0.3488
13552TIP3    H262148   4.602   2.747   1.560 -2.2483  1.7128  2.3816
13553TIP3   OH262149   1.286   1.735   0.034 -0.4925 -0.2779  0.1211
13553TIP3    H162150   1.266   1.806   0.096  1.5888  1.9753 -1.6066
13553TIP3    H262151   1.380   1.720   0.044 -0.2063 -0.2138 -2.0821
13554TIP3   OH262152   4.410   5.888   1.372 -0.0575  0.0754  0.4163
13554TIP3    H162153   4.423   5.977   1.404  0.0416  0.4820 -0.7384
13554TIP3    H262154   4.355   5.897   1.295 -1.3648 -1.0153  1.1751
13555TIP3   OH262155   3.085   3.462  14.443 -0.3402 -0.8186  0.0461
13555TIP3    H162156   3.028   3.531  14.476  0.0489 -0.3105 -0.3135
13555TIP3    H262157   3.156   3.509  14.399  0.6383 -1.4138  0.9477
13556TIP3   OH262158   2.453   0.126  12.504 -0.1359  0.4535  0.3381
13556TIP3    H162159   2.531   0.138  12.450 -0.2070 -1.3034 -0.2247
13556TIP3    H262160   2.470   0.176  12.583  0.8845  1.3609 -0.4285
13557TIP3   OH262161   6.626   5.865  10.191  0.2959 -0.6162  0.1879
13557TIP3    H162162   6.552   5.922  10.213 -0.1727 -0.4518 -1.6466
13557TIP3    H262163   6.585   5.781  10.170  0.5185 -0.3345 -1.5034
13558TIP3   OH262164   2.442   6.436  16.813 -0.0657  0.4377 -0.2914
13558TIP3    H162165   2.395   6.510  16.853 -2.3157  0.1867 -2.2789
13558TIP3    H262166   2.385   6.407  16.742  2.4160 -0.9632 -1.8444
13559TIP3   OH262167   1.995   0.364   2.989  0.1040 -0.4607 -0.4011
13559TIP3    H162168   2.032   0.276   2.978 -0.5736 -0.6628 -1.1250
13559TIP3    H262169   1.910   0.360   2.946  0.1342  0.5965 -0.5890
13560TIP3   OH262170   6.048   6.461  11.411  0.9849 -0.7246  0.2339
13560TIP3    H162171   5.955   6.440  11.414  0.4863  1.3194  0.7454
13560TIP3    H262172   6.091   6.387  11.454 -0.4887 -1.2297  0.8943
13561TIP3   OH262173   1.966   3.176   5.783 -0.1548 -0.0386  0.8016
13561TIP3    H162174   1.927   3.089   5.776  0.0057 -0.2414  2.1549
13561TIP3    H262175   2.058   3.163   5.760 -0.4868  0.1311 -0.7488
13562TIP3   OH262176   6.723   3.081   6.022  0.3242 -0.0380 -0.5461
13562TIP3    H162177   6.784   3.070   5.950  2.1703  0.5492  0.8542
13562TIP3    H262178   6.766   3.040   6.097 -0.9001  0.5811  0.5474
13563TIP3   OH262179   2.677   5.032  12.462 -0.2466  0.2033 -0.3824
13563TIP3    H162180   2.633   5.021  12.378 -0.0045  1.2413 -0.6623
13563TIP3    H262181   2.622   4.984  12.524  0.0415 -1.3103 -1.2528
13564TIP3   OH262182   6.084   0.597  14.519  0.1272 -0.9630 -0.7783
13564TIP3    H162183   5.994   0.612  14.547  0.6340  1.5185 -0.2689
13564TIP3    H262184   6.103   0.668  14.458  2.1043 -0.7076  0.0651
13565TIP3   OH262185   5.138   2.352  13.697 -0.5104 -0.1533 -0.2839
13565TIP3    H162186   5.214   2.392  13.739 -0.1202  1.0116 -1.9900
13565TIP3    H262187   5.146   2.259  13.718 -0.2256  0.3198  1.9585
13566TIP3   OH262188   6.210   0.599   5.394 -0.2054  0.0665 -0.3644
13566TIP3    H162189   6.181   0.671   5.449 -1.2004 -1.2053  0.8678
13566TIP3    H262190   6.173   0.618   5.308 -0.4535  1.0111 -0.0608
13567TIP3   OH262191   2.937   0.866   5.109  0.7729 -0.3737 -0.6137
13567TIP3    H162192   2.931   0.837   5.017 -3.4497 -0.9095 -0.3494
13567TIP3    H262193   2.870   0.934   5.117  1.0571 -0.3209  2.0927
13568TIP3   OH262194   3.006   1.970  15.685 -0.1542 -0.2604 -0.4456
13568TIP3    H162195   3.023   2.043  15.625  1.3020  0.7122  1.0775
13568TIP3    H262196   3.059   1.898  15.651  1.0580  0.4373 -0.0808
13569TIP3   OH262197   0.155   5.385  11.388  0.6530  0.3846  0.3473
13569TIP3    H162198   0.183   5.359  11.476  0.7228 -0.4153  0.0999
13569TIP3    H262199   0.227   5.358  11.331 -0.5678 -1.7382 -0.3112
13570TIP3   OH262200   6.578   0.216  11.787 -0.3029 -0.6565 -0.2262
13570TIP3    H162201   6.599   0.220  11.694  1.1533  0.4107  0.1095
13570TIP3    H262202   6.629   0.143  11.821 -0.7936 -1.0136 -0.2422
13571TIP3   OH262203   0.719   0.318   5.318 -0.3189  0.0513 -0.6525
13571TIP3    H162204   0.809   0.292   5.299 -0.6493 -0.7799 -1.1474
13571TIP3    H262205   0.685   0.350   5.235 -0.3286  0.8364 -0.3483
13572TIP3   OH262206   0.363   2.780   3.522 -0.2555 -0.5997 -0.9131
13572TIP3    H162207   0.350   2.800   3.614 -1.5896  0.1502 -1.2262
13572TIP3    H262208   0.319   2.695   3.509  0.2891 -0.9068 -0.7881
13573TIP3   OH262209   3.592   1.621  12.767 -0.1810  0.1732 -0.2107
13573TIP3    H162210   3.577   1.546  12.824  0.1566  0.6003  0.4536
13573TIP3    H262211   3.658   1.592  12.705  0.9344  0.3292  0.8735
13574TIP3   OH262212   0.996   4.560  13.330  0.3258 -0.1397  0.4984
13574TIP3    H162213   1.077   4.567  13.280  0.8330  1.7276  1.4947
13574TIP3    H262214   0.944   4.495  13.283  1.6626 -0.0532 -1.1814
13575TIP3   OH262215   2.554   1.943   3.071  0.2667 -0.0302 -0.7682
13575TIP3    H162216   2.489   1.969   3.006 -0.7673 -1.7440 -0.4905
13575TIP3    H262217   2.502   1.913   3.146  1.4236  1.0619  0.5326
13576TIP3   OH262218   1.179   0.845  14.445 -0.1355  0.0823  0.0117
13576TIP3    H162219   1.150   0.877  14.360  0.3255  1.3695  0.3106
13576TIP3    H262220   1.231   0.767  14.425  0.8182  0.9386 -0.9915
13577TIP3   OH262221   5.236   4.935  13.241 -0.9769 -0.1557 -0.2893
13577TIP3    H162222   5.278   5.000  13.185 -0.2784  0.9215  1.4108
13577TIP3    H262223   5.294   4.859  13.238 -1.0803 -0.2100 -1.2005
13578TIP3   OH262224   2.959   1.568  14.087 -0.3567  0.7962 -0.4328
13578TIP3    H162225   2.930   1.477  14.090 -0.4989  0.8413 -0.4331
13578TIP3    H262226   3.047   1.564  14.049 -0.2764  0.6399 -0.2283
13579TIP3   OH262227   6.414   2.451  12.369  0.6006 -0.2419 -0.0872
13579TIP3    H162228   6.501   2.490  12.361  0.9019 -0.2776  2.2442
13579TIP3    H262229   6.393   2.458  12.462 -1.9501 -0.1681 -0.5955
13580TIP3   OH262230   2.963   3.620  16.773  0.1206 -0.2315 -0.2400
13580TIP3    H162231   2.888   3.679  16.771  0.1349  0.0456  2.7369
13580TIP3    H262232   2.970   3.587  16.684 -1.0475  2.7863 -1.5807
13581TIP3   OH262233   4.079   6.309  13.376  0.2254  0.0549 -0.1946
13581TIP3    H162234   3.984   6.298  13.371  0.0494  1.7100 -1.1682
13581TIP3    H262235   4.107   6.321  13.286  1.2563  0.3628  0.1504
13582TIP3   OH262236   6.344   1.912  13.922  0.5020 -0.0757 -0.0902
13582TIP3    H162237   6.359   1.830  13.875  2.1204 -0.1288  0.4773
13582TIP3    H262238   6.370   1.894  14.012 -0.9823  0.5181  0.4952
13583TIP3   OH262239   4.655   1.656  11.809 -0.4500  0.0131 -0.6650
13583TIP3    H162240   4.618   1.710  11.739 -2.3721 -1.7587 -1.1401
13583TIP3    H262241   4.582   1.641  11.869  0.4736 -0.6445  0.3384
13584TIP3   OH262242   3.324   1.940   2.434  0.3519  0.4380 -0.0134
13584TIP3    H162243   3.382   1.994   2.380 -1.3675  0.1244 -2.3611
13584TIP3    H262244   3.247   1.994   2.447  0.3361  0.1178  1.3391
13585TIP3   OH262245   3.858   4.455  12.571 -0.1065 -0.4872 -0.2516
13585TIP3    H162246   3.851   4.395  12.496  0.4666 -0.7268 -0.1244
13585TIP3    H262247   3.889   4.537  12.533 -0.2826 -0.4623 -0.3419
13586TIP3   OH262248   5.849   6.089   2.960  0.4891 -0.0689 -0.1010
13586TIP3    H162249   5.778   6.070   2.900  0.7092 -0.1891 -0.3254
13586TIP3    H262250   5.917   6.129   2.906  0.0993  1.2279  0.3325
13587TIP3   OH262251   3.043   4.556  17.120 -0.1610  0.1303 -0.5881
13587TIP3    H162252   3.071   4.511  17.040  3.1709 -1.4096  1.2224
13587TIP3    H262253   3.112   4.619  17.138 -0.2618 -0.2822  1.5580
13588TIP3   OH262254   6.299   2.946  10.854  0.8517  0.5707 -0.0026
13588TIP3    H162255   6.378   2.950  10.800  0.8585  1.0910  0.0368
13588TIP3    H262256   6.289   2.853  10.875 -1.5743 -0.4562 -4.4232
13589TIP3   OH262257   6.744   1.554   3.449  0.2637 -0.1008  0.3117
13589TIP3    H162258   6.713   1.606   3.375 -0.1356 -0.1885  0.4154
13589TIP3    H262259   6.664   1.523   3.492  0.4054  1.5111  1.8957
13590TIP3   OH262260   0.318   3.013   5.083  0.0758 -0.2422 -0.0078
13590TIP3    H162261   0.371   2.976   5.155  1.8410 -1.4968 -1.8409
13590TIP3    H262262   0.247   2.950   5.071  0.2329 -0.4426  0.1018
13591TIP3   OH262263   5.811   6.049   4.986  0.1000 -0.0209 -0.0323
13591TIP3    H162264   5.837   6.108   5.056  1.0022 -1.0669  0.5350
13591TIP3    H262265   5.762   5.980   5.029  3.0953 -2.2619  0.1237
13592TIP3   OH262266   4.924   2.475  13.235 -0.0927 -0.1738 -0.2256
13592TIP3    H162267   4.963   2.456  13.321 -0.8875  0.0065  0.1849
13592TIP3    H262268   4.923   2.391  13.190 -3.2345 -1.1770  1.4342
13593TIP3   OH262269   6.659   3.511  11.005 -0.1799 -0.4722  0.4009
13593TIP3    H162270   6.657   3.436  10.946  0.4118  0.4440 -0.8379
13593TIP3    H262271   6.727   3.568  10.969  0.2471  0.1052  2.0155
13594TIP3   OH262272   0.326   1.403  10.434 -0.1332 -0.3543 -0.3794
13594TIP3    H162273   0.407   1.421  10.482 -0.5562 -0.4155  0.3592
13594TIP3    H262274   0.330   1.462  10.358 -0.3741  1.1627  0.7467
13595TIP3   OH262275   5.751   5.955   0.571 -0.4431  0.0255 -0.0568
13595TIP3    H162276   5.665   5.976   0.533 -0.2164  2.0953  0.4417
13595TIP3    H262277   5.779   6.036   0.613  1.3306 -0.8998  0.6635
13596TIP3   OH262278   1.141   4.423   0.779 -0.0010 -0.6085 -0.8163
13596TIP3    H162279   1.116   4.426   0.687 -0.9081 -2.6699 -0.6906
13596TIP3    H262280   1.183   4.338   0.790  1.7023  0.3143  0.3334
13597TIP3   OH262281   0.995   6.492   6.093 -0.1863  0.3260 -0.1553
13597TIP3    H162282   1.003   6.513   6.186  1.8191 -0.5205 -0.1002
13597TIP3    H262283   0.975   6.398   6.091  1.0444  0.0643 -0.5945
13598TIP3   OH262284   0.142   4.922   2.846  0.6561 -0.0058 -0.6835
13598TIP3    H162285   0.088   4.943   2.770  0.8193  0.8856 -0.5626
13598TIP3    H262286   0.079   4.901   2.915  0.4353  1.1083 -0.5188
13599TIP3   OH262287   5.584   2.133   3.011  0.4313 -0.1371 -0.4316
13599TIP3    H162288   5.601   2.170   3.098 -0.5102 -1.3398  0.3027
13599TIP3    H262289   5.671   2.111   2.977  0.8760  1.1898 -0.1981
13600TIP3   OH262290   4.419   6.519  10.567  0.1696 -0.3670 -0.1385
13600TIP3    H162291   4.455   6.465  10.638  0.9740  1.2478  0.7444
13600TIP3    H262292   4.451   6.478  10.487 -1.0418 -2.4454  0.3493
13601TIP3   OH262293   0.673   0.437  16.699  0.1193  0.2547  0.1851
13601TIP3    H162294   0.741   0.392  16.748  1.7379  0.3714 -1.8213
13601TIP3    H262295   0.643   0.507  16.757  1.8826  0.3316  1.0608
13602TIP3   OH262296   5.336   4.855   2.277  0.0004  0.2446 -0.4771
13602TIP3    H162297   5.386   4.936   2.271  0.2653  0.0583 -0.8798
13602TIP3    H262298   5.245   4.883   2.277  0.0947  0.5547 -0.3928
13603TIP3   OH262299   1.603   6.010   2.833 -0.0863  0.4953 -0.8024
13603TIP3    H162300   1.591   6.003   2.738 -2.4930  0.0155 -0.5423
13603TIP3    H262301   1.556   5.934   2.868 -0.2137  1.2862  0.8251
13604TIP3   OH262302   3.906   0.637  16.632 -0.0612 -0.5491  0.2475
13604TIP3    H162303   3.963   0.661  16.704  0.8974 -0.1915 -0.6171
13604TIP3    H262304   3.949   0.562  16.591 -0.5925 -0.7374  0.0168
13605TIP3   OH262305   0.137   2.354   1.259 -0.1163 -0.2309  0.3575
13605TIP3    H162306   0.155   2.368   1.166 -1.3801 -1.7258 -0.1540
13605TIP3    H262307   0.045   2.378   1.269 -0.8960 -2.9882  0.4998
13606TIP3   OH262308   0.582   1.358  16.062  0.1212 -0.1242 -0.4432
13606TIP3    H162309   0.565   1.447  16.032  1.5056  0.0073 -0.9247
13606TIP3    H262310   0.496   1.324  16.087 -0.4872  1.1981 -0.6341
13607TIP3   OH262311   0.935   2.392  13.906 -0.4210 -0.4459  0.1643
13607TIP3    H162312   1.003   2.396  13.839 -0.9933  1.0352 -0.3593
13607TIP3    H262313   0.981   2.409  13.988 -0.0481 -0.1198 -0.1094
13608TIP3   OH262314   2.238   3.228   2.878  0.0872  0.3042 -0.0024
13608TIP3    H162315   2.179   3.237   2.803 -2.6881 -0.5450  1.9332
13608TIP3    H262316   2.259   3.319   2.902 -1.4817  0.6782  0.0310
13609TIP3   OH262317   6.010   4.486   5.797 -0.3320 -0.4758 -0.1968
13609TIP3    H162318   5.940   4.421   5.795 -0.6229 -0.1932  0.4042
13609TIP3    H262319   6.090   4.435   5.809 -0.4513 -0.7882 -0.7086
13610TIP3   OH262320   2.872   5.836  15.439 -0.0139 -0.0713 -0.2941
13610TIP3    H162321   2.813   5.816  15.367 -1.2496 -0.4909  0.8025
13610TIP3    H262322   2.953   5.789  15.418 -0.6832 -0.9599 -0.9220
13611TIP3   OH262323   1.933   0.880  12.479 -0.2097  0.6149 -0.1325
13611TIP3    H162324   1.866   0.817  12.506  0.0809  0.7261  0.9078
13611TIP3    H262325   1.999   0.828  12.434 -0.7050  0.4180 -0.6466
13612TIP3   OH262326   6.408   4.565   5.234 -0.3975 -0.2122 -0.2523
13612TIP3    H162327   6.426   4.651   5.272 -0.9744  0.3065 -1.1238
13612TIP3    H262328   6.317   4.547   5.256 -0.8182  0.2060 -1.5514
13613TIP3   OH262329   5.203   5.090  12.453  0.2240 -0.0346 -0.5016
13613TIP3    H162330   5.284   5.139  12.469  0.0967  0.5259 -1.5191
13613TIP3    H262331   5.233   5.005  12.419  0.3840  0.1780 -0.8930
13614TIP3   OH262332   4.581   3.130   1.762  0.6376 -0.0785 -0.1416
13614TIP3    H162333   4.640   3.087   1.824  1.1017  1.6275  0.6739
13614TIP3    H262334   4.494   3.122   1.802  0.6291 -0.6926 -0.2680
13615TIP3   OH262335   2.105   4.787   5.693  0.3461 -0.2113  0.1943
13615TIP3    H162336   2.102   4.692   5.679 -0.4981 -0.0889 -0.5948
13615TIP3    H262337   2.015   4.810   5.716  0.9904  0.1110  2.6214
13616TIP3   OH262338   4.682   5.509   6.265  0.3619 -0.6523 -0.5258
13616TIP3    H162339   4.612   5.446   6.280  0.6150 -1.0947 -1.1851
13616TIP3    H262340   4.675   5.570   6.339 -1.1838 -0.2516 -0.9659
13617TIP3   OH262341   5.731   4.650  14.739  0.0265 -0.1097 -0.0647
13617TIP3    H162342   5.687   4.632  14.656 -0.7206  0.1378  0.2731
13617TIP3    H262343   5.769   4.737  14.727  0.5600 -0.3779 -0.4012
13618TIP3   OH262344   2.416   1.293   5.377  0.5867 -0.2604 -0.8108
13618TIP3    H162345   2.479   1.223   5.393  0.5907  0.1312  1.0775
13618TIP3    H262346   2.400   1.332   5.463 -3.0930 -1.0621 -0.9506
13619TIP3   OH262347   5.381   0.104   1.576  0.1044  0.0400  0.1996
13619TIP3    H162348   5.356   0.165   1.646 -2.4672 -1.3698  0.6376
13619TIP3    H262349   5.299   0.087   1.529  1.2241 -1.2554 -1.3851
13620TIP3   OH262350   6.683   4.018  14.728  0.2018  0.0664  0.3185
13620TIP3    H162351   6.690   3.925  14.709 -0.0874  0.1659 -0.2867
13620TIP3    H262352   6.726   4.061  14.655  0.1420  0.4158  0.4862
13621TIP3   OH262353   4.645   0.599   0.205 -0.0366 -0.2948  0.4245
13621TIP3    H162354   4.584   0.567   0.138 -0.5271  1.2875  0.0752
13621TIP3    H262355   4.732   0.581   0.168 -0.2957  1.0086 -0.9018
13622TIP3   OH262356   2.676   5.906  10.924 -0.7896 -0.4931  0.0589
13622TIP3    H162357   2.649   5.904  10.832  0.9707 -1.0476 -0.4837
13622TIP3    H262358   2.730   5.985  10.931  0.0843 -1.0944  0.2870
13623TIP3   OH262359   1.272   5.383  12.473  0.3189 -0.1964  0.2217
13623TIP3    H162360   1.236   5.295  12.478 -0.0926  0.0434  3.1863
13623TIP3    H262361   1.337   5.386  12.543  1.9390  1.2078 -1.2523
13624TIP3   OH262362   1.251   2.916   5.838 -0.0873 -0.2220  0.1352
13624TIP3    H162363   1.158   2.905   5.820 -0.7010  1.6110  1.8505
13624TIP3    H262364   1.274   3.002   5.803  0.1498  0.7005  2.3529
13625TIP3   OH262365   4.298   1.891  14.581 -0.1977 -0.0951  0.3436
13625TIP3    H162366   4.258   1.911  14.496  1.1945  0.6162 -0.1723
13625TIP3    H262367   4.390   1.911  14.569  0.7426 -3.4670  0.8838
13626TIP3   OH262368   4.728   5.798  15.400 -0.0600  0.0492  0.1968
13626TIP3    H162369   4.675   5.859  15.348 -0.4207 -0.5094 -0.1075
13626TIP3    H262370   4.812   5.795  15.356 -0.5897 -0.9651 -0.7990
13627TIP3   OH262371   5.658   4.622  11.841  0.1762 -0.3813  0.4091
13627TIP3    H162372   5.740   4.581  11.814  1.2157  1.2439  0.8778
13627TIP3    H262373   5.600   4.550  11.862  1.6165 -1.5902  0.3946
13628TIP3   OH262374   3.079   2.923   1.786  0.3696 -0.1720  0.0827
13628TIP3    H162375   2.998   2.960   1.821  1.0897  0.0610  1.5658
13628TIP3    H262376   3.099   2.849   1.844  2.1472  0.8581  0.8564
13629TIP3   OH262377   0.782   2.380   0.302  0.4100 -0.7127  0.4454
13629TIP3    H162378   0.826   2.395   0.386 -0.7903  0.2717  0.9233
13629TIP3    H262379   0.698   2.424   0.310 -1.3446 -3.7613  0.0834
13630TIP3   OH262380   2.784   1.320   1.044  0.4076 -0.0812 -0.1740
13630TIP3    H162381   2.801   1.305   0.951  0.5819  0.6801 -0.2701
13630TIP3    H262382   2.859   1.282   1.089  0.8624  0.5360 -0.4123
13631TIP3   OH262383   4.250   6.027   4.677  0.2245 -0.6912 -0.3613
13631TIP3    H162384   4.163   6.067   4.678 -0.2381 -1.6566 -0.5709
13631TIP3    H262385   4.275   6.021   4.769  1.0032  1.4958 -0.3754
13632TIP3   OH262386   4.271   4.466  16.678  0.0476 -0.0867  0.7973
13632TIP3    H162387   4.289   4.490  16.769  0.5363 -0.7119  0.8729
13632TIP3    H262388   4.177   4.446  16.676  0.4517 -2.4534  1.7509
13633TIP3   OH262389   5.439   1.388  17.173  0.5217 -0.0843  0.4061
13633TIP3    H162390   5.476   1.378  17.261  1.4919 -1.4208 -0.1316
13633TIP3    H262391   5.467   1.475  17.145  1.9677 -0.4496  0.6363
13634TIP3   OH262392   0.761   4.198   0.762 -0.1985  0.2853 -0.5187
13634TIP3    H162393   0.758   4.258   0.687 -1.5557 -0.1514 -0.8472
13634TIP3    H262394   0.672   4.164   0.769  0.0819 -0.2523  0.8446
13635TIP3   OH262395   2.107   1.103  14.466  0.1499 -0.2478 -0.5555
13635TIP3    H162396   2.037   1.108  14.532  1.5604 -0.6822  1.0343
13635TIP3    H262397   2.071   1.045  14.399 -2.0988  1.7404 -1.2248
13636TIP3   OH262398   2.353   3.460   4.226 -0.2052  0.6202 -0.7611
13636TIP3    H162399   2.274   3.432   4.273  0.3574 -1.1256 -0.8073
13636TIP3    H262400   2.409   3.383   4.224  1.2872  1.6746 -1.2246
13637TIP3   OH262401   3.330   5.592   3.971  0.1475  0.8246 -0.3088
13637TIP3    H162402   3.288   5.670   3.934 -1.7398  0.1098  0.1882
13637TIP3    H262403   3.322   5.603   4.066  2.4908  1.3559 -0.1307
13638TIP3   OH262404   1.698   0.389   2.642 -0.2012  0.6170  0.0415
13638TIP3    H162405   1.604   0.399   2.652 -0.3180 -1.0147  1.0211
13638TIP3    H262406   1.726   0.344   2.722  1.0459 -0.8828 -1.1613
13639TIP3   OH262407   2.656   5.552   0.550  0.5463  0.7458  0.1553
13639TIP3    H162408   2.699   5.589   0.627  1.9694  1.9257 -1.1177
13639TIP3    H262409   2.718   5.486   0.518 -0.8403 -1.0281  0.9755
13640TIP3   OH262410   4.606   1.009  12.510 -0.5271  0.0747 -0.0004
13640TIP3    H162411   4.581   1.088  12.461  0.8712  0.9367  0.6278
13640TIP3    H262412   4.668   0.964  12.452 -1.3113 -0.5904 -0.3516
13641TIP3   OH262413   2.163   6.742  14.369 -0.0185  0.3676 -0.0617
13641TIP3    H162414   2.103   6.812  14.344 -0.4463  0.7017  1.7887
13641TIP3    H262415   2.232   6.786  14.419  0.4598 -0.3525 -0.0671
13642TIP3   OH262416   1.994   3.412   3.928 -0.5329 -0.5600 -0.3893
13642TIP3    H162417   1.993   3.437   3.836 -0.4408 -1.2361 -0.5802
13642TIP3    H262418   1.944   3.481   3.972 -0.9354 -0.4519 -1.0045
13643TIP3   OH262419   4.332   1.615   5.258 -0.4147 -0.7099  0.0867
13643TIP3    H162420   4.298   1.688   5.207  1.3396 -0.7243 -1.1862
13643TIP3    H262421   4.309   1.637   5.349 -0.8828  0.8692 -0.3818
13644TIP3   OH262422   1.678   1.333  13.437  0.1829  0.0328  0.1783
13644TIP3    H162423   1.774   1.339  13.432  0.0896  1.8442 -0.3812
13644TIP3    H262424   1.647   1.391  13.366 -1.3176  0.1662  0.9063
13645TIP3   OH262425   3.481   3.502  15.463 -0.0909  0.3361  0.2252
13645TIP3    H162426   3.514   3.519  15.375 -0.2735 -1.8415 -0.3384
13645TIP3    H262427   3.558   3.508  15.519  0.7601 -1.6307 -0.6321
13646TIP3   OH262428   6.671   0.054  16.649 -0.0738 -0.1489  0.2547
13646TIP3    H162429   6.644   0.018  16.734  0.5019 -0.6079  0.2545
13646TIP3    H262430   6.609   0.124  16.631 -0.1116  0.0554  1.1332
13647TIP3   OH262431   0.700   4.195  15.069  0.5666 -0.1013 -0.4062
13647TIP3    H162432   0.614   4.219  15.034  2.0813  0.0025 -4.6841
13647TIP3    H262433   0.704   4.100  15.058  0.4589 -0.3497  1.3976
13648TIP3   OH262434   1.385   3.557   2.684  0.2716  0.5448  0.7083
13648TIP3    H162435   1.321   3.530   2.619  1.4674 -1.0011  0.1164
13648TIP3    H262436   1.451   3.604   2.634  1.0991 -0.4847  0.8007
13649TIP3   OH262437   4.137   0.140   3.302 -0.4024  0.0043  0.7582
13649TIP3    H162438   4.169   0.208   3.242 -0.5249  1.8684  2.6958
13649TIP3    H262439   4.043   0.159   3.312 -0.8680 -1.6179 -0.0602
13650TIP3   OH262440   5.610   4.129  14.951  0.2918  0.1947 -0.0971
13650TIP3    H162441   5.619   4.040  14.986 -1.6913 -0.1106 -0.2456
13650TIP3    H262442   5.661   4.129  14.871 -0.0045 -0.9553 -0.3058
13651TIP3   OH262443   6.262   3.190  14.109 -0.0487  0.3023  0.3370
13651TIP3    H162444   6.283   3.257  14.175  0.9648  0.5729 -0.2351
13651TIP3    H262445   6.184   3.224  14.065  0.9342  1.5685 -0.5165
13652TIP3   OH262446   1.491   3.735  14.702 -0.4157 -0.0261  0.5253
13652TIP3    H162447   1.579   3.748  14.668 -1.1478 -0.2546 -1.6180
13652TIP3    H262448   1.439   3.711  14.625 -2.0939 -1.1559  1.9301
13653TIP3   OH262449   3.337   2.026  16.527 -0.2579  0.1165 -0.2993
13653TIP3    H162450   3.364   2.114  16.553  0.8599 -0.2792 -0.0934
13653TIP3    H262451   3.279   1.997  16.598  0.0315  0.3770  0.0477
13654TIP3   OH262452   6.241   5.859   2.299 -0.0218 -0.3443  0.2726
13654TIP3    H162453   6.159   5.903   2.278 -0.1478 -0.2895  0.8687
13654TIP3    H262454   6.219   5.766   2.300 -0.4043 -0.2619  1.7875
13655TIP3   OH262455   0.476   2.682   6.283  0.0892 -0.6844 -0.2248
13655TIP3    H162456   0.442   2.624   6.215 -2.7691 -0.1124  0.5829
13655TIP3    H262457   0.447   2.642   6.366  0.0629  0.6451  0.4410
13656TIP3   OH262458   6.102   6.509   1.973  0.3400 -0.3692 -0.4964
13656TIP3    H162459   6.088   6.553   2.057 -2.4600 -3.2677  0.7603
13656TIP3    H262460   6.090   6.578   1.908 -0.7904  1.3548  1.4131
13657TIP3   OH262461   2.004   0.411  13.401 -0.0875 -0.4381  0.0633
13657TIP3    H162462   2.018   0.337  13.342 -0.6442  0.0515 -0.7021
13657TIP3    H262463   1.960   0.373  13.477  0.0104 -0.9580 -0.1359
13658TIP3   OH262464   6.627   5.370  16.219  0.2657  0.0400  0.6617
13658TIP3    H162465   6.602   5.442  16.277  0.4096  0.0655  0.6951
13658TIP3    H262466   6.559   5.304  16.231  0.3623 -0.0103  0.9621
13659TIP3   OH262467   2.177   5.754   6.259 -0.5500 -0.1281 -0.1173
13659TIP3    H162468   2.132   5.771   6.342  1.5687  2.4284  0.6595
13659TIP3    H262469   2.137   5.815   6.197 -0.2342  0.0033 -0.1961
13660TIP3   OH262470   6.087   1.048   1.387 -0.5218  0.0594  0.2626
13660TIP3    H162471   6.088   1.133   1.430  0.5422 -0.6258  1.6808
13660TIP3    H262472   5.998   1.038   1.354 -0.0158  2.9163 -2.5067
13661TIP3   OH262473   2.145   6.601  12.048 -0.6059 -0.3740 -0.4803
13661TIP3    H162474   2.097   6.673  12.088  0.5811  0.7909 -1.0810
13661TIP3    H262475   2.099   6.586  11.965  1.8086  3.0394 -2.7430
13662TIP3   OH262476   3.685   2.940   6.694  0.1195 -0.1223  0.5771
13662TIP3    H162477   3.615   2.996   6.726  0.0886  0.4678 -0.4721
13662TIP3    H262478   3.765   2.981   6.728  0.0433  0.0856  0.5117
13663TIP3   OH262479   1.071   0.778  11.920  0.1133 -0.6132 -0.3195
13663TIP3    H162480   1.018   0.717  11.867 -0.6952  0.8799 -1.3002
13663TIP3    H262481   1.026   0.781  12.004 -3.8189  3.3182 -2.1269
13664TIP3   OH262482   5.050   3.069  13.517 -0.2843 -0.2822 -0.0487
13664TIP3    H162483   5.032   3.058  13.610  0.7655  0.6826  0.2946
13664TIP3    H262484   4.981   3.020  13.473 -0.0137 -1.9137  1.2453
13665TIP3   OH262485   1.891   6.455  16.491  0.1797  0.5249 -0.0313
13665TIP3    H162486   1.852   6.470  16.405  0.0803  0.0358 -0.0787
13665TIP3    H262487   1.834   6.502  16.552 -1.0487 -0.9012  0.0047
13666TIP3   OH262488   1.858   6.651  13.253 -0.4692  0.2187 -0.4356
13666TIP3    H162489   1.908   6.629  13.331  1.5881  1.8922 -1.2039
13666TIP3    H262490   1.785   6.704  13.285 -0.1683  0.1154  0.4356
13667TIP3   OH262491   5.045   1.246  12.084  0.0841  0.4423  0.0230
13667TIP3    H162492   5.100   1.242  12.162  0.9761  1.2303 -0.5404
13667TIP3    H262493   4.987   1.320  12.100 -1.1975 -0.6971  0.8369
13668TIP3   OH262494   3.891   3.205  15.444  0.7826  0.0820  0.1081
13668TIP3    H162495   3.866   3.246  15.527  2.8108 -0.6692  1.1424
13668TIP3    H262496   3.836   3.249  15.379 -1.8987 -0.2965  1.9556
13669TIP3   OH262497   4.727   1.248   5.236  0.1332 -0.5579 -0.2328
13669TIP3    H162498   4.691   1.312   5.175 -0.6357  0.6449  1.4069
13669TIP3    H262499   4.659   1.180   5.243 -0.2547 -0.1446  0.0881
13670TIP3   OH262500   0.470   2.205   2.699  0.4994  0.1189  0.2591
13670TIP3    H162501   0.558   2.241   2.710  0.8371 -0.5405 -0.1711
13670TIP3    H262502   0.475   2.157   2.616  0.0038 -0.6913  0.6846
13671TIP3   OH262503   0.607   0.230   5.565  0.2059 -0.5953  0.1782
13671TIP3    H162504   0.513   0.244   5.577  0.1327 -0.8473 -0.0913
13671TIP3    H262505   0.630   0.282   5.487  0.0434 -1.5053 -0.4896
13672TIP3   OH262506   1.825   4.659   0.854  0.0046 -0.2044  0.0336
13672TIP3    H162507   1.844   4.607   0.776  3.5374  0.4112  0.3108
13672TIP3    H262508   1.781   4.737   0.821 -0.7189 -1.0391 -1.0268
13673TIP3   OH262509   1.489   1.991  11.092 -0.3514 -0.4602 -0.2482
13673TIP3    H162510   1.518   2.036  11.012 -0.7003  1.3927  0.6115
13673TIP3    H262511   1.490   2.059  11.159 -1.3364 -1.6683  1.0471
13674TIP3   OH262512   6.742   1.651  11.465  0.1770  0.4991  0.4813
13674TIP3    H162513   6.648   1.661  11.451  0.1849  1.1435  0.8446
13674TIP3    H262514   6.768   1.731  11.512  0.9133  0.3555  0.3316
13675TIP3   OH262515   1.878   4.933  17.164 -0.1026  0.2073  0.0445
13675TIP3    H162516   1.928   4.938  17.246  0.8347 -2.2145 -0.3010
13675TIP3    H262517   1.910   5.006  17.111  1.3794  0.0872  0.7347
13676TIP3   OH262518   3.095   0.364  16.172  0.5297  0.5164 -0.4407
13676TIP3    H162519   3.171   0.404  16.214 -0.3628  0.8870  0.8873
13676TIP3    H262520   3.125   0.277  16.145  1.0564  0.0858  1.3569
13677TIP3   OH262521   0.270   5.886  12.524  0.1906  0.3869  0.1273
13677TIP3    H162522   0.214   5.866  12.449  0.7063 -1.2180  0.1204
13677TIP3    H262523   0.348   5.926  12.486  0.1357  0.2597 -0.1164
13678TIP3   OH262524   4.791   6.008   4.975  0.3240  0.6631  0.0319
13678TIP3    H162525   4.855   6.075   4.997  1.2119  0.4495 -1.7207
13678TIP3    H262526   4.706   6.049   4.991  0.8773  1.4876  0.9055
13679TIP3   OH262527   4.277   1.815   2.189 -0.3759  0.3100 -0.1003
13679TIP3    H162528   4.367   1.796   2.213 -0.3666  0.2355 -0.1922
13679TIP3    H262529   4.224   1.767   2.252 -0.3505  0.9074  0.3807
13680TIP3   OH262530   3.071   1.062  12.925  0.0210 -0.1755 -0.1178
13680TIP3    H162531   3.111   1.108  12.852 -1.6466 -0.5995 -1.3680
13680TIP3    H262532   2.980   1.092  12.927 -0.7453 -2.2696 -0.0703
13681TIP3   OH262533   1.045   3.203  14.098  0.2567 -0.5733 -0.1982
13681TIP3    H162534   1.069   3.112  14.117  0.9521  0.0304  2.3051
13681TIP3    H262535   1.129   3.249  14.092 -0.1044  0.1576  0.1892
13682TIP3   OH262536   0.464   5.480   4.706  0.0638  0.3049  0.0308
13682TIP3    H162537   0.518   5.440   4.775 -0.9349  0.3016  0.8297
13682TIP3    H262538   0.402   5.412   4.681 -0.3410  0.6853 -0.0205
13683TIP3   OH262539   5.707   0.171  13.933  0.0215 -0.1968  0.1496
13683TIP3    H162540   5.676   0.110  13.866 -1.3778  1.4949 -0.8231
13683TIP3    H262541   5.648   0.159  14.006  0.3074 -0.6363  0.3088
13684TIP3   OH262542   4.386   3.406   1.838 -0.2522 -0.5671  0.1736
13684TIP3    H162543   4.365   3.318   1.870  0.5031 -0.3750  1.2353
13684TIP3    H262544   4.329   3.464   1.889 -1.6066 -0.4971 -1.3462
13685TIP3   OH262545   4.362   5.867   3.982 -0.1471 -0.0791 -0.1455
13685TIP3    H162546   4.396   5.930   3.918 -0.4264  0.6237  0.3758
13685TIP3    H262547   4.366   5.914   4.065  0.6260 -1.1308  0.4289
13686TIP3   OH262548   5.490   5.245   2.861  0.0979  0.5301  0.0612
13686TIP3    H162549   5.493   5.310   2.932  1.3006 -0.3246  0.8476
13686TIP3    H262550   5.410   5.195   2.877  0.0316  0.7582  0.4452
13687TIP3   OH262551   3.634   4.174  12.149  0.7327 -0.1037  0.1574
13687TIP3    H162552   3.647   4.229  12.072 -0.2084 -0.4906 -0.2927
13687TIP3    H262553   3.545   4.139  12.139  0.8897 -0.7846  1.0155
13688TIP3   OH262554   2.323   5.231   4.963  0.1666  0.3959  0.0312
13688TIP3    H162555   2.270   5.192   5.032  0.1476  1.0605  0.4050
13688TIP3    H262556   2.355   5.157   4.912 -1.8867  0.0101 -0.7924
13689TIP3   OH262557   5.319   0.521  16.128 -0.2918  0.2908  0.2283
13689TIP3    H162558   5.259   0.561  16.191 -0.0656  1.7508 -0.4415
13689TIP3    H262559   5.267   0.512  16.048  0.2238  1.0925 -0.2052
13690TIP3   OH262560   2.502   1.928   0.930  0.5488  0.2585 -0.2753
13690TIP3    H162561   2.521   1.909   1.021 -1.0625  0.2660  0.0805
13690TIP3    H262562   2.413   1.896   0.916  0.0657  1.9271 -1.3268
13691TIP3   OH262563   0.121   1.022   1.494  0.3806  0.7145  0.4689
13691TIP3    H162564   0.041   1.037   1.543  0.9259  1.2251  1.2393
13691TIP3    H262565   0.178   1.096   1.519  1.2456  0.1204  0.2952
13692TIP3   OH262566   0.748   3.767  14.565  0.8147 -0.1318  0.2030
13692TIP3    H162567   0.669   3.805  14.603  0.3659 -1.5681  0.7815
13692TIP3    H262568   0.813   3.838  14.566 -0.9387  1.6623 -1.9870
13693TIP3   OH262569   3.561   0.110  12.993  0.1256  0.7612  0.4239
13693TIP3    H162570   3.470   0.132  13.011 -0.2474  2.0120 -2.3937
13693TIP3    H262571   3.610   0.188  13.018  0.9767 -0.8249  4.5276
13694TIP3   OH262572   2.643   1.738  12.418 -0.2178  0.2116 -0.4282
13694TIP3    H162573   2.587   1.812  12.440  0.6135  1.3226 -1.8979
13694TIP3    H262574   2.609   1.666  12.472 -0.5599  1.8048  1.6329
13695TIP3   OH262575   6.046   3.315   0.535 -0.9221  0.6471 -0.2590
13695TIP3    H162576   6.127   3.310   0.584 -0.5312 -0.0258 -0.9536
13695TIP3    H262577   6.015   3.225   0.528 -1.9809  0.9435  0.3974
13696TIP3   OH262578   5.555   0.983  12.345 -0.0850 -0.1402  0.4624
13696TIP3    H162579   5.548   1.072  12.311  0.1390 -0.2324  0.1759
13696TIP3    H262580   5.556   0.927  12.268  0.0151 -0.3760  0.6317
13697TIP3   OH262581   3.465   1.583   1.625  0.4341 -0.1734  0.6551
13697TIP3    H162582   3.417   1.530   1.562  1.2396  0.1133 -0.2313
13697TIP3    H262583   3.402   1.651   1.652 -0.0079 -0.4668  0.3754
13698TIP3   OH262584   3.853   3.123  11.958  0.4029  0.2598 -0.5919
13698TIP3    H162585   3.911   3.169  11.897  0.7312 -0.4102 -0.7937
13698TIP3    H262586   3.900   3.124  12.041 -0.1347  1.3523 -0.2834
13699TIP3   OH262587   6.227   0.373   1.287  0.0426 -0.2216  0.3096
13699TIP3    H162588   6.139   0.364   1.325  0.0397  0.9454  0.6250
13699TIP3    H262589   6.227   0.460   1.248  1.9039  0.9456  2.6518
13700TIP3   OH262590   4.601   5.534  13.612 -0.2043 -0.1540  0.2000
13700TIP3    H162591   4.591   5.461  13.551  2.2346 -0.2342 -0.1864
13700TIP3    H262592   4.588   5.495  13.698  1.0994 -1.0867 -0.0013
13701TIP3   OH262593   3.744   2.900   5.115 -0.3016  0.3241 -0.0027
13701TIP3    H162594   3.666   2.891   5.171 -1.3147  0.9804 -1.2506
13701TIP3    H262595   3.818   2.891   5.175 -1.3379 -0.2463  1.2341
13702TIP3   OH262596   1.480   3.081   6.002  0.1014  0.3075 -0.0176
13702TIP3    H162597   1.545   3.151   6.004 -0.8526  1.2537 -0.7135
13702TIP3    H262598   1.430   3.097   5.922 -1.8694  0.4746  1.1568
13703TIP3   OH262599   5.550   4.349  17.191 -0.7838  0.5667 -0.0696
13703TIP3    H162600   5.509   4.435  17.197 -1.5928  0.2117 -0.2543
13703TIP3    H262601   5.644   4.366  17.192 -0.9008  1.6022 -1.8837
13704TIP3   OH262602   2.102   3.020  11.140  0.4536  0.5838  0.0534
13704TIP3    H162603   2.084   3.011  11.234  0.2860 -0.8000 -0.0865
13704TIP3    H262604   2.139   3.107  11.131 -1.6668  1.6538  1.0597
13705TIP3   OH262605   1.896   6.081   0.812  0.3324  0.2874 -0.5508
13705TIP3    H162606   1.803   6.066   0.831  0.4389  0.5011  0.1593
13705TIP3    H262607   1.914   6.025   0.736  0.1004 -1.2995  0.5021
13706TIP3   OH262608   6.780   2.033  12.182 -0.1331 -0.6208 -0.4465
13706TIP3    H162609   6.730   2.070  12.110 -0.9777  0.6590  0.7465
13706TIP3    H262610   6.855   2.091  12.192 -0.2293 -0.5539 -0.0691
13707TIP3   OH262611   2.820   1.226  11.703  0.2754 -0.4972 -0.1293
13707TIP3    H162612   2.752   1.271  11.652 -0.0502 -0.2503  0.5161
13707TIP3    H262613   2.774   1.192  11.779  0.6630 -1.2976 -0.2418
13708TIP3   OH262614   5.942   0.019  13.729  0.6330 -0.3074 -0.1554
13708TIP3    H162615   5.878  -0.040  13.770 -1.0939  0.7719 -1.1858
13708TIP3    H262616   6.003  -0.040  13.684  1.4875 -1.4470  2.2851
13709TIP3   OH262617   0.127   4.243   5.860  0.2083 -0.0599  0.0728
13709TIP3    H162618   0.196   4.189   5.898 -0.0663 -0.0903  0.5439
13709TIP3    H262619   0.075   4.271   5.936 -0.8062 -0.7467 -0.3380
13710TIP3   OH262620   5.839   6.267   3.366 -0.2099  0.5910 -0.4059
13710TIP3    H162621   5.897   6.328   3.411  0.9405 -0.1846 -0.7930
13710TIP3    H262622   5.837   6.297   3.275 -1.5220  1.4091 -0.1327
13711TIP3   OH262623   2.199   4.204   5.876  0.4216 -0.1327 -0.4181
13711TIP3    H162624   2.194   4.238   5.786  0.4054 -1.0686 -0.7823
13711TIP3    H262625   2.131   4.137   5.880 -0.9170  1.2315  0.9094
13712TIP3   OH262626   1.820   5.358   1.803  0.3995  0.3739 -0.0454
13712TIP3    H162627   1.803   5.421   1.733 -1.4737  0.3790  0.3485
13712TIP3    H262628   1.889   5.398   1.856  1.1227  0.8293 -1.2998
13713TIP3   OH262629   1.352   5.498   1.298 -0.4335 -0.6428 -0.0159
13713TIP3    H162630   1.323   5.411   1.326 -0.8445 -0.4402  0.1956
13713TIP3    H262631   1.413   5.480   1.226 -1.4087 -1.0675 -0.7691
13714TIP3   OH262632   1.380   4.950  14.117 -0.0556  0.0393  0.2619
13714TIP3    H162633   1.409   4.944  14.208 -1.2333  2.2333  0.8649
13714TIP3    H262634   1.460   4.959  14.067  0.5671  1.4898  1.4121
13715TIP3   OH262635   1.256   0.754   1.184  0.1181 -0.2422 -0.4326
13715TIP3    H162636   1.236   0.796   1.267 -2.9698  0.3415 -1.3547
13715TIP3    H262637   1.297   0.671   1.209  1.4501  0.9357  1.5577
13716TIP3   OH262638   2.613   0.283  17.067  0.0687  0.1004 -0.3412
13716TIP3    H162639   2.618   0.254  16.976 -2.0166 -0.7981 -0.2189
13716TIP3    H262640   2.523   0.315  17.078 -0.6992 -2.4296  2.0872
13717TIP3   OH262641   2.830   5.308  16.673  0.3814  0.3194 -0.0015
13717TIP3    H162642   2.755   5.314  16.614 -1.1742 -1.5685  1.6719
13717TIP3    H262643   2.833   5.393  16.717 -2.4841 -0.4145  1.8003
13718TIP3   OH262644   1.512   5.504   4.363  0.4284  0.4193  0.1164
13718TIP3    H162645   1.590   5.458   4.394  0.7320  0.0080 -1.2173
13718TIP3    H262646   1.464   5.439   4.312 -0.6454  0.7567  0.6531
13719TIP3   OH262647   6.282   1.277   2.190 -0.2654 -0.4544 -0.2258
13719TIP3    H162648   6.366   1.277   2.235 -1.4677  0.6173  2.2354
13719TIP3    H262649   6.245   1.190   2.207  0.2334 -0.8583 -1.1471
13720TIP3   OH262650   6.103   6.694   1.751 -0.3334  0.1334 -0.6493
13720TIP3    H162651   6.075   6.768   1.698 -1.5975 -0.1489 -0.4005
13720TIP3    H262652   6.111   6.621   1.690  0.8207  0.4250 -0.8781
13721TIP3   OH262653   3.925   6.425   4.874 -0.5482  0.7498 -0.2955
13721TIP3    H162654   3.943   6.514   4.844  0.4835  0.2256 -1.2949
13721TIP3    H262655   4.001   6.402   4.927 -0.9329  0.5472  0.1777
13722TIP3   OH262656   2.151   0.584   4.743 -0.6499 -0.1126  0.2405
13722TIP3    H162657   2.104   0.605   4.824 -1.3055 -0.2193 -0.0994
13722TIP3    H262658   2.087   0.601   4.674 -0.6501 -1.5558 -0.1482
13723TIP3   OH262659   0.489   2.805  13.983  0.2293 -0.2258  0.2340
13723TIP3    H162660   0.522   2.891  13.955  1.6783 -0.5250  0.9673
13723TIP3    H262661   0.567   2.757  14.010 -0.6204 -1.6276  0.2637
13724TIP3   OH262662   0.823   1.147  15.045 -0.4947 -0.4421  0.2577
13724TIP3    H162663   0.792   1.173  14.958  0.9236 -0.2069 -0.2056
13724TIP3    H262664   0.883   1.074  15.028  0.5984  0.2782  0.9215
13725TIP3   OH262665   2.235   6.814   2.487 -0.6471  0.2728  0.4804
13725TIP3    H162666   2.186   6.778   2.414 -0.8632 -0.8312  1.1466
13725TIP3    H262667   2.300   6.747   2.509  1.6211  1.9301 -0.7528
13726TIP3   OH262668   0.808   3.839   5.563  0.2692 -0.0562 -0.0275
13726TIP3    H162669   0.764   3.878   5.488  0.7078 -0.2105 -0.3664
13726TIP3    H262670   0.737   3.804   5.617 -0.1375  1.0983  0.2361
13727TIP3   OH262671   3.811   2.454   3.947  0.6171 -0.1647 -0.2181
13727TIP3    H162672   3.880   2.501   3.994  0.6067 -0.4710  0.1068
13727TIP3    H262673   3.760   2.523   3.905  0.8842  0.0862 -0.1382
13728TIP3   OH262674   2.236   5.958  11.557  0.6002  0.2317 -0.6178
13728TIP3    H162675   2.301   5.928  11.621  0.8283 -1.4780 -1.5859
13728TIP3    H262676   2.288   6.004  11.490  0.2693  2.8240  0.7788
13729TIP3   OH262677   3.612   6.049   6.116  0.3318 -0.0701 -0.5455
13729TIP3    H162678   3.659   5.966   6.106  0.3207  0.0766 -1.9512
13729TIP3    H262679   3.617   6.090   6.030  2.4297  2.5146  0.6368
13730TIP3   OH262680   0.507   0.508   4.538 -0.1201 -0.3603 -0.3774
13730TIP3    H162681   0.434   0.449   4.522 -0.6325  0.2304 -0.2407
13730TIP3    H262682   0.574   0.454   4.580  0.1719 -1.2889 -1.9559
13731TIP3   OH262683   5.876   6.832   0.808 -0.0749 -0.3438  0.4246
13731TIP3    H162684   5.931   6.910   0.820  1.0843 -1.3095  1.7099
13731TIP3    H262685   5.826   6.825   0.889 -1.0383 -0.3020 -0.1528
13732TIP3   OH262686   0.428   2.303  12.997  0.8801 -0.3455  0.4476
13732TIP3    H162687   0.480   2.286  13.076  2.6715 -1.7923 -0.9608
13732TIP3    H262688   0.458   2.238  12.934 -1.4768 -0.1149 -1.0313
13733TIP3   OH262689   4.990   4.265   1.376 -0.3291 -0.2540 -0.6195
13733TIP3    H162690   5.015   4.181   1.414 -2.6897 -1.4180 -1.4863
13733TIP3    H262691   4.934   4.306   1.443 -1.1138 -0.4539 -1.1410
13734TIP3   OH262692   3.855   4.734   5.037  0.3499  0.3457  0.2994
13734TIP3    H162693   3.824   4.796   5.103  0.0725 -0.0843  0.5741
13734TIP3    H262694   3.798   4.658   5.046 -1.2252  1.1561 -1.9765
13735TIP3   OH262695   2.398   1.853  16.653  0.2055  0.0795 -0.5743
13735TIP3    H162696   2.471   1.869  16.592 -0.8335  0.3597 -1.7797
13735TIP3    H262697   2.352   1.936  16.658 -1.1292 -0.5825 -1.3351
13736TIP3   OH262698   2.070   3.708  11.079  0.0838 -0.0438 -0.3576
13736TIP3    H162699   2.078   3.795  11.042 -0.3354  1.1461  2.1299
13736TIP3    H262700   2.034   3.655  11.009  0.1413  1.8233 -1.8657
13737TIP3   OH262701   2.070   6.119  17.047 -0.2305 -0.3252 -0.4708
13737TIP3    H162702   2.093   6.027  17.030 -2.1844 -0.7229 -1.2646
13737TIP3    H262703   2.149   6.168  17.022  0.1229 -1.6375 -2.1666
13738TIP3   OH262704   4.441   6.019  12.665  0.8572  0.5602  0.4690
13738TIP3    H162705   4.460   6.108  12.635 -0.1416  0.5415 -0.2791
13738TIP3    H262706   4.352   6.003  12.636  1.2849 -0.9735 -0.0833
13739TIP3   OH262707   1.899   1.322   5.690  0.0343  0.2757 -0.6010
13739TIP3    H162708   1.901   1.226   5.682 -1.3093 -0.1206  2.3534
13739TIP3    H262709   1.807   1.344   5.678 -0.4782  0.5696  2.7363
13740TIP3   OH262710   5.006   5.631  10.794 -0.4467 -0.4712 -0.1946
13740TIP3    H162711   5.086   5.683  10.789 -1.4236  1.3265  1.6388
13740TIP3    H262712   4.948   5.670  10.728 -0.8734  0.2793  0.5981
13741TIP3   OH262713   6.190   2.072   3.880 -0.1332  0.1510 -0.4034
13741TIP3    H162714   6.153   2.072   3.792 -0.5681 -0.0606 -0.2246
13741TIP3    H262715   6.129   2.125   3.932 -1.4736 -2.0318  0.4062
13742TIP3   OH262716   1.087   5.030   5.734  0.8233 -0.0754  0.2040
13742TIP3    H162717   1.153   5.055   5.668  1.6765  1.2350  1.4817
13742TIP3    H262718   1.121   5.066   5.816 -1.0186 -0.2362  1.0842
13743TIP3   OH262719   6.639   1.613  13.976 -0.3558 -0.4139 -0.5241
13743TIP3    H162720   6.712   1.595  13.916  1.8920  1.1111  1.5462
13743TIP3    H262721   6.564   1.630  13.919  1.0588 -1.3442 -2.7939
13744TIP3   OH262722   5.422   2.771  15.208  0.1942 -0.3327  0.4336
13744TIP3    H162723   5.370   2.807  15.280 -2.9743 -1.3350 -1.1605
13744TIP3    H262724   5.411   2.834  15.136 -1.0310 -1.7886 -0.7286
13745TIP3   OH262725   3.700   2.419  13.997  0.2218  0.6813 -0.2890
13745TIP3    H162726   3.696   2.499  13.944  1.1740  1.7336  1.1436
13745TIP3    H262727   3.649   2.440  14.075  0.4645 -0.1233  0.0940
13746TIP3   OH262728   1.344   5.786  16.284  0.5451  0.1393 -0.1127
13746TIP3    H162729   1.411   5.790  16.352 -0.0620  0.3453  0.4878
13746TIP3    H262730   1.348   5.697  16.251  1.0841  0.1372 -0.0500
13747TIP3   OH262731   2.863   1.789  15.842 -0.0551 -0.1586  0.3413
13747TIP3    H162732   2.897   1.701  15.857  0.4586  0.1256  0.9010
13747TIP3    H262733   2.925   1.829  15.780 -0.4467 -0.2822 -0.1373
13748TIP3   OH262734   0.237   0.236   0.854  0.6753 -0.0891  0.7864
13748TIP3    H162735   0.171   0.185   0.900  1.3584 -2.6134 -0.8421
13748TIP3    H262736   0.312   0.238   0.913  1.3136 -2.7350  0.2104
13749TIP3   OH262737   0.007   3.694  10.826  0.4496 -0.6126  0.2777
13749TIP3    H162738   0.089   3.646  10.817  1.0007  0.4718 -0.7763
13749TIP3    H262739   0.023   3.778  10.782 -0.7332  0.2304  1.3857
13750TIP3   OH262740   5.585   3.847   1.211 -0.7089 -0.4367  0.1551
13750TIP3    H162741   5.531   3.819   1.137 -0.8093 -1.8866  0.7369
13750TIP3    H262742   5.647   3.774   1.223 -0.0619  0.2194  0.8813
13751TIP3   OH262743   0.604   4.242  13.121 -0.2522  0.0332  0.7665
13751TIP3    H162744   0.531   4.186  13.145 -0.8983  0.3731 -0.3321
13751TIP3    H262745   0.570   4.297  13.050  1.4038 -0.6150 -0.5930
13752TIP3   OH262746   4.602   3.869  10.934 -0.1704  0.0730 -0.0577
13752TIP3    H162747   4.584   3.874  11.028 -0.0382 -0.3787 -0.0064
13752TIP3    H262748   4.519   3.841  10.895  0.0720 -0.8402  0.0513
13753TIP3   OH262749   4.525   2.514  13.065 -0.8225  0.5390 -0.7229
13753TIP3    H162750   4.590   2.447  13.043  0.3580  2.0174 -2.0265
13753TIP3    H262751   4.568   2.567  13.132 -1.4576  0.4414 -0.2268
13754TIP3   OH262752   6.198   1.399   0.975  0.1235  1.1577  0.2998
13754TIP3    H162753   6.170   1.307   0.974  0.1046  1.1518 -0.9365
13754TIP3    H262754   6.117   1.449   0.961  0.4724  1.1964 -1.9855
13755TIP3   OH262755   2.237   1.917  12.341  0.1842 -0.7117  0.0762
13755TIP3    H162756   2.292   1.895  12.266  1.2962 -0.1207  0.7004
13755TIP3    H262757   2.175   1.981  12.306  1.1331  0.0851 -0.1878
13756TIP3   OH262758   2.425   0.014   1.776  0.0799  0.2721  0.3449
13756TIP3    H162759   2.405   0.102   1.745  0.6671  0.6687  1.0377
13756TIP3    H262760   2.449  -0.035   1.698  0.9278  1.0705  0.0809
13757TIP3   OH262761   3.892   4.450  11.590  0.2371  0.1310  0.0749
13757TIP3    H162762   3.823   4.491  11.642 -0.0326 -2.8303  2.3180
13757TIP3    H262763   3.845   4.411  11.516 -0.9290 -2.7417  2.0994
13758TIP3   OH262764   2.367   1.624  15.835  0.3990 -0.2056  0.1116
13758TIP3    H162765   2.342   1.617  15.927 -0.9822 -0.8657 -0.2793
13758TIP3    H262766   2.403   1.712  15.826 -0.3138  0.1995  1.1000
13759TIP3   OH262767   2.425   6.095  11.395  0.0652 -0.2529  0.0201
13759TIP3    H162768   2.466   6.174  11.429 -0.4733  1.4134 -2.8564
13759TIP3    H262769   2.498   6.036  11.377  0.6586  0.3216  0.4987
13760TIP3   OH262770   2.993   0.730  13.817  0.9334 -0.2346  0.1740
13760TIP3    H162771   2.979   0.795  13.885  1.9743 -1.0912  1.2471
13760TIP3    H262772   3.024   0.652  13.864  3.0216 -0.4300 -1.3910
13761TIP3   OH262773   1.064   2.658  16.805  0.1663  0.1080  0.4642
13761TIP3    H162774   1.073   2.652  16.901  1.7035 -1.8142  0.2728
13761TIP3    H262775   1.125   2.727  16.780 -0.9253  1.2688  0.9135
13762TIP3   OH262776   5.107   6.813  14.421 -0.1451 -0.1428  0.4502
13762TIP3    H162777   5.100   6.893  14.369  0.2350  2.0937  3.4768
13762TIP3    H262778   5.035   6.758  14.392 -1.2215  1.8647 -0.9474
13763TIP3   OH262779   3.110   2.581   5.964  0.7434  0.5387  0.4601
13763TIP3    H162780   3.051   2.517   5.925  1.6045 -0.0785  0.1473
13763TIP3    H262781   3.062   2.614   6.040  0.0814 -0.1060  0.3329
13764TIP3   OH262782   4.273   5.332  15.651 -0.0053 -0.2159 -0.1886
13764TIP3    H162783   4.191   5.340  15.700  0.3270 -0.3532  0.3981
13764TIP3    H262784   4.329   5.279  15.707  0.7336  0.4762 -0.2520
13765TIP3   OH262785   5.510   1.227  11.973  0.5172 -0.2152 -0.2412
13765TIP3    H162786   5.439   1.286  11.948 -0.1182 -1.2603 -0.9405
13765TIP3    H262787   5.572   1.231  11.900  1.3808  0.9537  0.5141
13766TIP3   OH262788   4.066   1.437  13.836  0.4062 -0.0887  0.4402
13766TIP3    H162789   4.059   1.458  13.929  0.4001 -2.1680  0.9405
13766TIP3    H262790   3.996   1.489  13.795  0.2149  0.6275  1.6154
13767TIP3   OH262791   5.906   1.739   3.064  0.1567  0.5052  0.5793
13767TIP3    H162792   5.974   1.700   3.010 -3.4854 -3.4355 -1.7609
13767TIP3    H262793   5.903   1.684   3.142 -0.6260  0.3302  0.4340
13768TIP3   OH262794   4.435   4.413   5.129  0.7527  0.1178  0.1154
13768TIP3    H162795   4.346   4.380   5.124  1.9044 -3.7630  1.5797
13768TIP3    H262796   4.428   4.494   5.179 -1.8237 -0.6447  1.1418
13769TIP3   OH262797   4.186   2.959   5.473 -0.5977 -0.4658  0.9772
13769TIP3    H162798   4.254   2.954   5.541 -0.2769 -0.8984  0.6273
13769TIP3    H262799   4.109   2.920   5.514 -0.4671 -0.5223  1.1698
13770TIP3   OH262800   1.950   1.608   1.191  0.2148  0.1285  0.0963
13770TIP3    H162801   1.932   1.515   1.178  0.5023  0.1265 -0.3041
13770TIP3    H262802   1.988   1.637   1.108 -1.3303  0.9723 -0.3380
13771TIP3   OH262803   5.693   4.433  13.235  0.1316  0.0281 -0.5125
13771TIP3    H162804   5.720   4.514  13.191  1.1424 -0.6119 -1.1082
13771TIP3    H262805   5.759   4.420  13.303  0.6447 -0.8934 -1.1668
13772TIP3   OH262806   4.473   2.689  11.934  0.1183 -0.1622 -0.2479
13772TIP3    H162807   4.495   2.663  12.023 -1.4342  4.1652  1.6476
13772TIP3    H262808   4.550   2.737  11.903 -0.4465  0.9769  0.0476
13773TIP3   OH262809   4.103   5.400   4.409 -0.0328 -0.2937 -0.4185
13773TIP3    H162810   4.167   5.381   4.341 -0.0786 -2.0884 -0.0205
13773TIP3    H262811   4.142   5.471   4.460  1.3651 -0.9347 -0.5507
13774TIP3   OH262812   1.224   2.762   2.832 -0.7896  0.4524 -0.7191
13774TIP3    H162813   1.287   2.726   2.769 -0.4016  0.2111 -0.2047
13774TIP3    H262814   1.276   2.776   2.912 -1.6298 -0.8612  0.0998
13775TIP3   OH262815   3.360   6.235  12.682 -0.7222 -0.1180  0.3488
13775TIP3    H162816   3.450   6.211  12.658 -1.6320 -3.0790 -0.4883
13775TIP3    H262817   3.370   6.318  12.728  3.0816 -2.3044  4.3197
13776TIP3   OH262818   2.921   5.477   4.984 -0.4631  0.1466  0.6863
13776TIP3    H162819   2.958   5.534   5.052 -0.5974  0.3896  0.5606
13776TIP3    H262820   2.920   5.532   4.905  0.8907 -0.5447  0.1628
13777TIP3   OH262821   4.630   4.896   0.701 -0.2910 -0.4062  0.1138
13777TIP3    H162822   4.621   4.820   0.758 -1.3534  0.0475  0.5765
13777TIP3    H262823   4.715   4.884   0.657  0.5702 -0.7352  1.8139
13778TIP3   OH262824   0.505   3.935   2.267  0.0357 -0.5023 -0.2866
13778TIP3    H162825   0.421   3.900   2.296  0.4298 -2.0485 -0.9092
13778TIP3    H262826   0.567   3.908   2.334  0.0370  0.8076  0.2742
13779TIP3   OH262827   5.944   4.532  14.520 -0.2148 -0.2251  0.0780
13779TIP3    H162828   5.890   4.578  14.585 -0.7394 -0.6462 -0.0571
13779TIP3    H262829   5.970   4.601  14.459  1.0191  0.3497  1.2037
13780TIP3   OH262830   2.687   4.845  16.316 -0.1747 -0.7016 -0.2578
13780TIP3    H162831   2.720   4.756  16.324  0.7641 -0.4195 -0.9161
13780TIP3    H262832   2.612   4.848  16.376  0.7195 -1.4696  0.9311
13781TIP3   OH262833   0.752   2.273   3.470 -0.3792 -0.0402 -0.3858
13781TIP3    H162834   0.747   2.358   3.513  0.1682 -0.2795  0.1701
13781TIP3    H262835   0.716   2.288   3.383  0.3305  0.9151 -0.5280
13782TIP3   OH262836   4.522   6.784  12.492 -0.0950 -0.1946 -0.1890
13782TIP3    H162837   4.560   6.870  12.473  0.9138 -0.9581 -1.7167
13782TIP3    H262838   4.588   6.721  12.464 -1.3564 -1.5118 -0.2945
13783TIP3   OH262839   0.827   0.167   2.909 -0.4941  0.4129 -0.2950
13783TIP3    H162840   0.816   0.074   2.929  0.0481  0.2933 -0.5431
13783TIP3    H262841   0.791   0.177   2.820 -1.8146  0.7159  0.2451
13784TIP3   OH262842   2.166   6.021   5.660 -0.4892 -0.0270 -0.2624
13784TIP3    H162843   2.199   6.099   5.616 -1.0714 -1.1100 -2.8232
13784TIP3    H262844   2.071   6.024   5.646 -0.7687 -0.2046  1.3803
13785TIP3   OH262845   5.829   4.247  16.502 -0.3426  0.2315 -0.0974
13785TIP3    H162846   5.818   4.203  16.418  1.4011  1.5842 -1.0901
13785TIP3    H262847   5.863   4.333  16.480  2.6466 -0.2505  2.0428
13786TIP3   OH262848   0.093   6.587  16.786  0.9295 -0.0308 -0.4139
13786TIP3    H162849   0.042   6.581  16.867 -0.4831  1.3550 -1.1381
13786TIP3    H262850   0.162   6.522  16.796 -0.7306 -1.7095  0.8155
13787TIP3   OH262851   1.373   6.003   6.158 -0.8631 -0.0963  0.1803
13787TIP3    H162852   1.281   6.029   6.160 -0.2514  2.4513 -0.9529
13787TIP3    H262853   1.418   6.073   6.205  0.5756 -0.9471  0.1167
13788TIP3   OH262854   0.663   5.664   0.147  0.3174  0.0885 -0.4541
13788TIP3    H162855   0.581   5.712   0.150  1.0409  1.3615 -0.4930
13788TIP3    H262856   0.713   5.706   0.078  1.9968  1.0258  1.2285
13789TIP3   OH262857   4.646   4.086  15.126  0.0762 -0.4370  0.1699
13789TIP3    H162858   4.726   4.131  15.100 -0.3627  0.5562  0.4515
13789TIP3    H262859   4.670   3.994  15.130  0.6445 -0.4344 -1.8767
13790TIP3   OH262860   5.385   0.570   0.509  0.6330 -0.2492 -0.1829
13790TIP3    H162861   5.394   0.619   0.427 -2.8470 -0.1017 -0.6633
13790TIP3    H262862   5.333   0.493   0.485  0.4317 -0.7532  1.6976
13791TIP3   OH262863   3.615   0.465  14.021 -0.4228 -0.1951 -0.0895
13791TIP3    H162864   3.655   0.448  13.936 -0.0529  1.5253 -0.2990
13791TIP3    H262865   3.521   0.468  14.003 -0.5601 -2.3129  0.0531
13792TIP3   OH262866   4.640   6.158  16.016 -0.2132  0.0272  0.0422
13792TIP3    H162867   4.668   6.203  16.095 -1.3402 -0.0633  0.5092
13792TIP3    H262868   4.713   6.169  15.955  1.2275 -0.9887  1.4985
13793TIP3   OH262869   0.693   2.211   1.835  0.4578 -0.2355 -0.5321
13793TIP3    H162870   0.614   2.265   1.826  2.0737  2.0885 -1.6579
13793TIP3    H262871   0.669   2.127   1.796 -1.5450  0.2827 -0.5326
13794TIP3   OH262872   2.006   6.343  15.800  0.6129  0.3177 -0.1269
13794TIP3    H162873   1.916   6.318  15.783  1.3685 -2.0154 -1.1007
13794TIP3    H262874   2.054   6.320  15.720  2.3901 -0.3988  1.0726
13795TIP3   OH262875   0.508   2.230   1.273 -0.3312 -0.0755 -0.1405
13795TIP3    H162876   0.465   2.252   1.356 -0.9845 -0.2540 -0.4255
13795TIP3    H262877   0.472   2.145   1.249  0.1717 -0.2199 -0.3969
13796TIP3   OH262878   6.462   0.286   4.814  0.2848  0.1763  0.1898
13796TIP3    H162879   6.481   0.370   4.772  0.2919 -0.3095 -0.8150
13796TIP3    H262880   6.449   0.308   4.906 -0.8663  1.4471 -0.2321
13797TIP3   OH262881   0.497   5.336  13.072  0.2300 -0.4695 -0.1743
13797TIP3    H162882   0.429   5.400  13.050 -0.5668 -1.2406  0.0330
13797TIP3    H262883   0.573   5.390  13.095 -0.6121  0.4178  0.6056
13798TIP3   OH262884   3.263   5.767  15.184  0.0699  0.1731  0.2139
13798TIP3    H162885   3.246   5.689  15.130  0.2692 -1.9644  2.9973
13798TIP3    H262886   3.307   5.828  15.124  1.6996 -2.6159 -1.7018
13799TIP3   OH262887   0.990   1.340  13.415 -0.7234  0.3731  0.3958
13799TIP3    H162888   1.080   1.317  13.435 -0.5205 -0.7205 -1.5454
13799TIP3    H262889   0.996   1.420  13.363 -0.7302 -0.4790 -0.9626
13800TIP3   OH262890   3.985   3.485   2.470 -0.3090  0.5125  0.0346
13800TIP3    H162891   4.006   3.551   2.536 -2.1596 -0.5239  1.7521
13800TIP3    H262892   3.899   3.510   2.436  0.4029  0.7667 -1.7315
13801TIP3   OH262893   3.960   3.533  16.040  0.0604  0.5721 -0.7158
13801TIP3    H162894   3.942   3.622  16.012 -0.0281  0.4585 -1.0240
13801TIP3    H262895   3.880   3.505  16.084 -0.3309  0.2534 -1.6126
13802TIP3   OH262896   0.556   6.642  15.551 -0.8343 -0.0322 -0.1145
13802TIP3    H162897   0.508   6.637  15.633 -1.7401  1.8517 -0.4562
13802TIP3    H262898   0.604   6.560  15.545 -2.9577 -1.4403  0.9167
13803TIP3   OH262899   1.272   1.156   5.852 -0.2551 -0.2165  0.0552
13803TIP3    H162900   1.280   1.176   5.946  3.4156 -1.1209  0.0935
13803TIP3    H262901   1.185   1.116   5.844 -1.1621  0.9320  2.8205
13804TIP3   OH262902   6.485   3.781  15.073 -0.3200  0.0222 -0.0824
13804TIP3    H162903   6.403   3.815  15.107 -0.3479 -0.1880  0.0651
13804TIP3    H262904   6.543   3.857  15.069 -0.5562  0.1911 -0.2959
13805TIP3   OH262905   0.993   6.060   0.017  0.1820 -0.4911  0.0331
13805TIP3    H162906   0.997   6.128  -0.051 -0.1595  0.2412  0.7207
13805TIP3    H262907   1.041   5.986  -0.020  1.5997  0.5465 -0.2855
13806TIP3   OH262908   6.042   0.432  14.224 -0.1312  0.3597  0.1901
13806TIP3    H162909   6.069   0.370  14.156  0.0056  0.9398 -0.2876
13806TIP3    H262910   5.988   0.379  14.283 -0.3091 -0.1411 -0.4028
13807TIP3   OH262911   2.298   5.986   2.482 -0.0550  0.6587 -0.1962
13807TIP3    H162912   2.264   5.920   2.542 -0.3047 -0.5844 -1.6557
13807TIP3    H262913   2.232   5.993   2.413  0.5722  1.4910 -0.7381
13808TIP3   OH262914   3.466   4.891   4.679 -0.2359 -0.7776 -0.0165
13808TIP3    H162915   3.407   4.815   4.676 -1.0119 -0.1551 -1.2095
13808TIP3    H262916   3.413   4.961   4.716  0.3721 -0.7062  0.7413
13809TIP3   OH262917   4.302   2.843  11.771 -0.2914 -0.5527  0.1228
13809TIP3    H162918   4.266   2.907  11.833 -0.3245 -1.2923  0.8773
13809TIP3    H262919   4.363   2.791  11.822  2.3264  0.9712 -1.2182
13810TIP3   OH262920   4.757   3.513   3.226 -0.5418 -0.4190 -0.2973
13810TIP3    H162921   4.686   3.466   3.270  1.2203 -1.6704  1.3967
13810TIP3    H262922   4.768   3.592   3.279 -0.5609 -0.3095 -0.4573
13811TIP3   OH262923   5.933   4.595  12.076  0.1102  0.5524 -0.4534
13811TIP3    H162924   5.948   4.516  12.128  1.9813  1.6945  0.8593
13811TIP3    H262925   6.016   4.642  12.078 -0.6192  2.0436 -2.1283
13812TIP3   OH262926   1.796   3.682  12.795 -0.0438 -0.2361 -0.2337
13812TIP3    H162927   1.770   3.757  12.849  1.5280 -0.2691  0.6055
13812TIP3    H262928   1.741   3.610  12.826 -0.3410  0.1544  0.1519
13813TIP3   OH262929   5.501   3.107  12.353 -0.1948 -0.0134 -0.1696
13813TIP3    H162930   5.582   3.153  12.331  0.2443 -0.4975  0.4119
13813TIP3    H262931   5.432   3.170  12.336  0.4220  1.0317  1.0559
13814TIP3   OH262932   6.372   0.982   5.458 -0.5058 -0.6088 -0.0290
13814TIP3    H162933   6.370   0.943   5.545 -0.5634 -2.9603 -0.9929
13814TIP3    H262934   6.282   1.008   5.441 -0.5875 -0.5848  0.4251
13815TIP3   OH262935   6.286   0.892   1.544 -0.1478  0.0756  0.0133
13815TIP3    H162936   6.228   0.934   1.481  0.1617 -0.8586 -0.9182
13815TIP3    H262937   6.291   0.801   1.515  2.3378  0.2648 -0.3709
13816TIP3   OH262938   0.043   4.832   1.572  0.2070 -0.2465 -0.2115
13816TIP3    H162939   0.075   4.906   1.624 -0.2774 -0.3871  0.2943
13816TIP3    H262940  -0.028   4.869   1.519  1.3826  0.1488 -1.5954
13817TIP3   OH262941   3.554   6.385  12.516 -0.2383  0.2521  0.8019
13817TIP3    H162942   3.486   6.449  12.494 -1.0539 -0.5002  1.0887
13817TIP3    H262943   3.618   6.435  12.568 -0.9299  0.7975  1.1459
13818TIP3   OH262944   5.290   6.209  13.327  0.3019  0.3408  0.0105
13818TIP3    H162945   5.224   6.203  13.258  1.3124 -1.3855 -0.8493
13818TIP3    H262946   5.319   6.119  13.341  1.3579  0.8706  1.4943
13819TIP3   OH262947   2.064   1.458   2.544 -0.1754 -0.0184  0.4208
13819TIP3    H162948   2.134   1.398   2.570  0.5563  0.3978 -0.5422
13819TIP3    H262949   1.991   1.401   2.519  0.3794 -0.5037 -0.1105
13820TIP3   OH262950   2.926   4.103   0.846 -0.1802 -0.0865 -0.5870
13820TIP3    H162951   3.017   4.073   0.850 -0.1970 -0.0508  0.1395
13820TIP3    H262952   2.884   4.043   0.784  0.3214 -0.1459 -0.8739
13821TIP3   OH262953   4.188   0.864   0.025 -0.1526  0.0825  0.3616
13821TIP3    H162954   4.180   0.924   0.099  2.2872  0.9124  0.0342
13821TIP3    H262955   4.282   0.859   0.008 -0.6039  1.7684 -4.1065
13822TIP3   OH262956   4.285   5.182   5.613 -0.2460 -0.1897 -0.0376
13822TIP3    H162957   4.358   5.143   5.564  0.0676  1.9350 -1.4140
13822TIP3    H262958   4.210   5.174   5.554 -0.0562  1.6478 -0.6086
13823TIP3   OH262959   0.127   4.909  10.641  0.2329  0.0278 -0.1907
13823TIP3    H162960   0.092   4.877  10.558  0.0384  0.5153 -0.2989
13823TIP3    H262961   0.173   4.990  10.619  0.2585  0.1121  0.1588
13824TIP3   OH262962   0.625   4.656  16.871 -0.3563  0.3001 -0.5242
13824TIP3    H162963   0.688   4.586  16.851  1.0065  0.7594  1.7524
13824TIP3    H262964   0.549   4.611  16.907 -0.5832 -0.1394 -1.5140
13825TIP3   OH262965   3.452   2.228  16.200 -0.3547  0.0196 -0.1267
13825TIP3    H162966   3.422   2.279  16.125 -0.1142 -0.7391 -0.7503
13825TIP3    H262967   3.454   2.290  16.272  0.6383  1.0745 -1.0282
13826TIP3   OH262968   3.078   2.821  16.477  0.4423  0.1586  0.1878
13826TIP3    H162969   3.121   2.765  16.412  1.8829  1.6260 -0.1907
13826TIP3    H262970   3.080   2.770  16.558 -0.3421 -1.2382 -0.6303
13827TIP3   OH262971   0.763   6.646   4.952  0.4732 -0.3189  0.2844
13827TIP3    H162972   0.837   6.615   5.004  0.6868 -1.6716 -0.7843
13827TIP3    H262973   0.792   6.639   4.862 -0.3753  0.7301 -0.0924
13828TIP3   OH262974   2.566   1.736   2.689 -0.5089 -0.2755 -0.2740
13828TIP3    H162975   2.624   1.682   2.636 -1.1626 -0.8205 -0.4482
13828TIP3    H262976   2.499   1.676   2.720 -0.0816  0.0095  1.2669
13829TIP3   OH262977   1.246   5.839   0.842  0.0374  0.1497  0.1051
13829TIP3    H162978   1.275   5.913   0.789  1.2491 -1.8720 -2.2743
13829TIP3    H262979   1.172   5.873   0.893  0.8662  3.0821 -0.4740
13830TIP3   OH262980   1.122   5.671  12.682  0.3199 -0.0393 -0.0202
13830TIP3    H162981   1.069   5.629  12.750 -0.2255  0.3030 -0.2370
13830TIP3    H262982   1.097   5.627  12.601 -0.5872  0.9928 -0.3192
13831TIP3   OH262983   4.992   0.224  15.143 -0.1707 -0.2006 -0.5306
13831TIP3    H162984   4.911   0.275  15.133 -0.6715 -0.7798  0.3914
13831TIP3    H262985   4.980   0.149  15.084 -1.0211 -1.1114  0.7507
13832TIP3   OH262986   3.659   3.142  15.985 -0.4886 -0.2696 -0.0221
13832TIP3    H162987   3.752   3.123  15.973 -0.6097 -0.2052 -1.1768
13832TIP3    H262988   3.637   3.104  16.070  0.6529 -0.0504  0.3800
13833TIP3   OH262989   3.990   4.063  14.779  0.0155 -0.2713 -0.2614
13833TIP3    H162990   4.032   4.146  14.802  1.3411 -0.3755 -2.1119
13833TIP3    H262991   4.063   4.001  14.770 -0.8703 -1.3967  0.0713
13834TIP3   OH262992   6.458   4.151  11.278 -0.3086  0.1220 -0.1338
13834TIP3    H162993   6.427   4.179  11.191  2.2149 -0.8946 -1.4567
13834TIP3    H262994   6.379   4.123  11.323 -1.4842 -1.6147 -3.0095
13835TIP3   OH262995   0.663   3.644   3.268  0.2908  0.3819 -0.1273
13835TIP3    H162996   0.721   3.712   3.301 -0.4096  0.8548  0.1730
13835TIP3    H262997   0.702   3.562   3.298  1.1481  0.6435 -0.4960
13836TIP3   OH262998   2.950   1.765  13.724  0.4467 -0.6251 -0.4184
13836TIP3    H162999   2.877   1.723  13.768  0.5144 -0.6303 -0.3101
13836TIP3    H263000   2.961   1.849  13.768  0.1680 -0.3972 -0.7847
13837TIP3   OH263001   4.971   4.885  14.114 -0.4678  0.1604 -0.3050
13837TIP3    H163002   4.990   4.909  14.023 -0.9051  0.7451 -0.2548
13837TIP3    H263003   5.025   4.808  14.131  0.3310  0.6112 -0.7612
13838TIP3   OH263004   6.234   6.256   2.134  0.0719 -0.5469  0.6389
13838TIP3    H163005   6.275   6.311   2.068 -0.3044 -0.3395  0.5774
13838TIP3    H263006   6.237   6.168   2.097 -0.3993 -0.3897  0.2157
13839TIP3   OH263007   3.788   4.665   3.235  0.1205 -0.1781 -0.0412
13839TIP3    H163008   3.879   4.674   3.206 -0.1600  0.8870 -0.6148
13839TIP3    H263009   3.736   4.682   3.157 -0.6128  0.8940  0.6499
13840TIP3   OH263010   3.246   5.058  15.870  0.9515 -0.0490  0.4620
13840TIP3    H163011   3.304   4.989  15.838 -1.2580 -1.5762 -0.4880
13840TIP3    H263012   3.218   5.104  15.791  2.7695  2.3872  1.1045
13841TIP3   OH263013   5.337   4.932   5.072 -0.5698  0.5149 -0.5324
13841TIP3    H163014   5.420   4.889   5.093  0.1046  0.6798 -2.6448
13841TIP3    H263015   5.283   4.919   5.150  1.2669  0.0120  0.7263
13842TIP3   OH263016   0.906   4.836  11.874 -0.5433  0.4958  0.1046
13842TIP3    H163017   0.894   4.759  11.818 -2.9150 -0.5172  1.8514
13842TIP3    H263018   0.892   4.911  11.815 -0.5617 -0.4561 -1.1462
13843TIP3   OH263019   2.061   5.851  13.479 -0.0200  0.0139 -0.2589
13843TIP3    H163020   2.107   5.791  13.420  0.2643  1.8590 -2.0265
13843TIP3    H263021   2.130   5.900  13.523 -0.2022  1.1774 -1.1934
13844TIP3   OH263022   5.455   1.188   0.928 -0.0526 -0.1668  0.3274
13844TIP3    H163023   5.452   1.137   1.010  2.2166  0.8037  1.0886
13844TIP3    H263024   5.380   1.247   0.935 -1.1772 -1.5704  0.6591
13845TIP3   OH263025   4.273   0.319   1.216  0.0428 -0.1921 -0.2937
13845TIP3    H163026   4.214   0.252   1.181 -1.7635  0.8831  0.5335
13845TIP3    H263027   4.240   0.401   1.180  1.6710  0.3620 -0.5828
13846TIP3   OH263028   5.862   3.432  15.076  0.4289 -0.4029  0.6416
13846TIP3    H163029   5.921   3.365  15.110 -1.0023 -1.5690  0.9485
13846TIP3    H263030   5.775   3.398  15.095 -0.3442  1.3082  0.2869
13847TIP3   OH263031   5.422   0.258   0.997 -0.0219  0.0643  0.0575
13847TIP3    H163032   5.359   0.190   0.974 -0.1402  0.3145 -0.3724
13847TIP3    H263033   5.378   0.340   0.974  0.4171  0.2436 -0.1545
13848TIP3   OH263034   4.918   1.364  16.313  0.3303  0.2729  0.2025
13848TIP3    H163035   4.953   1.346  16.226  1.9205  1.3772  0.5576
13848TIP3    H263036   4.900   1.458  16.313  0.6031  0.3405  1.1258
13849TIP3   OH263037   6.722   2.591   0.236  0.5000  0.5748 -0.6942
13849TIP3    H163038   6.753   2.635   0.315 -1.0069 -0.1760  0.3450
13849TIP3    H263039   6.701   2.662   0.176 -0.3485  1.2345  0.3562
13850TIP3   OH263040   5.868   4.137  16.238 -0.4902 -0.3177 -0.3244
13850TIP3    H163041   5.788   4.127  16.186 -0.5868  0.5933 -0.3625
13850TIP3    H263042   5.904   4.221  16.210  0.9577 -1.1151 -0.9458
13851TIP3   OH263043   5.640   4.006   4.564 -0.2500  0.0945 -0.0721
13851TIP3    H163044   5.634   3.974   4.654  0.3823 -0.2180 -0.1315
13851TIP3    H263045   5.585   4.084   4.562 -2.8118 -1.5953 -0.1982
13852TIP3   OH263046   1.232   4.954  15.006  0.5112 -0.0503 -0.5975
13852TIP3    H163047   1.167   5.019  15.033  1.4568  0.5903  0.1790
13852TIP3    H263048   1.248   4.902  15.085  1.5854  0.3578 -0.5359
13853TIP3   OH263049   4.684   0.862   1.536 -0.1693  0.1792  0.2374
13853TIP3    H163050   4.648   0.948   1.515  0.7701  0.0928 -1.9861
13853TIP3    H263051   4.779   0.877   1.541  0.0516 -0.7918 -0.7292
13854TIP3   OH263052   2.772   5.810  12.521 -0.1900  0.0145 -0.0787
13854TIP3    H163053   2.864   5.822  12.496  0.3992  0.5467  2.1447
13854TIP3    H263054   2.722   5.853  12.452  1.3679  2.3718  0.1727
13855TIP3   OH263055   3.385   1.553  15.252 -0.0402 -0.5906 -0.0753
13855TIP3    H163056   3.309   1.509  15.291 -0.4043  0.3188  0.2546
13855TIP3    H263057   3.352   1.638  15.223  0.9377 -0.0183  0.4352
13856TIP3   OH263058   6.191   6.796  16.355  0.6527  0.2209  0.0748
13856TIP3    H163059   6.200   6.790  16.260  0.8642  1.7580 -0.0254
13856TIP3    H263060   6.272   6.759  16.389  1.9920  2.5072 -0.4581
13857TIP3   OH263061   1.758   6.404  12.279  0.3657 -0.4275 -0.0433
13857TIP3    H163062   1.829   6.467  12.270 -1.4095  1.4311 -2.3221
13857TIP3    H263063   1.681   6.458  12.299 -1.4825 -1.6056 -3.3353
13858TIP3   OH263064   5.013   3.633  15.231 -0.2416  0.4067 -0.6673
13858TIP3    H163065   5.050   3.584  15.305 -2.1524  0.6247  0.4927
13858TIP3    H263066   4.948   3.574  15.193  0.5007  0.4200 -2.0073
13859TIP3   OH263067   5.293   1.171   2.692  0.2795  0.9550  0.2177
13859TIP3    H163068   5.257   1.091   2.729 -0.5140  1.1012 -0.2154
13859TIP3    H263069   5.373   1.143   2.646  2.2151  0.9849  3.3061
13860TIP3   OH263070   4.314   1.252   1.209  0.4614 -0.2353 -0.0989
13860TIP3    H163071   4.235   1.213   1.246 -0.2545  0.0185 -1.2907
13860TIP3    H263072   4.285   1.337   1.176  0.7073 -0.9766 -2.4250
13861TIP3   OH263073   5.158   4.018  13.369  0.1484 -0.4788  0.0154
13861TIP3    H163074   5.163   3.934  13.414  0.4179 -0.2206  0.4681
13861TIP3    H263075   5.070   4.020  13.331  0.3541 -1.2312 -0.5223
13862TIP3   OH263076   4.969   0.532   0.368  0.7008 -0.2724  0.8512
13862TIP3    H163077   4.880   0.557   0.393  1.7551  3.3410  1.5975
13862TIP3    H263078   4.962   0.513   0.274 -0.8003  0.3450  0.8024
13863TIP3   OH263079   0.047   3.785  12.128  0.3416 -0.6889  0.3642
13863TIP3    H163080   0.115   3.731  12.170  1.0610  0.7488  1.1549
13863TIP3    H263081   0.064   3.873  12.161 -1.0455 -0.0440 -0.5646
13864TIP3   OH263082   5.130   6.557   0.485 -0.3576  0.2245 -0.7883
13864TIP3    H163083   5.164   6.628   0.540  0.1418  0.7705 -1.7601
13864TIP3    H263084   5.110   6.600   0.402 -1.6864 -0.4642 -0.8400
13865TIP3   OH263085   3.059   2.937  13.823 -0.2600  0.6074  0.5055
13865TIP3    H163086   3.022   3.020  13.795  2.3298  2.0364  1.0054
13865TIP3    H263087   3.071   2.945  13.917  0.6916 -0.0321  0.4599
13866TIP3   OH263088   6.001   4.223   2.299 -0.4637 -0.3100 -0.2428
13866TIP3    H163089   5.934   4.287   2.324  1.9755  1.1395  3.3065
13866TIP3    H263090   6.064   4.273   2.246 -0.0601 -0.5680 -0.0071
13867TIP3   OH263091   3.218   6.526  15.717  0.8798  0.1560 -0.2987
13867TIP3    H163092   3.221   6.449  15.661 -1.2375 -2.0389  2.3133
13867TIP3    H263093   3.137   6.571  15.692  0.0442 -0.7091  0.7582
13868TIP3   OH263094   2.411   5.920   3.093  0.5452 -0.1283  0.0084
13868TIP3    H163095   2.318   5.896   3.097  0.3100  0.8008  0.4348
13868TIP3    H263096   2.418   5.977   3.016  1.0071 -1.1669 -0.7353
13869TIP3   OH263097   5.130   6.185   4.323  0.8536  0.1815  0.8929
13869TIP3    H163098   5.209   6.131   4.322  0.2807 -0.7050 -1.1431
13869TIP3    H263099   5.068   6.136   4.378  0.9585 -0.3080  0.5832
13870TIP3   OH263100   6.599   6.266  11.699  0.4160  0.2750 -0.0610
13870TIP3    H163101   6.679   6.213  11.694  2.2743  2.7361  1.2408
13870TIP3    H263102   6.628   6.348  11.738 -2.9670  0.9851  1.2528
13871TIP3   OH263103   1.540   3.807   2.025  0.4428 -0.1048  0.2652
13871TIP3    H163104   1.567   3.845   2.109 -0.9376 -2.7722  2.0663
13871TIP3    H263105   1.593   3.728   2.016 -1.1435 -1.1800 -0.0828
13872TIP3   OH263106   6.027   0.361  15.148  0.1600  0.1073  0.0765
13872TIP3    H163107   5.979   0.436  15.183 -1.2140 -0.5512 -0.3186
13872TIP3    H263108   6.025   0.373  15.054 -0.9558 -0.9073 -0.0575
13873TIP3   OH263109   3.663   6.132   5.861 -0.1354 -0.1891 -0.1811
13873TIP3    H163110   3.640   6.218   5.827  0.3081  0.0868  0.2145
13873TIP3    H263111   3.722   6.095   5.796 -3.0202 -1.6700 -2.1756
13874TIP3   OH263112   5.589   1.452  12.115 -0.1771  0.1565  0.2571
13874TIP3    H163113   5.561   1.379  12.060 -0.2815 -0.3241  0.9421
13874TIP3    H263114   5.648   1.503  12.059 -1.7422  0.7315 -0.9277
13875TIP3   OH263115   1.412   2.031  14.920 -0.4544 -0.3680  0.5501
13875TIP3    H163116   1.442   2.028  15.011 -1.3241  1.2903  0.9504
13875TIP3    H263117   1.373   2.119  14.912 -1.4501 -0.9273 -1.0795
13876TIP3   OH263118   6.659   2.250   4.198 -0.1626 -0.2430 -0.7553
13876TIP3    H163119   6.701   2.320   4.249  1.1707 -1.3248 -0.3093
13876TIP3    H263120   6.713   2.173   4.214  0.3573 -0.6556 -3.8564
13877TIP3   OH263121   4.589   5.131  11.581 -0.7272 -0.2802  0.2894
13877TIP3    H163122   4.547   5.198  11.527 -0.8998 -1.0733 -0.5860
13877TIP3    H263123   4.663   5.100  11.529 -0.6041 -0.7214  0.7165
13878TIP3   OH263124   1.305   4.918  16.503 -0.1918  0.3854 -0.2209
13878TIP3    H163125   1.212   4.903  16.491 -0.1392  0.6209 -0.9191
13878TIP3    H263126   1.342   4.916  16.415  0.5532 -0.2927  0.0918
13879TIP3   OH263127   5.901   6.179   3.761 -0.4762  0.2944 -0.4757
13879TIP3    H163128   5.837   6.226   3.813  0.0289  0.2209  0.2199
13879TIP3    H263129   5.979   6.234   3.762 -0.0844 -0.2640 -0.1741
13880TIP3   OH263130   6.600   6.531  11.815  0.2299 -0.1499  0.5172
13880TIP3    H163131   6.516   6.575  11.801 -0.8785 -2.1048  0.6849
13880TIP3    H263132   6.640   6.580  11.888 -1.1877  0.2448  1.0706
13881TIP3   OH263133   3.392   1.576  12.399 -0.4980  0.4565 -0.0586
13881TIP3    H163134   3.385   1.514  12.327  0.2194  0.3856 -0.0684
13881TIP3    H263135   3.483   1.604  12.399 -0.1773 -0.4498  1.5558
13882TIP3   OH263136   3.231   1.082  11.454 -0.6726 -0.5096 -0.1820
13882TIP3    H163137   3.319   1.045  11.460 -0.3773  0.1754 -0.2043
13882TIP3    H263138   3.242   1.174  11.478 -1.1008 -0.0245 -1.7420
13883TIP3   OH263139   0.516   2.310  10.484 -0.7863 -0.3929  0.4734
13883TIP3    H163140   0.423   2.287  10.498 -0.6138 -0.1574  2.3052
13883TIP3    H263141   0.540   2.358  10.563  1.0326 -0.8526  0.2307
13884TIP3   OH263142   4.113   6.559  16.722  0.8105 -0.3190 -0.3191
13884TIP3    H163143   4.197   6.575  16.680  1.1156 -0.7725  0.1000
13884TIP3    H263144   4.136   6.539  16.813  0.3616 -1.7083 -0.4827
13885TIP3   OH263145   4.187   5.341  10.786 -0.7160 -0.4519 -0.1018
13885TIP3    H163146   4.211   5.332  10.878  2.2935  3.5505 -0.2213
13885TIP3    H263147   4.108   5.395  10.787  1.1817  2.5444  0.3133
13886TIP3   OH263148   3.568   5.180  12.327  0.2850  0.1722  0.9048
13886TIP3    H163149   3.541   5.142  12.411  0.8992 -0.8513  0.6633
13886TIP3    H263150   3.626   5.114  12.290 -1.7595 -0.4749 -1.3910
13887TIP3   OH263151   3.437   0.022  14.085 -0.0566 -0.0702  0.1319
13887TIP3    H163152   3.357   0.074  14.091  0.8466  2.2553 -4.0769
13887TIP3    H263153   3.508   0.086  14.088  1.6782 -1.9118  1.9656
13888TIP3   OH263154   4.704   6.014  16.827 -0.3131  0.1728  0.7385
13888TIP3    H163155   4.728   5.931  16.786  1.7778  0.5917  0.9799
13888TIP3    H263156   4.650   6.059  16.761  1.6244  0.1529 -0.9841
13889TIP3   OH263157   2.048   6.032   6.683  0.1257 -0.8430 -0.3595
13889TIP3    H163158   2.135   5.998   6.700  0.4761 -0.0447 -0.4995
13889TIP3    H263159   2.015   6.059   6.768 -0.4275 -2.1314 -0.1452
13890TIP3   OH263160   6.665   4.142   1.140  0.1738 -0.1874 -0.0093
13890TIP3    H163161   6.729   4.208   1.113  1.7200 -0.9618  1.5517
13890TIP3    H263162   6.627   4.176   1.221 -0.4171 -0.3599 -0.2081
13891TIP3   OH263163   1.545   6.582  12.735  0.2875 -0.2734 -0.4529
13891TIP3    H163164   1.460   6.538  12.741  0.0084  0.3932  1.0687
13891TIP3    H263165   1.581   6.576  12.824  2.2345 -1.2870 -1.2489
13892TIP3   OH263166   6.636   6.303   1.022  0.3366  0.3961  0.6192
13892TIP3    H163167   6.608   6.388   0.989 -0.5811  0.8263  2.3865
13892TIP3    H263168   6.555   6.255   1.037  0.7789 -0.2457  1.0293
13893TIP3   OH263169   1.310   0.204  16.603 -0.1885  0.2337  0.0296
13893TIP3    H163170   1.259   0.135  16.561 -2.0052  1.3629  0.2488
13893TIP3    H263171   1.401   0.176  16.593 -0.7592 -1.3040 -1.4417
13894TIP3   OH263172   3.389   4.054   6.786 -0.1672 -0.1742 -0.0159
13894TIP3    H163173   3.454   3.984   6.779  0.6803  0.7224 -1.5141
13894TIP3    H263174   3.440   4.134   6.780 -1.3259  0.5615 -0.2248
13895TIP3   OH263175   2.307   0.549   3.272  0.5016 -0.8045  0.4140
13895TIP3    H163176   2.213   0.564   3.263  1.0770  2.8047 -1.7181
13895TIP3    H263177   2.327   0.574   3.362 -0.1371  2.8047 -0.2900
13896TIP3   OH263178   3.131   5.264  16.278 -0.1559  0.4637  0.2769
13896TIP3    H163179   3.214   5.307  16.300 -0.3032  0.6621  0.4598
13896TIP3    H263180   3.086   5.327  16.222 -0.6197  0.8009  1.0166
13897TIP3   OH263181   2.376   1.587   6.759 -0.6576 -0.3528  0.1930
13897TIP3    H163182   2.454   1.553   6.714 -0.7476  0.2970 -0.4832
13897TIP3    H263183   2.304   1.567   6.699 -1.0136 -0.9200  0.7975
13898TIP3   OH263184   1.479   6.322  14.643 -0.4902  0.5751 -0.3478
13898TIP3    H163185   1.437   6.390  14.695 -1.5803 -0.1833 -0.1990
13898TIP3    H263186   1.408   6.284  14.591  0.2428  0.0827 -1.0138
13899TIP3   OH263187   1.367   3.121  14.312 -0.0052  0.2911  0.0723
13899TIP3    H163188   1.457   3.140  14.336 -0.4660  0.5381  1.7709
13899TIP3    H263189   1.336   3.201  14.268 -0.0932  1.1726  1.6697
13900TIP3   OH263190   6.218   6.706  14.071 -0.1256 -0.2579 -0.1193
13900TIP3    H163191   6.133   6.748  14.086  0.1980  0.9720 -1.4284
13900TIP3    H263192   6.203   6.648  13.997  0.1745  0.0001 -0.3866
13901TIP3   OH263193   5.332   4.476   2.882 -0.0390 -0.1091 -0.2322
13901TIP3    H163194   5.314   4.400   2.827 -0.0271 -0.7774  0.6485
13901TIP3    H263195   5.426   4.469   2.902 -0.2615 -0.5256  0.7667
13902TIP3   OH263196   6.049   3.695  11.300  0.0139 -0.5340 -0.2940
13902TIP3    H163197   6.093   3.778  11.317 -0.3532 -0.4727  0.4144
13902TIP3    H263198   6.115   3.629  11.318  0.1652 -0.4093 -0.3864
13903TIP3   OH263199   5.141   4.655   3.711 -0.0504 -0.2927 -0.6750
13903TIP3    H163200   5.119   4.676   3.802  0.1532 -1.4859 -0.3382
13903TIP3    H263201   5.151   4.741   3.668  2.9555  0.4238  1.1571
13904TIP3   OH263202   4.649   5.747  15.838  0.3231  0.3348 -0.4362
13904TIP3    H163203   4.677   5.672  15.786  1.4179  0.8097 -0.5484
13904TIP3    H263204   4.565   5.773  15.799  0.4314 -0.2024 -1.0421
13905TIP3   OH263205   1.410   5.245   5.704  0.1840 -1.2015  0.7874
13905TIP3    H163206   1.473   5.314   5.728 -0.5132 -0.4607  0.5219
13905TIP3    H263207   1.465   5.168   5.685  1.5569  0.6303 -4.2374
13906TIP3   OH263208   0.748   5.975   1.687 -0.7793 -0.1244  0.0548
13906TIP3    H163209   0.712   6.043   1.631 -2.0876 -1.6496 -1.0505
13906TIP3    H263210   0.672   5.930   1.723  0.0423 -1.1512  0.5796
13907TIP3   OH263211   4.164   5.121   1.451 -0.4527 -0.3144 -0.0808
13907TIP3    H163212   4.163   5.185   1.523 -1.4750 -0.7899  0.3520
13907TIP3    H263213   4.253   5.124   1.418 -0.6459  1.8923 -0.5701
13908TIP3   OH263214   5.237   5.472   4.173 -0.2930 -0.0802  0.3630
13908TIP3    H163215   5.304   5.533   4.143 -0.6433 -0.4158 -1.1867
13908TIP3    H263216   5.278   5.386   4.163 -0.8326 -0.2671 -0.3001
13909TIP3   OH263217   6.613   4.642   4.074  0.0764  0.6798  0.0290
13909TIP3    H163218   6.561   4.613   4.149  0.6178 -0.0125  0.1512
13909TIP3    H263219   6.555   4.701   4.026 -1.1336 -0.7270 -0.3024
13910TIP3   OH263220   2.466   1.235  12.204 -0.0379  0.8991  0.3612
13910TIP3    H163221   2.478   1.228  12.299  0.5640  1.8975  0.3756
13910TIP3    H263222   2.401   1.304  12.194 -0.4639  0.4554  0.0554
13911TIP3   OH263223   0.369   0.021  15.130  0.2707 -0.3197 -0.3073
13911TIP3    H163224   0.389  -0.053  15.187  2.9529  0.8474  0.4159
13911TIP3    H263225   0.375   0.098  15.188  1.4541  0.7547 -1.7731
13912TIP3   OH263226   4.125   2.572  14.392 -0.3272  0.0706  0.2189
13912TIP3    H163227   4.161   2.501  14.339  1.0731  0.9732 -0.0732
13912TIP3    H263228   4.068   2.620  14.333  1.0508  0.9384 -0.4480
13913TIP3   OH263229   1.163   5.854   3.260 -0.2971 -0.1038  0.1559
13913TIP3    H163230   1.151   5.767   3.222 -0.6029 -0.6116  1.3468
13913TIP3    H263231   1.081   5.870   3.307 -0.0159  0.5772  0.4267
13914TIP3   OH263232   1.352   0.648   1.748  0.7004  0.1749  0.2108
13914TIP3    H163233   1.382   0.586   1.816  1.2281 -0.6337 -0.7289
13914TIP3    H263234   1.412   0.633   1.675 -0.9931 -0.3114 -1.1339
13915TIP3   OH263235   3.910   0.725  13.845  0.1594  0.1929 -0.5798
13915TIP3    H163236   3.827   0.726  13.892  0.5077 -1.7233  0.2039
13915TIP3    H263237   3.973   0.691  13.909  0.9382 -1.1484 -1.9716
13916TIP3   OH263238   4.576   1.070   0.624 -0.4404  0.3114 -0.1601
13916TIP3    H163239   4.558   1.041   0.714 -0.0416 -0.9609 -0.4710
13916TIP3    H263240   4.493   1.105   0.594 -0.6227  0.6117  0.6563
13917TIP3   OH263241   0.941   1.026  14.513  0.2703  0.6176  0.2725
13917TIP3    H163242   0.940   1.088  14.439  1.3453  1.0429  0.5942
13917TIP3    H263243   1.033   0.999  14.520 -0.5276 -3.4514 -1.8360
13918TIP3   OH263244   3.640   0.386  12.380  0.0612  0.3691  0.0647
13918TIP3    H163245   3.548   0.410  12.389 -0.0678 -0.3358  0.7392
13918TIP3    H263246   3.680   0.414  12.462  0.1349 -0.6435  0.3917
13919TIP3   OH263247   2.068   3.774  11.334  0.4570 -0.0971  0.1561
13919TIP3    H163248   2.104   3.761  11.246  0.0938  1.8091 -0.3075
13919TIP3    H263249   1.984   3.727  11.333  0.1915  0.3814 -0.7116
13920TIP3   OH263250   0.832   6.717  13.100 -0.0858  0.1297 -0.0830
13920TIP3    H163251   0.771   6.789  13.084 -1.1979 -0.4067  1.4610
13920TIP3    H263252   0.876   6.703  13.016 -0.3405  2.1282 -0.6003
13921TIP3   OH263253   5.856   0.184  16.685 -0.4450 -0.1260  0.4618
13921TIP3    H163254   5.894   0.097  16.690  1.1842  0.6110  2.3327
13921TIP3    H263255   5.904   0.227  16.614 -0.4620 -0.4006  0.2854
13922TIP3   OH263256   5.549   1.812   6.215  0.4232  0.0062 -0.0547
13922TIP3    H163257   5.540   1.895   6.168  2.4701  0.2767 -0.0923
13922TIP3    H263258   5.641   1.787   6.201  0.1768 -1.6376  0.9908
13923TIP3   OH263259   0.124   2.830   5.166  0.4075  0.2074 -0.1088
13923TIP3    H163260   0.148   2.769   5.235  0.1076 -0.4086 -0.5430
13923TIP3    H263261   0.028   2.832   5.168  0.4093  1.9150  0.9753
13924TIP3   OH263262   2.978   3.233  13.234 -0.0974 -0.7312 -0.1230
13924TIP3    H163263   3.027   3.221  13.153  0.1124  0.0208 -0.1168
13924TIP3    H263264   3.023   3.177  13.298 -0.3327 -1.4115 -0.5481
13925TIP3   OH263265   0.026   5.155  14.285  0.4032  0.2720  0.1724
13925TIP3    H163266   0.107   5.103  14.286  1.0140  1.1944 -0.0053
13925TIP3    H263267   0.055   5.244  14.300 -0.4730  0.7954 -1.0856
13926TIP3   OH263268   5.625   1.451   3.252 -0.7527 -0.9691 -0.4202
13926TIP3    H163269   5.531   1.434   3.254 -0.8426 -0.4939  1.3321
13926TIP3    H263270   5.663   1.372   3.215 -1.8604 -0.9574 -1.6647
13927TIP3   OH263271   5.909   4.824  13.781 -0.3789  0.0460  0.5052
13927TIP3    H163272   5.973   4.868  13.726  0.2296  0.4384  1.5070
13927TIP3    H263273   5.863   4.765  13.722  0.1663  0.5594 -0.4448
13928TIP3   OH263274   4.313   2.085   0.958 -0.6316 -0.1907 -0.2037
13928TIP3    H163275   4.386   2.025   0.942  1.0230  2.1673 -2.2352
13928TIP3    H263276   4.256   2.073   0.882 -0.6795  0.2624 -0.2417
13929TIP3   OH263277   2.296   5.802  10.366  0.2857  0.2467 -0.2676
13929TIP3    H163278   2.313   5.709  10.380 -1.8787 -0.0905  0.4433
13929TIP3    H263279   2.337   5.821  10.282 -1.7827 -2.1258 -1.9444
13930TIP3   OH263280   3.359   3.379   1.757 -0.2602 -0.1290  0.0235
13930TIP3    H163281   3.388   3.469   1.770  0.9792 -0.2247 -1.6488
13930TIP3    H263282   3.422   3.343   1.694 -1.7420 -1.6263 -0.6801
13931TIP3   OH263283   3.323   3.009  10.741 -0.2184 -0.1893 -0.0346
13931TIP3    H163284   3.332   3.104  10.753 -0.3581 -0.1650 -0.1141
13931TIP3    H263285   3.411   2.979  10.720  0.2412 -0.3847  1.9711
13932TIP3   OH263286   2.248   0.335   4.462  0.3286  0.6086  0.0319
13932TIP3    H163287   2.159   0.319   4.432 -0.7278  2.8427  1.6003
13932TIP3    H263288   2.303   0.323   4.385 -1.4223 -0.1293 -1.1503
13933TIP3   OH263289   1.649   5.612   5.251 -0.2643 -0.8958  0.2379
13933TIP3    H163290   1.597   5.645   5.324 -1.0684 -1.7924  0.0979
13933TIP3    H263291   1.714   5.554   5.292 -1.2487 -2.0625  0.2059
13934TIP3   OH263292   6.597   5.139   0.580  0.4005  0.0279 -0.1651
13934TIP3    H163293   6.667   5.129   0.645 -1.5959 -1.5160  1.9284
13934TIP3    H263294   6.620   5.077   0.510  1.6364  0.3449 -0.0657
13935TIP3   OH263295   5.262   5.446  12.526  0.0869  0.2227 -0.1288
13935TIP3    H163296   5.255   5.540  12.544 -0.7191  0.4331 -1.4239
13935TIP3    H263297   5.276   5.406  12.612 -2.2491  1.2779  0.8321
13936TIP3   OH263298   6.745   2.697  16.226 -0.1863  0.6246  0.6104
13936TIP3    H163299   6.676   2.761  16.238  1.0068  2.1182 -0.1681
13936TIP3    H263300   6.781   2.684  16.314 -0.4389  1.0192  0.7733
13937TIP3   OH263301   6.265   2.039  12.923 -0.1016  0.0307  0.8603
13937TIP3    H163302   6.355   2.010  12.909  0.4643  2.0210  0.1091
13937TIP3    H263303   6.222   2.026  12.838 -0.1475  0.3457  0.8343
13938TIP3   OH263304   4.685   2.824   0.101 -0.5560 -0.3529 -0.6046
13938TIP3    H163305   4.706   2.796   0.012  1.5050 -0.2235 -0.2129
13938TIP3    H263306   4.738   2.903   0.115  0.3242 -1.2002  1.2067
13939TIP3   OH263307   1.624   4.511   0.491  0.5482  0.1608  0.0882
13939TIP3    H163308   1.594   4.582   0.548  0.1591 -0.7136  1.0076
13939TIP3    H263309   1.598   4.537   0.403 -1.0272  0.4139  0.6036
13940TIP3   OH263310   4.047   5.809   1.536  0.3867  0.4714 -0.2995
13940TIP3    H163311   4.038   5.749   1.463 -1.0556 -2.5472  2.1246
13940TIP3    H263312   4.138   5.801   1.563  0.8035  1.2550 -1.3928
13941TIP3   OH263313   4.435   6.211  15.822 -0.2705 -0.2728 -0.2721
13941TIP3    H163314   4.362   6.159  15.856 -0.6557  0.3154 -0.1759
13941TIP3    H263315   4.491   6.227  15.898 -1.1659  1.0985  0.1302
13942TIP3   OH263316   6.075   5.376  14.881  0.2648  0.5474  0.2750
13942TIP3    H163317   6.000   5.434  14.871  0.2232  0.7213  1.4433
13942TIP3    H263318   6.039   5.288  14.874  0.2057  0.6371 -0.7053
13943TIP3   OH263319   6.051   1.706  14.738 -0.3068  0.1431 -0.2338
13943TIP3    H163320   6.050   1.757  14.819 -1.4890  2.1285 -1.4131
13943TIP3    H263321   6.141   1.713  14.706 -0.4874  1.7295 -0.4672
13944TIP3   OH263322   2.950   6.501   4.071  0.1250 -0.6208 -0.0837
13944TIP3    H163323   2.973   6.499   3.978  0.8911  0.1866  0.0778
13944TIP3    H263324   3.016   6.446   4.113  0.3854 -0.1732  0.0996
13945TIP3   OH263325   3.749   5.824   0.725 -0.1223 -0.0278 -0.3738
13945TIP3    H163326   3.842   5.807   0.742 -0.8505 -2.4282  1.8953
13945TIP3    H263327   3.734   5.913   0.756  0.8925 -0.6133  1.9485
13946TIP3   OH263328   2.365   0.153   0.324 -0.3444  0.1732  0.7477
13946TIP3    H163329   2.454   0.119   0.325 -0.3887  0.0106 -0.1241
13946TIP3    H263330   2.371   0.238   0.281 -0.4043  0.7976  1.9465
13947TIP3   OH263331   4.515   1.980  15.520 -0.2464 -0.2838 -0.1743
13947TIP3    H163332   4.527   1.886  15.532 -0.5742 -0.5229 -1.5497
13947TIP3    H263333   4.423   1.990  15.495 -1.1254  0.7561  2.9426
13948TIP3   OH263334   0.837   4.512  11.239 -0.2225  0.3612 -0.7052
13948TIP3    H163335   0.805   4.585  11.292  1.1409 -0.5334  1.4704
13948TIP3    H263336   0.777   4.439  11.260  0.1988  0.0614 -0.5295
13949TIP3   OH263337   2.772   1.129   2.622 -0.2926 -0.3709  0.4107
13949TIP3    H163338   2.859   1.089   2.618 -0.4433 -0.5989 -1.2062
13949TIP3    H263339   2.729   1.086   2.696  0.9767 -0.2058  1.2713
13950TIP3   OH263340   5.585   3.510   1.319 -0.0109  0.2312 -0.1923
13950TIP3    H163341   5.671   3.550   1.334  0.4452 -0.1843 -1.5839
13950TIP3    H263342   5.564   3.530   1.228  0.4123 -2.9462 -1.1162
13951TIP3   OH263343   5.777   2.964  14.089 -0.1026 -0.2306 -0.0976
13951TIP3    H163344   5.844   2.898  14.070  1.0409  0.7257  0.4654
13951TIP3    H263345   5.694   2.923  14.063  0.7387 -1.2720 -1.2594
13952TIP3   OH263346   3.787   4.867  16.722 -0.3986 -0.2946 -0.6239
13952TIP3    H163347   3.741   4.840  16.802 -0.3232  0.8068 -0.1845
13952TIP3    H263348   3.833   4.789  16.693  0.0457 -0.5713  0.7452
13953TIP3   OH263349   2.106   1.365  11.559  0.2152  0.2214 -0.6319
13953TIP3    H163350   2.100   1.447  11.510  1.4864  0.9643  0.3915
13953TIP3    H263351   2.068   1.384  11.644  0.7423 -0.1668 -0.3001
13954TIP3   OH263352   0.384   0.478   2.040 -0.2211  0.2278  0.5131
13954TIP3    H163353   0.352   0.390   2.059 -0.2387  0.0052 -0.5043
13954TIP3    H263354   0.475   0.478   2.071 -0.8266  0.5342  2.4408
13955TIP3   OH263355   4.842   4.943   1.177 -0.6556 -0.0805 -0.0893
13955TIP3    H163356   4.823   4.863   1.128 -1.3680  0.0721 -0.0868
13955TIP3    H263357   4.894   4.997   1.117  0.3091 -0.7635  0.1097
13956TIP3   OH263358   3.093   4.396   3.026 -0.1430 -0.4664 -0.2040
13956TIP3    H163359   3.023   4.336   3.050 -2.4891  2.5652  1.3137
13956TIP3    H263360   3.125   4.430   3.109 -2.0933  3.5366 -0.8162
13957TIP3   OH263361   6.107   0.947   5.774 -0.0938 -0.2786 -0.6661
13957TIP3    H163362   6.200   0.963   5.792 -0.7061  3.0626  0.2782
13957TIP3    H263363   6.062   0.979   5.852 -2.0533 -3.4293 -0.3474
13958TIP3   OH263364   1.839   4.539  15.419  0.2390 -0.0473 -0.3540
13958TIP3    H163365   1.834   4.467  15.482  1.0861 -1.0344 -1.3742
13958TIP3    H263366   1.789   4.509  15.343  0.5288  0.4713 -0.7575
13959TIP3   OH263367   3.153   4.610   3.239 -0.3094  0.7244  0.9115
13959TIP3    H163368   3.235   4.647   3.206 -0.4088  0.0637 -0.1309
13959TIP3    H263369   3.085   4.665   3.199 -0.4997 -0.9877 -1.3614
13960TIP3   OH263370   0.923   3.827  16.799 -0.3981  0.1380  0.2816
13960TIP3    H163371   0.990   3.892  16.822 -0.5825  0.9725 -1.4231
13960TIP3    H263372   0.969   3.766  16.742 -0.0588 -1.6736  2.3457
13961TIP3   OH263373   2.309   2.969  11.920 -0.2876 -0.3790  0.4139
13961TIP3    H163374   2.287   3.046  11.867  1.9661  1.3271  1.7532
13961TIP3    H263375   2.284   2.993  12.009 -0.2090 -1.5151  0.7590
13962TIP3   OH263376   1.136   0.537   2.884  0.1437 -0.2330 -0.7931
13962TIP3    H163377   1.066   0.503   2.828 -1.1885  0.1176  0.5731
13962TIP3    H263378   1.149   0.626   2.853 -0.5724 -0.0439 -0.5789
13963TIP3   OH263379   0.836   4.873   4.762 -0.3977 -0.1338  0.3879
13963TIP3    H163380   0.783   4.910   4.833 -1.0956  0.7451 -0.5581
13963TIP3    H263381   0.828   4.778   4.773 -0.6209 -0.0139  1.3793
13964TIP3   OH263382   5.332   4.223   6.185 -0.4910  0.2584 -0.4092
13964TIP3    H163383   5.283   4.142   6.200  0.0292 -0.0711 -0.4538
13964TIP3    H263384   5.417   4.208   6.228  0.0765  0.2719 -1.4858
13965TIP3   OH263385   3.092   1.168  16.474 -0.4110 -0.2471  0.2447
13965TIP3    H163386   3.004   1.138  16.449 -0.5753 -0.0784  0.6147
13965TIP3    H263387   3.151   1.099  16.443 -0.6659 -0.3189 -0.0869
13966TIP3   OH263388   2.320   4.125   1.764  0.0872  0.8362  0.2876
13966TIP3    H163389   2.265   4.047   1.756  1.8967 -0.6647  1.5564
13966TIP3    H263390   2.392   4.110   1.703  1.5846  0.3985  2.0442
13967TIP3   OH263391   3.351   6.126  15.776 -0.2041  0.1802 -0.4553
13967TIP3    H163392   3.367   6.220  15.764  1.4727 -0.0899 -0.5300
13967TIP3    H263393   3.328   6.094  15.689  0.2567  0.3338 -0.6316
13968TIP3   OH263394   5.271   1.644   0.474  0.5090 -0.0835 -0.1475
13968TIP3    H163395   5.319   1.702   0.533  0.8021 -0.2245 -0.2469
13968TIP3    H263396   5.338   1.587   0.437  0.2191 -0.5227 -0.0065
13969TIP3   OH263397   0.292   4.001  13.460  0.0395 -0.1729 -0.4163
13969TIP3    H163398   0.277   4.032  13.549 -0.3858  1.6643 -1.0765
13969TIP3    H263399   0.206   3.974  13.429 -0.2352  1.2371 -0.9622
13970TIP3   OH263400   3.630   5.734  11.411  0.2987  0.6992 -0.4746
13970TIP3    H163401   3.582   5.673  11.467  0.7732 -0.5657 -1.4219
13970TIP3    H263402   3.590   5.725  11.325  0.8843  1.1612 -0.8004
13971TIP3   OH263403   5.708   2.109   3.310 -0.1795 -0.2263  0.2590
13971TIP3    H163404   5.678   2.038   3.367 -0.2137 -1.4033 -1.1730
13971TIP3    H263405   5.800   2.089   3.293  0.0090  0.4839  0.4318
13972TIP3   OH263406   3.596   0.736   1.245 -0.0348 -0.1634  0.0856
13972TIP3    H163407   3.597   0.724   1.340 -1.4106 -0.7460  0.0536
13972TIP3    H263408   3.660   0.673   1.212 -0.3148 -0.7061  0.5629
13973TIP3   OH263409   4.683   4.665   5.936 -0.1948 -0.1772  0.2716
13973TIP3    H163410   4.646   4.642   5.850 -1.4558  0.2399  0.6830
13973TIP3    H263411   4.612   4.648   5.998  0.6478 -0.3071  1.2263
13974TIP3   OH263412   6.214   1.706  12.640 -0.2160 -0.1119 -0.0601
13974TIP3    H163413   6.137   1.724  12.585 -0.9342  0.6979  1.1631
13974TIP3    H263414   6.203   1.614  12.667 -0.3473 -0.2304 -0.5056
13975TIP3   OH263415   3.231   2.829  15.488  0.2905  0.1861  0.3930
13975TIP3    H163416   3.185   2.910  15.464  1.1422  0.1826 -1.4017
13975TIP3    H263417   3.170   2.759  15.465 -0.3037  0.2815  1.6111
13976TIP3   OH263418   0.696   0.058  14.462 -0.0338 -0.1212 -0.0746
13976TIP3    H163419   0.723   0.097  14.379  0.7214 -0.1777  0.1369
13976TIP3    H263420   0.625  -0.002  14.438 -0.1326  0.2009 -0.6133
13977TIP3   OH263421   2.894   4.216  12.590  0.1878  0.3265 -0.0121
13977TIP3    H163422   2.982   4.208  12.553  0.1655  1.8553 -0.4542
13977TIP3    H263423   2.891   4.304  12.627 -2.1906  1.6557 -2.9659
13978TIP3   OH263424   5.387   4.099  11.645 -0.5537  0.3441  0.0399
13978TIP3    H163425   5.482   4.110  11.653 -0.5235  1.4093 -1.4701
13978TIP3    H263426   5.375   4.004  11.637  0.3435  0.1681  0.6331
13979TIP3   OH263427   6.552   6.620   6.363 -0.8466  0.0399  0.1154
13979TIP3    H163428   6.459   6.595   6.366 -0.3800 -1.8448 -0.0945
13979TIP3    H263429   6.587   6.572   6.288 -0.1041  2.3056 -1.0549
13980TIP3   OH263430   6.586   0.306  16.623 -0.1921 -0.2740  0.0730
13980TIP3    H163431   6.672   0.307  16.581 -0.2685  1.0958 -0.0951
13980TIP3    H263432   6.526   0.277  16.554 -0.1499  0.8392 -0.4587
13981TIP3   OH263433   2.606   2.451  16.229  0.5722  0.1359  0.2722
13981TIP3    H163434   2.561   2.412  16.153 -0.3049  1.9158 -0.1617
13981TIP3    H263435   2.654   2.378  16.267 -0.3299 -1.1903 -0.9996
13982TIP3   OH263436   6.660   0.695  15.985  0.0852  0.0388  0.0950
13982TIP3    H163437   6.643   0.674  15.893  0.8232  0.8536 -0.2451
13982TIP3    H263438   6.574   0.712  16.022 -0.3367 -1.4916 -0.1243
13983TIP3   OH263439   6.212   4.229  15.042 -0.3222 -0.6449  0.2221
13983TIP3    H163440   6.172   4.186  14.967 -0.3416 -0.5069  0.1539
13983TIP3    H263441   6.160   4.199  15.117 -0.1726 -0.9463  0.2074
13984TIP3   OH263442   1.715   6.333  15.755  0.4714 -0.4158 -0.0797
13984TIP3    H163443   1.648   6.357  15.692  0.3347 -2.2990 -0.7036
13984TIP3    H263444   1.686   6.373  15.837 -0.3081  0.5255 -0.7937
13985TIP3   OH263445   5.184   0.544   1.139  0.2363  0.3464 -0.1830
13985TIP3    H163446   5.157   0.622   1.092  0.2216 -0.9502 -2.4988
13985TIP3    H263447   5.160   0.471   1.081  2.5754 -1.2322  0.6740
13986TIP3   OH263448   5.918   4.544   4.544  0.6857 -0.0245 -0.2098
13986TIP3    H163449   5.830   4.575   4.524  0.4266  0.0918  1.0286
13986TIP3    H263450   5.952   4.511   4.461 -0.7901 -0.7251 -0.5590
13987TIP3   OH263451   0.715   5.946  15.266  0.6437  0.6429 -0.1411
13987TIP3    H163452   0.648   5.917  15.329  2.2364 -0.0670  1.3163
13987TIP3    H263453   0.700   5.892  15.189 -1.6063  1.7923 -0.5907
13988TIP3   OH263454   4.864   1.671   2.805 -0.1053 -0.0831  0.1913
13988TIP3    H163455   4.893   1.581   2.790  0.5290  0.3357 -1.3487
13988TIP3    H263456   4.904   1.696   2.887  1.0680 -0.6844 -0.1739
13989TIP3   OH263457   1.090   4.723  15.584  0.5154 -0.0385  0.1841
13989TIP3    H163458   1.150   4.656  15.617 -0.6644 -1.6845 -0.8812
13989TIP3    H263459   1.014   4.717  15.641  1.1933  1.8917  1.3899
13990TIP3   OH263460   0.136   4.648  13.152 -0.2623  0.6769  0.1194
13990TIP3    H163461   0.066   4.614  13.207  0.8814  0.2534  1.3687
13990TIP3    H263462   0.137   4.742  13.171 -0.6494  0.7293 -0.1050
13991TIP3   OH263463   5.414   5.340   6.420 -0.0272  0.4923  0.1139
13991TIP3    H163464   5.488   5.341   6.358 -1.2964  0.4126 -1.4804
13991TIP3    H263465   5.448   5.294   6.496  1.7650  1.0227 -0.3098
13992TIP3   OH263466   0.607   0.954   5.452 -0.6633 -0.0731 -0.1311
13992TIP3    H163467   0.645   0.921   5.371 -1.6273  0.5188 -0.8578
13992TIP3    H263468   0.525   0.996   5.424 -0.7385  0.6292  1.0766
13993TIP3   OH263469   2.772   2.895  14.786  0.5153 -0.3418  0.2616
13993TIP3    H163470   2.758   2.871  14.878 -0.7940 -1.8190 -0.2905
13993TIP3    H263471   2.846   2.840  14.759 -0.1866 -1.1767 -0.0108
13994TIP3   OH263472   2.459   6.790   1.402 -0.1917  0.1332  1.2235
13994TIP3    H163473   2.372   6.828   1.397  0.3984  1.3567 -2.1219
13994TIP3    H263474   2.518   6.865   1.412  0.7711  0.0163 -2.3557
13995TIP3   OH263475   5.461   6.672  16.060 -0.6287  0.5809 -0.0905
13995TIP3    H163476   5.477   6.705  16.148 -1.3098  0.2477  0.1638
13995TIP3    H263477   5.366   6.672  16.050 -0.5704  0.4064 -0.7425
13996TIP3   OH263478   3.728   5.082  15.865 -0.4188  0.5886  0.7036
13996TIP3    H163479   3.730   5.090  15.769 -5.3267 -0.1945  0.2389
13996TIP3    H263480   3.746   4.990  15.882  0.5200  0.7403  0.5394
13997TIP3   OH263481   0.708   6.011   4.559  0.4767 -1.1601  0.4267
13997TIP3    H163482   0.733   5.918   4.557  0.2813 -1.2036 -1.1630
13997TIP3    H263483   0.635   6.018   4.498  1.9217  0.4073 -1.2652
13998TIP3   OH263484   0.238   5.006   5.595 -0.0574 -0.5240  0.0660
13998TIP3    H163485   0.185   5.017   5.674  0.5296  0.5683  0.3255
13998TIP3    H263486   0.283   4.922   5.608 -0.1581 -0.4781  0.7691
13999TIP3   OH263487   3.917   6.599   2.635 -0.0411 -0.6840  0.0941
13999TIP3    H163488   3.938   6.540   2.707 -1.4794 -0.6344  0.5764
13999TIP3    H263489   3.886   6.542   2.564 -1.2226 -0.5582  0.4852
14000TIP3   OH263490   5.849   0.624  14.697  0.3069 -0.1038 -0.1528
14000TIP3    H163491   5.876   0.714  14.712  0.5123  0.1036 -1.6340
14000TIP3    H263492   5.754   0.630  14.684  0.6428  0.3378 -2.9655
14001TIP3   OH263493   1.269   1.923   1.870  0.7035 -0.1084  0.0977
14001TIP3    H163494   1.237   1.881   1.950  0.0325 -1.6861 -0.9506
14001TIP3    H263495   1.317   1.853   1.825  1.0725  0.7663 -0.8803
14002TIP3   OH263496   5.124   0.076   1.491 -0.4119  0.1326 -0.4506
14002TIP3    H163497   5.087   0.128   1.563 -0.7583 -0.5140 -0.1517
14002TIP3    H263498   5.080  -0.009   1.497  0.9933 -0.6254 -0.1792
14003TIP3   OH263499   3.529   5.840  14.485 -0.1152 -0.2334  0.5080
14003TIP3    H163500   3.488   5.911  14.533 -0.4634 -0.3085  0.3300
14003TIP3    H263501   3.588   5.799  14.547 -2.1015 -1.6728  1.5680
14004TIP3   OH263502   0.593   5.860  17.064 -0.3274 -0.3247 -0.4824
14004TIP3    H163503   0.504   5.883  17.090  0.3434  0.5060  1.2617
14004TIP3    H263504   0.626   5.938  17.018 -0.0747 -0.1205  0.0382
14005TIP3   OH263505   6.476   4.186   4.006 -0.0485  0.2266 -0.1365
14005TIP3    H163506   6.474   4.095   4.034 -0.3522  0.5525  0.9549
14005TIP3    H263507   6.441   4.235   4.080 -0.1190  1.2142 -0.7958
14006TIP3   OH263508   0.812   1.363   4.127 -1.1309  0.8180  0.6539
14006TIP3    H163509   0.810   1.443   4.179 -1.7975  1.4730 -0.3545
14006TIP3    H263510   0.744   1.374   4.061 -0.6928 -0.2280 -0.0199
14007TIP3   OH263511   2.784   4.501   4.155  0.3766  0.1179 -0.3089
14007TIP3    H163512   2.747   4.445   4.224  0.9617  0.4787  0.3139
14007TIP3    H263513   2.718   4.567   4.139  0.1849 -0.0418 -0.1812
14008TIP3   OH263514   2.752   1.936   1.914 -0.3439  0.4247 -0.4903
14008TIP3    H163515   2.763   1.847   1.948  0.8654  0.0251 -1.8434
14008TIP3    H263516   2.761   1.992   1.991  1.0851 -0.5061  0.0571
14009TIP3   OH263517   0.174   0.616   0.944  0.0028 -0.2770  0.3679
14009TIP3    H163518   0.223   0.574   1.013 -1.3605 -1.0225  0.9158
14009TIP3    H263519   0.102   0.556   0.925 -0.8318  0.8699 -0.2413
14010TIP3   OH263520   1.401   4.261  13.011  0.6855 -0.2794  0.2385
14010TIP3    H163521   1.340   4.189  13.027  0.6756 -0.1741  0.6622
14010TIP3    H263522   1.481   4.217  12.982  0.8079 -0.4824  0.8838
14011TIP3   OH263523   3.935   0.021  12.949 -0.1173  0.1317 -0.2750
14011TIP3    H163524   3.987   0.102  12.953 -0.4154  0.4588 -2.1671
14011TIP3    H263525   3.886   0.029  12.868 -0.6356 -1.6883 -0.1651
14012TIP3   OH263526   2.488   4.180  16.327  0.5103  0.0517  1.0019
14012TIP3    H163527   2.561   4.123  16.353  1.0731  1.2672  2.1584
14012TIP3    H263528   2.459   4.221  16.408 -0.4328  0.8022  0.3089
14013TIP3   OH263529   5.033   2.988   2.445  0.0753  0.0080  0.1619
14013TIP3    H163530   5.010   3.024   2.531  1.2411  0.9243  0.1155
14013TIP3    H263531   5.003   2.897   2.448 -1.0037  0.3769  1.0759
14014TIP3   OH263532   1.125   5.621  16.484  0.0180  0.4684  0.2476
14014TIP3    H163533   1.173   5.554  16.533 -0.9894 -0.1451  0.4185
14014TIP3    H263534   1.113   5.583  16.397  4.2356  2.6114 -1.5888
14015TIP3   OH263535   0.915   5.513  13.846  0.0361  0.5090  0.4477
14015TIP3    H163536   0.963   5.518  13.929  1.3758  1.5900 -0.3420
14015TIP3    H263537   0.974   5.554  13.782 -0.9139 -0.3990 -1.0619
14016TIP3   OH263538   2.180   4.217  12.441  0.6594  0.7563 -0.1958
14016TIP3    H163539   2.196   4.158  12.368 -1.0327 -1.5072  1.1151
14016TIP3    H263540   2.223   4.176  12.516  1.1921  2.2950  0.3875
14017TIP3   OH263541   1.161   0.018  14.545 -0.4259 -0.3079 -0.0008
14017TIP3    H163542   1.133   0.003  14.455  1.2531 -0.2211 -0.5776
14017TIP3    H263543   1.082   0.005  14.597 -1.8005  1.1868 -1.6077
14018TIP3   OH263544   1.009   5.283   3.834 -0.3724 -0.4697 -0.1072
14018TIP3    H163545   1.067   5.208   3.849  0.1247  0.0306  0.5452
14018TIP3    H263546   0.986   5.277   3.742 -0.1258 -1.2774 -0.1294
14019TIP3   OH263547   0.202   5.185  11.104  0.5883 -0.1908  0.2228
14019TIP3    H163548   0.130   5.191  11.167  0.5756  0.7246  0.1401
14019TIP3    H263549   0.187   5.102  11.058 -0.1873 -0.2037  0.4826
14020TIP3   OH263550   6.020   4.709   4.225 -0.2038  0.0554 -0.3389
14020TIP3    H163551   5.945   4.767   4.211 -0.6131 -0.4873 -0.4277
14020TIP3    H263552   5.982   4.628   4.260  0.3167 -0.3056 -0.5929
14021TIP3   OH263553   6.062   1.019  11.130 -0.4283  0.0390  0.0092
14021TIP3    H163554   6.141   0.972  11.103 -0.5666 -0.7536  0.9352
14021TIP3    H263555   5.992   0.955  11.120 -0.9702  0.7178 -0.7476
14022TIP3   OH263556   2.183   3.674   2.665  0.1501  0.4824  1.2430
14022TIP3    H163557   2.253   3.666   2.730  0.7893  0.9431  0.6150
14022TIP3    H263558   2.121   3.605   2.689  1.7002 -1.1684  0.7239
14023TIP3   OH263559   2.459   2.231   1.257  0.0864  0.1338  0.5226
14023TIP3    H163560   2.515   2.287   1.203 -0.9263  0.0055 -0.7155
14023TIP3    H263561   2.519   2.190   1.320  1.4462 -0.2191 -0.9317
14024TIP3   OH263562   4.468   5.161   3.232  0.0577  0.0185  0.3976
14024TIP3    H163563   4.507   5.193   3.151 -0.1552  0.7994  0.5886
14024TIP3    H263564   4.382   5.127   3.206 -0.1700  0.6193  0.3466
14025TIP3   OH263565   2.645   5.882   1.085 -0.6917  0.2242 -0.7813
14025TIP3    H163566   2.601   5.959   1.121  0.5658  0.5527  0.1092
14025TIP3    H263567   2.730   5.914   1.055  0.5385 -1.0501  1.0907
14026TIP3   OH263568   6.609   4.219  16.803  0.1611 -0.7051  0.6440
14026TIP3    H163569   6.620   4.231  16.898 -0.7499  0.0585  0.6761
14026TIP3    H263570   6.695   4.193  16.772  0.8199  0.3309  1.5002
14027TIP3   OH263571   1.348   5.722  12.015 -0.6273  0.5742 -0.2774
14027TIP3    H163572   1.391   5.793  12.062 -0.4083  0.4097 -0.2288
14027TIP3    H263573   1.254   5.741  12.023 -0.5465  1.8673 -1.8300
14028TIP3   OH263574   3.763   4.244   1.531 -0.3460 -0.6034  0.2167
14028TIP3    H163575   3.700   4.247   1.458 -0.1372 -0.8114  0.0256
14028TIP3    H263576   3.840   4.289   1.497  0.0354 -1.3836  0.0307
14029TIP3   OH263577   3.507   2.650  14.708 -0.4492 -0.1928 -0.0679
14029TIP3    H163578   3.596   2.662  14.742 -0.5892  1.3259 -0.1498
14029TIP3    H263579   3.460   2.605  14.779  0.4500 -1.3113 -0.1573
14030TIP3   OH263580   1.778   0.806   0.902 -0.3238  0.4115 -0.0209
14030TIP3    H163581   1.834   0.864   0.953 -0.1981  0.3023 -0.0349
14030TIP3    H263582   1.807   0.818   0.811 -0.3931  0.4343 -0.0398
14031TIP3   OH263583   3.112   2.986   1.252  0.1283 -0.2444 -0.1204
14031TIP3    H163584   3.153   2.973   1.337  0.0441  0.3434  0.0101
14031TIP3    H263585   3.020   3.006   1.272  0.5695  2.1311 -0.2168
14032TIP3   OH263586   4.526   4.851   4.714 -0.0977  0.0749 -0.8661
14032TIP3    H163587   4.559   4.853   4.804 -1.4127 -1.2430 -0.3149
14032TIP3    H263588   4.603   4.866   4.660  1.2697 -1.9275  0.3842
14033TIP3   OH263589   4.824   0.503  14.738 -0.3097 -0.3809  0.3395
14033TIP3    H163590   4.899   0.562  14.744 -1.4360  1.0291  1.0818
14033TIP3    H263591   4.802   0.502  14.645 -0.8779  1.1889  0.4277
14034TIP3   OH263592   2.094   4.311   3.055 -0.3245  0.0439 -0.1434
14034TIP3    H163593   2.013   4.362   3.048 -0.3819 -0.2461 -2.2352
14034TIP3    H263594   2.130   4.312   2.967  1.7953 -0.1471  0.6579
14035TIP3   OH263595   1.938   1.789   5.126  0.0249  0.2340  0.0556
14035TIP3    H163596   1.977   1.703   5.116 -0.5661 -0.0338 -0.0052
14035TIP3    H263597   1.993   1.848   5.075 -0.6728 -0.4307 -1.5088
14036TIP3   OH263598   6.379   6.247   3.264  0.6379  0.1907 -0.6519
14036TIP3    H163599   6.457   6.210   3.222  2.0146 -2.9265  3.8879
14036TIP3    H263600   6.327   6.171   3.290 -1.5268  1.9954  0.6630
14037TIP3   OH263601   1.295   3.391   0.714 -0.3873  0.1495 -0.0206
14037TIP3    H163602   1.368   3.451   0.703 -1.1149  1.2595  0.9881
14037TIP3    H263603   1.233   3.416   0.646 -1.0685  1.1685  0.9346
14038TIP3   OH263604   2.656   4.787  10.624 -0.2019  0.0085 -0.1281
14038TIP3    H163605   2.585   4.768  10.562  0.1579  0.5197 -0.7061
14038TIP3    H263606   2.653   4.882  10.636  1.3551  0.2625 -1.3830
14039TIP3   OH263607   4.792   4.151   0.808 -0.3903 -0.0902  0.0356
14039TIP3    H163608   4.758   4.141   0.720 -1.4232  1.3892  0.2354
14039TIP3    H263609   4.724   4.114   0.865 -1.3149  2.0231  0.3788
14040TIP3   OH263610   6.434   3.402   2.092 -0.0482  0.7446  0.9619
14040TIP3    H163611   6.432   3.486   2.047  1.4762  0.6239  0.6316
14040TIP3    H263612   6.514   3.405   2.145  0.2195 -0.6401  0.6555
14041TIP3   OH263613   3.546   0.241   3.100  0.3541  0.5156 -0.4581
14041TIP3    H163614   3.491   0.205   3.031  0.4610 -0.2338 -0.1683
14041TIP3    H263615   3.618   0.284   3.054  0.0426  0.6449 -0.8211
14042TIP3   OH263616   5.735   2.168   4.131 -0.1944  0.2864  0.8137
14042TIP3    H163617   5.711   2.170   4.224 -2.2884  1.9924  0.3359
14042TIP3    H263618   5.687   2.092   4.096  0.2053 -0.0675  1.0261
14043TIP3   OH263619   3.665   1.117   3.398  0.0084  0.5044  0.2488
14043TIP3    H163620   3.571   1.100   3.397 -0.5477  3.0910  0.4910
14043TIP3    H263621   3.693   1.096   3.487 -0.0563 -1.3977 -0.1480
14044TIP3   OH263622   3.006   6.581   4.469 -0.9119 -0.0352  0.3414
14044TIP3    H163623   3.055   6.652   4.511  4.5423 -2.3968 -1.1524
14044TIP3    H263624   2.956   6.624   4.400  1.7823  2.4857 -0.2128
14045TIP3   OH263625   1.526   4.615  16.277  0.4835 -0.3877 -0.3234
14045TIP3    H163626   1.539   4.616  16.372  0.4137 -0.5997 -0.3122
14045TIP3    H263627   1.432   4.628  16.266  0.6458  0.8881 -0.3992
14046TIP3   OH263628   5.231   5.902  10.252 -0.0599  0.3519 -0.0667
14046TIP3    H163629   5.300   5.841  10.225  0.3561  1.2743 -1.1956
14046TIP3    H263630   5.167   5.848  10.298  0.4357 -0.8848 -0.7895
14047TIP3   OH263631   4.360   2.153   6.042 -0.5423  0.0667 -0.8007
14047TIP3    H163632   4.415   2.157   6.120 -0.5067 -1.7143 -0.6916
14047TIP3    H263633   4.315   2.238   6.040  0.0059  0.4342  0.7246
14048TIP3   OH263634   1.506   5.976  14.986 -0.1684  0.0115  0.0088
14048TIP3    H163635   1.572   6.045  14.987  1.0619 -1.1034 -0.3938
14048TIP3    H263636   1.544   5.905  15.038 -1.3635 -0.4042  0.3535
14049TIP3   OH263637   4.799   5.508   2.998 -0.1092 -0.1379 -0.2537
14049TIP3    H163638   4.879   5.506   2.945 -0.2057 -0.4086 -0.3919
14049TIP3    H263639   4.794   5.598   3.030 -0.8996  0.5008 -2.0208
14050TIP3   OH263640   6.784   2.746   5.988  0.1860 -0.7200 -0.3674
14050TIP3    H163641   6.864   2.773   6.034 -0.9704 -1.0533  2.0099
14050TIP3    H263642   6.795   2.780   5.899  2.3285  0.4937  0.2793
14051TIP3   OH263643   4.581   1.324  15.697 -0.2800 -0.0976 -0.3796
14051TIP3    H163644   4.555   1.307  15.606  0.0980  1.3984 -0.7979
14051TIP3    H263645   4.499   1.333  15.745 -0.4833 -1.4966 -0.4365
14052TIP3   OH263646   0.795   3.573  13.829 -0.1499 -0.6339  0.0024
14052TIP3    H163647   0.807   3.508  13.760 -0.5120 -1.9623  1.1378
14052TIP3    H263648   0.831   3.532  13.908  0.9441  1.1415  0.4923
14053TIP3   OH263649   0.029   1.697  16.830 -0.1049  0.6742 -0.2260
14053TIP3    H163650   0.071   1.611  16.839 -0.0268  0.8488  1.5262
14053TIP3    H263651  -0.061   1.678  16.806 -0.1740  0.0671  0.4707
14054TIP3   OH263652   3.134   5.024   0.068  0.0728  0.2584  0.0672
14054TIP3    H163653   3.105   4.933   0.079 -0.8901  0.5483  0.0354
14054TIP3    H263654   3.150   5.054   0.158  3.8203 -0.9583 -0.0286
14055TIP3   OH263655   3.715   4.680   0.728 -0.6140  0.0289 -0.2141
14055TIP3    H163656   3.665   4.610   0.771 -3.0100  1.2944 -0.7456
14055TIP3    H263657   3.748   4.734   0.801 -0.7818 -0.3486  0.1430
14056TIP3   OH263658   1.995   4.316  14.617 -0.0622 -0.2763  0.3054
14056TIP3    H163659   2.019   4.224  14.623 -1.4765 -0.6255  0.7932
14056TIP3    H263660   1.982   4.332  14.523  1.1409 -0.2896  0.1130
14057TIP3   OH263661   4.872   5.417  15.824  0.5847 -0.2293 -0.3888
14057TIP3    H163662   4.956   5.388  15.788  0.3803 -0.4430 -0.7080
14057TIP3    H263663   4.838   5.478  15.759  0.8096  0.3995  0.0744
14058TIP3   OH263664   5.910   2.268   2.905  0.3733  0.5449  0.2232
14058TIP3    H163665   5.959   2.187   2.892  0.9786  1.0674 -0.8749
14058TIP3    H263666   5.843   2.266   2.836 -1.4880 -0.3501  1.9331
14059TIP3   OH263667   3.983   1.607   0.940 -0.0745 -0.0868 -0.5385
14059TIP3    H163668   3.944   1.625   0.854 -1.1957 -1.9738 -0.4955
14059TIP3    H263669   3.912   1.567   0.990  1.5730 -2.6332 -0.0631
14060TIP3   OH263670   0.580   0.646  12.346  0.3842  0.1369  0.0651
14060TIP3    H163671   0.645   0.584  12.314  1.8152  1.0453  1.0362
14060TIP3    H263672   0.547   0.690  12.268  2.7653  1.3531 -0.3420
14061TIP3   OH263673   3.344   1.179   5.918 -0.3881 -0.2757 -0.1055
14061TIP3    H163674   3.289   1.248   5.956 -0.2169 -0.4834  0.5211
14061TIP3    H263675   3.429   1.220   5.905  0.1571 -0.7732  1.6731
14062TIP3   OH263676   6.207   5.801   5.731 -0.1047  0.5498 -0.7200
14062TIP3    H163677   6.196   5.890   5.763  0.5741  0.8338 -1.2497
14062TIP3    H263678   6.294   5.800   5.692  0.2736 -0.5965  0.0971
14063TIP3   OH263679   0.450   1.736  14.530  0.3053 -0.0342  0.1741
14063TIP3    H163680   0.527   1.687  14.560  0.3520 -0.4178 -0.5341
14063TIP3    H263681   0.407   1.676  14.468  0.1239  0.6608 -0.3820
14064TIP3   OH263682   5.648   6.402   3.658 -0.0911  0.9969 -0.3908
14064TIP3    H163683   5.576   6.408   3.720 -0.2010 -0.1990 -0.3795
14064TIP3    H263684   5.722   6.442   3.703 -0.2562  0.4372  0.3935
14065TIP3   OH263685   6.686   1.236  12.170 -0.2506 -0.4649  0.5347
14065TIP3    H163686   6.614   1.177  12.150 -0.1008  0.0251 -1.7367
14065TIP3    H263687   6.707   1.278  12.086  0.9979  1.2829  1.6412
14066TIP3   OH263688   4.426   3.137  12.035 -0.4259  0.1787  0.4592
14066TIP3    H163689   4.400   3.229  12.045 -0.6406  0.5515 -2.7198
14066TIP3    H263690   4.346   3.091  12.010 -0.3957 -1.0327  2.3207
14067TIP3   OH263691   2.044   6.155  16.690 -0.4005 -0.3299  0.1706
14067TIP3    H163692   2.033   6.233  16.745  1.1587 -0.7555  1.1488
14067TIP3    H263693   1.980   6.092  16.723 -0.1993 -0.2037  0.8118
14068TIP3   OH263694   3.152   3.532   2.637 -0.1793  0.3987  0.5553
14068TIP3    H163695   3.138   3.620   2.673  0.3866  0.5259  0.4807
14068TIP3    H263696   3.086   3.477   2.680  0.4508  0.5546  1.7517
14069TIP3   OH263697   5.835   2.973  14.444  0.2005 -0.5305  0.3563
14069TIP3    H163698   5.838   3.058  14.487 -0.7498  0.5344 -1.5881
14069TIP3    H263699   5.842   2.910  14.516  1.9219  1.1445  1.7691
14070TIP3   OH263700   5.076   2.447  17.056 -0.3516 -0.5130  0.1118
14070TIP3    H163701   5.086   2.453  17.151  2.1490 -3.1730  0.1827
14070TIP3    H263702   5.147   2.501  17.022 -0.8740 -0.0376 -0.2218
14071TIP3   OH263703   3.040   4.532  16.392 -0.3380 -0.1174 -0.2056
14071TIP3    H163704   3.046   4.608  16.334  2.1574  0.2362  0.3981
14071TIP3    H263705   3.099   4.553  16.464 -2.0445 -1.2963  1.6222
14072TIP3   OH263706   5.664   4.262   5.574  0.0721 -0.2101  0.1176
14072TIP3    H163707   5.605   4.337   5.570  0.3123 -0.0412 -0.2075
14072TIP3    H263708   5.749   4.299   5.598  0.6365 -0.1217 -1.8429
14073TIP3   OH263709   4.535   6.792   1.052  0.4260  0.1763 -0.0052
14073TIP3    H163710   4.551   6.887   1.059 -0.4621  0.3910 -0.6882
14073TIP3    H263711   4.617   6.757   1.018  1.3955  0.4291  1.9597
14074TIP3   OH263712   1.589   4.341  16.259  0.2690 -0.4130 -0.4171
14074TIP3    H163713   1.669   4.325  16.308  1.0302  1.9691 -0.7743
14074TIP3    H263714   1.568   4.433  16.275 -0.2385  0.0986 -3.3872
14075TIP3   OH263715   6.319   5.975  11.788  0.2340  0.0113  0.1386
14075TIP3    H163716   6.305   5.942  11.699 -0.0749 -0.8713  0.4964
14075TIP3    H263717   6.361   5.902  11.834  0.9160  0.6603  0.5755
14076TIP3   OH263718   3.706   1.282  14.578 -0.0717  0.1495 -0.3353
14076TIP3    H163719   3.726   1.367  14.539 -0.6821  0.1663 -0.6165
14076TIP3    H263720   3.701   1.222  14.503  0.8465 -0.2396 -0.1026
14077TIP3   OH263721   6.284   5.137  15.841  0.0797  0.2189  0.2544
14077TIP3    H163722   6.205   5.184  15.814  1.0285  1.4047 -0.5392
14077TIP3    H263723   6.339   5.136  15.764  0.0166 -2.5004  0.1332
14078TIP3   OH263724   5.435   3.398   5.360  0.7948  0.2850  0.4917
14078TIP3    H163725   5.526   3.389   5.388  0.0312 -2.4110  2.5357
14078TIP3    H263726   5.417   3.317   5.313 -0.9880 -0.0717  1.6960
14079TIP3   OH263727   2.279   2.458  13.719  0.4389 -0.7996 -0.1406
14079TIP3    H163728   2.293   2.420  13.632  1.8609 -2.1332  0.6236
14079TIP3    H263729   2.236   2.389  13.769  1.9674 -1.0205  0.9302
14080TIP3   OH263730   3.916   4.986   4.236  0.1025  0.4413  0.0862
14080TIP3    H163731   3.984   5.023   4.180 -1.3416  0.9699 -1.3974
14080TIP3    H263732   3.911   5.045   4.311  0.0643  1.4241 -0.6726
14081TIP3   OH263733   1.203   2.932   4.127  0.2163  0.4037 -0.1068
14081TIP3    H163734   1.235   2.844   4.149  1.2589  0.8251  0.1277
14081TIP3    H263735   1.123   2.917   4.077 -0.4513 -0.6431  1.2288
14082TIP3   OH263736   2.869   3.871   5.597 -0.1791 -0.3495 -0.1640
14082TIP3    H163737   2.797   3.932   5.581  0.7420  0.7981  0.0449
14082TIP3    H263738   2.828   3.799   5.646 -1.0343  0.6472  0.6197
14083TIP3   OH263739   6.113   3.622  11.580 -0.5660 -0.0846 -0.4638
14083TIP3    H163740   6.158   3.538  11.588 -0.1590 -0.0643 -2.1909
14083TIP3    H263741   6.164   3.671  11.515 -1.8292  0.7737 -0.8496
14084TIP3   OH263742   5.810   0.624  12.196 -0.2176  0.4545  0.0929
14084TIP3    H163743   5.776   0.645  12.109 -2.0023 -1.0515  0.3602
14084TIP3    H263744   5.884   0.683  12.208 -0.7587  1.6236 -1.8927
14085TIP3   OH263745   3.243   2.182   3.756 -0.3755  0.9586  0.1387
14085TIP3    H163746   3.310   2.119   3.782 -2.0337 -0.7380  0.5135
14085TIP3    H263747   3.270   2.212   3.669 -0.8224 -2.2972 -1.2646
14086TIP3   OH263748   0.284   5.067   3.461  0.4733 -0.0922 -0.2676
14086TIP3    H163749   0.269   4.998   3.525 -0.9999  0.3804 -0.0619
14086TIP3    H263750   0.318   5.140   3.513 -0.3238  0.1503 -0.0723
14087TIP3   OH263751   6.551   2.221   2.637 -0.2692  0.1666  0.8417
14087TIP3    H163752   6.492   2.284   2.678 -0.0067  0.6710  0.4560
14087TIP3    H263753   6.626   2.273   2.608  1.3627 -0.7386  3.1513
14088TIP3   OH263754   3.845   0.422   2.339  0.7421 -0.5152  0.3397
14088TIP3    H163755   3.773   0.387   2.287  0.9315 -0.6794  0.1838
14088TIP3    H263756   3.922   0.414   2.282  1.0271 -1.0684  0.7931
14089TIP3   OH263757   1.344   4.050   2.666  0.3413 -0.1542  0.0485
14089TIP3    H163758   1.432   4.073   2.692 -0.2586  1.9944  0.3379
14089TIP3    H263759   1.318   3.980   2.726  1.3235  0.1915  0.8854
14090TIP3   OH263760   4.335   4.564   0.853  0.4081  0.0953  0.4397
14090TIP3    H163761   4.345   4.482   0.805  0.3187 -0.1191  0.7835
14090TIP3    H263762   4.241   4.573   0.867  0.5042 -0.4190  1.5491
14091TIP3   OH263763   4.611   6.458  15.150  0.1593  0.3367  0.0936
14091TIP3    H163764   4.558   6.393  15.198  1.1931  0.1424  1.0053
14091TIP3    H263765   4.668   6.405  15.094 -0.5810  0.5475 -0.8863
14092TIP3   OH263766   5.860   1.169   1.904 -0.8074 -0.0904  0.2704
14092TIP3    H163767   5.858   1.107   1.831 -0.2188 -0.3692  0.4866
14092TIP3    H263768   5.951   1.171   1.932 -0.8460  0.7670  0.3705
14093TIP3   OH263769   1.179   4.318  13.393  0.5704  0.4961  1.0852
14093TIP3    H163770   1.111   4.352  13.452 -0.7294 -0.1379  0.0239
14093TIP3    H263771   1.231   4.395  13.370 -0.5991  1.2683  0.9169
14094TIP3   OH263772   0.378   0.528  15.245  0.2964  0.3265 -0.5724
14094TIP3    H163773   0.291   0.517  15.207  0.8134 -0.3399 -1.5823
14094TIP3    H263774   0.361   0.541  15.339 -1.0099  2.2840 -1.0191
14095TIP3   OH263775   5.027   1.599  12.262 -0.0702  0.2860 -0.1827
14095TIP3    H163776   5.109   1.556  12.288  1.6262  3.2631 -0.0461
14095TIP3    H263777   4.990   1.631  12.344 -0.7515 -0.0408 -0.3613
14096TIP3   OH263778   0.634   6.260  12.419 -0.0388  0.6889 -0.0227
14096TIP3    H163779   0.636   6.269  12.324 -0.9144 -1.6617 -0.3294
14096TIP3    H263780   0.553   6.304  12.446  0.6084  2.0697 -0.2113
14097TIP3   OH263781   5.047   1.764  15.294  0.2007 -0.4300  0.5316
14097TIP3    H163782   5.095   1.846  15.298  1.6391 -1.0065 -2.1715
14097TIP3    H263783   4.962   1.783  15.332  1.4248  1.5071  2.5324
14098TIP3   OH263784   0.163   6.590   2.725 -0.8344 -0.1929  0.1081
14098TIP3    H163785   0.151   6.657   2.659  0.7696 -0.8864 -0.9510
14098TIP3    H263786   0.197   6.637   2.802 -2.1738  0.5323  0.2872
14099TIP3   OH263787   0.966   2.110  14.365 -0.0882 -0.0678  0.4326
14099TIP3    H163788   0.926   2.193  14.392 -1.5153 -0.6184  0.1258
14099TIP3    H263789   0.953   2.107  14.270 -0.5072 -0.8605  0.5073
14100TIP3   OH263790   6.114   4.290  15.494 -0.3621 -0.0294  0.2063
14100TIP3    H163791   6.065   4.286  15.576 -1.8890  0.0771 -0.6651
14100TIP3    H263792   6.066   4.354  15.441 -0.8381 -1.8471 -1.6720
14101TIP3   OH263793   2.008   6.378  15.006  0.2004 -0.0635 -0.0469
14101TIP3    H163794   1.953   6.330  14.943  1.1849 -0.8488 -0.3390
14101TIP3    H263795   2.096   6.375  14.967  1.0144 -1.3368  1.7824
14102TIP3   OH263796   3.167   5.558  13.302 -0.2036 -0.0707 -0.4742
14102TIP3    H163797   3.213   5.634  13.267 -0.2790  0.5926  0.8220
14102TIP3    H263798   3.218   5.531  13.378 -1.7548  0.5342  0.8626
14103TIP3   OH263799   0.883   0.444  16.250 -0.2998  0.9578  0.1947
14103TIP3    H163800   0.914   0.506  16.315 -1.0530 -1.8381  3.5488
14103TIP3    H263801   0.792   0.468  16.235 -0.8898  0.2638  2.2318
14104TIP3   OH263802   6.822   6.274   2.972 -0.5413  0.3254 -0.5526
14104TIP3    H163803   6.779   6.348   2.929 -3.0420 -0.0508  1.0701
14104TIP3    H263804   6.874   6.314   3.042 -0.6780  0.6344 -0.6240
14105TIP3   OH263805   5.443   2.097  14.478  0.8330 -0.1273 -0.4900
14105TIP3    H163806   5.403   2.066  14.559 -1.2431  0.7257 -1.1151
14105TIP3    H263807   5.495   2.173  14.505 -1.8727  1.7543 -0.1986
14106TIP3   OH263808   0.846   3.993  12.926  0.6702 -0.3996 -0.5627
14106TIP3    H163809   0.876   3.910  12.891  0.5424 -0.4295 -0.6025
14106TIP3    H263810   0.924   4.048  12.931  0.8711 -0.7313  0.0538
14107TIP3   OH263811   6.025   5.527  17.110  0.2877  0.5193  0.1436
14107TIP3    H163812   6.047   5.586  17.182 -0.1553  0.0712  0.6536
14107TIP3    H263813   5.966   5.578  17.054 -1.6217 -0.0293  1.5672
14108TIP3   OH263814   1.713   5.638   2.444 -0.2021  0.2177 -0.2858
14108TIP3    H163815   1.705   5.546   2.419  0.1099  0.7394 -2.4658
14108TIP3    H263816   1.629   5.677   2.422  0.0194  0.6766 -0.3325
14109TIP3   OH263817   1.150   2.405  15.973  0.2544 -0.1629 -0.7922
14109TIP3    H163818   1.064   2.447  15.982  0.0079 -1.0177  2.0945
14109TIP3    H263819   1.179   2.391  16.063  4.4337  1.9340 -1.5821
14110TIP3   OH263820   6.628   5.459  14.852 -0.6119  0.2570 -0.9524
14110TIP3    H163821   6.606   5.540  14.899  0.7346 -0.9251  1.9718
14110TIP3    H263822   6.559   5.397  14.877  0.1597 -0.4152 -0.4373
14111TIP3   OH263823   4.767   3.665   5.168 -0.1916 -0.7241  0.0925
14111TIP3    H163824   4.856   3.643   5.139  0.1712  1.7895 -0.9812
14111TIP3    H263825   4.779   3.695   5.259  0.1483  0.0012 -0.1842
14112TIP3   OH263826   4.386   1.359   6.231 -0.2251 -0.2217  0.8439
14112TIP3    H163827   4.297   1.375   6.264 -0.6456 -1.8340  0.5484
14112TIP3    H263828   4.400   1.266   6.244  0.0825 -0.6989 -2.2821
14113TIP3   OH263829   6.504   1.403  15.551  0.1479  0.5621  0.7621
14113TIP3    H163830   6.585   1.359  15.577  0.6827 -0.3417 -2.1012
14113TIP3    H263831   6.439   1.371  15.614  1.3917 -1.1261  1.2749
14114TIP3   OH263832   1.710   2.010  12.531  0.5726 -0.7491 -0.3877
14114TIP3    H163833   1.628   2.033  12.573  1.3097 -0.3956  0.8950
14114TIP3    H263834   1.734   2.087  12.479  0.8384 -0.2780  0.4262
14115TIP3   OH263835   0.315   2.014  14.160  0.6403 -0.3351  0.4334
14115TIP3    H163836   0.408   1.996  14.176  0.5936  0.2646  1.4749
14115TIP3    H263837   0.282   2.047  14.244 -0.4013 -0.0748 -0.0581
14116TIP3   OH263838   5.172   0.779  13.573  0.2420  0.3736  0.1135
14116TIP3    H163839   5.089   0.736  13.552  1.4439 -2.0980  0.0276
14116TIP3    H263840   5.194   0.829  13.495 -0.2371 -0.5335 -0.6239
14117TIP3   OH263841   5.958   4.617  12.499  0.8566 -0.8260 -0.3900
14117TIP3    H163842   6.011   4.690  12.469  0.2343 -0.0301  0.3942
14117TIP3    H263843   5.987   4.543  12.447  3.2386 -0.5956  0.5155
14118TIP3   OH263844   6.363   1.053  11.172 -0.5160  0.1049 -0.0280
14118TIP3    H163845   6.407   0.982  11.126 -2.5080  0.1859 -2.2368
14118TIP3    H263846   6.318   1.011  11.245  1.2827 -0.2913  0.9016
14119TIP3   OH263847   5.215   6.524  13.928  0.1412  0.3301  0.2245
14119TIP3    H163848   5.145   6.547  13.989 -0.2794 -0.5071  0.0616
14119TIP3    H263849   5.291   6.575  13.959 -0.2890  0.5488  0.9446
14120TIP3   OH263850   2.350   3.311   1.700 -0.0257 -0.6633 -0.4847
14120TIP3    H163851   2.311   3.395   1.721  0.6944 -0.5539  0.4733
14120TIP3    H263852   2.301   3.248   1.754  0.9123 -0.5559  0.5300
14121TIP3   OH263853   0.350   1.701  16.156  0.1849  0.5820 -0.2228
14121TIP3    H163854   0.423   1.744  16.200 -0.9296  2.5369 -0.1668
14121TIP3    H263855   0.349   1.740  16.069 -0.7625  0.5825 -0.2203
14122TIP3   OH263856   3.104   2.629  16.274 -0.0433 -0.0828 -0.2788
14122TIP3    H163857   3.061   2.619  16.189 -0.1329  0.2858 -0.2801
14122TIP3    H263858   3.060   2.565  16.330  0.2222 -0.5426 -0.5822
14123TIP3   OH263859   3.636   4.154   4.029 -0.0423 -0.2821  0.3957
14123TIP3    H163860   3.627   4.104   4.109 -0.7100 -0.7139  0.0538
14123TIP3    H263861   3.730   4.173   4.024  0.1167 -0.8964  0.8883
14124TIP3   OH263862   5.451   4.444  11.893 -0.2047 -0.2584  0.1714
14124TIP3    H163863   5.423   4.367  11.944 -0.3952  0.1357  0.6714
14124TIP3    H263864   5.384   4.510  11.911 -0.9209 -0.4825 -1.5410
14125TIP3   OH263865   1.090   5.725  13.977 -0.2293  0.1753  0.4207
14125TIP3    H163866   1.174   5.771  13.975 -0.0540 -0.0108  2.0930
14125TIP3    H263867   1.104   5.650  14.034 -1.6747  0.4482  1.1950
14126TIP3   OH263868   2.066   3.173  12.580  0.4612  0.0260 -0.0106
14126TIP3    H163869   2.084   3.231  12.506  0.4293  1.8005  1.3075
14126TIP3    H263870   1.972   3.183  12.596  0.7678  0.9625  1.2930
14127TIP3   OH263871   2.794   5.735  14.969 -0.3844  0.2064  0.3634
14127TIP3    H163872   2.724   5.687  15.013 -0.9301  0.1497 -0.5325
14127TIP3    H263873   2.843   5.776  15.040 -2.1786  1.4381  0.9740
14128TIP3   OH263874   4.992   3.547   5.426 -0.3271 -0.1479  0.4313
14128TIP3    H163875   4.986   3.639   5.400  0.3983  0.2496  1.5678
14128TIP3    H263876   5.010   3.551   5.520  0.3803 -1.4458  0.3677
14129TIP3   OH263877   0.147   2.161   3.096  0.1400  0.0037  0.1972
14129TIP3    H163878   0.241   2.151   3.083  0.0858 -0.7619  0.3527
14129TIP3    H263879   0.138   2.210   3.178  0.4003  0.2934  0.0542
14130TIP3   OH263880   5.393   1.339  13.939 -0.1497  0.4610  0.0545
14130TIP3    H163881   5.410   1.346  13.845  2.1024 -0.3480  0.3267
14130TIP3    H263882   5.416   1.248  13.960 -0.2980  0.7347  1.4442
14131TIP3   OH263883   1.682   2.045  13.046 -0.4314 -0.2838  0.3957
14131TIP3    H163884   1.596   2.050  13.005  0.1346 -0.2715 -0.8395
14131TIP3    H263885   1.738   2.007  12.978  0.7498  0.6797  0.8070
14132TIP3   OH263886   6.775   1.640  10.604  0.7271  0.2304  0.2172
14132TIP3    H163887   6.785   1.627  10.509  0.1033 -0.9835  0.2993
14132TIP3    H263888   6.861   1.619  10.640  1.0271  0.8992 -0.0880
14133TIP3   OH263889   0.051   3.178  12.783 -0.3573 -0.0104  0.6304
14133TIP3    H163890   0.079   3.100  12.735 -0.0083  0.3173  0.3038
14133TIP3    H263891   0.129   3.207  12.830 -0.3574  0.4246  0.3663
14134TIP3   OH263892   6.466   5.179  16.324 -0.1563  0.1711 -0.0948
14134TIP3    H163893   6.496   5.090  16.346 -0.5738  0.2788  0.9631
14134TIP3    H263894   6.395   5.165  16.261  0.1153 -0.2132 -0.3247
14135TIP3   OH263895   2.794   0.188  11.786  0.5980 -0.0536  0.3009
14135TIP3    H163896   2.864   0.169  11.724  0.6815 -1.0414  0.6924
14135TIP3    H263897   2.833   0.172  11.872  0.3969  1.0326  0.6131
14136TIP3   OH263898   3.488   4.994  10.983 -0.0899 -0.2372  0.1032
14136TIP3    H163899   3.398   4.962  10.975 -0.6763  1.6496 -1.5404
14136TIP3    H263900   3.479   5.080  11.025  0.6691  0.8837 -1.8842
14137TIP3   OH263901   3.616   1.738   5.494  0.0093  0.1612  0.1284
14137TIP3    H163902   3.649   1.648   5.495 -0.1915  0.0504  2.4137
14137TIP3    H263903   3.648   1.775   5.412  2.0046 -1.2928  0.1867
14138TIP3   OH263904   3.845   2.120   0.121 -0.2679 -0.3305  0.3674
14138TIP3    H163905   3.798   2.101   0.202  0.4777  0.8531  1.0959
14138TIP3    H263906   3.938   2.117   0.145 -0.0555  2.4484  0.1800
14139TIP3   OH263907   4.103   5.119  16.578  0.1155  0.5079 -0.0327
14139TIP3    H163908   4.130   5.040  16.625  1.4901  1.5978  1.1120
14139TIP3    H263909   4.012   5.103  16.555  0.1941 -1.1800  0.6601
14140TIP3   OH263910   4.151   3.398  15.324 -0.7484 -0.2308  0.2209
14140TIP3    H163911   4.163   3.373  15.416  1.8569 -0.2307 -0.0476
14140TIP3    H263912   4.223   3.459  15.306 -1.6132  0.3126 -1.6599
14141TIP3   OH263913   6.549   4.480  11.365  0.4227  0.4914  0.4766
14141TIP3    H163914   6.534   4.437  11.449 -0.7219 -0.0588  0.0184
14141TIP3    H263915   6.566   4.572  11.388 -1.1592  0.6296  1.2733
14142TIP3   OH263916   3.227   0.445  14.430  0.5118 -0.5766 -0.3011
14142TIP3    H163917   3.223   0.391  14.510  0.1490  0.1540  0.1887
14142TIP3    H263918   3.320   0.450  14.409  0.6593 -0.3807  0.3591
14143TIP3   OH263919   6.304   1.351  14.190  0.0744 -0.3784 -0.2226
14143TIP3    H163920   6.330   1.278  14.246 -1.3956  0.2810  1.4186
14143TIP3    H263921   6.208   1.347  14.190  0.0180  0.0123 -2.2469
14144TIP3   OH263922   5.629   1.948  13.086 -0.1061 -0.5511  0.4340
14144TIP3    H163923   5.608   2.036  13.056  0.7313 -0.7784 -0.9348
14144TIP3    H263924   5.710   1.957  13.135  1.2709 -0.8089 -1.6543
14145TIP3   OH263925   4.257   3.407  11.382 -0.6777 -0.7097  0.6128
14145TIP3    H163926   4.165   3.395  11.405 -0.8720 -2.2825 -0.7387
14145TIP3    H263927   4.257   3.473  11.312 -1.0195 -1.9099 -0.5754
14146TIP3   OH263928   0.486   0.242   1.805  0.8908 -0.2109 -0.7647
14146TIP3    H163929   0.508   0.151   1.783  1.4463 -0.3185  0.1405
14146TIP3    H263930   0.558   0.270   1.862 -0.5781 -0.0796  1.1219
14147TIP3   OH263931   1.853   0.099  12.911 -0.2129 -0.0427 -0.2710
14147TIP3    H163932   1.907   0.090  12.833 -2.0222 -1.3032 -1.4430
14147TIP3    H263933   1.816   0.012  12.925  0.9649 -0.1919  2.7474
14148TIP3   OH263934   6.123   4.657   3.681  0.0251 -0.0815 -0.5990
14148TIP3    H163935   6.190   4.647   3.748  1.0632 -0.5307 -1.6580
14148TIP3    H263936   6.078   4.572   3.679  1.4864 -0.8869 -1.9636
14149TIP3   OH263937   3.460   0.724   3.856 -0.2017  0.6073 -0.1653
14149TIP3    H163938   3.398   0.719   3.783 -1.6114  0.3863  0.9879
14149TIP3    H263939   3.530   0.664   3.833 -0.6214  0.5378 -1.3294
14150TIP3   OH263940   5.657   4.819   1.133  0.0945 -0.8444  0.2106
14150TIP3    H163941   5.645   4.841   1.226  0.5939  0.1406  0.0604
14150TIP3    H263942   5.692   4.730   1.134  0.6109 -0.6463  0.9972
14151TIP3   OH263943   4.245   4.001   4.471  1.1250 -0.2157  0.0448
14151TIP3    H163944   4.322   3.992   4.414  1.4579  0.5331  0.3607
14151TIP3    H263945   4.227   3.912   4.502  1.6682 -0.4466 -0.2868
14152TIP3   OH263946   3.770   0.415  14.235  0.0891  0.0156 -0.1067
14152TIP3    H163947   3.746   0.430  14.143  1.6406  0.8018 -0.4093
14152TIP3    H263948   3.865   0.412  14.235  0.1889  1.4205  1.6656
14153TIP3   OH263949   5.507   1.627   3.553  0.6304  0.0231  0.4073
14153TIP3    H163950   5.440   1.695   3.538  0.3552 -0.3729 -0.1990
14153TIP3    H263951   5.459   1.545   3.548  1.1661 -0.2653 -0.0301
14154TIP3   OH263952   0.781   1.069  16.687 -0.2702  0.3465  0.4835
14154TIP3    H163953   0.828   0.990  16.715 -0.9541 -0.2490 -0.0037
14154TIP3    H263954   0.707   1.075  16.747 -0.3968  0.4285  0.3204
14155TIP3   OH263955   3.963   3.412  14.005 -0.3643  0.1775 -0.1209
14155TIP3    H163956   3.868   3.406  14.020 -0.3080  0.4971  0.3998
14155TIP3    H263957   3.972   3.467  13.928 -0.6209 -0.3541 -0.5411
14156TIP3   OH263958   2.856   1.288   4.220 -0.1371  0.7587 -0.4534
14156TIP3    H163959   2.875   1.302   4.313 -2.0354  0.3248  0.0457
14156TIP3    H263960   2.904   1.209   4.197  0.3133  0.8483  0.1705
14157TIP3   OH263961   3.329   0.249  13.029 -0.7587 -0.6944  0.2594
14157TIP3    H163962   3.389   0.323  13.037 -1.1213 -0.3578 -0.0635
14157TIP3    H263963   3.250   0.277  13.077 -0.4003 -1.4217  1.3001
14158TIP3   OH263964   4.795   4.261  16.060 -0.3418 -0.0889 -0.3454
14158TIP3    H163965   4.792   4.172  16.096  0.2808  0.3892  0.9457
14158TIP3    H263966   4.732   4.259  15.988 -2.5263 -0.8050  1.4685
14159TIP3   OH263967   0.938   5.956  11.308 -0.2361  0.3974 -0.2519
14159TIP3    H163968   1.000   6.017  11.269  0.2800  0.0892  0.0688
14159TIP3    H263969   0.873   6.011  11.352 -0.0294  0.7172 -0.3450
14160TIP3   OH263970   0.743   1.104   6.471  0.3808 -0.1059  0.2554
14160TIP3    H163971   0.758   1.178   6.411 -1.4306  0.6813  0.7270
14160TIP3    H263972   0.814   1.111   6.535  1.1221  0.2889 -0.5794
14161TIP3   OH263973   6.807   5.391   5.356  0.1390  0.2075  0.0688
14161TIP3    H163974   6.804   5.421   5.265  2.1269  1.6505  0.4198
14161TIP3    H263975   6.822   5.470   5.407 -0.4661 -0.6492  1.6455
14162TIP3   OH263976   5.741   6.206  13.721  0.2310  0.2161  0.3570
14162TIP3    H163977   5.678   6.148  13.679  0.3736 -0.5016  1.1109
14162TIP3    H263978   5.695   6.243  13.796 -0.2861  2.1172 -0.8158
14163TIP3   OH263979   0.398   1.215  14.990  0.5522 -0.6848  0.2499
14163TIP3    H163980   0.435   1.157  14.923  1.0147 -0.5171  0.3569
14163TIP3    H263981   0.381   1.158  15.065 -3.6913 -1.7606 -1.2384
14164TIP3   OH263982   3.660   2.162   2.476 -0.1486 -0.2823  0.6664
14164TIP3    H163983   3.717   2.236   2.455 -3.0433  2.7670  2.5055
14164TIP3    H263984   3.623   2.136   2.391 -0.2844  1.5694  0.0997
14165TIP3   OH263985   3.995   3.633  11.461 -0.5013  0.3302 -0.3985
14165TIP3    H163986   3.944   3.678  11.529  0.9102 -0.4365  1.2274
14165TIP3    H263987   4.076   3.684  11.454  0.6574 -1.2736  0.7069
14166TIP3   OH263988   3.655   0.677  11.503 -0.4692  0.1875 -0.1511
14166TIP3    H163989   3.696   0.622  11.570  0.3931  1.5506  0.4788
14166TIP3    H263990   3.727   0.700  11.444 -0.3578  2.2809  0.7431
14167TIP3   OH263991   3.430   1.356  13.330  0.2219  0.3965 -0.2365
14167TIP3    H163992   3.449   1.275  13.378 -0.6938  0.9114  1.0576
14167TIP3    H263993   3.362   1.330  13.267 -0.9930  0.3945  1.0366
14168TIP3   OH263994   4.434   6.032  16.174  0.0870  0.1751 -0.3755
14168TIP3    H163995   4.360   6.032  16.113  0.5611 -2.4503 -1.0675
14168TIP3    H263996   4.510   6.053  16.120  0.2973 -0.5247 -0.3525
14169TIP3   OH263997   0.716   0.773   2.034 -0.1802 -0.2728  0.0527
14169TIP3    H163998   0.796   0.826   2.036 -1.0971  1.2025 -0.6788
14169TIP3    H263999   0.710   0.741   1.944 -2.4110  2.9849 -1.1667
14170TIP3   OH264000   3.753   1.618  12.111 -0.4581  0.1233  0.2133
14170TIP3    H164001   3.806   1.640  12.034  0.4623  1.2636  1.1398
14170TIP3    H264002   3.697   1.695  12.123  0.2389  0.4772  1.3653
14171TIP3   OH264003   3.703   1.495  14.415  0.9724  0.1576  0.3460
14171TIP3    H164004   3.747   1.577  14.438 -0.7585  1.5600 -0.9961
14171TIP3    H264005   3.762   1.453  14.352  2.7641 -0.6444  2.4203
14172TIP3   OH264006   2.726   6.733  13.298  0.0694  0.1590  0.2295
14172TIP3    H164007   2.812   6.759  13.265  0.5356 -0.3044  1.0661
14172TIP3    H264008   2.742   6.655  13.350 -0.7509  0.4930  1.0046
14173TIP3   OH264009   1.870   3.546   5.657 -0.0801  0.2510 -0.4167
14173TIP3    H164010   1.858   3.522   5.749  0.8615 -0.3198 -0.4330
14173TIP3    H264011   1.784   3.533   5.617 -0.2297 -0.5462  0.1523
14174TIP3   OH264012   3.263   0.647  13.116 -0.0826  0.5183  1.2705
14174TIP3    H164013   3.189   0.667  13.173  0.0875  1.0332  1.3200
14174TIP3    H264014   3.270   0.723  13.059  0.8079  0.7715  1.6914
14175TIP3   OH264015   6.212   3.375  12.305 -0.5418 -0.5349 -0.1128
14175TIP3    H164016   6.291   3.428  12.314  0.4609 -2.2249  2.6634
14175TIP3    H264017   6.172   3.377  12.392 -1.2837 -2.9942 -0.3092
14176TIP3   OH264018   2.712   4.371  11.941 -0.9039  0.1499  0.1871
14176TIP3    H164019   2.624   4.408  11.938 -0.6307  0.9002  1.2034
14176TIP3    H264020   2.747   4.397  12.026 -0.5898 -2.1959  0.8419
14177TIP3   OH264021   3.375   4.257  13.789  0.3548  0.0708  0.7949
14177TIP3    H164022   3.294   4.300  13.815 -0.1887  0.7930 -1.8457
14177TIP3    H264023   3.443   4.300  13.840 -0.9288 -1.2656  3.8664
14178TIP3   OH264024   3.707   2.188  15.562  0.3909  0.1207 -0.3758
14178TIP3    H164025   3.626   2.210  15.607  0.1942  1.8688 -1.4877
14178TIP3    H264026   3.682   2.176  15.471  1.0739 -1.4810 -0.3916
14179TIP3   OH264027   3.278   1.039  13.382 -0.1949  0.0800 -0.1809
14179TIP3    H164028   3.238   1.013  13.299 -1.3905 -1.5894  0.8720
14179TIP3    H264029   3.211   1.094  13.424  0.0973  0.2794  0.0268
14180TIP3   OH264030   2.941   0.023  13.182 -0.5400 -0.4492  0.2788
14180TIP3    H164031   2.876   0.092  13.168 -0.9499 -1.1152 -1.2349
14180TIP3    H264032   2.994   0.023  13.103 -0.1941 -1.4949  0.4969
14181TIP3   OH264033   1.785   3.019  15.716 -0.1230  0.7231  0.0946
14181TIP3    H164034   1.723   3.005  15.787  0.2542 -2.8711 -0.0905
14181TIP3    H264035   1.731   3.045  15.641 -1.0069  0.6429  0.6938
14182TIP3   OH264036   5.790   0.228   2.667  0.0457 -0.5059  0.0051
14182TIP3    H164037   5.717   0.239   2.729 -0.1915 -0.4941 -0.2774
14182TIP3    H264038   5.748   0.215   2.582  0.3429 -1.5493 -0.0006
14183TIP3   OH264039   5.824   6.184   1.198  0.1963 -0.1179 -0.0001
14183TIP3    H164040   5.758   6.135   1.247  2.0595 -3.0118 -0.1860
14183TIP3    H264041   5.792   6.182   1.108 -0.9448  1.2383  0.3334
14184TIP3   OH264042   6.690   2.426  11.016  0.5812 -0.0135 -0.3719
14184TIP3    H164043   6.599   2.418  11.043  0.7113  0.6428  0.2807
14184TIP3    H264044   6.724   2.337  11.017  0.0055 -0.2355 -0.4289
14185TIP3   OH264045   1.550   2.395  16.115 -0.4747 -0.1662 -0.0398
14185TIP3    H164046   1.557   2.457  16.188  1.1641  0.3284 -0.5608
14185TIP3    H264047   1.498   2.441  16.050  0.5494  0.6284 -0.3372
14186TIP3   OH264048   2.092   5.526   0.304  0.3228  0.2744 -0.5809
14186TIP3    H164049   2.155   5.586   0.344 -0.1295 -0.4287  1.3342
14186TIP3    H264050   2.028   5.509   0.373  0.7461 -2.8331 -0.7781
14187TIP3   OH264051   1.194   4.945  16.921  0.2280  0.2621  0.5633
14187TIP3    H164052   1.128   4.889  16.880 -2.1799  1.8704  1.9727
14187TIP3    H264053   1.179   4.935  17.015  0.7442  2.0689  0.8760
14188TIP3   OH264054   4.826   0.721   5.530  0.4756 -0.1909 -0.3482
14188TIP3    H164055   4.875   0.648   5.492  2.5803  0.9774 -0.0225
14188TIP3    H264056   4.891   0.770   5.581 -1.3543  0.6514  1.3286
14189TIP3   OH264057   3.272   5.710  11.261 -0.5737  1.0255 -0.1766
14189TIP3    H164058   3.180   5.721  11.286 -0.7857 -0.8296 -0.0189
14189TIP3    H264059   3.300   5.631  11.305  1.6867  2.5134  1.2680
14190TIP3   OH264060   3.097   0.257   0.233 -0.1781 -0.7410  0.0842
14190TIP3    H164061   3.182   0.247   0.276 -0.1511 -1.1993 -0.0735
14190TIP3    H264062   3.043   0.186   0.268 -0.0348 -1.3636 -0.9140
14191TIP3   OH264063   5.171   6.595  13.212  0.6816 -0.1094 -0.1175
14191TIP3    H164064   5.143   6.658  13.145 -2.4043  0.0068  1.1063
14191TIP3    H264065   5.095   6.539  13.225  2.2134 -1.9878  1.2477
14192TIP3   OH264066   0.614   3.854  15.446 -0.5738  0.3100 -0.2727
14192TIP3    H164067   0.678   3.848  15.375  0.1668 -0.0440  0.4181
14192TIP3    H264068   0.529   3.854  15.401 -0.0979  1.4734 -1.2506
14193TIP3   OH264069   3.841   1.161  13.102  0.5181  0.1430 -0.1568
14193TIP3    H164070   3.828   1.237  13.158  0.2445 -0.6645  0.9006
14193TIP3    H264071   3.876   1.093  13.160 -0.5363 -0.9675 -0.7595
14194TIP3   OH264072   5.228   0.136  14.203 -0.0518 -0.3388  0.3867
14194TIP3    H164073   5.277   0.061  14.169 -1.8126 -1.3286 -0.1110
14194TIP3    H264074   5.158   0.150  14.140 -0.6249  0.7953  1.2354
14195TIP3   OH264075   1.241   3.652  11.508  0.4648 -0.5506  0.0602
14195TIP3    H164076   1.238   3.741  11.474  1.2763 -0.5837 -0.1055
14195TIP3    H264077   1.301   3.606  11.449 -0.5129 -1.3999 -0.3042
14196TIP3   OH264078   3.241   2.574   0.678 -0.3025 -0.2013 -0.5829
14196TIP3    H164079   3.314   2.514   0.667 -0.7693 -0.5572 -1.9008
14196TIP3    H264080   3.276   2.644   0.733  1.2755  0.0336 -1.8024
14197TIP3   OH264081   5.574   6.263  11.487 -0.1888  0.1044  0.2092
14197TIP3    H164082   5.567   6.169  11.501 -0.9725  0.0804 -0.2579
14197TIP3    H264083   5.513   6.301  11.551 -1.1396  0.1856 -0.7132
14198TIP3   OH264084   2.911   2.567   2.853 -0.7132  0.4435 -0.1440
14198TIP3    H164085   2.853   2.521   2.912 -0.4195  1.4938  1.0036
14198TIP3    H264086   2.994   2.574   2.900 -0.0839  0.2232 -1.1744
14199TIP3   OH264087   0.026   1.321   3.375 -0.6514  0.1866 -0.6363
14199TIP3    H164088  -0.030   1.397   3.389 -1.7498 -0.4689 -1.2607
14199TIP3    H264089   0.056   1.296   3.462 -0.8320  0.9208 -0.3556
14200TIP3   OH264090   1.918   1.886   6.091 -0.0536 -0.2578 -0.0753
14200TIP3    H164091   1.830   1.921   6.103 -0.3601 -1.6630  2.3454
14200TIP3    H264092   1.961   1.899   6.175  1.4677 -1.1602 -0.6698
14201TIP3   OH264093   0.882   5.363   0.054  0.0218 -0.0274  0.3223
14201TIP3    H164094   0.976   5.349   0.063 -0.0479 -1.2661 -0.6216
14201TIP3    H264095   0.871   5.397  -0.035 -0.3724  0.6308  0.6173
14202TIP3   OH264096   1.874   2.796   0.096 -0.3520 -0.2144 -1.0294
14202TIP3    H164097   1.893   2.715   0.144  2.4094 -0.8862 -3.0603
14202TIP3    H264098   1.924   2.789   0.015 -3.6984  1.4937 -3.4785
14203TIP3   OH264099   5.533   5.461  16.000  0.4237 -0.3642 -0.0488
14203TIP3    H164100   5.502   5.403  16.069 -0.1368  0.3808  0.3301
14203TIP3    H264101   5.562   5.540  16.045 -0.7324  0.4730 -0.6919
14204TIP3   OH264102   1.509   5.065  16.894 -0.1091  0.0793 -0.7677
14204TIP3    H164103   1.537   5.062  16.802 -1.0860 -1.6980 -1.0452
14204TIP3    H264104   1.425   5.019  16.895 -0.2770  0.3618  0.9830
14205TIP3   OH264105   5.677   4.312  16.745  0.2461  0.7378 -1.0198
14205TIP3    H164106   5.713   4.269  16.668  0.5664  0.5111 -0.7443
14205TIP3    H264107   5.721   4.397  16.748  0.2144  0.7577 -1.1002
14206TIP3   OH264108   1.852   0.752  11.777  0.0084 -0.5088 -0.1579
14206TIP3    H164109   1.939   0.711  11.776  0.3965  0.2121  1.2638
14206TIP3    H264110   1.857   0.820  11.710  1.1683  0.7070  1.1050
14207TIP3   OH264111   5.616   6.096  12.710  0.3773 -0.0118  0.2662
14207TIP3    H164112   5.536   6.065  12.753 -0.0301 -0.7618 -0.9831
14207TIP3    H264113   5.686   6.074  12.771 -0.3348  0.4314  1.2741
14208TIP3   OH264114   5.993   3.689   3.704  0.1082  0.2676  0.0523
14208TIP3    H164115   6.070   3.634   3.723  0.1101  0.1183 -0.3806
14208TIP3    H264116   5.921   3.627   3.694  0.2134  0.3029 -0.9628
14209TIP3   OH264117   5.319   2.536  14.970  0.3871 -0.6357 -0.5835
14209TIP3    H164118   5.240   2.567  14.926  0.9424  0.0663 -1.1014
14209TIP3    H264119   5.332   2.447  14.937 -0.9888 -1.3186  0.6012
14210TIP3   OH264120   3.318   3.177   1.987 -0.0760  0.4122  0.0781
14210TIP3    H164121   3.352   3.262   1.959  0.0331 -0.0550 -1.2908
14210TIP3    H264122   3.390   3.138   2.037  1.1391 -0.1746 -1.9959
14211TIP3   OH264123   2.263   6.799   2.007  0.3422  0.0551 -0.2214
14211TIP3    H164124   2.302   6.877   1.966 -1.0494 -0.2599 -2.3207
14211TIP3    H264125   2.313   6.726   1.970  0.2625 -0.1653  0.1057
14212TIP3   OH264126   6.335   3.236  12.697 -0.0424  0.2498 -0.3993
14212TIP3    H164127   6.348   3.330  12.681 -3.4015  0.8561 -0.4237
14212TIP3    H264128   6.243   3.230  12.725  0.2945 -2.9706  0.3446
14213TIP3   OH264129   5.635   2.366  13.843  0.3280 -0.2749  0.8392
14213TIP3    H164130   5.722   2.365  13.803  0.0422 -1.2967  0.2027
14213TIP3    H264131   5.602   2.277  13.830 -1.7598  0.6745 -1.0569
14214TIP3   OH264132   5.180   0.974   4.671  0.1516  0.7442 -0.2469
14214TIP3    H164133   5.137   0.893   4.699  1.1766  0.0451 -0.6370
14214TIP3    H264134   5.210   1.014   4.752  3.7214 -1.6106 -0.1723
14215TIP3   OH264135   6.490   5.263   3.673  0.3538  0.8852 -0.4826
14215TIP3    H164136   6.497   5.232   3.582 -0.1983  1.1320 -0.6133
14215TIP3    H264137   6.577   5.297   3.693  0.9724 -0.6686 -0.3570
14216TIP3   OH264138   0.365   2.666   0.586 -1.3089 -0.0636 -0.6277
14216TIP3    H164139   0.336   2.681   0.496 -1.0228  0.0030 -0.7083
14216TIP3    H264140   0.379   2.753   0.622 -0.9952 -0.1028 -0.6573
14217TIP3   OH264141   4.267   6.171   3.467 -0.0915  0.4202  0.2507
14217TIP3    H164142   4.206   6.239   3.496 -0.1836  0.2664  0.4161
14217TIP3    H264143   4.231   6.089   3.502  0.7275  0.4388  1.1980
14218TIP3   OH264144   1.267   5.109  13.007 -0.0547  0.0134 -0.3309
14218TIP3    H164145   1.268   5.168  12.931  2.0299  0.4939 -0.0071
14218TIP3    H264146   1.343   5.052  12.994 -0.0900 -0.3762  1.0224
14219TIP3   OH264147   4.692   0.604  12.537 -0.5938 -0.1269 -0.1021
14219TIP3    H164148   4.711   0.696  12.521 -1.0647  0.1910  1.0980
14219TIP3    H264149   4.641   0.576  12.461 -0.5034  0.6161 -0.4378
14220TIP3   OH264150   1.471   1.176  14.911  0.0015  0.5073 -0.0157
14220TIP3    H164151   1.405   1.237  14.877 -0.3137 -0.6538 -1.6109
14220TIP3    H264152   1.553   1.204  14.872 -0.0478  0.2728 -0.2953
14221TIP3   OH264153   4.266   3.087  16.095 -0.1227  0.0619 -0.7344
14221TIP3    H164154   4.283   3.126  16.009 -0.8307  1.0746 -0.4345
14221TIP3    H264155   4.227   3.158  16.146  1.4653 -0.1224  0.8556
14222TIP3   OH264156   0.539   0.743  16.027  0.6173 -0.1985 -0.2325
14222TIP3    H164157   0.580   0.669  16.072  0.3383  0.6785  1.5547
14222TIP3    H264158   0.612   0.788  15.985  1.3471  0.4387  1.5828
14223TIP3   OH264159   0.098   0.315   1.511  0.4849  0.3209 -0.1051
14223TIP3    H164160   0.178   0.342   1.465 -0.2898  0.1772 -1.5837
14223TIP3    H264161   0.121   0.321   1.603  2.4725 -0.4725 -0.4965
14224TIP3   OH264162   6.449   6.595   1.466 -0.0707  0.6029  0.5956
14224TIP3    H164163   6.366   6.638   1.445 -0.2406 -0.1030 -0.2374
14224TIP3    H264164   6.490   6.653   1.531 -1.8754  0.2140  2.1671
14225TIP3   OH264165   5.724   1.812  16.876 -0.7072  0.6331  0.3789
14225TIP3    H164166   5.773   1.767  16.807 -1.5695 -0.8036  0.6419
14225TIP3    H264167   5.736   1.905  16.859  0.1939  0.2977 -0.9061
14226TIP3   OH264168   4.627   1.685  13.982 -0.2730 -0.1192 -0.0249
14226TIP3    H164169   4.658   1.672  13.892  0.4789 -2.1470  0.4646
14226TIP3    H264170   4.676   1.760  14.014 -1.1799  1.1975 -1.5417
14227TIP3   OH264171   2.364   2.847   1.596  0.2091 -0.2098 -0.2064
14227TIP3    H164172   2.393   2.938   1.598  0.7737 -0.3504 -1.1408
14227TIP3    H264173   2.348   2.825   1.688 -2.0235  1.4559 -0.1094
14228TIP3   OH264174   1.078   5.316  11.595  0.0597 -0.4683 -0.0331
14228TIP3    H164175   1.064   5.244  11.656 -1.7707 -0.7879 -0.7730
14228TIP3    H264176   1.120   5.274  11.519  2.6445 -0.0146  1.0331
14229TIP3   OH264177   3.537   3.465   5.330  0.2867  0.2713  0.3793
14229TIP3    H164178   3.514   3.419   5.410  0.7798  0.8593  0.8621
14229TIP3    H264179   3.464   3.525   5.314  1.1785  1.7391  1.6083
14230TIP3   OH264180   2.574   1.410   2.496  0.0202  0.1463  0.2912
14230TIP3    H164181   2.505   1.434   2.557  0.2347  0.7236  0.3141
14230TIP3    H264182   2.553   1.458   2.416  0.9193  1.1147  0.6100
14231TIP3   OH264183   6.310   1.402  14.962 -0.2693  0.0475  0.1358
14231TIP3    H164184   6.399   1.432  14.986  0.3841 -0.6041 -1.3823
14231TIP3    H264185   6.307   1.410  14.867 -2.0505  0.5362  0.2055
14232TIP3   OH264186   6.197   6.176  13.638 -0.5662  0.0599 -0.1744
14232TIP3    H164187   6.142   6.150  13.712  0.0882 -1.4686 -0.1971
14232TIP3    H264188   6.287   6.165  13.669 -0.2779 -0.5421 -1.1682
14233TIP3   OH264189   4.375   0.099   2.784 -0.8118  1.0213 -0.1176
14233TIP3    H164190   4.314   0.034   2.819 -0.2676  0.7849  0.4367
14233TIP3    H264191   4.450   0.094   2.844  1.1790 -1.0021 -2.5100
14234TIP3   OH264192   0.670   6.441  13.766  0.1297  0.3206  0.3292
14234TIP3    H164193   0.659   6.356  13.724 -0.3210  1.6405 -2.4841
14234TIP3    H264194   0.581   6.473  13.781  0.2590  1.0884 -0.4607
14235TIP3   OH264195   5.307   2.876  16.564  0.2934  0.8355 -0.3450
14235TIP3    H164196   5.344   2.964  16.557 -1.8656  1.9492  1.1001
14235TIP3    H264197   5.214   2.888  16.547 -0.1296 -1.1148  0.3846
14236TIP3   OH264198   0.067   3.035  11.668 -0.7626 -0.0534  0.0011
14236TIP3    H164199   0.079   2.961  11.609 -0.6205  0.3600 -0.4920
14236TIP3    H264200   0.046   3.109  11.611  1.1490  0.7741  0.2776
14237TIP3   OH264201   6.350   6.825  13.621 -0.3084 -0.1179  0.2644
14237TIP3    H164202   6.324   6.894  13.559  1.1984  0.0637 -0.2041
14237TIP3    H264203   6.310   6.745  13.586 -0.8143  0.2596 -0.0341
14238TIP3   OH264204   4.817   1.209  11.866 -0.1301  0.2695  0.1173
14238TIP3    H164205   4.743   1.221  11.806  0.5939 -0.1089 -0.8698
14238TIP3    H264206   4.841   1.298  11.892 -1.0125  0.3935  0.5729
14239TIP3   OH264207   1.582   5.898   1.125  0.2830  0.0306 -0.0449
14239TIP3    H164208   1.668   5.875   1.160  0.7610  0.5875 -0.8201
14239TIP3    H264209   1.564   5.831   1.059  0.8473  0.8020 -1.0030
14240TIP3   OH264210   4.626   1.239  13.865 -0.0513 -0.3209 -0.3224
14240TIP3    H164211   4.616   1.167  13.803 -1.9219 -2.2789  2.0050
14240TIP3    H264212   4.701   1.214  13.919  0.0909  0.1488 -0.2964
14241TIP3   OH264213   3.214   2.883   0.446  0.2359  0.8206  0.2762
14241TIP3    H164214   3.142   2.820   0.453  0.0625  1.0279  0.3836
14241TIP3    H264215   3.173   2.962   0.410  0.5840  0.6549 -0.5044
14242TIP3   OH264216   3.409   3.159   4.771  0.0413 -0.2664  0.4126
14242TIP3    H164217   3.395   3.253   4.780 -0.1722 -0.3611  1.0953
14242TIP3    H264218   3.474   3.137   4.838  0.5230 -0.5117 -0.1240
14243TIP3   OH264219   1.290   2.976   5.429  0.4453 -0.7676 -0.4327
14243TIP3    H164220   1.233   3.050   5.409 -0.1967 -1.3513 -0.8174
14243TIP3    H264221   1.231   2.900   5.433  1.0448 -1.2236  0.2207
14244TIP3   OH264222   1.238   3.625   1.117  0.0486  0.1294 -0.4081
14244TIP3    H164223   1.201   3.683   1.050  0.3706 -0.5461 -1.1802
14244TIP3    H264224   1.282   3.556   1.068  1.0653  0.1075  0.5009
14245TIP3   OH264225   5.214   5.952   5.835  1.0635 -0.2866 -0.0332
14245TIP3    H164226   5.235   5.994   5.918 -0.4273 -0.6960  0.5952
14245TIP3    H264227   5.121   5.932   5.842  0.6591  0.6215 -2.2477
14246TIP3   OH264228   4.840   1.087   4.199  0.0902  0.7335 -0.3450
14246TIP3    H164229   4.894   1.086   4.119  0.8139 -0.0911  0.1345
14246TIP3    H264230   4.807   1.176   4.205 -0.6925  0.5965 -2.0415
14247TIP3   OH264231   4.790   4.590   2.946  0.1300  0.4994 -0.3729
14247TIP3    H164232   4.884   4.570   2.955  0.1599  0.3015 -0.9988
14247TIP3    H264233   4.785   4.685   2.952  0.4859  0.5783 -1.1696
14248TIP3   OH264234   6.142   2.787   6.636  0.7131  0.0276  0.0953
14248TIP3    H164235   6.228   2.816   6.605  0.9210  0.3301  0.9280
14248TIP3    H264236   6.157   2.699   6.671  0.1091 -1.1044 -2.2984
14249TIP3   OH264237   0.803   6.489  12.684  0.2026 -0.4742  0.4604
14249TIP3    H164238   0.854   6.521  12.758 -0.2700 -0.7898  0.9339
14249TIP3    H264239   0.721   6.538  12.688  0.2715 -0.3134 -0.0078
14250TIP3   OH264240   6.077   5.515   3.552  0.4522  0.3898 -0.9654
14250TIP3    H164241   6.120   5.457   3.489 -0.0291  0.1364 -1.0629
14250TIP3    H264242   5.997   5.542   3.508  0.5618  0.9497 -0.8268
14251TIP3   OH264243   6.558   5.026   4.417 -0.3208  0.2849  0.7642
14251TIP3    H164244   6.640   4.977   4.422  0.8480  2.1787  1.2811
14251TIP3    H264245   6.550   5.049   4.325  1.2884  2.4892  1.1023
14252TIP3   OH264246   5.938   3.822  15.424 -0.2803 -0.1619 -0.0830
14252TIP3    H164247   5.958   3.767  15.348  0.1175 -1.9236  1.2222
14252TIP3    H264248   5.894   3.899  15.387 -0.4611 -1.1395 -2.0476
14253TIP3   OH264249   0.112   3.485  15.565 -0.4832 -0.1184  0.3322
14253TIP3    H164250   0.140   3.393  15.573 -0.4925 -0.2078 -0.6198
14253TIP3    H264251   0.046   3.495  15.634  1.2369 -0.1347  2.0785
14254TIP3   OH264252   5.521   3.046  16.424  0.6467 -0.0157 -0.4122
14254TIP3    H164253   5.507   2.965  16.376  2.2858 -1.1072  0.8458
14254TIP3    H264254   5.607   3.077  16.397  0.9989  0.0842  0.7381
14255TIP3   OH264255   4.120   0.181  13.089  0.1058 -0.0865  0.1643
14255TIP3    H164256   4.117   0.254  13.151 -2.2882 -0.4919  0.5962
14255TIP3    H264257   4.162   0.110  13.138  0.0095  0.1880  0.6533
14256TIP3   OH264258   4.788   1.063   3.320 -0.3673 -0.6589  0.1500
14256TIP3    H164259   4.786   1.023   3.233 -1.4811 -0.7978  0.2164
14256TIP3    H264260   4.775   0.989   3.380 -0.2853 -0.4803  0.3894
14257TIP3   OH264261   3.680   3.727  10.506 -0.4081  0.2092  0.1457
14257TIP3    H164262   3.600   3.690  10.544 -0.2389 -0.0944  0.2064
14257TIP3    H264263   3.724   3.769  10.580  0.4270 -1.2500  0.5201
14258TIP3   OH264264   1.771   4.113  10.946  0.5287 -0.2667 -0.4807
14258TIP3    H164265   1.703   4.179  10.959  0.1785 -0.8139  0.5099
14258TIP3    H264266   1.851   4.153  10.981 -0.0607 -1.0714  1.8956
14259TIP3   OH264267   4.157   4.356   5.152  0.6187  0.1694  0.1368
14259TIP3    H164268   4.174   4.346   5.059  1.3980  0.5519  0.2294
14259TIP3    H264269   4.073   4.400   5.157  0.6210  0.2383 -0.3877
14260TIP3   OH264270   4.133   5.519   2.910 -0.1269 -0.0567 -0.3842
14260TIP3    H164271   4.085   5.441   2.940  1.7675 -1.4833 -0.8682
14260TIP3    H264272   4.176   5.552   2.989 -1.2180  0.7848 -0.1030
14261TIP3   OH264273   6.174   2.065   3.098  0.6250 -0.1393  0.3293
14261TIP3    H164274   6.195   2.011   3.174  0.5569  0.4869  0.8013
14261TIP3    H264275   6.251   2.120   3.085  0.7874 -0.4980 -0.2942
14262TIP3   OH264276   0.512   2.215  14.355  0.4184  0.5908 -0.1419
14262TIP3    H164277   0.581   2.229  14.290  1.3062 -0.7689  0.4790
14262TIP3    H264278   0.540   2.265  14.431  1.8456 -1.6152  0.8594
14263TIP3   OH264279   5.802   5.966  14.735  0.2363  0.1560  0.1383
14263TIP3    H164280   5.869   5.937  14.674  1.0387 -0.1996  1.1611
14263TIP3    H264281   5.773   6.051  14.701  0.3251 -0.2476 -0.9833
14264TIP3   OH264282   5.485   3.040  15.898  0.3266 -0.0447  0.4076
14264TIP3    H164283   5.475   2.949  15.870  0.3997  0.0843 -0.0365
14264TIP3    H264284   5.537   3.034  15.979  0.0581 -0.4175  0.5540
14265TIP3   OH264285   5.340   4.542   0.779  1.0509  0.2832 -0.0913
14265TIP3    H164286   5.385   4.617   0.818 -1.6878  1.1858  1.6569
14265TIP3    H264287   5.277   4.581   0.718  0.8057 -0.7412 -0.5135
14266TIP3   OH264288   2.625   0.180   3.801  0.1575  0.4349  0.4057
14266TIP3    H164289   2.629   0.120   3.727  1.9290 -0.0673  0.8518
14266TIP3    H264290   2.559   0.141   3.859 -0.5147  0.2897 -0.4406
14267TIP3   OH264291   3.435   3.124   3.047  0.1337  0.7836 -0.5250
14267TIP3    H164292   3.357   3.179   3.053 -1.7872 -1.4518 -2.6543
14267TIP3    H264293   3.464   3.132   2.957  0.9930 -0.1581 -0.3638
14268TIP3   OH264294   1.686   1.548  16.102  0.0282 -0.7344 -0.0194
14268TIP3    H164295   1.773   1.584  16.083  0.0917 -1.0270 -0.2935
14268TIP3    H264296   1.625   1.614  16.069  0.1070  0.6929  2.4186
14269TIP3   OH264297   6.408   3.609  16.145  0.2326 -0.0105 -0.0302
14269TIP3    H164298   6.316   3.587  16.154  0.1089  0.0819 -0.9992
14269TIP3    H264299   6.429   3.590  16.054  1.0272  0.4929  0.0362
14270TIP3   OH264300   0.639   4.882   4.064 -0.3239 -0.2950  0.3352
14270TIP3    H164301   0.721   4.917   4.028  1.1776 -1.5304  2.3655
14270TIP3    H264302   0.634   4.918   4.152 -2.8277  0.9668 -0.2348
14271TIP3   OH264303   3.354   4.888  11.495  0.4206 -0.2926  0.4075
14271TIP3    H164304   3.301   4.864  11.419  0.0483 -0.8672  0.8355
14271TIP3    H264305   3.397   4.806  11.520  0.3072 -0.1784  0.9888
14272TIP3   OH264306   5.176   5.475   0.425 -0.3990 -0.1433 -0.1060
14272TIP3    H164307   5.213   5.443   0.507 -0.1608 -0.5573 -0.3766
14272TIP3    H264308   5.163   5.397   0.372  0.5186  0.2367 -0.9092
14273TIP3   OH264309   1.102   3.564  14.181  0.1163 -0.3104 -0.5301
14273TIP3    H164310   1.191   3.600  14.178  0.5412 -1.0681  1.3649
14273TIP3    H264311   1.053   3.627  14.234  0.2491 -1.2392  0.7410
14274TIP3   OH264312   2.690   0.137  12.346 -0.0974  0.6426  0.3761
14274TIP3    H164313   2.739   0.194  12.406  1.0414 -1.0168  1.1067
14274TIP3    H264314   2.699   0.179  12.261  1.1596  1.3045  0.7963
14275TIP3   OH264315   0.615   1.173  15.289 -0.2008 -0.8920  0.3065
14275TIP3    H164316   0.658   1.254  15.313  0.2446 -0.7794 -0.7864
14275TIP3    H264317   0.685   1.108  15.288 -0.3401 -1.0398  0.0384
14276TIP3   OH264318   0.329   3.626  15.987 -1.2657 -0.3030 -0.8301
14276TIP3    H164319   0.327   3.621  15.891  0.9096  1.3950 -1.0490
14276TIP3    H264320   0.387   3.553  16.012  0.6192  1.0059 -1.1229
14277TIP3   OH264321   0.092   2.604  11.978  0.0872  0.1332  0.1347
14277TIP3    H164322   0.018   2.661  11.960  1.0937  1.3716 -0.2132
14277TIP3    H264323   0.151   2.657  12.031  1.2156 -0.4609 -0.4931
14278TIP3   OH264324   6.090   0.948   4.476  0.0399  0.2654 -0.0653
14278TIP3    H164325   6.123   0.940   4.386 -1.3028 -0.6726 -0.4989
14278TIP3    H264326   6.146   1.015   4.515  2.5126 -1.2815 -0.7162
14279TIP3   OH264327   1.759   1.015   3.308 -0.0637  0.2494  0.5170
14279TIP3    H164328   1.833   1.073   3.328  0.2294  0.5985 -1.3940
14279TIP3    H264329   1.793   0.957   3.240 -0.4560 -2.0107  2.1344
14280TIP3   OH264330   2.074   5.273   3.413  0.5069 -0.1081 -0.2729
14280TIP3    H164331   2.112   5.314   3.491 -0.6799  0.9718 -0.2302
14280TIP3    H264332   2.050   5.185   3.442  1.9084 -0.4146  0.0029
14281TIP3   OH264333   5.143   3.322   5.367  0.0621  0.0396 -0.1355
14281TIP3    H164334   5.176   3.339   5.279 -0.8147  1.1289 -0.2840
14281TIP3    H264335   5.096   3.402   5.390 -2.5993 -1.4365 -0.0044
14282TIP3   OH264336   5.037   0.734  10.990  0.0477  0.2107  0.3017
14282TIP3    H164337   4.993   0.775  10.915  0.9489  1.7436  0.5809
14282TIP3    H264338   4.966   0.713  11.051 -0.4458  1.4170  0.1648
14283TIP3   OH264339   4.155   0.196  17.090  0.2866 -0.1833  0.0154
14283TIP3    H164340   4.103   0.267  17.128  0.0965  1.2915 -2.7375
14283TIP3    H264341   4.093   0.124  17.077 -0.3470  0.4136 -0.3288
14284TIP3   OH264342   3.622   6.666   2.820  0.5768 -0.7026 -0.3675
14284TIP3    H164343   3.589   6.703   2.902 -0.1168  0.8793 -1.3180
14284TIP3    H264344   3.549   6.613   2.787  0.4613 -0.4681 -0.4893
14285TIP3   OH264345   0.828   5.996  16.262  0.5175 -0.1905  0.9656
14285TIP3    H164346   0.766   5.984  16.190  0.5715 -2.3679  1.2025
14285TIP3    H264347   0.896   6.053  16.227 -0.9083  1.1434  0.2694
14286TIP3   OH264348   4.503   2.664  14.226 -0.1228  0.0951  0.1004
14286TIP3    H164349   4.478   2.682  14.317  1.7833  0.5460  0.5861
14286TIP3    H264350   4.450   2.725  14.174 -0.8690  0.1799  0.9319
14287TIP3   OH264351   1.591   1.462   2.754 -0.1803 -0.0296 -0.5887
14287TIP3    H164352   1.626   1.542   2.714 -1.3048  0.8418  0.1010
14287TIP3    H264353   1.647   1.392   2.720 -0.8731  0.6608 -3.4388
14288TIP3   OH264354   5.046   5.009   1.574  0.0426 -0.0620 -0.2534
14288TIP3    H164355   5.119   5.046   1.624  0.0853 -0.9182  0.3434
14288TIP3    H264356   5.052   5.052   1.489  1.6082 -0.5387 -0.4245
14289TIP3   OH264357   0.106   5.918  10.484  0.1059 -0.4610 -0.1462
14289TIP3    H164358   0.039   5.853  10.503 -0.7059 -0.7066 -3.3066
14289TIP3    H264359   0.170   5.872  10.429  0.7263  0.8129 -0.5482
14290TIP3   OH264360   0.753   0.049   2.229  0.2094  0.2054 -0.1570
14290TIP3    H164361   0.687   0.088   2.287 -0.0191 -0.4803  0.0428
14290TIP3    H264362   0.798  -0.015   2.283  0.4645  0.0606 -0.5437
14291TIP3   OH264363   2.513   0.666   1.034  0.2810 -0.7054 -0.5930
14291TIP3    H164364   2.607   0.657   1.051  0.3341 -0.3078 -0.6841
14291TIP3    H264365   2.487   0.744   1.083  0.2457 -0.0884 -1.5722
14292TIP3   OH264366   5.884   1.782   0.953 -0.0098 -0.1418  0.0541
14292TIP3    H164367   5.921   1.694   0.959  1.1135  0.3027 -0.1300
14292TIP3    H264368   5.950   1.839   0.992  0.6173  0.9716 -2.4351
14293TIP3   OH264369   6.248   5.755  16.364  0.5698 -0.4978 -0.1879
14293TIP3    H164370   6.166   5.724  16.404  0.8731 -0.2603  0.6294
14293TIP3    H264371   6.233   5.848  16.348 -0.6559 -1.1279 -3.4167
14294TIP3   OH264372   6.665   3.426   2.922 -0.3254  0.4200 -0.0640
14294TIP3    H164373   6.718   3.482   2.978 -0.6613 -1.0950  1.8842
14294TIP3    H264374   6.575   3.450   2.942 -0.4617 -0.5010  0.4965
14295TIP3   OH264375   1.594   0.054  15.693 -0.2286 -0.3831 -0.5818
14295TIP3    H164376   1.646   0.051  15.774  0.5104  1.2410 -0.9700
14295TIP3    H264377   1.626  -0.021  15.642  1.2970  0.1980 -0.5356
14296TIP3   OH264378   6.312   2.622   5.573  0.1517  0.2182 -0.0090
14296TIP3    H164379   6.270   2.574   5.501 -0.1263  0.8588 -0.2867
14296TIP3    H264380   6.393   2.574   5.590  0.0309 -0.1678 -0.4908
14297TIP3   OH264381   1.883   0.821  13.961 -0.0173 -0.9594  0.4747
14297TIP3    H164382   1.810   0.879  13.938  1.9704  1.2176 -0.7184
14297TIP3    H264383   1.892   0.763  13.886  0.4759 -0.1556 -0.0968
14298TIP3   OH264384   6.199   1.289  16.781 -0.1788 -0.6358 -0.2286
14298TIP3    H164385   6.219   1.218  16.842 -1.3914 -1.4344 -0.7185
14298TIP3    H264386   6.250   1.364  16.813  1.2630 -1.7640  0.1906
14299TIP3   OH264387   6.777   2.330   2.425  0.3194 -0.2745 -0.3424
14299TIP3    H164388   6.839   2.258   2.416  0.3289 -0.4250  0.7993
14299TIP3    H264389   6.783   2.355   2.517  0.1030  0.9954 -0.6506
14300TIP3   OH264390   5.258   0.328   5.608  0.2020  1.0181  0.2624
14300TIP3    H164391   5.289   0.402   5.555 -0.6611  0.2309 -1.4255
14300TIP3    H264392   5.171   0.309   5.573  0.0187 -0.1870  1.3202
14301TIP3   OH264393   3.381   5.179  13.207  0.4516  0.6323 -0.5458
14301TIP3    H164394   3.462   5.181  13.257  0.7977 -0.5584 -1.0124
14301TIP3    H264395   3.400   5.228  13.127  0.7260  0.3286 -0.6682
14302TIP3   OH264396   0.104   4.151   2.574  0.3397 -0.1200 -0.1644
14302TIP3    H164397   0.096   4.109   2.659  0.3785  1.2528  0.5395
14302TIP3    H264398   0.049   4.228   2.580  0.5706  0.1468 -1.2883
14303TIP3   OH264399   5.684   6.331   5.037 -0.1445  0.8195 -0.2396
14303TIP3    H164400   5.752   6.398   5.025 -0.8815  1.9609  1.6251
14303TIP3    H264401   5.709   6.285   5.117 -1.3372  1.0060  0.2635
14304TIP3   OH264402   3.858   1.157   2.405 -0.3421  0.0169 -0.2259
14304TIP3    H164403   3.790   1.125   2.465 -0.6597  1.1504  0.0445
14304TIP3    H264404   3.939   1.117   2.437 -0.6234  0.0187  0.5147
14305TIP3   OH264405   5.006   0.511  12.093 -0.2588  0.6672  0.0139
14305TIP3    H164406   4.985   0.476  12.006  0.6149 -0.0579  0.0778
14305TIP3    H264407   4.931   0.565  12.116 -1.9003 -1.5033  0.0893
14306TIP3   OH264408   4.909   2.359   2.194 -0.5214 -0.4747 -0.1575
14306TIP3    H164409   4.955   2.413   2.259  0.1199  0.1138 -1.0749
14306TIP3    H264410   4.824   2.402   2.182  0.5457  1.2967 -1.9987
14307TIP3   OH264411   3.764   4.457   0.226  0.2336 -0.0097  0.5584
14307TIP3    H164412   3.764   4.509   0.306  0.6080  0.1575  0.4532
14307TIP3    H264413   3.683   4.481   0.181  0.3716  0.4306  0.5409
14308TIP3   OH264414   2.858   0.599  12.947  0.1041  0.4522 -0.2179
14308TIP3    H164415   2.925   0.667  12.943  1.0740 -0.3641  1.3839
14308TIP3    H264416   2.797   0.622  12.877  1.4760  1.8151 -1.0266
14309TIP3   OH264417   2.073   0.013   3.462 -0.0169  0.0082 -0.4115
14309TIP3    H164418   2.143   0.071   3.494 -0.6695  0.8289 -0.4353
14309TIP3    H264419   2.043   0.055   3.382 -0.8915 -0.0533 -0.1229
14310TIP3   OH264420   5.478   1.951  11.536  0.5119  0.1866 -0.1592
14310TIP3    H164421   5.485   2.037  11.577 -0.1422 -0.4241  1.3146
14310TIP3    H264422   5.384   1.934  11.531  0.6411 -1.1398  1.1678
14311TIP3   OH264423   4.634   5.672  13.245 -0.0724  0.3456 -0.2853
14311TIP3    H164424   4.578   5.658  13.169  1.7612  1.8882 -2.0203
14311TIP3    H264425   4.575   5.711  13.311 -1.0192  2.4120 -2.2172
14312TIP3   OH264426   5.242   0.086   1.242 -0.2788  0.0621  0.0329
14312TIP3    H164427   5.214   0.079   1.333 -0.4238 -0.5528 -0.0555
14312TIP3    H264428   5.294   0.167   1.239  1.8857 -1.1955  1.2291
14313TIP3   OH264429   2.618   0.618  11.592 -0.3384  0.7937 -0.5951
14313TIP3    H164430   2.568   0.606  11.673 -0.7011  0.3567 -0.8783
14313TIP3    H264431   2.599   0.707  11.565  0.7755  1.3948  0.4591
14314TIP3   OH264432   5.303   4.555  10.398  0.1033 -0.3848 -0.1665
14314TIP3    H164433   5.349   4.475  10.374 -0.1097 -0.1676 -1.4073
14314TIP3    H264434   5.212   4.527  10.411 -0.1070 -0.2606 -1.2620
14315TIP3   OH264435   6.595   0.220   0.900 -0.1919 -0.2398  0.6641
14315TIP3    H164436   6.510   0.261   0.916 -0.9816 -1.6680  0.3149
14315TIP3    H264437   6.653   0.293   0.880 -1.6147  0.6905 -0.2838
14316TIP3   OH264438   0.358   3.744  13.184 -0.4174  0.0582  0.4131
14316TIP3    H164439   0.443   3.704  13.202 -0.3030  0.2204  0.2418
14316TIP3    H264440   0.307   3.675  13.142 -0.2272  0.0851  0.1355
14317TIP3   OH264441   4.496   3.147  15.227  0.4016  0.1542 -0.2681
14317TIP3    H164442   4.454   3.170  15.310  0.1131  1.0659 -0.6552
14317TIP3    H264443   4.493   3.228  15.176  1.3998 -0.1533 -0.8226
14318TIP3   OH264444   5.015   5.080   3.920  0.1742  0.6175 -0.2384
14318TIP3    H164445   5.010   5.131   4.001 -0.7144  1.3303 -0.7295
14318TIP3    H264446   5.012   5.145   3.850 -1.4448 -0.1220 -0.8970
14319TIP3   OH264447   5.302   1.204  11.339  0.4259  0.1246 -0.1326
14319TIP3    H164448   5.283   1.289  11.299  1.1981  1.4645  2.1183
14319TIP3    H264449   5.216   1.162  11.347 -0.1957  1.3722  0.0608
14320TIP3   OH264450   5.901   2.625  11.920 -0.5944  0.4324  0.3907
14320TIP3    H164451   5.844   2.695  11.889  0.5578  1.4022  0.3537
14320TIP3    H264452   5.938   2.587  11.841 -1.2123 -0.2155  0.4117
14321TIP3   OH264453   4.574   3.877   4.119  0.3878  0.4424 -0.3000
14321TIP3    H164454   4.548   3.969   4.120 -1.3760  0.0415 -1.7536
14321TIP3    H264455   4.629   3.869   4.041 -0.8536  0.0126 -1.1862
14322TIP3   OH264456   2.487   3.962   2.218 -0.5119  0.0065 -0.5053
14322TIP3    H164457   2.519   4.010   2.142 -1.1012  2.2164  0.5554
14322TIP3    H264458   2.394   3.983   2.222 -0.4562  0.1026  0.9187
14323TIP3   OH264459   6.596   6.151  10.639 -0.9426 -0.2321 -0.1249
14323TIP3    H164460   6.519   6.095  10.625 -2.1016  1.7044 -2.0192
14323TIP3    H264461   6.655   6.130  10.567 -0.2990 -0.6750  0.5143
14324TIP3   OH264462   4.552   2.415   1.926  0.5548  0.5158  0.1280
14324TIP3    H164463   4.521   2.347   1.986  0.9836  0.2724  0.0738
14324TIP3    H264464   4.573   2.368   1.845  1.3743  0.6292  0.2679
14325TIP3   OH264465   5.428   1.030   4.062  0.4886 -0.2366 -0.3293
14325TIP3    H164466   5.434   1.124   4.072  2.0162 -0.2849 -0.6448
14325TIP3    H264467   5.518   0.999   4.065  0.1470 -1.5093 -1.7961
14326TIP3   OH264468   3.757   2.736  12.464 -0.4817  0.2806  0.1388
14326TIP3    H164469   3.851   2.723  12.453 -0.3416  1.6630 -0.5161
14326TIP3    H264470   3.736   2.688  12.544  0.6005 -0.8051 -0.2038
14327TIP3   OH264471   3.259   5.708   5.603 -0.1282  0.2471 -0.7456
14327TIP3    H164472   3.227   5.789   5.643 -0.8040  0.0290 -0.8218
14327TIP3    H264473   3.325   5.736   5.540 -1.4913  0.9041 -1.9471
14328TIP3   OH264474   5.359   3.568   5.587  0.0941  0.4664  0.2454
14328TIP3    H164475   5.267   3.593   5.591  0.3615  1.3606  1.1790
14328TIP3    H264476   5.358   3.477   5.558 -1.1278  0.1813  1.1046
14329TIP3   OH264477   3.351   3.170   1.149  0.4750  0.0146 -0.0733
14329TIP3    H164478   3.404   3.104   1.193  1.1805  1.7816  1.8771
14329TIP3    H264479   3.261   3.138   1.156  0.5413  0.2646  2.8928
14330TIP3   OH264480   1.592   1.157   5.520 -0.7121 -0.0505  0.2231
14330TIP3    H164481   1.550   1.185   5.601 -0.2044 -1.4511  0.9984
14330TIP3    H264482   1.638   1.235   5.488 -0.6847  0.4404  1.4261
14331TIP3   OH264483   2.929   0.525  14.536  0.1408  0.8188 -0.0456
14331TIP3    H164484   3.004   0.519  14.477  0.6552  1.4680  0.5406
14331TIP3    H264485   2.957   0.582  14.606 -0.6549  0.4753  0.5711
14332TIP3   OH264486   3.523   1.353   0.835 -0.2035  0.0433 -0.0738
14332TIP3    H164487   3.459   1.413   0.874 -0.4710 -0.6208  0.5224
14332TIP3    H264488   3.495   1.266   0.863  0.8213 -0.2801 -0.0140
14333TIP3   OH264489   0.441   4.408  10.565 -0.4712 -0.0356  0.4753
14333TIP3    H164490   0.389   4.370  10.636  0.0504 -1.5247  0.0743
14333TIP3    H264491   0.395   4.490  10.544 -2.4718 -1.1218  0.3804
14334TIP3   OH264492   3.458   5.797  15.382  0.4709  0.2539 -0.4600
14334TIP3    H164493   3.516   5.807  15.306 -1.8719  3.8843 -2.0739
14334TIP3    H264494   3.375   5.769  15.345 -0.3205  0.6190  0.9800
14335TIP3   OH264495   2.625   6.785   2.424  0.4878  0.0275 -0.0856
14335TIP3    H164496   2.548   6.729   2.435 -0.1633  1.0693  0.8861
14335TIP3    H264497   2.686   6.732   2.372 -0.1141 -1.5621  0.7556
14336TIP3   OH264498   0.292   2.686   4.969  0.3138  0.1043  0.4740
14336TIP3    H164499   0.289   2.736   4.888 -1.7989 -0.4198  0.1758
14336TIP3    H264500   0.223   2.723   5.023  1.5546  0.3105  2.0052
14337TIP3   OH264501   2.831   3.613   1.965 -0.0767  0.3420 -0.4370
14337TIP3    H164502   2.883   3.680   1.921  2.0177 -1.9068 -1.6315
14337TIP3    H264503   2.867   3.530   1.934 -3.0206 -1.4045  0.3806
14338TIP3   OH264504   2.896   4.810   0.525 -0.2312 -0.2532 -0.1413
14338TIP3    H164505   2.926   4.802   0.615  1.3572  0.0013 -0.6166
14338TIP3    H264506   2.945   4.885   0.490 -0.6966 -0.4534 -1.2620
14339TIP3   OH264507   1.444   0.942   2.152  1.2071 -0.5481 -0.9890
14339TIP3    H164508   1.400   0.885   2.089  1.5438 -1.3054 -0.5543
14339TIP3    H264509   1.408   1.029   2.135  1.4566 -0.6873 -2.3838
14340TIP3   OH264510   6.376   3.136  15.935  0.1083 -0.0791  0.2175
14340TIP3    H164511   6.442   3.195  15.901 -0.6296  0.7809  0.2416
14340TIP3    H264512   6.293   3.177  15.913 -0.4743 -1.7274 -0.8898
14341TIP3   OH264513   6.736   1.626   5.621 -0.4344 -0.1534  0.3169
14341TIP3    H164514   6.653   1.645   5.577 -0.5124  1.9420  1.2524
14341TIP3    H264515   6.712   1.613   5.712  0.3085  1.2357  0.7407
14342TIP3   OH264516   3.429   6.252   3.298  0.3068  0.4401 -0.6971
14342TIP3    H164517   3.358   6.197   3.330 -0.1704  1.6132  0.3458
14342TIP3    H264518   3.509   6.202   3.315 -0.1890 -0.4316 -0.9034
14343TIP3   OH264519   6.124   3.025  14.925 -0.1365  0.0679  0.0526
14343TIP3    H164520   6.165   2.956  14.874  1.8277  0.7620  0.5928
14343TIP3    H264521   6.041   2.988  14.954 -0.0379 -1.3123 -1.3294
14344TIP3   OH264522   1.220   2.388   0.387 -0.7219 -0.1583  0.4697
14344TIP3    H164523   1.132   2.404   0.353 -1.0896 -0.6766  1.1636
14344TIP3    H264524   1.208   2.382   0.482  0.0315 -0.4249  0.5503
14345TIP3   OH264525   2.747   0.557  10.707  0.0730  0.2367  0.5362
14345TIP3    H164526   2.654   0.571  10.690 -0.0981 -0.1762  1.0940
14345TIP3    H264527   2.790   0.638  10.679 -0.3469  0.0895 -0.5728
14346TIP3   OH264528   6.129   1.136   1.940 -0.1456  0.1330 -0.1629
14346TIP3    H164529   6.218   1.162   1.963 -0.4642  1.6038 -0.5061
14346TIP3    H264530   6.139   1.047   1.905  1.0895  0.0147  0.4262
14347TIP3   OH264531   4.457   6.130  13.322  0.0694  0.3026 -0.1943
14347TIP3    H164532   4.401   6.081  13.262  0.0296  0.6360 -0.4341
14347TIP3    H264533   4.397   6.169  13.385 -0.0566  1.2509 -0.8724
14348TIP3   OH264534   5.851   1.271   6.079  0.0385 -0.2425 -0.5345
14348TIP3    H164535   5.928   1.286   6.135 -0.3659 -1.1469  0.2834
14348TIP3    H264536   5.786   1.333   6.111  0.3901  0.4755 -1.1817
14349TIP3   OH264537   3.680   1.730  16.779 -0.1332 -0.3312  0.4020
14349TIP3    H164538   3.756   1.786  16.768  1.1412 -2.2879 -1.5050
14349TIP3    H264539   3.686   1.698  16.869  0.3333  0.8234  0.7987
14350TIP3   OH264540   1.542   5.557  11.430 -0.2194  0.4023 -0.0010
14350TIP3    H164541   1.628   5.569  11.391 -1.2301  1.9759 -1.8937
14350TIP3    H264542   1.545   5.469  11.468  1.2421 -0.7926 -2.6369
14351TIP3   OH264543   6.812   6.634  11.940  0.1512  0.2723  0.0833
14351TIP3    H164544   6.852   6.716  11.968  1.1163  0.6149 -2.0383
14351TIP3    H264545   6.865   6.566  11.982  0.5719  0.7384  0.3270
14352TIP3   OH264546   2.510   4.919  12.962 -0.5423  0.2068  0.0939
14352TIP3    H164547   2.509   4.824  12.963 -3.2128  0.1728 -0.3577
14352TIP3    H264548   2.557   4.943  13.042 -1.1797 -1.5018  1.0322
14353TIP3   OH264549   6.446   5.312   3.404  0.1441 -0.0275  0.5982
14353TIP3    H164550   6.471   5.355   3.322 -0.9474 -0.0978  0.2127
14353TIP3    H264551   6.398   5.379   3.453  0.1183 -0.2230  0.8410
14354TIP3   OH264552   3.916   1.934   2.366 -0.5277  0.1565  0.1691
14354TIP3    H164553   3.830   1.929   2.325 -1.0878 -0.2858  1.3682
14354TIP3    H264554   3.941   2.027   2.358 -0.8651  0.1854 -0.6540
14355TIP3   OH264555   4.455   1.459  12.207 -0.0781 -0.5724 -0.2670
14355TIP3    H164556   4.467   1.461  12.302 -1.0972  0.9416 -0.1221
14355TIP3    H264557   4.467   1.550  12.180 -0.2124 -0.9168 -1.5415
14356TIP3   OH264558   2.577   4.152   4.732  0.4248 -0.4122 -0.4195
14356TIP3    H164559   2.591   4.207   4.809 -1.1758  0.4418 -0.6991
14356TIP3    H264560   2.626   4.072   4.750 -0.3846 -0.4659  1.7501
14357TIP3   OH264561   6.030   4.663  10.157 -0.0351  0.5508  0.2005
14357TIP3    H164562   6.108   4.693  10.205 -0.4146  0.4017  0.9337
14357TIP3    H264563   5.966   4.733  10.171 -0.6347 -0.1654  1.1752
14358TIP3   OH264564   4.334   3.729   0.410 -0.0062 -0.5117 -0.9659
14358TIP3    H164565   4.275   3.672   0.460 -0.8940  0.1703 -1.2148
14358TIP3    H264566   4.284   3.753   0.332  0.3559  0.6189 -0.8601
14359TIP3   OH264567   0.661   0.310   4.242  0.5109  0.4316 -0.1944
14359TIP3    H164568   0.641   0.369   4.170  0.0580  1.9276  1.0846
14359TIP3    H264569   0.602   0.236   4.230 -1.3736  1.8152 -0.0159
14360TIP3   OH264570   6.444   6.028  16.469 -0.0244 -0.4815 -0.0802
14360TIP3    H164571   6.492   5.950  16.442 -0.0055 -0.3371 -0.4623
14360TIP3    H264572   6.484   6.099  16.419 -0.3886 -0.3026 -0.1190
14361TIP3   OH264573   0.252   0.725   5.655 -0.6554 -0.2649 -0.0891
14361TIP3    H164574   0.165   0.688   5.664 -1.2607  1.2876  0.8875
14361TIP3    H264575   0.255   0.759   5.565 -1.2724  0.1454  0.0383
14362TIP3   OH264576   2.552   0.604  14.855  0.1197 -0.0272  0.2651
14362TIP3    H164577   2.527   0.515  14.833  0.8735 -0.2428  0.2615
14362TIP3    H264578   2.565   0.647  14.770  1.1003 -0.3079  0.2594
14363TIP3   OH264579   3.177   2.323   4.797 -0.0964  0.5738  0.4528
14363TIP3    H164580   3.259   2.365   4.771 -0.6578  0.9684 -0.7597
14363TIP3    H264581   3.111   2.361   4.739 -1.0072 -0.3225  0.8716
14364TIP3   OH264582   3.310   2.365   3.981 -0.5814 -0.5439 -0.5907
14364TIP3    H164583   3.296   2.298   3.915 -0.4081 -2.1925  0.9560
14364TIP3    H264584   3.372   2.326   4.042 -0.7049  0.9181  0.5403
14365TIP3   OH264585   2.728   0.515   6.916  0.0274 -0.5717  0.2016
14365TIP3    H164586   2.634   0.508   6.931 -0.0426  0.7725  0.5243
14365TIP3    H264587   2.761   0.426   6.925 -0.9929 -0.8295  1.6675
14366TIP3   OH264588   5.626   4.485   3.815 -1.0551  1.1280 -0.6629
14366TIP3    H164589   5.719   4.463   3.826 -1.3103  0.4754  0.3302
14366TIP3    H264590   5.598   4.511   3.903 -2.4559 -1.2578 -0.3322
14367TIP3   OH264591   0.152   1.470   5.619 -0.2193 -0.3135  0.1471
14367TIP3    H164592   0.143   1.395   5.678 -1.0948  1.1011  1.8857
14367TIP3    H264593   0.064   1.507   5.614 -0.2603 -0.5537 -2.3675
14368TIP3   OH264594   3.655   0.059   5.781  0.4947  0.2407 -0.2252
14368TIP3    H164595   3.606  -0.020   5.758 -0.9348  1.5879 -2.2847
14368TIP3    H264596   3.644   0.068   5.875 -1.9989 -0.3903 -0.3725
14369TIP3   OH264597   4.623   0.678   2.450  0.6005  0.1552  0.0671
14369TIP3    H164598   4.659   0.757   2.492  2.3277 -1.2181  1.3265
14369TIP3    H264599   4.573   0.634   2.519 -1.7793  0.8995 -1.0751
14370TIP3   OH264600   6.812   5.837  14.085  0.1034 -0.1056 -0.2028
14370TIP3    H164601   6.854   5.861  14.167 -0.6958 -2.7989  1.1294
14370TIP3    H264602   6.882   5.799  14.032  0.7653  2.2585 -1.1464
14371TIP3   OH264603   4.853   3.783   4.755 -0.0311  0.0236  0.5193
14371TIP3    H164604   4.806   3.832   4.823 -0.9464 -1.3851  0.9445
14371TIP3    H264605   4.865   3.847   4.684 -0.4592  1.0820  1.3676
14372TIP3   OH264606   1.555   2.093   4.533  0.1623 -0.4038 -0.3113
14372TIP3    H164607   1.472   2.058   4.564  0.8150 -0.8206  1.0866
14372TIP3    H264608   1.554   2.185   4.561  0.3696 -0.5392  0.1494
14373TIP3   OH264609   1.944   0.271  12.352  0.4948 -0.0971 -0.0330
14373TIP3    H164610   2.026   0.236  12.388 -0.0171 -2.1584 -0.7279
14373TIP3    H264611   1.888   0.195  12.342 -0.7930  0.9751 -1.4828
14374TIP3   OH264612   2.497   4.634   3.198 -0.5270 -0.2564 -0.0791
14374TIP3    H164613   2.482   4.551   3.153 -0.4477  0.3903 -1.3250
14374TIP3    H264614   2.582   4.622   3.241  0.3588 -0.2049 -1.7451
14375TIP3   OH264615   4.260   3.278  14.303  0.3882  0.1683  0.1723
14375TIP3    H164616   4.344   3.252  14.341  1.5055  0.4481 -1.9199
14375TIP3    H264617   4.278   3.363  14.262 -1.2676  0.8226  0.7281
14376TIP3   OH264618   3.351   4.058   0.773 -0.1314  0.5654  0.2812
14376TIP3    H164619   3.350   3.967   0.743  0.9666  1.0925 -1.5355
14376TIP3    H264620   3.439   4.070   0.808  0.2297  1.2969 -0.8249
14377TIP3   OH264621   6.009   3.015   0.518 -0.1852  0.0051 -0.5203
14377TIP3    H164622   6.009   2.942   0.580 -0.1288  0.7017  0.3121
14377TIP3    H264623   6.077   2.992   0.454 -0.3809 -0.8133 -0.4484
14378TIP3   OH264624   1.672   1.335  13.757  0.4186 -0.4150  0.6854
14378TIP3    H164625   1.620   1.276  13.701 -0.9438  0.4164  1.0243
14378TIP3    H264626   1.754   1.346  13.709 -1.0980  1.1576 -1.8174
14379TIP3   OH264627   3.711   2.328  11.727  0.0559  0.0891  0.0366
14379TIP3    H164628   3.623   2.351  11.755  0.0035  0.3618 -0.3324
14379TIP3    H264629   3.702   2.309  11.633  0.0948 -1.4924  0.3311
14380TIP3   OH264630   3.436   3.607  10.628 -0.3509  0.3260  0.1714
14380TIP3    H164631   3.461   3.545  10.696 -0.8292  0.9663  0.9482
14380TIP3    H264632   3.341   3.609  10.630 -0.3404  1.6315  0.6885
14381TIP3   OH264633   2.074   4.106  15.358  0.6113 -0.2328  0.2626
14381TIP3    H164634   2.092   4.023  15.314  0.9635  0.3952 -0.8214
14381TIP3    H264635   2.001   4.144  15.310  0.9945  0.4609  0.2125
14382TIP3   OH264636   6.214   4.672  12.624 -0.7415  0.2088  0.6490
14382TIP3    H164637   6.241   4.596  12.572 -0.8042  0.6689 -0.0676
14382TIP3    H264638   6.138   4.641  12.674 -1.6860  0.2070 -0.7406
14383TIP3   OH264639   3.386   2.541  11.635  0.0638 -0.5681 -0.2384
14383TIP3    H164640   3.476   2.565  11.656 -0.6955  1.0777  1.4069
14383TIP3    H264641   3.371   2.576  11.547  0.5797  0.5339  0.0934
14384TIP3   OH264642   2.251   6.288  14.908  0.2037 -0.5405  0.2267
14384TIP3    H164643   2.324   6.225  14.908  0.5716 -0.1242  0.6141
14384TIP3    H264644   2.270   6.347  14.835  0.9948  0.3866  1.1432
14385TIP3   OH264645   6.626   3.795   1.526 -0.2919  0.7234  0.4965
14385TIP3    H164646   6.680   3.824   1.452 -0.9759  1.7138  0.3784
14385TIP3    H264647   6.690   3.770   1.593  0.3406 -0.2266 -0.4221
14386TIP3   OH264648   2.235   4.482  12.475  0.8401 -0.3775 -0.0956
14386TIP3    H164649   2.204   4.391  12.477 -1.3391  0.3046 -0.8450
14386TIP3    H264650   2.253   4.499  12.382 -1.2089  0.6956 -0.3405
14387TIP3   OH264651   0.454   0.341  16.022  0.3644 -0.0020 -0.0508
14387TIP3    H164652   0.420   0.259  16.056  0.7923 -0.2626 -0.2519
14387TIP3    H264653   0.531   0.317  15.971  1.3313  0.6458  1.0373
14388TIP3   OH264654   2.486   4.871  12.612 -0.0613  0.0438 -0.0908
14388TIP3    H164655   2.394   4.864  12.635 -0.1725  0.8933 -0.2662
14388TIP3    H264656   2.533   4.862  12.695 -0.3283  0.2224  0.0791
14389TIP3   OH264657   5.534   5.483   3.010  0.4177  0.0557  0.2879
14389TIP3    H164658   5.603   5.503   3.073  0.4878 -0.6053  0.4283
14389TIP3    H264659   5.483   5.564   3.004  1.2910  0.6080  0.0564
14390TIP3   OH264660   4.275   6.717  14.503  0.4549  0.5526 -0.2358
14390TIP3    H164661   4.370   6.719  14.492  0.3597  0.5686 -1.0627
14390TIP3    H264662   4.263   6.705  14.597  1.2731 -1.1523 -0.3253
14391TIP3   OH264663   5.541   0.686   3.519 -0.2666  0.4931  0.1854
14391TIP3    H164664   5.478   0.706   3.589 -0.1162 -1.4653  0.9397
14391TIP3    H264665   5.625   0.718   3.553 -0.5153  1.4017 -0.0138
14392TIP3   OH264666   1.616   0.097   2.611 -0.0997  0.6957 -0.4242
14392TIP3    H164667   1.551   0.030   2.635  2.4699 -2.5568 -1.8231
14392TIP3    H264668   1.588   0.127   2.524 -1.2961  1.5781  0.2326
14393TIP3   OH264669   0.119   4.149  13.155 -0.1610  0.2129  0.1092
14393TIP3    H164670   0.215   4.147  13.159 -0.1895  0.1221  2.4164
14393TIP3    H264671   0.096   4.237  13.185 -0.7945 -0.8829  3.1957
14394TIP3   OH264672   5.106   4.740  13.094 -0.6624 -0.1102  0.1675
14394TIP3    H164673   5.076   4.772  13.009 -1.6311  0.5163  0.7277
14394TIP3    H264674   5.123   4.819  13.146 -0.4207 -0.4852  0.6740
14395TIP3   OH264675   0.743   2.355   2.601  0.8844 -0.0485  0.3319
14395TIP3    H164676   0.763   2.290   2.533 -0.2282 -0.4397  0.3457
14395TIP3    H264677   0.825   2.368   2.648  1.2794 -0.9696 -0.0833
14396TIP3   OH264678   6.285   0.953  11.890 -0.1324 -0.7586 -0.4554
14396TIP3    H164679   6.285   0.869  11.935  0.6460  0.5992  2.2482
14396TIP3    H264680   6.193   0.978  11.885 -0.1887 -0.5015  1.3363
14397TIP3   OH264681   6.674   5.979  11.349 -0.8076  0.6625  0.0770
14397TIP3    H164682   6.672   6.020  11.262  0.9116  1.9586  0.5943
14397TIP3    H264683   6.607   6.026  11.399 -0.7930  0.9165 -0.1365
14398TIP3   OH264684   5.160   2.114  15.311 -0.3638 -0.5766 -0.0108
14398TIP3    H164685   5.106   2.068  15.376 -0.4716 -0.8269 -0.2775
14398TIP3    H264686   5.097   2.143  15.245 -0.1130 -1.2965 -0.5769
14399TIP3   OH264687   1.002   0.384   5.467  0.4411 -0.4063  0.1869
14399TIP3    H164688   0.982   0.332   5.389 -1.3897 -0.4657  0.6434
14399TIP3    H264689   1.076   0.340   5.507  1.0638 -0.6985 -1.2184
14400TIP3   OH264690   4.440   2.688   2.682 -0.3790 -0.4348  0.5473
14400TIP3    H164691   4.448   2.751   2.754 -0.8453 -0.8580  0.9764
14400TIP3    H264692   4.530   2.660   2.665 -0.1091  0.7077  0.0135
14401TIP3   OH264693   0.509   6.276  14.520  0.0563 -0.3059 -0.1419
14401TIP3    H164694   0.542   6.227  14.596  0.8029  1.0685  0.4580
14401TIP3    H264695   0.586   6.321  14.486 -0.1788 -1.2437 -2.0155
14402TIP3   OH264696   6.805   0.119  16.321  0.3034 -0.1004  0.8144
14402TIP3    H164697   6.888   0.122  16.367 -0.0529  1.9499  1.4066
14402TIP3    H264698   6.826   0.143  16.231  0.7054 -2.2621  0.2601
14403TIP3   OH264699   6.290   1.068   0.760  0.4780 -0.1130  0.2599
14403TIP3    H164700   6.260   0.985   0.723  1.5331 -0.5632  0.3825
14403TIP3    H264701   6.297   1.127   0.684 -2.3479  0.5812  0.4105
14404TIP3   OH264702   4.657   1.579  12.771  0.7959  0.3931  0.2297
14404TIP3    H164703   4.564   1.588  12.750  0.8860  0.0365 -0.3355
14404TIP3    H264704   4.693   1.667  12.756  0.6794  0.3663 -0.2343
14405TIP3   OH264705   2.772   4.462   6.908  0.2179 -0.6025 -0.5011
14405TIP3    H164706   2.774   4.394   6.840  1.8702 -1.1452  0.0457
14405TIP3    H264707   2.856   4.508   6.899  0.2314 -0.3260  0.8104
14406TIP3   OH264708   4.743   4.081  14.464 -0.0755 -0.5681 -0.2160
14406TIP3    H164709   4.750   3.986  14.468 -2.2311 -0.7393  0.7057
14406TIP3    H264710   4.698   4.106  14.545 -1.2293  1.0397 -1.2776
14407TIP3   OH264711   4.494   2.677  14.498  0.4550 -0.3507  0.6590
14407TIP3    H164712   4.471   2.737  14.569 -1.4244 -1.0979  0.7267
14407TIP3    H264713   4.503   2.592  14.541  0.6017 -0.5785  0.1785
14408TIP3   OH264714   6.689   3.090   0.423  0.0359 -0.5814  0.0227
14408TIP3    H164715   6.741   3.171   0.426  0.7952 -1.0082 -0.9771
14408TIP3    H264716   6.681   3.071   0.330 -2.8580  0.0274  0.0610
14409TIP3   OH264717   2.280   0.937   4.986  0.1529  0.4013  0.6952
14409TIP3    H164718   2.216   0.929   5.057  0.7720 -1.4495  1.1110
14409TIP3    H264719   2.229   0.964   4.910 -0.7382  1.1273  1.5275
14410TIP3   OH264720   2.928   2.115  16.224  0.2971  0.0983 -0.2894
14410TIP3    H164721   2.887   2.070  16.149  0.2436  0.3654 -0.4213
14410TIP3    H264722   2.993   2.172  16.184  0.8140 -0.3337 -0.0805
14411TIP3   OH264723   2.354   4.842  16.277 -0.4269 -0.5419 -0.2077
14411TIP3    H164724   2.367   4.863  16.369  2.8141  0.7345 -0.8250
14411TIP3    H264725   2.295   4.910  16.244 -1.9959 -1.2791  0.9131
14412TIP3   OH264726   5.516   0.981  15.817 -0.4238  0.1000 -0.1119
14412TIP3    H164727   5.514   0.889  15.792  0.5040  0.0654 -0.0909
14412TIP3    H264728   5.542   0.981  15.909  1.8847  0.4460 -0.7024
14413TIP3   OH264729   5.383   4.696  16.239  0.1707 -0.1027  0.4490
14413TIP3    H164730   5.289   4.713  16.230 -0.0139 -0.4555  1.5509
14413TIP3    H264731   5.390   4.644  16.319  1.3956  0.7332  0.9160
14414TIP3   OH264732   6.578   6.582  13.881  0.5984  0.8790  0.7789
14414TIP3    H164733   6.552   6.617  13.966 -0.6754 -0.4310  0.9625
14414TIP3    H264734   6.570   6.487  13.890  2.9077  0.5194 -0.0233
14415TIP3   OH264735   0.702   5.565   3.320  0.0158 -0.4056 -0.1917
14415TIP3    H164736   0.688   5.482   3.273  0.2087  0.2904 -1.5251
14415TIP3    H264737   0.739   5.624   3.254 -1.0759  1.0653  0.4621
14416TIP3   OH264738   2.059   1.572  17.119 -0.0635  0.0579  0.3461
14416TIP3    H164739   2.150   1.598  17.103 -0.4295  0.5690 -1.0541
14416TIP3    H264740   2.052   1.484  17.081 -0.5743  0.7073 -1.1222
14417TIP3   OH264741   2.691   3.172  14.506 -0.1420 -0.5056 -0.0610
14417TIP3    H164742   2.778   3.176  14.547  0.2270 -0.0184 -0.8626
14417TIP3    H264743   2.647   3.099  14.551 -0.5862  1.3100  2.7497
14418TIP3   OH264744   3.992   2.777  17.135  0.1072  0.1363 -0.2476
14418TIP3    H164745   3.988   2.829  17.055 -1.0835  2.3226  1.1572
14418TIP3    H264746   3.927   2.708  17.122  0.1106  0.3185 -1.2645
14419TIP3   OH264747   5.647   1.923   2.533  0.2852  0.5636 -0.5483
14419TIP3    H164748   5.651   1.962   2.621 -1.8945 -0.4421  0.0716
14419TIP3    H264749   5.680   1.834   2.545  0.4305  0.5782 -0.8417
14420TIP3   OH264750   1.562   4.778  14.899 -0.2035  0.2941 -0.2501
14420TIP3    H164751   1.549   4.775  14.994  0.2707  1.5538 -0.1286
14420TIP3    H264752   1.654   4.754  14.886 -1.2967 -4.8576 -0.8322
14421TIP3   OH264753   2.162   0.549  16.226  0.0287  0.0578 -0.1766
14421TIP3    H164754   2.188   0.486  16.293 -1.5318  0.0284  0.4395
14421TIP3    H264755   2.088   0.596  16.265  0.2777  1.3207 -1.1669
14422TIP3   OH264756   3.210   0.358   4.139 -0.8706  0.1869  0.4530
14422TIP3    H164757   3.123   0.341   4.102 -0.8897 -1.2390  1.0864
14422TIP3    H264758   3.225   0.451   4.123 -1.9953  0.1904 -0.7490
14423TIP3   OH264759   2.837   0.311   0.070  0.4052 -0.1079 -0.4219
14423TIP3    H164760   2.905   0.270   0.016  0.6205  0.6637 -0.7432
14423TIP3    H264761   2.756   0.296   0.023  0.5500  0.2683 -0.7969
14424TIP3   OH264762   3.503   4.789  15.420 -0.0288 -0.8057 -0.3626
14424TIP3    H164763   3.551   4.713  15.454 -1.0854 -0.9308  0.9138
14424TIP3    H264764   3.506   4.778  15.325  0.0412 -2.3401 -0.2063
14425TIP3   OH264765   3.892   4.648  14.732 -0.0187 -0.0565 -0.0320
14425TIP3    H164766   3.858   4.729  14.693 -1.1978 -0.3868  0.2875
14425TIP3    H264767   3.816   4.607  14.772  0.8678 -0.5576  1.1736
14426TIP3   OH264768   3.996   3.668   4.882  0.2700 -0.0811  0.3496
14426TIP3    H164769   4.092   3.666   4.890  0.4806  0.4404 -1.6059
14426TIP3    H264770   3.968   3.729   4.950  1.6372  2.3010 -1.1081
14427TIP3   OH264771   2.684   4.029  16.436 -0.3429  0.5264 -0.9135
14427TIP3    H164772   2.765   4.076  16.413  0.0729 -0.2127 -0.9847
14427TIP3    H264773   2.664   4.060  16.524  0.3996  0.2208 -0.6250
14428TIP3   OH264774   3.641   3.619  11.770 -0.1897 -0.3131 -0.1261
14428TIP3    H164775   3.691   3.677  11.828 -2.2855  4.2154 -2.3159
14428TIP3    H264776   3.697   3.605  11.695 -0.0093 -0.3244  0.0101
14429TIP3   OH264777   6.668   3.522  16.174  0.0830 -0.1678 -0.7758
14429TIP3    H164778   6.582   3.554  16.149 -0.6135 -1.9379 -0.7681
14429TIP3    H264779   6.660   3.426  16.174  2.2294 -0.4203 -1.4709
14430TIP3   OH264780   1.353   2.500  12.481 -0.5786 -0.0281 -0.2529
14430TIP3    H164781   1.274   2.451  12.459 -0.3915 -0.2499 -0.4295
14430TIP3    H264782   1.416   2.434  12.509 -0.5865  0.1860  0.2866
14431TIP3   OH264783   4.459   2.982   5.334  0.2556 -0.4734 -0.8613
14431TIP3    H164784   4.469   3.077   5.322  2.4790 -0.0731  2.5529
14431TIP3    H264785   4.371   2.963   5.303 -0.5093  2.8603 -1.1226
14432TIP3   OH264786   0.275   4.021   1.967 -0.7317 -0.4948  0.4795
14432TIP3    H164787   0.361   4.064   1.973 -0.2501 -1.5955  2.0217
14432TIP3    H264788   0.242   4.047   1.881  1.1874 -0.0953 -0.2039
14433TIP3   OH264789   6.147   4.010  14.083 -0.0905  0.1261 -0.2230
14433TIP3    H164790   6.240   3.994  14.099 -0.1877 -0.0199  0.2085
14433TIP3    H264791   6.129   4.094  14.124 -0.1067  0.2462 -0.4729
14434TIP3   OH264792   2.402   4.339   0.304 -0.2222  0.4403 -0.7863
14434TIP3    H164793   2.359   4.341   0.390  2.2428  0.0116  0.5412
14434TIP3    H264794   2.371   4.419   0.261  1.4094  2.8968  2.1187
14435TIP3   OH264795   1.780   0.030  13.535 -0.5104 -0.5400  0.2530
14435TIP3    H164796   1.711   0.062  13.593 -0.6349  0.1733 -0.2796
14435TIP3    H264797   1.855   0.017  13.593 -1.7645 -3.9265  1.3860
14436TIP3   OH264798   6.035   0.497  11.956 -0.4091 -0.1165 -0.3478
14436TIP3    H164799   6.041   0.421  11.898  0.5918 -0.2296 -0.1045
14436TIP3    H264800   5.990   0.563  11.903  0.1132 -0.3608 -1.1152
14437TIP3   OH264801   3.833   1.832   0.317  0.0570 -0.0804 -0.1777
14437TIP3    H164802   3.792   1.790   0.392 -1.5784  0.7213 -0.5807
14437TIP3    H264803   3.803   1.922   0.319  2.5488  0.8436 -0.0189
14438TIP3   OH264804   6.496   6.313   1.332 -0.2794  0.0273  0.4052
14438TIP3    H164805   6.570   6.358   1.292  0.4408 -0.3076  1.3047
14438TIP3    H264806   6.488   6.353   1.419 -0.6226 -0.5117  0.6291
14439TIP3   OH264807   3.268   3.199  14.402 -0.0547  0.2346 -0.2078
14439TIP3    H164808   3.175   3.204  14.379 -0.0751  0.6053 -0.0436
14439TIP3    H264809   3.311   3.261  14.343  0.1040 -0.0114 -0.3558
14440TIP3   OH264810   1.199   5.117   5.974  0.0531 -0.4562 -0.0792
14440TIP3    H164811   1.255   5.182   6.016 -2.9100  0.8432  2.2102
14440TIP3    H264812   1.220   5.035   6.018  1.7004 -0.5033 -0.8881
14441TIP3   OH264813   2.515   4.144  13.620 -0.5598  0.1724 -0.6664
14441TIP3    H164814   2.559   4.215  13.667  0.2517  0.2835 -1.5464
14441TIP3    H264815   2.544   4.064  13.664 -1.9027  0.3797  0.6714
14442TIP3   OH264816   0.088   0.899  13.662 -0.6412  0.6257  0.2498
14442TIP3    H164817   0.021   0.832  13.675 -0.5623  0.0921 -1.7419
14442TIP3    H264818   0.162   0.853  13.622  1.1350  1.1349  2.6971
14443TIP3   OH264819   1.033   5.828   5.405  0.8471  0.5135 -0.0774
14443TIP3    H164820   0.991   5.914   5.405 -0.0507  0.0807 -0.8038
14443TIP3    H264821   1.076   5.823   5.320  0.8814  0.2278 -0.0415
14444TIP3   OH264822   0.539   1.811   3.005  0.7033 -0.3692  0.1667
14444TIP3    H164823   0.480   1.756   3.056  2.2963 -1.9772  0.3568
14444TIP3    H264824   0.587   1.862   3.070 -0.6117  1.1795  0.0001
14445TIP3   OH264825   2.926   5.910   2.675 -0.3908  0.1892 -0.2281
14445TIP3    H164826   2.876   5.903   2.594 -0.1554  0.5699 -0.4115
14445TIP3    H264827   2.862   5.941   2.740 -1.0061 -1.8223  0.1736
14446TIP3   OH264828   3.990   2.216   2.321 -0.1339 -0.1630 -0.7510
14446TIP3    H164829   3.985   2.298   2.371 -0.8967 -0.7377  0.1615
14446TIP3    H264830   4.083   2.196   2.315 -0.0333 -1.0370  2.1402
14447TIP3   OH264831   2.842   0.610   6.531  0.6196 -0.0495 -0.1068
14447TIP3    H164832   2.753   0.629   6.500  0.2043  0.3427  1.2509
14447TIP3    H264833   2.849   0.658   6.614  1.2117 -2.0402  1.0653
14448TIP3   OH264834   0.649   6.311  16.255 -0.2097  0.2506  0.0170
14448TIP3    H164835   0.716   6.353  16.203 -0.6049 -0.8648 -1.4760
14448TIP3    H264836   0.697   6.250  16.311  0.0477 -0.6014 -1.0987
14449TIP3   OH264837   0.846   0.262   0.171  0.2342 -0.5304 -0.2872
14449TIP3    H164838   0.844   0.205   0.093 -0.2477  0.1404 -0.7735
14449TIP3    H264839   0.787   0.334   0.149  2.6299  1.4405 -0.6691
14450TIP3   OH264840   5.788   6.123   4.697  0.1000  0.1821 -0.2110
14450TIP3    H164841   5.794   6.082   4.783 -1.9204 -1.0779 -0.5985
14450TIP3    H264842   5.775   6.050   4.637  3.0931  0.8736 -1.8681
14451TIP3   OH264843   2.557   1.506  12.571 -0.0896 -0.3430 -0.0547
14451TIP3    H164844   2.621   1.476  12.636  0.4460  0.4567 -0.1955
14451TIP3    H264845   2.537   1.428  12.519 -0.4598 -0.9746  1.0093
14452TIP3   OH264846   2.635   0.454   0.863 -0.2489 -0.1899 -0.7025
14452TIP3    H164847   2.555   0.504   0.880 -0.3625 -0.9846  1.2944
14452TIP3    H264848   2.676   0.500   0.790 -0.1111  3.2029  1.2890
14453TIP3   OH264849   1.329   5.678  14.695  0.4200  0.1128 -0.1271
14453TIP3    H164850   1.340   5.664  14.601 -1.1118 -0.1019 -0.3096
14453TIP3    H264851   1.234   5.676  14.708  0.6442 -1.9854  1.7513
14454TIP3   OH264852   3.742   2.101   4.305  0.5954 -0.3458 -0.5199
14454TIP3    H164853   3.788   2.174   4.348  0.8419 -0.8117  0.0266
14454TIP3    H264854   3.770   2.106   4.214  1.1666 -0.1804 -0.3415
14455TIP3   OH264855   0.805   1.747  15.728  0.3421 -0.4454 -0.2467
14455TIP3    H164856   0.889   1.748  15.683  0.4908  0.5315  0.0304
14455TIP3    H264857   0.785   1.839  15.744 -0.1780 -0.7255  0.8048
14456TIP3   OH264858   4.514   0.326   1.619 -0.3176 -0.1287  0.0884
14456TIP3    H164859   4.562   0.353   1.697  1.6419 -0.7632 -0.8130
14456TIP3    H264860   4.477   0.241   1.642 -1.6737  0.6821  1.0332
14457TIP3   OH264861   0.047   4.258   3.336  0.2596 -0.2312 -0.0451
14457TIP3    H164862   0.142   4.245   3.341  0.2458 -1.8184 -2.3136
14457TIP3    H264863   0.036   4.349   3.310  1.1632 -0.1146 -0.0541
14458TIP3   OH264864   0.429   0.525  14.908 -0.1709 -0.2713 -0.7031
14458TIP3    H164865   0.501   0.499  14.966  0.5932  0.3230 -1.3634
14458TIP3    H264866   0.432   0.620  14.907 -1.9281 -0.1528  0.4246
14459TIP3   OH264867   6.645   4.809  10.553  0.0945 -0.6177  0.1773
14459TIP3    H164868   6.563   4.858  10.551 -0.4181 -1.3453  1.9590
14459TIP3    H264869   6.618   4.718  10.561  1.0732 -0.8958  0.3995
14460TIP3   OH264870   4.368   5.057   4.522 -0.2410  0.1582 -0.3288
14460TIP3    H164871   4.395   5.065   4.614  0.8476 -1.4945 -0.4681
14460TIP3    H264872   4.278   5.025   4.526 -0.1976  0.0896  0.1669
14461TIP3   OH264873   6.648   5.743  11.654 -0.0668  0.0378  0.1188
14461TIP3    H164874   6.589   5.727  11.728  1.7449  1.4812  1.9656
14461TIP3    H264875   6.656   5.658  11.612 -1.9469 -0.6111  0.9377
14462TIP3   OH264876   1.159   3.911  14.167 -0.1444 -0.5322 -0.0875
14462TIP3    H164877   1.072   3.913  14.127  0.6089 -1.2311 -1.8793
14462TIP3    H264878   1.148   3.957  14.250 -2.0285  0.1518 -0.6530
14463TIP3   OH264879   0.182   1.252   2.275 -0.1937 -0.2063 -0.2525
14463TIP3    H164880   0.104   1.302   2.251  0.2222  0.2829 -0.6198
14463TIP3    H264881   0.188   1.262   2.370 -0.1575  0.3794 -0.3150
14464TIP3   OH264882   1.468   3.556   4.695  0.2639 -0.0938 -0.1624
14464TIP3    H164883   1.401   3.590   4.636  0.7756  0.2202 -0.5701
14464TIP3    H264884   1.535   3.521   4.637 -0.1731 -1.6763  0.2468
14465TIP3   OH264885   6.696   3.042   1.474 -0.1769  0.0248 -0.4088
14465TIP3    H164886   6.610   3.060   1.514 -0.9892  0.0974 -2.0952
14465TIP3    H264887   6.721   2.957   1.509 -0.3763  0.5255  1.0119
14466TIP3   OH264888   5.008   6.291   5.624  0.0771  0.5592 -0.2490
14466TIP3    H164889   5.043   6.271   5.711 -1.1993  1.2584  0.4603
14466TIP3    H264890   4.998   6.206   5.582  0.2683  0.1727  0.4761
14467TIP3   OH264891   4.566   6.379   1.926  0.1292 -0.1340 -0.0685
14467TIP3    H164892   4.545   6.294   1.966  0.3032  0.1976  0.7532
14467TIP3    H264893   4.629   6.418   1.987 -0.2096  0.7332 -0.2699
14468TIP3   OH264894   4.305   1.217   1.946 -0.1951  0.4496 -0.8349
14468TIP3    H164895   4.327   1.271   1.870 -1.6797  1.2207 -0.7475
14468TIP3    H264896   4.239   1.156   1.914 -1.7385  1.5702  0.0745
14469TIP3   OH264897   5.896   2.457  16.424 -0.6290  0.1343  0.5611
14469TIP3    H164898   5.950   2.534  16.441 -0.1125  0.0523 -0.6016
14469TIP3    H264899   5.806   2.489  16.428 -0.4844  0.4371  1.7432
14470TIP3   OH264900   0.955   0.868   2.339 -0.1873  0.0675 -0.7429
14470TIP3    H164901   1.005   0.949   2.351 -2.4323  1.4603 -0.2219
14470TIP3    H264902   0.948   0.832   2.427 -1.6475  0.9078 -0.4769
14471TIP3   OH264903   4.216   3.593   5.052 -0.2455  0.3586 -0.4790
14471TIP3    H164904   4.299   3.576   5.006  0.8355  3.0962  0.2383
14471TIP3    H264905   4.240   3.592   5.144 -1.3962 -0.4060 -0.1737
14472TIP3   OH264906   1.546   5.313   0.876  0.1366 -0.7255 -0.3392
14472TIP3    H164907   1.639   5.299   0.856  0.1255 -0.3986 -0.6275
14472TIP3    H264908   1.513   5.363   0.801  0.4974  2.0986  1.2351
14473TIP3   OH264909   3.770   5.836   5.244 -0.0316  0.2845 -0.5827
14473TIP3    H164910   3.854   5.796   5.221  0.1828  0.4013 -0.0322
14473TIP3    H264911   3.792   5.895   5.317 -0.6637  0.0096 -0.1642
14474TIP3   OH264912   2.190   4.623   2.296  0.1782  0.3745  0.0483
14474TIP3    H164913   2.106   4.580   2.281 -0.3071  1.6869 -1.2794
14474TIP3    H264914   2.252   4.575   2.241 -0.1297  0.6050 -0.5194
14475TIP3   OH264915   3.670   6.461   2.195 -0.0985  0.1958  0.7078
14475TIP3    H164916   3.751   6.507   2.217  0.2928 -0.3582  0.4627
14475TIP3    H264917   3.672   6.454   2.099 -0.7640  0.7618  0.6448
14476TIP3   OH264918   2.127   4.366  16.642 -0.0340  0.1290  0.5275
14476TIP3    H164919   2.044   4.334  16.607 -0.6798  0.5140  1.6949
14476TIP3    H264920   2.181   4.287  16.648 -1.2814 -0.6433  2.4461
14477TIP3   OH264921   1.393   1.050  15.712  0.0030  0.0432 -0.0016
14477TIP3    H164922   1.379   0.956  15.718  1.9755 -0.2732  0.3319
14477TIP3    H264923   1.487   1.062  15.726 -0.2814  2.1161  0.6289
14478TIP3   OH264924   5.051   0.059   2.965 -0.4331 -0.1125 -0.0836
14478TIP3    H164925   4.996   0.100   3.032 -0.5421  1.4627 -1.0578
14478TIP3    H264926   5.119   0.013   3.013  0.1635  1.9174  1.1468
14479TIP3   OH264927   6.655   0.549   0.092 -0.2507 -0.2740 -0.5823
14479TIP3    H164928   6.569   0.557   0.132  0.2716  1.7283  0.2422
14479TIP3    H264929   6.639   0.506   0.007 -2.1637  0.8163 -0.8135
14480TIP3   OH264930   0.248   2.457  11.347 -0.1907 -0.4391  0.0056
14480TIP3    H164931   0.288   2.435  11.263 -1.5627  0.1619 -0.8490
14480TIP3    H264932   0.182   2.388  11.361  0.7625 -1.1604  1.1607
14481TIP3   OH264933   4.716   6.148  16.492 -0.9005  0.0504 -0.2655
14481TIP3    H164934   4.648   6.144  16.560 -0.6608  2.9363  0.2475
14481TIP3    H264935   4.788   6.195  16.533  0.1029  0.0135 -1.8987
14482TIP3   OH264936   3.663   0.144   5.430  0.1424  0.8687 -0.4833
14482TIP3    H164937   3.672   0.237   5.449  1.0623  0.7651 -0.3571
14482TIP3    H264938   3.594   0.114   5.489 -1.7333  1.9039 -2.0790
14483TIP3   OH264939   5.908   3.718   1.928  0.4684 -0.2534  0.3846
14483TIP3    H164940   6.000   3.742   1.936  0.0525  1.9931 -0.7927
14483TIP3    H264941   5.861   3.791   1.968 -0.8409 -2.0563  2.3912
14484TIP3   OH264942   4.510   1.504  16.396  0.3713  0.0327  0.0032
14484TIP3    H164943   4.452   1.474  16.326 -0.1787  0.0313  0.4473
14484TIP3    H264944   4.451   1.551  16.456  1.0190  1.0098 -0.1106
14485TIP3   OH264945   2.644   4.451  14.366 -0.6659  0.0118  0.1318
14485TIP3    H164946   2.606   4.535  14.392  0.3423 -0.1174  2.1819
14485TIP3    H264947   2.714   4.475  14.305 -0.0095  0.7431  1.1289
14486TIP3   OH264948   6.482   2.808   4.472 -0.4834 -0.0628  0.2050
14486TIP3    H164949   6.427   2.880   4.501  0.2179  1.2144 -1.4889
14486TIP3    H264950   6.490   2.820   4.377  1.4147 -1.1052  0.1826
14487TIP3   OH264951   4.017   2.631  11.095  0.1069  0.1297  0.7357
14487TIP3    H164952   4.056   2.662  11.013  0.2740 -1.7775  0.0457
14487TIP3    H264953   3.945   2.574  11.067  0.3590 -0.8033  1.8857
14488TIP3   OH264954   0.285   1.365   3.838  0.0194 -0.4150  0.2530
14488TIP3    H164955   0.310   1.457   3.837  0.4053 -0.5179  0.1043
14488TIP3    H264956   0.245   1.352   3.924  0.9381 -0.3594  0.7042
14489TIP3   OH264957   6.477   5.447   2.297 -0.6903 -0.1553 -0.0864
14489TIP3    H164958   6.382   5.443   2.297 -0.7205  0.4859 -0.2823
14489TIP3    H264959   6.505   5.362   2.262 -1.1705 -0.5823  0.5414
14490TIP3   OH264960   0.738   2.604   4.796 -0.3533 -0.2494 -0.1670
14490TIP3    H164961   0.817   2.619   4.849  1.4600  1.4309 -3.0696
14490TIP3    H264962   0.769   2.610   4.706 -3.7992  0.0746 -1.4551
14491TIP3   OH264963   3.831   3.226   2.683 -0.4138 -0.3587 -0.1091
14491TIP3    H164964   3.736   3.233   2.695 -0.3519  0.5361 -0.0344
14491TIP3    H264965   3.867   3.264   2.763  0.0025  0.1447 -0.5309
14492TIP3   OH264966   3.852   1.580   4.220  0.1523  0.1549 -0.0175
14492TIP3    H164967   3.811   1.494   4.219 -0.1897  0.3023  1.0030
14492TIP3    H264968   3.863   1.602   4.127  0.9354 -1.3070 -0.3022
14493TIP3   OH264969   0.591   5.676   1.351 -0.5397 -0.2652  0.0604
14493TIP3    H164970   0.570   5.713   1.265  0.9654 -0.9798 -0.6687
14493TIP3    H264971   0.583   5.581   1.339  0.9892 -0.4481  0.2846
14494TIP3   OH264972   6.238   5.908   4.379  0.4281 -0.1190  0.4984
14494TIP3    H164973   6.309   5.850   4.404  1.4414  0.0060 -1.8304
14494TIP3    H264974   6.278   5.995   4.374  0.0805 -0.0150 -0.6391
14495TIP3   OH264975   0.569   1.617   2.162  0.4865  0.4851 -0.0335
14495TIP3    H164976   0.562   1.524   2.144  0.0358  0.5454 -0.1699
14495TIP3    H264977   0.480   1.650   2.155  0.3644  0.6219  1.7327
14496TIP3   OH264978   2.524   2.100  12.939 -0.4092 -0.6183 -0.0027
14496TIP3    H164979   2.510   2.008  12.918  1.4086 -0.7632 -0.8013
14496TIP3    H264980   2.530   2.101  13.035 -0.1438 -1.3893 -0.0003
14497TIP3   OH264981   6.194   2.019   4.868  0.1378  0.5370 -0.5163
14497TIP3    H164982   6.101   2.034   4.848  0.3170  1.0773 -0.9671
14497TIP3    H264983   6.212   1.931   4.836 -0.4753  0.0136  0.5109
14498TIP3   OH264984   6.431   5.500   1.176  0.2154  0.1604  0.0491
14498TIP3    H164985   6.360   5.452   1.217  0.3026  0.2848  0.3487
14498TIP3    H264986   6.399   5.519   1.088  0.2448 -0.5878 -0.1337
14499TIP3   OH264987   1.513   2.689   4.073 -0.5843  0.5343 -0.0240
14499TIP3    H164988   1.472   2.710   3.989  0.8385  0.5002 -0.7507
14499TIP3    H264989   1.589   2.746   4.079  0.0203 -0.3077  0.6809
14500TIP3   OH264990   3.004   0.179   4.679  0.2529  0.3002  0.4992
14500TIP3    H164991   3.024   0.270   4.697  3.8372 -0.4156  0.8921
14500TIP3    H264992   2.983   0.177   4.585 -0.1483  1.5392  0.5526
14501TIP3   OH264993   1.037   3.400   5.974  0.1736 -0.2562  0.0368
14501TIP3    H164994   1.125   3.372   5.997 -0.0500 -0.5217  0.5911
14501TIP3    H264995   1.020   3.476   6.029  0.1397 -0.0713 -0.2282
14502TIP3   OH264996   0.515   1.001   6.387  0.1342  0.3397 -0.7194
14502TIP3    H164997   0.455   1.064   6.428  0.4736 -0.6103  1.3596
14502TIP3    H264998   0.602   1.026   6.418  0.5506  0.2487 -1.7778
14503TIP3   OH264999   6.053   2.995   4.368  0.0631 -0.5714  0.1073
14503TIP3    H165000   5.959   2.986   4.357 -0.3016  1.7871  0.7536
14503TIP3    H265001   6.075   3.075   4.320  1.6239 -0.6692  0.6012
14504TIP3   OH265002   1.783   0.085  12.247 -0.7214 -0.2161  0.3115
14504TIP3    H165003   1.704   0.068  12.298  0.3068 -1.0626  1.6754
14504TIP3    H265004   1.752   0.137  12.173 -2.4271  0.2021  1.2528
14505TIP3   OH265005   3.281   2.631  15.246  0.5783 -0.0546 -0.0315
14505TIP3    H165006   3.233   2.561  15.202 -0.1450  0.4429 -0.0545
14505TIP3    H265007   3.220   2.705  15.248  1.3674  0.6226 -0.1203
14506TIP3   OH265008   0.521   4.517  10.120  0.3026  0.7686 -0.1187
14506TIP3    H165009   0.556   4.506  10.208 -1.2966  1.4392  0.6318
14506TIP3    H265010   0.444   4.460  10.118  0.4386  0.5950 -1.1758
14507TIP3   OH265011   0.478   0.248  15.263 -0.6508 -0.8838 -0.5476
14507TIP3    H165012   0.562   0.243  15.218 -0.8458  0.6419 -1.1250
14507TIP3    H265013   0.452   0.340  15.257 -1.9800 -1.1654  0.3280
14508TIP3   OH265014   4.178   0.816   1.183  0.5658  0.1316  0.6526
14508TIP3    H165015   4.130   0.865   1.250 -0.0643  0.4639 -0.0252
14508TIP3    H265016   4.140   0.846   1.100 -0.3293 -1.9842  0.2137
14509TIP3   OH265017   0.662   3.414   0.958  0.1560 -0.4916 -0.0368
14509TIP3    H165018   0.614   3.350   1.010 -2.5325  1.1147 -0.3825
14509TIP3    H265019   0.690   3.480   1.021 -0.4818 -0.0492 -0.2165
14510TIP3   OH265020   4.873   4.449  16.282  0.5406 -0.1775  0.3407
14510TIP3    H165021   4.799   4.506  16.262 -0.7156 -1.4193  1.2486
14510TIP3    H265022   4.873   4.385  16.210  2.8197  1.7005 -1.4561
14511TIP3   OH265023   1.388   1.326   4.632  0.1462  0.2989 -0.3375
14511TIP3    H165024   1.401   1.231   4.633 -1.8161 -0.1408 -3.4027
14511TIP3    H265025   1.300   1.339   4.667 -0.4888  0.7075 -1.9989
14512TIP3   OH265026   1.788   3.991  13.732  0.0283 -0.5380  0.0731
14512TIP3    H165027   1.743   3.935  13.795 -0.7897 -0.1923 -0.1915
14512TIP3    H265028   1.727   4.062  13.714 -0.2479 -1.1992 -1.9461
14513TIP3   OH265029   5.057   3.506   2.688  0.3243  0.5946  0.4532
14513TIP3    H165030   4.989   3.560   2.728 -0.4977 -0.4392  0.5148
14513TIP3    H265031   5.116   3.568   2.646  0.5381  1.6360  2.2128
14514TIP3   OH265032   2.943   5.437   1.467 -0.0280 -0.2596 -0.6636
14514TIP3    H165033   2.997   5.458   1.391 -3.0441 -0.0438 -2.9482
14514TIP3    H265034   2.964   5.505   1.531  2.0664  0.0035 -1.5577
14515TIP3   OH265035   5.170   1.047  14.477 -0.1665  0.8461  0.0812
14515TIP3    H165036   5.166   1.064  14.383 -0.5863  1.5088  0.2137
14515TIP3    H265037   5.186   1.133  14.516 -1.1826  0.7679  0.6984
14516TIP3   OH265038   1.566   3.673  12.509 -0.4860  0.0269  0.3064
14516TIP3    H165039   1.493   3.734  12.517 -0.3682  0.6151 -2.2559
14516TIP3    H265040   1.528   3.593  12.473  0.1440  0.4638 -1.4050
14517TIP3   OH265041   2.677   0.030  16.896  0.0186  0.6167  0.6333
14517TIP3    H165042   2.755   0.026  16.840  0.4018  0.3248  1.1680
14517TIP3    H265043   2.604   0.041  16.836  0.3361 -0.5375  0.0071
14518TIP3   OH265044   6.440   4.793   0.531  0.8194 -0.4435  0.2330
14518TIP3    H165045   6.451   4.700   0.513  2.6440 -0.2815  0.3247
14518TIP3    H265046   6.436   4.799   0.626 -2.8950 -0.7114  0.2408
14519TIP3   OH265047   4.934   4.920  13.562 -0.1219 -0.6431 -0.4527
14519TIP3    H165048   4.895   4.873  13.489 -1.2467 -0.4268 -0.0142
14519TIP3    H265049   4.884   4.892  13.639  2.1812 -2.2823  0.5791
14520TIP3   OH265050   6.080   2.020   1.067 -0.0374 -0.0313 -0.4341
14520TIP3    H165051   6.032   2.038   1.147 -1.4875  0.8693 -1.4433
14520TIP3    H265052   6.047   2.084   1.004  1.9967  0.1462 -1.4067
14521TIP3   OH265053   6.515   5.786  15.455 -0.2494  0.3328 -0.2136
14521TIP3    H165054   6.454   5.724  15.415  1.1137 -1.5468  0.4406
14521TIP3    H265055   6.555   5.832  15.382  1.6996 -2.5484 -1.1304
14522TIP3   OH265056   4.963   6.644   4.301 -0.0732 -0.1541  0.4016
14522TIP3    H165057   4.990   6.736   4.297 -0.0039 -0.1074  1.5903
14522TIP3    H265058   4.912   6.638   4.381 -2.0834 -0.6480 -0.8597
14523TIP3   OH265059   6.392   1.600  14.399  0.0271  0.4155 -0.2168
14523TIP3    H165060   6.466   1.552  14.362  0.2703  0.1335  0.6183
14523TIP3    H265061   6.315   1.548  14.374  0.2437 -0.1320  0.2330
14524TIP3   OH265062   2.008   1.186  15.394  0.0938 -0.5807 -0.6003
14524TIP3    H165063   2.090   1.190  15.344  0.0022 -1.6648 -0.8459
14524TIP3    H265064   1.941   1.213  15.331  0.2129 -0.0507 -0.5041
14525TIP3   OH265065   2.307   3.959  12.924  0.0878  0.4484 -0.0454
14525TIP3    H165066   2.358   3.994  12.997 -1.4829  1.0482  0.8272
14525TIP3    H265067   2.316   3.864  12.930  1.1135  0.5494  0.0614
14526TIP3   OH265068   0.051   3.076   5.255  0.3769  0.3408  0.5730
14526TIP3    H165069   0.104   2.997   5.249 -1.6067 -1.1016  0.8918
14526TIP3    H265070  -0.028   3.055   5.205 -1.0071  1.4134  2.2105
14527TIP3   OH265071   5.989   5.758  10.494 -0.3772  0.0614  0.3738
14527TIP3    H165072   5.942   5.675  10.499 -1.5978  0.7877  1.8344
14527TIP3    H265073   6.074   5.741  10.534 -0.2883 -0.6715 -0.1101
14528TIP3   OH265074   5.971   4.152   3.605 -0.2923 -0.2895 -0.4638
14528TIP3    H165075   6.005   4.067   3.575 -1.7524 -0.6276 -1.2607
14528TIP3    H265076   6.019   4.217   3.554  0.9181 -0.6123  0.2263
14529TIP3   OH265077   2.611   5.368   2.831  0.5950  0.2909  0.4681
14529TIP3    H165078   2.527   5.391   2.872 -0.0100 -0.7442 -0.1314
14529TIP3    H265079   2.644   5.295   2.883  0.0275 -0.7503 -0.5557
14530TIP3   OH265080   4.454   4.405   4.549 -0.0612  0.0616  0.1895
14530TIP3    H165081   4.369   4.402   4.506  0.5562  0.7324 -1.1475
14530TIP3    H265082   4.445   4.473   4.616 -0.3001  0.8166 -0.6022
14531TIP3   OH265083   4.174   4.247  16.480 -0.3453  0.4189 -0.4564
14531TIP3    H165084   4.126   4.274  16.559 -0.1613 -1.1758  0.2427
14531TIP3    H265085   4.236   4.318  16.464  0.7823  0.0514  1.8380
14532TIP3   OH265086   0.503   5.321  12.376 -0.0670 -0.3060 -0.2506
14532TIP3    H165087   0.483   5.269  12.298  1.2461  0.7110 -1.3179
14532TIP3    H265088   0.577   5.275  12.417  1.2754  0.8001 -1.3460
14533TIP3   OH265089   0.356   1.253  16.166  0.2885 -0.3411 -0.0261
14533TIP3    H165090   0.266   1.260  16.198  0.8557 -1.9100  2.1734
14533TIP3    H265091   0.362   1.163  16.133  1.4240 -0.8241  1.3586
14534TIP3   OH265092   0.923   6.477  13.336  0.4215 -0.3046  0.0106
14534TIP3    H165093   0.857   6.446  13.275  1.7878 -1.3383 -1.0194
14534TIP3    H265094   0.877   6.540  13.391 -1.2853 -0.6369 -0.9518
14535TIP3   OH265095   1.975   3.697   6.689 -0.5539  0.1537 -0.2454
14535TIP3    H165096   2.033   3.755   6.640 -0.0614  0.3126  0.5105
14535TIP3    H265097   2.021   3.681   6.771 -1.4528  0.0446  0.2452
14536TIP3   OH265098   0.504   0.404  14.265  0.0368 -0.1473  0.3767
14536TIP3    H165099   0.500   0.408  14.169  3.1939 -1.3891  0.0747
14536TIP3    H265100   0.470   0.317  14.287  3.9359 -2.0172 -0.2159
14537TIP3   OH265101   3.383   3.955  13.925  0.6305  0.2341  0.3563
14537TIP3    H165102   3.438   4.007  13.867 -2.3742 -0.2064 -3.2933
14537TIP3    H265103   3.334   4.019  13.976  0.5447  0.8540 -0.4809
14538TIP3   OH265104   3.659   0.417  13.582 -0.1100  0.2463  0.0479
14538TIP3    H165105   3.697   0.438  13.668  1.3484  0.4519 -0.6099
14538TIP3    H265106   3.694   0.330  13.562  1.6735  1.2301 -1.4194
14539TIP3   OH265107   1.011   4.825  13.678 -0.3143  0.2364  0.5019
14539TIP3    H165108   1.063   4.745  13.680 -0.9871 -0.2124  0.1702
14539TIP3    H265109   0.963   4.821  13.595  0.2662  1.3845  0.0867
14540TIP3   OH265110   4.354   3.686  11.619  0.0977 -0.1589  0.1216
14540TIP3    H165111   4.283   3.727  11.569  2.1001  3.6210 -0.0091
14540TIP3    H265112   4.411   3.648  11.552  0.0595  0.1035 -0.0633
14541TIP3   OH265113   4.792   5.490   4.635 -0.0358  1.2677  0.0591
14541TIP3    H165114   4.845   5.488   4.715 -0.6409 -2.6412  0.5516
14541TIP3    H265115   4.852   5.462   4.566 -0.7050 -0.3748  0.1114
14542TIP3   OH265116   3.385   1.805  16.866  0.2919 -0.0020  0.0565
14542TIP3    H165117   3.305   1.795  16.813  0.5309 -1.0476 -0.1221
14542TIP3    H265118   3.445   1.739  16.832  0.7246 -0.1823  1.1264
14543TIP3   OH265119   2.991   3.499   3.943  0.6370  0.2451 -0.1782
14543TIP3    H165120   2.948   3.480   4.027  0.7803  1.4975  0.1929
14543TIP3    H265121   2.982   3.417   3.893 -0.4690 -0.1438  0.6112
14544TIP3   OH265122   3.805   4.540  13.726 -0.1989 -0.2050 -0.6646
14544TIP3    H165123   3.831   4.486  13.651 -0.8141  0.9331 -1.7271
14544TIP3    H265124   3.849   4.624  13.712  1.3601 -0.5840  1.3655
14545TIP3   OH265125   2.791   6.007   4.158 -0.6233 -0.2669 -0.6971
14545TIP3    H165126   2.754   5.920   4.144  0.7611 -0.9482 -0.2570
14545TIP3    H265127   2.724   6.054   4.208 -0.3098 -1.9952  1.5199
14546TIP3   OH265128   4.735   6.319   5.894  0.4341  0.0987 -0.3151
14546TIP3    H165129   4.739   6.350   5.984  1.3794  0.6884 -0.5478
14546TIP3    H265130   4.812   6.264   5.884  0.4298  0.1768 -0.8131
14547TIP3   OH265131   1.547   0.547   5.656  0.5581 -0.5107  0.1711
14547TIP3    H165132   1.539   0.619   5.718 -0.3366  0.4892 -1.0568
14547TIP3    H265133   1.466   0.496   5.667  1.0384 -1.1658  0.7995
14548TIP3   OH265134   5.691   6.026   1.466  0.0571  0.1864 -0.0496
14548TIP3    H165135   5.603   6.062   1.477  0.1868 -0.0048  2.2392
14548TIP3    H265136   5.683   5.963   1.395 -1.3456  1.0570 -0.7097
14549TIP3   OH265137   4.727   0.618   2.795 -0.0205  0.9433 -0.5464
14549TIP3    H165138   4.766   0.538   2.829  0.6443  1.3206 -0.4014
14549TIP3    H265139   4.657   0.588   2.737  0.6405  0.2491 -0.9991
14550TIP3   OH265140   5.305   1.968   2.044 -0.5097  0.4950 -0.1104
14550TIP3    H165141   5.282   1.968   2.137  1.1146  0.1134  0.3135
14550TIP3    H265142   5.301   2.060   2.018 -0.3751  0.6698  0.4803
14551TIP3   OH265143   1.790   0.610  15.138 -0.1068  0.6078 -0.8012
14551TIP3    H165144   1.864   0.657  15.099  3.0511 -2.9438  0.2616
14551TIP3    H265145   1.751   0.562  15.066 -0.2333  1.0925 -1.0601
14552TIP3   OH265146   0.623   0.081   0.735 -0.8175 -0.6846  0.5450
14552TIP3    H165147   0.659   0.062   0.822  0.3724 -4.0934 -0.5376
14552TIP3    H265148   0.674   0.155   0.704  0.3688 -0.9057  1.8585
14553TIP3   OH265149   6.241   2.456   2.895  0.6338 -0.3041  0.0190
14553TIP3    H165150   6.255   2.367   2.864  0.3089 -0.3116 -0.1083
14553TIP3    H265151   6.281   2.458   2.982 -2.0118 -1.4824  1.3952
14554TIP3   OH265152   4.951   2.514   1.459  0.4014  0.1837 -0.0761
14554TIP3    H165153   5.027   2.478   1.505 -0.5920 -0.0700  1.4635
14554TIP3    H265154   4.964   2.609   1.461  0.7446  0.1355  0.0491
14555TIP3   OH265155   1.204   4.153  15.143 -0.0064 -0.1954  0.5838
14555TIP3    H165156   1.224   4.124  15.232 -0.3541 -0.0740  0.6979
14555TIP3    H265157   1.180   4.245  15.151 -0.9426 -0.4212  0.4890
14556TIP3   OH265158   0.100   2.164   4.754  0.1809  0.4355 -0.0148
14556TIP3    H165159   0.013   2.130   4.777 -0.1479  0.8490 -0.6170
14556TIP3    H265160   0.145   2.172   4.838 -0.5508  0.7201  0.3597
14557TIP3   OH265161   4.055   2.003   1.446  0.1874 -0.8354  0.3242
14557TIP3    H165162   4.062   1.963   1.533 -0.8515  0.4428  1.0213
14557TIP3    H265163   4.137   2.051   1.436 -0.6494  0.9768  1.6532
14558TIP3   OH265164   1.121   5.862  12.425  0.2095  0.0530  0.5123
14558TIP3    H165165   1.175   5.879  12.503  0.8656  0.4758 -0.0212
14558TIP3    H265166   1.094   5.771  12.434  1.8558 -0.4974  0.3033
14559TIP3   OH265167   2.943   5.231  14.293 -0.3987  0.5275  0.2979
14559TIP3    H165168   2.994   5.246  14.373  1.2200 -0.9298 -0.3965
14559TIP3    H265169   3.004   5.251  14.222 -1.2238  0.0014 -0.5796
14560TIP3   OH265170   4.072   0.335  15.812 -0.0661 -0.4870  0.2317
14560TIP3    H165171   4.067   0.292  15.898 -0.4469 -1.0910 -0.0875
14560TIP3    H265172   4.002   0.401  15.815  0.1954 -0.2162  0.5367
14561TIP3   OH265173   4.301   6.020   5.726 -0.3838  0.0591  0.4032
14561TIP3    H165174   4.216   6.047   5.760  0.9071  1.4831  2.7216
14561TIP3    H265175   4.282   5.941   5.675 -3.3316  1.3739 -0.8050
14562TIP3   OH265176   4.281   2.822  17.073  0.0297  0.4893  0.8905
14562TIP3    H165177   4.257   2.771  16.996  1.0530  0.2937  0.6820
14562TIP3    H265178   4.285   2.912  17.042 -0.2897  0.5089  0.8990
14563TIP3   OH265179   0.513   3.727  16.263 -0.2292 -0.7855 -0.0099
14563TIP3    H165180   0.581   3.664  16.285  0.2352  0.1091  1.2605
14563TIP3    H265181   0.450   3.720  16.335 -1.1107 -1.0639 -0.7817
14564TIP3   OH265182   0.033   0.440  16.910  0.4302  0.4221 -0.3858
14564TIP3    H165183  -0.030   0.504  16.878 -0.6836 -0.5926 -0.3362
14564TIP3    H265184   0.060   0.391  16.833 -1.3080 -1.2101 -0.0379
14565TIP3   OH265185   0.670   1.264   5.585  0.0981  0.0535 -0.3419
14565TIP3    H165186   0.635   1.340   5.538  0.7115 -0.8982 -2.4838
14565TIP3    H265187   0.595   1.207   5.598 -0.2083  0.6234  0.5457
14566TIP3   OH265188   1.064   5.821  16.177 -0.3184 -0.2994 -0.0246
14566TIP3    H165189   1.133   5.761  16.207  1.4591  1.1136 -1.0704
14566TIP3    H265190   1.052   5.882  16.250 -1.2002 -1.0913  0.5269
14567TIP3   OH265191   3.151   3.547  13.402 -0.3062 -0.3194 -0.4646
14567TIP3    H165192   3.154   3.557  13.307  0.2368  1.3527 -0.3088
14567TIP3    H265193   3.229   3.497  13.423 -0.4321 -0.7017 -0.9014
14568TIP3   OH265194   4.823   4.645  13.971  0.7630  0.0748 -0.0888
14568TIP3    H165195   4.849   4.717  14.028  0.1861  1.6861 -1.7694
14568TIP3    H265196   4.728   4.639  13.982  0.8039 -0.4792  0.0408
14569TIP3   OH265197   3.815   1.767   4.907  0.2688 -0.4895  0.1479
14569TIP3    H165198   3.883   1.710   4.871 -0.7617 -1.1519 -0.8381
14569TIP3    H265199   3.751   1.775   4.837 -0.6666  0.1328  1.0393
14570TIP3   OH265200   1.174   0.625   1.485 -0.1949  0.5951 -0.5198
14570TIP3    H165201   1.175   0.613   1.580 -1.8353 -1.0923 -0.6485
14570TIP3    H265202   1.118   0.702   1.471  0.5858  1.2493 -0.1148
14571TIP3   OH265203   2.682   6.809  17.157 -0.1251 -0.1708 -0.0442
14571TIP3    H165204   2.679   6.821  17.062 -2.3347  0.4823  0.0604
14571TIP3    H265205   2.769   6.840  17.182  0.5786 -0.5381 -1.8475
14572TIP3   OH265206   6.388   5.781  16.656 -0.3846  0.1687  0.2890
14572TIP3    H165207   6.300   5.805  16.685 -0.0632  0.4525  1.0756
14572TIP3    H265208   6.375   5.731  16.576 -1.1394  2.1652 -0.9016
14573TIP3   OH265209   5.045   1.415  10.835 -0.1476 -0.0296 -0.1381
14573TIP3    H165210   5.082   1.359  10.903  0.1671  0.3112 -0.0244
14573TIP3    H265211   5.080   1.502  10.854 -1.0722  0.3159  0.0088
14574TIP3   OH265212   6.338   3.315  16.567  0.8947  0.1334  0.4646
14574TIP3    H165213   6.419   3.349  16.605  0.3731  2.1618 -0.0993
14574TIP3    H265214   6.311   3.383  16.505 -2.0681  0.2507  1.7642
14575TIP3   OH265215   5.376   3.833   1.024 -0.2796 -0.2086  0.4377
14575TIP3    H165216   5.302   3.833   0.964  0.2793 -2.9712 -0.4159
14575TIP3    H265217   5.341   3.798   1.106 -0.1866 -0.2955  0.4409
14576TIP3   OH265218   3.516   2.854   3.998 -0.1196  0.5187  0.0665
14576TIP3    H165219   3.494   2.866   4.090  1.5790 -2.1867  0.9486
14576TIP3    H265220   3.481   2.767   3.976  2.3862 -0.3644 -0.7752
14577TIP3   OH265221   0.992   5.329  14.364  0.2025 -0.0347 -0.0351
14577TIP3    H165222   0.919   5.390  14.366  0.0944 -0.0746 -1.7880
14577TIP3    H265223   1.039   5.345  14.446 -0.8448  1.1112  0.3674
14578TIP3   OH265224   5.670   0.658  15.937  0.0397 -0.5382 -0.2631
14578TIP3    H165225   5.691   0.565  15.938 -1.2305 -0.8599  1.8145
14578TIP3    H265226   5.623   0.670  15.854 -2.1368 -2.3856  0.5953
14579TIP3   OH265227   4.230   2.099   4.507  0.6275 -0.0932 -0.3648
14579TIP3    H165228   4.289   2.059   4.443  1.0741 -0.0979  0.0440
14579TIP3    H265229   4.286   2.155   4.561  0.2423 -0.0166 -0.0329
14580TIP3   OH265230   1.037   4.275   1.331  0.4665 -0.2164  0.1237
14580TIP3    H165231   1.001   4.294   1.418  0.0574  0.1754 -0.1252
14580TIP3    H265232   1.063   4.361   1.297  0.3702 -0.3360 -0.2511
14581TIP3   OH265233   5.581   6.079   0.067 -0.6640  0.2648 -0.9007
14581TIP3    H165234   5.675   6.064   0.081 -0.6162  0.3825 -1.0825
14581TIP3    H265235   5.548   5.996   0.034 -0.6225  0.2242 -0.8405
14582TIP3   OH265236   4.607   4.569   2.051  0.0298 -0.3197 -0.2823
14582TIP3    H165237   4.567   4.525   2.126 -1.9726  1.2435 -0.3180
14582TIP3    H265238   4.570   4.526   1.975  1.8094 -1.6878 -0.4249
14583TIP3   OH265239   4.750   2.753  13.590  0.1793  0.3872 -0.0713
14583TIP3    H165240   4.815   2.737  13.658  0.2068 -0.7003 -0.3436
14583TIP3    H265241   4.794   2.812  13.529  0.0937  1.5254  0.9230
14584TIP3   OH265242   1.856   5.353  16.092  0.1107 -0.1324 -0.2631
14584TIP3    H165243   1.913   5.277  16.083 -0.6479 -0.5938 -1.4670
14584TIP3    H265244   1.769   5.316  16.107 -0.2980  0.4839 -1.0429
14585TIP3   OH265245   1.892   0.251  16.683  0.4058  0.2426  0.6514
14585TIP3    H165246   1.864   0.274  16.594  0.9086 -0.8589  0.1864
14585TIP3    H265247   1.984   0.226  16.673  0.5980  0.5681  1.5704
14586TIP3   OH265248   4.353   3.068   0.954  0.1781  0.3761  0.1495
14586TIP3    H165249   4.301   3.139   0.917 -0.0531  0.3871  0.4875
14586TIP3    H265250   4.444   3.096   0.942  0.0795  1.2842  1.3395
14587TIP3   OH265251   1.643   5.453  16.876 -0.3245  0.7949 -0.2911
14587TIP3    H165252   1.680   5.382  16.823 -0.9500  0.6765 -0.5729
14587TIP3    H265253   1.579   5.410  16.932 -0.8396  1.1613 -0.5925
14588TIP3   OH265254   1.444   5.368   3.603  0.9243  0.3743 -0.4415
14588TIP3    H165255   1.454   5.336   3.693 -0.5729  1.7540  0.2806
14588TIP3    H265256   1.367   5.424   3.607  1.0926  0.8203 -2.5187
14589TIP3   OH265257   4.939   5.272  16.091  0.4983  0.1686  0.4824
14589TIP3    H165258   4.929   5.367  16.085 -0.3672  0.0229 -0.7704
14589TIP3    H265259   5.033   5.258  16.106  0.7566  1.1950 -0.1250
14590TIP3   OH265260   3.478   3.045  13.819  0.3465  0.3822  0.2091
14590TIP3    H165261   3.540   3.097  13.869 -0.8760  1.3571  0.7632
14590TIP3    H265262   3.523   3.026  13.737  2.3585 -1.1675  1.5590
14591TIP3   OH265263   5.373   1.895   5.114 -0.1523  0.0592  0.3003
14591TIP3    H165264   5.311   1.887   5.042  0.3583 -0.4498 -0.1003
14591TIP3    H265265   5.320   1.919   5.190 -1.0351 -1.6796  0.2789
14592TIP3   OH265266   2.108   1.920  12.748 -0.1549  0.9620  0.1759
14592TIP3    H165267   2.119   1.973  12.827  0.7934  0.5148  0.3598
14592TIP3    H265268   2.193   1.924  12.705 -0.3718  0.4021 -0.3164
14593TIP3   OH265269   6.516   0.740   0.873 -0.0277  0.3165  0.3636
14593TIP3    H165270   6.561   0.703   0.949  0.5432 -0.4001 -0.3211
14593TIP3    H265271   6.423   0.725   0.892  0.1912 -1.6638  0.0183
14594TIP3   OH265272   5.883   1.647  13.695  0.6078  0.5949  0.3794
14594TIP3    H165273   5.904   1.554  13.687  0.8649  0.6133  0.8016
14594TIP3    H265274   5.863   1.675  13.606 -1.4755 -0.3176  0.5218
14595TIP3   OH265275   4.966   1.429   0.934  0.5624  1.0194  0.6964
14595TIP3    H165276   4.947   1.507   0.882  3.7932  1.2014 -0.4356
14595TIP3    H265277   4.888   1.374   0.926 -0.5479  2.7423 -1.1055
14596TIP3   OH265278   1.092   3.303  15.212 -0.6814 -0.0988  0.6677
14596TIP3    H165279   1.024   3.304  15.280 -0.3485  0.9448  0.9999
14596TIP3    H265280   1.145   3.227  15.233  0.6819  1.3677  2.8986
14597TIP3   OH265281   1.831   5.843   1.210 -0.0156 -0.6706 -0.2857
14597TIP3    H165282   1.878   5.831   1.128  1.1190  2.2605 -0.1614
14597TIP3    H265283   1.893   5.818   1.278  0.2086  0.0137 -0.2325
14598TIP3   OH265284   5.318   3.914   4.923  0.5122  0.1800 -0.4321
14598TIP3    H165285   5.262   3.945   4.852  0.2388  0.4151 -0.1140
14598TIP3    H265286   5.406   3.912   4.885  0.4025  0.5391 -0.7049
14599TIP3   OH265287   1.331   4.077   4.814  0.2017  0.5001  0.0429
14599TIP3    H165288   1.396   4.065   4.744  1.2053  2.3100  0.5989
14599TIP3    H265289   1.336   4.170   4.836 -1.5439  0.3856  1.1513
14600TIP3   OH265290   0.581   5.593   6.574  0.0611 -0.0215 -0.2149
14600TIP3    H165291   0.620   5.568   6.490  2.9213  2.5673  0.1311
14600TIP3    H265292   0.504   5.644   6.550  1.0957  1.0940 -1.3888
14601TIP3   OH265293   0.658   0.195   3.192  0.0512  0.1308  0.0298
14601TIP3    H165294   0.723   0.126   3.179 -0.1240 -0.6038  2.5706
14601TIP3    H265295   0.710   0.274   3.210  0.2546  0.7987 -3.0062
14602TIP3   OH265296   4.823   6.039  10.682 -0.2399 -0.1883 -0.5156
14602TIP3    H165297   4.796   6.063  10.593 -1.2168 -0.3212 -0.2689
14602TIP3    H265298   4.917   6.022  10.675  0.1350  1.8104 -1.1142
14603TIP3   OH265299   4.014   6.676  11.991  0.0190 -0.7337  0.2289
14603TIP3    H165300   4.090   6.670  11.933 -0.4494 -0.1368 -0.4702
14603TIP3    H265301   4.051   6.692  12.078  0.6873  2.2063 -0.4836
14604TIP3   OH265302   1.866   5.510   5.395 -0.4789  0.4599  0.3014
14604TIP3    H165303   1.876   5.531   5.488 -0.6598 -3.2765  1.3038
14604TIP3    H265304   1.955   5.512   5.360 -0.2489  0.5490  0.8856
14605TIP3   OH265305   2.642   4.655  12.501  0.1725 -0.0484 -0.3248
14605TIP3    H165306   2.564   4.703  12.529  0.9708  1.3464 -0.3990
14605TIP3    H265307   2.712   4.688  12.557  0.3875 -2.8704  1.2949
14606TIP3   OH265308   1.728   1.220   5.223  0.5730 -0.0570  0.5404
14606TIP3    H165309   1.794   1.276   5.265  1.0690  1.5035 -2.1105
14606TIP3    H265310   1.674   1.281   5.172 -1.3055 -1.6144  0.5501
14607TIP3   OH265311   4.015   2.738   4.588  0.5324  0.3693 -0.4943
14607TIP3    H165312   4.041   2.752   4.497 -0.2222 -0.4576 -0.8599
14607TIP3    H265313   4.053   2.654   4.612 -0.2570  0.0192 -0.4433
14608TIP3   OH265314   4.795   0.746  15.840 -0.4740 -0.2986 -0.0529
14608TIP3    H165315   4.711   0.700  15.838 -1.5387  1.3936  1.9319
14608TIP3    H265316   4.840   0.710  15.917 -0.9412  1.2182  0.9893
14609TIP3   OH265317   4.265   5.748   0.608  0.4997 -0.5486  0.3983
14609TIP3    H165318   4.264   5.842   0.591  1.3121 -0.6763 -0.4107
14609TIP3    H265319   4.183   5.715   0.571  0.6399 -0.2918 -0.1495
14610TIP3   OH265320   5.857   2.076  14.201 -0.5373 -0.4001  0.2162
14610TIP3    H165321   5.926   2.112  14.257 -1.3125  0.4759  0.6349
14610TIP3    H265322   5.904   2.023  14.137  0.5109  0.0402  0.5920
14611TIP3   OH265323   5.513   3.691  16.689  0.4297  0.5437  0.8234
14611TIP3    H165324   5.510   3.767  16.748  1.1947  1.1548  0.1069
14611TIP3    H265325   5.589   3.708  16.633 -1.1934  0.8243 -1.4642
14612TIP3   OH265326   5.867   4.530   3.344  0.1383 -0.0649  0.1138
14612TIP3    H165327   5.778   4.566   3.349  0.3743  0.5273 -0.0105
14612TIP3    H265328   5.922   4.603   3.318  0.7436 -0.3183  0.6638
14613TIP3   OH265329   4.317   4.786   2.766  0.1890 -0.8221  0.4398
14613TIP3    H165330   4.402   4.754   2.734 -0.6537 -0.1119 -2.9728
14613TIP3    H265331   4.263   4.707   2.771 -0.1245 -0.8298 -1.8281
14614TIP3   OH265332   6.398   3.382   6.344 -0.0199  0.3331 -0.1874
14614TIP3    H165333   6.450   3.459   6.322  1.7548 -0.4424  1.0413
14614TIP3    H265334   6.382   3.339   6.260 -0.3967  1.6184 -0.8002
14615TIP3   OH265335   0.111   5.256  11.697  0.3301 -0.1070  0.0177
14615TIP3    H165336   0.202   5.286  11.703  0.4944 -0.4074 -0.8729
14615TIP3    H265337   0.061   5.324  11.742  0.6946  1.5484 -1.9274
14616TIP3   OH265338   5.257   4.923  11.699 -0.1407  0.3463 -0.2846
14616TIP3    H165339   5.212   4.953  11.778  0.6713  2.4046 -0.5400
14616TIP3    H265340   5.342   4.966  11.702  0.6358 -1.0201 -1.3657
14617TIP3   OH265341   4.907   6.141   2.292 -0.7038  0.2347 -0.0974
14617TIP3    H165342   4.914   6.089   2.372  0.6759  1.2000  0.4424
14617TIP3    H265343   4.821   6.120   2.257 -1.4430 -0.0009  1.7812
14618TIP3   OH265344   3.296   0.485  11.719  0.1077 -0.1209  0.3133
14618TIP3    H165345   3.261   0.407  11.761  1.5995  0.0611  1.9980
14618TIP3    H265346   3.387   0.490  11.749  0.2564  1.8633 -0.3206
14619TIP3   OH265347   2.752   0.464   1.845 -0.6655  0.0971  0.7103
14619TIP3    H165348   2.736   0.517   1.923  0.3296  1.8604 -0.2225
14619TIP3    H265349   2.678   0.483   1.788  0.2776  1.4718 -0.1034
14620TIP3   OH265350   6.586   5.192  16.707 -0.3204  0.1524  0.5745
14620TIP3    H165351   6.576   5.287  16.700 -0.0046  0.1475 -0.0702
14620TIP3    H265352   6.550   5.158  16.625 -2.4401 -0.4674  1.6964
14621TIP3   OH265353   5.537   0.693   2.416  0.3734 -0.1924  0.2595
14621TIP3    H165354   5.454   0.668   2.456  0.5729  0.3345  1.0287
14621TIP3    H265355   5.541   0.642   2.335 -1.7262  1.3848 -0.9276
14622TIP3   OH265356   0.809   1.744   5.686 -0.1859  0.1877 -0.3569
14622TIP3    H165357   0.725   1.786   5.666  0.2552  1.1295 -0.2642
14622TIP3    H265358   0.850   1.731   5.601  1.3454  3.4769 -0.2659
14623TIP3   OH265359   4.569   2.471  16.286 -0.3639 -0.1943 -0.1540
14623TIP3    H165360   4.480   2.454  16.255 -0.0989  0.9382 -1.6286
14623TIP3    H265361   4.582   2.564  16.271  1.6440 -0.6473 -1.5131
14624TIP3   OH265362   1.509   2.889   2.590  0.3121  0.2012  0.1317
14624TIP3    H165363   1.600   2.908   2.612  0.9749 -3.0349  0.7926
14624TIP3    H265364   1.494   2.801   2.625 -2.8913  0.3480 -0.5427
14625TIP3   OH265365   0.282   6.276   0.577  0.2533 -0.8291 -0.1807
14625TIP3    H165366   0.267   6.361   0.535 -2.2578 -0.3115  1.5678
14625TIP3    H265367   0.361   6.290   0.630  0.0433  0.3071 -0.1417
14626TIP3   OH265368   1.136   5.451  13.493 -0.3366  0.3073  0.6528
14626TIP3    H165369   1.169   5.513  13.428  0.8609  0.3030  1.2419
14626TIP3    H265370   1.109   5.374  13.442 -0.3280  0.6807  0.0774
14627TIP3   OH265371   4.530   6.795   3.891  0.5785 -0.1789  0.1230
14627TIP3    H165372   4.550   6.869   3.948 -0.5737 -0.1126  0.4583
14627TIP3    H265373   4.435   6.798   3.880  0.2059 -2.7414  1.7802
14628TIP3   OH265374   1.832   5.584  15.344  0.3356  0.0934  0.2775
14628TIP3    H165375   1.788   5.533  15.276  0.4959  1.4953 -0.9292
14628TIP3    H265376   1.908   5.532  15.369 -0.7042 -1.2741  0.7083
14629TIP3   OH265377   1.725   0.660  15.554 -0.2392  0.5723  0.0818
14629TIP3    H165378   1.775   0.585  15.587 -0.0198  0.3500 -0.7424
14629TIP3    H265379   1.731   0.725  15.624  0.7600  0.3478  0.2238
14630TIP3   OH265380   4.707   0.042   2.054  0.4320 -0.3369 -0.0675
14630TIP3    H165381   4.778   0.027   2.116  0.6352 -0.1772 -0.2581
14630TIP3    H265382   4.657   0.113   2.093 -0.0170 -0.9019  0.3978
14631TIP3   OH265383   1.068   4.041  14.754  0.1424 -0.3110  0.1952
14631TIP3    H165384   1.133   4.105  14.725  0.0021 -0.1686  0.1931
14631TIP3    H265385   1.056   4.061  14.847 -1.1358  0.7563 -0.1817
14632TIP3   OH265386   4.155   5.806   1.868 -0.2101  0.1824 -0.3686
14632TIP3    H165387   4.239   5.851   1.864  0.8782 -1.7614 -1.2239
14632TIP3    H265388   4.166   5.731   1.809 -2.3957 -0.3793 -0.1435
14633TIP3   OH265389   0.045   1.874   5.308  0.2497  0.0627 -0.4342
14633TIP3    H165390   0.067   1.786   5.337  0.3951  0.6211  1.2992
14633TIP3    H265391  -0.050   1.881   5.321 -0.2856 -0.7224 -3.2655
14634TIP3   OH265392   3.165   3.438   2.353  0.1262 -0.0105  0.2201
14634TIP3    H165393   3.193   3.478   2.435  2.1581 -0.0374 -0.4029
14634TIP3    H265394   3.113   3.506   2.309 -0.8898  0.0370  1.4329
14635TIP3   OH265395   5.339   5.268  11.212 -0.1808  0.0596  0.4408
14635TIP3    H165396   5.420   5.232  11.175 -0.8044 -1.1232  0.1552
14635TIP3    H265397   5.323   5.215  11.290 -1.0390 -0.1795  0.1119
14636TIP3   OH265398   5.804   5.383  12.853  0.0569 -0.2137  0.5340
14636TIP3    H165399   5.819   5.356  12.943  0.3831  0.6066  0.7313
14636TIP3    H265400   5.759   5.309  12.813  0.8344 -0.9976  1.0921
14637TIP3   OH265401   0.546   5.659   1.804 -0.1856 -0.4797 -0.4620
14637TIP3    H165402   0.543   5.755   1.805  0.4572 -0.4110 -2.0334
14637TIP3    H265403   0.521   5.633   1.893  0.5115  1.1661  0.2564
14638TIP3   OH265404   3.903   0.268  15.177  0.3922 -0.1759 -1.2440
14638TIP3    H165405   3.935   0.287  15.089  0.4819  0.1300 -1.1484
14638TIP3    H265406   3.951   0.189  15.204  0.5449 -0.1292 -1.3741
14639TIP3   OH265407   3.955   5.453   0.981 -0.1730 -0.4343  0.1126
14639TIP3    H165408   3.978   5.382   1.042 -0.2034 -0.4512  0.1038
14639TIP3    H265409   4.039   5.494   0.960 -0.2978  0.5350  1.3421
14640TIP3   OH265410   4.103   3.181  14.092  0.0120  0.3962  0.1861
14640TIP3    H165411   4.145   3.216  14.170  0.1407  0.6569  0.0010
14640TIP3    H265412   4.049   3.252  14.058 -1.5026 -0.2859  1.0554
14641TIP3   OH265413   0.458   1.448  14.647 -0.3641 -0.0823  0.7788
14641TIP3    H165414   0.535   1.504  14.635 -0.5545 -0.0592 -0.4690
14641TIP3    H265415   0.408   1.491  14.717  0.3501  0.3380  1.0439
14642TIP3   OH265416   4.063   5.091  15.129  0.3851  0.3957  0.0669
14642TIP3    H165417   4.114   5.025  15.082 -0.3061  1.1231 -1.8056
14642TIP3    H265418   3.972   5.069  15.111  0.1164  1.1725  0.4079
14643TIP3   OH265419   4.281   0.095   3.971  0.2958  0.2219  0.4308
14643TIP3    H165420   4.294   0.178   4.017  0.2709  0.4790 -0.0167
14643TIP3    H265421   4.215   0.049   4.022 -0.9919  1.2339 -0.2568
14644TIP3   OH265422   0.702   2.832   6.254 -0.4276  0.2615  0.2418
14644TIP3    H165423   0.697   2.872   6.167 -0.6952 -1.9822 -0.8506
14644TIP3    H265424   0.620   2.785   6.263 -0.4874  0.6063  1.8386
14645TIP3   OH265425   5.688   3.696  11.583  0.3777  0.2778 -0.1277
14645TIP3    H165426   5.705   3.615  11.535 -1.0041  0.9389 -1.8515
14645TIP3    H265427   5.698   3.765  11.518 -2.6144  1.1392  0.1411
14646TIP3   OH265428   2.356   1.069  15.050  0.4835 -0.7563  0.0598
14646TIP3    H165429   2.279   1.082  14.995 -1.1568 -2.0397  1.8874
14646TIP3    H265430   2.377   0.976  15.040  1.5223 -0.5275 -0.0293
14647TIP3   OH265431   0.373   6.786   0.681  0.2707 -0.5979  0.6241
14647TIP3    H165432   0.361   6.757   0.771  1.1722 -0.3694  0.8289
14647TIP3    H265433   0.450   6.844   0.685  1.9765 -2.6152 -0.6980
14648TIP3   OH265434   2.810   1.409  15.078  0.6958 -0.5782 -0.4724
14648TIP3    H165435   2.793   1.416  15.172  0.1024  1.7580 -0.6658
14648TIP3    H265436   2.738   1.355  15.045 -0.9316  1.1345  0.0585
14649TIP3   OH265437   5.927   6.782  16.415  0.0287  0.4008 -0.1335
14649TIP3    H165438   6.020   6.782  16.391  0.5617  4.0170  1.2742
14649TIP3    H265439   5.891   6.860  16.372 -2.0706 -0.2405  0.3452
14650TIP3   OH265440   4.818   6.378  16.892 -0.0035 -0.1970 -0.6960
14650TIP3    H165441   4.893   6.433  16.914  0.0521 -0.3689 -0.4434
14650TIP3    H265442   4.833   6.298  16.942 -1.5741  0.6715  1.3294
14651TIP3   OH265443   3.545   3.521   3.027 -0.2789 -0.2229 -0.1888
14651TIP3    H165444   3.512   3.604   2.993  0.0444 -0.4662 -1.1334
14651TIP3    H265445   3.475   3.489   3.084 -1.3482 -0.3416 -1.5158
14652TIP3   OH265446   5.078   5.396  16.627 -0.3803 -0.6074  0.0552
14652TIP3    H165447   5.034   5.382  16.543  0.5204  0.1549 -0.5710
14652TIP3    H265448   5.047   5.483  16.655 -0.9156 -0.9891  0.6769
14653TIP3   OH265449   4.159   1.607  12.574 -0.0872  0.1526 -0.1851
14653TIP3    H165450   4.121   1.566  12.651 -0.5096 -0.9139 -0.9390
14653TIP3    H265451   4.203   1.536  12.527  1.3467  1.0334 -0.2424
14654TIP3   OH265452   2.813   6.084  16.893  0.4580  0.1872 -0.1547
14654TIP3    H165453   2.903   6.077  16.861  0.3289 -2.4765 -0.1320
14654TIP3    H265454   2.819   6.144  16.968  2.8843 -2.2886  1.8640
14655TIP3   OH265455   4.478   4.254  11.478 -0.2405  0.2204  0.1315
14655TIP3    H165456   4.497   4.295  11.394 -0.8644  0.0394 -0.1026
14655TIP3    H265457   4.455   4.163  11.456  2.9323 -0.8843  0.7818
14656TIP3   OH265458   0.019   4.407  13.030  0.0331 -0.4715 -0.3052
14656TIP3    H165459  -0.074   4.413  13.010 -0.1447  0.3183  0.6868
14656TIP3    H265460   0.050   4.497  13.026  0.6313 -0.6654 -0.0807
14657TIP3   OH265461   2.216   0.401  13.634 -0.1304 -0.3528 -0.2879
14657TIP3    H165462   2.127   0.392  13.599  0.7160  0.0338 -2.7152
14657TIP3    H265463   2.273   0.366  13.565  1.6184 -0.8446  1.3222
14658TIP3   OH265464   6.831   2.245  14.428 -0.1753  0.7997  0.3480
14658TIP3    H165465   6.924   2.264  14.440  0.0442  0.5220 -0.7625
14658TIP3    H265466   6.807   2.194  14.505  0.1201  2.4177  1.5575
14659TIP3   OH265467   0.858   2.879   5.140 -0.2906  0.0175 -0.2353
14659TIP3    H165468   0.934   2.827   5.167 -1.0502 -1.8928 -1.6107
14659TIP3    H265469   0.789   2.853   5.201  0.2015  2.1704  1.3800
14660TIP3   OH265470   3.914   1.857  15.247  0.6634  0.2533 -0.3534
14660TIP3    H165471   3.901   1.830  15.156 -0.5758 -0.2792 -0.0283
14660TIP3    H265472   3.828   1.848  15.288  1.2157  0.4423  0.8936
14661TIP3   OH265473   6.686   0.755   5.491  0.3610 -0.0823 -0.2261
14661TIP3    H165474   6.662   0.845   5.471  1.7913  0.0571 -1.5145
14661TIP3    H265475   6.730   0.759   5.576 -1.1307  0.1336  0.5672
14662TIP3   OH265476   5.886   5.309   3.201  0.2767 -0.2215  0.3188
14662TIP3    H165477   5.949   5.366   3.157  0.6958  0.1631  1.3675
14662TIP3    H265478   5.835   5.369   3.257  0.9842 -0.9028  1.7381
14663TIP3   OH265479   3.476   5.920  12.698 -0.2315 -0.3437 -0.1502
14663TIP3    H165480   3.506   5.848  12.754 -2.8499  0.4319  2.5149
14663TIP3    H265481   3.381   5.915  12.702 -0.4920  2.0240 -1.6025
14664TIP3   OH265482   2.760   0.596  13.645  0.3958  0.2271  0.0261
14664TIP3    H165483   2.781   0.506  13.619  1.3318  0.3323  0.3786
14664TIP3    H265484   2.844   0.633  13.675  0.2788  1.5787 -1.1844
14665TIP3   OH265485   6.118   4.149   4.721  0.1434 -0.8612 -0.4421
14665TIP3    H165486   6.050   4.086   4.697 -0.3519 -0.6823  0.4541
14665TIP3    H265487   6.080   4.234   4.697  0.0302 -0.7599  0.0861
14666TIP3   OH265488   0.283   5.209   1.505  0.1145 -0.0959 -0.5501
14666TIP3    H165489   0.295   5.161   1.422  0.9585 -0.6906 -0.0954
14666TIP3    H265490   0.368   5.204   1.548 -0.6382 -0.8603  0.9089
14667TIP3   OH265491   5.203   1.166  13.593  0.1285  0.5781 -0.0484
14667TIP3    H165492   5.169   1.149  13.505 -0.5694  0.1100  0.3014
14667TIP3    H265493   5.285   1.214  13.579  1.0798 -1.2039 -1.0497
14668TIP3   OH265494   1.429   4.351  15.406  0.4189  0.2519 -0.1248
14668TIP3    H165495   1.475   4.332  15.488  0.5457 -0.8512 -0.4415
14668TIP3    H265496   1.375   4.274  15.390 -0.7361  1.0861 -0.3208
14669TIP3   OH265497   6.259   3.189   2.187 -0.0823  0.0391 -0.0666
14669TIP3    H165498   6.246   3.221   2.276 -2.2683  0.0525 -0.3194
14669TIP3    H265499   6.315   3.254   2.145 -1.8871  1.9413  0.3165
14670TIP3   OH265500   2.215   2.112  16.687  0.1124 -0.0351  0.6898
14670TIP3    H165501   2.193   2.189  16.633  0.4064 -0.3186  0.1609
14670TIP3    H265502   2.157   2.120  16.763 -0.4565  0.2617  0.2375
14671TIP3   OH265503   2.644   6.771   4.642  0.2710 -0.4216 -0.4316
14671TIP3    H165504   2.603   6.820   4.571 -0.1496 -1.7801 -1.1729
14671TIP3    H265505   2.596   6.688   4.644  1.8994 -1.4014 -0.2439
14672TIP3   OH265506   5.161   1.670   3.042 -0.3115  0.2016 -0.3014
14672TIP3    H165507   5.163   1.607   2.970 -0.4536 -0.9630  0.6872
14672TIP3    H265508   5.076   1.657   3.084 -0.3574  1.0808 -0.1032
14673TIP3   OH265509   0.805   0.332  14.923 -0.3534  0.4246 -0.0146
14673TIP3    H165510   0.774   0.410  14.968  1.0989  0.4003  1.1293
14673TIP3    H265511   0.894   0.354  14.895 -0.2935 -0.4607 -0.5734
14674TIP3   OH265512   5.868   6.357  12.631 -0.3785  0.0022 -0.0166
14674TIP3    H165513   5.906   6.359  12.719  0.9381 -1.0145 -0.5276
14674TIP3    H265514   5.774   6.368  12.645 -0.1194  0.5290  1.4572
14675TIP3   OH265515   2.670   1.817  16.852  0.4220  0.0593  0.0605
14675TIP3    H165516   2.700   1.770  16.929  0.4207  0.1474  0.1140
14675TIP3    H265517   2.734   1.887  16.839  0.6281 -0.1780 -0.2321
14676TIP3   OH265518   1.071   2.715   5.171  0.4356  0.0598  0.0991
14676TIP3    H165519   1.029   2.657   5.107 -1.1917 -0.6531  1.7224
14676TIP3    H265520   1.156   2.735   5.133 -0.8785  0.6242 -2.8283
14677TIP3   OH265521   1.010   5.030  12.308  0.1554 -0.0517 -0.1750
14677TIP3    H165522   1.055   4.958  12.263 -0.0338 -0.8749  0.9100
14677TIP3    H265523   1.070   5.055  12.379  0.7812  1.7207 -1.2675
14678TIP3   OH265524   2.214   0.632  13.356  0.1748  0.1362 -0.1511
14678TIP3    H165525   2.162   0.562  13.394 -0.8069  1.5649  1.2844
14678TIP3    H265526   2.288   0.642  13.415  2.2530 -1.9507 -2.2369
14679TIP3   OH265527   0.137   1.490  14.065  0.3935  0.0302 -0.8477
14679TIP3    H165528   0.168   1.580  14.079  1.9029 -0.4744 -0.7994
14679TIP3    H265529   0.071   1.499  13.996  0.3917  1.2015 -0.7259
14680TIP3   OH265530   4.724   5.325   5.688 -0.0733 -0.3014 -0.0591
14680TIP3    H165531   4.753   5.265   5.758  0.5031  0.1421  0.0864
14680TIP3    H265532   4.634   5.346   5.712 -0.0775 -0.6262  0.2287
14681TIP3   OH265533   4.423   3.422  12.101 -0.5583 -0.4262  0.3024
14681TIP3    H165534   4.474   3.384  12.172 -2.4305 -1.3865  1.2137
14681TIP3    H265535   4.485   3.476  12.053  0.9362 -0.3384  2.2190
14682TIP3   OH265536   0.604   1.838  11.312 -0.4129 -0.4063 -0.2780
14682TIP3    H165537   0.617   1.746  11.335 -2.0281 -0.2061  1.8370
14682TIP3    H265538   0.518   1.859  11.348  0.3189  2.1750  0.1740
14683TIP3   OH265539   3.514   2.473   0.736  0.5039 -0.0638 -0.5537
14683TIP3    H165540   3.558   2.550   0.701 -0.7954  0.8513 -0.2374
14683TIP3    H265541   3.533   2.476   0.830  0.7872 -0.3693 -0.5980
14684TIP3   OH265542   3.274   0.527  14.727  0.2161  0.0780 -0.2620
14684TIP3    H165543   3.203   0.499  14.785  0.1312  0.3858 -0.2171
14684TIP3    H265544   3.279   0.622  14.739 -0.6671  0.3301 -1.7432
14685TIP3   OH265545   1.628   5.581   5.883  0.7930  0.0919  0.1857
14685TIP3    H165546   1.690   5.510   5.899 -2.1767 -2.5962  0.9602
14685TIP3    H265547   1.637   5.640   5.957  1.9350 -0.6044  0.6132
14686TIP3   OH265548   2.968   3.898   4.216 -0.7120  0.4822  0.1978
14686TIP3    H165549   2.908   3.926   4.146 -1.2443 -1.0314 -0.0123
14686TIP3    H265550   3.055   3.906   4.178 -0.8946  1.1303 -0.0921
14687TIP3   OH265551   3.094   3.793   2.768  0.2070  0.1589 -0.3193
14687TIP3    H165552   3.065   3.806   2.858 -0.5649 -1.5203 -0.3053
14687TIP3    H265553   3.032   3.844   2.715  0.9038  1.4801  0.0903
14688TIP3   OH265554   4.820   4.890   4.010  0.1927 -0.1373 -0.2898
14688TIP3    H165555   4.770   4.887   3.928  1.1749 -2.5732 -0.8801
14688TIP3    H265556   4.896   4.945   3.990  0.7330 -1.1927 -1.2382
14689TIP3   OH265557   1.825   2.140  14.849  0.8616  0.0673  0.2741
14689TIP3    H165558   1.761   2.211  14.844  0.4290 -0.3892 -1.1757
14689TIP3    H265559   1.909   2.182  14.831  0.6094  0.2287 -0.5732
14690TIP3   OH265560   5.922   4.969  16.118 -0.7657  0.8943 -0.6811
14690TIP3    H165561   5.906   4.979  16.212 -1.0099  3.7077 -0.9345
14690TIP3    H265562   5.968   4.886  16.110 -1.3146  0.2700  1.8466
14691TIP3   OH265563   4.169   2.636  16.847 -0.0589 -0.5009 -0.1712
14691TIP3    H165564   4.127   2.561  16.889  0.5914 -1.1439 -0.6372
14691TIP3    H265565   4.195   2.603  16.761 -1.9658  0.9553 -1.3911
14692TIP3   OH265566   3.065   3.479  10.511 -0.1272 -0.1182  0.1913
14692TIP3    H165567   3.095   3.542  10.576 -0.4381 -0.8793  1.0956
14692TIP3    H265568   2.976   3.507  10.489 -0.2074 -0.1491  0.4742
14693TIP3   OH265569   0.146   3.450  12.314 -0.2777  0.3556 -0.2649
14693TIP3    H165570   0.199   3.525  12.290 -0.2041  1.3071  2.4733
14693TIP3    H265571   0.135   3.458  12.409 -0.3370 -3.0639  0.1518
14694TIP3   OH265572   2.546   4.683   3.571 -0.4762 -0.1361 -0.2964
14694TIP3    H165573   2.453   4.679   3.548 -1.1009 -0.1560  1.9952
14694TIP3    H265574   2.562   4.775   3.589 -0.2314 -0.2331 -0.0143
14695TIP3   OH265575   0.233   2.324   2.624 -0.0393 -0.2464  0.3476
14695TIP3    H165576   0.321   2.306   2.658  0.0552  0.4003  0.4563
14695TIP3    H265577   0.248   2.383   2.550 -0.3645 -0.3544  0.1948
14696TIP3   OH265578   0.845   2.616  11.417 -0.5615  0.7697  0.6471
14696TIP3    H165579   0.911   2.662  11.470 -0.1970  1.6175 -0.4896
14696TIP3    H265580   0.870   2.524  11.422  1.5933  1.1906 -0.8324
14697TIP3   OH265581   4.704   0.831   2.965 -0.7773 -0.1954 -0.6415
14697TIP3    H165582   4.745   0.820   3.051 -0.9210  0.8606 -0.4190
14697TIP3    H265583   4.740   0.760   2.912 -0.7685 -0.9259  0.3162
14698TIP3   OH265584   0.386   4.682  16.175 -0.7898  0.2830  0.7716
14698TIP3    H165585   0.329   4.726  16.238 -0.6802  1.1133  0.3077
14698TIP3    H265586   0.326   4.634  16.118 -1.1620  2.1207 -0.4655
14699TIP3   OH265587   4.041   5.068  13.480 -0.2258  0.2055  0.0196
14699TIP3    H165588   3.976   5.112  13.536  0.6034  1.1497  0.2708
14699TIP3    H265589   3.990   5.005  13.430 -1.5309  1.6739 -0.5938
14700TIP3   OH265590   2.762   4.209   6.742  0.4221 -0.3617  0.0909
14700TIP3    H165591   2.755   4.118   6.772  0.5892 -0.5270 -0.3575
14700TIP3    H265592   2.839   4.210   6.686  1.3134  0.3996  1.2851
14701TIP3   OH265593   3.725   5.639  13.228 -0.7232 -0.0943 -0.3548
14701TIP3    H165594   3.695   5.727  13.249 -0.5527 -0.6512  2.6182
14701TIP3    H265595   3.814   5.652  13.195 -1.2355  0.9221 -1.4055
14702TIP3   OH265596   1.318   5.461  13.848 -0.0173  0.2800  0.4826
14702TIP3    H165597   1.322   5.540  13.794 -2.0013 -0.1889 -0.4253
14702TIP3    H265598   1.336   5.492  13.937 -0.1482  1.6448  0.0625
14703TIP3   OH265599   3.827   1.184   7.075  0.2180  0.3353  0.2273
14703TIP3    H165600   3.800   1.185   6.983  1.8396  0.3281 -0.2856
14703TIP3    H265601   3.773   1.250   7.117 -1.3884 -0.4910 -0.4640
14704TIP3   OH265602   0.665   5.384   4.866  0.6118 -0.3900 -0.1686
14704TIP3    H165603   0.671   5.426   4.952  0.4706 -0.8364  0.0629
14704TIP3    H265604   0.691   5.293   4.882 -0.8147 -0.8522 -0.3030
14705TIP3   OH265605   1.701   6.168  15.020 -0.4159 -0.0219 -0.2825
14705TIP3    H165606   1.717   6.238  15.084 -0.1059 -0.6979  0.3961
14705TIP3    H265607   1.752   6.194  14.943  0.9920 -0.2753  0.5302
14706TIP3   OH265608   3.162   1.604  11.641  0.0104 -0.1102 -0.4816
14706TIP3    H165609   3.205   1.553  11.709  0.5423  0.2283 -0.5516
14706TIP3    H265610   3.233   1.657  11.603 -0.4069  0.2046 -0.8321
14707TIP3   OH265611   5.237   5.752  16.922  0.5021  0.3552 -0.2790
14707TIP3    H165612   5.257   5.845  16.926  0.6316  0.2999  0.5733
14707TIP3    H265613   5.191   5.733  17.005 -0.7907 -0.0473 -1.0519
14708TIP3   OH265614   0.244   2.778   2.128 -0.1923  0.1098 -0.0678
14708TIP3    H165615   0.206   2.862   2.105  0.2890  0.6109  0.9326
14708TIP3    H265616   0.282   2.791   2.215 -2.2729 -1.8309  1.2247
14709TIP3   OH265617   3.301   3.049  11.943  0.0341 -0.0511  0.7773
14709TIP3    H165618   3.270   2.989  12.011 -0.2634 -2.0874 -1.0364
14709TIP3    H265619   3.224   3.064  11.888  0.1720  1.8601  1.0410
14710TIP3   OH265620   3.175   6.318   0.912 -0.7910 -0.0214  0.4769
14710TIP3    H165621   3.193   6.281   0.998  0.9700 -1.8105 -0.5772
14710TIP3    H265622   3.225   6.400   0.910 -0.5077 -0.1785  1.0254
14711TIP3   OH265623   4.536   2.967   2.386  0.4256  0.0975 -0.3145
14711TIP3    H165624   4.530   2.887   2.438 -0.0188  0.7703  0.6857
14711TIP3    H265625   4.620   3.006   2.411  0.2128  0.4211 -0.0952
14712TIP3   OH265626   0.855   4.614   0.708 -0.1333  0.4262  0.5524
14712TIP3    H165627   0.883   4.657   0.627  0.1247 -0.7683 -0.0091
14712TIP3    H265628   0.905   4.658   0.777  0.0160  1.1147  0.0144
14713TIP3   OH265629   0.909   3.137   0.965 -0.1984  0.4038  0.0599
14713TIP3    H165630   0.935   3.222   0.929 -3.1217  1.9660  1.2916
14713TIP3    H265631   0.824   3.118   0.926 -0.9405 -0.5045  1.9579
14714TIP3   OH265632   5.389   2.480  15.240 -0.3475 -0.3656  0.4394
14714TIP3    H165633   5.444   2.546  15.199  1.2741 -1.2443  1.1241
14714TIP3    H265634   5.369   2.418  15.170 -1.0967  0.3375  0.0188
14715TIP3   OH265635   0.583   0.246   6.279 -0.1604  0.1855 -0.6798
14715TIP3    H165636   0.551   0.219   6.365  1.2185 -2.0137 -0.7889
14715TIP3    H265637   0.657   0.303   6.298 -0.4596  0.5076 -0.4443
14716TIP3   OH265638   6.195   5.618   1.926 -0.0004  0.1746  0.1435
14716TIP3    H165639   6.219   5.681   1.859 -0.9460  0.2327 -0.1559
14716TIP3    H265640   6.101   5.632   1.939 -0.5834 -2.1830 -1.0277
14717TIP3   OH265641   2.122   0.888   2.234 -0.1221 -0.0456 -0.1072
14717TIP3    H165642   2.107   0.802   2.273  1.2481 -0.2920 -0.1104
14717TIP3    H265643   2.147   0.870   2.144 -4.6885  0.5506 -1.7595
14718TIP3   OH265644   2.073   1.968   4.966 -0.4291  0.0618 -0.6776
14718TIP3    H165645   1.998   1.989   4.910  0.0701  1.4990 -0.8626
14718TIP3    H265646   2.136   1.927   4.908 -0.3789  0.4814 -0.9257
14719TIP3   OH265647   5.960   4.440   4.798 -0.3018 -0.0571  0.3769
14719TIP3    H165648   5.936   4.459   4.707  1.9029 -0.4256 -0.3446
14719TIP3    H265649   6.025   4.506   4.820  1.7550 -1.9773  0.4558
14720TIP3   OH265650   0.852   3.894  15.165  0.3182  0.0217  0.0814
14720TIP3    H165651   0.930   3.912  15.112  0.8839 -0.5884  0.6964
14720TIP3    H265652   0.838   3.800  15.157 -0.5668  0.1685 -0.2859
14721TIP3   OH265653   2.868   3.435   2.389  0.9716 -0.8995 -0.2072
14721TIP3    H165654   2.958   3.405   2.391  1.9531  1.6588 -1.7255
14721TIP3    H265655   2.835   3.410   2.303 -0.3526 -3.1157  0.8496
14722TIP3   OH265656   5.255   3.671  16.141  0.1204  0.1095 -0.0966
14722TIP3    H165657   5.302   3.638  16.218  0.6515  1.7770  0.3452
14722TIP3    H265658   5.320   3.668  16.071 -0.2292 -0.9880 -0.3872
14723TIP3   OH265659   1.284   0.804   2.366 -0.0257 -0.9132 -0.0294
14723TIP3    H165660   1.264   0.876   2.425  2.2504 -0.6058  0.4622
14723TIP3    H265661   1.332   0.844   2.294  0.5834 -1.8243 -0.1541
14724TIP3   OH265662   4.608   5.087  10.549 -0.7870  0.1117  0.6410
14724TIP3    H165663   4.642   5.058  10.464 -2.0619 -0.2090  0.2236
14724TIP3    H265664   4.681   5.134  10.589  0.7987 -2.1571  0.5932
14725TIP3   OH265665   3.033   1.683  16.934  0.3106 -0.1313 -0.1021
14725TIP3    H165666   3.073   1.680  17.021 -0.5895 -0.8662  0.3034
14725TIP3    H265667   3.017   1.776  16.918 -2.4264 -0.1104  1.9426
14726TIP3   OH265668   3.078   6.299  17.074  0.3247  0.4537  0.2729
14726TIP3    H165669   3.060   6.309  16.981  2.2549 -0.4798 -0.2615
14726TIP3    H265670   3.004   6.341  17.118 -1.1591 -0.0148 -1.6570
14727TIP3   OH265671   4.928   1.874  14.929  0.1477  0.2203 -0.0933
14727TIP3    H165672   4.941   1.853  14.836  1.0664 -0.3729  0.1599
14727TIP3    H265673   5.014   1.862  14.969 -0.3414 -0.0100  0.9277
14728TIP3   OH265674   2.406   3.861   5.671  0.7319 -0.1383 -0.3655
14728TIP3    H165675   2.416   3.914   5.592  1.3192 -0.9971 -0.8746
14728TIP3    H265676   2.496   3.841   5.697  0.5564 -3.2663 -1.7962
14729TIP3   OH265677   3.285   5.248  13.538  0.1588 -0.1566  0.2365
14729TIP3    H165678   3.344   5.174  13.521 -0.2424 -0.4830  0.2424
14729TIP3    H265679   3.206   5.227  13.488  0.0708  0.3081  0.1792
14730TIP3   OH265680   5.742   4.769   4.109  0.6201 -0.1567  0.4381
14730TIP3    H165681   5.796   4.701   4.069  0.5551  0.4763 -0.7653
14730TIP3    H265682   5.652   4.740   4.094  0.4031  1.9517 -3.5718
14731TIP3   OH265683   4.869   4.026   4.041  0.3144 -0.0057  0.5280
14731TIP3    H165684   4.886   4.001   3.950  1.0687  0.0819  0.6433
14731TIP3    H265685   4.953   4.019   4.085  0.3676  1.7967  0.7901
14732TIP3   OH265686   5.312   3.826   3.749 -0.1809  0.2391  0.2293
14732TIP3    H165687   5.385   3.816   3.810 -0.6873 -0.8746  0.6929
14732TIP3    H265688   5.351   3.809   3.663  0.6124  2.1920  0.1719
14733TIP3   OH265689   3.386   0.711   4.404  0.0883  0.9320 -0.3140
14733TIP3    H165690   3.305   0.662   4.395  0.1049  0.4384  1.7399
14733TIP3    H265691   3.446   0.670   4.342  0.2798 -2.1479  1.6881
14734TIP3   OH265692   4.798   2.734  11.397 -0.0973 -0.4179 -0.1891
14734TIP3    H165693   4.825   2.788  11.472  0.6456 -1.8744  0.6419
14734TIP3    H265694   4.865   2.666  11.392 -1.4251 -1.7194 -0.7033
14735TIP3   OH265695   2.495   1.380  14.893  0.3117 -0.4572 -0.3925
14735TIP3    H165696   2.453   1.442  14.952 -1.6218 -0.4514 -1.6840
14735TIP3    H265697   2.488   1.296  14.937 -1.0035 -0.4344 -0.5146
14736TIP3   OH265698   6.416   5.535   0.752 -0.2869 -0.2801 -0.5058
14736TIP3    H165699   6.470   5.478   0.808  0.8694  0.5962 -0.6892
14736TIP3    H265700   6.393   5.608   0.808  1.0815  0.7254 -1.1971
14737TIP3   OH265701   0.059   3.295   3.121 -1.0200 -0.5216 -0.0259
14737TIP3    H165702   0.085   3.233   3.053  1.5899  0.8894 -0.4301
14737TIP3    H265703   0.043   3.377   3.074  0.0885  0.2739  0.9139
14738TIP3   OH265704   3.977   2.499   3.711  0.0516  0.5531 -0.2582
14738TIP3    H165705   3.968   2.452   3.794 -0.1380  2.0345  0.5959
14738TIP3    H265706   3.887   2.518   3.685 -0.0437 -1.9247 -2.0709
14739TIP3   OH265707   4.499   2.512   6.767  0.5706  0.2137 -0.0381
14739TIP3    H165708   4.437   2.448   6.800  0.0925  0.8368  0.2879
14739TIP3    H265709   4.577   2.501   6.822  1.1419 -1.2433 -1.0771
14740TIP3   OH265710   5.459   0.442   3.381 -0.8149  0.2225 -0.5894
14740TIP3    H165711   5.526   0.387   3.422  1.9838  1.3671 -3.2161
14740TIP3    H265712   5.490   0.532   3.395 -2.1779  0.8283 -1.2959
14741TIP3   OH265713   0.615   5.182   0.863  0.5837  0.2430  0.7932
14741TIP3    H165714   0.578   5.253   0.915 -1.6972 -0.5709  0.4018
14741TIP3    H265715   0.681   5.224   0.809 -1.6467  2.4176 -0.4414
14742TIP3   OH265716   4.117   6.711  17.159  0.1121  0.7249  0.2792
14742TIP3    H165717   4.078   6.625  17.172  1.0624  0.0775 -1.0085
14742TIP3    H265718   4.209   6.694  17.141  0.0670  1.9125 -1.2926
14743TIP3   OH265719   0.278   5.203   4.452 -0.2880 -0.1128  0.0291
14743TIP3    H165720   0.216   5.150   4.400 -0.3471 -0.6844  0.6695
14743TIP3    H265721   0.291   5.282   4.400 -1.9881  0.2750  0.1187
14744TIP3   OH265722   2.235   6.477  14.687 -0.5424  0.1401 -0.8802
14744TIP3    H165723   2.323   6.481  14.651  1.1194  1.0153  2.8328
14744TIP3    H265724   2.209   6.568  14.700 -1.4809 -0.1296 -0.7416
14745TIP3   OH265725   0.199   3.118   2.950 -0.3997 -0.6471  0.5912
14745TIP3    H165726   0.199   3.083   2.861  0.8604  1.5274 -0.3269
14745TIP3    H265727   0.242   3.050   3.002  1.7043 -0.6683 -1.0456
14746TIP3   OH265728   3.089   2.588  14.078 -0.6070 -0.0282 -0.2749
14746TIP3    H165729   3.126   2.518  14.132  0.4094 -0.0479 -0.9685
14746TIP3    H265730   3.104   2.668  14.129 -1.1038 -0.2304  0.1881
14747TIP3   OH265731   3.173   6.082  12.296  0.2357  0.0680 -0.0095
14747TIP3    H165732   3.223   6.163  12.293 -0.2236  0.4733  1.9984
14747TIP3    H265733   3.095   6.099  12.242  1.0017  0.2820 -1.0935
14748TIP3   OH265734   0.656   5.683   0.721 -0.1453 -0.0115 -0.1818
14748TIP3    H165735   0.587   5.660   0.659  0.3595  0.7829 -1.0593
14748TIP3    H265736   0.693   5.599   0.747  0.3617 -0.3285 -1.8152
14749TIP3   OH265737   2.732   2.061  14.180  0.4403 -0.0188  0.1155
14749TIP3    H165738   2.782   1.980  14.169  0.0071 -0.1889 -0.6948
14749TIP3    H265739   2.790   2.118  14.231  1.6486 -0.0503 -1.1558
14750TIP3   OH265740   4.418   4.814   6.351  0.8061 -0.4224  0.2289
14750TIP3    H165741   4.476   4.754   6.399 -0.3461 -1.2501  0.6415
14750TIP3    H265742   4.465   4.897   6.351  1.6240 -0.8502  1.2807
14751TIP3   OH265743   0.827   3.903  14.238 -0.4496  0.2025  0.2449
14751TIP3    H165744   0.808   3.845  14.165  2.3664 -1.3481  0.5696
14751TIP3    H265745   0.742   3.927  14.274 -1.8323 -0.4743 -2.3711
14752TIP3   OH265746   5.438   1.149  13.301 -0.6482 -0.1086 -0.5278
14752TIP3    H165747   5.463   1.226  13.351 -1.0053 -0.7614  0.7046
14752TIP3    H265748   5.518   1.123  13.255 -0.2364  0.3400 -0.0716
14753TIP3   OH265749   0.017   0.750   2.665  0.3424 -0.6846  0.1557
14753TIP3    H165750   0.053   0.735   2.577  1.2695 -0.8279  0.5518
14753TIP3    H265751   0.049   0.677   2.717 -1.2458 -1.2980  0.3350
14754TIP3   OH265752   3.556   3.926  14.496 -0.5248  0.2708 -0.6069
14754TIP3    H165753   3.647   3.919  14.467 -0.4393  0.6938 -0.4514
14754TIP3    H265754   3.555   4.004  14.551 -0.7149 -0.4148  0.3923
14755TIP3   OH265755   2.518   2.828  10.663 -0.2360  0.6881 -0.0518
14755TIP3    H165756   2.593   2.883  10.639  0.4409  0.0854  0.6412
14755TIP3    H265757   2.467   2.822  10.583  0.4349  1.1412 -0.5272
14756TIP3   OH265758   1.481   4.065  11.077 -0.2182 -0.7821 -0.5004
14756TIP3    H165759   1.484   3.982  11.029  1.2247 -0.4210 -1.1091
14756TIP3    H265760   1.483   4.132  11.008 -0.2552 -0.2391  0.0181
14757TIP3   OH265761   4.887   1.434   2.178 -0.4162 -0.1634  0.6470
14757TIP3    H165762   4.814   1.457   2.235 -0.9981  0.5038 -0.3362
14757TIP3    H265763   4.965   1.448   2.232 -0.8682  1.7709  0.8758
14758TIP3   OH265764   5.791   0.662  12.494  0.0404  0.0164  0.0419
14758TIP3    H165765   5.874   0.624  12.465  0.9781  1.1899  1.0626
14758TIP3    H265766   5.743   0.588  12.532  1.4603 -0.3645  1.2041
14759TIP3   OH265767   2.931   0.482   4.127  0.4488 -0.1070 -0.3659
14759TIP3    H165768   2.914   0.431   4.048  1.0707 -0.7618 -0.0898
14759TIP3    H265769   2.914   0.572   4.101  1.6550 -0.1933 -1.5608
14760TIP3   OH265770   4.827   5.994  16.217  0.0355  0.1257  0.1348
14760TIP3    H165771   4.746   6.044  16.210 -0.0377  0.1561  1.0098
14760TIP3    H265772   4.896   6.059  16.206 -0.0621  0.2805  0.4232
14761TIP3   OH265773   6.700   3.603  12.309 -0.5671 -0.2773 -0.2346
14761TIP3    H165774   6.794   3.585  12.312 -0.2476  1.2870  2.5019
14761TIP3    H265775   6.670   3.589  12.399 -2.4802  1.4098 -0.5340
14762TIP3   OH265776   2.354   5.858  13.599 -0.2969 -0.0747 -0.0358
14762TIP3    H165777   2.394   5.863  13.687  0.0746  3.2092 -0.2600
14762TIP3    H265778   2.420   5.814  13.546  1.0177  0.9863  0.6396
14763TIP3   OH265779   1.834   6.469   3.359 -0.0473  0.2180  0.2847
14763TIP3    H165780   1.867   6.547   3.404  0.8515  0.6970 -1.1592
14763TIP3    H265781   1.740   6.485   3.349 -0.4789 -0.3275  2.7703
14764TIP3   OH265782   0.250   2.326  16.925  0.0443  0.1194  0.8080
14764TIP3    H165783   0.182   2.267  16.891  0.1236  0.4161  0.1202
14764TIP3    H265784   0.299   2.354  16.848  0.7856  0.1242  1.2703
14765TIP3   OH265785   3.777   3.783  13.659 -0.3855  0.4264  0.5025
14765TIP3    H165786   3.821   3.766  13.743 -0.0641  0.7146  0.3954
14765TIP3    H265787   3.684   3.786  13.681 -0.4398 -1.0012  0.6041
14766TIP3   OH265788   2.610   5.434  16.472  0.1584 -0.1190  0.4564
14766TIP3    H165789   2.583   5.344  16.490 -0.2893 -0.1985 -0.5424
14766TIP3    H265790   2.639   5.432  16.381 -0.8470  0.9652  0.0922
14767TIP3   OH265791   1.013   4.784   5.326  0.2526 -0.4032  0.2510
14767TIP3    H165792   0.995   4.847   5.397 -0.7728 -0.0790 -0.2729
14767TIP3    H265793   1.037   4.839   5.252 -3.0050 -0.3566 -0.9459
14768TIP3   OH265794   2.422   2.221  11.032  0.0484 -0.4278  0.5265
14768TIP3    H165795   2.477   2.144  11.047 -1.1784 -1.0759  1.9423
14768TIP3    H265796   2.334   2.186  11.021 -0.6886  0.7878  2.1226
14769TIP3   OH265797   5.631   1.729  11.592 -0.1150 -0.4816 -0.5383
14769TIP3    H165798   5.635   1.662  11.524 -1.6663 -0.6552 -0.4958
14769TIP3    H265799   5.560   1.787  11.563  0.0461  0.1455  0.3033
14770TIP3   OH265800   4.747   5.851  13.593 -0.6017  0.2381 -0.4396
14770TIP3    H165801   4.700   5.771  13.571 -1.0927  0.2430  0.5280
14770TIP3    H265802   4.796   5.828  13.672 -0.0761  0.6474 -0.6404
14771TIP3   OH265803   4.446   3.462   3.846  0.3030 -0.2047 -0.0467
14771TIP3    H165804   4.519   3.403   3.828  0.0386 -0.8805  0.9840
14771TIP3    H265805   4.369   3.405   3.848 -0.1349  0.3660 -0.2623
14772TIP3   OH265806   5.278   0.301   5.906  0.6917 -0.0170 -0.5545
14772TIP3    H165807   5.294   0.245   5.831  1.5537 -0.8485  0.2265
14772TIP3    H265808   5.214   0.365   5.875  0.5967 -0.6938 -1.8129
14773TIP3   OH265809   6.720   3.962  14.157 -0.0724  0.1575  0.1004
14773TIP3    H165810   6.757   4.008  14.082  0.7664 -0.7147 -0.0401
14773TIP3    H265811   6.730   4.023  14.230  2.4588 -0.3157  0.2513
14774TIP3   OH265812   5.683   6.501   0.480 -0.4846 -0.4741 -0.3408
14774TIP3    H165813   5.688   6.595   0.494 -1.2082 -0.1949 -1.8017
14774TIP3    H265814   5.764   6.480   0.434 -0.1887 -0.6336  0.2361
14775TIP3   OH265815   1.159   1.046   6.475 -0.0998  0.5547 -0.5606
14775TIP3    H165816   1.240   1.096   6.485 -0.4025  0.8641  0.4530
14775TIP3    H265817   1.136   1.055   6.383 -0.0173  2.0837 -0.4491
14776TIP3   OH265818   3.979   4.118   5.406 -0.1412 -0.5628  0.9570
14776TIP3    H165819   4.027   4.200   5.395  0.5782 -1.1472 -0.5817
14776TIP3    H265820   3.939   4.124   5.493 -2.0984  2.4331 -0.0082
14777TIP3   OH265821   0.174   2.102   0.215 -0.3837  0.0195  0.7225
14777TIP3    H165822   0.106   2.157   0.179  0.0909  0.1148 -0.0489
14777TIP3    H265823   0.131   2.054   0.286 -1.6293 -0.9728 -0.6454
14778TIP3   OH265824   5.378   5.568  16.761 -0.9213 -0.6687 -0.1690
14778TIP3    H165825   5.312   5.614  16.813 -2.0420 -0.2359 -1.8752
14778TIP3    H265826   5.427   5.638  16.717  1.3770 -0.9336  1.7559
14779TIP3   OH265827   2.609   3.353   5.050 -0.8898 -0.0423 -0.2405
14779TIP3    H165828   2.618   3.389   5.139 -2.7262  1.2430 -0.5116
14779TIP3    H265829   2.675   3.400   4.999  0.7748 -1.3999  0.5485
14780TIP3   OH265830   2.894   0.414  10.878 -0.7672 -0.0600 -0.2813
14780TIP3    H165831   2.846   0.477  10.823 -0.7816 -0.3672 -0.6293
14780TIP3    H265832   2.830   0.346  10.898  0.2448 -2.1620 -3.3975
14781TIP3   OH265833   0.792   6.073   1.254  0.2365 -0.5163 -0.1589
14781TIP3    H165834   0.878   6.053   1.291  0.3334 -0.5674 -0.4103
14781TIP3    H265835   0.793   6.167   1.238  1.2579 -0.8910 -2.6892
14782TIP3   OH265836   0.383   0.950   2.678 -0.1167 -0.0675 -0.3450
14782TIP3    H165837   0.460   1.007   2.685 -0.4673  0.4122 -0.4270
14782TIP3    H265838   0.401   0.896   2.601  0.7457 -0.8747  0.3876
14783TIP3   OH265839   2.294   5.389  15.652  0.3455 -0.1902  0.3344
14783TIP3    H165840   2.350   5.466  15.660  0.9897 -0.5366 -0.7176
14783TIP3    H265841   2.208   5.419  15.681  1.2567  0.0782  3.0420
14784TIP3   OH265842   0.084   5.631  13.947 -0.2577  0.4046  0.3888
14784TIP3    H165843   0.113   5.664  13.862  1.1928 -0.4800  0.5106
14784TIP3    H265844   0.001   5.587  13.928 -0.1672  0.5865 -0.4919
14785TIP3   OH265845   4.126   2.152  12.929  0.2791  0.1648 -0.5539
14785TIP3    H165846   4.097   2.077  12.877  1.4424  0.2511 -1.3509
14785TIP3    H265847   4.111   2.125  13.020 -1.9303  0.0801 -0.8855
14786TIP3   OH265848   5.330   0.671   2.030  0.0831 -0.1423  0.1249
14786TIP3    H165849   5.286   0.755   2.043 -0.1615 -0.2132 -0.2111
14786TIP3    H265850   5.332   0.660   1.935  0.1214 -0.5095  0.1662
14787TIP3   OH265851   4.973   4.101  16.574 -0.3596  0.2402  0.0709
14787TIP3    H165852   5.062   4.133  16.566 -0.1528 -0.6433 -1.5418
14787TIP3    H265853   4.928   4.167  16.627  0.7761  1.6511 -0.6731
14788TIP3   OH265854   4.425   5.283   2.626  0.1514 -0.5258  0.2081
14788TIP3    H165855   4.475   5.202   2.613 -0.4898 -0.5893 -2.3405
14788TIP3    H265856   4.460   5.343   2.561 -1.9541 -0.0237 -0.5154
14789TIP3   OH265857   2.488   1.126  16.781 -0.3116  0.4258 -0.0843
14789TIP3    H165858   2.548   1.058  16.811  1.2757  2.3038  1.3241
14789TIP3    H265859   2.414   1.122  16.841 -0.8782 -0.8966 -0.8513
14790TIP3   OH265860   3.111   1.293  11.745 -0.3007  0.1703  0.2019
14790TIP3    H165861   3.082   1.293  11.836  0.1920  1.7898  0.3896
14790TIP3    H265862   3.031   1.306  11.694 -0.6453 -1.2365  0.3570
14791TIP3   OH265863   6.130   6.071  12.203  0.7162 -0.5007 -0.2808
14791TIP3    H165864   6.040   6.052  12.177  0.5127  0.4342 -0.2900
14791TIP3    H265865   6.161   5.989  12.241 -0.7881 -0.3273  1.5304
14792TIP3   OH265866   6.144   6.727   3.013  0.0294 -0.0977 -0.2433
14792TIP3    H165867   6.194   6.803   3.040  1.5179 -0.7828 -0.9643
14792TIP3    H265868   6.189   6.653   3.054  0.4806 -0.8553 -2.0095
14793TIP3   OH265869   0.209   3.737  16.224  0.4997 -0.7999 -0.4748
14793TIP3    H165870   0.237   3.717  16.134  1.5665 -0.7053 -0.1746
14793TIP3    H265871   0.283   3.712  16.278  0.0627 -0.3551  0.3404
14794TIP3   OH265872   6.595   3.753  14.319  0.7277  0.2639 -0.8547
14794TIP3    H165873   6.659   3.694  14.358  0.3271  0.0560 -0.5071
14794TIP3    H265874   6.646   3.806  14.258  1.3704  0.6272 -0.0224
14795TIP3   OH265875   6.011   4.764  10.983 -0.1759  0.2050  0.4187
14795TIP3    H165876   5.947   4.735  10.918 -0.3144 -0.7811  0.9838
14795TIP3    H265877   6.084   4.796  10.930 -0.1154 -0.9682 -0.2542
14796TIP3   OH265878   4.802   6.302   3.269 -0.1795 -0.0509 -0.1506
14796TIP3    H165879   4.810   6.254   3.351 -0.5770  1.6892  0.9497
14796TIP3    H265880   4.867   6.372   3.275 -1.7246  1.4519 -0.3038
14797TIP3   OH265881   5.860   2.350   6.042 -0.5051  0.2545  0.2172
14797TIP3    H165882   5.886   2.361   6.134  2.5199  1.2190 -0.6265
14797TIP3    H265883   5.775   2.394   6.036 -0.3051  1.0780  2.3226
14798TIP3   OH265884   4.554   2.668  11.265 -0.3545 -0.2162  0.5783
14798TIP3    H165885   4.566   2.632  11.178 -0.9786 -0.7149  0.6941
14798TIP3    H265886   4.643   2.684  11.297  0.0029 -2.3132  0.7918
14799TIP3   OH265887   1.968   1.577  14.732 -0.9299 -0.9476 -0.0770
14799TIP3    H165888   2.043   1.583  14.792 -1.4611  3.2451  0.4806
14799TIP3    H265889   2.006   1.549  14.649  0.9999 -0.4466  0.5803
14800TIP3   OH265890   3.928   2.796  12.147 -0.3899 -1.0190  0.7880
14800TIP3    H165891   3.978   2.806  12.067  0.9300 -1.8521  1.4908
14800TIP3    H265892   3.837   2.810  12.120  0.1961  0.6894 -0.4767
14801TIP3   OH265893   6.269   1.242   5.174 -0.0060 -0.1079  0.1076
14801TIP3    H165894   6.326   1.319   5.169 -1.9144  1.2926 -1.9259
14801TIP3    H265895   6.182   1.277   5.193 -0.8284 -1.8121 -0.3431
14802TIP3   OH265896   5.526   3.006   0.554  0.3511  0.6204  0.1036
14802TIP3    H165897   5.443   3.048   0.531 -0.5164 -1.3487 -0.6407
14802TIP3    H265898   5.585   3.027   0.481 -0.3570 -0.1691 -0.7188
14803TIP3   OH265899   0.536   4.761   1.388 -0.1615  0.7760 -0.8280
14803TIP3    H165900   0.546   4.666   1.390  1.1749  0.9033 -0.6909
14803TIP3    H265901   0.537   4.787   1.480  1.0307  1.0488 -0.9008
14804TIP3   OH265902   5.737   2.396  14.878  0.4107 -0.4537 -0.4365
14804TIP3    H165903   5.663   2.351  14.837  0.8594 -1.9445  0.3022
14804TIP3    H265904   5.806   2.395  14.811 -0.2791  1.1997 -1.2314
14805TIP3   OH265905   1.290   1.932  15.366 -0.2566  0.2013 -0.2511
14805TIP3    H165906   1.301   2.000  15.432  2.3560  1.0420 -1.4565
14805TIP3    H265907   1.346   1.860  15.396 -0.4397 -0.1174 -0.6684
14806TIP3   OH265908   1.441   2.455  16.871 -0.0460  0.1923  0.1934
14806TIP3    H165909   1.431   2.360  16.876  0.8207  0.0296 -0.7510
14806TIP3    H265910   1.372   2.482  16.810  0.3251  0.0306 -0.3116
14807TIP3   OH265911   0.753   4.811  14.231  0.2453 -0.3456  0.3842
14807TIP3    H165912   0.839   4.836  14.195  0.5440  0.0425  1.3441
14807TIP3    H265913   0.700   4.890  14.221  0.3687 -0.1927  0.8962
14808TIP3   OH265914   1.868   2.042   2.613  0.5284  0.0331  0.3355
14808TIP3    H165915   1.875   1.984   2.537 -1.0901 -0.2530  0.3591
14808TIP3    H265916   1.952   2.032   2.658  0.9661 -0.9151 -0.6267
14809TIP3   OH265917   5.085   5.409  11.298 -0.2088  0.2555 -0.3737
14809TIP3    H165918   4.991   5.413  11.320 -0.7409  0.8111 -2.5453
14809TIP3    H265919   5.124   5.477  11.353 -1.5789  2.0632 -1.5115
14810TIP3   OH265920   0.287   2.663   5.383  0.0303 -0.0873  0.1499
14810TIP3    H165921   0.358   2.725   5.366  0.5490 -0.7874 -0.3173
14810TIP3    H265922   0.295   2.642   5.477  0.1618  0.1787  0.1971
14811TIP3   OH265923   4.907   5.194  11.661  0.1016  0.2816  0.2234
14811TIP3    H165924   4.867   5.278  11.681  0.1158 -0.0629  1.8813
14811TIP3    H265925   4.876   5.136  11.730 -0.2510 -1.2033 -1.1285
14812TIP3   OH265926   2.706   2.714  14.569 -0.2514  0.2180 -0.2014
14812TIP3    H165927   2.693   2.782  14.636  0.2852 -0.3413  0.4939
14812TIP3    H265928   2.795   2.683  14.585  0.4309  1.0699 -2.1241
14813TIP3   OH265929   2.905   5.916  13.895  0.1576  0.2984  0.2727
14813TIP3    H165930   2.997   5.888  13.900  0.1379  0.0537 -0.5776
14813TIP3    H265931   2.856   5.839  13.924  0.0964 -0.6684 -2.2203
14814TIP3   OH265932   0.090   5.275   2.038  0.2436  0.0574 -0.6634
14814TIP3    H165933   0.061   5.298   1.950  1.3911  1.2646 -0.7604
14814TIP3    H265934   0.072   5.353   2.090  0.8095 -0.1607 -0.1296
14815TIP3   OH265935   4.117   2.950  16.823  0.7649  0.0734  0.1644
14815TIP3    H165936   4.108   2.955  16.728 -1.0595 -0.6628  0.2522
14815TIP3    H265937   4.128   2.857  16.842 -1.4067 -0.1083  0.7942
14816TIP3   OH265938   6.341   3.548   0.464  0.1164 -0.0843 -0.0571
14816TIP3    H165939   6.417   3.545   0.405  0.3259 -1.3268  0.2413
14816TIP3    H265940   6.360   3.621   0.523  2.3331 -1.7943  1.5577
14817TIP3   OH265941   0.672   0.579   3.722 -0.4434  0.0559 -0.2632
14817TIP3    H165942   0.720   0.657   3.751 -0.4483 -0.3739  0.9775
14817TIP3    H265943   0.721   0.547   3.647  0.1862  0.6376 -0.1170
14818TIP3   OH265944   2.127   6.104  14.698 -0.7277  0.1036 -0.4483
14818TIP3    H165945   2.187   6.136  14.631 -1.1622 -0.0762 -0.9356
14818TIP3    H265946   2.175   6.034  14.743  0.2367  1.4361  0.6468
14819TIP3   OH265947   5.451   3.314  12.815 -0.0622 -0.4617  0.6256
14819TIP3    H165948   5.356   3.303  12.809 -0.0324 -0.4088 -0.0243
14819TIP3    H265949   5.466   3.408  12.809  0.1282 -0.5753 -0.9307
14820TIP3   OH265950   5.196   2.269  14.754  0.3356  0.2014  0.4832
14820TIP3    H165951   5.186   2.184  14.796 -0.2020 -1.2519 -2.2920
14820TIP3    H265952   5.123   2.274  14.693  2.5901  0.6779 -2.4349
14821TIP3   OH265953   4.858   4.702   0.258  0.2089  0.1189  0.0985
14821TIP3    H165954   4.793   4.688   0.189  0.4014  0.0324 -0.0654
14821TIP3    H265955   4.941   4.706   0.212  0.6264 -2.1946  0.5313
14822TIP3   OH265956   3.164   5.207   1.076  0.0628 -0.2444 -0.4749
14822TIP3    H165957   3.238   5.267   1.066 -0.0203 -0.3430 -1.7774
14822TIP3    H265958   3.186   5.155   1.153  0.2681  1.2475  0.5155
14823TIP3   OH265959   6.527   0.193  12.754 -0.0672  0.4967 -0.0946
14823TIP3    H165960   6.561   0.257  12.816 -2.2141  0.2745  1.4448
14823TIP3    H265961   6.597   0.182  12.690  1.7764  1.6507  1.5989
14824TIP3   OH265962   0.845   3.569  11.803 -0.1863 -0.2474 -0.0247
14824TIP3    H165963   0.900   3.497  11.772 -1.6273 -1.2887 -0.3108
14824TIP3    H265964   0.855   3.638  11.738 -0.2706 -0.9622 -0.8198
14825TIP3   OH265965   0.065   2.305   5.637 -0.2675  0.1083  0.0121
14825TIP3    H165966   0.061   2.372   5.706  0.5171 -0.6300  0.7912
14825TIP3    H265967   0.159   2.291   5.623 -0.4263 -0.8248 -0.1460
14826TIP3   OH265968   5.819   1.309   5.651 -0.3441  0.1655 -0.5092
14826TIP3    H165969   5.854   1.380   5.597 -0.0932 -1.0659 -2.0773
14826TIP3    H265970   5.885   1.294   5.718  0.0380  0.7993 -0.7407
14827TIP3   OH265971   1.511   4.623   4.425 -0.1123  0.4369  0.7599
14827TIP3    H165972   1.470   4.660   4.503  2.3446  3.1979  0.9075
14827TIP3    H265973   1.604   4.620   4.445  0.3888 -0.7118 -1.3653
14828TIP3   OH265974   4.117   6.428  11.581  0.2524  0.2661  0.0048
14828TIP3    H165975   4.191   6.378  11.546 -1.4035 -1.6264 -1.0101
14828TIP3    H265976   4.046   6.364  11.588 -1.6900  2.2460 -0.2977
14829TIP3   OH265977   6.603   1.796   0.345  0.4543  0.0980 -0.2881
14829TIP3    H165978   6.651   1.752   0.275 -1.7590 -3.3189  0.0770
14829TIP3    H265979   6.511   1.789   0.319 -0.2426  1.0914  1.7283
14830TIP3   OH265980   4.803   5.506   3.837 -0.2406 -0.6961 -0.7277
14830TIP3    H165981   4.756   5.533   3.758  2.0007 -0.2236 -1.9811
14830TIP3    H265982   4.849   5.426   3.812 -0.4963 -1.2643  0.5148
14831TIP3   OH265983   3.110   3.000  12.848 -0.2280  0.7553 -0.8214
14831TIP3    H165984   3.087   2.918  12.803  0.5167 -0.3343  0.6808
14831TIP3    H265985   3.030   3.025  12.894  0.0068 -0.1229  0.1184
14832TIP3   OH265986   2.724   2.157   1.148  0.5840 -0.7823  0.6710
14832TIP3    H165987   2.741   2.241   1.190  0.3750 -0.6564  0.5051
14832TIP3    H265988   2.686   2.179   1.063  0.2674 -1.0481  0.7419
14833TIP3   OH265989   1.868   5.885  10.623  0.3548 -0.4498 -0.4880
14833TIP3    H165990   1.803   5.910  10.557 -0.7441  1.2305  1.1243
14833TIP3    H265991   1.952   5.912  10.586 -0.0462 -0.8988 -1.8026
14834TIP3   OH265992   4.774   4.900   6.040 -0.7396  0.3395  0.3251
14834TIP3    H165993   4.756   4.814   6.001  1.0010 -0.3207  0.8784
14834TIP3    H265994   4.861   4.923   6.007  0.1263  0.4782  2.5315
14835TIP3   OH265995   1.293   2.719   3.877 -0.4096 -0.2118 -0.1335
14835TIP3    H165996   1.212   2.668   3.874  0.5166 -1.8326  0.5737
14835TIP3    H265997   1.325   2.719   3.787  0.2084 -2.0507  0.0377
14836TIP3   OH265998   0.590   4.956   4.342 -0.4793  0.0581 -0.2264
14836TIP3    H165999   0.594   4.953   4.438 -1.8196  2.0241 -0.0492
14836TIP3    H266000   0.527   4.889   4.318  1.7466 -2.2518  0.0073
14837TIP3   OH266001   5.262   4.899  16.470 -0.1984  0.3212  0.0012
14837TIP3    H166002   5.327   4.936  16.410 -0.1038  0.9390  0.4792
14837TIP3    H266003   5.281   4.939  16.554 -1.2699  0.6158  0.1288
14838TIP3   OH266004   1.547   3.388  14.089 -0.4619  0.4163  0.1870
14838TIP3    H166005   1.640   3.368  14.098 -0.6402 -0.8751 -0.6315
14838TIP3    H266006   1.545   3.481  14.066  0.5575  0.7479  1.3314
14839TIP3   OH266007   6.643   6.315  12.333  0.0441 -0.2144 -0.7100
14839TIP3    H166008   6.682   6.245  12.280  1.6901 -0.0639  0.2195
14839TIP3    H266009   6.700   6.390  12.319  0.4283 -0.1203  1.0679
14840TIP3   OH266010   5.000   5.157  16.740 -0.1738 -0.0820  0.3625
14840TIP3    H166011   5.022   5.240  16.698 -1.7954 -0.1014 -0.6155
14840TIP3    H266012   4.988   5.095  16.668 -0.5859 -0.7497  0.9868
14841TIP3   OH266013   5.630   1.244  15.507  0.0202 -0.4202 -0.5343
14841TIP3    H166014   5.551   1.224  15.558  0.0741 -0.3158 -0.4102
14841TIP3    H266015   5.615   1.333  15.475 -0.9768 -1.2321 -2.4859
14842TIP3   OH266016   2.589   3.960   2.528 -0.1810 -0.4674  0.3567
14842TIP3    H166017   2.502   3.974   2.566 -0.9124 -0.3390 -1.2743
14842TIP3    H266018   2.640   3.920   2.599 -0.8314  1.6336  2.1050
14843TIP3   OH266019   0.214   5.041   0.533 -0.7806  0.2876  0.6232
14843TIP3    H166020   0.273   5.102   0.488 -3.1689  2.6266  0.3878
14843TIP3    H266021   0.219   5.066   0.625 -0.9846  0.1367  0.6767
14844TIP3   OH266022   1.839   0.879   1.709 -0.8128 -0.0889 -0.5477
14844TIP3    H166023   1.890   0.811   1.753  0.6978  1.6745  0.5917
14844TIP3    H266024   1.880   0.888   1.623 -1.2159 -0.8188 -0.8178
14845TIP3   OH266025   5.617   5.996   4.237 -0.1195 -0.2394  0.2653
14845TIP3    H166026   5.578   6.044   4.165  0.7591 -0.2664 -0.2448
14845TIP3    H266027   5.543   5.970   4.292 -0.7714  0.0130 -0.4803
14846TIP3   OH266028   0.511   6.102   1.241 -0.3576  0.2314  0.3993
14846TIP3    H166029   0.601   6.074   1.256  0.6427  2.2501 -1.3697
14846TIP3    H266030   0.491   6.158   1.316  0.1395  0.3909  0.4159
14847TIP3   OH266031   3.575   6.160  11.933 -0.1136  0.3866 -0.0769
14847TIP3    H166032   3.519   6.103  11.986 -1.1003  0.4645 -0.9868
14847TIP3    H266033   3.648   6.183  11.991 -0.4363 -0.6314  0.7752
14848TIP3   OH266034   6.715   6.141  15.958  0.0784 -0.3922  0.0819
14848TIP3    H166035   6.762   6.105  16.033 -0.5359 -2.1613 -0.3307
14848TIP3    H266036   6.633   6.092  15.955 -0.0712 -0.1088 -1.5294
14849TIP3   OH266037   4.406   0.559  16.739  0.5619  0.3335  0.2064
14849TIP3    H166038   4.355   0.598  16.810  1.4804  0.3455  0.8809
14849TIP3    H266039   4.477   0.513  16.783 -0.2271 -1.7733 -0.5935
14850TIP3   OH266040   4.838   4.302  13.541  0.7103 -0.4141  0.1389
14850TIP3    H166041   4.927   4.271  13.528  0.3294 -2.2439  1.4743
14850TIP3    H266042   4.829   4.309  13.637 -0.5123 -0.0620  0.0219
14851TIP3   OH266043   3.558   1.506   4.232 -0.4787  0.8429  0.5420
14851TIP3    H166044   3.511   1.479   4.153 -0.6852 -0.2386  1.0216
14851TIP3    H266045   3.490   1.510   4.300 -0.2674  1.5742  0.7179
14852TIP3   OH266046   5.785   5.620   0.292 -0.4234 -0.6390  0.7827
14852TIP3    H166047   5.746   5.533   0.287 -0.6548 -0.5039  0.0847
14852TIP3    H266048   5.783   5.652   0.202 -0.4388  0.1269  1.0470
14853TIP3   OH266049   0.692   5.107  16.836  0.0176 -0.2336 -0.5438
14853TIP3    H166050   0.770   5.077  16.884 -0.6734 -1.1395  0.0431
14853TIP3    H266051   0.625   5.044  16.858 -0.5807 -0.1374 -2.0003
14854TIP3   OH266052   2.159   4.215  16.928  0.1488  0.7689  0.5132
14854TIP3    H166053   2.204   4.137  16.897  0.2406  0.9918  0.0834
14854TIP3    H266054   2.220   4.287  16.913  1.1150  0.6206  3.2738
14855TIP3   OH266055   3.894   6.461  11.238 -0.4667 -0.3258 -0.1137
14855TIP3    H166056   3.887   6.503  11.323 -1.6523  1.5113 -1.0442
14855TIP3    H266057   3.804   6.464  11.203  0.2821  0.5407 -2.1088
14856TIP3   OH266058   3.517   5.215  12.596  0.2417  0.1100  0.3920
14856TIP3    H166059   3.589   5.270  12.626  0.5386 -0.8730  1.5706
14856TIP3    H266060   3.454   5.276  12.557  1.4922  1.0351 -0.2611
14857TIP3   OH266061   1.816   5.115  14.766 -0.1094  0.0958 -0.3417
14857TIP3    H166062   1.902   5.092  14.730  0.9244 -1.2535  2.6655
14857TIP3    H266063   1.827   5.206  14.797 -0.3290  0.5105 -1.4515
14858TIP3   OH266064   1.136   6.184  15.309 -0.2658 -0.3840 -0.6237
14858TIP3    H166065   1.081   6.242  15.257  0.2486 -0.3983 -1.1859
14858TIP3    H266066   1.194   6.142  15.246  0.8232  0.0866  0.0328
14859TIP3   OH266067   2.143   2.303  16.482 -0.5337 -0.1628 -0.2312
14859TIP3    H166068   2.146   2.393  16.513  0.8381  0.3719 -1.7550
14859TIP3    H266069   2.065   2.298  16.427 -0.7816 -0.0023  0.1067
14860TIP3   OH266070   0.922   5.675  13.409 -0.0789  0.2050  0.9184
14860TIP3    H166071   0.935   5.689  13.503  1.1203  0.8443  0.6793
14860TIP3    H266072   0.960   5.753  13.368 -0.9261  0.1123 -0.0863
14861TIP3   OH266073   0.419   3.298  15.885 -0.2332  0.3995 -0.1875
14861TIP3    H166074   0.500   3.343  15.862  0.3372 -0.1448  0.7267
14861TIP3    H266075   0.403   3.240  15.810  1.5312 -1.2521  0.6258
14862TIP3   OH266076   2.490   5.483   1.537  0.2956 -0.4821 -0.0631
14862TIP3    H166077   2.459   5.545   1.604  0.6355  1.9587 -2.0001
14862TIP3    H266078   2.410   5.447   1.499  0.0694 -0.6868  0.5973
14863TIP3   OH266079   4.685   2.277  17.063 -0.1453  0.4702 -0.0479
14863TIP3    H166080   4.600   2.291  17.022 -0.2843 -0.7980 -0.2222
14863TIP3    H266081   4.746   2.328  17.009 -0.6235  0.4301 -0.6403
14864TIP3   OH266082   1.991   0.611   6.244 -0.0736 -0.1003  0.0186
14864TIP3    H166083   1.926   0.616   6.315 -0.2568  1.9095 -0.2306
14864TIP3    H266084   1.940   0.589   6.166 -0.5069  1.4292 -0.1672
14865TIP3   OH266085   2.312   2.494   1.886 -0.0642  0.2742  0.5558
14865TIP3    H166086   2.253   2.559   1.847  0.4744  0.6189  0.3113
14865TIP3    H266087   2.375   2.474   1.817 -0.2582 -0.5596  0.6077
14866TIP3   OH266088   0.618   5.915  13.272  0.2818 -0.1359  0.4383
14866TIP3    H166089   0.675   5.992  13.269 -0.0809  0.1339  0.3843
14866TIP3    H266090   0.638   5.868  13.191 -1.5320  1.3921 -0.9887
14867TIP3   OH266091   0.262   0.141   6.152 -0.8934  0.7506  0.2953
14867TIP3    H166092   0.270   0.190   6.234  0.3654 -1.2752  1.4706
14867TIP3    H266093   0.223   0.058   6.177 -2.6952  0.9471 -1.5868
14868TIP3   OH266094   4.827   4.640   2.192 -0.2465 -0.0245  0.4648
14868TIP3    H166095   4.767   4.627   2.119 -0.8484 -0.3697  1.0065
14868TIP3    H266096   4.772   4.677   2.261 -0.2678 -2.0232  1.5941
14869TIP3   OH266097   2.051   0.252   4.239 -0.0030 -0.3194  0.1831
14869TIP3    H166098   2.033   0.283   4.150 -1.6659  0.0688  0.6088
14869TIP3    H266099   1.964   0.247   4.279  0.7540 -0.1748  1.8845
14870TIP3   OH266100   1.547   3.870  13.321  0.1798 -0.2499  0.5314
14870TIP3    H166101   1.497   3.855  13.241 -1.4569 -0.1618  1.4927
14870TIP3    H266102   1.582   3.784  13.344  0.5037 -0.3108 -0.1576
14871TIP3   OH266103   4.889   1.338   6.128 -0.6021 -0.2245  0.3415
14871TIP3    H166104   4.799   1.310   6.115 -0.2390 -1.1234 -0.3378
14871TIP3    H266105   4.890   1.429   6.099 -1.2627 -0.2421  0.2491
14872TIP3   OH266106   5.243   6.118   3.520  0.2357 -0.2914 -0.3464
14872TIP3    H166107   5.202   6.141   3.603 -2.3751  0.8884 -1.8383
14872TIP3    H266108   5.324   6.169   3.518 -1.3883  2.5388  0.0282
14873TIP3   OH266109   4.798   4.931  12.840  0.5460 -0.0355  0.1482
14873TIP3    H166110   4.795   4.952  12.747  3.0444 -0.5076 -0.1103
14873TIP3    H266111   4.856   4.855  12.846 -0.2938 -0.5900  2.0186
14874TIP3   OH266112   4.068   2.204   3.422 -0.8112 -0.4624 -0.0613
14874TIP3    H166113   3.993   2.262   3.435  1.4840  2.7203  0.2230
14874TIP3    H266114   4.084   2.206   3.328  0.4998  1.2091  0.1457
14875TIP3   OH266115   4.433   0.807   1.616 -0.0551  0.2472  0.0479
14875TIP3    H166116   4.500   0.825   1.550 -1.3298  0.9562 -1.1017
14875TIP3    H266117   4.463   0.728   1.660  0.8926 -0.1707 -1.3038
14876TIP3   OH266118   2.032   4.374   3.469 -1.0877 -0.6158  0.1841
14876TIP3    H166119   2.093   4.347   3.537  0.3529  0.6597 -0.5312
14876TIP3    H266120   1.948   4.381   3.513 -0.5714 -1.6209  1.3866
14877TIP3   OH266121   4.130   4.772   0.532 -0.3855  1.0260  0.0647
14877TIP3    H166122   4.154   4.733   0.448 -0.8843 -0.6186  0.6489
14877TIP3    H266123   4.204   4.829   0.554  1.7965 -1.7648  0.5006
14878TIP3   OH266124   2.017   6.366  15.270 -0.3405 -0.1304 -0.1960
14878TIP3    H166125   1.995   6.387  15.179 -0.2624  0.2646 -0.1295
14878TIP3    H266126   2.013   6.271  15.275 -2.2277 -0.1040 -0.1451
14879TIP3   OH266127   6.109   1.604   3.664  0.1731 -0.3968  0.3770
14879TIP3    H166128   6.065   1.560   3.591 -0.3219 -0.9451  0.9942
14879TIP3    H266129   6.041   1.659   3.703  0.3932 -0.2300  0.5240
14880TIP3   OH266130   3.425   5.128   5.972  0.3820 -0.0916  0.1165
14880TIP3    H166131   3.425   5.064   6.044  0.5400 -0.4093 -0.1585
14880TIP3    H266132   3.464   5.207   6.010  0.4517 -0.2517  0.3837
14881TIP3   OH266133   6.003   0.496  14.890 -0.3449 -0.3487 -0.5926
14881TIP3    H166134   5.977   0.555  14.960 -0.3878 -0.2055 -0.7274
14881TIP3    H266135   5.981   0.543  14.809 -0.0397 -0.3927 -0.7049
14882TIP3   OH266136   5.284   3.519   1.695 -0.3095 -0.5888  0.1261
14882TIP3    H166137   5.353   3.460   1.665  0.9987  1.0737 -0.2510
14882TIP3    H266138   5.205   3.488   1.650  0.5525 -1.4142 -0.8727
14883TIP3   OH266139   2.789   0.922  14.461  0.3038 -0.3870  0.1810
14883TIP3    H166140   2.702   0.961  14.465  1.0300  1.2580  0.7089
14883TIP3    H266141   2.780   0.850  14.398 -1.0455  0.8083 -1.0619
14884TIP3   OH266142   6.286   2.157  13.527  0.0812 -0.3330 -0.9455
14884TIP3    H166143   6.344   2.096  13.572 -0.7517 -0.4695 -0.0152
14884TIP3    H266144   6.288   2.128  13.435  0.8293 -0.8393 -0.7794
14885TIP3   OH266145   0.148   5.282  14.554  0.0859  0.5442 -0.5270
14885TIP3    H166146   0.055   5.302  14.552  0.1886  0.9707 -1.2634
14885TIP3    H266147   0.163   5.245  14.641 -0.6626  0.9738 -0.2104
14886TIP3   OH266148   0.991   1.884   3.662  0.4205  0.0276  0.1704
14886TIP3    H166149   0.925   1.904   3.729 -0.9245 -0.0749 -1.0704
14886TIP3    H266150   1.063   1.945   3.680 -0.4900  0.9238  0.8944
14887TIP3   OH266151   0.830   1.884   0.833 -0.2876  0.8293  0.1341
14887TIP3    H166152   0.849   1.821   0.764 -1.2500  0.1275  0.4892
14887TIP3    H266153   0.791   1.959   0.787  0.8026  1.1616 -0.2798
14888TIP3   OH266154   2.512   2.143  17.188 -0.8591 -0.9571 -0.0678
14888TIP3    H166155   2.577   2.099  17.134 -0.6293 -1.2959  0.4855
14888TIP3    H266156   2.438   2.158  17.129 -0.0574 -0.0177 -0.8706
14889TIP3   OH266157   6.709   5.361  14.596  0.4788  0.1114 -0.0390
14889TIP3    H166158   6.661   5.416  14.535  1.6466  1.2253  0.0072
14889TIP3    H266159   6.659   5.366  14.678  1.1263  2.0226  0.2876
14890TIP3   OH266160   3.530   5.413  14.099 -0.9096 -0.2142  0.0777
14890TIP3    H166161   3.595   5.407  14.168 -1.1586 -2.5122  0.2119
14890TIP3    H266162   3.566   5.475  14.036  0.3441  0.2392  1.2155
14891TIP3   OH266163   1.424   0.527  13.518 -0.2997 -0.5171 -0.4304
14891TIP3    H166164   1.406   0.513  13.611 -0.3601  0.0651 -0.3498
14891TIP3    H266165   1.337   0.541  13.479 -0.2895 -0.9281 -0.6053
14892TIP3   OH266166   2.010   6.561   0.621  0.6270  0.7029  0.0873
14892TIP3    H166167   2.076   6.553   0.553  3.1402  0.1681  2.4143
14892TIP3    H266168   2.004   6.473   0.659  0.7357  1.4024  1.7915
14893TIP3   OH266169   4.912   1.259  11.375  0.7364  0.4360 -0.2407
14893TIP3    H166170   4.965   1.192  11.418  0.1695 -0.5573 -1.0409
14893TIP3    H266171   4.825   1.249  11.412  0.3862 -0.0284 -1.1542
14894TIP3   OH266172   4.634   1.202  14.830  0.4996 -0.5268  0.6752
14894TIP3    H166173   4.612   1.246  14.913  1.2731 -0.2574  0.7422
14894TIP3    H266174   4.584   1.250  14.764  1.8333  0.9225  0.6555
14895TIP3   OH266175   6.705   6.217   3.721 -0.2104 -0.1427 -0.3859
14895TIP3    H166176   6.630   6.230   3.663 -1.1224 -0.1305  0.7509
14895TIP3    H266177   6.737   6.306   3.740  0.2051 -0.1550 -0.9910
14896TIP3   OH266178   1.772   2.328   6.346 -0.2434 -0.2267  0.2662
14896TIP3    H166179   1.724   2.330   6.263  1.7149  0.6059 -0.9163
14896TIP3    H266180   1.769   2.419   6.378 -0.0027 -0.2997  0.5051
14897TIP3   OH266181   4.800   5.202  15.473 -0.3284  0.3616 -0.3344
14897TIP3    H166182   4.706   5.187  15.485 -0.4291 -0.3765 -1.7751
14897TIP3    H266183   4.805   5.271  15.406  0.1189 -0.8104 -1.5587
14898TIP3   OH266184   0.726   6.728   3.505  0.5334  0.4977  0.3118
14898TIP3    H166185   0.659   6.669   3.539 -0.5296  1.5398  0.0893
14898TIP3    H266186   0.716   6.723   3.409 -0.2884  1.8260  0.3153
14899TIP3   OH266187   4.749   1.074   5.565  0.1182 -0.2493 -0.2399
14899TIP3    H166188   4.698   0.996   5.588 -0.2400 -0.0445 -0.3310
14899TIP3    H266189   4.779   1.108   5.649 -0.0430 -0.2743 -0.1710
14900TIP3   OH266190   4.257   4.688  16.038  0.4085 -0.6637  0.1023
14900TIP3    H166191   4.274   4.608  16.087  0.0288 -2.3839 -2.3452
14900TIP3    H266192   4.235   4.657  15.949 -2.2449  2.0037 -0.3533
14901TIP3   OH266193   2.699   0.117   1.838  0.3950  0.1638  0.4191
14901TIP3    H166194   2.699   0.165   1.755 -3.7650  0.7437  0.5622
14901TIP3    H266195   2.607   0.095   1.853  1.3885 -2.7205  3.3523
14902TIP3   OH266196   6.156   3.816  13.141 -0.1105 -0.1102 -0.1748
14902TIP3    H166197   6.087   3.843  13.081 -0.2962  1.0304  0.5391
14902TIP3    H266198   6.126   3.844  13.227  1.4385  0.8189  0.0921
14903TIP3   OH266199   1.820   6.092   1.752  0.1948  0.5138  0.1797
14903TIP3    H166200   1.774   6.175   1.741 -0.8631  0.5215  3.6028
14903TIP3    H266201   1.766   6.043   1.814  1.4750 -2.2358 -0.7351
14904TIP3   OH266202   4.021   0.315  15.539  0.1462  0.1951 -0.0879
14904TIP3    H166203   4.060   0.402  15.545  0.7812 -0.0603 -0.3553
14904TIP3    H266204   4.036   0.275  15.625  0.5294  0.0815 -0.2037
14905TIP3   OH266205   1.666   4.676  12.234 -0.0233  0.1245 -0.0702
14905TIP3    H166206   1.755   4.673  12.269  0.4283  1.4793 -1.0330
14905TIP3    H266207   1.677   4.672  12.139 -1.0492 -0.4695 -0.1774
14906TIP3   OH266208   1.872   4.767   1.993 -0.0007 -0.2502  0.6274
14906TIP3    H166209   1.875   4.710   1.916 -1.0889 -0.8619  1.0089
14906TIP3    H266210   1.889   4.855   1.959 -0.4117 -0.5166 -0.3102
14907TIP3   OH266211   3.659   5.540  15.287  0.8511  0.1510  0.2542
14907TIP3    H166212   3.688   5.472  15.347  1.0990  0.4178  0.4369
14907TIP3    H266213   3.580   5.505  15.247  0.6234  0.0211  0.8171
14908TIP3   OH266214   5.465   0.785  15.002 -0.1146  0.1126  0.0357
14908TIP3    H166215   5.450   0.752  15.091 -1.7302 -0.1338 -0.2947
14908TIP3    H266216   5.389   0.754  14.952  0.4024  0.8715 -1.2604
14909TIP3   OH266217   3.792   1.210  11.210  0.2766  0.3103 -0.4868
14909TIP3    H166218   3.729   1.168  11.151 -1.5549  2.1013  0.0533
14909TIP3    H266219   3.741   1.230  11.288  1.6278  1.5119  0.1249
14910TIP3   OH266220   6.063   5.930   5.418  0.7131  0.6694 -0.4149
14910TIP3    H166221   6.079   5.975   5.501  0.8810 -1.6036  0.8894
14910TIP3    H266222   6.149   5.928   5.375  1.2783 -0.5261  0.6948
14911TIP3   OH266223   0.433   4.198  15.703  0.1528  0.9116 -0.6905
14911TIP3    H166224   0.384   4.182  15.622  1.3526  0.2417 -1.3163
14911TIP3    H266225   0.400   4.132  15.764  1.0533 -0.2901 -1.4690
14912TIP3   OH266226   0.856   0.452   4.507  0.3841  0.6627  0.0488
14912TIP3    H166227   0.943   0.467   4.469  1.6405 -1.4465  1.7970
14912TIP3    H266228   0.836   0.361   4.485 -1.9733  1.4272 -1.2620
14913TIP3   OH266229   2.466   6.593   4.729  0.3994  0.3551 -0.1283
14913TIP3    H166230   2.408   6.522   4.754  0.7512  0.3868  0.8063
14913TIP3    H266231   2.409   6.670   4.724  0.1413  0.1442 -0.4805
14914TIP3   OH266232   0.341   1.027   4.111  0.0542  0.4947 -0.3442
14914TIP3    H166233   0.306   1.086   4.044  0.0984  1.9345  0.8445
14914TIP3    H266234   0.416   0.985   4.070 -0.7979  0.2009 -1.6726
14915TIP3   OH266235   1.355   3.424  14.604 -0.4518 -0.5021 -0.0586
14915TIP3    H166236   1.322   3.431  14.693 -1.1958  0.2727 -0.3785
14915TIP3    H266237   1.277   3.421  14.549 -0.0109 -1.4224 -0.6689
14916TIP3   OH266238   4.797   3.974   2.254  0.1041 -0.1768  0.5123
14916TIP3    H166239   4.870   3.927   2.295 -0.2016  0.3507  1.6945
14916TIP3    H266240   4.750   3.907   2.204  0.6098 -0.7941  0.8518
14917TIP3   OH266241   4.043   3.426  10.541  0.1365 -0.6026 -0.2825
14917TIP3    H166242   3.978   3.471  10.486  0.1640 -0.6378 -0.3430
14917TIP3    H266243   4.039   3.334  10.514 -0.7668 -0.8627  0.6547
14918TIP3   OH266244   0.128   0.867  16.523 -0.2608  0.3115  0.3443
14918TIP3    H166245   0.130   0.817  16.605  0.6830 -0.3949 -0.0835
14918TIP3    H266246   0.108   0.801  16.456  0.2731  0.6307 -0.1418
14919TIP3   OH266247   4.417   4.602   0.495  0.4700 -0.0962 -0.1632
14919TIP3    H166248   4.506   4.606   0.460  0.7549  1.1273  0.6735
14919TIP3    H266249   4.394   4.693   0.514 -0.8867 -0.4157 -0.1583
14920TIP3   OH266250   6.191   5.177   4.976  0.0463 -0.1288 -0.1080
14920TIP3    H166251   6.203   5.264   4.939  2.7143 -0.6728 -0.7525
14920TIP3    H266252   6.179   5.120   4.900  1.4834 -0.7193  0.0852
14921TIP3   OH266253   6.034   1.571   4.715  0.0459 -0.2583  0.2265
14921TIP3    H166254   5.954   1.534   4.753  0.9091 -0.3576  2.0268
14921TIP3    H266255   6.080   1.610   4.789  1.1040  0.8801 -0.9762
14922TIP3   OH266256   0.914   0.407   2.694  0.3722 -0.0865 -0.1047
14922TIP3    H166257   0.976   0.383   2.625  0.1002 -0.0101 -0.3784
14922TIP3    H266258   0.832   0.363   2.669  0.0365  0.6201 -0.2843
14923TIP3   OH266259   3.614   6.473   0.902  0.2364  0.4680 -0.5903
14923TIP3    H166260   3.589   6.460   0.994 -1.0077 -0.0186 -0.9884
14923TIP3    H266261   3.640   6.565   0.898  1.1266  0.2858  0.4274
14924TIP3   OH266262   5.646   5.115   2.411  0.3547  0.6749 -0.0714
14924TIP3    H166263   5.645   5.020   2.420  1.2764  0.5854 -0.7603
14924TIP3    H266264   5.736   5.136   2.386  0.4674  1.8446  1.1882
14925TIP3   OH266265   3.597   1.830   1.888  0.9841 -0.2934  0.5032
14925TIP3    H166266   3.539   1.800   1.958  1.1078 -0.4887  0.5246
14925TIP3    H266267   3.685   1.821   1.925  1.0656 -0.6851  0.2168
14926TIP3   OH266268   0.892   0.375   5.716 -0.4314  0.5157 -0.5061
14926TIP3    H166269   0.833   0.450   5.727 -1.4281 -0.2789 -0.2953
14926TIP3    H266270   0.921   0.381   5.625 -1.4091  0.5115 -0.8295
14927TIP3   OH266271   5.829   5.238   3.539  0.4293  0.4962 -0.0500
14927TIP3    H166272   5.804   5.146   3.540  0.8574  0.3754  0.0934
14927TIP3    H266273   5.747   5.286   3.531  0.1668  0.1154  0.3378
14928TIP3   OH266274   0.259   5.616   1.995  0.1631 -0.3102  0.1214
14928TIP3    H166275   0.204   5.591   2.068 -0.8752 -0.6715 -0.7606
14928TIP3    H266276   0.277   5.709   2.010 -2.5663  0.4558 -0.6847
14929TIP3   OH266277   2.990   2.294  12.727  0.3472  0.7353 -0.1587
14929TIP3    H166278   3.075   2.324  12.698  0.6435 -0.5970 -0.7411
14929TIP3    H266279   2.986   2.319  12.819  1.3100  0.9322 -0.1604
14930TIP3   OH266280   6.751   6.533   6.195 -0.4582 -0.0717  0.1373
14930TIP3    H166281   6.753   6.446   6.233 -0.7632 -0.3736 -0.5283
14930TIP3    H266282   6.836   6.542   6.152  0.4578  0.8006  2.0135
14931TIP3   OH266283   4.908   1.377  16.796 -0.5798 -0.5225 -0.1528
14931TIP3    H166284   4.906   1.386  16.891 -1.5552 -0.2703 -0.1922
14931TIP3    H266285   4.832   1.425  16.765  0.3697  0.4128 -1.1580
14932TIP3   OH266286   2.676   5.025   5.012  0.1983 -0.1769  0.2111
14932TIP3    H166287   2.764   4.986   5.017  0.4380  0.5148  1.7834
14932TIP3    H266288   2.690   5.109   4.970 -0.1171 -1.1070 -1.8774
14933TIP3   OH266289   5.020   3.814   2.394 -0.0305 -0.1870  0.0433
14933TIP3    H166290   5.040   3.754   2.323 -1.1723  0.2120 -0.6367
14933TIP3    H266291   4.948   3.773   2.442  1.2876 -0.8784  1.5405
14934TIP3   OH266292   0.484   5.202   1.130 -0.2722  0.1256  0.0195
14934TIP3    H166293   0.513   5.116   1.097  0.0147  0.4310 -0.5429
14934TIP3    H266294   0.397   5.186   1.165  0.4138 -0.7520  1.4419
14935TIP3   OH266295   5.045   6.372   5.342 -0.0908  0.6309  0.2349
14935TIP3    H166296   4.968   6.363   5.398 -0.7606  0.6259 -0.6777
14935TIP3    H266297   5.119   6.362   5.403 -0.7675 -2.0052  0.7666
14936TIP3   OH266298   5.620   3.381  13.892 -0.6649  0.0467  0.0910
14936TIP3    H166299   5.537   3.429  13.894 -1.0634 -0.6546  1.7650
14936TIP3    H266300   5.675   3.431  13.832 -1.7203  1.4976  0.2911
14937TIP3   OH266301   4.575   0.242   4.909 -0.4413  0.5739  0.0002
14937TIP3    H166302   4.510   0.182   4.871  0.0602  0.8233 -1.3246
14937TIP3    H266303   4.529   0.285   4.981 -1.5279  0.2488 -0.4803
14938TIP3   OH266304   5.669   2.813  11.056 -0.0779  0.1392 -0.3482
14938TIP3    H166305   5.707   2.835  10.972  0.9313 -0.6199 -0.1200
14938TIP3    H266306   5.575   2.823  11.044 -0.0416 -0.9709 -1.8889
14939TIP3   OH266307   0.194   3.570   0.397 -0.5222 -0.3052 -0.1567
14939TIP3    H166308   0.237   3.489   0.424  1.1483 -0.3825 -2.7018
14939TIP3    H266309   0.266   3.630   0.376 -1.7100  1.0782 -0.4768
14940TIP3   OH266310   2.389   1.252   3.888 -0.3480  0.1369 -0.2959
14940TIP3    H166311   2.336   1.330   3.901 -0.4428  0.2318 -1.1839
14940TIP3    H266312   2.479   1.279   3.908 -0.5753  0.0565  0.9071
14941TIP3   OH266313   3.718   5.019   4.050 -0.0981  0.4259  0.3929
14941TIP3    H166314   3.792   4.964   4.078 -0.5338 -0.4458 -0.1137
14941TIP3    H266315   3.721   5.095   4.108 -1.0004 -1.3183  2.8941
14942TIP3   OH266316   4.671   1.696  13.683 -0.0545 -1.2027 -0.1361
14942TIP3    H166317   4.766   1.700  13.668 -0.4899  1.5323 -3.3086
14942TIP3    H266318   4.650   1.603  13.678  2.6231 -2.1085  2.6704
14943TIP3   OH266319   0.344   2.217  13.398  0.1177  0.1343 -0.8186
14943TIP3    H166320   0.412   2.283  13.385 -0.4009  0.9518  0.4093
14943TIP3    H266321   0.322   2.188  13.310  1.9617 -0.0773 -1.2648
14944TIP3   OH266322   2.916   5.450  14.985 -0.5527  0.6045 -0.1577
14944TIP3    H166323   2.861   5.492  14.919 -0.5567 -0.2562 -0.7094
14944TIP3    H266324   2.875   5.365  15.000 -0.3028  0.6150  0.6425
14945TIP3   OH266325   0.278   0.265   4.205 -0.1439  0.9804  0.0893
14945TIP3    H166326   0.225   0.338   4.171  0.5819  1.8860  0.8483
14945TIP3    H266327   0.321   0.300   4.283  1.7420  0.3586 -0.5965
14946TIP3   OH266328   3.162   3.845   5.596  0.0492  0.4670 -0.3505
14946TIP3    H166329   3.071   3.872   5.607 -0.3913  0.2646 -2.8429
14946TIP3    H266330   3.199   3.846   5.684 -2.6367 -0.5017  0.8779
14947TIP3   OH266331   2.976   2.632   0.732  0.4109 -0.1391 -0.2509
14947TIP3    H166332   2.927   2.557   0.766 -0.2106 -0.7097 -2.2494
14947TIP3    H266333   3.052   2.593   0.689 -0.1757  0.2887 -1.7398
14948TIP3   OH266334   0.925   1.432   2.626 -0.0263 -0.2148 -0.7066
14948TIP3    H166335   0.950   1.501   2.565 -1.6027  1.7395  0.7038
14948TIP3    H266336   0.868   1.374   2.576 -0.7780  0.9950 -1.2955
14949TIP3   OH266337   6.508   6.714  12.077 -0.2637  0.4578 -0.8000
14949TIP3    H166338   6.494   6.801  12.114  2.0402  0.5593  0.0058
14949TIP3    H266339   6.491   6.724  11.984  0.1670  1.8419 -0.7500
14950TIP3   OH266340   4.631   6.771  13.060  0.0252 -0.0792  0.4174
14950TIP3    H166341   4.659   6.852  13.016 -1.1436  0.9866  1.5574
14950TIP3    H266342   4.711   6.720  13.068  0.5377  0.2638 -1.6799
14951TIP3   OH266343   1.784   2.445  15.486 -0.3907  0.5336 -0.0133
14951TIP3    H166344   1.739   2.516  15.441  1.5252  2.1581  0.4729
14951TIP3    H266345   1.720   2.374  15.490 -1.6960  1.4806 -2.3450
14952TIP3   OH266346   0.860   4.891   6.370  0.0506  0.1483 -0.2946
14952TIP3    H166347   0.864   4.796   6.382  2.9683  0.0636 -1.0842
14952TIP3    H266348   0.872   4.927   6.458  3.2080 -0.3265 -0.4302
14953TIP3   OH266349   2.598   2.564   2.187  0.3027  0.3079  0.7893
14953TIP3    H166350   2.621   2.602   2.272  0.6729  1.1934  0.3050
14953TIP3    H266351   2.503   2.562   2.186  0.2867  0.8303  0.9995
14954TIP3   OH266352   6.591   4.194  16.331  0.1198  0.2722 -0.6831
14954TIP3    H166353   6.675   4.225  16.364  0.1726  0.2062 -0.7567
14954TIP3    H266354   6.526   4.247  16.378 -0.0032 -2.3251  2.3563
14955TIP3   OH266355   4.405   6.511   5.955 -0.8764 -0.1952  0.0285
14955TIP3    H166356   4.457   6.531   5.878 -1.0168  1.2057  0.2731
14955TIP3    H266357   4.468   6.481   6.020 -0.7161 -1.0418 -0.5035
14956TIP3   OH266358   6.194   3.993   0.155 -0.2657  0.1269  0.0811
14956TIP3    H166359   6.262   3.940   0.113  1.2935  1.8646  0.2811
14956TIP3    H266360   6.112   3.959   0.119  0.8138 -0.6763 -1.7800
14957TIP3   OH266361   0.056   1.447  12.573 -0.1546  0.3252  0.0908
14957TIP3    H166362   0.022   1.494  12.649  0.6875  2.3665 -0.7160
14957TIP3    H266363  -0.013   1.456  12.507 -0.5786 -0.8094  0.3711
14958TIP3   OH266364   5.918   1.523   1.829 -0.5559  0.7028 -0.7934
14958TIP3    H166365   5.999   1.525   1.879  0.5370 -1.7843 -2.2351
14958TIP3    H266366   5.939   1.566   1.746 -1.2859  1.6726 -0.4927
14959TIP3   OH266367   5.817   1.070  15.652 -0.5220 -0.3873  0.3563
14959TIP3    H166368   5.856   1.033  15.573 -0.7511 -0.1298  0.1205
14959TIP3    H266369   5.769   1.147  15.622 -1.3609 -0.7901  0.6078
14960TIP3   OH266370   5.637   6.760  16.372  0.2971 -0.6110  0.1913
14960TIP3    H166371   5.610   6.830  16.431  0.7261  1.0594 -1.4970
14960TIP3    H266372   5.726   6.738  16.399 -0.0865 -1.0481  1.1731
14961TIP3   OH266373   5.946   6.560  10.952  0.7417  0.4785 -0.1817
14961TIP3    H166374   5.906   6.505  10.884 -0.1374 -0.3298  0.9564
14961TIP3    H266375   5.888   6.550  11.028  1.1866  2.1034  0.4104
14962TIP3   OH266376   1.810   6.498   5.377  0.1511 -0.3732 -0.1543
14962TIP3    H166377   1.738   6.441   5.350 -0.5319 -0.3210  1.4455
14962TIP3    H266378   1.819   6.481   5.471  0.8706  1.1415  0.0677
14963TIP3   OH266379   1.385   4.125  13.487  0.2110 -0.4346 -0.7486
14963TIP3    H166380   1.460   4.169  13.526  0.7155 -0.8174 -1.2732
14963TIP3    H266381   1.311   4.183  13.504  0.4746 -0.4374  0.4745
14964TIP3   OH266382   2.900   6.143  15.176  0.0994  0.3598 -0.1571
14964TIP3    H166383   2.837   6.214  15.163 -0.0260  1.1597  3.6211
14964TIP3    H266384   2.981   6.174  15.135 -0.5516  1.6666 -0.5074
14965TIP3   OH266385   6.420   3.126  13.678 -0.5083 -0.3479  0.4508
14965TIP3    H166386   6.442   3.137  13.771  2.0419  1.4594 -0.2484
14965TIP3    H266387   6.414   3.215  13.644 -0.2384 -0.9736 -1.3673
14966TIP3   OH266388   3.334   4.342   0.460  0.2304  0.5228 -0.1864
14966TIP3    H166389   3.326   4.323   0.366  0.5455 -0.5580 -0.0121
14966TIP3    H266390   3.277   4.278   0.502  0.1989  0.9112  0.3749
14967TIP3   OH266391   0.078   2.624  11.038 -0.7006 -0.0213  0.4404
14967TIP3    H166392   0.084   2.677  11.117 -1.9448  1.2607 -0.2736
14967TIP3    H266393   0.004   2.565  11.055 -1.0195  0.3097  0.2082
14968TIP3   OH266394   4.569   4.559  15.735 -0.0579  0.3447  0.2489
14968TIP3    H166395   4.572   4.474  15.690  0.0178 -0.4459  1.7064
14968TIP3    H266396   4.660   4.590  15.733  0.3101 -0.5792  1.4651
14969TIP3   OH266397   3.424   1.188   1.947  0.0323  0.2533  0.2320
14969TIP3    H166398   3.490   1.184   2.016  0.0824 -1.7327  0.1351
14969TIP3    H266399   3.472   1.218   1.870  0.4581  0.3957  0.5481
14970TIP3   OH266400   5.652   0.675  15.422 -0.1164  0.1249 -0.3670
14970TIP3    H166401   5.592   0.732  15.375  0.3544 -0.0914 -1.2421
14970TIP3    H266402   5.735   0.723  15.424  0.9558 -1.4066 -3.1268
14971TIP3   OH266403   2.591   1.652  11.565 -0.1154 -0.0035 -0.4022
14971TIP3    H166404   2.670   1.661  11.619  1.3759  1.5856 -2.6706
14971TIP3    H266405   2.524   1.700  11.614  1.1334  1.2605  0.1818
14972TIP3   OH266406   6.134   0.361  15.665 -0.6942 -0.3299  0.2235
14972TIP3    H166407   6.065   0.425  15.647  0.5627  1.6987  2.1427
14972TIP3    H266408   6.150   0.319  15.580 -2.9218  0.4752 -0.6748
14973TIP3   OH266409   3.576   6.417   3.037  0.6296  0.3138  0.1713
14973TIP3    H166410   3.645   6.372   3.087 -0.7665 -2.2303 -0.0358
14973TIP3    H266411   3.582   6.381   2.949 -2.7177 -2.3577  0.8102
14974TIP3   OH266412   4.688   2.859  13.878 -0.0056 -0.3673 -0.1019
14974TIP3    H166413   4.636   2.847  13.957  0.1190  0.1227  0.0568
14974TIP3    H266414   4.623   2.871  13.808 -0.2220 -3.5820 -0.6046
14975TIP3   OH266415   5.634   5.461  12.174 -0.6393 -0.0143 -0.7180
14975TIP3    H166416   5.559   5.521  12.175  0.4531  1.4042  0.5482
14975TIP3    H266417   5.597   5.376  12.197 -1.8575  0.6962  0.0744
14976TIP3   OH266418   1.936   5.265  11.530 -0.2333 -0.1048 -0.2019
14976TIP3    H166419   1.869   5.284  11.595 -0.7311 -0.8866 -0.4764
14976TIP3    H266420   1.901   5.297  11.447 -0.2494 -0.4500 -0.3340
14977TIP3   OH266421   3.712   5.201   4.763  0.2333  0.7272  0.1783
14977TIP3    H166422   3.716   5.144   4.686 -0.9757  0.3742  0.3543
14977TIP3    H266423   3.742   5.145   4.835 -1.2506  0.1586  0.4055
14978TIP3   OH266424   2.840   5.688   3.498 -0.3931  0.2013 -0.4714
14978TIP3    H166425   2.764   5.720   3.546 -1.1360  2.1745 -2.7839
14978TIP3    H266426   2.846   5.745   3.421  2.3114 -1.0968 -1.3474
14979TIP3   OH266427   5.999   4.737   5.669 -0.3485  0.2537  0.3871
14979TIP3    H166428   6.032   4.660   5.716  1.8135  0.5099 -0.5801
14979TIP3    H266429   6.016   4.717   5.577  0.2198  1.8526  0.1190
14980TIP3   OH266430   1.129   3.352   1.439 -0.1388 -0.1959  0.6534
14980TIP3    H166431   1.157   3.310   1.520  4.0028  1.6071  0.4415
14980TIP3    H266432   1.136   3.283   1.373 -1.1267 -1.0440  1.4010
14981TIP3   OH266433   2.287   0.198   5.107  0.3345 -0.1525  0.9853
14981TIP3    H166434   2.251   0.128   5.052 -1.2393 -0.6508  2.5676
14981TIP3    H266435   2.335   0.254   5.046 -1.3284 -0.6695 -0.9053
14982TIP3   OH266436   1.506   6.443  17.175 -0.1339  0.1484  0.1608
14982TIP3    H166437   1.555   6.479  17.248  0.2272 -0.5228  0.2575
14982TIP3    H266438   1.572   6.409  17.116 -0.4039  0.9691 -0.6477
14983TIP3   OH266439   4.055   0.007   4.141  0.1302 -0.3803  0.4098
14983TIP3    H166440   4.020   0.092   4.114  2.0855  0.1546 -0.5720
14983TIP3    H266441   3.990  -0.056   4.110 -0.9708  0.6688  0.4684
14984TIP3   OH266442   6.016   0.441   1.638  0.5355 -0.0161  0.1533
14984TIP3    H166443   5.949   0.490   1.685  0.4962  1.5904 -1.4318
14984TIP3    H266444   6.068   0.509   1.594  0.8197 -1.3768 -1.7168
14985TIP3   OH266445   5.209   6.299   0.338 -0.0176 -0.3691 -0.1676
14985TIP3    H166446   5.160   6.289   0.256  1.7267 -0.9454 -1.1777
14985TIP3    H266447   5.170   6.376   0.379 -0.4118  0.4271 -1.9316
14986TIP3   OH266448   4.110   4.165  17.152 -0.2286 -0.5876 -0.3442
14986TIP3    H166449   4.023   4.174  17.192 -1.2016  0.4299 -2.5501
14986TIP3    H266450   4.167   4.220  17.206 -1.4154  0.4546 -0.1232
14987TIP3   OH266451   5.014   4.654   1.226 -0.1558 -0.3336  0.3905
14987TIP3    H166452   5.052   4.726   1.276  0.6097 -1.0983  0.9389
14987TIP3    H266453   5.077   4.583   1.234 -0.4115 -0.7536 -0.9911
14988TIP3   OH266454   5.006   2.671  16.610 -0.0164  0.1987 -0.0658
14988TIP3    H166455   4.965   2.755  16.629 -0.4815 -0.6736  3.7351
14988TIP3    H266456   5.100   2.687  16.619 -0.0057  0.6196 -0.9138
14989TIP3   OH266457   6.406   6.146   0.584 -0.0853  0.4139  0.6746
14989TIP3    H166458   6.437   6.229   0.620  2.7870 -0.8400  1.3529
14989TIP3    H266459   6.388   6.165   0.492 -1.2761  2.1767  1.2286
14990TIP3   OH266460   1.551   3.684  14.106 -0.3365  0.1334  0.4099
14990TIP3    H166461   1.465   3.704  14.069 -0.1972 -2.7547 -1.8212
14990TIP3    H266462   1.599   3.767  14.103 -2.3534  1.3225 -0.3088
14991TIP3   OH266463   1.267   3.781  10.709  0.8228  0.2269 -0.4450
14991TIP3    H166464   1.305   3.801  10.624  1.5560  0.7522  0.0043
14991TIP3    H266465   1.229   3.693  10.698 -1.6045  1.3854 -2.1450
14992TIP3   OH266466   6.029   4.644   0.726 -0.4638  0.2654 -0.3703
14992TIP3    H166467   6.035   4.568   0.668 -1.0848 -0.6922  0.7688
14992TIP3    H266468   5.987   4.610   0.805 -0.3648  1.7118  0.3319
14993TIP3   OH266469   5.261   3.979   1.931  0.7574  0.4381 -0.0175
14993TIP3    H166470   5.284   3.897   1.888 -2.8333 -1.6346  1.6449
14993TIP3    H266471   5.225   4.034   1.862  2.9147  0.6205 -1.0825
14994TIP3   OH266472   3.459   4.723  10.321 -0.0203  0.0225  0.3999
14994TIP3    H166473   3.553   4.705  10.312 -0.1124  0.1634 -1.0331
14994TIP3    H266474   3.419   4.638  10.336  0.3915  0.0477  1.8670
14995TIP3   OH266475   0.236   4.235   5.127  0.3415 -0.0508 -0.8326
14995TIP3    H166476   0.231   4.153   5.078  0.9503  0.7092 -2.2142
14995TIP3    H266477   0.158   4.284   5.102  0.2603  0.0256 -0.4388
14996TIP3   OH266478   4.665   5.141   1.292 -0.0499 -0.1287 -0.1020
14996TIP3    H166479   4.690   5.140   1.384 -3.3459 -3.3103  1.0156
14996TIP3    H266480   4.717   5.072   1.252  0.2906  0.2232 -0.2702
14997TIP3   OH266481   4.508   0.382  12.652 -0.2319 -0.5034  0.1662
14997TIP3    H166482   4.456   0.461  12.668  1.2503  0.3512  1.0987
14997TIP3    H266483   4.471   0.317  12.711 -0.2399  0.1104  0.8663
14998TIP3   OH266484   2.036   6.479   5.685 -0.0148 -0.3460  0.3830
14998TIP3    H166485   2.076   6.566   5.684 -1.0814  0.1632  0.2521
14998TIP3    H266486   2.087   6.428   5.623  0.2856  0.3493  0.0503
14999TIP3   OH266487   0.827   3.161  12.686 -0.1797 -0.6079  0.3406
14999TIP3    H166488   0.837   3.170  12.781  0.6658  0.6652  0.1427
14999TIP3    H266489   0.734   3.179  12.670 -0.2406 -0.4239  0.8810
15000TIP3   OH266490   6.771   1.533  14.769 -0.0095 -0.0697 -0.3578
15000TIP3    H166491   6.812   1.525  14.683 -3.1194 -0.8064 -1.9272
15000TIP3    H266492   6.844   1.529  14.831  2.1800 -2.0331 -2.8167
15001TIP3   OH266493   6.578   1.686  15.515  0.0159  0.1342  0.0203
15001TIP3    H166494   6.668   1.712  15.500 -0.1715  0.6138 -0.2909
15001TIP3    H266495   6.574   1.595  15.485  0.2535  0.2959 -0.5032
15002TIP3   OH266496   0.367   3.299   5.023  0.0136  0.5062 -0.7383
15002TIP3    H166497   0.300   3.312   5.090  2.6635  3.5381  1.6462
15002TIP3    H266498   0.378   3.204   5.016 -1.7287  0.0557  1.6888
15003TIP3   OH266499   4.580   5.081  11.846  0.0162  0.4389 -0.3336
15003TIP3    H166500   4.541   5.161  11.880 -4.0568 -0.8735 -1.3682
15003TIP3    H266501   4.564   5.084  11.752  0.1694 -1.3685 -0.4648
15004TIP3   OH266502   6.413   4.132  14.439  0.2045  0.4128 -0.1148
15004TIP3    H166503   6.340   4.079  14.408  1.4379 -1.1443 -0.4595
15004TIP3    H266504   6.476   4.131  14.368  0.7813  1.3433  0.3605
15005TIP3   OH266505   2.680   2.598  13.739 -0.0658 -0.7855  0.0123
15005TIP3    H166506   2.634   2.651  13.805  0.8304 -0.6532  0.5522
15005TIP3    H266507   2.723   2.663  13.683  0.9455 -0.9296  0.6091
15006TIP3   OH266508   4.597   4.651   0.815 -0.0193  0.2314  0.0744
15006TIP3    H166509   4.505   4.655   0.843  0.3373  1.1312  1.1759
15006TIP3    H266510   4.605   4.565   0.772 -1.8645  0.9718 -1.8987
15007TIP3   OH266511   6.709   1.582   6.205 -0.6403  0.2233 -0.1387
15007TIP3    H166512   6.621   1.599   6.172  0.3617  2.1074 -2.0979
15007TIP3    H266513   6.738   1.667   6.240  0.8859  0.0014 -0.7965
15008TIP3   OH266514   1.677   2.279   3.500  0.2375 -0.2181 -0.2416
15008TIP3    H166515   1.606   2.319   3.450  0.1512  1.5314  1.1574
15008TIP3    H266516   1.635   2.243   3.578  0.8137  0.7584  0.5587
15009TIP3   OH266517   1.134   2.418  13.694 -0.6417  0.1653 -0.0598
15009TIP3    H166518   1.084   2.499  13.702 -1.0923  0.0639 -1.4956
15009TIP3    H266519   1.225   2.446  13.689 -0.7245  0.5162  0.3769
15010TIP3   OH266520   2.964   4.863  13.915  0.1932  0.8339 -0.6601
15010TIP3    H166521   2.876   4.827  13.904  1.3276 -2.6731  0.3532
15010TIP3    H266522   2.995   4.878  13.825 -1.2475  1.8184 -1.0370
15011TIP3   OH266523   3.513   1.251   6.877  0.4856 -0.6024 -0.0706
15011TIP3    H166524   3.482   1.224   6.963  0.6406  0.7062  0.4182
15011TIP3    H266525   3.444   1.224   6.816 -0.2162 -0.4087  0.6303
15012TIP3   OH266526   1.016   1.216  13.670 -0.3451  0.1436 -0.9073
15012TIP3    H166527   0.993   1.260  13.588 -2.6427 -2.8237 -2.0299
15012TIP3    H266528   0.934   1.213  13.719  0.5356  0.0281  0.6106
15013TIP3   OH266529   6.513   1.067   3.068  0.5920  0.0509 -0.2724
15013TIP3    H166530   6.544   1.072   3.158  0.8261  0.0619 -0.3543
15013TIP3    H266531   6.428   1.112   3.069  1.3639  1.5599 -0.4097
15014TIP3   OH266532   0.068   0.338  15.377  0.0503 -0.4388 -0.3448
15014TIP3    H166533   0.143   0.335  15.318  1.1549  1.1767  0.8734
15014TIP3    H266534   0.007   0.273  15.342  2.9904 -3.6411 -0.0263
15015TIP3   OH266535   1.434   1.834   4.086  0.2720  0.1946 -0.4422
15015TIP3    H166536   1.373   1.835   4.012  1.3598  0.5493 -1.3461
15015TIP3    H266537   1.397   1.769   4.146 -0.3613 -0.4676 -1.5168
15016TIP3   OH266538   1.607   1.932  15.651  0.8660 -0.1560 -0.1157
15016TIP3    H166539   1.543   1.872  15.612  0.9583 -0.6943  0.5409
15016TIP3    H266540   1.567   1.956  15.735  0.6091  1.0811 -0.5758
15017TIP3   OH266541   1.520   3.917   5.214  0.2266  0.3475  0.0457
15017TIP3    H166542   1.585   3.946   5.150  0.8631 -1.5001 -0.1882
15017TIP3    H266543   1.447   3.885   5.161  0.6462 -0.9459  0.2222
15018TIP3   OH266544   5.455   3.224  11.329  1.0118  0.5258  0.2167
15018TIP3    H166545   5.399   3.298  11.352 -1.4284 -0.4781 -1.8930
15018TIP3    H266546   5.461   3.227  11.233 -0.8052 -2.9103 -0.1902
15019TIP3   OH266547   0.650   5.969  14.406 -0.1620 -0.1256  0.8639
15019TIP3    H166548   0.698   6.000  14.329  0.6300 -1.6754  0.7019
15019TIP3    H266549   0.675   6.029  14.476  0.5830  0.1886  0.3402
15020TIP3   OH266550   0.903   4.595   0.083 -0.1602 -0.0971  0.6259
15020TIP3    H166551   0.944   4.551   0.157 -0.7819  0.9747  1.6513
15020TIP3    H266552   0.847   4.662   0.124 -1.7275 -0.5123 -0.7506
15021TIP3   OH266553   5.403   1.318   2.216  0.7529 -0.0799  0.7442
15021TIP3    H166554   5.404   1.333   2.122  2.9121  1.1978  0.9156
15021TIP3    H266555   5.487   1.275   2.234  0.0876 -0.9024  2.0121
15022TIP3   OH266556   1.948   6.635  13.899  0.0864  0.1964  0.3770
15022TIP3    H166557   1.956   6.540  13.885 -0.6783  0.2315 -0.4779
15022TIP3    H266558   1.879   6.643  13.965 -1.3126  0.1754 -1.0148
15023TIP3   OH266559   1.014   2.228   4.300 -0.0627  0.0785 -0.5554
15023TIP3    H166560   1.099   2.185   4.306 -0.5984 -1.1339 -1.3093
15023TIP3    H266561   0.990   2.221   4.208 -0.3859  1.6066 -0.5997
15024TIP3   OH266562   0.487   6.508  16.129  0.0334  0.2035  0.2912
15024TIP3    H166563   0.414   6.519  16.190 -0.6309 -0.6684 -0.3132
15024TIP3    H266564   0.520   6.420  16.147  0.7112  0.4543  0.3103
15025TIP3   OH266565   4.973   1.887   0.611  0.0516  0.0495  0.2279
15025TIP3    H166566   5.042   1.932   0.562  1.1114 -2.3315 -0.6352
15025TIP3    H266567   4.899   1.885   0.551  0.1269  0.3016  0.1230
15026TIP3   OH266568   6.596   6.545   2.319  0.0592 -0.3905  0.7712
15026TIP3    H166569   6.560   6.457   2.316 -0.6467 -0.0905 -0.2856
15026TIP3    H266570   6.550   6.592   2.249  1.4856  0.4130  0.3273
15027TIP3   OH266571   5.098   4.679  16.205  0.3718  0.0804  0.4176
15027TIP3    H166572   5.036   4.667  16.134 -0.9028 -0.4922  1.5898
15027TIP3    H266573   5.050   4.656  16.284  0.7881  3.5156  1.8490
15028TIP3   OH266574   5.827   0.009   2.268 -0.2065  0.1723  0.1895
15028TIP3    H166575   5.891   0.066   2.227 -1.5880  1.3711 -0.4066
15028TIP3    H266576   5.760   0.068   2.303 -0.5700 -0.9803  1.5604
15029TIP3   OH266577   4.559   5.623  14.323 -0.2163  0.0660 -0.2571
15029TIP3    H166578   4.532   5.650  14.236  0.5500 -0.5077 -0.6876
15029TIP3    H266579   4.477   5.607  14.370 -0.6278 -0.5914 -1.1825
15030TIP3   OH266580   4.171   2.192   0.100  0.3155 -0.8038  0.1440
15030TIP3    H166581   4.141   2.157   0.184 -2.3633 -1.7156 -1.0820
15030TIP3    H266582   4.109   2.262   0.080  1.6605  0.2430 -0.5502
15031TIP3   OH266583   5.482   5.267   5.631 -0.4628 -0.1715 -0.4528
15031TIP3    H166584   5.536   5.253   5.554 -2.0280 -0.6266 -1.5286
15031TIP3    H266585   5.531   5.330   5.684  0.6124  0.2256 -1.8489
15032TIP3   OH266586   0.341   1.581  17.201  0.8276 -0.1197 -0.7461
15032TIP3    H166587   0.363   1.603  17.292 -0.8213 -2.1703  0.2414
15032TIP3    H266588   0.282   1.652  17.173  2.3094  1.1814 -0.6871
15033TIP3   OH266589   4.985   3.080   1.663 -0.1099  0.0028 -0.4371
15033TIP3    H166590   4.962   3.135   1.738 -2.0253 -0.2069 -0.8200
15033TIP3    H266591   5.077   3.099   1.647  0.3375  0.0861  1.9206
15034TIP3   OH266592   1.787   0.316  15.146  0.2380  0.3666 -0.2316
15034TIP3    H166593   1.709   0.304  15.200  0.2876 -0.8725 -0.4063
15034TIP3    H266594   1.854   0.346  15.207  0.9016 -3.0719  0.9432
15035TIP3   OH266595   0.202   4.552  12.530 -0.4386 -0.1736 -0.4781
15035TIP3    H166596   0.161   4.480  12.578 -0.6290 -0.1902 -0.6662
15035TIP3    H266597   0.137   4.577  12.464  0.5425 -1.3461 -1.9463
15036TIP3   OH266598   4.670   4.587   0.407  0.1258  0.0469 -0.4859
15036TIP3    H166599   4.723   4.526   0.457  0.9429  1.8506  0.9606
15036TIP3    H266600   4.733   4.642   0.362 -0.5623  0.5952 -0.8092
15037TIP3   OH266601   2.693   3.430  12.620  0.0068 -0.0378  0.5113
15037TIP3    H166602   2.673   3.514  12.577 -0.5981  0.2366  1.3103
15037TIP3    H266603   2.661   3.364  12.559 -0.3062  0.3313  0.2675
15038TIP3   OH266604   0.447   4.177   4.145  0.2259 -0.5677 -0.5381
15038TIP3    H166605   0.377   4.168   4.081  0.0106 -0.6300 -0.2973
15038TIP3    H266606   0.420   4.251   4.200 -1.4321 -2.7323  1.7503
15039TIP3   OH266607   4.652   0.292  11.034 -0.0815  0.2047 -0.6089
15039TIP3    H166608   4.648   0.281  11.129 -0.4564 -1.6906 -0.7956
15039TIP3    H266609   4.736   0.254  11.009  0.2609  1.1834 -1.0046
15040TIP3   OH266610   2.041   3.253   2.283 -0.3663  0.1117 -0.2355
15040TIP3    H166611   1.986   3.265   2.360  0.4642 -0.5666  0.4673
15040TIP3    H266612   2.075   3.165   2.290 -0.6852 -0.1624 -1.6636
15041TIP3   OH266613   3.608   6.375   5.747  0.3488 -0.3997 -0.3943
15041TIP3    H166614   3.626   6.382   5.653  0.7000 -0.4134 -0.3293
15041TIP3    H266615   3.622   6.463   5.782  1.0492 -0.5779 -0.2145
15042TIP3   OH266616   1.219   4.674  16.211  0.1947 -0.1930  0.0843
15042TIP3    H166617   1.170   4.633  16.282  0.5624  0.1914  0.5652
15042TIP3    H266618   1.168   4.655  16.132  0.7759 -2.2671  0.1624
15043TIP3   OH266619   0.476   5.332  13.733  0.1002 -0.1726  0.2325
15043TIP3    H166620   0.431   5.393  13.791 -0.0114  0.3451 -0.3960
15043TIP3    H266621   0.492   5.255  13.788 -0.2280  0.2109  0.8788
15044TIP3   OH266622   3.807   1.692   5.806 -0.3096 -0.2873 -0.2232
15044TIP3    H166623   3.852   1.747   5.871 -0.3252 -0.2354 -0.2564
15044TIP3    H266624   3.716   1.723   5.808 -0.1252  0.3339 -0.9221
15045TIP3   OH266625   0.022   6.384  14.249  0.4601  0.1879  0.8406
15045TIP3    H166626   0.106   6.388  14.295 -0.0642  1.1833  1.7699
15045TIP3    H266627  -0.004   6.476  14.240 -1.0525 -0.1355  1.5859
15046TIP3   OH266628   1.025   0.018   4.856 -0.3771  0.4017 -0.3171
15046TIP3    H166629   1.004  -0.074   4.838  1.8393 -0.5058  1.3475
15046TIP3    H266630   1.038   0.057   4.769  0.6795 -1.3923 -1.0115
15047TIP3   OH266631   4.370   1.946  16.882 -0.0965 -0.3806  0.0081
15047TIP3    H166632   4.343   1.996  16.959 -1.0606 -1.9158  0.7134
15047TIP3    H266633   4.289   1.908  16.848  0.6916 -2.2338  0.0758
15048TIP3   OH266634   1.001   1.652   1.632  0.0540 -0.5772  0.2044
15048TIP3    H166635   0.989   1.589   1.560 -1.2421 -1.3722  1.0836
15048TIP3    H266636   0.935   1.719   1.617 -1.3713 -1.6106  1.5111
15049TIP3   OH266637   2.830   6.830   3.395  0.1180  0.2441 -0.2203
15049TIP3    H166638   2.746   6.784   3.394  0.0643  0.3095 -2.1888
15049TIP3    H266639   2.809   6.920   3.421 -0.8437  0.9045 -3.0165
15050TIP3   OH266640   0.765   1.657   4.618 -0.1452 -0.5034 -0.3576
15050TIP3    H166641   0.679   1.637   4.581 -0.6365 -0.1932  0.5722
15050TIP3    H266642   0.746   1.712   4.694  0.8467 -0.8965  0.1928
15051TIP3   OH266643   1.258   3.771  12.507 -0.4595 -0.0022  0.2625
15051TIP3    H166644   1.273   3.854  12.462  1.3642 -0.4305 -0.0081
15051TIP3    H266645   1.204   3.720  12.446  0.4317  0.1103 -0.6426
15052TIP3   OH266646   6.321   2.031   3.562  0.3341 -0.1592  0.1016
15052TIP3    H166647   6.283   2.114   3.593 -0.9119 -0.9959  0.9214
15052TIP3    H266648   6.402   2.021   3.612 -0.1324 -0.0220  0.9043
15053TIP3   OH266649   6.447   2.580   3.123  0.2299  0.3996 -0.6525
15053TIP3    H166650   6.502   2.507   3.092  0.5509  0.1459  0.4848
15053TIP3    H266651   6.489   2.658   3.088 -0.5267  0.0467 -2.5256
15054TIP3   OH266652   2.614   2.442   0.646 -0.0790 -0.0247 -0.0658
15054TIP3    H166653   2.592   2.517   0.591 -0.8348 -0.8579 -0.9414
15054TIP3    H266654   2.538   2.431   0.703  0.1010 -0.0333  0.1764
15055TIP3   OH266655   1.856   1.205   2.917 -0.2179  0.6235 -0.1039
15055TIP3    H166656   1.892   1.234   3.001  2.0982 -1.2359 -0.3291
15055TIP3    H266657   1.776   1.158   2.939 -0.1696  1.0246  0.9531
15056TIP3   OH266658   6.711   4.638   5.644 -0.1622 -0.3700 -0.4786
15056TIP3    H166659   6.773   4.664   5.713 -1.1110 -0.7298  0.5273
15056TIP3    H266660   6.767   4.609   5.572  0.8740  1.0643 -0.2972
15057TIP3   OH266661   5.150   2.002   4.632 -0.3019 -0.0337 -0.3029
15057TIP3    H166662   5.186   2.084   4.665 -1.7406 -0.2249  2.0136
15057TIP3    H266663   5.226   1.954   4.599  1.2599  0.5888  2.0924
15058TIP3   OH266664   1.699   6.503  14.803 -0.0072 -0.2673  0.1386
15058TIP3    H166665   1.626   6.447  14.776 -1.3218  0.2466  2.3740
15058TIP3    H266666   1.657   6.582  14.837  1.6779  0.6555  0.1967
15059TIP3   OH266667   3.729   0.838  12.050 -0.5521 -0.3023 -0.8420
15059TIP3    H166668   3.794   0.854  11.981  1.2447 -0.2746  0.7744
15059TIP3    H266669   3.684   0.922  12.059  0.3153  0.1865 -0.8823
15060TIP3   OH266670   4.873   4.915  15.907  0.5033  0.1145 -0.0988
15060TIP3    H166671   4.811   4.983  15.934 -1.3079 -1.2106 -0.6280
15060TIP3    H266672   4.888   4.931  15.814  0.0723 -0.1845 -0.2248
15061TIP3   OH266673   4.880   0.844   2.150  0.4299 -0.1188  0.2397
15061TIP3    H166674   4.865   0.934   2.177 -0.6644 -0.1626 -0.1601
15061TIP3    H266675   4.803   0.797   2.180  0.9399 -0.9092  0.3427
15062TIP3   OH266676   0.100   4.488   4.293  0.2604  0.2779 -0.1817
15062TIP3    H166677   0.126   4.515   4.381 -0.4949 -0.0469  0.1553
15062TIP3    H266678   0.051   4.407   4.307  3.4434 -2.0028 -1.2589
15063TIP3   OH266679   0.606   2.720  13.628  0.6555 -0.1916  0.7450
15063TIP3    H166680   0.657   2.682  13.557 -1.1072  2.5106 -2.2450
15063TIP3    H266681   0.652   2.801  13.651 -0.9825  1.1670 -0.4896
15064TIP3   OH266682   4.191   4.152   3.035  0.4453  0.2258  0.5174
15064TIP3    H166683   4.115   4.102   3.066 -1.5452  1.6037 -1.7701
15064TIP3    H266684   4.265   4.095   3.050 -1.0772 -1.3833  2.4826
15065TIP3   OH266685   4.910   1.532  17.056 -0.1571  0.1811  0.0216
15065TIP3    H166686   4.822   1.537  17.093 -0.9566 -1.0233 -1.5725
15065TIP3    H266687   4.921   1.616  17.011 -0.4517  0.3987  0.3509
15066TIP3   OH266688   3.632   1.789   1.207 -0.3457 -0.3425  0.0492
15066TIP3    H166689   3.570   1.777   1.279 -2.1329  2.1557 -0.9089
15066TIP3    H266690   3.718   1.791   1.249 -1.2381  0.1096  1.9836
15067TIP3   OH266691   3.935   1.717   2.792 -0.4426  0.4161  0.1817
15067TIP3    H166692   3.865   1.781   2.782 -1.6035 -0.9851 -1.2119
15067TIP3    H266693   3.895   1.633   2.768  1.3347 -0.6699  0.7643
15068TIP3   OH266694   0.904   4.456  14.421  0.6609  0.0965  0.3860
15068TIP3    H166695   0.837   4.404  14.376  1.3714 -0.6038  0.0992
15068TIP3    H266696   0.896   4.432  14.513  0.0687  0.5348  0.4497
15069TIP3   OH266697   6.509   1.023  12.085  0.0624  0.1706 -0.4768
15069TIP3    H166698   6.428   1.044  12.039  0.2303 -0.4361 -1.0500
15069TIP3    H266699   6.539   0.941  12.046 -0.1891 -0.7681  1.2293
15070TIP3   OH266700   4.020   4.320  13.062  0.1726  0.5773 -0.1048
15070TIP3    H166701   4.053   4.374  13.134  0.9542 -0.0689  0.0364
15070TIP3    H266702   3.988   4.383  12.997  2.2938  1.2921 -0.5408
15071TIP3   OH266703   3.955   5.044  16.954  1.1783  0.5257 -0.1941
15071TIP3    H166704   3.943   4.970  17.013  2.9305  0.3693  0.0132
15071TIP3    H266705   3.911   5.017  16.873 -1.2402  0.7366  0.9615
15072TIP3   OH266706   0.634   6.286   4.727 -0.0331  0.3740 -0.2161
15072TIP3    H166707   0.616   6.208   4.674 -0.0585  1.4515 -1.8800
15072TIP3    H266708   0.549   6.310   4.763  0.2605 -1.3248  1.7778
15073TIP3   OH266709   5.900   2.986  17.069 -0.0221 -0.9760  0.0547
15073TIP3    H166710   5.978   2.998  17.122 -0.8216 -2.1244  1.5756
15073TIP3    H266711   5.846   2.924  17.119 -2.1886  0.2641 -0.6122
15074TIP3   OH266712   0.121   2.187  15.603  0.5154  0.2144 -0.3262
15074TIP3    H166713   0.102   2.186  15.509  0.5696 -2.1895 -0.3663
15074TIP3    H266714   0.037   2.204  15.644  0.2972  0.2491 -0.7753
15075TIP3   OH266715   5.401   0.528  11.645 -0.3949 -0.0503  0.7710
15075TIP3    H166716   5.440   0.615  11.635  0.7273 -0.7049 -1.1404
15075TIP3    H266717   5.307   0.544  11.645 -0.2211  1.1532 -0.1257
15076TIP3   OH266718   3.489   6.050   1.343  0.7473 -0.4321  0.1531
15076TIP3    H166719   3.517   6.083   1.258  1.8006 -0.7717  0.3493
15076TIP3    H266720   3.477   6.128   1.397  2.1047 -0.2932  0.2828
15077TIP3   OH266721   6.236   2.928  12.069  0.0393 -0.1907  0.3120
15077TIP3    H166722   6.238   3.016  12.032 -0.7707  0.2845  1.3336
15077TIP3    H266723   6.146   2.916  12.098 -0.1543 -1.7941 -0.7819
15078TIP3   OH266724   1.445   6.585   4.440  0.1099 -0.5395  0.1964
15078TIP3    H166725   1.464   6.642   4.514  0.2225  0.7963 -0.8326
15078TIP3    H266726   1.444   6.497   4.478  0.7870  0.0486  1.6623
15079TIP3   OH266727   5.041   1.162  12.793  0.2584  0.1251 -0.0781
15079TIP3    H166728   4.996   1.208  12.864 -1.1147 -0.8889 -0.2518
15079TIP3    H266729   5.128   1.143  12.829  0.0800  0.8911  0.8042
15080TIP3   OH266730   3.212   4.336  11.016  0.0538 -0.6179  0.3023
15080TIP3    H166731   3.166   4.362  10.936  2.6984  1.0039 -0.8280
15080TIP3    H266732   3.244   4.248  10.998 -0.5598 -0.8261  0.1794
15081TIP3   OH266733   5.040   0.321   1.036 -0.1590 -0.7958  0.0683
15081TIP3    H166734   4.949   0.301   1.016 -0.0907 -1.4762  0.3839
15081TIP3    H266735   5.090   0.262   0.980  0.0582 -1.2892  0.7597
15082TIP3   OH266736   0.317   6.332   2.297  0.0780 -0.2720  0.1150
15082TIP3    H166737   0.351   6.243   2.293  0.2404 -0.1692 -1.6094
15082TIP3    H266738   0.383   6.385   2.253 -0.8202  0.4212 -0.4468
15083TIP3   OH266739   2.712   0.437  11.399  0.2633  0.1585  0.0916
15083TIP3    H166740   2.637   0.494  11.417 -0.2580  0.1273 -1.7997
15083TIP3    H266741   2.788   0.488  11.430 -0.4629  0.2976  1.7901
15084TIP3   OH266742   4.136   1.263   0.359  0.0074 -0.0128 -0.0229
15084TIP3    H166743   4.097   1.235   0.276  1.1229  1.4500 -1.0920
15084TIP3    H266744   4.070   1.318   0.400 -0.9990 -1.6398  0.6582
15085TIP3   OH266745   1.560   0.561  16.877  0.3540  0.5625 -0.3093
15085TIP3    H166746   1.636   0.504  16.867  0.6090  0.8865 -0.2515
15085TIP3    H266747   1.498   0.511  16.931  1.1667  0.8994  0.9824
15086TIP3   OH266748   0.803   5.048  16.542  0.2472 -0.6227  0.3762
15086TIP3    H166749   0.741   4.998  16.489 -0.1374  1.4006 -1.1757
15086TIP3    H266750   0.761   5.055  16.628  0.5777 -3.3565  0.8662
15087TIP3   OH266751   5.158   6.097  14.218  0.3565 -0.4562 -0.1367
15087TIP3    H166752   5.082   6.073  14.272  1.5237 -0.4657  1.5788
15087TIP3    H266753   5.120   6.145  14.145 -1.4608 -1.9768 -0.2874
15088TIP3   OH266754   5.935   6.818  14.091 -0.2988  0.3455 -0.0841
15088TIP3    H166755   5.954   6.774  14.175  2.0234 -0.3272 -0.8841
15088TIP3    H266756   5.853   6.865  14.107 -1.9576 -2.7277  1.4259
15089TIP3   OH266757   1.045   0.722   1.045  0.5125  0.7678 -0.2316
15089TIP3    H166758   1.112   0.734   1.112 -0.3873  0.4309  0.7662
15089TIP3    H266759   0.969   0.689   1.093  0.0789 -0.2469 -1.5401
15090TIP3   OH266760   3.476   2.451   3.649  0.1142  0.1037  0.2995
15090TIP3    H166761   3.406   2.396   3.614  0.9063  0.2418 -1.5901
15090TIP3    H266762   3.531   2.391   3.699 -0.5046 -0.2803  0.5449
15091TIP3   OH266763   4.050   3.480   1.719 -0.2843 -0.0587 -0.6732
15091TIP3    H166764   4.031   3.467   1.812  0.6785  1.1230 -0.2899
15091TIP3    H266765   4.001   3.410   1.675 -0.3971 -0.9168  0.7459
15092TIP3   OH266766   2.874   1.721   3.397 -0.2328 -0.4044 -0.1600
15092TIP3    H166767   2.889   1.634   3.358  0.1688  0.1460 -1.2651
15092TIP3    H266768   2.882   1.782   3.323  0.4356  0.6615  0.7665
15093TIP3   OH266769   4.885   3.629  10.535 -0.3539 -0.4350 -0.0212
15093TIP3    H166770   4.881   3.543  10.493 -2.1023  0.2762 -1.4227
15093TIP3    H266771   4.885   3.692  10.463 -0.7073  0.7785  0.9943
15094TIP3   OH266772   3.158   5.198   4.113  0.1967  0.4583 -0.0532
15094TIP3    H166773   3.200   5.116   4.138  0.2045  0.5100  0.1035
15094TIP3    H266774   3.210   5.265   4.157 -1.2338  0.4285  1.8046
15095TIP3   OH266775   0.066   2.883   1.199 -0.3186 -0.2949 -0.0831
15095TIP3    H166776   0.023   2.953   1.150  2.7137  0.8845 -1.2442
15095TIP3    H266777   0.000   2.813   1.202 -2.3397  1.4042 -1.5946
15096TIP3   OH266778   5.917   4.433   2.992 -0.2665 -0.2864  0.3725
15096TIP3    H166779   5.926   4.507   3.052  0.9626 -0.3597  0.3150
15096TIP3    H266780   5.938   4.469   2.906  2.2025 -1.0271  0.5759
15097TIP3   OH266781   4.217   5.504   5.126 -0.0889 -0.3654 -0.0839
15097TIP3    H166782   4.157   5.548   5.185 -3.3697 -3.2949 -0.8796
15097TIP3    H266783   4.161   5.448   5.072  2.9682 -0.1992 -3.9237
15098TIP3   OH266784   4.597   6.093   1.362 -0.0300  0.2322 -0.2068
15098TIP3    H166785   4.648   6.041   1.423  0.4105  0.8184 -0.0736
15098TIP3    H266786   4.636   6.076   1.276 -1.0052 -1.0406 -0.4367
15099TIP3   OH266787   5.760   1.150   1.606 -0.6440 -0.3206  0.1172
15099TIP3    H166788   5.802   1.211   1.546 -0.9287  1.5359  1.7337
15099TIP3    H266789   5.748   1.070   1.554  1.8762  0.1603 -1.3694
15100TIP3   OH266790   0.597   2.878  10.826 -0.3768 -0.0046 -0.2065
15100TIP3    H166791   0.502   2.864  10.829 -0.3652 -0.1277 -0.4049
15100TIP3    H266792   0.634   2.789  10.828 -0.1847  0.0470  2.5909
15101TIP3   OH266793   4.406   3.445   1.556 -0.2371 -0.4652  0.1372
15101TIP3    H166794   4.329   3.491   1.521 -1.1772 -2.5534 -0.6988
15101TIP3    H266795   4.384   3.428   1.648  0.1570  0.7801  0.4779
15102TIP3   OH266796   2.969   3.991   0.596 -0.0053 -0.1736  0.4912
15102TIP3    H166797   2.885   4.016   0.557  0.3555  1.1853  0.5062
15102TIP3    H266798   2.991   3.907   0.557 -1.7380 -0.9474  1.0616
15103TIP3   OH266799   1.558   4.866  11.755 -0.0839  0.2967 -0.3955
15103TIP3    H166800   1.469   4.836  11.738 -0.1217  0.5288 -0.5955
15103TIP3    H266801   1.614   4.796  11.720 -0.1810  0.2875 -0.5316
15104TIP3   OH266802   4.696   4.226  14.214 -0.0596 -0.1922 -0.1520
15104TIP3    H166803   4.728   4.167  14.146 -1.4330  0.5524 -1.4990
15104TIP3    H266804   4.691   4.172  14.293 -0.6893 -1.7149 -1.2031
15105TIP3   OH266805   3.378   5.135  14.806 -0.5806 -0.3091 -0.1002
15105TIP3    H166806   3.449   5.122  14.743 -1.9022  1.4394 -2.0983
15105TIP3    H266807   3.330   5.052  14.805 -0.2073 -0.5275 -0.8851
15106TIP3   OH266808   5.512   0.524  12.813 -0.4617  0.0113 -0.4151
15106TIP3    H166809   5.587   0.572  12.846 -1.8314  2.1656 -0.2603
15106TIP3    H266810   5.547   0.468  12.744  1.3783  0.3363  0.2213
15107TIP3   OH266811   1.176   5.850   5.723 -0.3367  0.0515  0.4800
15107TIP3    H166812   1.269   5.826   5.719 -0.4993 -0.4048 -1.4336
15107TIP3    H266813   1.133   5.792   5.660 -1.4555  2.2318 -0.8829
15108TIP3   OH266814   3.026   1.030  15.076  0.0298  0.5276  0.6229
15108TIP3    H166815   3.044   0.940  15.050  0.3996  0.4305  1.1764
15108TIP3    H266816   2.958   1.023  15.143 -2.6364  0.9436 -1.8969
15109TIP3   OH266817   2.305   2.907   4.225 -0.4363 -0.2969 -0.1673
15109TIP3    H166818   2.303   2.898   4.320 -3.5805 -1.1397 -0.1938
15109TIP3    H266819   2.305   2.817   4.192 -0.9065 -0.0410 -0.9181
15110TIP3   OH266820   3.266   3.365  11.729  0.2523 -0.5620 -0.4553
15110TIP3    H166821   3.177   3.344  11.700  0.5011 -1.6479 -0.4843
15110TIP3    H266822   3.268   3.338  11.821  0.6244 -0.7956 -0.5301
15111TIP3   OH266823   4.380   2.213  11.767  0.5896 -0.2036  0.1549
15111TIP3    H166824   4.448   2.274  11.795 -0.7309  1.2853  0.2068
15111TIP3    H266825   4.404   2.190  11.677  0.8952  0.6890  0.0040
15112TIP3   OH266826   2.941   1.925  14.577 -0.4313  0.1524 -0.3461
15112TIP3    H166827   2.991   1.843  14.582 -0.4382  0.2046  0.6955
15112TIP3    H266828   2.854   1.898  14.548 -1.3046 -0.6315  2.6694
15113TIP3   OH266829   2.871   1.091  13.737 -0.4158 -0.2021 -0.2707
15113TIP3    H166830   2.861   1.059  13.827  2.0565 -2.0390 -0.5436
15113TIP3    H266831   2.844   1.183  13.742 -2.3996 -0.7935  1.8303
15114TIP3   OH266832   1.191   3.595  10.245  0.3562 -0.0008 -0.1427
15114TIP3    H166833   1.177   3.598  10.150  0.5326  1.8683 -0.1369
15114TIP3    H266834   1.108   3.625  10.282  0.3914 -0.4285  0.2987
15115TIP3   OH266835   2.141   4.190   5.464  0.5974  0.7377 -0.2888
15115TIP3    H166836   2.083   4.222   5.533  0.7936  1.9519 -0.6700
15115TIP3    H266837   2.119   4.097   5.455 -0.2374  0.8405  0.6003
15116TIP3   OH266838   4.356   3.641   5.597  0.1905  0.4977 -0.2342
15116TIP3    H166839   4.393   3.701   5.532  3.3283 -0.2966  0.6373
15116TIP3    H266840   4.345   3.695   5.675  0.4285  0.5312 -0.2239
15117TIP3   OH266841   1.888   1.997  11.062  0.0715  0.5685 -0.1619
15117TIP3    H166842   1.958   1.941  11.095  0.4069  1.4526  0.6823
15117TIP3    H266843   1.919   2.027  10.977 -0.7430 -1.6410 -1.3030
15118TIP3   OH266844   1.023   2.880  15.865  0.3681  0.2912  0.1995
15118TIP3    H166845   0.935   2.859  15.833  1.6388 -3.9080 -1.2353
15118TIP3    H266846   1.012   2.893  15.959 -1.7433 -0.6971  0.1521
15119TIP3   OH266847   0.884   2.576   2.260 -0.0614 -0.2052 -0.2439
15119TIP3    H166848   0.888   2.668   2.234  0.2408 -0.0100  0.4667
15119TIP3    H266849   0.797   2.547   2.232 -0.0731  0.2393 -0.6646
15120TIP3   OH266850   0.244   3.988  14.623  0.1109 -0.4096 -0.6565
15120TIP3    H166851   0.210   3.966  14.709 -0.4197  2.3256 -0.0714
15120TIP3    H266852   0.327   3.940  14.617 -0.5361 -1.7813  0.7406
15121TIP3   OH266853   5.972   4.033   1.682  0.9910 -0.0791  0.3604
15121TIP3    H166854   6.053   4.031   1.631  0.8654  0.0033  0.1551
15121TIP3    H266855   5.925   3.953   1.656  0.7980  0.1077  0.1329
15122TIP3   OH266856   6.151   2.450   1.970  1.0982  0.1256  0.5566
15122TIP3    H166857   6.197   2.521   2.016  1.6908 -0.1517  0.4067
15122TIP3    H266858   6.125   2.488   1.887  0.9023  0.3365  0.7118
15123TIP3   OH266859   3.657   4.084   1.767 -0.3933 -0.0973  0.3869
15123TIP3    H166860   3.637   4.009   1.711 -0.4074 -0.0419  0.3176
15123TIP3    H266861   3.693   4.150   1.707  1.2573 -0.6795  0.6881
15124TIP3   OH266862   5.320   5.792  16.115  0.0158 -0.6138  0.4818
15124TIP3    H166863   5.339   5.699  16.126  1.3957 -0.2449  1.6215
15124TIP3    H266864   5.249   5.810  16.177  0.9807 -0.5758  1.6175
15125TIP3   OH266865   6.797   3.562   0.244 -0.1983  0.0576 -0.2269
15125TIP3    H166866   6.749   3.525   0.318  2.0324 -2.0482  0.2907
15125TIP3    H266867   6.889   3.558   0.271  0.6110  0.1163 -2.7308
15126TIP3   OH266868   5.734   3.108  15.335 -0.2931  0.0795 -0.0124
15126TIP3    H166869   5.670   3.178  15.322 -0.1960  0.5724  1.9025
15126TIP3    H266870   5.778   3.130  15.417  0.2293 -1.8551  0.2800
15127TIP3   OH266871   3.022   3.539   3.269  0.0941 -0.3622 -0.3174
15127TIP3    H166872   3.065   3.608   3.319 -1.3237 -0.5459  1.2858
15127TIP3    H266873   3.021   3.464   3.329 -1.0940 -0.7975 -0.8463
15128TIP3   OH266874   1.900   4.700  10.327 -0.7223  0.2078  0.6689
15128TIP3    H166875   1.931   4.736  10.410  1.8525 -0.8145  0.2280
15128TIP3    H266876   1.924   4.765  10.261  0.0104 -0.3428  0.3835
15129TIP3   OH266877   4.272   2.601  13.932 -0.2572 -0.4740  0.0377
15129TIP3    H166878   4.195   2.603  13.876 -0.6261  2.4201  0.4758
15129TIP3    H266879   4.242   2.562  14.014  0.1535 -4.2303 -1.4225
15130TIP3   OH266880   3.740   2.693   3.825 -0.3852  0.5331 -0.6529
15130TIP3    H166881   3.806   2.757   3.853 -0.1472 -0.9168  2.5406
15130TIP3    H266882   3.661   2.717   3.873 -1.4423  0.6167 -2.3506
15131TIP3   OH266883   3.922   6.786   0.528 -0.1779 -0.1439 -0.5052
15131TIP3    H166884   3.912   6.710   0.471  0.4155  0.0330 -0.8489
15131TIP3    H266885   4.010   6.777   0.565 -0.7838 -0.6103  0.9132
15132TIP3   OH266886   0.652   3.214   5.274  0.1317 -0.0180  1.0961
15132TIP3    H166887   0.669   3.184   5.185 -0.3729  2.2637  0.1649
15132TIP3    H266888   0.664   3.136   5.329  1.4121 -1.2446 -0.8370
15133TIP3   OH266889   1.666   5.019   5.257 -0.0980 -0.6032 -0.2682
15133TIP3    H166890   1.656   4.974   5.341  0.2354 -2.1202 -1.0010
15133TIP3    H266891   1.728   5.090   5.275 -2.8346  1.5332  1.5982
15134TIP3   OH266892   3.014   1.222   6.138  0.3071 -0.0634  0.3321
15134TIP3    H166893   2.982   1.143   6.096 -0.1770 -0.1098  0.7737
15134TIP3    H266894   3.034   1.282   6.066 -1.8500  0.3905  0.0388
15135TIP3   OH266895   5.776   4.994  13.954 -0.2783  0.1847  0.1513
15135TIP3    H166896   5.801   4.931  13.887 -0.0615 -1.0038  1.3014
15135TIP3    H266897   5.711   5.050  13.912 -1.3642 -1.5401 -0.5835
15136TIP3   OH266898   5.588   4.579  15.542  0.9570  0.3816  0.5643
15136TIP3    H166899   5.658   4.547  15.484  0.0431  0.3895 -0.5902
15136TIP3    H266900   5.544   4.500  15.572 -0.6621  0.4322 -1.4746
15137TIP3   OH266901   5.573   5.291   2.582  0.1818 -0.1214 -0.2684
15137TIP3    H166902   5.608   5.214   2.537 -0.5535  0.2920 -1.6037
15137TIP3    H266903   5.563   5.263   2.673 -0.7315 -1.8556 -0.8533
15138TIP3   OH266904   2.502   5.228   0.583 -0.2562 -0.2658  0.3237
15138TIP3    H166905   2.574   5.202   0.527 -0.4387 -0.8261  0.3401
15138TIP3    H266906   2.511   5.173   0.661 -1.1338 -0.8922  0.0017
15139TIP3   OH266907   2.626   0.137   4.459 -0.4060 -1.3788  0.6651
15139TIP3    H166908   2.717   0.107   4.467  0.0539 -0.0587  0.6697
15139TIP3    H266909   2.621   0.173   4.370  0.0657  1.5151  1.7011
15140TIP3   OH266910   3.598   4.218  11.125 -0.1912  0.4017 -0.3152
15140TIP3    H166911   3.559   4.166  11.056  1.0673  0.7507 -1.3186
15140TIP3    H266912   3.687   4.238  11.094 -0.3798  2.5342  0.3241
15141TIP3   OH266913   5.806   1.453   2.494  0.1611  0.5936 -0.2891
15141TIP3    H166914   5.877   1.388   2.492  1.5484  2.0539 -0.4878
15141TIP3    H266915   5.726   1.401   2.494  1.1708 -1.1343 -2.2761
15142TIP3   OH266916   1.829   6.771  15.151  0.2877  0.2202 -0.0377
15142TIP3    H166917   1.787   6.690  15.124  0.9507  0.1244 -0.8239
15142TIP3    H266918   1.890   6.791  15.080 -0.9619  2.2291 -0.6228
15143TIP3   OH266919   3.418   4.897  14.058 -0.2965 -0.1066 -0.6033
15143TIP3    H166920   3.360   4.923  13.986  0.6865 -0.6947 -1.6538
15143TIP3    H266921   3.506   4.917  14.025  0.3252 -2.3135 -0.4434
15144TIP3   OH266922   4.356   2.948   1.233  0.5072 -0.3300  0.0151
15144TIP3    H166923   4.431   3.005   1.252 -0.7455  1.0356  1.1072
15144TIP3    H266924   4.338   2.962   1.140 -0.2792  1.7894  0.4122
15145TIP3   OH266925   0.437   2.717   0.173  0.3857  0.6649 -0.4111
15145TIP3    H166926   0.509   2.777   0.190 -1.1085  1.6338  3.4302
15145TIP3    H266927   0.360   2.773   0.164 -0.1127 -0.3567 -4.2845
15146TIP3   OH266928   4.144   6.389   3.051 -0.0122  0.0285 -0.3716
15146TIP3    H166929   4.108   6.301   3.068 -0.4427  0.5198  1.5158
15146TIP3    H266930   4.083   6.428   2.989 -2.4229  0.5428  2.1349
15147TIP3   OH266931   1.125   6.546   0.307 -0.1219  0.3391  0.0240
15147TIP3    H166932   1.111   6.613   0.374  0.1551 -0.3070  0.7461
15147TIP3    H266933   1.211   6.568   0.269 -0.3336  0.7752 -0.2107
15148TIP3   OH266934   5.489   5.089  13.331  0.3017  0.5443  0.5883
15148TIP3    H166935   5.452   5.104  13.244  0.8637 -0.8269  0.0877
15148TIP3    H266936   5.515   4.997  13.330  0.1489  0.4632  2.2783
15149TIP3   OH266937   5.126   1.502   2.792 -0.4774 -0.0098  0.2450
15149TIP3    H166938   5.078   1.430   2.751 -0.0255 -0.8341  1.1286
15149TIP3    H266939   5.167   1.548   2.718 -1.0207 -0.4620 -0.3555
15150TIP3   OH266940   3.322   3.209   0.882 -0.1929  0.3716 -0.0013
15150TIP3    H166941   3.352   3.201   0.973  1.4998  1.3169 -0.4385
15150TIP3    H266942   3.276   3.293   0.879 -0.1755  0.3800 -0.0322
15151TIP3   OH266943   1.547   1.688   0.096  0.2752  0.1027 -0.1138
15151TIP3    H166944   1.616   1.671   0.032 -1.0576  0.9814 -1.8540
15151TIP3    H266945   1.561   1.621   0.164  1.6243 -0.9747 -1.3781
15152TIP3   OH266946   3.267   5.089  16.753 -0.1088  0.2259 -0.1142
15152TIP3    H166947   3.219   5.110  16.832 -0.3929  0.8161 -0.4420
15152TIP3    H266948   3.233   5.149  16.687 -0.0628 -0.4297 -0.7538
15153TIP3   OH266949   4.650   3.166   0.013  0.9140 -0.0440 -0.1460
15153TIP3    H166950   4.660   3.071   0.009  1.3220 -0.0561  0.8916
15153TIP3    H266951   4.600   3.182   0.094 -1.2256  0.4961 -1.4901
15154TIP3   OH266952   3.316   5.117   4.766 -0.4770  0.1551  0.0231
15154TIP3    H166953   3.307   5.083   4.855 -1.1562  1.5708  0.5356
15154TIP3    H266954   3.260   5.195   4.765  1.0261  1.2797 -1.0608
15155TIP3   OH266955   5.705   3.173  11.594 -0.1031  0.2668 -0.3842
15155TIP3    H166956   5.742   3.086  11.584  1.0918  0.7877 -0.7420
15155TIP3    H266957   5.772   3.223  11.642 -0.4764  1.1404 -0.7388
15156TIP3   OH266958   2.715   5.108   3.819  0.5953 -0.5934 -0.0417
15156TIP3    H166959   2.743   5.053   3.892 -0.2446  0.0104  0.7476
15156TIP3    H266960   2.679   5.187   3.860  3.0986  1.2849 -1.1357
15157TIP3   OH266961   5.163   1.655  11.127  0.0033 -0.4449 -0.2151
15157TIP3    H166962   5.127   1.664  11.039 -2.6669  1.2960  0.9187
15157TIP3    H266963   5.142   1.738  11.170  0.0201 -1.7184  2.4408
15158TIP3   OH266964   4.090   0.944   5.338 -0.5619 -0.7491  0.4552
15158TIP3    H166965   4.110   1.015   5.398 -2.1898  0.7610 -0.6901
15158TIP3    H266966   4.055   0.987   5.260  2.6572 -2.4743 -2.2216
15159TIP3   OH266967   4.788   6.765   0.903  0.2915  0.5071 -0.4356
15159TIP3    H166968   4.806   6.811   0.985 -0.4177 -1.0874  0.6854
15159TIP3    H266969   4.874   6.738   0.871  0.4689 -0.8155  1.0295
15160TIP3   OH266970   4.732   2.318   5.157  0.1920  0.4333  0.2367
15160TIP3    H166971   4.742   2.255   5.228 -0.1644 -0.2412 -0.2988
15160TIP3    H266972   4.652   2.365   5.177 -0.2660 -0.2049 -0.0407
15161TIP3   OH266973   4.753   4.665   5.283 -0.0414 -0.1431  0.5857
15161TIP3    H166974   4.796   4.692   5.203 -0.5892 -0.9538  0.0010
15161TIP3    H266975   4.764   4.739   5.343 -1.9990  1.6684 -1.1287
15162TIP3   OH266976   4.082   6.179  12.141  0.1107  0.4104  0.1867
15162TIP3    H166977   4.156   6.217  12.092 -0.5984  1.2517 -0.2589
15162TIP3    H266978   4.061   6.245  12.207 -0.6204  0.4459 -0.0752
15163TIP3   OH266979   6.230   2.940   4.917  0.2398  0.0380  0.7486
15163TIP3    H166980   6.228   2.875   4.847 -0.9212 -0.0860  0.8743
15163TIP3    H266981   6.232   2.889   4.998 -2.7024  0.0202  0.9357
15164TIP3   OH266982   4.254   5.790  13.186 -0.5518 -0.3739 -0.9493
15164TIP3    H166983   4.229   5.883  13.189 -0.7599 -0.3239 -3.2107
15164TIP3    H266984   4.328   5.784  13.246 -1.3305  0.9677  0.2262
15165TIP3   OH266985   0.463   5.090  17.145 -0.4120 -0.1147 -0.1049
15165TIP3    H166986   0.518   5.033  17.200 -1.2097 -0.1224  0.6983
15165TIP3    H266987   0.437   5.034  17.071 -1.7174 -1.0317  0.9995
15166TIP3   OH266988   0.699   5.071   2.782 -0.6833 -0.2543 -0.2786
15166TIP3    H166989   0.620   5.030   2.746 -1.2238  1.0307 -0.6031
15166TIP3    H266990   0.742   5.000   2.830 -1.7295 -1.1296 -0.5761
15167TIP3   OH266991   5.213   2.136  11.752  0.2118 -0.1706 -0.1348
15167TIP3    H166992   5.301   2.113  11.781  0.4603  1.3486  0.4190
15167TIP3    H266993   5.181   2.058  11.706 -0.2722 -2.9494  4.2743
15168TIP3   OH266994   2.860   5.504   0.083 -0.3745  0.7312  0.0432
15168TIP3    H166995   2.878   5.420   0.125  0.5532  0.4184 -0.9259
15168TIP3    H266996   2.895   5.570   0.144 -0.4255  0.3732  0.4616
15169TIP3   OH266997   5.182   2.164   5.855  0.8723 -0.0768 -0.4448
15169TIP3    H166998   5.124   2.156   5.779 -0.3522 -0.2657  0.4786
15169TIP3    H266999   5.170   2.254   5.886  0.5098 -0.3239  0.1655
15170TIP3   OH267000   1.501   4.431   3.556 -0.6160  0.0436 -0.6595
15170TIP3    H167001   1.570   4.491   3.586 -0.5929 -0.5009  0.4213
15170TIP3    H267002   1.424   4.456   3.607 -0.1041 -2.1126  1.3989
15171TIP3   OH267003   5.320   4.013  14.239  0.4662 -0.1137  0.5327
15171TIP3    H167004   5.284   3.930  14.270 -1.2821  1.0764  1.8776
15171TIP3    H267005   5.413   3.996  14.226  0.0488 -2.4228  0.1875
15172TIP3   OH267006   0.743   1.056   2.298  0.2009 -0.5224  0.2008
15172TIP3    H167007   0.772   0.966   2.311 -2.0500 -1.8105 -2.5617
15172TIP3    H267008   0.661   1.062   2.347  0.6016  0.2367  0.8017
15173TIP3   OH267009   2.258   4.314   0.575 -0.1618 -0.1099 -0.4671
15173TIP3    H167010   2.241   4.407   0.559  0.8748  0.1105 -0.3997
15173TIP3    H267011   2.278   4.309   0.669  2.0342  0.0113 -0.8659
15174TIP3   OH267012   5.647   4.266  11.538 -0.5093  0.3821 -0.0273
15174TIP3    H167013   5.718   4.312  11.494 -1.4643  1.1094 -0.8467
15174TIP3    H267014   5.668   4.273  11.631  0.1515  1.1437 -0.2250
15175TIP3   OH267015   2.919   3.328   2.129 -0.4774  0.2549  0.5770
15175TIP3    H167016   2.964   3.245   2.147  1.5952  1.6847  2.5553
15175TIP3    H267017   2.911   3.331   2.034  2.6754 -0.6354  0.1787
15176TIP3   OH267018   2.146   0.929   3.008 -0.0796 -0.7925 -0.1794
15176TIP3    H167019   2.140   0.862   2.941 -0.0656  0.9388 -2.0196
15176TIP3    H267020   2.056   0.939   3.039 -0.1110 -1.5062 -0.0212
15177TIP3   OH267021   4.248   4.883   1.100  0.9082  0.2015  0.2811
15177TIP3    H167022   4.343   4.871   1.100  0.6047 -3.8444 -1.1081
15177TIP3    H267023   4.216   4.828   1.171 -0.4790  1.7938  0.9837
15178TIP3   OH267024   1.663   4.445  12.421  0.3810  0.3914 -0.4569
15178TIP3    H167025   1.631   4.512  12.481  0.6833  1.8741 -1.8659
15178TIP3    H267026   1.746   4.478  12.389  1.2000 -1.3090 -0.2081
15179TIP3   OH267027   4.957   5.455  10.992  0.2462  0.2635  0.5490
15179TIP3    H167028   4.964   5.522  10.924  0.1100 -1.6786 -1.5198
15179TIP3    H267029   4.882   5.482  11.045 -2.3345 -0.1259 -2.6033
15180TIP3   OH267030   6.753   4.276   3.901  0.6526 -0.7576  0.6929
15180TIP3    H167031   6.672   4.321   3.875  0.8889  0.2170  1.5684
15180TIP3    H267032   6.756   4.198   3.845 -0.5336 -0.4529  0.1641
15181TIP3   OH267033   0.169   1.647   3.452  0.1682  0.6259 -0.3272
15181TIP3    H167034   0.133   1.731   3.481  1.1390  1.0201 -0.2188
15181TIP3    H267035   0.098   1.607   3.402 -1.1073  0.5160  1.4549
15182TIP3   OH267036   3.216   2.922   1.512  0.7014 -0.1615 -0.7431
15182TIP3    H167037   3.272   2.965   1.576  1.0048  0.2399 -1.2662
15182TIP3    H267038   3.195   2.837   1.551  1.9630 -0.4627 -0.6774
15183TIP3   OH267039   2.610   1.510   5.901  0.2398  0.0973  0.0163
15183TIP3    H167040   2.689   1.563   5.895  1.1343 -1.0787  0.9809
15183TIP3    H267041   2.552   1.558   5.960  0.8709  0.2157  0.5471
15184TIP3   OH267042   2.880   2.725  15.133  0.1609  0.4633 -0.0145
15184TIP3    H167043   2.789   2.736  15.104 -0.9624  0.0154  3.0305
15184TIP3    H267044   2.894   2.797  15.195  1.2351 -0.5599  0.9739
15185TIP3   OH267045   5.379   1.967  16.745 -0.1503  0.3554 -0.2179
15185TIP3    H167046   5.443   1.898  16.730 -0.8997 -1.0324  2.2869
15185TIP3    H267047   5.294   1.922  16.744 -0.6490  1.1346  1.5651
15186TIP3   OH267048   6.017   1.606   6.005  0.2106 -0.2038  0.5427
15186TIP3    H167049   6.111   1.607   5.989  0.3672 -1.8309  1.1410
15186TIP3    H267050   5.986   1.528   5.958 -0.6061 -0.4611  1.4840
15187TIP3   OH267051   3.431   6.606   0.660 -0.2079  0.8220 -0.1124
15187TIP3    H167052   3.472   6.531   0.616 -0.4602  0.5316  0.1489
15187TIP3    H267053   3.483   6.682   0.631  0.4089  0.4790  0.0718
15188TIP3   OH267054   0.866   5.054   4.118  0.1123  0.2147  0.2572
15188TIP3    H167055   0.942   5.104   4.148  0.9689  0.2161 -1.7283
15188TIP3    H267056   0.897   4.964   4.113  1.1303  0.5677 -3.4574
15189TIP3   OH267057   6.706   5.130  11.997 -0.4653  0.2907  0.3246
15189TIP3    H167058   6.782   5.074  12.016 -0.9440 -0.5673 -0.1934
15189TIP3    H267059   6.724   5.165  11.910 -0.7640 -0.1049  0.1003
15190TIP3   OH267060   5.406   4.993  12.798  0.2926 -0.7102  0.5237
15190TIP3    H167061   5.435   4.925  12.736  1.1610 -0.4143  0.5953
15190TIP3    H267062   5.481   5.052  12.806 -0.7172  0.7176 -0.1563
15191TIP3   OH267063   5.858   3.666  16.007  0.2264 -0.4930 -0.2106
15191TIP3    H167064   5.835   3.758  16.021  0.9116 -0.0130 -1.9444
15191TIP3    H267065   5.774   3.619  16.013 -0.3605  0.4547 -0.7885
15192TIP3   OH267066   6.524   0.819   6.144 -0.2901  0.0720  0.7377
15192TIP3    H167067   6.598   0.759   6.130 -0.2567  0.3765 -0.4189
15192TIP3    H267068   6.557   0.882   6.208  0.3330 -0.0089  0.5018
15193TIP3   OH267069   6.496   0.339   4.441 -0.3431 -0.2633  0.4008
15193TIP3    H167070   6.557   0.339   4.367  0.2246  0.1220  0.8633
15193TIP3    H267071   6.444   0.419   4.428  0.9209  0.7605  1.3448
15194TIP3   OH267072   2.192   5.854   3.347 -0.0517  0.0223  0.4522
15194TIP3    H167073   2.206   5.797   3.271 -2.2029 -2.3492  1.6757
15194TIP3    H267074   2.100   5.879   3.340 -0.2394 -0.1166  2.1922
15195TIP3   OH267075   3.669   6.016   3.873 -0.4543 -0.4132 -0.5311
15195TIP3    H167076   3.662   6.067   3.792 -2.3052  0.4843  0.1267
15195TIP3    H267077   3.642   5.928   3.849  1.1557 -0.7169 -1.3288
15196TIP3   OH267078   3.741   1.700   2.520  0.0503  0.0914  0.1025
15196TIP3    H167079   3.805   1.635   2.490  1.9192  2.0463 -0.3740
15196TIP3    H267080   3.737   1.763   2.448 -1.0697  0.9623  0.9049
15197TIP3   OH267081   5.804   5.861   3.130  0.6664 -0.3293  0.5695
15197TIP3    H167082   5.836   5.813   3.054  1.3977  0.1591  0.5520
15197TIP3    H267083   5.860   5.939   3.134 -0.1751  0.2679  0.8783
15198TIP3   OH267084   2.699   3.523  11.779  0.6339  0.4608  0.2790
15198TIP3    H167085   2.775   3.468  11.801  1.8102  2.3960  1.3507
15198TIP3    H267086   2.729   3.577  11.705  0.1746  0.9746  0.4638
15199TIP3   OH267087   1.943   0.697  14.200 -0.0060 -0.0273 -0.3029
15199TIP3    H167088   1.936   0.730  14.110 -0.6082 -2.0424 -1.0373
15199TIP3    H267089   1.945   0.602  14.191 -0.0821 -0.2812  1.8397
15200TIP3   OH267090   5.728   1.059   4.823 -0.3108  0.0294  0.1645
15200TIP3    H167091   5.692   0.972   4.838 -1.3606  0.7842  2.6389
15200TIP3    H267092   5.655   1.110   4.789  0.2820 -0.0062 -1.2136
15201TIP3   OH267093   5.773   6.553  11.156  0.3409 -0.0572 -0.1486
15201TIP3    H167094   5.752   6.634  11.110  1.2987  0.3122  0.0521
15201TIP3    H267095   5.738   6.565  11.244  0.4170  0.1150 -0.1412
15202TIP3   OH267096   0.541   5.815   5.383  0.3082  0.1449  0.5227
15202TIP3    H167097   0.545   5.725   5.351 -1.3624  0.8710 -2.0096
15202TIP3    H267098   0.571   5.809   5.474  2.4496 -2.5547 -0.2320
15203TIP3   OH267099   4.767   4.703   2.472  0.1820  0.5472  0.4078
15203TIP3    H167100   4.707   4.651   2.524 -0.0991  0.6938  0.2335
15203TIP3    H267101   4.850   4.655   2.474  0.6915  1.4125  2.4510
15204TIP3   OH267102   3.516   3.745  12.931  0.4188  0.0439 -0.0646
15204TIP3    H167103   3.574   3.686  12.882 -1.4235  0.4902 -2.9702
15204TIP3    H267104   3.428   3.721  12.903 -0.6948  1.1635  2.2215
15205TIP3   OH267105   1.297   1.660   6.137 -0.6537  0.3742 -0.2833
15205TIP3    H167106   1.327   1.646   6.227 -1.7827 -0.6208 -0.0314
15205TIP3    H267107   1.365   1.714   6.097  2.1878 -2.7816 -0.1607
15206TIP3   OH267108   3.693   1.444   1.476 -0.4340  0.5051 -0.3883
15206TIP3    H167109   3.680   1.537   1.459 -0.6423  0.6921  0.7097
15206TIP3    H267110   3.682   1.435   1.571  0.4606 -0.4923 -0.3543
15207TIP3   OH267111   6.398   5.336  17.188 -0.3986  0.1492 -0.0494
15207TIP3    H167112   6.369   5.247  17.168  2.3579 -0.5504 -1.5017
15207TIP3    H267113   6.384   5.384  17.106 -2.3085  1.2553  0.8643
15208TIP3   OH267114   3.107   1.782   0.255 -0.2795 -0.2667 -0.5769
15208TIP3    H167115   3.109   1.841   0.180 -0.2329 -0.5311 -0.7828
15208TIP3    H267116   3.124   1.695   0.219 -2.8067 -0.8192 -0.6755
15209TIP3   OH267117   1.025   1.878   5.794 -0.1493 -0.4380  0.2905
15209TIP3    H167118   0.937   1.842   5.786 -0.3444  0.2048 -0.6775
15209TIP3    H267119   1.080   1.821   5.741 -0.2564  0.0292 -0.3268
15210TIP3   OH267120   6.467   3.199   6.607  0.2935 -0.3010  0.0856
15210TIP3    H167121   6.488   3.291   6.589 -1.0604 -0.0575 -0.3835
15210TIP3    H267122   6.372   3.198   6.621  0.5381 -1.3479  2.0256
15211TIP3   OH267123   3.615   5.734   6.649  0.2843 -0.3796  0.0486
15211TIP3    H167124   3.584   5.666   6.709  1.0250 -0.1332  0.7310
15211TIP3    H267125   3.586   5.705   6.563  0.0142 -1.2187  0.4110
15212TIP3   OH267126   3.355   1.790   0.403 -0.1161 -0.2743 -0.5994
15212TIP3    H167127   3.263   1.768   0.384 -0.2325 -0.5379  0.2121
15212TIP3    H267128   3.403   1.758   0.327 -0.6803 -0.2440 -0.9830
15213TIP3   OH267129   2.755   6.140  14.473 -0.1775 -0.0149  0.2963
15213TIP3    H167130   2.850   6.140  14.486 -0.2781 -0.0648  1.0660
15213TIP3    H267131   2.722   6.074  14.534 -0.8971  1.4074  1.5225
15214TIP3   OH267132   3.075   0.542  12.113  0.7073  0.7173 -0.3722
15214TIP3    H167133   3.148   0.545  12.175 -0.7503  1.1701  1.4136
15214TIP3    H267134   3.047   0.633  12.104 -0.5095  0.4196  0.1197
15215TIP3   OH267135   4.846   2.816  12.044 -0.2748 -0.6078  0.0676
15215TIP3    H167136   4.783   2.885  12.061  0.5938  0.6137 -1.4081
15215TIP3    H267137   4.924   2.861  12.012  1.7277 -1.9739  2.6286
15216TIP3   OH267138   2.135   0.806  16.702  0.0847  0.1381  0.3367
15216TIP3    H167139   2.127   0.895  16.737  1.2680 -0.0359  1.0865
15216TIP3    H267140   2.166   0.754  16.776  2.4143 -0.2822 -0.8403
15217TIP3   OH267141   5.949   6.398  15.676  0.6431 -0.6765  0.0423
15217TIP3    H167142   5.888   6.405  15.750  1.6053  1.1855  0.7217
15217TIP3    H267143   5.920   6.465  15.615  1.2795 -0.6119 -0.1897
15218TIP3   OH267144   6.623   4.584   1.667  0.6036 -0.2352  0.0604
15218TIP3    H167145   6.677   4.530   1.611  2.0643  1.6389 -0.4240
15218TIP3    H267146   6.606   4.663   1.616 -0.3561  0.3583  1.2359
15219TIP3   OH267147   6.739   4.412   1.492  0.1597 -0.0655 -0.1821
15219TIP3    H167148   6.694   4.361   1.426 -1.2109  0.6537  0.1619
15219TIP3    H267149   6.829   4.381   1.489 -0.3780 -1.6631 -0.7825
15220TIP3   OH267150   0.710   5.515  13.621 -1.0199 -0.1336 -0.4634
15220TIP3    H167151   0.785   5.498  13.678 -0.1040 -0.1629 -1.6303
15220TIP3    H267152   0.646   5.449  13.645 -0.0126 -1.1747 -0.5553
15221TIP3   OH267153   3.658   5.007   0.795  0.7280 -0.0792  0.2811
15221TIP3    H167154   3.710   5.077   0.833  2.1478 -1.1105  0.2897
15221TIP3    H267155   3.680   4.929   0.846  0.8261 -0.9834 -1.0838
15222TIP3   OH267156   2.607   0.890   3.721 -0.0401  0.7957 -0.4220
15222TIP3    H167157   2.656   0.973   3.724 -1.7048  1.8482 -0.8254
15222TIP3    H267158   2.652   0.838   3.655  1.6346  0.9441  0.5387
15223TIP3   OH267159   6.390   3.526   4.153 -0.1062 -0.2291  0.7146
15223TIP3    H167160   6.432   3.497   4.072  0.6515  1.4653  0.4734
15223TIP3    H267161   6.298   3.540   4.129  0.3993  1.6664 -0.2584
15224TIP3   OH267162   0.017   1.016  16.205 -0.0248  0.3732 -0.1791
15224TIP3    H167163  -0.007   0.939  16.258 -0.8978  1.1838  0.6474
15224TIP3    H267164   0.045   0.980  16.121  2.4106 -1.0393  1.1302
15225TIP3   OH267165   5.713   5.447   2.123 -0.3792 -0.4903 -0.0919
15225TIP3    H167166   5.739   5.525   2.074  3.9287 -0.2139  2.1622
15225TIP3    H267167   5.669   5.480   2.201 -1.9449 -0.6065 -0.8948
15226TIP3   OH267168   2.103   2.167  12.197 -0.3671  0.1512  0.0540
15226TIP3    H167169   2.062   2.198  12.277 -0.6377 -2.1237  0.8681
15226TIP3    H267170   2.181   2.221  12.187 -0.1109  0.2183  2.0987
15227TIP3   OH267171   2.616   5.569  15.506  0.2277  0.4140  0.1140
15227TIP3    H167172   2.712   5.572  15.499  0.2166 -0.5351 -0.7562
15227TIP3    H267173   2.593   5.649  15.552  1.3183  1.4777 -1.0872
15228TIP3   OH267174   6.374   2.384  10.966  0.0687 -0.4635 -0.0512
15228TIP3    H167175   6.312   2.352  10.901 -1.4978  4.2350 -1.2622
15228TIP3    H267176   6.437   2.437  10.917  1.5637 -0.3947  1.7986
15229TIP3   OH267177   4.226   5.041  13.826 -0.7166  0.0897  0.6119
15229TIP3    H167178   4.246   5.119  13.773  0.4553 -1.2985 -1.1183
15229TIP3    H267179   4.269   5.058  13.910  1.5481  0.4053 -0.5218
15230TIP3   OH267180   1.271   4.387   4.828 -0.6664  0.0696  0.2646
15230TIP3    H167181   1.178   4.376   4.849 -0.4904  1.0204  1.6514
15230TIP3    H267182   1.275   4.375   4.733 -2.0839 -0.7262  0.2746
15231TIP3   OH267183   3.175   3.779  14.020 -0.2135  0.3053 -0.1611
15231TIP3    H167184   3.116   3.838  14.067  1.7213  1.0984  1.4219
15231TIP3    H267185   3.243   3.835  13.985  0.5068 -0.7591 -0.5261
15232TIP3   OH267186   3.791   2.031  12.704  0.1134  0.9876  0.5329
15232TIP3    H167187   3.744   2.114  12.694 -0.5401  0.5178 -0.4459
15232TIP3    H267188   3.739   1.981  12.766 -0.1036  0.8750  0.2596
15233TIP3   OH267189   0.423   5.671   2.702 -0.0613 -0.1447  0.0605
15233TIP3    H167190   0.359   5.600   2.699 -0.1908 -0.0327  0.1592
15233TIP3    H267191   0.497   5.634   2.751 -0.8643  0.3628  1.7575
15234TIP3   OH267192   2.233   5.526  16.938 -0.2188  0.2803  0.5257
15234TIP3    H167193   2.138   5.525  16.948 -0.1141 -1.6610  1.8443
15234TIP3    H267194   2.267   5.519  17.027  1.1956  1.1134  0.0887
15235TIP3   OH267195   4.833   5.487  16.454 -0.2032  0.0503  0.2097
15235TIP3    H167196   4.874   5.574  16.458 -0.7491  0.3074  0.3953
15235TIP3    H267197   4.831   5.458  16.545  0.8956 -0.6126  0.0483
15236TIP3   OH267198   1.379   6.134   0.300 -0.3115  0.6136 -0.0518
15236TIP3    H167199   1.396   6.133   0.206 -0.4893 -2.0691 -0.1299
15236TIP3    H267200   1.446   6.078   0.338 -1.0438  0.5762  1.2575
15237TIP3   OH267201   0.609   2.648  12.489  0.0588  0.2237 -0.0509
15237TIP3    H167202   0.563   2.703  12.552 -0.4486 -1.0859  0.7687
15237TIP3    H267203   0.700   2.676  12.494 -0.4497  2.2500 -1.0504
15238TIP3   OH267204   3.161   5.870  16.235  0.2108 -0.3000  0.2797
15238TIP3    H167205   3.196   5.833  16.316 -0.6620  1.2200  1.4052
15238TIP3    H267206   3.138   5.960  16.258  0.3820  0.3258 -1.7970
15239TIP3   OH267207   2.789   5.197  14.072  0.0746 -0.5105  0.0912
15239TIP3    H167208   2.819   5.200  14.163  0.1025 -1.3448  0.1139
15239TIP3    H267209   2.786   5.104  14.051 -0.3271 -0.3377 -0.6336
15240TIP3   OH267210   6.160   0.950  16.596 -0.2045 -0.3118  0.2298
15240TIP3    H167211   6.184   0.958  16.689  1.9246  0.0360 -0.2906
15240TIP3    H267212   6.143   1.039  16.568  0.8678 -0.1899 -0.0931
15241TIP3   OH267213   3.353   0.711  12.075  0.1375  0.1830 -0.2796
15241TIP3    H167214   3.281   0.755  12.029  0.3901 -0.7210 -1.6197
15241TIP3    H267215   3.419   0.697  12.007  0.7286 -0.8161  0.4789
15242TIP3   OH267216   1.793   1.220  12.944  0.0680  0.0906 -0.3246
15242TIP3    H167217   1.757   1.304  12.915 -0.6243 -0.4800 -1.1669
15242TIP3    H267218   1.725   1.156  12.922  0.3106 -0.6063  0.9141
15243TIP3   OH267219   0.503   5.350  11.460 -0.3023 -0.4795  0.7809
15243TIP3    H167220   0.576   5.289  11.458 -0.4721 -0.7275  1.6192
15243TIP3    H267221   0.452   5.331  11.381  1.1016  0.4355 -0.4000
15244TIP3   OH267222   6.297   5.170  16.118  0.2903  0.4040 -0.3118
15244TIP3    H167223   6.286   5.130  16.031  0.5001  1.0643 -0.6505
15244TIP3    H267224   6.304   5.264  16.100  2.2879  0.4083  0.2176
15245TIP3   OH267225   5.249   1.060  16.902  0.1706 -0.3075 -0.1040
15245TIP3    H167226   5.204   1.005  16.966 -0.8124  0.4491 -0.1211
15245TIP3    H267227   5.186   1.070  16.831  0.4577  0.5579 -0.2427
15246TIP3   OH267228   0.032   1.908  15.523  0.2678 -0.4404  0.1257
15246TIP3    H167229  -0.038   1.938  15.580  0.0300 -0.0318 -0.3666
15246TIP3    H267230   0.098   1.976  15.528  0.5216 -0.7077  0.4019
15247TIP3   OH267231   1.713   2.110   3.936 -0.4019  0.0604 -0.2475
15247TIP3    H167232   1.750   2.076   3.855  1.4454 -3.0126  1.6925
15247TIP3    H267233   1.779   2.172   3.968  0.2476 -0.8542  0.2332
15248TIP3   OH267234   6.521   4.631   3.145  0.1218  0.7383  0.0777
15248TIP3    H167235   6.611   4.616   3.117 -0.5173 -2.6999 -0.6502
15248TIP3    H267236   6.516   4.593   3.232 -0.4373  1.7493  0.5005
15249TIP3   OH267237   6.405   1.539   4.896 -0.4089 -0.0185 -0.0100
15249TIP3    H167238   6.494   1.572   4.906 -0.8623  0.9299  1.1220
15249TIP3    H267239   6.375   1.524   4.986 -1.7955  0.7994 -0.3083
15250TIP3   OH267240   5.166   3.390   1.910  0.4057  0.0673  0.0077
15250TIP3    H167241   5.173   3.462   1.972  1.1350 -0.8128  0.9625
15250TIP3    H267242   5.182   3.431   1.825 -1.2375  1.4050  0.2818
15251TIP3   OH267243   5.737   3.739   4.979  0.0964  0.7305  0.0486
15251TIP3    H167244   5.820   3.735   5.027  0.3447 -0.2927 -0.4446
15251TIP3    H267245   5.675   3.692   5.035 -0.1249  1.3585  0.3425
15252TIP3   OH267246   3.164   4.827   2.451  0.1843 -0.3326  0.3429
15252TIP3    H167247   3.078   4.802   2.418 -0.9607  1.2565  1.8863
15252TIP3    H267248   3.151   4.837   2.546  1.5998  1.5706  0.4009
15253TIP3   OH267249   0.464   5.660   0.497  0.6252 -0.1099  0.4627
15253TIP3    H167250   0.404   5.630   0.428  2.3655 -2.0145 -0.3073
15253TIP3    H267251   0.425   5.742   0.528 -1.2869 -0.2346 -1.3758
15254TIP3   OH267252   2.926   5.583   5.411  0.1109 -0.8574  0.4032
15254TIP3    H167253   2.970   5.554   5.491  0.9692 -0.9025 -0.0714
15254TIP3    H267254   2.836   5.551   5.420 -0.3104  0.6338  2.1345
15255TIP3   OH267255   6.226   4.700  13.639  0.1966 -0.0707 -0.0820
15255TIP3    H167256   6.174   4.642  13.583 -1.1936  0.8438  0.2215
15255TIP3    H267257   6.208   4.788  13.606  1.9263  0.2612 -0.2481
15256TIP3   OH267258   1.261   2.251  11.731  0.8970  0.3623 -0.2816
15256TIP3    H167259   1.199   2.229  11.662  1.0428  0.8421 -0.5776
15256TIP3    H267260   1.320   2.176  11.737  0.0219 -0.2945  0.3213
15257TIP3   OH267261   3.757   4.930   0.461  0.1944 -0.0817 -0.3512
15257TIP3    H167262   3.671   4.901   0.490 -0.7815  0.7344 -2.2713
15257TIP3    H267263   3.804   4.953   0.542 -0.4428 -2.8881  0.9367
15258TIP3   OH267264   1.414   6.161   2.970 -0.5259  0.1130 -0.4897
15258TIP3    H167265   1.472   6.113   2.910  1.3139  1.4583  0.1399
15258TIP3    H267266   1.427   6.118   3.054 -0.9089  0.0594 -0.4567
15259TIP3   OH267267   4.146   5.183   0.516  0.3847  0.1358 -0.0732
15259TIP3    H167268   4.139   5.149   0.427 -0.3685 -0.4551  0.1970
15259TIP3    H267269   4.116   5.274   0.509  3.0205  1.0224 -0.9217
15260TIP3   OH267270   5.148   4.325  12.202  0.5319 -0.3889  0.0247
15260TIP3    H167271   5.061   4.354  12.227  0.3160 -0.0980 -0.9894
15260TIP3    H267272   5.183   4.281  12.279 -0.4872 -0.4543  0.4571
15261TIP3   OH267273   1.993   1.410  11.808  0.5040  0.5328  0.3465
15261TIP3    H167274   2.052   1.483  11.790  1.7845  0.0116  2.1309
15261TIP3    H267275   1.988   1.405  11.903  0.2149 -1.4990  0.2889
15262TIP3   OH267276   0.614   0.522  15.098 -0.3293  0.5386 -0.1084
15262TIP3    H167277   0.678   0.492  15.163  0.0725  0.7140 -0.4208
15262TIP3    H267278   0.540   0.553  15.150  0.0178  0.7379  0.2660
15263TIP3   OH267279   0.642   3.740   2.683 -1.3173  0.1699  0.0839
15263TIP3    H167280   0.699   3.803   2.727 -0.9303 -0.0308 -0.1236
15263TIP3    H267281   0.648   3.661   2.737  0.1131 -0.4821 -0.9440
15264TIP3   OH267282   3.141   0.968  16.039  0.0904 -0.8582 -0.1477
15264TIP3    H167283   3.052   0.992  16.067  0.1237  0.3987 -1.0263
15264TIP3    H267284   3.185   1.052  16.025  1.3784 -1.4616  0.0916
15265TIP3   OH267285   1.025   2.796  15.210 -0.0072 -0.1441  0.0322
15265TIP3    H167286   1.066   2.709  15.215 -0.8219 -0.5067  0.6312
15265TIP3    H267287   0.944   2.782  15.162 -0.1166  0.2953  0.0854
15266TIP3   OH267288   1.513   2.524   5.111 -0.0779  0.1282 -0.0428
15266TIP3    H167289   1.509   2.442   5.063  1.2705  0.1543 -0.2353
15266TIP3    H267290   1.547   2.588   5.048  1.4116  0.2328  0.8085
15267TIP3   OH267291   1.759   1.601  11.909  0.1119  0.3623  0.2518
15267TIP3    H167292   1.806   1.662  11.851  2.8904 -0.7009  1.2451
15267TIP3    H267293   1.715   1.541  11.849  0.3176  1.1787 -0.7475
15268TIP3   OH267294   4.479   5.489  17.014 -0.3930  0.2843  0.2314
15268TIP3    H167295   4.444   5.489  16.925 -0.1481 -0.8323  0.1072
15268TIP3    H267296   4.403   5.500  17.071 -0.7214 -0.3130 -0.0849
15269TIP3   OH267297   0.390   5.970  12.971 -0.4053  0.6194  0.6152
15269TIP3    H167298   0.435   6.053  12.954 -2.7943  1.9105  0.1034
15269TIP3    H267299   0.395   5.923  12.888  0.4476  0.4834  0.7328
15270TIP3   OH267300   3.888   5.708  11.369 -0.5182 -0.7298 -0.9662
15270TIP3    H167301   3.917   5.768  11.437  0.6591 -2.6402  0.3062
15270TIP3    H267302   3.793   5.711  11.372 -0.4869  0.7862 -0.7279
15271TIP3   OH267303   5.287   5.252   0.638 -0.1772 -0.6575  0.4143
15271TIP3    H167304   5.205   5.280   0.678 -0.1795 -0.4129  0.2379
15271TIP3    H267305   5.264   5.173   0.588 -0.9845  1.1325 -2.2345
15272TIP3   OH267306   1.021   2.396   0.171 -0.1377  0.7016 -1.0910
15272TIP3    H167307   0.932   2.398   0.207  0.1336 -0.8472 -0.2633
15272TIP3    H267308   1.051   2.487   0.178 -0.6815  0.7582  1.1613
15273TIP3   OH267309   5.433   2.867  11.517 -0.5794  0.7688  0.1998
15273TIP3    H167310   5.357   2.838  11.467 -0.0512  1.6005 -1.1175
15273TIP3    H267311   5.411   2.957  11.543 -0.4429  0.6727  0.6604
15274TIP3   OH267312   2.166   1.229   4.065 -0.1340  0.5450  0.0940
15274TIP3    H167313   2.255   1.211   4.035 -0.0234  1.0760  0.0915
15274TIP3    H267314   2.110   1.204   3.991 -0.1237 -1.3013  0.6673
15275TIP3   OH267315   5.283   1.427   5.972  0.4852  0.0875 -0.1381
15275TIP3    H167316   5.210   1.468   6.017 -0.7038 -0.0513 -1.8412
15275TIP3    H267317   5.302   1.484   5.898  2.4810  0.3873  0.5257
15276TIP3   OH267318   0.518   0.347  15.538 -0.3559  0.3610 -0.0474
15276TIP3    H167319   0.536   0.260  15.503  1.0755  0.3501  0.6356
15276TIP3    H267320   0.544   0.407  15.467 -0.9579  0.2561 -0.3630
15277TIP3   OH267321   4.843   1.122   2.259 -0.2997 -0.3446 -0.4262
15277TIP3    H167322   4.875   1.195   2.207  1.5455 -2.0208 -1.8223
15277TIP3    H267323   4.874   1.141   2.348 -1.6715  1.5297 -0.3028
15278TIP3   OH267324   0.756   4.077   4.387  0.3881  0.1351 -0.4874
15278TIP3    H167325   0.661   4.083   4.385  0.1356  2.1534  4.1259
15278TIP3    H267326   0.774   3.985   4.405 -0.5165 -0.5019 -2.5899
15279TIP3   OH267327   2.202   3.588  14.501  0.6860 -0.4716 -0.3723
15279TIP3    H167328   2.210   3.580  14.596 -0.3761 -0.0113 -0.2303
15279TIP3    H267329   2.246   3.510  14.466 -1.1518 -2.0553  0.6060
15280TIP3   OH267330   1.255   5.516   0.927 -0.5646  0.6580 -0.6634
15280TIP3    H167331   1.228   5.525   0.836  0.8611  0.8342 -1.1000
15280TIP3    H267332   1.351   5.515   0.923 -0.4501 -2.5636  0.5368
15281TIP3   OH267333   3.825   1.723   3.556 -0.1373  0.4336  0.1201
15281TIP3    H167334   3.860   1.653   3.612  1.5643  0.3565 -0.9764
15281TIP3    H267335   3.770   1.678   3.493 -1.6640  0.4675  1.3719
15282TIP3   OH267336   6.685   1.961  16.587 -0.2224 -0.2892 -0.0470
15282TIP3    H167337   6.648   1.886  16.542 -0.9386 -0.4519  0.7997
15282TIP3    H267338   6.614   2.024  16.593  0.7718  1.1355 -2.1316
15283TIP3   OH267339   5.590   5.892   0.333  0.6631  0.0866 -0.4258
15283TIP3    H167340   5.523   5.826   0.348  1.3053 -0.3925  0.3782
15283TIP3    H267341   5.545   5.961   0.283 -0.5842  0.0717  0.6292
15284TIP3   OH267342   0.963   4.243   3.441 -0.4339 -0.0904  0.2973
15284TIP3    H167343   0.934   4.201   3.360 -2.0765 -0.7560  1.1971
15284TIP3    H267344   0.966   4.173   3.505  1.2017  0.3703  0.7585
15285TIP3   OH267345   0.393   3.149  16.791  0.4375 -0.4647 -0.0157
15285TIP3    H167346   0.380   3.119  16.701  0.1815 -2.9083  0.7465
15285TIP3    H267347   0.397   3.244  16.785 -0.8401 -0.4887 -2.4429
15286TIP3   OH267348   2.971   6.338  15.520  0.5138 -0.2192  0.0630
15286TIP3    H167349   2.978   6.330  15.615  1.0317  2.4450  0.3298
15286TIP3    H267350   3.061   6.340  15.489  0.3423 -2.0737 -0.6393
15287TIP3   OH267351   2.280   0.528   5.120 -0.0419 -0.2059  0.0032
15287TIP3    H167352   2.309   0.517   5.210 -0.5649  1.6919  0.4517
15287TIP3    H267353   2.215   0.599   5.124 -0.9950 -0.9193 -1.6895
15288TIP3   OH267354   1.904   2.178  13.916  0.8407  0.5578 -0.2429
15288TIP3    H167355   1.892   2.254  13.860  1.5397  1.9991  1.4772
15288TIP3    H267356   1.817   2.138  13.922  0.1505  2.0347 -0.0614
15289TIP3   OH267357   1.902   2.281   4.063  0.7694  0.5463  0.4987
15289TIP3    H167358   1.990   2.310   4.087  0.4337  1.3322  0.8439
15289TIP3    H267359   1.848   2.306   4.138 -0.0966  1.9053 -0.5242
15290TIP3   OH267360   2.230   4.209   1.371 -0.7580  0.4810  0.2730
15290TIP3    H167361   2.296   4.240   1.309 -0.2277  1.4565  1.2882
15290TIP3    H267362   2.171   4.155   1.319 -0.6144  1.6779 -1.1910
15291TIP3   OH267363   1.115   1.085   2.991 -0.1285  0.0218 -0.7100
15291TIP3    H167364   1.075   1.114   2.909  0.8592  0.8327 -0.9116
15291TIP3    H267365   1.165   1.160   3.022  0.1579 -0.5419  0.2318
15292TIP3   OH267366   6.791   1.671   0.195  0.0160 -0.2708 -0.1263
15292TIP3    H167367   6.869   1.695   0.246  0.1766  0.1237 -0.5507
15292TIP3    H267368   6.803   1.715   0.111 -1.6968  1.6118  0.5345
15293TIP3   OH267369   3.513   2.894   5.226 -0.1300 -0.3160  0.0268
15293TIP3    H167370   3.450   2.944   5.277  1.5641  0.3239  1.6062
15293TIP3    H267371   3.461   2.824   5.186 -1.6635 -0.6405  2.3423
15294TIP3   OH267372   1.183   3.259   3.489 -0.3624  0.3292 -0.1476
15294TIP3    H167373   1.231   3.309   3.422  0.7024 -1.0783 -0.4801
15294TIP3    H267374   1.199   3.167   3.466 -0.9080 -0.1795  1.4075
15295TIP3   OH267375   4.023   5.297  12.032  0.6003 -0.0524 -0.2441
15295TIP3    H167376   4.029   5.342  11.948 -1.4640  0.3628 -0.2211
15295TIP3    H267377   3.955   5.344  12.080  2.1910  0.1315  1.9649
15296TIP3   OH267378   3.325   4.450   2.173 -0.3916 -0.2506 -0.0828
15296TIP3    H167379   3.379   4.371   2.170  2.2832  1.3311  1.8362
15296TIP3    H267380   3.277   4.442   2.255  0.7926  0.5762  0.7264
15297TIP3   OH267381   6.168   2.529   1.499  0.0362  0.0397 -0.3559
15297TIP3    H167382   6.082   2.503   1.466 -0.3034 -0.2182  0.7062
15297TIP3    H267383   6.207   2.448   1.531  0.0722  0.3875  0.5103
15298TIP3   OH267384   2.197   0.365   5.588  0.0274 -0.0114 -0.5756
15298TIP3    H167385   2.288   0.376   5.615 -0.4924 -1.4708  2.2140
15298TIP3    H267386   2.200   0.293   5.524  0.9500  1.0219 -1.7419
15299TIP3   OH267387   2.718   5.355  16.197 -0.1220  0.3357 -0.3479
15299TIP3    H167388   2.676   5.274  16.167  1.8559 -0.5615 -0.8402
15299TIP3    H267389   2.748   5.398  16.117  0.3768  0.6885  0.0194
15300TIP3   OH267390   4.197   1.646   0.568 -0.2333  0.0126 -0.1798
15300TIP3    H167391   4.210   1.577   0.633 -1.5202 -0.2354 -0.1616
15300TIP3    H267392   4.272   1.637   0.509 -0.4316 -1.5001 -0.2459
15301TIP3   OH267393   3.135   6.616   5.126  0.3911 -0.0388  0.3689
15301TIP3    H167394   3.085   6.666   5.191  1.5295  0.8733  0.5761
15301TIP3    H267395   3.186   6.553   5.177  0.3416 -0.1712  0.2555
15302TIP3   OH267396   5.006   4.278  11.614 -0.2709 -0.4998  0.5405
15302TIP3    H167397   5.007   4.359  11.563 -2.7295  0.7369  2.2521
15302TIP3    H267398   5.009   4.307  11.705  0.3047 -2.4579  1.1986
15303TIP3   OH267399   1.825   5.036   1.378 -0.4339 -0.2487  0.1367
15303TIP3    H167400   1.868   5.111   1.419  0.0238 -0.5132  0.1533
15303TIP3    H267401   1.841   5.047   1.284 -2.5129  1.0048 -0.1371
15304TIP3   OH267402   3.242   3.966  13.410  0.4567 -0.0110  0.0025
15304TIP3    H167403   3.255   4.055  13.444 -1.0096  0.2470 -0.0482
15304TIP3    H267404   3.221   3.979  13.318 -1.3449 -0.2531  0.3369
15305TIP3   OH267405   5.906   5.921  13.402 -0.0502  0.6311 -0.5983
15305TIP3    H167406   5.842   5.861  13.365 -0.1529  0.8727 -0.8110
15305TIP3    H267407   5.867   6.008  13.392  0.2243  0.7605 -0.5550
15306TIP3   OH267408   3.887   0.545   2.593  0.4333 -0.4301  0.2126
15306TIP3    H167409   3.912   0.479   2.528  1.3127 -0.4559  0.5774
15306TIP3    H267410   3.954   0.541   2.660 -0.2648 -0.1287  0.9443
15307TIP3   OH267411   5.325   4.563  13.201  0.1980 -0.1829  0.1565
15307TIP3    H167412   5.263   4.636  13.201 -1.5633 -1.5914 -0.7650
15307TIP3    H267413   5.270   4.486  13.216  1.8201 -1.4489 -0.1793
15308TIP3   OH267414   1.894   5.469  17.015 -0.3258 -0.1673 -0.9075
15308TIP3    H167415   1.799   5.470  17.007 -0.2297  0.7982 -2.3522
15308TIP3    H267416   1.910   5.436  17.104 -1.9539 -1.5608 -1.0686
15309TIP3   OH267417   2.356   2.690  12.675  0.4415  0.0917  0.0989
15309TIP3    H167418   2.292   2.735  12.619  2.0208  1.5542 -0.6231
15309TIP3    H267419   2.385   2.615  12.623 -0.3446 -0.3503  0.2702
15310TIP3   OH267420   1.449   0.252   0.216 -0.5005  0.3494  0.5096
15310TIP3    H167421   1.501   0.174   0.197  0.1635  0.8218  0.3379
15310TIP3    H267422   1.513   0.317   0.244 -0.9148  1.1913 -0.4580
15311TIP3   OH267423   1.511   3.973  11.744 -0.5511  0.1679 -0.3913
15311TIP3    H167424   1.578   3.948  11.808 -1.6260  0.3029  0.8377
15311TIP3    H267425   1.556   4.031  11.683  1.0521 -1.6624 -1.0780
15312TIP3   OH267426   2.154   4.361   2.763  0.1049  0.2805 -0.7265
15312TIP3    H167427   2.197   4.435   2.722 -0.4361  0.5008 -0.9044
15312TIP3    H267428   2.197   4.284   2.725  0.7134  0.4992 -0.4863
15313TIP3   OH267429   1.941   5.948   4.337  0.0615 -0.3689 -0.0642
15313TIP3    H167430   1.925   6.034   4.376  2.9396  1.2037 -1.9441
15313TIP3    H267431   1.877   5.942   4.266  0.4684  0.7131 -0.5472
15314TIP3   OH267432   6.017   6.699  11.842  0.2138 -0.1698  0.0049
15314TIP3    H167433   6.019   6.678  11.935  2.9335 -0.4276 -0.0059
15314TIP3    H267434   6.051   6.621  11.799 -0.2558  0.2318 -1.1390
15315TIP3   OH267435   2.881   6.367  12.460  0.6096  0.2386  0.0822
15315TIP3    H167436   2.974   6.345  12.466  0.5439 -1.1035 -2.4448
15315TIP3    H267437   2.836   6.287  12.484  0.0823  0.7273  0.7646
15316TIP3   OH267438   2.234   2.432   5.758 -0.1529 -0.8726  0.0821
15316TIP3    H167439   2.303   2.487   5.796 -1.3136  0.2471  0.6561
15316TIP3    H267440   2.250   2.437   5.664  0.8717 -1.0997  0.2249
15317TIP3   OH267441   6.003   6.827   5.610  0.3270  0.1047  0.0332
15317TIP3    H167442   5.986   6.879   5.688 -0.9499  0.0531 -0.1806
15317TIP3    H267443   6.088   6.858   5.578  0.9729 -0.0476  1.5579
15318TIP3   OH267444   1.732   2.508  16.507 -0.3976  0.6253  0.4318
15318TIP3    H167445   1.707   2.574  16.571 -0.5261  0.4394  0.5730
15318TIP3    H267446   1.689   2.428  16.537  1.5427 -0.0749  1.5216
15319TIP3   OH267447   1.708   6.716  15.915  0.0910 -0.3695  0.1014
15319TIP3    H167448   1.614   6.726  15.931  0.0859  0.6645 -0.4810
15319TIP3    H267449   1.740   6.670  15.992 -0.5807  1.0310  1.2810
15320TIP3   OH267450   5.436   3.133  11.579 -0.4747  0.1901  0.4700
15320TIP3    H167451   5.435   3.154  11.485 -1.0654  1.5509  0.7501
15320TIP3    H267452   5.527   3.147  11.605 -0.7724  2.2460  0.5651
15321TIP3   OH267453   5.968   5.335  12.581 -0.4391 -0.1753 -0.0183
15321TIP3    H167454   5.931   5.412  12.624 -0.3447  0.9537 -1.8891
15321TIP3    H267455   6.059   5.360  12.562 -1.2461  0.5402 -3.4605
15322TIP3   OH267456   2.936   2.058   4.386 -0.8987 -0.5328 -0.2106
15322TIP3    H167457   3.026   2.024   4.394  0.4706  2.5096 -1.1603
15322TIP3    H267458   2.929   2.086   4.295 -1.2414  3.0539  0.7742
15323TIP3   OH267459   2.644   2.389  15.085  0.1153  0.3340 -0.4984
15323TIP3    H167460   2.608   2.427  15.165  0.3312  0.7537 -0.6002
15323TIP3    H267461   2.707   2.324  15.116  0.1624  0.4597 -0.3260
15324TIP3   OH267462   4.713   6.594   3.921 -0.2688  0.7751 -0.5661
15324TIP3    H167463   4.646   6.653   3.888 -0.0578  0.3876 -1.7200
15324TIP3    H267464   4.731   6.627   4.009 -0.2330  2.3755 -1.1214
15325TIP3   OH267465   4.797   6.591  12.270 -0.2276 -0.0102  0.0560
15325TIP3    H167466   4.812   6.680  12.304 -1.1843  0.0198  0.4298
15325TIP3    H267467   4.883   6.548  12.276 -0.1775  0.2700  1.6932
15326TIP3   OH267468   1.321   3.704  14.476  0.6143 -0.4980  0.8039
15326TIP3    H167469   1.262   3.778  14.492  0.7254 -0.7030  2.3090
15326TIP3    H267470   1.274   3.628  14.512  0.5450 -1.1789 -0.6226
15327TIP3   OH267471   4.210   4.351   6.053  0.0929 -0.6002 -0.7296
15327TIP3    H167472   4.154   4.286   6.095  0.0745 -0.5250 -0.6371
15327TIP3    H267473   4.263   4.386   6.125  0.5840 -0.9993 -0.8919
15328TIP3   OH267474   1.388   5.015  15.993 -0.3059 -0.9087 -0.1067
15328TIP3    H167475   1.410   5.108  15.987  1.5267 -1.3675 -1.2689
15328TIP3    H267476   1.316   5.003  15.932 -0.1063 -0.3656 -0.4552
15329TIP3   OH267477   2.577   5.000   5.976 -0.1121 -0.2826  0.2232
15329TIP3    H167478   2.516   5.071   5.958  0.0805  0.1303  1.1645
15329TIP3    H267479   2.530   4.944   6.038  0.3427 -0.1192  0.7196
15330TIP3   OH267480   2.928   5.553  12.743 -0.4227  0.1864 -0.4119
15330TIP3    H167481   3.004   5.570  12.687 -0.3664  0.4444 -0.2604
15330TIP3    H267482   2.852   5.566  12.687 -0.3750  0.7181 -0.3607
15331TIP3   OH267483   2.096   1.205  13.816  0.3691 -0.0857 -0.0864
15331TIP3    H167484   2.179   1.234  13.780  0.1779  0.0773 -0.4073
15331TIP3    H267485   2.037   1.201  13.740  0.4872 -1.6812 -0.1265
15332TIP3   OH267486   0.370   2.290  15.748  0.1446  0.0531  0.3985
15332TIP3    H167487   0.319   2.261  15.672  0.2456 -0.2903  0.4604
15332TIP3    H267488   0.451   2.239  15.744  0.4390  0.5117  0.3651
15333TIP3   OH267489   1.106   3.962  12.781  0.0027 -0.3173 -0.1038
15333TIP3    H167490   1.178   3.929  12.728  0.4554  0.4139  0.0378
15333TIP3    H267491   1.149   4.008  12.854 -0.5881  0.8131 -0.4389
15334TIP3   OH267492   5.438   3.158  14.103 -0.0004 -0.3096  0.1809
15334TIP3    H167493   5.362   3.186  14.154  0.1414 -0.1127  0.2895
15334TIP3    H267494   5.403   3.133  14.018 -0.3433 -1.3881  0.6296
15335TIP3   OH267495   5.331   2.475  14.663 -0.3506  0.2759  0.0854
15335TIP3    H167496   5.259   2.428  14.706 -0.0979  1.2286  1.6352
15335TIP3    H267497   5.307   2.567  14.672  1.1151  0.6099  0.7734
15336TIP3   OH267498   0.292   3.399   4.581  0.0669 -0.1459 -0.3997
15336TIP3    H167499   0.201   3.376   4.560 -0.2081 -0.8301  1.3783
15336TIP3    H267500   0.286   3.485   4.624  0.0355 -0.8995  1.1723
15337TIP3   OH267501   6.243   6.759   1.372  0.3103 -0.2066  0.7623
15337TIP3    H167502   6.309   6.823   1.347 -1.7469  0.6517 -3.3882
15337TIP3    H267503   6.170   6.811   1.406  0.0011 -0.6780  0.8389
15338TIP3   OH267504   6.396   5.075   1.989 -0.3395  0.2912  0.8285
15338TIP3    H167505   6.374   5.132   1.915 -2.9140  1.2417  2.2274
15338TIP3    H267506   6.336   5.001   1.982 -0.4095  0.2461  1.7912
15339TIP3   OH267507   6.127   2.255   2.693  0.7127  0.3172  0.1105
15339TIP3    H167508   6.164   2.314   2.628  0.0455 -0.9971 -1.5519
15339TIP3    H267509   6.043   2.295   2.716  1.3930  1.3040  0.9637
15340TIP3   OH267510   1.339   0.613  14.428 -0.1351  0.5737  0.1537
15340TIP3    H167511   1.433   0.630  14.424 -0.1824  1.2733  1.4734
15340TIP3    H267512   1.327   0.563  14.509 -0.8202 -0.1813 -0.3926
15341TIP3   OH267513   4.738   1.433   3.053 -0.1799 -0.2888 -0.4242
15341TIP3    H167514   4.646   1.440   3.077 -0.3076 -1.9018 -0.3349
15341TIP3    H267515   4.778   1.386   3.127  1.0036  1.5236  0.1666
15342TIP3   OH267516   0.801   1.097   0.394 -0.5163 -0.0164 -0.3483
15342TIP3    H167517   0.728   1.122   0.337  0.7548  3.3118 -0.7253
15342TIP3    H267518   0.806   1.167   0.459  1.3852 -0.9652  0.6115
15343TIP3   OH267519   4.167   2.860  15.851  0.3368 -0.0920  0.3911
15343TIP3    H167520   4.243   2.895  15.898 -0.7018 -0.3669  2.4061
15343TIP3    H267521   4.120   2.938  15.821 -0.3290  0.2185  2.1223
15344TIP3   OH267522   5.040   1.735   0.326 -0.1160 -0.4992 -0.4087
15344TIP3    H167523   5.117   1.703   0.372 -0.2596 -0.8816 -0.4319
15344TIP3    H267524   5.061   1.727   0.233  0.4031  0.8181 -0.4375
15345TIP3   OH267525   1.240   1.636  15.154  0.2989  0.1109  0.2918
15345TIP3    H167526   1.332   1.649  15.178  0.0900 -1.0559  1.8994
15345TIP3    H267527   1.194   1.628  15.238 -1.6578  2.7375 -0.3851
15346TIP3   OH267528   0.991   3.875   2.518 -0.1835  0.2313  0.1912
15346TIP3    H167529   1.084   3.861   2.498  0.2394  2.0703  0.7176
15346TIP3    H267530   0.990   3.943   2.585 -1.9176 -0.0110  0.4715
15347TIP3   OH267531   4.682   5.248  12.160 -0.3433  0.3238 -0.1195
15347TIP3    H167532   4.619   5.203  12.216  0.2703 -1.5871 -0.8547
15347TIP3    H267533   4.636   5.259  12.077 -0.4922  1.0880  0.0605
15348TIP3   OH267534   5.310   6.417   3.541 -0.2163 -0.0491 -0.1465
15348TIP3    H167535   5.352   6.495   3.578  1.4909 -0.5621 -0.9110
15348TIP3    H267536   5.267   6.376   3.615 -0.2211  1.0412  0.4801
15349TIP3   OH267537   2.696   4.853  13.817  0.6183  0.4311 -0.0840
15349TIP3    H167538   2.680   4.780  13.757  0.1030  0.0394  0.5200
15349TIP3    H267539   2.610   4.878  13.849  0.9140  0.4247  0.7469
15350TIP3   OH267540   3.934   2.072  14.465 -0.0799  0.0877  0.2431
15350TIP3    H167541   3.982   2.047  14.544  2.0583  1.4300 -0.5493
15350TIP3    H267542   3.848   2.101  14.497  0.5710  0.1739  2.0093
15351TIP3   OH267543   5.576   1.145  15.219  0.1826 -0.1462  0.8666
15351TIP3    H167544   5.657   1.177  15.258  1.7536 -0.8831 -1.5208
15351TIP3    H267545   5.562   1.060  15.260  2.5541 -1.5351 -0.9294
15352TIP3   OH267546   4.770   3.642  11.649  0.2804  0.1457 -0.2865
15352TIP3    H167547   4.720   3.589  11.588  1.8936 -0.1295 -1.4525
15352TIP3    H267548   4.828   3.695  11.593  0.4117  1.3593  0.9382
15353TIP3   OH267549   4.301   5.249  11.650  0.2671 -0.3343  0.0910
15353TIP3    H167550   4.249   5.169  11.645  0.3083 -0.4081  0.6805
15353TIP3    H267551   4.374   5.235  11.590  0.3071 -0.7640  0.2401
15354TIP3   OH267552   0.563   5.099  13.869 -0.0492  0.3619  0.9156
15354TIP3    H167553   0.598   5.035  13.807 -1.8082 -1.0817  1.3307
15354TIP3    H267554   0.639   5.151  13.895  1.0632 -0.2004 -1.0095
15355TIP3   OH267555   5.745   6.698  11.407  0.2317  0.2332  1.1065
15355TIP3    H167556   5.673   6.761  11.400  0.2594  0.1173 -1.1670
15355TIP3    H267557   5.751   6.679  11.500 -3.7336 -0.9652  1.3058
15356TIP3   OH267558   5.665   5.606  15.628  0.0240  0.1362 -0.2448
15356TIP3    H167559   5.744   5.595  15.681  0.2280  0.3518 -0.5006
15356TIP3    H267560   5.698   5.627  15.541 -0.2971  1.7261 -0.0298
15357TIP3   OH267561   6.269   6.375  14.342 -0.0642  0.4030 -0.5968
15357TIP3    H167562   6.197   6.432  14.367 -0.4973 -0.0966 -0.6961
15357TIP3    H267563   6.278   6.313  14.415  1.1278  1.2677  0.0209
15358TIP3   OH267564   0.703   3.952   5.160  0.3012 -0.1264  0.0302
15358TIP3    H167565   0.783   3.992   5.197  1.4913 -1.3701 -1.1018
15358TIP3    H267566   0.643   4.026   5.148  1.5207  0.9455  0.3054
15359TIP3   OH267567   3.913   5.314  13.198 -0.4920 -0.4377  0.4042
15359TIP3    H167568   3.947   5.341  13.112 -0.5825  0.9136  0.7706
15359TIP3    H267569   3.826   5.279  13.179  0.1979 -1.8940 -0.2642
15360TIP3   OH267570   4.287   5.666   0.304 -0.2840  0.0958 -0.1558
15360TIP3    H167571   4.319   5.719   0.230  0.8922 -0.3521  0.0195
15360TIP3    H267572   4.351   5.681   0.373  0.5102 -2.1609 -0.3529
15361TIP3   OH267573   2.910   6.020   1.394  0.1687  0.3957  0.2085
15361TIP3    H167574   3.001   6.018   1.366  0.6570  0.8311  1.6968
15361TIP3    H267575   2.871   6.093   1.346  0.7544  0.5831  0.0190
15362TIP3   OH267576   2.276   4.244   4.694  0.0114  0.2424 -0.0253
15362TIP3    H167577   2.274   4.273   4.603  0.1334 -3.1022 -1.2119
15362TIP3    H267578   2.350   4.183   4.698 -0.5403 -0.3624  2.1141
15363TIP3   OH267579   5.599   1.520  15.440 -0.3767 -0.3076  0.0856
15363TIP3    H167580   5.581   1.588  15.504  1.4396  1.8668 -1.5704
15363TIP3    H267581   5.530   1.532  15.374  0.6697  0.8487 -0.8431
15364TIP3   OH267582   6.368   6.090  12.473  0.1996 -0.6176  0.1209
15364TIP3    H167583   6.279   6.122  12.488  0.1548 -0.0648 -1.1903
15364TIP3    H267584   6.407   6.086  12.560 -1.1553 -1.0446  0.7373
15365TIP3   OH267585   2.145   4.887  16.525  0.3288 -0.9811  0.4012
15365TIP3    H167586   2.224   4.943  16.528  0.0103 -0.4804 -0.2220
15365TIP3    H267587   2.171   4.807  16.570  1.7118 -1.4554 -1.1221
15366TIP3   OH267588   5.899   6.094   6.178 -0.1791 -0.0311  0.0482
15366TIP3    H167589   5.955   6.031   6.133 -0.0904 -1.0638  1.5399
15366TIP3    H267590   5.939   6.105   6.264 -0.9840  0.9972  0.3158
15367TIP3   OH267591   1.752   1.587  12.595 -0.2489 -0.1591  0.2869
15367TIP3    H167592   1.687   1.626  12.537  0.1835 -0.1927 -0.2245
15367TIP3    H267593   1.824   1.562  12.537  0.6920  0.8528  0.9705
15368TIP3   OH267594   3.952   5.980   3.299 -0.0433  0.1893 -0.3655
15368TIP3    H167595   3.892   5.906   3.306 -0.0214  0.1870 -0.1991
15368TIP3    H267596   4.035   5.941   3.270  0.2605  0.0011  0.7363
15369TIP3   OH267597   1.578   5.442  16.516  0.0950 -0.1899  0.4740
15369TIP3    H167598   1.628   5.493  16.452 -0.7712  2.4506  1.7452
15369TIP3    H267599   1.645   5.402  16.572  0.8660  1.4959  0.8322
15370TIP3   OH267600   4.082   2.750   3.795  0.5180 -0.3425 -0.1784
15370TIP3    H167601   4.036   2.680   3.748  0.6231 -1.3261  1.1392
15370TIP3    H267602   4.014   2.791   3.849  0.6827 -0.1236 -0.1361
15371TIP3   OH267603   2.274   6.410   5.109 -0.0989 -0.0356 -0.1851
15371TIP3    H167604   2.185   6.396   5.142 -1.5539 -0.4092 -3.7698
15371TIP3    H267605   2.289   6.504   5.118  0.1743 -0.2629  2.5435
15372TIP3   OH267606   3.953   4.112   1.843  0.1875 -1.1050 -0.2520
15372TIP3    H167607   3.877   4.056   1.862 -0.2167 -0.5255 -0.1270
15372TIP3    H267608   4.029   4.055   1.859 -0.1638 -1.1659  1.5021
15373TIP3   OH267609   1.368   3.436  10.467  0.2217  0.2874  0.3287
15373TIP3    H167610   1.302   3.494  10.431  0.5284  1.4554  1.5709
15373TIP3    H267611   1.319   3.365  10.508 -0.1736 -2.4533 -4.1759
15374TIP3   OH267612   4.012   0.250  16.556 -0.1233 -0.5158 -0.6709
15374TIP3    H167613   3.930   0.208  16.581 -0.2435  0.1525  0.1059
15374TIP3    H267614   4.079   0.204  16.606 -0.0690 -0.7552 -0.9570
15375TIP3   OH267615   4.877   1.948  12.882 -0.3556 -0.0724  0.1281
15375TIP3    H167616   4.947   1.928  12.944  0.6505 -1.0948 -1.2567
15375TIP3    H267617   4.913   1.921  12.797 -1.7734  1.0381 -0.8638
15376TIP3   OH267618   5.078   4.213   2.291 -0.2683 -0.0583  0.0233
15376TIP3    H167619   5.009   4.278   2.302  0.2178  0.2456  1.5494
15376TIP3    H267620   5.144   4.256   2.237 -0.4057  0.3520  0.1784
15377TIP3   OH267621   1.629   5.707  16.784 -0.0137  0.6595  0.1630
15377TIP3    H167622   1.707   5.698  16.728 -0.3686  0.4489 -0.3040
15377TIP3    H267623   1.621   5.622  16.828  0.1830  0.7779  0.4317
15378TIP3   OH267624   3.914   0.798   2.746 -0.5866  0.3091 -0.3363
15378TIP3    H167625   3.873   0.777   2.830 -0.3845 -2.6726 -0.8868
15378TIP3    H267626   3.848   0.777   2.681  0.8100 -2.0965 -1.0994
15379TIP3   OH267627   0.226   5.365   2.444  0.3855  0.1728  0.0673
15379TIP3    H167628   0.176   5.442   2.470  0.3542 -0.5125  2.2044
15379TIP3    H267629   0.171   5.321   2.379 -0.7149  0.6418  0.6695
15380TIP3   OH267630   3.770   6.410  15.908 -0.7252  0.1493 -0.4681
15380TIP3    H167631   3.803   6.474  15.972 -1.9605 -0.6494  1.0436
15380TIP3    H267632   3.802   6.326  15.939 -1.3587 -0.2559 -0.8843
15381TIP3   OH267633   5.467   3.924   5.170 -0.2935 -0.1691  0.1812
15381TIP3    H167634   5.465   3.879   5.254  1.0726 -0.6754 -0.0242
15381TIP3    H267635   5.385   3.898   5.127  0.0153 -1.6899  0.4662
15382TIP3   OH267636   0.142   5.982  14.257  0.3790  0.2948  0.3504
15382TIP3    H167637   0.168   6.019  14.341 -0.7766  1.0070  0.4298
15382TIP3    H267638   0.224   5.967  14.210  0.9665  1.6149  0.9005
15383TIP3   OH267639   5.788   5.429   5.334 -0.8010 -0.0436 -0.2412
15383TIP3    H167640   5.772   5.494   5.265 -1.3292 -0.0502 -0.1246
15383TIP3    H267641   5.706   5.382   5.343  0.0606 -1.9277 -1.5362
15384TIP3   OH267642   0.427   1.540   0.290 -0.9645  1.0637 -0.3397
15384TIP3    H167643   0.520   1.521   0.281 -0.7476  2.1625 -0.6330
15384TIP3    H267644   0.402   1.498   0.372 -0.6034 -0.6036 -1.0457
15385TIP3   OH267645   1.620   3.205  16.709  0.0214 -0.2324  0.3131
15385TIP3    H167646   1.604   3.113  16.688  0.6937 -0.4822  0.8646
15385TIP3    H267647   1.617   3.250  16.625 -0.1843 -0.7768  0.0289
15386TIP3   OH267648   1.326   0.382  12.686  0.3973 -0.3084 -0.0544
15386TIP3    H167649   1.360   0.453  12.740 -0.2035  0.3050 -0.4760
15386TIP3    H267650   1.376   0.388  12.605 -3.0189  2.9613 -2.2278
15387TIP3   OH267651   3.579   5.520  15.985 -0.6117 -0.6145  0.1043
15387TIP3    H167652   3.674   5.518  15.975 -0.5507  1.5972 -0.2142
15387TIP3    H267653   3.564   5.579  16.059 -1.7708  2.7916 -2.6086
15388TIP3   OH267654   3.156   0.537   3.024  0.0673 -0.6796  0.1216
15388TIP3    H167655   3.242   0.578   3.033 -0.0852 -0.5797  1.2980
15388TIP3    H267656   3.167   0.451   3.063  0.1375 -1.4436 -1.5136
15389TIP3   OH267657   2.932   5.024  11.504  0.3128 -0.0511 -0.4090
15389TIP3    H167658   2.860   4.980  11.550  0.1092 -0.1347 -0.8056
15389TIP3    H267659   3.007   5.013  11.562  0.4379 -1.5344 -0.8030
15390TIP3   OH267660   5.265   2.761   4.207 -0.0452 -0.4629  0.2779
15390TIP3    H167661   5.195   2.809   4.252 -0.0402 -0.6354  0.4694
15390TIP3    H267662   5.230   2.745   4.119 -0.6110 -1.3487  0.6623
15391TIP3   OH267663   3.805   2.538  17.133  0.3297 -0.0346 -0.1764
15391TIP3    H167664   3.742   2.588  17.183  2.1793  1.7970  0.4733
15391TIP3    H267665   3.769   2.535  17.044 -0.5411  1.1635  0.1183
15392TIP3   OH267666   0.188   3.790  13.654 -0.2329  0.1103 -0.3095
15392TIP3    H167667   0.271   3.815  13.695 -0.9317  1.6646  0.2306
15392TIP3    H267668   0.143   3.739  13.721 -0.3904  0.6799  0.0314
15393TIP3   OH267669   0.107   0.619  14.035 -0.0844 -0.4296  0.3939
15393TIP3    H167670   0.147   0.624  13.948 -1.8373  0.5887 -0.4108
15393TIP3    H267671   0.035   0.682  14.032  0.3620  0.3159  2.9107
15394TIP3   OH267672   3.078   4.493  14.553  0.3623  0.2587  0.0762
15394TIP3    H167673   3.089   4.527  14.642 -1.3216  0.5429  0.2147
15394TIP3    H267674   3.167   4.480  14.521  1.0502  2.4990  0.8858
15395TIP3   OH267675   6.078   5.686  12.647  0.0643  0.5494 -0.1198
15395TIP3    H167676   6.136   5.625  12.602  1.1453  0.1511  1.7501
15395TIP3    H267677   6.058   5.644  12.730  2.2544  3.3635  2.0299
15396TIP3   OH267678   0.032   4.607   2.015 -0.2412  0.1384 -0.0171
15396TIP3    H167679   0.084   4.569   1.945  1.0756 -0.2833  1.1530
15396TIP3    H267680  -0.007   4.685   1.976 -0.8819 -0.9642 -1.6877
15397TIP3   OH267681   0.717   6.145  15.626  0.2609  0.0585  0.2122
15397TIP3    H167682   0.657   6.144  15.551  1.1313  1.4854 -0.5392
15397TIP3    H267683   0.694   6.224  15.674  1.8477  0.9166 -0.3760
15398TIP3   OH267684   1.972   5.253  16.391  0.1618 -0.6036 -0.1686
15398TIP3    H167685   1.969   5.208  16.475 -0.1430  0.8191  0.6138
15398TIP3    H267686   1.957   5.184  16.326 -1.6920 -1.4194  1.0513
15399TIP3   OH267687   4.659   4.335   3.268 -0.3709  0.3574  0.1091
15399TIP3    H167688   4.601   4.360   3.196 -0.8476 -0.5270  0.1741
15399TIP3    H267689   4.612   4.266   3.314  0.2708  0.3757  0.8113
15400TIP3   OH267690   1.336   0.205   1.551  0.0430  0.2260 -0.1791
15400TIP3    H167691   1.335   0.247   1.465 -0.3945 -0.7064 -0.6511
15400TIP3    H267692   1.427   0.180   1.565  0.3538  1.4953  0.2113
15401TIP3   OH267693   5.393   4.685  11.613  0.1520  0.0332 -0.5006
15401TIP3    H167694   5.324   4.744  11.643  0.7431  0.4904  0.0054
15401TIP3    H267695   5.358   4.597  11.626  0.0321  0.2359  0.7044
15402TIP3   OH267696   5.598   2.215   0.428  0.9560 -0.1409  0.4163
15402TIP3    H167697   5.586   2.310   0.436  1.0018 -0.1487  0.5780
15402TIP3    H267698   5.670   2.195   0.488  2.4902  0.0591 -1.2890
15403TIP3   OH267699   3.884   0.002  17.037 -0.6043 -0.3132 -0.0840
15403TIP3    H167700   3.802  -0.012  17.083 -1.2917  1.5567 -0.6536
15403TIP3    H267701   3.950  -0.043  17.090 -2.1465 -3.3627 -0.5177
15404TIP3   OH267702   5.229   4.644  17.047  0.8418 -0.0151  0.2795
15404TIP3    H167703   5.319   4.614  17.033  0.4764 -0.7785 -0.5582
15404TIP3    H267704   5.220   4.721  16.991  1.1357  0.4065  0.8008
15405TIP3   OH267705   6.386   0.814  11.408  0.7920 -0.3295  0.2460
15405TIP3    H167706   6.370   0.865  11.487  3.7763  1.0537  0.0886
15405TIP3    H267707   6.455   0.752  11.432  2.4581  0.7748 -1.4530
15406TIP3   OH267708   0.042   4.795   4.914 -0.0280  0.0826  0.3325
15406TIP3    H167709  -0.032   4.838   4.873  0.5694  0.7748 -0.0527
15406TIP3    H267710   0.031   4.811   5.008  0.0482  0.8645  0.2131
15407TIP3   OH267711   1.817   0.453  16.095  0.2056 -0.6775 -0.0139
15407TIP3    H167712   1.911   0.445  16.082  0.2052  0.3733 -0.8102
15407TIP3    H267713   1.805   0.453  16.190  0.8742 -2.0881  0.0783
15408TIP3   OH267714   0.721   5.248  15.793  0.4479  0.3068  0.1206
15408TIP3    H167715   0.670   5.220  15.869 -0.1286  1.1457  0.0611
15408TIP3    H267716   0.809   5.262  15.826  0.1595  0.8355  0.6750
15409TIP3   OH267717   3.468   5.609  14.663 -0.1844 -0.2226 -0.4957
15409TIP3    H167718   3.409   5.671  14.707  2.8058  0.9432  2.2894
15409TIP3    H267719   3.464   5.634  14.570  0.3033  3.8158  0.3685
15410TIP3   OH267720   6.188   6.828  12.580  0.2428 -0.1820  0.3383
15410TIP3    H167721   6.155   6.779  12.505  1.2702  0.4723 -0.5722
15410TIP3    H267722   6.205   6.761  12.646 -1.3689 -0.6866  0.2727
15411TIP3   OH267723   4.257   2.668   2.906  0.4190 -0.1326 -0.3151
15411TIP3    H167724   4.205   2.748   2.918  0.6120 -0.1589  0.8715
15411TIP3    H267725   4.256   2.653   2.812  0.7728  1.5309 -0.6226
15412TIP3   OH267726   0.097   2.963  16.574 -0.3478 -0.0198  0.3948
15412TIP3    H167727   0.059   3.046  16.545  1.1790  0.6159  0.0976
15412TIP3    H267728   0.107   2.973  16.669  0.8882  0.6340  0.2227
15413TIP3   OH267729   3.895   1.855  12.210 -0.5824 -0.2194  0.3610
15413TIP3    H167730   3.961   1.789  12.229 -1.4044 -1.1373  0.0673
15413TIP3    H267731   3.888   1.855  12.115 -1.0204 -0.1361  0.3937
15414TIP3   OH267732   0.364   6.465   2.549 -0.6258  0.6410  0.0671
15414TIP3    H167733   0.285   6.456   2.603 -0.9567 -1.3103 -0.6265
15414TIP3    H267734   0.347   6.409   2.473  1.7053 -0.4322  0.2500
15415TIP3   OH267735   3.933   2.686  11.615 -0.7910  0.2459  0.2929
15415TIP3    H167736   3.993   2.652  11.549 -0.6640 -0.7157  0.8891
15415TIP3    H267737   3.914   2.776  11.586  1.9197  1.0415  0.7319
15416TIP3   OH267738   6.448   3.028  14.424 -0.4284 -0.6535  0.2317
15416TIP3    H167739   6.399   3.103  14.458  1.2472  0.0964  1.1095
15416TIP3    H267740   6.407   2.952  14.465 -1.6909 -0.1747 -0.0977
15417TIP3   OH267741   1.250   4.254   2.497  0.2745  0.8501  0.0240
15417TIP3    H167742   1.299   4.183   2.539  0.4151 -0.8402 -2.7496
15417TIP3    H267743   1.158   4.232   2.514  0.2289 -1.0585 -2.1442
15418TIP3   OH267744   4.451   3.392  15.479 -0.1264  0.0401 -0.0727
15418TIP3    H167745   4.479   3.442  15.402 -0.5026 -0.8851 -0.8357
15418TIP3    H267746   4.529   3.388  15.534 -0.0732  1.4001 -0.0211
15419TIP3   OH267747   1.993   1.483   3.809 -0.8703  0.1406 -0.1624
15419TIP3    H167748   1.974   1.567   3.850 -1.2047 -0.5290  1.0916
15419TIP3    H267749   2.073   1.498   3.759 -0.7464  1.1114  0.3177
15420TIP3   OH267750   5.550   1.340   6.006 -0.4042  0.0722  0.0073
15420TIP3    H167751   5.598   1.407   6.054 -1.7813  1.0274  0.1135
15420TIP3    H267752   5.458   1.362   6.019 -0.8535  0.1007 -2.6621
15421TIP3   OH267753   4.028   6.221   2.235 -0.4711 -0.1477 -0.3948
15421TIP3    H167754   4.084   6.167   2.179 -0.7689 -0.5398 -0.3226
15421TIP3    H267755   3.939   6.207   2.200 -0.4256  1.1754 -1.0847
15422TIP3   OH267756   3.596   0.125   1.815  0.0261  0.0553  0.3636
15422TIP3    H167757   3.506   0.128   1.847  0.4027  0.3001  1.4503
15422TIP3    H267758   3.618   0.216   1.796 -0.0034 -0.0237 -0.0704
15423TIP3   OH267759   5.269   1.214   0.406  0.2884 -0.2062  0.5318
15423TIP3    H167760   5.244   1.139   0.353  1.8209 -0.5924  0.3318
15423TIP3    H267761   5.342   1.183   0.459  0.0619  0.7544  1.4407
15424TIP3   OH267762   1.161   0.916  13.832  0.2647  0.0814  0.0214
15424TIP3    H167763   1.143   1.004  13.865 -1.1522 -0.5764  1.1173
15424TIP3    H267764   1.102   0.859  13.882  1.1003 -1.4876 -0.7063
15425TIP3   OH267765   3.384   4.605  14.860  0.4848 -0.0960  0.0813
15425TIP3    H167766   3.379   4.545  14.934  0.0251 -0.6111 -0.3540
15425TIP3    H267767   3.294   4.630  14.843  0.3669 -1.3134 -1.3477
15426TIP3   OH267768   5.220   2.496  10.888  0.2841  0.4383  0.2524
15426TIP3    H167769   5.130   2.529  10.897 -1.1715 -3.3068  1.3736
15426TIP3    H267770   5.230   2.482  10.794  0.0357  1.6301  0.0286
15427TIP3   OH267771   1.252   5.926  12.662  0.3145  0.4631 -0.1824
15427TIP3    H167772   1.197   6.001  12.683  1.1349  1.2594 -0.7816
15427TIP3    H267773   1.207   5.851  12.700 -1.1105  1.1036 -0.5658
15428TIP3   OH267774   2.444   1.121  13.381 -0.6576 -0.2602 -0.4321
15428TIP3    H167775   2.411   1.037  13.350  0.1895  0.2070 -2.8203
15428TIP3    H267776   2.505   1.099  13.452 -1.8721 -1.4747  0.2842
15429TIP3   OH267777   5.571   1.943   4.064  0.4184  0.3326 -1.1556
15429TIP3    H167778   5.496   2.001   4.047  0.1164  0.3431  0.1278
15429TIP3    H267779   5.593   1.906   3.978 -0.2018  1.3596 -1.7768
15430TIP3   OH267780   4.690   4.750   3.373  0.2823 -0.6172  0.1398
15430TIP3    H167781   4.757   4.713   3.315 -1.0600 -1.1424 -1.1598
15430TIP3    H267782   4.673   4.838   3.338  0.6529 -0.2903  0.7754
15431TIP3   OH267783   0.293   0.190  14.580  0.1634 -0.3236  0.3884
15431TIP3    H167784   0.283   0.107  14.534 -1.9042  0.7712 -1.3017
15431TIP3    H267785   0.240   0.180  14.659  0.6907 -0.9221  0.6699
15432TIP3   OH267786   0.821   4.204   2.202 -0.6139  0.3274 -0.6219
15432TIP3    H167787   0.773   4.205   2.285  0.7955 -2.8049  0.3881
15432TIP3    H267788   0.772   4.142   2.147  0.2897 -0.1684 -0.8855
15433TIP3   OH267789   0.991   2.496   4.217 -0.1944  0.0715  0.3181
15433TIP3    H167790   1.015   2.501   4.124  0.4626 -0.4685  0.4509
15433TIP3    H267791   1.043   2.424   4.251  0.7650  1.2432  1.4506
15434TIP3   OH267792   6.205   1.681   0.583  0.2806 -0.5496  0.1154
15434TIP3    H167793   6.198   1.702   0.490 -1.3134 -2.0474 -0.1626
15434TIP3    H267794   6.119   1.702   0.619  0.9787  0.3221  1.3542
15435TIP3   OH267795   3.302   3.620  16.577  0.3205  0.1773  0.1774
15435TIP3    H167796   3.315   3.526  16.588  0.6403 -0.2076 -2.7354
15435TIP3    H267797   3.379   3.650  16.530 -0.3914  1.6442 -0.1121
15436TIP3   OH267798   3.947   3.413   1.962  0.1941  0.0333 -0.1498
15436TIP3    H167799   3.973   3.321   1.962  0.0451 -0.0417 -2.2030
15436TIP3    H267800   3.923   3.431   2.053 -0.0635 -2.0309  0.2330
15437TIP3   OH267801   1.783   0.225  14.036 -0.2972 -0.0408  0.6378
15437TIP3    H167802   1.843   0.273  13.980 -0.7107 -1.0656 -0.7581
15437TIP3    H267803   1.700   0.273  14.029 -1.1764 -1.6885 -2.0686
15438TIP3   OH267804   6.576   2.444   6.123 -0.1932 -0.9344  0.5789
15438TIP3    H167805   6.555   2.362   6.166  0.5086 -0.7399  1.3232
15438TIP3    H267806   6.668   2.435   6.097 -0.2300 -0.5396  0.2966
15439TIP3   OH267807   6.269   1.662  15.458 -0.2181 -0.2260  1.0722
15439TIP3    H167808   6.255   1.739  15.513  0.3367  0.3946  0.3671
15439TIP3    H267809   6.361   1.666  15.433 -0.2462 -0.9778  0.8229
15440TIP3   OH267810   6.405   6.033  13.039  0.1415 -0.2385  0.5541
15440TIP3    H167811   6.421   5.952  13.086  0.6635 -0.6015 -0.2313
15440TIP3    H267812   6.384   6.097  13.107 -0.4980 -1.0793  1.1583
15441TIP3   OH267813   2.498   2.984  11.644 -0.4739  0.0721  0.0477
15441TIP3    H167814   2.490   2.897  11.606 -1.1847 -0.1233  0.6142
15441TIP3    H267815   2.411   3.022  11.636 -0.4135  0.3594  0.6695
15442TIP3   OH267816   2.251   6.231   5.532 -0.0729 -0.0372  0.1210
15442TIP3    H167817   2.189   6.228   5.460  1.1822  1.5137 -1.0990
15442TIP3    H267818   2.334   6.259   5.492  1.0298 -0.5214  1.9297
15443TIP3   OH267819   0.937   4.458  12.564  0.2098  0.0219  0.4360
15443TIP3    H167820   1.023   4.500  12.563  0.5689 -0.7017  0.2618
15443TIP3    H267821   0.952   4.372  12.604 -0.2212 -0.5426 -0.5680
15444TIP3   OH267822   5.283   1.670  11.393 -0.0050  0.1168  0.5164
15444TIP3    H167823   5.238   1.607  11.336 -0.2914  1.3725 -0.6979
15444TIP3    H267824   5.266   1.638  11.481  0.3402 -1.8131 -0.0847
15445TIP3   OH267825   1.105   5.298   6.207  0.1776  0.4191 -0.0583
15445TIP3    H167826   1.200   5.294   6.196  0.2546 -0.1429  0.6866
15445TIP3    H267827   1.087   5.240   6.281 -0.5255  2.0339  1.0954
15446TIP3   OH267828   6.524   2.506   1.440 -0.1774  0.5085  0.5242
15446TIP3    H167829   6.523   2.574   1.373  1.3547 -1.2130 -1.3472
15446TIP3    H267830   6.435   2.470   1.439  0.4572 -1.3885 -2.7789
15447TIP3   OH267831   5.293   6.657  12.761  0.0501 -0.5080 -0.2184
15447TIP3    H167832   5.271   6.729  12.820  0.9122 -1.1829  0.9713
15447TIP3    H267833   5.282   6.578  12.813  1.5088 -1.0886 -0.7291
15448TIP3   OH267834   3.437   6.349   2.129 -0.1377 -0.1573 -0.5354
15448TIP3    H167835   3.459   6.264   2.166  2.0710  0.3828 -0.4585
15448TIP3    H267836   3.518   6.400   2.135 -1.4805  2.1171 -0.1757
15449TIP3   OH267837   4.356   1.697   6.123  0.4559 -0.4096  0.3700
15449TIP3    H167838   4.363   1.781   6.078  2.5823 -0.0449  1.2648
15449TIP3    H267839   4.389   1.633   6.061 -1.5757 -0.7214 -0.4794
15450TIP3   OH267840   6.034   2.542   3.306 -0.0577 -0.5095 -0.3397
15450TIP3    H167841   5.979   2.543   3.385 -3.4296  1.2245 -2.4987
15450TIP3    H267842   6.031   2.451   3.277 -0.0402 -0.8595  0.7065
15451TIP3   OH267843   5.550   5.907   3.634 -0.2468 -0.1254 -0.2967
15451TIP3    H167844   5.509   5.890   3.549 -2.4415  1.7625  0.2698
15451TIP3    H267845   5.629   5.956   3.614 -0.1632 -0.6669 -1.3084
15452TIP3   OH267846   2.328   3.130  11.456 -0.1376  0.3166  0.3717
15452TIP3    H167847   2.341   3.060  11.392 -0.0871  0.3784  0.3136
15452TIP3    H267848   2.359   3.209  11.411  1.5923  0.1018  1.1128
15453TIP3   OH267849   3.670   6.740   0.897 -0.3251  0.0220  0.1170
15453TIP3    H167850   3.720   6.789   0.831 -0.4009  0.2180  0.2048
15453TIP3    H267851   3.625   6.807   0.948 -2.8445 -0.1772 -1.6165
15454TIP3   OH267852   6.098   6.293  14.099  0.2713  0.4652  0.4241
15454TIP3    H167853   6.182   6.306  14.143 -0.6330  1.7468  1.8580
15454TIP3    H267854   6.095   6.199  14.082  2.6530  0.5759 -1.1066
15455TIP3   OH267855   2.629   5.816  11.715  0.2476 -0.1964 -0.2923
15455TIP3    H167856   2.574   5.760  11.660 -0.1956 -1.0474  0.9904
15455TIP3    H267857   2.567   5.869  11.765  0.5200 -1.4424  1.4604
15456TIP3   OH267858   0.702   4.619  15.215 -0.0571  0.0639  0.2691
15456TIP3    H167859   0.763   4.664  15.156 -1.9570  1.1755 -0.9615
15456TIP3    H267860   0.707   4.668  15.297  0.5560  0.2479  0.1304
15457TIP3   OH267861   1.126   4.000  10.706 -0.4724  0.0443  0.5115
15457TIP3    H167862   1.126   4.009  10.611 -0.6260 -0.0304  0.5035
15457TIP3    H267863   1.155   3.910  10.721  1.3580  0.6073  0.5922
15458TIP3   OH267864   5.623   4.636   3.418  0.3417  0.5990 -0.1563
15458TIP3    H167865   5.607   4.730   3.419  0.5902  0.6457 -0.3986
15458TIP3    H267866   5.544   4.598   3.457 -1.2558  0.7016 -2.9794
15459TIP3   OH267867   3.502   6.706   4.854 -0.3453  0.4884  0.2415
15459TIP3    H167868   3.466   6.776   4.909  2.1086  1.4350  0.7633
15459TIP3    H267869   3.596   6.723   4.852  0.0317 -1.4188 -1.6361
15460TIP3   OH267870   6.009   1.248   2.569 -0.0928 -0.1619  0.1640
15460TIP3    H167871   6.102   1.225   2.562 -0.0667  0.1037 -0.4000
15460TIP3    H267872   5.969   1.209   2.492 -0.3741  0.1020  0.1740
15461TIP3   OH267873   0.142   1.147  15.841 -0.0225  0.2557  0.2485
15461TIP3    H167874   0.097   1.075  15.885 -0.2758  0.2398 -0.0336
15461TIP3    H267875   0.197   1.186  15.909 -1.3840  1.0502  0.9476
15462TIP3   OH267876   5.483   4.340  15.615 -0.6331 -0.7121 -0.4161
15462TIP3    H167877   5.400   4.323  15.572 -1.0598 -1.0375  0.5009
15462TIP3    H267878   5.543   4.273  15.582 -0.5437 -0.0818 -1.5683
15463TIP3   OH267879   1.280   1.556   4.975  0.1912  0.1683 -0.4608
15463TIP3    H167880   1.252   1.466   4.992 -0.1795  0.3521 -0.1073
15463TIP3    H267881   1.297   1.558   4.880  0.8230 -0.4448 -0.3692
15464TIP3   OH267882   6.207   0.888   2.562 -0.4891 -0.2671  0.4760
15464TIP3    H167883   6.292   0.864   2.601 -0.9090  0.5430  1.9939
15464TIP3    H267884   6.156   0.807   2.565 -0.7172 -0.1052  2.2738
15465TIP3   OH267885   3.515   4.380   4.410 -0.9457 -0.2513  0.4532
15465TIP3    H167886   3.558   4.427   4.339 -1.6722  0.3402  0.3976
15465TIP3    H267887   3.585   4.362   4.473 -1.0171  2.9186  1.5767
15466TIP3   OH267888   4.469   4.633   5.285 -0.2298  0.2783  0.0201
15466TIP3    H167889   4.448   4.681   5.205  1.1291  2.1482  0.7046
15466TIP3    H267890   4.563   4.616   5.278 -0.4064 -0.9927  0.4970
15467TIP3   OH267891   6.804   2.667   0.490  0.1858  0.3760  0.3808
15467TIP3    H167892   6.811   2.628   0.577  0.1967  0.2722  0.3342
15467TIP3    H267893   6.887   2.645   0.447  0.0982  0.2540  0.2743
15468TIP3   OH267894   0.821   0.665   2.513  0.0411 -0.4723 -0.1579
15468TIP3    H167895   0.914   0.656   2.532 -0.1067 -0.2028  0.7762
15468TIP3    H267896   0.778   0.646   2.597 -0.6659  0.7151 -0.2334
15469TIP3   OH267897   6.250   5.965   0.957  0.5523  0.0725 -0.1678
15469TIP3    H167898   6.172   5.972   1.013  1.2453  2.1761  0.6580
15469TIP3    H267899   6.217   5.981   0.868 -0.2744 -1.4112 -0.1576
15470TIP3   OH267900   2.094   6.370  13.176 -0.2363  0.4866 -0.5703
15470TIP3    H167901   2.136   6.286  13.198 -0.2603  0.8297  0.8741
15470TIP3    H267902   2.166   6.431  13.163 -0.2207  0.9041  1.2121
15471TIP3   OH267903   2.544   2.653   0.473  0.4640 -0.1146  0.1603
15471TIP3    H167904   2.491   2.671   0.395 -0.8391  1.2214  1.2756
15471TIP3    H267905   2.621   2.709   0.463  0.6357 -0.4536 -0.4711
15472TIP3   OH267906   2.491   2.405  11.852  1.0814  0.4991 -0.0646
15472TIP3    H167907   2.528   2.341  11.790  0.5230  0.1668 -0.0601
15472TIP3    H267908   2.543   2.394  11.931 -0.0794 -1.1763  0.5260
15473TIP3   OH267909   6.673   0.763  14.895  0.6726 -0.2985 -0.0800
15473TIP3    H167910   6.636   0.834  14.948 -0.0411 -0.8482  0.1750
15473TIP3    H267911   6.757   0.744  14.937  1.6471  1.4618 -1.0991
15474TIP3   OH267912   0.436   4.057   5.573 -0.1153 -0.1716 -0.5335
15474TIP3    H167913   0.497   3.992   5.608 -0.9619 -0.7341 -0.0611
15474TIP3    H267914   0.401   4.017   5.494  0.5278  0.3806 -1.1031
15475TIP3   OH267915   4.525   4.722  13.871  0.2403  0.5133  0.2743
15475TIP3    H167916   4.469   4.698  13.945  0.0459 -1.8018 -0.5304
15475TIP3    H267917   4.464   4.751  13.803 -0.1994 -2.7147 -0.8638
15476TIP3   OH267918   1.622   1.756  12.405  0.0841  0.2304 -0.1072
15476TIP3    H167919   1.673   1.837  12.414 -0.2592  0.4618 -0.2307
15476TIP3    H267920   1.646   1.722  12.319  0.7586 -0.1711  0.2301
15477TIP3   OH267921   1.309   4.773  11.165 -0.1478  0.8289  0.1788
15477TIP3    H167922   1.290   4.865  11.181 -2.2140  0.5788 -0.6229
15477TIP3    H267923   1.298   4.731  11.251 -0.1911  1.1720  0.3432
15478TIP3   OH267924   5.321   5.974   1.242  0.0659  0.3741  0.0034
15478TIP3    H167925   5.408   6.013   1.234  0.7807 -1.1262  0.1133
15478TIP3    H267926   5.263   6.048   1.260  1.5927  1.2148  1.8119
15479TIP3   OH267927   4.538   2.679  10.962  0.3097  0.3112  0.4337
15479TIP3    H167928   4.525   2.765  11.004  1.0786  0.3346  0.6323
15479TIP3    H267929   4.449   2.649  10.942  0.0007  0.8811  0.9156
15480TIP3   OH267930   1.634   3.500  12.972  0.0246  0.0673  0.3266
15480TIP3    H167931   1.556   3.551  12.995 -1.1539 -1.4352 -0.1846
15480TIP3    H267932   1.603   3.410  12.967  1.8201 -0.5745  0.1387
15481TIP3   OH267933   2.948   6.138  12.139  0.0488  0.1123  0.3991
15481TIP3    H167934   2.939   6.135  12.044  1.7877  0.1512  0.1912
15481TIP3    H267935   2.883   6.202  12.168  1.3107  2.1603 -1.0604
15482TIP3   OH267936   1.873   1.545  16.692 -0.1183  0.0322  0.8910
15482TIP3    H167937   1.793   1.596  16.679  0.6301  1.0166 -0.0410
15482TIP3    H267938   1.886   1.545  16.786 -1.3781 -0.4088  1.0819
15483TIP3   OH267939   4.528   6.469   0.394  0.8998  0.1398 -0.7979
15483TIP3    H167940   4.526   6.373   0.393  1.0337  0.1329 -0.4639
15483TIP3    H267941   4.530   6.494   0.301 -0.8172 -0.1466 -0.9555
15484TIP3   OH267942   4.388   6.580   0.615 -0.0197  0.9203 -0.5102
15484TIP3    H167943   4.411   6.565   0.523  0.8541 -0.4891 -0.1056
15484TIP3    H267944   4.466   6.623   0.652  1.1112 -1.6531  0.3134
15485TIP3   OH267945   1.914   3.053   0.586  0.4334  0.1109  0.2975
15485TIP3    H167946   1.866   2.979   0.548 -0.8869  1.3432 -0.5738
15485TIP3    H267947   1.914   3.119   0.516 -0.3478  1.7301  1.7581
15486TIP3   OH267948   0.065   6.606  12.624 -0.2684 -0.4848 -0.4451
15486TIP3    H167949   0.052   6.582  12.533 -1.7613  0.4331 -0.5065
15486TIP3    H267950  -0.014   6.655  12.648 -0.0305 -0.9167  1.4101
15487TIP3   OH267951   3.912   0.775   4.190  0.2103 -0.1330  0.1716
15487TIP3    H167952   3.988   0.765   4.248  1.0160  0.0753 -0.8227
15487TIP3    H267953   3.917   0.865   4.158  0.7760 -0.7208 -1.5340
15488TIP3   OH267954   4.866   1.097  16.865 -0.5009  0.0627  0.4584
15488TIP3    H167955   4.959   1.086  16.886 -0.1210  0.3688 -0.9727
15488TIP3    H267956   4.864   1.174  16.808 -1.7490  0.6058  1.2060
15489TIP3   OH267957   3.239   4.602  12.707  0.6569  0.2098 -0.5880
15489TIP3    H167958   3.223   4.668  12.640  0.0299  0.9167  0.2384
15489TIP3    H267959   3.334   4.608  12.724  1.0806 -0.9100 -2.3308
15490TIP3   OH267960   0.159   3.014   4.695  0.3282 -0.9258  0.0990
15490TIP3    H167961   0.237   2.982   4.650 -0.0230  0.4809 -1.6201
15490TIP3    H267962   0.086   2.983   4.641 -0.2084 -0.6035  0.6272
15491TIP3   OH267963   4.775   2.685   3.759  0.1166  0.7455  0.1571
15491TIP3    H167964   4.860   2.646   3.741 -0.6003  0.0075 -1.9192
15491TIP3    H267965   4.711   2.619   3.730 -1.1342  2.4178 -1.1636
15492TIP3   OH267966   4.122   3.765  14.947  0.1493  0.8321 -0.2398
15492TIP3    H167967   4.115   3.674  14.921  1.5977  0.2094  1.3760
15492TIP3    H267968   4.152   3.810  14.868  0.6642 -0.3059 -0.7102
15493TIP3   OH267969   6.498   5.340   0.415 -0.3228 -0.8469 -0.7142
15493TIP3    H167970   6.502   5.277   0.487 -0.0335  0.2658  0.2795
15493TIP3    H267971   6.417   5.319   0.369 -0.4978 -1.5947 -0.0824
15494TIP3   OH267972   4.914   3.513  12.433 -0.0046 -0.1639 -0.1861
15494TIP3    H167973   4.882   3.523  12.344 -0.7059 -0.5022  0.0178
15494TIP3    H267974   4.979   3.443  12.427 -0.4408 -0.5653 -0.3487
15495TIP3   OH267975   3.617   6.713   3.667  0.7076  0.0539  0.1836
15495TIP3    H167976   3.587   6.804   3.676 -0.8108 -0.3707 -0.1459
15495TIP3    H267977   3.709   6.715   3.693  0.4159  1.4788  1.2612
15496TIP3   OH267978   0.565   1.705   0.581 -0.1952 -0.2192 -0.6893
15496TIP3    H167979   0.563   1.611   0.599  0.7450  0.1082  1.4171
15496TIP3    H267980   0.634   1.715   0.515  1.6529 -0.7857  1.0421
15497TIP3   OH267981   2.882   0.094  10.848  0.3174 -1.0116  0.0848
15497TIP3    H167982   2.823   0.132  10.913  0.3005 -0.4573 -0.2445
15497TIP3    H267983   2.937   0.034  10.897  2.2321  1.4504  1.2032
15498TIP3   OH267984   0.326   1.560  11.051 -0.3198 -0.1482  0.2088
15498TIP3    H167985   0.410   1.515  11.049 -0.0015  0.3710  1.1384
15498TIP3    H267986   0.282   1.524  11.128 -0.9776 -0.4563 -0.3019
15499TIP3   OH267987   1.432   4.519  12.282 -0.2372  0.3680 -0.0388
15499TIP3    H167988   1.527   4.516  12.286 -0.2979 -1.7651  1.0993
15499TIP3    H267989   1.411   4.612  12.288  1.7807  1.1012 -2.3829
15500TIP3   OH267990   4.628   1.604   0.541  0.4971 -0.2936 -0.4418
15500TIP3    H167991   4.547   1.553   0.540 -1.2162  1.9659  2.8255
15500TIP3    H267992   4.616   1.670   0.472  0.2698 -0.8569 -0.9536
15501TIP3   OH267993   6.365   5.847  11.239  0.5624  0.3159  0.5546
15501TIP3    H167994   6.426   5.811  11.304 -0.1589 -1.8832  0.1075
15501TIP3    H267995   6.365   5.782  11.168  0.5733  2.1516 -1.2230
15502TIP3   OH267996   5.795   5.153   3.824 -0.1855  1.2815  0.4559
15502TIP3    H167997   5.789   5.075   3.768 -0.2627 -1.8180  4.3862
15502TIP3    H267998   5.851   5.212   3.775  1.7702 -2.1325 -1.8890
15503TIP3   OH267999   4.791   5.992  15.101  0.1681  0.1257 -0.4925
15503TIP3    H168000   4.879   6.025  15.081  0.1931  0.7493  0.5846
15503TIP3    H268001   4.802   5.898  15.111  0.4510  0.0098 -1.7182
15504TIP3   OH268002   1.422   1.898   1.043  0.1271 -0.4316  0.4483
15504TIP3    H168003   1.427   1.950   1.124  0.9173 -1.2546  0.9476
15504TIP3    H268004   1.337   1.855   1.048 -0.1770  0.1476  0.4348
15505TIP3   OH268005   2.291   6.797  13.052  0.0633 -0.5609  0.2717
15505TIP3    H168006   2.275   6.858  13.123  0.6372 -0.1719  0.0747
15505TIP3    H268007   2.287   6.850  12.972 -2.1057 -1.2449 -0.1564
15506TIP3   OH268008   4.042   2.171   5.107  0.0334  0.0451 -0.8441
15506TIP3    H168009   4.052   2.230   5.033  1.3677 -2.7343 -3.0495
15506TIP3    H268010   4.128   2.170   5.149 -0.2988  0.4595 -0.1308
15507TIP3   OH268011   2.792   6.226   0.418  0.1303 -0.5382  0.0656
15507TIP3    H168012   2.699   6.248   0.413  0.1318 -0.4841  0.2697
15507TIP3    H268013   2.800   6.146   0.367 -0.7428 -2.8669  3.2995
15508TIP3   OH268014   4.094   4.803  14.069 -0.3591 -0.5078  0.0714
15508TIP3    H168015   4.022   4.776  14.126 -0.2263 -2.5429 -0.6162
15508TIP3    H268016   4.053   4.813  13.983 -0.1985  0.5185  0.1075
15509TIP3   OH268017   0.812   0.001  12.291 -0.2119  0.3185  0.1430
15509TIP3    H168018   0.810  -0.019  12.197 -0.0708 -0.7893  0.3587
15509TIP3    H268019   0.794  -0.083  12.333  1.2511  0.4652  1.1349
15510TIP3   OH268020   0.197   2.786  14.918 -0.2899 -0.4126 -0.0995
15510TIP3    H168021   0.243   2.712  14.957  0.8534  0.1847 -0.2553
15510TIP3    H268022   0.172   2.756  14.831 -0.8782 -0.9968  0.2608
15511TIP3   OH268023   4.980   6.029  14.536 -0.0489 -0.5424 -0.0174
15511TIP3    H168024   5.000   6.081  14.613  0.5055  1.0834 -1.2165
15511TIP3    H268025   4.891   6.054  14.511 -0.2338 -1.0727  0.0831
15512TIP3   OH268026   3.141   5.834   3.985 -0.0055 -0.5399 -0.1538
15512TIP3    H168027   3.148   5.856   4.078 -1.5905 -0.5291 -0.0208
15512TIP3    H268028   3.144   5.919   3.941 -0.8253 -0.4144  0.0100
15513TIP3   OH268029   4.070   3.998  12.371  0.2231  0.5240  0.1657
15513TIP3    H168030   4.082   4.091  12.389  0.7639  0.5411 -0.2576
15513TIP3    H268031   3.976   3.982  12.386 -0.1741  1.4531 -1.1751
15514TIP3   OH268032   5.284   6.775   5.209  0.0704  0.3746 -0.1170
15514TIP3    H168033   5.267   6.684   5.185 -0.6325  0.8809 -1.6279
15514TIP3    H268034   5.206   6.802   5.258  0.8792 -0.2124  1.6026
15515TIP3   OH268035   4.837   2.398  12.098 -0.5160 -0.2289  0.1263
15515TIP3    H168036   4.876   2.484  12.117 -1.7519  0.4003 -0.1135
15515TIP3    H268037   4.890   2.336  12.150 -0.4330  0.8237  1.3490
15516TIP3   OH268038   0.926   2.182   4.015 -0.3907 -0.5261 -0.3353
15516TIP3    H168039   0.904   2.098   3.974 -0.9074 -1.2815  1.4072
15516TIP3    H268040   0.957   2.236   3.942 -1.7302 -1.6274 -1.7946
15517TIP3   OH268041   1.216   4.552  12.726 -0.1255 -0.1016 -0.0752
15517TIP3    H168042   1.182   4.580  12.810  0.2643 -0.7896  0.3262
15517TIP3    H268043   1.218   4.456  12.732 -0.7308 -0.1887 -1.1157
15518TIP3   OH268044   3.299   4.320   3.521 -0.0172  0.0936 -0.2635
15518TIP3    H168045   3.373   4.265   3.544  0.0606  1.1254  2.3379
15518TIP3    H268046   3.244   4.320   3.600 -1.5107  1.3183 -1.2490
15519TIP3   OH268047   2.774   1.264   2.396  0.2572  0.6105 -0.0823
15519TIP3    H168048   2.788   1.220   2.480  0.6604  0.7858 -0.0553
15519TIP3    H268049   2.692   1.311   2.407 -1.0433 -1.3949 -0.6378
15520TIP3   OH268050   3.959   5.026   4.832  0.4059 -0.3007 -0.1706
15520TIP3    H168051   3.905   4.985   4.765  0.5212 -1.2782  0.3141
15520TIP3    H268052   4.047   4.988   4.818  0.4922 -0.2981  0.3399
15521TIP3   OH268053   0.447   1.290   4.876  0.0344  0.4941  0.0926
15521TIP3    H168054   0.437   1.369   4.823  0.2874 -0.0640 -0.8112
15521TIP3    H268055   0.366   1.241   4.862 -0.0485  0.5114  0.5088
15522TIP3   OH268056   2.927   3.023   3.329 -0.5483  0.2188  0.1019
15522TIP3    H168057   2.940   2.931   3.352  1.9487  0.5393  0.2861
15522TIP3    H268058   2.878   3.060   3.402 -1.4173 -0.9057  0.1059
15523TIP3   OH268059   0.828   3.992   6.419  0.0947  0.2152 -0.1343
15523TIP3    H168060   0.733   3.985   6.421 -0.0399  0.8629 -1.9964
15523TIP3    H268061   0.856   3.924   6.357  0.9577 -0.6461  1.1454
15524TIP3   OH268062   1.025   6.317   2.562 -0.5315 -0.3908 -0.0960
15524TIP3    H168063   1.060   6.386   2.505 -1.8330  0.5459  0.2081
15524TIP3    H268064   1.060   6.338   2.648  0.6138 -1.2288 -0.3325
15525TIP3   OH268065   0.381   4.781   4.292  0.2825  0.0138 -0.1281
15525TIP3    H168066   0.392   4.720   4.220  2.8515 -0.3615  0.4648
15525TIP3    H268067   0.311   4.744   4.345  0.7433 -1.5844 -0.6000
15526TIP3   OH268068   4.570   2.951   2.827  0.3109  0.4173 -0.0017
15526TIP3    H168069   4.568   2.999   2.910  0.7764  0.3069  0.0768
15526TIP3    H268070   4.552   3.017   2.760  1.3040  0.7795  0.0757
15527TIP3   OH268071   5.658   2.604  13.615  0.5273 -0.0657  0.3076
15527TIP3    H168072   5.674   2.523  13.567 -1.4912 -2.0087  2.6536
15527TIP3    H268073   5.732   2.611  13.675  1.5556  0.8072 -0.9981
15528TIP3   OH268074   0.366   3.953  15.857 -0.1512  0.5308 -0.5111
15528TIP3    H168075   0.285   3.946  15.908 -0.4474 -1.3147 -1.1630
15528TIP3    H268076   0.436   3.940  15.921 -0.3893  1.1913 -0.1034
15529TIP3   OH268077   6.427   2.764   2.824  0.7697 -0.2864  0.2726
15529TIP3    H168078   6.346   2.718   2.800 -0.0195  1.1863  0.0133
15529TIP3    H268079   6.419   2.850   2.783  2.4881 -0.1070  0.2309
15530TIP3   OH268080   0.325   1.103   3.039 -0.6979 -0.3166 -0.3517
15530TIP3    H168081   0.285   1.035   3.093 -1.1905 -0.4109 -0.8257
15530TIP3    H268082   0.251   1.158   3.013 -0.5323 -0.5336 -1.3014
15531TIP3   OH268083   6.371   2.998   2.702 -0.0552  0.1331 -0.4230
15531TIP3    H168084   6.434   3.052   2.750  0.9000 -0.7944 -0.5887
15531TIP3    H268085   6.286   3.036   2.723  0.5008  1.0057  0.3503
15532TIP3   OH268086   0.576   1.629  12.993 -0.1104 -0.2766 -0.2014
15532TIP3    H168087   0.564   1.620  12.899  1.5875 -1.6388 -0.3378
15532TIP3    H268088   0.492   1.661  13.025 -1.3219 -1.5217 -1.9609
15533TIP3   OH268089   1.374   1.332  15.622 -0.1968  0.0011  0.2161
15533TIP3    H168090   1.377   1.355  15.715  1.3812  0.6992  0.0259
15533TIP3    H268091   1.364   1.237  15.620  0.1540 -0.0586  1.1076
15534TIP3   OH268092   4.245   2.538   4.746  0.7987  0.0013  0.3447
15534TIP3    H168093   4.276   2.629   4.744 -0.8213  0.5787 -0.9455
15534TIP3    H268094   4.250   2.509   4.655  0.8118 -1.0340  0.6669
15535TIP3   OH268095   6.372   2.365  14.948 -0.5839 -0.6439 -0.0268
15535TIP3    H168096   6.293   2.311  14.943 -0.3878 -0.8916 -0.4443
15535TIP3    H268097   6.444   2.303  14.939 -0.3044 -0.5318  1.1642
15536TIP3   OH268098   3.421   3.897   1.965 -0.3522  0.0278  0.4870
15536TIP3    H168099   3.509   3.932   1.978 -1.0677  2.4177 -0.4836
15536TIP3    H268100   3.430   3.802   1.978  2.4055  0.1541  0.0378
15537TIP3   OH268101   2.800   6.570   2.316  0.1509  0.1265 -0.1722
15537TIP3    H168102   2.873   6.620   2.280  1.0914  1.1278  2.8369
15537TIP3    H268103   2.839   6.515   2.384 -1.3649 -2.3882 -1.1783
15538TIP3   OH268104   1.173   4.298   4.079 -0.4265  1.0947  0.2929
15538TIP3    H168105   1.124   4.234   4.131  1.5885 -0.0567  0.9041
15538TIP3    H268106   1.107   4.359   4.047 -2.1620 -0.0701  1.4725
15539TIP3   OH268107   4.002   4.884  13.823  0.0051  0.5785  1.1829
15539TIP3    H168108   4.063   4.945  13.782 -0.6994  0.7911  0.4368
15539TIP3    H268109   3.952   4.847  13.750  0.3922 -0.8638  1.6194
15540TIP3   OH268110   0.695   1.024  14.417  0.1415  0.6595  0.0355
15540TIP3    H168111   0.787   1.025  14.442  0.3675  1.1972 -0.8020
15540TIP3    H268112   0.671   1.117  14.411  0.3319  0.6160 -2.5289
15541TIP3   OH268113   2.430   0.856  13.975 -0.0891  0.5442  0.1477
15541TIP3    H168114   2.395   0.944  13.957 -0.4246  0.2689 -0.5529
15541TIP3    H268115   2.514   0.854  13.930 -1.5774 -0.6658 -2.8358
15542TIP3   OH268116   0.735   4.485  12.195 -0.3031 -0.4912  0.6880
15542TIP3    H168117   0.755   4.561  12.249 -2.0919  2.1642 -2.0555
15542TIP3    H268118   0.802   4.485  12.127 -0.5922 -1.0806  0.3935
15543TIP3   OH268119   0.472   2.087  16.127 -0.2073  0.6195  0.5239
15543TIP3    H168120   0.413   2.153  16.089 -0.6196 -0.8223 -1.5052
15543TIP3    H268121   0.420   2.047  16.196 -1.6137 -0.4763 -1.0894
15544TIP3   OH268122   4.382   6.395  16.649 -0.0694  0.3212 -0.0848
15544TIP3    H168123   4.393   6.483  16.612 -2.8337  0.8713  0.1821
15544TIP3    H268124   4.393   6.336  16.574  0.5453  0.9755 -0.5208
15545TIP3   OH268125   6.167   0.381  16.056 -0.2089 -0.8479  0.4065
15545TIP3    H168126   6.074   0.384  16.034  0.0864  0.6726 -0.7777
15545TIP3    H268127   6.171   0.404  16.149 -0.8941  1.3137 -0.0426
15546TIP3   OH268128   1.580   1.235  13.973  0.1743 -0.2579  0.0689
15546TIP3    H168129   1.605   1.290  14.047  0.0871  0.2451 -0.2658
15546TIP3    H268130   1.617   1.281  13.897  0.6160 -0.9817 -0.1561
15547TIP3   OH268131   4.439   0.638   3.367 -0.1878  0.0803 -0.2238
15547TIP3    H168132   4.479   0.598   3.290 -0.5088 -0.2628 -0.2119
15547TIP3    H268133   4.506   0.699   3.399 -1.0643  2.4142 -2.4416
15548TIP3   OH268134   1.126   1.389   4.723 -0.3815 -0.1454  0.1318
15548TIP3    H168135   1.153   1.479   4.706  1.6073 -0.9628 -1.4833
15548TIP3    H268136   1.076   1.394   4.804 -0.3721  2.4056  0.0625
15549TIP3   OH268137   5.253   0.600  13.045  0.1025 -0.1835  0.6402
15549TIP3    H168138   5.306   0.663  12.997  0.4221  1.0118  2.4654
15549TIP3    H268139   5.178   0.582  12.988 -0.2748  2.2752  0.2809
15550TIP3   OH268140   6.211   6.282  15.164 -0.0460  0.0067 -0.0256
15550TIP3    H168141   6.177   6.280  15.253  1.6112  0.6490  0.6626
15550TIP3    H268142   6.169   6.358  15.124 -0.3760  0.0446  0.3834
15551TIP3   OH268143   0.367   2.502   5.157  0.1867 -0.4496  0.2676
15551TIP3    H168144   0.364   2.590   5.119  1.0172 -0.9694 -1.0819
15551TIP3    H268145   0.311   2.507   5.234 -2.2813  0.4621 -1.4415
15552TIP3   OH268146   3.270   4.693  17.086 -0.7211  0.3483  1.1555
15552TIP3    H168147   3.304   4.761  17.144  1.8619 -0.7173  1.0515
15552TIP3    H268148   3.268   4.735  17.000  2.2405  0.0112  0.8195
15553TIP3   OH268149   2.928   1.232  16.715  0.2016 -0.3608  0.5685
15553TIP3    H168150   2.949   1.322  16.739  1.2966 -0.5146  0.2605
15553TIP3    H268151   3.005   1.202  16.666 -1.0091 -0.7849 -1.1657
15554TIP3   OH268152   3.704   1.379   3.843 -0.3552  0.1581  0.1715
15554TIP3    H168153   3.622   1.402   3.887  0.0477  0.2654  0.8973
15554TIP3    H268154   3.682   1.305   3.787 -0.5137 -1.2975  2.0418
15555TIP3   OH268155   1.216   3.671   3.494  0.1452  0.3722 -0.1839
15555TIP3    H168156   1.149   3.670   3.426  0.2045 -1.7645 -0.2815
15555TIP3    H268157   1.170   3.642   3.573  0.3300  1.7565  0.4599
15556TIP3   OH268158   0.405   6.219  14.143  0.1886 -0.6511 -0.3451
15556TIP3    H168159   0.332   6.230  14.204  1.1122  0.9586  0.5680
15556TIP3    H268160   0.418   6.124  14.137  0.6977 -0.9101  2.8534
15557TIP3   OH268161   5.906   6.035   4.327  0.1501 -0.3537  0.0209
15557TIP3    H168162   5.878   6.122   4.297  0.9522  0.8797  2.5656
15557TIP3    H268163   5.836   6.007   4.386  1.0316 -0.2697  1.1485
15558TIP3   OH268164   3.052   6.233  14.393 -0.1691  0.4154  0.1313
15558TIP3    H168165   3.055   6.317  14.347 -0.7615 -0.0375 -0.7652
15558TIP3    H268166   3.026   6.256  14.482 -1.6865  1.0805 -0.4324
15559TIP3   OH268167   2.840   2.498   0.417  0.5011 -0.7476  0.1826
15559TIP3    H168168   2.790   2.534   0.345  0.7781 -1.2389 -0.2608
15559TIP3    H268169   2.777   2.447   0.468 -0.3494  1.7658  1.8824
15560TIP3   OH268170   2.591   2.115  15.252 -0.6200 -0.4700  0.2263
15560TIP3    H168171   2.545   2.063  15.185  0.6296 -1.0900 -0.1726
15560TIP3    H268172   2.680   2.122  15.219 -0.1367 -0.2603  1.5427
15561TIP3   OH268173   5.166   1.638  11.984  0.5460  0.0234  0.4038
15561TIP3    H168174   5.119   1.688  11.917 -0.4653 -1.0722  0.2654
15561TIP3    H268175   5.105   1.634  12.058  1.1502  0.1252  0.9159
15562TIP3   OH268176   5.126   6.029  16.894  0.5243 -0.0531  0.1336
15562TIP3    H168177   5.076   5.951  16.917 -0.0126 -0.4573 -2.2430
15562TIP3    H268178   5.069   6.102  16.919  1.0134 -0.3501  2.3301
15563TIP3   OH268179   0.320   1.565  14.836  0.1381 -0.0366  0.1189
15563TIP3    H168180   0.299   1.499  14.902 -0.6699 -0.2068 -0.2897
15563TIP3    H268181   0.243   1.621  14.834  0.6351  0.6560  0.1384
15564TIP3   OH268182   0.142   6.045   4.471  0.0059 -0.3426 -0.0660
15564TIP3    H168183   0.137   6.083   4.384  2.4044  1.6302  0.5176
15564TIP3    H268184   0.054   6.056   4.507 -0.6627  0.0844 -1.7448
15565TIP3   OH268185   6.831   1.702  16.041  0.2251  0.0009  0.5035
15565TIP3    H168186   6.747   1.745  16.055  1.4300  3.3752 -1.4306
15565TIP3    H268187   6.880   1.717  16.122  0.2740  1.5172  0.2191
15566TIP3   OH268188   5.178   1.847  16.241  0.7480 -0.7237 -0.4492
15566TIP3    H168189   5.150   1.890  16.322  0.8551  0.8054 -1.1935
15566TIP3    H268190   5.194   1.756  16.267  0.2972 -0.3890  1.1305
15567TIP3   OH268191   6.507   6.606  15.017  0.2404 -0.4280  0.6158
15567TIP3    H168192   6.577   6.566  14.965  1.1499  2.9622 -1.1218
15567TIP3    H268193   6.543   6.690  15.044 -2.5319  0.6690  1.2305
15568TIP3   OH268194   2.637   2.821  15.047 -0.3279  0.1137 -0.1351
15568TIP3    H168195   2.636   2.903  15.096  0.9012 -0.5392  1.0287
15568TIP3    H268196   2.560   2.773  15.078 -0.4276  0.3656  0.0067
15569TIP3   OH268197   0.150   3.335   5.198 -0.7810 -0.3203 -0.2032
15569TIP3    H168198   0.130   3.242   5.209 -0.2185 -0.2753  1.4748
15569TIP3    H268199   0.167   3.366   5.287  0.8538  0.9713 -0.9167
15570TIP3   OH268200   5.616   3.851   1.729  0.5517  0.0661 -0.1745
15570TIP3    H168201   5.657   3.874   1.645  2.3909 -0.8573  0.4111
15570TIP3    H268202   5.641   3.923   1.788  0.2498  0.1294 -0.1219
15571TIP3   OH268203   4.832   5.375  15.236 -0.0287 -0.4191  0.0107
15571TIP3    H168204   4.747   5.414  15.214  0.0070 -0.0689  0.4871
15571TIP3    H268205   4.839   5.300  15.178 -1.2070 -1.1550  0.7839
15572TIP3   OH268206   6.216   3.837   2.215  0.1926  0.6641  0.2556
15572TIP3    H168207   6.223   3.764   2.277  1.8093 -0.2182 -0.8689
15572TIP3    H268208   6.223   3.795   2.129  0.2465  2.0657 -0.4478
15573TIP3   OH268209   6.078   1.115  14.250  0.0030  0.5925 -0.2327
15573TIP3    H168210   6.166   1.106  14.288 -0.5040  0.0183  0.8479
15573TIP3    H268211   6.025   1.051  14.297 -0.5722 -0.4937 -2.2777
15574TIP3   OH268212   0.607   1.167  11.481 -0.9369 -0.7488 -0.4350
15574TIP3    H168213   0.623   1.155  11.574  1.1561 -1.7074 -0.8514
15574TIP3    H268214   0.535   1.107  11.461 -1.0102 -0.9674  0.4480
15575TIP3   OH268215   5.493   3.025   3.324  0.0463  0.4027 -0.1562
15575TIP3    H168216   5.473   2.934   3.301 -0.8662  0.1253  1.5212
15575TIP3    H268217   5.408   3.069   3.321  0.3516  0.9976 -0.1098
15576TIP3   OH268218   1.169   1.066  11.490  0.7417  0.1354  0.0898
15576TIP3    H168219   1.157   1.062  11.585 -1.5574  1.1578 -0.0918
15576TIP3    H268220   1.182   1.158  11.470 -1.8538  0.3977 -0.8021
15577TIP3   OH268221   3.789   6.100   4.755  0.4731 -0.4252  0.3899
15577TIP3    H168222   3.752   6.012   4.764  1.0465 -0.4812  2.9926
15577TIP3    H268223   3.713   6.159   4.754  0.1570 -0.7891  1.6331
15578TIP3   OH268224   5.382   2.332   3.214  0.5296 -0.0958  0.0016
15578TIP3    H168225   5.457   2.365   3.264 -0.7659  1.1067  1.2142
15578TIP3    H268226   5.411   2.339   3.122  1.1971  2.2903  0.3205
15579TIP3   OH268227   5.907   2.949  15.776 -0.4126  0.0197 -0.5562
15579TIP3    H168228   5.947   2.868  15.747 -1.0569  0.5783 -3.2293
15579TIP3    H268229   5.827   2.921  15.822 -0.3505 -0.8571 -0.9641
15580TIP3   OH268230   5.584   1.550   4.320 -0.1998 -0.4532 -0.2155
15580TIP3    H168231   5.616   1.464   4.294 -1.5869 -1.3236  0.8773
15580TIP3    H268232   5.498   1.558   4.278  0.1879  0.7025 -0.8557
15581TIP3   OH268233   0.812   6.186  14.990 -0.1968  0.9274 -0.0998
15581TIP3    H168234   0.806   6.240  14.912  0.0647 -0.4017 -1.0819
15581TIP3    H268235   0.722   6.159  15.008 -0.1279  0.2486 -0.6988
15582TIP3   OH268236   1.230   4.825  15.234  0.4452 -0.2569 -0.1016
15582TIP3    H168237   1.230   4.737  15.272 -1.1376  0.5506  1.9478
15582TIP3    H268238   1.248   4.883  15.308  0.5200  1.2251 -1.2245
15583TIP3   OH268239   2.404   4.354  16.082  0.1306  0.1857  0.2441
15583TIP3    H168240   2.367   4.395  16.004  0.1905  1.2173  0.7378
15583TIP3    H268241   2.431   4.267  16.053 -0.5751  0.2582 -0.6843
15584TIP3   OH268242   2.363   1.380   4.954  0.0027  0.8632  0.3510
15584TIP3    H168243   2.453   1.402   4.978  0.9638 -2.4131  0.2252
15584TIP3    H268244   2.357   1.400   4.861  0.7740  0.6013  0.2441
15585TIP3   OH268245   4.467   4.473   1.791  0.2205 -0.8230 -0.3090
15585TIP3    H168246   4.413   4.436   1.860  1.4411 -0.1550  1.0469
15585TIP3    H268247   4.404   4.512   1.730 -0.8859  2.3643  2.5586
15586TIP3   OH268248   2.787   3.507   6.161  0.4057  0.1025 -0.5521
15586TIP3    H168249   2.763   3.566   6.090  0.2596 -0.1201 -0.6901
15586TIP3    H268250   2.738   3.538   6.237  0.0983 -0.0262 -0.6995
15587TIP3   OH268251   0.352   0.579  12.485  0.4375  0.2216  0.8259
15587TIP3    H168252   0.410   0.612  12.416 -0.2880  0.0114  0.1014
15587TIP3    H268253   0.348   0.650  12.549 -1.1593  1.6629 -0.7493
15588TIP3   OH268254   2.489   1.582   7.241  0.1217 -0.0662 -0.4453
15588TIP3    H168255   2.427   1.618   7.178 -0.5977  1.3550  0.9785
15588TIP3    H268256   2.539   1.517   7.192 -1.4047 -0.0974 -2.0582
15589TIP3   OH268257   5.035   1.243   2.992 -0.5073 -0.5185  0.0505
15589TIP3    H168258   5.059   1.312   3.054  0.1893 -0.1512 -0.6073
15589TIP3    H268259   5.035   1.163   3.045 -0.7686 -0.0995  0.7028
15590TIP3   OH268260   4.213   4.067  15.268 -0.1520  0.5724 -0.1233
15590TIP3    H168261   4.262   4.136  15.224  1.3931  0.2710  1.0742
15590TIP3    H268262   4.274   4.030  15.331 -1.1387 -1.4794 -0.2932
15591TIP3   OH268263   4.864   0.927   0.729  0.4623 -0.0163  0.7885
15591TIP3    H168264   4.798   0.951   0.664  0.4580  0.6560  1.0313
15591TIP3    H268265   4.857   0.832   0.736  0.0156 -0.0275  0.2857
15592TIP3   OH268266   4.516   4.207  11.755 -0.0941  0.7067 -0.4638
15592TIP3    H168267   4.606   4.181  11.773 -0.5185 -0.6147 -0.1044
15592TIP3    H268268   4.519   4.245  11.667  0.5189 -1.0768 -1.2667
15593TIP3   OH268269   3.830   3.206  13.729 -0.1185  0.3344 -0.3358
15593TIP3    H168270   3.803   3.159  13.807  0.9423 -1.1477 -0.8202
15593TIP3    H268271   3.917   3.240  13.750  0.3662 -0.4507 -0.9992
15594TIP3   OH268272   0.656   3.902  10.969 -0.1135  0.3257  0.4061
15594TIP3    H168273   0.715   3.951  10.911 -1.3202  0.1636 -1.0151
15594TIP3    H268274   0.681   3.811  10.957 -0.2259  0.3088  0.2985
15595TIP3   OH268275   1.689   3.260   4.709 -0.6527  0.1360 -0.4826
15595TIP3    H168276   1.720   3.172   4.684  1.1368  0.7268 -0.4754
15595TIP3    H268277   1.732   3.278   4.792  1.5358  2.2379 -1.9490
15596TIP3   OH268278   2.950   0.959   3.876 -0.0663 -0.1457  0.0589
15596TIP3    H168279   2.923   0.871   3.902  2.0031 -0.2550  2.1617
15596TIP3    H268280   3.046   0.954   3.869  0.3603  2.3934  2.3798
15597TIP3   OH268281   2.655   5.357  15.326 -0.2497  0.1355 -0.1408
15597TIP3    H168282   2.627   5.427  15.385  0.1853 -0.1992  0.4710
15597TIP3    H268283   2.706   5.297  15.382 -0.5592 -0.6348 -0.6615
15598TIP3   OH268284   2.510   0.788   1.829  0.2553  0.1674  0.1902
15598TIP3    H168285   2.508   0.874   1.870 -1.1473 -0.0727  0.6724
15598TIP3    H268286   2.540   0.804   1.739 -0.7329  1.2700  0.0385
15599TIP3   OH268287   2.015   1.138  10.996 -1.0009 -0.4598  0.4098
15599TIP3    H168288   2.002   1.210  10.934 -0.9235  0.8667  1.8921
15599TIP3    H268289   2.098   1.099  10.969 -1.3719 -0.4422 -0.8212
15600TIP3   OH268290   1.068   1.079  14.801 -0.1766  0.2478 -0.6925
15600TIP3    H168291   0.987   1.067  14.751 -0.0643  0.1504 -0.8522
15600TIP3    H268292   1.104   1.162  14.767 -0.5823  0.6720 -0.1012
15601TIP3   OH268293   3.329   2.678  11.899 -0.2367 -0.4057 -0.5154
15601TIP3    H168294   3.275   2.613  11.944  1.7082 -1.1169  0.9756
15601TIP3    H268295   3.376   2.628  11.832  0.7997 -0.4340  0.2171
15602TIP3   OH268296   5.730   1.673   3.394  0.1093  0.4918  0.5359
15602TIP3    H168297   5.674   1.664   3.472  2.7166 -2.1606  2.3489
15602TIP3    H268298   5.710   1.595   3.342 -0.0808  1.1450 -0.3786
15603TIP3   OH268299   6.343   0.291  15.836 -0.2782 -0.6183 -0.7115
15603TIP3    H168300   6.277   0.282  15.766 -0.0641  2.2035 -1.4061
15603TIP3    H268301   6.293   0.322  15.911  0.0903  0.6935 -0.9873
15604TIP3   OH268302   3.113   3.052  14.759 -0.3377 -0.1680 -0.2683
15604TIP3    H168303   3.058   3.044  14.681 -0.1024 -0.8840 -0.3715
15604TIP3    H268304   3.179   2.984  14.748 -1.6126 -1.8349  1.5954
15605TIP3   OH268305   0.405   2.867   0.916 -0.3762  0.2107 -0.0049
15605TIP3    H168306   0.314   2.871   0.886 -0.3977  0.7449  0.1328
15605TIP3    H268307   0.457   2.885   0.838 -0.3789 -0.1925 -0.1057
15606TIP3   OH268308   3.239   5.222  15.618 -0.2417 -0.0187 -0.0445
15606TIP3    H168309   3.173   5.276  15.575 -0.9260 -0.3846  0.5414
15606TIP3    H268310   3.319   5.275  15.616 -0.3535  0.1214 -1.4237
15607TIP3   OH268311   0.801   5.792  13.971 -0.0711  0.2940 -0.3617
15607TIP3    H168312   0.895   5.772  13.974 -0.0861  0.1814 -0.6396
15607TIP3    H268313   0.760   5.709  13.944 -0.1790  0.5539 -1.0192
15608TIP3   OH268314   4.894   1.721  12.520  0.3707 -0.7804 -0.8685
15608TIP3    H168315   4.944   1.699  12.599 -2.2811 -1.7439  0.6681
15608TIP3    H268316   4.861   1.810  12.535  1.1727 -0.3342 -1.6539
15609TIP3   OH268317   3.339   1.545  16.027 -0.3956 -0.0387 -0.4845
15609TIP3    H168318   3.266   1.585  15.979 -0.1535 -0.2270 -1.0190
15609TIP3    H268319   3.389   1.618  16.062 -1.6007  0.0858  1.0563
15610TIP3   OH268320   2.830   3.745  13.651  0.5087  0.2445  0.1105
15610TIP3    H168321   2.902   3.778  13.705  1.3532 -2.5662  0.8876
15610TIP3    H268322   2.864   3.665  13.612 -1.6891 -0.3073 -0.8293
15611TIP3   OH268323   2.598   3.577   1.359 -0.8091 -0.5838  0.0701
15611TIP3    H168324   2.579   3.555   1.451  0.5736 -0.1806  0.4796
15611TIP3    H268325   2.625   3.668   1.361 -1.6660 -0.2909 -0.8967
15612TIP3   OH268326   0.327   6.253  12.885 -0.2710 -0.2937  0.1159
15612TIP3    H168327   0.283   6.210  12.812  1.2792 -0.8820 -0.5064
15612TIP3    H268328   0.268   6.324  12.910  0.1376  1.3484 -3.1486
15613TIP3   OH268329   1.008   0.894   3.944 -0.0739 -0.0104 -0.1788
15613TIP3    H168330   1.084   0.838   3.928 -1.1282 -1.2672 -0.9776
15613TIP3    H268331   1.006   0.907   4.039  0.6196 -0.7171 -0.0607
15614TIP3   OH268332   5.512   6.284  16.658  0.3392 -0.2674 -0.0072
15614TIP3    H168333   5.435   6.230  16.678  0.7226 -0.7858  0.1011
15614TIP3    H268334   5.570   6.225  16.610  1.6491 -0.5934  1.8633
15615TIP3   OH268335   0.696   0.784  15.547  0.0540 -0.0658  0.1197
15615TIP3    H168336   0.663   0.707  15.592 -1.0329  1.1211  1.4517
15615TIP3    H268337   0.691   0.855  15.612  0.5829  1.2328 -1.1812
15616TIP3   OH268338   6.832   3.244  11.530  0.0861 -0.3543 -0.2322
15616TIP3    H168339   6.871   3.323  11.566  1.9554 -1.4711  0.3135
15616TIP3    H268340   6.743   3.270  11.504  0.8387  2.0337 -0.5943
15617TIP3   OH268341   4.567   6.118   4.727 -0.4632  0.0535 -0.6926
15617TIP3    H168342   4.553   6.069   4.646  2.1875 -1.2604 -0.4931
15617TIP3    H268343   4.531   6.062   4.796 -0.5733  0.0297 -0.7715
15618TIP3   OH268344   5.714   2.651   2.286  0.5600  0.0779  0.1920
15618TIP3    H168345   5.689   2.563   2.311 -1.9694  0.9833  1.0851
15618TIP3    H268346   5.708   2.651   2.190  0.0639 -0.5644  0.2187
15619TIP3   OH268347   2.584   3.452  16.962 -0.9598  0.0887  0.3258
15619TIP3    H168348   2.674   3.444  16.991  0.2021  4.2311 -1.4862
15619TIP3    H268349   2.582   3.407  16.877  0.4579  2.7373 -1.2290
15620TIP3   OH268350   3.854   3.433   0.283  0.1436  0.1261  0.2759
15620TIP3    H168351   3.842   3.485   0.362  2.8111  3.1987 -1.1152
15620TIP3    H268352   3.798   3.476   0.218  0.7195 -0.1163 -0.3864
15621TIP3   OH268353   0.767   6.282   2.461  0.3294  0.2772 -0.1498
15621TIP3    H168354   0.853   6.249   2.485  0.1944 -0.7181 -0.9860
15621TIP3    H268355   0.709   6.252   2.531  0.3463 -0.6337 -0.5131
15622TIP3   OH268356   1.535   5.202  16.309 -0.3769 -0.5926  0.1175
15622TIP3    H168357   1.599   5.228  16.376  0.2189 -0.3835 -0.5271
15622TIP3    H268358   1.547   5.265  16.238 -0.2089 -1.4948 -0.6721
15623TIP3   OH268359   5.768   5.506  16.294  0.2409  0.0339  0.3909
15623TIP3    H168360   5.761   5.412  16.280 -2.3422  0.3274 -1.1033
15623TIP3    H268361   5.692   5.528  16.348 -0.2530  1.4410 -0.7798
15624TIP3   OH268362   6.544   3.533   6.177 -0.3061 -1.0207  0.2201
15624TIP3    H168363   6.637   3.528   6.154  0.0120 -0.8392  1.3981
15624TIP3    H268364   6.519   3.623   6.157 -0.4939 -1.3140 -0.9748
15625TIP3   OH268365   3.747   0.132  16.625 -0.6760  0.1509 -0.7545
15625TIP3    H168366   3.738   0.175  16.710  1.8204  0.0781 -0.3991
15625TIP3    H268367   3.785   0.047  16.645 -1.7794 -0.6279 -1.8189
15626TIP3   OH268368   1.473   4.789   4.894 -0.2005 -0.2364 -0.6718
15626TIP3    H168369   1.522   4.827   4.967  0.5502  0.6376 -1.6134
15626TIP3    H268370   1.462   4.697   4.919  2.7514 -0.7288 -0.7967
15627TIP3   OH268371   2.707   0.764   5.851 -0.1449  0.0459 -0.4520
15627TIP3    H168372   2.651   0.810   5.788 -1.5857 -1.7593 -0.5770
15627TIP3    H268373   2.766   0.713   5.797 -0.1008 -0.0295 -0.3321
15628TIP3   OH268374   6.262   0.220   5.116 -0.1658 -0.4326  0.1754
15628TIP3    H168375   6.244   0.189   5.205 -1.4266  0.1084  0.1218
15628TIP3    H268376   6.329   0.287   5.127  0.2559 -0.9166  0.6217
15629TIP3   OH268377   2.863   5.683  10.968  0.6440 -0.1822 -0.3686
15629TIP3    H168378   2.942   5.732  10.944  0.3039 -0.1308 -1.4255
15629TIP3    H268379   2.794   5.750  10.973  0.5731 -0.2890  0.0817
15630TIP3   OH268380   0.718   6.420  15.470 -0.2073  0.8614  0.3889
15630TIP3    H168381   0.659   6.359  15.426 -0.7027  1.0814  0.7419
15630TIP3    H268382   0.780   6.363  15.516 -1.4328  0.5716  1.7666
15631TIP3   OH268383   0.549   6.750   0.352 -0.1090 -0.8141 -0.2562
15631TIP3    H168384   0.592   6.835   0.347 -0.5078 -0.5382  0.7347
15631TIP3    H268385   0.584   6.701   0.278  0.7660 -0.0834 -0.3419
15632TIP3   OH268386   2.286   2.604   4.392 -0.7104 -0.0319 -0.6712
15632TIP3    H168387   2.297   2.681   4.447  0.6471 -0.8454  0.2694
15632TIP3    H268388   2.215   2.555   4.433  0.8960 -1.0956  1.0189
15633TIP3   OH268389   5.085   1.057  11.462 -0.2544  0.3183 -0.1857
15633TIP3    H168390   5.146   1.043  11.534  0.0373  1.2171 -0.2432
15633TIP3    H268391   5.045   0.971  11.447 -0.7423  0.2361  1.4057
15634TIP3   OH268392   1.604   1.875   5.184 -0.1329 -0.2629  0.3619
15634TIP3    H168393   1.664   1.950   5.185  0.2360 -0.4800 -1.4972
15634TIP3    H268394   1.638   1.816   5.252 -0.1232  1.0088  1.4890
15635TIP3   OH268395   1.499   2.074   2.961  0.7289  0.4097 -0.2731
15635TIP3    H168396   1.434   2.144   2.965  1.0080  0.6643 -0.1707
15635TIP3    H268397   1.488   2.026   3.044  0.9715  0.7267 -0.0525
15636TIP3   OH268398   5.182   4.238  14.172 -0.1244 -0.4885  0.1478
15636TIP3    H168399   5.126   4.212  14.246 -0.8380 -1.5010 -0.7188
15636TIP3    H268400   5.240   4.164  14.158  0.5811  0.0445  0.2192
15637TIP3   OH268401   1.012   3.921   3.747 -0.2417 -0.5374 -0.1808
15637TIP3    H168402   1.096   3.874   3.742  1.7564  2.1905  2.8334
15637TIP3    H268403   0.958   3.868   3.805 -0.4012 -1.9777 -1.5925
15638TIP3   OH268404   4.559   1.126   1.548  0.1432  0.3602  0.2290
15638TIP3    H168405   4.608   1.186   1.492  1.4264 -1.6716 -1.0061
15638TIP3    H268406   4.467   1.138   1.523  0.4805  1.0649 -0.7133
15639TIP3   OH268407   5.740   3.135  16.903 -0.3995  0.3163  0.3027
15639TIP3    H168408   5.732   3.104  16.813 -0.2399 -0.4443  0.5367
15639TIP3    H268409   5.824   3.099  16.933 -0.2718  0.8786  0.6352
15640TIP3   OH268410   1.709   2.746  14.166 -0.5427 -0.3144 -0.5535
15640TIP3    H168411   1.680   2.828  14.205  0.0278 -0.6337  0.6144
15640TIP3    H268412   1.751   2.699  14.239  0.1895 -1.1297 -1.4710
15641TIP3   OH268413   4.824   1.464  12.172 -0.4085 -0.3182  0.4736
15641TIP3    H168414   4.771   1.465  12.252  1.0111 -1.6014  1.4820
15641TIP3    H268415   4.897   1.523  12.191  1.0132 -2.1486  0.9581
15642TIP3   OH268416   0.955   0.859   2.741  0.2491  0.0313  0.1931
15642TIP3    H168417   1.004   0.812   2.674  0.4528  0.3992  0.0814
15642TIP3    H268418   1.011   0.934   2.763  0.4794 -0.4077  1.2086
15643TIP3   OH268419   2.624   2.693   3.519 -0.0440  0.4314 -0.3706
15643TIP3    H168420   2.615   2.655   3.607 -2.1628 -1.3713 -1.2694
15643TIP3    H268421   2.594   2.783   3.529 -0.3702  0.2169  0.7408
15644TIP3   OH268422   6.260   2.711   0.498  0.4280  0.0371  0.2709
15644TIP3    H168423   6.275   2.756   0.581  0.0944  0.0246  0.3385
15644TIP3    H268424   6.331   2.741   0.441  1.3521 -0.8175  0.9085
15645TIP3   OH268425   2.035   6.278  13.482 -0.0221 -0.0000  0.1856
15645TIP3    H168426   2.025   6.333  13.405  2.9939 -0.2200 -0.4943
15645TIP3    H268427   2.012   6.190  13.452  0.9032 -0.0445 -0.4268
15646TIP3   OH268428   5.488   1.042   2.005  0.0430  0.2195 -0.5229
15646TIP3    H168429   5.501   1.092   1.925  1.2006 -1.1649 -1.2291
15646TIP3    H268430   5.399   1.009   1.998  0.6008 -1.0492 -1.9286
15647TIP3   OH268431   2.388   0.125   2.289 -0.4592 -0.4037 -0.0479
15647TIP3    H168432   2.314   0.065   2.298 -1.1174  0.5126  1.0071
15647TIP3    H268433   2.424   0.132   2.378 -0.3462  0.6756 -0.1611
15648TIP3   OH268434   5.200   4.112   4.471 -0.4610  0.0861  0.0706
15648TIP3    H168435   5.124   4.122   4.414 -0.0893 -1.8748 -0.8648
15648TIP3    H268436   5.269   4.164   4.428 -0.7212  0.2173 -0.1916
15649TIP3   OH268437   6.809   2.406   2.689 -0.4750 -0.1170  0.2438
15649TIP3    H168438   6.901   2.382   2.701 -0.0751 -0.2694 -2.5718
15649TIP3    H268439   6.797   2.482   2.746  1.6509  0.4508  0.0256
15650TIP3   OH268440   2.451   2.924  10.934  0.4443  0.0696 -0.2269
15650TIP3    H168441   2.498   2.858  10.883  1.7452  0.3719  0.5374
15650TIP3    H268442   2.504   3.003  10.925  0.3363  0.2980  1.0636
15651TIP3   OH268443   2.455   2.354   4.307 -0.3761 -0.7708 -0.1905
15651TIP3    H168444   2.474   2.448   4.301  2.8901 -1.3696 -0.9805
15651TIP3    H268445   2.397   2.337   4.233 -1.5035  0.6552  0.2987
15652TIP3   OH268446   3.160   1.795   2.760 -0.4039  0.4035 -0.8255
15652TIP3    H168447   3.220   1.860   2.795 -0.5846  0.4041 -0.5114
15652TIP3    H268448   3.187   1.713   2.803 -1.4880  0.6474  0.3667
15653TIP3   OH268449   1.542   0.884  14.213 -0.1996 -0.0624 -0.0344
15653TIP3    H168450   1.529   0.797  14.175 -0.4333 -0.6923  1.4321
15653TIP3    H268451   1.489   0.942  14.157 -2.3073 -1.2743  0.5846
15654TIP3   OH268452   0.725   1.959   2.449 -0.1286  0.6194  0.7772
15654TIP3    H168453   0.737   1.904   2.372  1.0043 -0.0464  1.3972
15654TIP3    H268454   0.658   2.022   2.424 -1.4509 -1.0041  0.0147
15655TIP3   OH268455   2.581   4.475  13.079  0.8345 -0.1325 -0.5239
15655TIP3    H168456   2.628   4.559  13.080  0.2663  0.1925  0.4211
15655TIP3    H268457   2.588   4.444  13.169 -0.0866 -0.4608 -0.5605
15656TIP3   OH268458   0.061   6.396  14.886 -0.0952 -0.8136 -0.0156
15656TIP3    H168459   0.082   6.484  14.856 -0.6297 -0.8211 -0.4171
15656TIP3    H268460   0.043   6.346  14.806  0.5382 -1.3861  0.1790
15657TIP3   OH268461   6.434   1.986  12.402  0.0887  0.0414 -0.1082
15657TIP3    H168462   6.400   1.897  12.390 -1.2244  0.7299 -2.0850
15657TIP3    H268463   6.401   2.012  12.488  0.5541 -1.3807  0.5398
15658TIP3   OH268464   5.424   0.085   2.325  0.5504 -0.1585  0.3749
15658TIP3    H168465   5.393   0.171   2.350  0.2314 -0.2064  0.1562
15658TIP3    H268466   5.358   0.024   2.359  0.9137 -0.3363  0.7683
15659TIP3   OH268467   1.047   3.396  10.480 -0.1759  0.1119 -0.2431
15659TIP3    H168468   1.064   3.322  10.421 -1.7105  1.3839 -2.4774
15659TIP3    H268469   0.978   3.445  10.435  1.2203  3.2535  0.7955
15660TIP3   OH268470   3.902   5.627  16.239  1.1138 -0.2392  0.0555
15660TIP3    H168471   3.990   5.645  16.273  0.5191  1.8314  0.6216
15660TIP3    H268472   3.848   5.619  16.318  0.5157  0.1168 -0.3187
15661TIP3   OH268473   2.636   2.879   0.775 -0.4857  0.5602 -0.0313
15661TIP3    H168474   2.665   2.951   0.831  1.8033 -0.1101 -0.2565
15661TIP3    H268475   2.709   2.863   0.715 -1.8710 -0.4141 -1.5541
15662TIP3   OH268476   2.378   1.247   5.955  0.1577 -0.0557 -0.2281
15662TIP3    H168477   2.337   1.211   5.877  0.1996 -1.7127  0.4684
15662TIP3    H268478   2.353   1.339   5.955 -1.5567 -0.4778 -1.0994
15663TIP3   OH268479   6.182   5.106  14.082  0.1603  0.5376 -0.4365
15663TIP3    H168480   6.245   5.070  14.019 -0.3357 -2.4585  0.6251
15663TIP3    H268481   6.233   5.165  14.137  1.0357  1.5744 -2.2741
15664TIP3   OH268482   3.232   6.542  15.979 -0.2158 -0.6531 -0.0576
15664TIP3    H168483   3.218   6.580  15.892  2.0935 -2.0648 -1.1341
15664TIP3    H268484   3.324   6.517  15.980  0.3961  0.9987  3.5168
15665TIP3   OH268485   5.247   5.640   3.901  0.0427  0.2642  0.4964
15665TIP3    H168486   5.259   5.550   3.931  0.4886  0.1560  0.0130
15665TIP3    H268487   5.219   5.688   3.978  0.3435 -0.1829  0.8853
15666TIP3   OH268488   2.469   2.202   5.527 -0.7506  0.4076  0.2016
15666TIP3    H168489   2.477   2.109   5.505 -1.1391  0.7198 -1.3340
15666TIP3    H268490   2.477   2.204   5.623 -0.9462 -1.2217  0.2826
15667TIP3   OH268491   2.476   5.184   1.620 -0.0839  0.0212 -0.1015
15667TIP3    H168492   2.550   5.160   1.676 -1.2528 -0.9331  1.1188
15667TIP3    H268493   2.466   5.278   1.632 -0.1293 -0.1207  1.1054
15668TIP3   OH268494   1.414   5.844   2.942  0.0338 -0.7681 -0.7422
15668TIP3    H168495   1.389   5.766   2.892 -0.9906  0.2270 -1.8145
15668TIP3    H268496   1.439   5.809   3.028 -0.5371 -2.2650 -1.1422
15669TIP3   OH268497   6.338   1.903   0.650 -0.1386 -0.3556 -0.1806
15669TIP3    H168498   6.329   1.820   0.604  1.0606 -0.4409 -0.2925
15669TIP3    H268499   6.288   1.891   0.730 -0.4152 -0.9985 -0.4401
15670TIP3   OH268500   5.322   6.210   1.723 -0.7246  0.3927  0.0150
15670TIP3    H168501   5.327   6.132   1.778  0.1053  0.4369  0.0279
15670TIP3    H268502   5.230   6.219   1.701 -0.7242 -1.1137 -0.7357
15671TIP3   OH268503   2.603   6.046  12.080  0.1093  0.1067  0.1732
15671TIP3    H168504   2.566   6.122  12.125  0.6703 -0.4674  1.6680
15671TIP3    H268505   2.612   6.074  11.989 -1.9853  0.9684  0.1801
15672TIP3   OH268506   6.060   0.265   5.912  0.4138  0.3352  0.0481
15672TIP3    H168507   6.103   0.321   5.847  2.4424 -0.6288  0.4550
15672TIP3    H268508   5.988   0.317   5.946  1.5042  2.2509 -0.4352
15673TIP3   OH268509   0.783   0.413  17.059 -0.3605  0.3412  0.2572
15673TIP3    H168510   0.806   0.353  16.988  0.7152 -1.2655  1.8857
15673TIP3    H268511   0.715   0.367  17.108  0.7077  0.2762  1.7266
15674TIP3   OH268512   3.659   6.634  13.400  0.5323  0.1700  0.5731
15674TIP3    H168513   3.642   6.719  13.360  0.7570 -0.3353 -0.6219
15674TIP3    H268514   3.572   6.601  13.423  0.5321  2.1067  4.1698
15675TIP3   OH268515   4.971   5.012  16.508  0.2957 -0.5509  0.0034
15675TIP3    H168516   5.034   4.957  16.462  0.1496 -0.1477 -0.6848
15675TIP3    H268517   4.913   5.045  16.440  0.6286  0.7932  0.3418
15676TIP3   OH268518   3.824   4.281   1.107  0.0261 -0.3135 -0.7226
15676TIP3    H168519   3.892   4.234   1.156 -0.7800  0.6850  1.4670
15676TIP3    H268520   3.755   4.216   1.094  0.7518 -0.9280 -1.7047
15677TIP3   OH268521   1.261   5.324   1.992  0.2555  0.5351 -0.2500
15677TIP3    H168522   1.219   5.238   1.995  0.5658  0.2041 -2.8234
15677TIP3    H268523   1.194   5.381   1.954  1.5851  0.2458 -3.3126
15678TIP3   OH268524   2.412   1.564   3.944  0.1699 -0.0479 -0.1300
15678TIP3    H168525   2.447   1.577   3.856  0.1738 -0.1206 -0.1387
15678TIP3    H268526   2.489   1.541   3.997  0.3442  1.0270  0.1071
15679TIP3   OH268527   3.793   3.917   1.154  0.5016 -0.0452 -0.2356
15679TIP3    H168528   3.840   3.997   1.178 -0.0284  0.5414 -1.0927
15679TIP3    H268529   3.782   3.870   1.237  2.6254 -0.2452  0.0020
15680TIP3   OH268530   3.676   2.139  15.302  0.3162  0.7949 -0.1384
15680TIP3    H168531   3.586   2.165  15.280 -0.4716 -0.3046  1.5435
15680TIP3    H268532   3.674   2.043  15.300  1.1712  0.7363  0.8836
15681TIP3   OH268533   2.252   3.634   5.563 -0.1355 -0.0387  0.2168
15681TIP3    H168534   2.345   3.610   5.560 -0.1660 -0.4069  1.5858
15681TIP3    H268535   2.243   3.685   5.644 -1.0598  0.2983 -0.0884
15682TIP3   OH268536   0.812   0.751  14.867  0.1250 -0.0497 -0.3197
15682TIP3    H168537   0.900   0.738  14.903  0.1479  1.0248  0.0320
15682TIP3    H268538   0.757   0.771  14.942 -0.6517 -1.6827 -0.4055
15683TIP3   OH268539   2.284   6.369  15.359 -0.0657 -0.2472 -0.4301
15683TIP3    H168540   2.269   6.310  15.285  1.3188  1.0232 -1.8118
15683TIP3    H268541   2.233   6.448  15.337  0.8702  0.3900 -0.3804
15684TIP3   OH268542   3.679   5.342  16.294  0.2890  0.0825 -0.2060
15684TIP3    H168543   3.627   5.266  16.320  0.8784 -0.4555 -0.5605
15684TIP3    H268544   3.701   5.326  16.202  0.0454  0.9060 -0.4129
15685TIP3   OH268545   2.986   6.178   6.372 -0.3404 -0.4568 -0.1511
15685TIP3    H168546   2.901   6.204   6.407  0.4351 -1.5207  2.7700
15685TIP3    H268547   3.001   6.091   6.408  1.7355 -0.5364 -1.1020
15686TIP3   OH268548   2.780   4.550   5.300  0.7883  0.2737  0.2442
15686TIP3    H168549   2.808   4.525   5.212  0.7995  0.3355  0.2305
15686TIP3    H268550   2.840   4.620   5.325  0.7713  0.2707  0.2929
15687TIP3   OH268551   6.373   1.809   4.622  0.5001 -0.1464  0.1310
15687TIP3    H168552   6.364   1.778   4.712  0.7836  2.0098  0.9482
15687TIP3    H268553   6.463   1.787   4.598  0.1664 -1.5056  0.0226
15688TIP3   OH268554   5.079   2.369  12.527  0.3576  0.2372 -0.2150
15688TIP3    H168555   5.083   2.374  12.432  0.8017  1.8389 -0.1367
15688TIP3    H268556   5.170   2.356  12.554  0.1356 -1.1163 -0.0126
15689TIP3   OH268557   5.163   6.510  11.258 -0.3285  0.1044 -0.0207
15689TIP3    H168558   5.228   6.515  11.187 -1.5998  0.8376 -1.1638
15689TIP3    H268559   5.191   6.434  11.310 -0.2461 -1.4489 -2.2109
15690TIP3   OH268560   4.939   0.483  12.541 -0.3674 -0.0210  0.5745
15690TIP3    H168561   4.857   0.521  12.511  0.1067  1.8164  1.4663
15690TIP3    H268562   5.005   0.550  12.524  0.7237 -0.9118  1.1355
15691TIP3   OH268563   3.018   1.360   0.831  0.6454  0.0432 -0.0255
15691TIP3    H168564   3.018   1.440   0.884 -0.8354 -0.9977  1.6591
15691TIP3    H268565   3.058   1.294   0.887 -3.5110 -1.7978  1.1761
15692TIP3   OH268566   5.383   2.635  11.286 -0.4867 -0.4139 -0.2444
15692TIP3    H168567   5.311   2.685  11.325 -0.6181 -1.2285  0.5986
15692TIP3    H268568   5.458   2.654  11.341 -0.7211 -1.7433  0.5929
15693TIP3   OH268569   2.472   0.866  12.691  0.2279 -0.8721 -0.2338
15693TIP3    H168570   2.424   0.936  12.736 -0.4193 -2.0137  0.8945
15693TIP3    H268571   2.506   0.908  12.612  0.2276  0.8379  0.6215
15694TIP3   OH268572   4.387   2.223   0.667  0.2421  0.3363  0.4810
15694TIP3    H168573   4.463   2.170   0.643 -0.0078 -0.9305  2.2733
15694TIP3    H268574   4.408   2.311   0.637  1.6469 -0.3287 -0.6064
15695TIP3   OH268575   4.942   5.194  12.561 -0.9182 -0.3140 -0.0688
15695TIP3    H168576   4.931   5.288  12.546 -4.0565 -0.5096  0.4586
15695TIP3    H268577   5.022   5.172  12.513  0.2163  2.6788  0.2300
15696TIP3   OH268578   2.089   5.069   5.115  0.6276  0.1281  0.4060
15696TIP3    H168579   2.067   5.034   5.201  2.1053 -0.0695  0.7430
15696TIP3    H268580   2.125   4.994   5.067  0.4038  0.3759 -0.1531
15697TIP3   OH268581   2.666   1.938   4.238  0.1224 -0.3274  0.3512
15697TIP3    H168582   2.710   1.865   4.281 -1.2237 -2.7468 -2.0999
15697TIP3    H268583   2.679   1.923   4.144 -1.5765  1.6832 -0.2946
15698TIP3   OH268584   6.581   2.012  14.556  0.1898  0.5308 -0.0089
15698TIP3    H168585   6.643   2.030  14.627 -1.3276  2.4381  0.9149
15698TIP3    H268586   6.633   2.023  14.476  1.1499  1.6924  0.7421
15699TIP3   OH268587   3.182   6.002   4.451 -0.1452  0.0333 -0.1030
15699TIP3    H168588   3.172   6.036   4.539 -2.4694 -1.8492  0.4673
15699TIP3    H268589   3.276   6.004   4.435  0.2528  1.3302  2.0023
15700TIP3   OH268590   3.211   2.598   0.248  0.3968  0.1538  0.5196
15700TIP3    H168591   3.252   2.557   0.325  0.4956 -0.5712  0.0892
15700TIP3    H268592   3.194   2.525   0.188 -0.9954  0.5058  0.4361
15701TIP3   OH268593   4.823   6.528  13.665  0.2641  0.0223 -0.1593
15701TIP3    H168594   4.799   6.435  13.658 -0.3953  0.1459  0.3546
15701TIP3    H268595   4.912   6.532  13.630  1.2633 -1.2332  1.9949
15702TIP3   OH268596   0.348   1.619  10.231  0.2743  0.2187  0.1008
15702TIP3    H168597   0.264   1.657  10.205  0.8795  1.5733  0.0368
15702TIP3    H268598   0.412   1.661  10.174  1.0619 -0.4225  0.4910
15703TIP3   OH268599   5.546   1.033   2.643 -0.3003 -0.3113  0.0833
15703TIP3    H168600   5.531   0.945   2.676  1.8088 -1.2357 -1.2155
15703TIP3    H268601   5.621   1.065   2.692  0.0353  0.0741 -0.6713
15704TIP3   OH268602   0.907   0.292   0.988 -0.6404 -0.7072  0.2435
15704TIP3    H168603   0.921   0.265   1.079 -0.5192 -1.9940 -0.1471
15704TIP3    H268604   0.941   0.220   0.936 -0.2910  0.2126 -0.8468
15705TIP3   OH268605   1.772   0.748   0.318  0.2715 -0.0869 -0.3815
15705TIP3    H168606   1.709   0.812   0.352 -0.4039 -0.7750 -0.3106
15705TIP3    H268607   1.749   0.740   0.225 -0.1805 -0.8286 -0.2114
15706TIP3   OH268608   2.665   0.858  13.790 -0.6424 -0.1764 -0.4135
15706TIP3    H168609   2.728   0.875  13.860 -1.5841  2.0300 -0.0187
15706TIP3    H268610   2.697   0.778  13.748  1.7849  0.2460  0.4473
15707TIP3   OH268611   2.480   4.525  11.962  0.0023  0.4342 -0.2682
15707TIP3    H168612   2.519   4.605  11.998  0.6992  0.3726 -0.8748
15707TIP3    H268613   2.416   4.556  11.897 -1.3187  0.5496  1.0259
15708TIP3   OH268614   1.580   2.963  11.665 -0.3422  0.1837 -0.3832
15708TIP3    H168615   1.670   2.990  11.647 -1.0564  1.5424 -2.2213
15708TIP3    H268616   1.541   3.038  11.711 -0.7377 -0.1162 -0.2227
15709TIP3   OH268617   1.509   1.741  15.352  0.0316 -0.4657  0.2121
15709TIP3    H168618   1.563   1.779  15.283  0.3896  0.8790  1.1896
15709TIP3    H268619   1.553   1.660  15.375  0.5973 -0.3044 -0.2789
15710TIP3   OH268620   5.304   6.443  14.513 -0.6902  0.0192  0.0413
15710TIP3    H168621   5.325   6.536  14.526 -1.2348  0.3372 -1.2651
15710TIP3    H268622   5.210   6.442  14.496 -1.1781 -1.0409  2.3753
15711TIP3   OH268623   5.558   1.350  11.296 -0.1519 -0.2686  0.6907
15711TIP3    H168624   5.463   1.361  11.293 -0.0526  0.5040 -1.6715
15711TIP3    H268625   5.588   1.426  11.347 -0.6778  0.7449 -0.4646
15712TIP3   OH268626   0.228   1.530  11.699 -0.2103 -0.1120 -0.1743
15712TIP3    H168627   0.275   1.469  11.643  0.9204  0.1405  0.4721
15712TIP3    H268628   0.137   1.500  11.696  0.4537 -2.4841  0.9317
15713TIP3   OH268629   4.275   0.198   6.073 -0.6889 -0.0024 -0.2929
15713TIP3    H168630   4.246   0.113   6.106 -0.1756  0.4267  1.3337
15713TIP3    H268631   4.199   0.235   6.029 -1.0489 -1.0920 -0.6130
15714TIP3   OH268632   6.444   4.231  13.480  0.1868  0.0661 -0.4691
15714TIP3    H168633   6.384   4.199  13.413 -1.6034 -0.5727  1.3281
15714TIP3    H268634   6.401   4.309  13.515  0.7016 -0.0448  0.4388
15715TIP3   OH268635   6.819   6.613  12.940  0.1092 -0.0742  0.3326
15715TIP3    H168636   6.805   6.649  12.852 -2.0274 -1.6173 -0.0334
15715TIP3    H268637   6.798   6.685  12.999 -0.6582  0.3329 -0.4175
15716TIP3   OH268638   3.903   6.365   0.415  0.5024  0.2116 -0.0070
15716TIP3    H168639   3.850   6.421   0.471  0.9320  0.9808 -0.3463
15716TIP3    H268640   3.903   6.280   0.458  1.2554  0.9137  1.4513
15717TIP3   OH268641   0.341   3.352   0.485  0.1763  0.0172  0.0853
15717TIP3    H168642   0.377   3.301   0.412  0.2906  0.8483 -0.4512
15717TIP3    H268643   0.398   3.331   0.559  0.9561  0.2955 -0.4281
15718TIP3   OH268644   3.857   3.221   2.414 -0.3234 -0.6949  0.2770
15718TIP3    H168645   3.939   3.258   2.381 -0.2306 -0.7611  0.4316
15718TIP3    H268646   3.842   3.267   2.497 -1.1259  0.2557 -0.3758
15719TIP3   OH268647   3.775   0.026   5.188  0.5751 -0.2535 -0.0728
15719TIP3    H168648   3.718   0.056   5.258  0.6378  0.7679 -0.4381
15719TIP3    H268649   3.795  -0.065   5.210 -1.7378 -0.8701 -0.3032
15720TIP3   OH268650   0.385   5.429   0.735 -0.6135 -0.4038 -0.6833
15720TIP3    H168651   0.338   5.492   0.680  0.9820 -0.6058 -2.3944
15720TIP3    H268652   0.341   5.345   0.719 -1.0225 -0.2225 -0.5351
15721TIP3   OH268653   0.154   3.922  10.962  0.2196 -0.1810 -0.6515
15721TIP3    H168654   0.235   3.967  10.985 -0.0411  0.5840 -1.1709
15721TIP3    H268655   0.172   3.879  10.878  0.6422 -1.5458  0.1113
15722TIP3   OH268656   3.791   6.254  14.389 -0.1212 -0.0419  0.1163
15722TIP3    H168657   3.860   6.197  14.354  2.0916  2.4103  0.1450
15722TIP3    H268658   3.762   6.306  14.314  0.3994  1.1166  0.6776
15723TIP3   OH268659   2.398   2.922   5.729 -0.2278  0.0327  0.0510
15723TIP3    H168660   2.455   2.911   5.805 -1.2317  0.5883  0.8976
15723TIP3    H268661   2.384   2.833   5.696 -0.2951 -0.2643  0.8812
15724TIP3   OH268662   2.610   4.558   0.356 -0.3599 -0.7139 -0.1743
15724TIP3    H168663   2.569   4.471   0.353 -0.9329 -0.4580  0.0709
15724TIP3    H268664   2.662   4.563   0.276 -1.2009 -0.8643 -0.7419
15725TIP3   OH268665   6.752   2.917   2.893  0.3554 -0.1479 -0.2935
15725TIP3    H168666   6.788   2.921   2.805 -1.4177 -0.0783 -1.0593
15725TIP3    H268667   6.701   2.998   2.902 -0.9770 -0.9963  0.0794
15726TIP3   OH268668   3.302   3.429  11.257  0.1235  0.0588 -0.4252
15726TIP3    H168669   3.363   3.414  11.185  2.2410  2.7093  0.6467
15726TIP3    H268670   3.297   3.345  11.303 -0.4360 -1.3800 -2.9756
15727TIP3   OH268671   1.663   0.393   6.680 -0.3650  0.4487  0.1497
15727TIP3    H168672   1.644   0.423   6.591 -0.7054 -0.7720 -0.2144
15727TIP3    H268673   1.673   0.473   6.731  0.0159  1.1717 -1.0225
15728TIP3   OH268674   3.615   5.029  11.759  0.4818 -0.3900  0.6716
15728TIP3    H168675   3.667   4.958  11.797  0.7445  0.2534  1.5709
15728TIP3    H268676   3.675   5.104  11.757  0.4800 -0.4006 -1.0840
15729TIP3   OH268677   4.082   2.053  12.261  0.3729 -0.3849 -0.0478
15729TIP3    H168678   4.063   2.112  12.334  1.0918  0.1993 -0.3246
15729TIP3    H268679   4.002   2.001  12.251 -0.0451  0.1162  0.5953
15730TIP3   OH268680   6.335   6.394   1.635  0.5046  0.2520  0.4908
15730TIP3    H168681   6.254   6.439   1.609  0.2847  1.0981  2.4810
15730TIP3    H268682   6.403   6.460   1.625  0.8892 -0.2793 -0.5925
15731TIP3   OH268683   0.439   0.800   2.434  0.9379 -0.1353 -0.4224
15731TIP3    H168684   0.485   0.724   2.398 -0.9365 -0.6417 -1.9344
15731TIP3    H268685   0.420   0.855   2.357  1.0706  1.2193  0.4742
15732TIP3   OH268686   3.644   0.433   4.723 -0.9718 -0.3322  0.3550
15732TIP3    H168687   3.630   0.526   4.705 -0.2685 -0.4946 -1.1901
15732TIP3    H268688   3.672   0.431   4.815 -2.4985  0.8099  0.8834
15733TIP3   OH268689   6.678   1.038  11.559 -0.1741 -0.3203  0.2663
15733TIP3    H168690   6.713   1.049  11.470 -0.0957  1.2731  0.4663
15733TIP3    H268691   6.713   0.954  11.588 -1.8053 -1.8745 -1.9308
15734TIP3   OH268692   1.167   4.515   5.998 -0.0882  0.2517  0.4618
15734TIP3    H168693   1.182   4.594   5.946  0.1127  0.9881  1.5862
15734TIP3    H268694   1.157   4.445   5.934  1.6031  0.8648 -0.5369
15735TIP3   OH268695   5.273   3.474   0.425 -0.0008  0.2934  0.2145
15735TIP3    H168696   5.310   3.388   0.407  0.9397  0.8522 -0.6067
15735TIP3    H268697   5.180   3.457   0.445  0.2296 -0.9168  0.3218
15736TIP3   OH268698   5.364   4.211  12.050 -0.4058  0.0088 -0.4807
15736TIP3    H168699   5.335   4.174  11.967 -0.4319 -1.9155  0.3298
15736TIP3    H268700   5.283   4.242  12.092 -0.5731 -0.3115 -0.5663
15737TIP3   OH268701   1.328   1.445  12.420 -0.3621 -0.3927 -0.5985
15737TIP3    H168702   1.272   1.521  12.433 -1.8885 -1.5296 -0.2250
15737TIP3    H268703   1.360   1.424  12.508  0.9188  0.4167 -0.8478
15738TIP3   OH268704   3.114   6.090  11.643  0.7572  0.1150 -0.2330
15738TIP3    H168705   3.177   6.073  11.713 -0.3723 -1.2525  0.5090
15738TIP3    H268706   3.105   6.006  11.598 -1.7530 -0.1948  0.7319
15739TIP3   OH268707   4.090   3.142  11.567  0.0193  0.1418 -0.0381
15739TIP3    H168708   4.098   3.141  11.472 -1.2745 -1.7669 -0.1992
15739TIP3    H268709   4.058   3.054  11.589 -0.3267  0.7376  2.0945
15740TIP3   OH268710   4.015   3.404   0.724 -0.8327 -0.3287 -0.1184
15740TIP3    H168711   4.015   3.457   0.804 -0.1297  0.9043 -0.9017
15740TIP3    H268712   4.010   3.314   0.755  0.0914  0.0895  1.3535
15741TIP3   OH268713   5.848   3.939  12.601 -0.3454 -0.1793 -0.2738
15741TIP3    H168714   5.831   3.859  12.551  1.3335 -0.8257  0.1167
15741TIP3    H268715   5.921   3.980  12.556 -0.2117  0.3488  0.4121
15742TIP3   OH268716   4.329   3.562   6.086 -0.0897 -0.3270  0.4531
15742TIP3    H168717   4.372   3.586   6.168 -0.2540 -1.2147  0.8068
15742TIP3    H268718   4.389   3.500   6.044 -0.3764 -0.4951  0.2884
15743TIP3   OH268719   2.731   3.163   3.876 -0.3484 -0.0920 -0.6096
15743TIP3    H168720   2.825   3.180   3.888 -0.5922  0.9783 -0.0627
15743TIP3    H268721   2.689   3.246   3.899 -1.4460 -0.6105 -0.6922
15744TIP3   OH268722   1.020   1.384   1.186  0.3253  0.3311  0.4952
15744TIP3    H168723   1.105   1.353   1.155  0.0193  1.5203 -1.7200
15744TIP3    H268724   1.012   1.472   1.150 -1.7066  0.3770  0.9379
15745TIP3   OH268725   6.782   4.474  15.823  0.1447 -0.9838 -0.3565
15745TIP3    H168726   6.869   4.443  15.796  0.3355 -1.4380  0.7441
15745TIP3    H268727   6.781   4.462  15.918 -0.2065  1.3788 -0.0240
15746TIP3   OH268728   0.574   4.105   1.822  0.2381  0.3480 -0.5306
15746TIP3    H168729   0.536   4.021   1.796 -0.6088  0.6352 -0.2149
15746TIP3    H268730   0.609   4.090   1.910 -2.4194  1.0684  0.7279
15747TIP3   OH268731   6.307   3.343   1.263  0.0052 -0.5602  0.1564
15747TIP3    H168732   6.347   3.258   1.279  0.7536 -0.5592 -1.5251
15747TIP3    H268733   6.297   3.382   1.350  2.5267 -1.0874  0.7562
15748TIP3   OH268734   6.524   6.491   3.238 -1.0122 -0.4143 -0.2927
15748TIP3    H168735   6.478   6.416   3.200 -1.0794 -1.4256  1.6142
15748TIP3    H268736   6.609   6.456   3.264 -0.3080  0.6776 -1.0851
15749TIP3   OH268737   1.611   5.128   3.317  0.4553 -0.2866  0.2013
15749TIP3    H168738   1.672   5.132   3.391  0.2328 -0.6411  0.4078
15749TIP3    H268739   1.623   5.040   3.281 -1.7834 -1.3812  1.8632
15750TIP3   OH268740   5.148   1.742  16.003 -0.9650 -0.5803 -0.1986
15750TIP3    H168741   5.090   1.667  16.014 -0.8531 -0.8494 -1.3323
15750TIP3    H268742   5.130   1.797  16.079 -2.8310 -0.5801 -0.5783
15751TIP3   OH268743   1.035   1.407   3.182 -0.8417  0.6809 -0.5020
15751TIP3    H168744   0.994   1.451   3.108 -1.9078 -1.1848 -1.0769
15751TIP3    H268745   1.103   1.352   3.143  0.4846  1.7460  0.2085
15752TIP3   OH268746   4.716   1.754   2.592 -0.2547  0.3810  0.4470
15752TIP3    H168747   4.751   1.797   2.514  0.1805  0.3803  0.6348
15752TIP3    H268748   4.790   1.754   2.653 -0.2184 -0.7250  0.4151
15753TIP3   OH268749   5.162   5.003  15.208  0.0215  0.1573 -1.0250
15753TIP3    H168750   5.197   5.064  15.142  2.9196  2.0770  1.9397
15753TIP3    H268751   5.105   5.057  15.263  2.1663  0.2264  1.3054
15754TIP3   OH268752   2.144   1.653  16.513  0.3905 -0.6414 -0.5966
15754TIP3    H168753   2.229   1.684  16.545  0.3760 -1.2187  0.0085
15754TIP3    H268754   2.080   1.700  16.566  0.3614 -1.3242 -0.0136
15755TIP3   OH268755   6.695   0.766  14.008 -0.1782  0.5547 -0.0640
15755TIP3    H168756   6.634   0.812  13.951 -2.0411 -0.7472  0.7497
15755TIP3    H268757   6.656   0.679  14.018  2.2011 -0.5861 -0.0382
15756TIP3   OH268758   2.705   3.644   5.956  0.0688 -0.0196  0.1665
15756TIP3    H168759   2.615   3.613   5.970 -0.2675  0.8810  0.1030
15756TIP3    H268760   2.716   3.642   5.861  0.5227 -1.1898  0.2263
15757TIP3   OH268761   2.349   4.141  14.686 -0.0659  0.0086 -0.0560
15757TIP3    H168762   2.259   4.138  14.656 -1.0389  4.5270  1.6754
15757TIP3    H268763   2.393   4.204  14.629  0.8879  0.7663  1.4267
15758TIP3   OH268764   6.223   4.298  13.755  0.0255  0.5558 -0.1594
15758TIP3    H168765   6.215   4.306  13.850 -0.2831  1.7557 -0.2605
15758TIP3    H268766   6.292   4.234  13.741 -0.7663 -0.5649  0.8640
15759TIP3   OH268767   4.748   0.525   4.013  0.5110  0.2536  0.0607
15759TIP3    H168768   4.844   0.528   4.015  0.4838  1.7706 -0.0176
15759TIP3    H268769   4.721   0.616   4.023 -0.9357 -0.1809  0.2735
15760TIP3   OH268770   4.013   0.293   6.002 -0.0732 -0.7041 -0.7236
15760TIP3    H168771   3.968   0.316   5.921  0.2751 -1.9081 -1.2721
15760TIP3    H268772   3.989   0.202   6.019  0.3317 -0.6518  0.2103
15761TIP3   OH268773   5.939   5.678   1.988 -0.2385  0.0867 -0.3091
15761TIP3    H168774   5.967   5.768   1.970  0.6346 -0.0557  0.2525
15761TIP3    H268775   5.930   5.675   2.083 -0.6947 -0.3043 -0.3624
15762TIP3   OH268776   4.769   0.050   5.860 -0.0723  0.2249  0.5601
15762TIP3    H168777   4.825  -0.003   5.917  1.4847 -0.6602 -1.6607
15762TIP3    H268778   4.680   0.020   5.878  0.7210 -3.1811 -0.5060
15763TIP3   OH268779   5.546   3.750   5.391  0.4342  0.2626  0.4835
15763TIP3    H168780   5.507   3.703   5.465  0.7494  0.8327  1.0268
15763TIP3    H268781   5.638   3.759   5.415  0.2736  1.6677  0.6803
15764TIP3   OH268782   2.992   4.917  12.078 -0.3857  0.8373  0.1081
15764TIP3    H168783   2.978   4.912  12.172  0.2130  0.8933  0.2039
15764TIP3    H268784   3.078   4.959  12.068  0.8185 -1.5629 -0.3885
15765TIP3   OH268785   0.386   4.782  12.503  0.3979  0.0670  0.2423
15765TIP3    H168786   0.330   4.822  12.437  1.3053 -0.1252 -0.6798
15765TIP3    H268787   0.338   4.705  12.532 -0.4059  0.6476  0.4631
15766TIP3   OH268788   6.051   2.481  10.337 -0.3175  0.2810 -0.0143
15766TIP3    H168789   6.000   2.561  10.325 -3.2265 -1.3397  0.5596
15766TIP3    H268790   6.050   2.467  10.432  0.8642 -0.0394 -0.0367
15767TIP3   OH268791   6.828   1.941   4.271 -0.2275 -0.1020 -0.5817
15767TIP3    H168792   6.842   1.884   4.195 -0.7050  0.1289 -0.8466
15767TIP3    H268793   6.916   1.969   4.297  0.0267 -1.0883 -0.3454
15768TIP3   OH268794   0.999   3.205  16.197  0.7460 -0.5350 -0.1211
15768TIP3    H168795   1.012   3.290  16.154  0.2187  0.8340  2.2440
15768TIP3    H268796   1.086   3.183  16.232  0.5781 -0.1529  0.5767
15769TIP3   OH268797   6.054   4.032  16.619  0.0981 -0.5720  0.0243
15769TIP3    H168798   6.017   3.995  16.699 -0.3102  0.0798  0.1530
15769TIP3    H268799   5.980   4.079  16.579  0.3922 -0.5898 -0.5453
15770TIP3   OH268800   4.845   2.658  12.268  0.6686 -0.0785 -0.7630
15770TIP3    H168801   4.861   2.718  12.195  0.6391  1.0842  0.1557
15770TIP3    H268802   4.900   2.691  12.339 -0.1372 -0.5136  0.0930
15771TIP3   OH268803   4.586   2.516  10.476 -0.4399 -0.7083 -0.3932
15771TIP3    H168804   4.629   2.592  10.517 -0.6703 -0.7523 -0.0707
15771TIP3    H268805   4.502   2.549  10.446  0.0100 -0.4938 -1.4829
15772TIP3   OH268806   4.407   1.997  12.465  0.1945 -0.4434  0.2727
15772TIP3    H168807   4.318   2.020  12.491 -0.0422 -0.1804 -0.6958
15772TIP3    H268808   4.463   2.035  12.533 -0.2680  1.9060 -0.5428
15773TIP3   OH268809   3.734   3.373  11.944  0.0996  0.2290 -0.0805
15773TIP3    H168810   3.660   3.327  11.904  0.6180 -1.8977  1.2429
15773TIP3    H268811   3.786   3.304  11.985  1.2344  1.9666  1.5716
15774TIP3   OH268812   0.251   1.772   4.652  0.5288  0.1230  0.2544
15774TIP3    H168813   0.275   1.758   4.561  0.6271 -1.0179  0.4368
15774TIP3    H268814   0.156   1.769   4.653  0.5109 -2.7930  0.5421
15775TIP3   OH268815   6.626   4.366   5.880 -0.3493 -0.4110  0.7815
15775TIP3    H168816   6.601   4.275   5.861 -1.0882 -0.4000  1.6460
15775TIP3    H268817   6.628   4.371   5.975  0.5624  0.2573  0.7428
15776TIP3   OH268818   2.246   2.754  11.361  0.8115  0.2332 -0.1645
15776TIP3    H168819   2.229   2.680  11.303 -0.7697 -0.1760  0.7706
15776TIP3    H268820   2.295   2.816  11.306  1.6070 -1.1915 -1.1589
15777TIP3   OH268821   0.968   3.569   5.534 -0.2651  0.6044  0.2302
15777TIP3    H168822   0.934   3.553   5.622 -0.7523  0.9746  0.1136
15777TIP3    H268823   0.890   3.581   5.480  0.0446  1.4230 -0.0517
15778TIP3   OH268824   1.189   1.595   0.262  0.2621 -0.0728  0.3492
15778TIP3    H168825   1.164   1.665   0.321 -0.3517  0.1897 -0.2027
15778TIP3    H268826   1.232   1.639   0.188  1.4209 -0.4338  0.7899
15779TIP3   OH268827   3.328   4.130   3.921 -0.3405  0.3996 -0.1561
15779TIP3    H168828   3.243   4.142   3.879 -0.4973 -1.1558 -0.3163
15779TIP3    H268829   3.351   4.218   3.954 -0.5378  1.5377 -2.7985
15780TIP3   OH268830   4.433   1.246  13.147 -0.3405 -0.5441 -0.1120
15780TIP3    H168831   4.366   1.193  13.191 -1.7154  2.1001  1.2423
15780TIP3    H268832   4.387   1.285  13.072  0.1399  0.0621 -0.0973
15781TIP3   OH268833   4.975   4.279   3.122  0.4524  0.4566 -0.0713
15781TIP3    H168834   4.898   4.265   3.176  1.4450 -1.0176  1.0555
15781TIP3    H268835   4.986   4.196   3.075  2.4749 -0.1439  1.3431
15782TIP3   OH268836   6.000   3.664  15.208  0.1405 -0.2694  0.1011
15782TIP3    H168837   6.086   3.628  15.186  0.4542  0.7263 -0.3581
15782TIP3    H268838   5.939   3.592  15.195  0.7518 -0.6264 -0.8160
15783TIP3   OH268839   4.728   6.579   5.309 -0.2378 -0.5757 -0.4355
15783TIP3    H168840   4.721   6.484   5.307  0.4701 -0.6492  0.3433
15783TIP3    H268841   4.703   6.604   5.398  0.7572 -0.1402 -0.2642
15784TIP3   OH268842   2.297   5.861   0.630 -0.1361  0.2226 -0.3992
15784TIP3    H168843   2.348   5.852   0.710 -0.4053 -1.5023 -0.3783
15784TIP3    H268844   2.229   5.795   0.637 -0.9646  0.9216 -1.4745
15785TIP3   OH268845   0.763   0.672  14.037 -0.3408 -0.7527 -0.2404
15785TIP3    H168846   0.759   0.707  14.126 -1.2297  1.4466 -1.0612
15785TIP3    H268847   0.778   0.578  14.048 -1.2393 -0.6777  2.2404
15786TIP3   OH268848   6.385   1.391   4.033 -0.8329 -0.0223  0.2974
15786TIP3    H168849   6.295   1.386   4.000 -1.1247 -0.8168  1.1757
15786TIP3    H268850   6.406   1.484   4.033 -1.5832  0.1480 -0.1202
15787TIP3   OH268851   5.745   0.651  11.928 -0.3554  0.2549 -0.0689
15787TIP3    H168852   5.650   0.643  11.914  0.0140 -0.4111 -2.9825
15787TIP3    H268853   5.771   0.726  11.875  0.8239  0.1179  0.2777
15788TIP3   OH268854   0.612   2.500  14.173 -0.5728  0.0422  0.0234
15788TIP3    H168855   0.562   2.473  14.095  0.7151  0.5720 -1.0219
15788TIP3    H268856   0.698   2.525  14.139 -0.1536  0.8128  1.5691
15789TIP3   OH268857   6.562   5.235   1.281  0.2316 -0.1890 -0.1988
15789TIP3    H168858   6.483   5.204   1.237 -0.5804  1.5616 -0.0703
15789TIP3    H268859   6.532   5.311   1.332  2.1348  0.9891 -0.7386
15790TIP3   OH268860   4.414   5.037  17.127  0.0896  0.0062 -0.5428
15790TIP3    H168861   4.385   4.991  17.206  1.8244  1.8404  1.2625
15790TIP3    H268862   4.359   5.115  17.124  0.7306  0.4606 -0.5529
15791TIP3   OH268863   2.708   2.895  13.890  0.1418 -0.3127  0.3577
15791TIP3    H168864   2.737   2.921  13.977  0.5963 -2.4699  0.9233
15791TIP3    H268865   2.786   2.860  13.848 -0.5229 -1.3198 -0.0741
15792TIP3   OH268866   2.728   3.688   2.925 -0.2296  0.0084 -0.0654
15792TIP3    H168867   2.809   3.638   2.921  0.2310  0.7407 -0.1266
15792TIP3    H268868   2.702   3.687   3.017 -0.6887 -1.0547 -0.1983
15793TIP3   OH268869   0.440   2.173   0.521 -0.2722 -0.5653  0.3767
15793TIP3    H168870   0.478   2.255   0.490 -0.2154 -1.1101 -1.0884
15793TIP3    H268871   0.346   2.184   0.510 -0.3486 -0.2666  1.3011
15794TIP3   OH268872   6.069   4.038   0.496 -0.1515  0.3934  0.6014
15794TIP3    H168873   6.045   4.049   0.404 -1.3980 -2.0189  0.5409
15794TIP3    H268874   6.037   4.117   0.539  0.0015  1.3352 -0.9618
15795TIP3   OH268875   2.719   1.476   3.013  0.2618  0.3123  0.0765
15795TIP3    H168876   2.708   1.567   2.985  1.5893  0.5465  0.2916
15795TIP3    H268877   2.705   1.425   2.933  1.2266  0.8167 -0.4304
15796TIP3   OH268878   4.628   6.696   6.158  0.4523 -0.1245 -0.2279
15796TIP3    H168879   4.690   6.710   6.230 -1.4774  0.5757  1.3629
15796TIP3    H268880   4.631   6.602   6.143  0.5935 -0.3393  1.0415
15797TIP3   OH268881   3.938   5.943   6.670  0.1621  0.5713 -0.3962
15797TIP3    H168882   4.006   5.876   6.666  1.5446  1.9719 -1.3955
15797TIP3    H268883   3.972   6.009   6.731 -1.4059  0.1805  0.9897
15798TIP3   OH268884   1.560   0.634  15.947  0.5096  0.2261  0.7744
15798TIP3    H168885   1.653   0.625  15.927  0.1405 -0.9944 -0.5781
15798TIP3    H268886   1.556   0.638  16.043  1.9939  1.0459  0.8199
15799TIP3   OH268887   6.313   3.980   5.642  0.7208 -0.3162 -0.2475
15799TIP3    H168888   6.362   3.908   5.602  1.8967  0.3625 -0.0882
15799TIP3    H268889   6.225   3.946   5.653  1.6011 -2.3614  1.3629
15800TIP3   OH268890   0.871   3.652   0.711 -0.0273 -0.3158 -0.2674
15800TIP3    H168891   0.821   3.701   0.776 -0.8630  1.3817 -2.1104
15800TIP3    H268892   0.952   3.702   0.699  0.8833 -1.5074  0.6004
15801TIP3   OH268893   4.079   1.034  14.238 -0.1595  0.6793  0.1496
15801TIP3    H168894   4.046   0.963  14.294 -1.9436  1.9734  0.8362
15801TIP3    H268895   4.117   0.989  14.163  1.7902 -1.1156  2.0355
15802TIP3   OH268896   5.863   2.247  12.218 -0.4635 -0.2683 -0.0893
15802TIP3    H168897   5.878   2.216  12.307  0.2505 -1.5272 -0.6117
15802TIP3    H268898   5.789   2.308  12.225 -0.3880 -0.3181  1.3528
15803TIP3   OH268899   5.766   4.649   5.819 -0.6860 -0.0923  0.2968
15803TIP3    H168900   5.827   4.634   5.747 -0.9576 -0.8936  0.2225
15803TIP3    H268901   5.766   4.566   5.867 -0.8957  0.2691  0.9232
15804TIP3   OH268902   2.408   0.492   1.797  0.2181  0.5490 -0.0316
15804TIP3    H168903   2.399   0.556   1.726  0.9466  1.0326  0.2972
15804TIP3    H268904   2.410   0.545   1.877 -0.9657 -0.0115  0.4000
15805TIP3   OH268905   5.761   3.763   0.894  0.1463 -0.0951  0.2920
15805TIP3    H168906   5.820   3.708   0.843 -0.0771  0.5711 -0.7188
15805TIP3    H268907   5.708   3.808   0.828  0.5507  1.5733  1.0746
15806TIP3   OH268908   0.346   1.121  10.331 -0.3198 -0.0248  0.1296
15806TIP3    H168909   0.356   1.215  10.312  1.0276 -0.5587 -2.2744
15806TIP3    H268910   0.423   1.099  10.383 -0.1367  0.0331 -0.1131
15807TIP3   OH268911   3.626   5.323  13.639 -0.0187  0.2210 -0.5084
15807TIP3    H168912   3.620   5.392  13.706 -0.7503 -0.1656 -0.1608
15807TIP3    H268913   3.643   5.370  13.558 -0.1618  0.7869 -0.2169
15808TIP3   OH268914   3.671   0.392   1.855  0.0635  0.3772 -0.4301
15808TIP3    H168915   3.664   0.470   1.800  0.3540  1.0752  0.5013
15808TIP3    H268916   3.605   0.404   1.923 -0.9595 -0.9406 -1.1362
15809TIP3   OH268917   5.875   2.534   2.536 -0.5397 -0.8934 -0.8037
15809TIP3    H168918   5.867   2.630   2.535  2.3727 -0.5438 -3.1726
15809TIP3    H268919   5.919   2.515   2.619  0.2880 -0.0040 -1.0203
15810TIP3   OH268920   2.170   2.920   3.589  0.0824  0.7477  0.0266
15810TIP3    H168921   2.077   2.941   3.605  0.2082  1.7155 -0.4423
15810TIP3    H268922   2.169   2.865   3.511 -0.0045  2.0510 -0.9236
15811TIP3   OH268923   6.236   5.745   4.681  0.0542 -0.3175 -0.2562
15811TIP3    H168924   6.322   5.754   4.640 -0.0963  1.3831 -0.2479
15811TIP3    H268925   6.213   5.833   4.709 -0.6705 -1.1200  1.8669
15812TIP3   OH268926   3.225   6.516  14.912  0.0914 -0.1813  0.1719
15812TIP3    H168927   3.176   6.496  14.991  0.6295  0.6004  0.7242
15812TIP3    H268928   3.160   6.516  14.842 -0.7179  0.9490  0.9003
15813TIP3   OH268929   4.707   4.441   3.837  0.2508  0.0286  0.4864
15813TIP3    H168930   4.681   4.519   3.886 -0.3276 -0.4293  0.9096
15813TIP3    H268931   4.799   4.427   3.861  0.1700  0.2024  0.9030
15814TIP3   OH268932   1.445   0.451  17.198 -0.3266 -0.1944 -0.3462
15814TIP3    H168933   1.541   0.453  17.204 -0.3715  0.0602  0.3714
15814TIP3    H268934   1.420   0.371  17.246 -0.5275  0.2579  0.3094
15815TIP3   OH268935   3.677   4.124   3.214 -0.0021  0.4473  0.1155
15815TIP3    H168936   3.637   4.038   3.201  2.4716 -0.7403 -0.3735
15815TIP3    H268937   3.681   4.161   3.126 -1.4419  1.2979  0.3791
15816TIP3   OH268938   0.948   6.314  13.890  0.4848  0.4277  0.2903
15816TIP3    H168939   0.980   6.404  13.883  1.2839  0.2098  0.8932
15816TIP3    H268940   0.956   6.279  13.801  2.6542  0.1810  0.5107
15817TIP3   OH268941   6.576   2.159   0.083  0.2452 -0.3858 -0.2737
15817TIP3    H168942   6.578   2.107   0.164  0.0983  0.4407  0.2798
15817TIP3    H268943   6.569   2.250   0.114 -0.7302 -0.1194 -1.2343
15818TIP3   OH268944   1.317   0.377   5.510 -0.1032 -0.0900  0.0080
15818TIP3    H168945   1.351   0.399   5.423 -0.6244 -1.1817 -0.4891
15818TIP3    H268946   1.274   0.293   5.498 -1.4660  0.4289  1.0019
15819TIP3   OH268947   3.903   2.777  13.823  0.6613  0.4063  0.3596
15819TIP3    H168948   3.915   2.809  13.913  0.5338  0.1446  0.4709
15819TIP3    H268949   3.909   2.855  13.769  1.7953  0.4273  0.5011
15820TIP3   OH268950   1.822   0.601  12.984  0.3912  0.0583 -0.1973
15820TIP3    H168951   1.847   0.693  12.979  0.8073 -0.0654 -0.4954
15820TIP3    H268952   1.762   0.589  12.911 -1.0066  0.4850  0.8411
15821TIP3   OH268953   2.057   0.350   3.927 -0.2825 -0.7563 -0.0727
15821TIP3    H168954   2.086   0.401   4.003 -1.8718 -1.8627  1.3477
15821TIP3    H268955   2.046   0.415   3.858 -0.6801  0.6025  1.2118
15822TIP3   OH268956   0.371   0.559  11.723 -0.6553  0.1315  0.9151
15822TIP3    H168957   0.322   0.641  11.733 -1.5751 -0.3489  0.4877
15822TIP3    H268958   0.331   0.517  11.647 -1.5961 -1.6633  2.3215
15823TIP3   OH268959   5.631   5.444  15.244  0.1153  0.5901 -0.6799
15823TIP3    H168960   5.663   5.532  15.260  1.5452  0.2635 -1.5501
15823TIP3    H268961   5.676   5.389  15.308 -0.0576  0.3579 -0.7529
15824TIP3   OH268962   0.719   1.612  12.462  0.4508 -0.3636  0.0094
15824TIP3    H168963   0.792   1.660  12.502  2.2182 -2.0111 -1.0690
15824TIP3    H268964   0.747   1.598  12.372 -1.5764 -0.3918 -0.6539
15825TIP3   OH268965   4.385   2.127   3.701  0.1978 -0.2017 -0.1023
15825TIP3    H168966   4.419   2.043   3.669  0.5045  0.5577 -1.8729
15825TIP3    H268967   4.291   2.114   3.706  0.2157 -0.5779 -0.6110
15826TIP3   OH268968   5.909   0.528  15.662  0.5670 -0.1560  0.0826
15826TIP3    H168969   5.829   0.510  15.612  2.6605 -0.2050 -3.5368
15826TIP3    H268970   5.892   0.613  15.704 -0.9867  0.4232 -1.5827
15827TIP3   OH268971   1.846   2.027   5.208 -0.3052  0.1932 -0.3230
15827TIP3    H168972   1.903   2.081   5.152 -1.7429  1.5683 -0.5049
15827TIP3    H268973   1.863   1.938   5.178  0.2282  0.7491 -1.7883
15828TIP3   OH268974   5.909   0.753  13.813  0.2463 -0.4219  0.1224
15828TIP3    H168975   5.864   0.827  13.772 -0.5152 -0.5042  0.7711
15828TIP3    H268976   5.857   0.677  13.786 -0.3662 -0.4577  1.3513
15829TIP3   OH268977   1.691   5.937  13.220 -0.5083 -0.3649 -0.0050
15829TIP3    H168978   1.643   5.934  13.303 -1.2417 -2.1286 -0.4585
15829TIP3    H268979   1.663   5.859  13.173  2.5662 -1.3388 -0.4427
15830TIP3   OH268980   2.931   3.583  16.485  0.0497 -0.0932  0.5717
15830TIP3    H168981   2.999   3.546  16.429 -0.8607 -0.5340 -0.2572
15830TIP3    H268982   2.933   3.677  16.466 -1.6415 -0.4405 -1.8504
15831TIP3   OH268983   2.527   6.668  14.310  0.0334  0.5841  0.0059
15831TIP3    H168984   2.614   6.642  14.279 -0.4368  0.2339 -1.0713
15831TIP3    H268985   2.494   6.591  14.357 -0.1261  0.3349 -0.5150
15832TIP3   OH268986   2.592   3.245  15.219 -0.4973 -0.2808 -0.0992
15832TIP3    H168987   2.653   3.174  15.201 -1.0966 -1.0509  0.8158
15832TIP3    H268988   2.508   3.201  15.233 -0.6008  0.4518  1.9028
15833TIP3   OH268989   1.292   4.097  15.400 -0.0992  0.1370  0.0395
15833TIP3    H168990   1.245   4.099  15.484 -0.9813  1.7400 -0.4516
15833TIP3    H268991   1.327   4.008  15.395  0.4749  0.1491  2.3676
15834TIP3   OH268992   1.101   4.877  12.096 -0.2726 -0.0026 -0.3066
15834TIP3    H168993   1.153   4.954  12.074 -1.0702  0.5937 -0.1706
15834TIP3    H268994   1.031   4.877  12.031 -1.8647  0.9832  1.3143
15835TIP3   OH268995   3.988   3.290   4.195  0.1708  0.2818 -0.0985
15835TIP3    H168996   3.910   3.303   4.248 -0.7184 -0.9778 -1.0431
15835TIP3    H268997   3.974   3.345   4.118  0.2862  0.1796 -0.1929
15836TIP3   OH268998   0.288   6.448  14.578 -0.1626  0.8586  0.1676
15836TIP3    H168999   0.357   6.386  14.555 -0.3825  0.9488 -0.7760
15836TIP3    H269000   0.315   6.484  14.663  0.9702  0.9268 -0.2042
15837TIP3   OH269001   3.429   4.386   5.914  0.2084  1.0506  0.7203
15837TIP3    H169002   3.412   4.413   6.004  0.1264  1.2962  0.6327
15837TIP3    H269003   3.389   4.299   5.907 -0.9350  1.5628  0.5526
15838TIP3   OH269004   1.731   3.105  12.464  0.6676  0.3475 -0.4300
15838TIP3    H169005   1.671   3.051  12.515  2.0557 -0.7716  0.1195
15838TIP3    H269006   1.681   3.183  12.441  0.0036  0.9802  2.7845
15839TIP3   OH269007   3.796   6.521  12.282  0.0670 -0.0774 -0.7783
15839TIP3    H169008   3.707   6.494  12.260  0.5625 -2.1057 -0.4487
15839TIP3    H269009   3.787   6.567  12.366 -0.6640 -0.3256 -0.7097
15840TIP3   OH269010   2.293   6.766  15.228 -0.3082 -0.0058 -0.3496
15840TIP3    H169011   2.330   6.760  15.316 -2.4225 -1.6047  0.5100
15840TIP3    H269012   2.208   6.724  15.235 -1.1662  1.1327 -2.8452
15841TIP3   OH269013   5.870   3.996   5.627 -0.1520 -0.2358 -0.2819
15841TIP3    H169014   5.941   3.935   5.646  1.3795  1.0377 -1.5762
15841TIP3    H269015   5.790   3.948   5.648  1.0703 -1.7946  1.0323
15842TIP3   OH269016   3.689   0.734   2.569  0.1742  0.9931 -0.1040
15842TIP3    H169017   3.747   0.659   2.578  0.5893  1.3571  0.3386
15842TIP3    H269018   3.704   0.766   2.480  1.3543  1.6328  0.2981
15843TIP3   OH269019   4.424   3.888  15.921  0.5996  0.3259 -0.1720
15843TIP3    H169020   4.386   3.956  15.976  0.0840  0.8874 -1.1929
15843TIP3    H269021   4.434   3.812  15.979 -1.7323  0.2618  0.2459
15844TIP3   OH269022   1.175   1.836   4.991 -0.2806 -0.4175 -0.0186
15844TIP3    H169023   1.175   1.838   4.895 -0.7374 -2.1106 -0.0896
15844TIP3    H269024   1.195   1.745   5.013 -0.0579 -0.0259  1.5074
15845TIP3   OH269025   6.690   0.885  12.537  0.4554 -0.4560  0.0590
15845TIP3    H169026   6.655   0.867  12.449  1.3706 -0.9269 -0.2290
15845TIP3    H269027   6.778   0.921  12.521  0.4247 -0.0488  0.7709
15846TIP3   OH269028   2.756   6.363   5.824 -0.2064 -0.0906 -0.0072
15846TIP3    H169029   2.797   6.277   5.813  0.6326  0.1726  0.9253
15846TIP3    H269030   2.788   6.394   5.908 -0.4011  1.2013 -0.3884
15847TIP3   OH269031   3.535   3.410   0.111 -0.2514 -0.5390  0.0286
15847TIP3    H169032   3.602   3.462   0.067  0.6869 -1.4878  0.2861
15847TIP3    H269033   3.533   3.328   0.063 -0.7609 -0.7634  0.4250
15848TIP3   OH269034   5.046   4.590   1.600  0.5555 -0.0163  0.6715
15848TIP3    H169035   5.000   4.550   1.673  0.0539  1.4986  1.2361
15848TIP3    H269036   5.137   4.597   1.630  0.9726 -1.9671  0.0017
15849TIP3   OH269037   1.522   2.223   3.717 -0.1887 -0.3237  0.4938
15849TIP3    H169038   1.457   2.293   3.723  0.0159 -0.0551 -0.2211
15849TIP3    H269039   1.563   2.220   3.803 -0.5827  0.0589  0.6984
15850TIP3   OH269040   0.791   4.311  10.873  0.1213  0.6023  0.1470
15850TIP3    H169041   0.814   4.404  10.866 -1.4507  1.1515  1.5402
15850TIP3    H269042   0.719   4.299  10.811 -2.4192  1.3967  2.6907
15851TIP3   OH269043   2.003   6.790   3.891 -0.0041  0.3716 -0.6723
15851TIP3    H169044   2.011   6.763   3.799 -0.1020  0.3295 -0.6682
15851TIP3    H269045   1.967   6.879   3.887  0.8492  0.7302 -0.7067
15852TIP3   OH269046   6.041   3.865  13.412 -0.3141  0.1479 -0.1683
15852TIP3    H169047   6.059   3.930  13.479 -0.9057 -0.5862  0.7187
15852TIP3    H269048   5.946   3.864  13.403 -0.2466  0.2475 -1.0414
15853TIP3   OH269049   5.187   5.786   3.216  0.3187  0.1468 -0.0457
15853TIP3    H169050   5.200   5.709   3.161 -0.6970 -0.1845  0.1507
15853TIP3    H269051   5.263   5.841   3.199  0.5366 -0.4229 -0.9905
15854TIP3   OH269052   2.178   0.865   3.276 -0.1817  0.4053  0.0533
15854TIP3    H169053   2.150   0.880   3.186 -1.8749  1.5003  0.7201
15854TIP3    H269054   2.182   0.952   3.315  4.5181  0.4441  0.0255
15855TIP3   OH269055   3.798   4.255  12.377  0.4033 -0.2086 -0.6404
15855TIP3    H169056   3.755   4.183  12.424 -0.8052  2.1341  2.1961
15855TIP3    H269057   3.732   4.288  12.316 -0.0286  0.1447  0.0059
15856TIP3   OH269058   0.931   6.721   2.386  0.2305  0.3242  0.0462
15856TIP3    H169059   0.942   6.693   2.477 -0.9653 -1.4729 -0.3145
15856TIP3    H269060   0.971   6.651   2.334 -0.9019  0.3147 -0.8501
15857TIP3   OH269061   3.002   4.457  12.694  0.8330 -0.5541 -0.3632
15857TIP3    H169062   3.005   4.420  12.782  0.3610  0.7410  0.2296
15857TIP3    H269063   3.089   4.496  12.681 -0.0196  1.9607  0.8153
15858TIP3   OH269064   6.535   6.546   0.920 -0.1013 -0.2456 -0.4733
15858TIP3    H169065   6.456   6.562   0.971 -1.3315 -1.6583 -1.8462
15858TIP3    H269066   6.578   6.631   0.915 -0.7161  0.2468  1.5628
15859TIP3   OH269067   6.516   5.450  11.245  0.1978 -0.3277 -0.3604
15859TIP3    H169068   6.548   5.526  11.293 -0.0541  0.1712 -0.9589
15859TIP3    H269069   6.539   5.375  11.300  0.7434  0.1534  0.0818
15860TIP3   OH269070   2.364   2.899  16.544  0.3196  0.2448 -0.1746
15860TIP3    H169071   2.282   2.870  16.585  0.5802 -1.4712 -0.7707
15860TIP3    H269072   2.433   2.862  16.598  0.6739 -0.2912 -0.9697
15861TIP3   OH269073   5.047   2.387   1.962 -0.1717 -0.1275  0.0364
15861TIP3    H169074   5.062   2.481   1.966 -2.1841  0.4449 -2.8166
15861TIP3    H269075   4.980   2.370   2.028  0.3012  0.3842  0.6571
15862TIP3   OH269076   3.719   0.317   4.972  0.1650  0.2514 -0.2768
15862TIP3    H169077   3.760   0.339   5.056 -0.3934 -2.1469  0.7122
15862TIP3    H269078   3.625   0.325   4.989 -0.0241 -1.7037 -0.1315
15863TIP3   OH269079   3.201   5.232   5.843  0.0321  0.5048 -0.1829
15863TIP3    H169080   3.284   5.213   5.885  0.6670 -0.4331 -1.7380
15863TIP3    H269081   3.214   5.316   5.799  0.2704  0.2467 -0.6218
15864TIP3   OH269082   0.460   1.253  13.207 -0.0859 -0.2439  0.2727
15864TIP3    H169083   0.517   1.182  13.237 -0.1105 -0.3547  0.0594
15864TIP3    H269084   0.475   1.258  13.113  0.3972  0.4631  0.3760
15865TIP3   OH269085   5.143   2.515   0.141 -0.7368 -0.0704 -0.4888
15865TIP3    H169086   5.200   2.455   0.190  0.0586  0.7820 -0.3522
15865TIP3    H269087   5.060   2.512   0.188 -0.3197 -0.1000  0.2668
15866TIP3   OH269088   4.865   1.107  10.778  0.1470  0.4087 -0.0064
15866TIP3    H169089   4.916   1.032  10.808 -0.8983  0.6115  2.5394
15866TIP3    H269090   4.775   1.074  10.774  0.1590  0.4703 -2.9531
15867TIP3   OH269091   6.331   1.592   1.119 -0.2393  0.5522  0.1499
15867TIP3    H169092   6.412   1.596   1.068  0.2002  1.0632  0.8767
15867TIP3    H269093   6.291   1.509   1.093  0.9574 -0.1373  0.4331
15868TIP3   OH269094   0.578   4.930   5.187  0.2610  0.1824 -0.3099
15868TIP3    H169095   0.501   4.874   5.180 -0.6380  1.0241  1.8714
15868TIP3    H269096   0.595   4.935   5.281  1.4210  2.0578 -0.5698
15869TIP3   OH269097   0.635   5.136  16.183  0.5861 -0.1058 -0.3206
15869TIP3    H169098   0.626   5.139  16.278 -1.3022  3.0038 -0.4585
15869TIP3    H269099   0.553   5.098  16.152  0.8924 -0.4348 -0.7427
15870TIP3   OH269100   1.649   1.096   0.004  0.8579 -0.1379 -0.3929
15870TIP3    H169101   1.575   1.157  -0.000  1.3734  0.4574 -1.0774
15870TIP3    H269102   1.611   1.015   0.040  0.0320  0.3828 -0.0624
15871TIP3   OH269103   5.647   1.302   0.727 -0.4414  0.5695  0.0302
15871TIP3    H169104   5.681   1.392   0.726  1.3580 -0.0624 -1.9284
15871TIP3    H269105   5.580   1.303   0.795  0.3692  3.0863  0.9094
15872TIP3   OH269106   2.668   5.520   0.920 -0.0138  0.0007 -0.4428
15872TIP3    H169107   2.718   5.447   0.884 -1.2686 -0.5479 -1.1260
15872TIP3    H269108   2.718   5.597   0.896  0.6767 -0.5549 -0.8317
15873TIP3   OH269109   4.834   3.782  12.595  0.0609  0.2592 -0.5015
15873TIP3    H169110   4.742   3.781  12.622  0.6231 -2.5293  1.8853
15873TIP3    H269111   4.846   3.700  12.547  1.5107 -0.0256  0.2693
15874TIP3   OH269112   4.610   6.724  17.013  0.3080 -0.5641 -0.0441
15874TIP3    H169113   4.636   6.639  16.977  0.2635 -0.1640 -1.0634
15874TIP3    H269114   4.579   6.774  16.937  0.3757  0.3803  0.5243
15875TIP3   OH269115   3.894   1.081  17.071  0.1602  0.2368 -0.1437
15875TIP3    H169116   3.810   1.101  17.111  0.1718  1.4947 -0.7038
15875TIP3    H269117   3.874   1.068  16.978  0.8534  3.0183 -0.7740
15876TIP3   OH269118   2.258   4.797  14.059 -0.6158  0.0355  0.2445
15876TIP3    H169119   2.188   4.859  14.077 -2.9219 -2.4005  0.3435
15876TIP3    H269120   2.223   4.741  13.990  1.6019 -0.8168 -0.2859
15877TIP3   OH269121   6.140   4.298   5.061 -0.6557  0.3991  0.5488
15877TIP3    H169122   6.062   4.262   5.018 -1.0876  0.4985  1.2269
15877TIP3    H269123   6.212   4.245   5.028 -0.9332  0.6673 -0.5128
15878TIP3   OH269124   3.558   1.860  14.955  0.2085 -0.2993 -0.0265
15878TIP3    H169125   3.575   1.769  14.931 -3.5500 -1.7423  2.0383
15878TIP3    H269126   3.485   1.886  14.900  0.7420  1.2636 -0.0472
15879TIP3   OH269127   5.848   3.706  12.051 -0.1441 -0.3713  0.3211
15879TIP3    H169128   5.923   3.648  12.062  1.5324  1.7183  0.4559
15879TIP3    H269129   5.778   3.648  12.019  0.9806 -2.6869  1.7617
15880TIP3   OH269130   6.696   6.059   0.306 -0.1696  0.4004  0.4918
15880TIP3    H169131   6.632   6.098   0.247  0.9363  0.8850 -0.4406
15880TIP3    H269132   6.712   6.127   0.372 -0.3720  0.4018  0.5410
15881TIP3   OH269133   2.293   4.166  15.172 -0.5229 -1.0173 -0.1675
15881TIP3    H169134   2.316   4.090  15.119  1.0906 -1.8929  1.6464
15881TIP3    H269135   2.225   4.134  15.232 -1.5503 -0.3419 -0.9397
15882TIP3   OH269136   0.040   2.520   5.817  0.3024  0.0344  0.3309
15882TIP3    H169137  -0.037   2.564   5.781 -0.2795 -1.6154 -0.5415
15882TIP3    H269138   0.096   2.591   5.848 -1.3625  1.2972  0.5787
15883TIP3   OH269139   4.278   6.462   6.622 -0.1294 -0.0802 -0.0460
15883TIP3    H169140   4.194   6.417   6.635 -0.0481  0.0810  1.0934
15883TIP3    H269141   4.344   6.397   6.644  0.0333  0.0064 -0.2755
15884TIP3   OH269142   3.775   2.544   3.310 -0.2943  0.5213 -0.3900
15884TIP3    H169143   3.809   2.537   3.400  2.0044  1.1190 -1.1409
15884TIP3    H269144   3.684   2.571   3.321 -0.2955 -0.1812  1.7765
15885TIP3   OH269145   6.705   2.626   2.865 -0.3512 -0.3759  0.1296
15885TIP3    H169146   6.673   2.713   2.886  0.1259 -0.2047  0.1684
15885TIP3    H269147   6.739   2.592   2.948 -1.4498 -1.0008  0.3391
15886TIP3   OH269148   4.805   0.206  13.757 -0.3063 -0.3222  0.0859
15886TIP3    H169149   4.880   0.262  13.778 -0.2051  0.0051 -1.0870
15886TIP3    H269150   4.837   0.146  13.690 -1.4136  0.6759 -1.4085
15887TIP3   OH269151   0.936   0.686  12.183  0.2051 -0.9009 -0.0434
15887TIP3    H169152   0.932   0.595  12.156  1.3130 -0.9244 -0.1534
15887TIP3    H269153   0.956   0.683  12.277 -0.6427 -0.7764  0.1495
15888TIP3   OH269154   0.454   1.781  11.770 -0.0256 -0.1908  0.2989
15888TIP3    H169155   0.392   1.745  11.707  0.7724 -0.9356 -0.0848
15888TIP3    H269156   0.495   1.704  11.809 -0.1684  0.2712  1.3871
15889TIP3   OH269157   5.012   5.342   4.024  0.5319 -0.4686 -0.2065
15889TIP3    H169158   4.970   5.427   4.011 -0.8960 -1.2927 -1.3102
15889TIP3    H269159   5.103   5.363   4.043  0.3228  1.3041 -0.9607
15890TIP3   OH269160   1.731   1.827   2.940 -0.5262  0.4958  0.1199
15890TIP3    H169161   1.689   1.809   3.024 -3.1744  0.3189 -1.1344
15890TIP3    H269162   1.715   1.920   2.925  0.6865  0.7216  0.1894
15891TIP3   OH269163   1.597   0.338   0.549 -0.4177  0.3296  0.2512
15891TIP3    H169164   1.542   0.363   0.623 -0.7090 -0.6117  0.3621
15891TIP3    H269165   1.679   0.385   0.563 -0.9161  1.1574  0.4822
15892TIP3   OH269166   5.433   2.078  15.286 -0.1561 -0.0350  0.3761
15892TIP3    H169167   5.340   2.091  15.304  0.0279 -0.2951  1.6196
15892TIP3    H269168   5.474   2.080  15.372  1.1276  1.0979 -0.2322
15893TIP3   OH269169   0.712   3.933  15.708  0.8053 -0.2099 -0.3116
15893TIP3    H169170   0.663   3.882  15.772  0.0712  0.8598  0.0205
15893TIP3    H269171   0.667   3.918  15.625 -0.4726  1.1754  0.0816
15894TIP3   OH269172   0.434   5.925  12.030  0.0899  0.0183  0.0020
15894TIP3    H169173   0.416   5.855  12.094  1.6444  0.1964  0.6806
15894TIP3    H269174   0.523   5.953  12.050  0.6377  0.0772 -2.2856
15895TIP3   OH269175   1.672   6.608   1.355 -0.0938 -0.2165 -0.2200
15895TIP3    H169176   1.723   6.604   1.274  0.3120 -2.5548  0.0751
15895TIP3    H269177   1.738   6.606   1.425 -0.5074 -0.3616  0.1710
15896TIP3   OH269178   1.976   2.222   5.065  0.2377  0.2804 -0.0432
15896TIP3    H169179   2.020   2.238   4.982  2.1619 -0.3966  0.7721
15896TIP3    H269180   2.013   2.288   5.124  0.7389 -0.7616  0.8459
15897TIP3   OH269181   6.724   3.862  12.705 -0.7602  0.0868 -0.1859
15897TIP3    H169182   6.782   3.841  12.779  0.3917 -0.2296 -1.1489
15897TIP3    H269183   6.658   3.920  12.742 -0.3775 -0.3022  1.1621
15898TIP3   OH269184   0.120   2.784  14.440  0.2068 -0.2190 -0.5803
15898TIP3    H169185   0.045   2.826  14.400  0.3680 -0.4260 -1.1136
15898TIP3    H269186   0.150   2.721  14.374 -0.1035 -1.2586  0.2416
15899TIP3   OH269187   6.085   4.221   0.957 -0.2804  0.3458 -0.2437
15899TIP3    H169188   6.172   4.217   0.917  1.8055 -2.4102  3.8890
15899TIP3    H269189   6.045   4.137   0.937 -0.2982  0.0054  1.1405
15900TIP3   OH269190   3.381   2.325   3.104 -0.8822 -0.5558  0.0086
15900TIP3    H169191   3.388   2.259   3.035 -0.0696  2.1454 -2.7403
15900TIP3    H269192   3.429   2.288   3.178  3.4664 -1.4093 -2.8689
15901TIP3   OH269193   4.929   5.256   0.784 -0.1678  0.1419 -0.0794
15901TIP3    H169194   4.862   5.277   0.849  1.5140  0.8752  1.5258
15901TIP3    H269195   4.933   5.333   0.727  1.7436  1.7429  2.0553
15902TIP3   OH269196   4.908   5.945   2.495 -0.1266 -0.4123  0.1484
15902TIP3    H169197   4.835   5.996   2.530  0.6170 -0.5527  2.0085
15902TIP3    H269198   4.913   5.868   2.550  3.1184  0.8942  1.9884
15903TIP3   OH269199   3.724   3.779  14.250 -0.2724 -0.2326 -0.1383
15903TIP3    H169200   3.777   3.705  14.281 -0.6996 -0.2065  0.6505
15903TIP3    H269201   3.634   3.747  14.255 -0.3240 -0.8857 -3.0171
15904TIP3   OH269202   4.485   0.995  16.435 -0.4841  0.2160  0.1402
15904TIP3    H169203   4.456   0.931  16.370  1.6261 -0.4093 -0.2716
15904TIP3    H269204   4.506   0.942  16.512  2.5871  0.0770 -0.6288
15905TIP3   OH269205   0.924   2.044  16.664  0.3627  0.2470  0.5501
15905TIP3    H169206   0.999   2.089  16.703  1.2314 -1.0407  0.4017
15905TIP3    H269207   0.925   1.956  16.701  0.6809 -0.7320 -1.5973
15906TIP3   OH269208   6.638   5.846  16.399  0.5630  0.7297 -0.2388
15906TIP3    H169209   6.697   5.843  16.474 -0.4118  0.5599  0.5521
15906TIP3    H269210   6.694   5.868  16.325  1.6839  0.1281  0.4012
15907TIP3   OH269211   6.766   3.043   2.644  0.2555  0.0349  0.0889
15907TIP3    H169212   6.683   3.088   2.628 -0.8913 -2.0798 -0.2429
15907TIP3    H269213   6.782   2.993   2.563  0.4451 -1.6408  1.1159
15908TIP3   OH269214   6.454   2.827  13.115 -0.0319  0.1522  0.3100
15908TIP3    H169215   6.489   2.740  13.137 -0.0293  0.4142  1.4340
15908TIP3    H269216   6.473   2.880  13.193  0.0229  1.1842 -0.3849
15909TIP3   OH269217   5.726   1.029  11.580  0.3914 -0.0965  0.2379
15909TIP3    H169218   5.796   1.028  11.514  0.4498 -0.0686  0.2997
15909TIP3    H269219   5.645   1.030  11.528  0.4276 -0.8447  0.1672
15910TIP3   OH269220   4.599   5.498  16.336 -0.5992 -0.0462 -0.1986
15910TIP3    H169221   4.686   5.475  16.366 -0.5974 -0.1416 -0.2764
15910TIP3    H269222   4.585   5.446  16.257 -1.0078 -0.5689  0.2091
15911TIP3   OH269223   3.654   5.592   1.641 -0.3965 -0.2093 -0.5315
15911TIP3    H169224   3.654   5.516   1.583 -1.4553 -0.0717 -0.7251
15911TIP3    H269225   3.649   5.667   1.581  2.0664  0.1309 -0.4387
15912TIP3   OH269226   5.834   5.584   3.375  0.4056  0.8429  0.5065
15912TIP3    H169227   5.898   5.605   3.306  0.0265 -1.7074 -0.7355
15912TIP3    H269228   5.764   5.649   3.363  1.3437  1.7895 -0.0620
15913TIP3   OH269229   6.372   1.633  12.064  0.0166 -0.1658  0.1584
15913TIP3    H169230   6.457   1.674  12.048 -0.3136  0.0661 -1.1181
15913TIP3    H269231   6.335   1.622  11.976 -2.1603  1.6482  0.7652
15914TIP3   OH269232   4.135   3.241   2.354  0.2739  0.2679  0.4300
15914TIP3    H169233   4.160   3.238   2.447  1.1830  3.4890  0.4407
15914TIP3    H269234   4.151   3.153   2.322 -0.0255 -0.9562  3.2987
15915TIP3   OH269235   2.927   3.294  15.021 -0.1010 -0.1480  0.4211
15915TIP3    H169236   3.010   3.248  15.031  1.6516  2.9722  1.7539
15915TIP3    H269237   2.862   3.225  15.007  2.6571 -2.7319 -0.6611
15916TIP3   OH269238   5.806   5.686   1.716  0.1653  0.0623 -0.0922
15916TIP3    H169239   5.852   5.680   1.799 -2.1516  0.8900  1.3652
15916TIP3    H269240   5.864   5.736   1.659  1.6857 -0.2829  1.0899
15917TIP3   OH269241   6.224   5.868   5.028  0.1764  0.0639  0.3550
15917TIP3    H169242   6.307   5.821   5.023  0.5039  0.5946  0.7351
15917TIP3    H269243   6.157   5.799   5.019  0.6460 -0.4413  0.6420
15918TIP3   OH269244   6.689   3.471   0.498 -0.0413 -0.6796 -0.1275
15918TIP3    H169245   6.726   3.538   0.554  1.4266 -1.6801  0.1515
15918TIP3    H269246   6.612   3.439   0.546 -1.1801  1.2306 -0.5914
15919TIP3   OH269247   2.952   6.493  13.765 -0.3007  0.0976  0.1852
15919TIP3    H169248   2.983   6.517  13.853 -0.2647  1.7832 -0.2524
15919TIP3    H269249   2.866   6.454  13.779 -0.4070  0.5917  0.9522
15920TIP3   OH269250   3.918   6.754  16.691 -0.0323  0.0085  0.0259
15920TIP3    H169251   3.859   6.679  16.702  1.1631 -0.7214  1.8681
15920TIP3    H269252   4.006   6.716  16.693  0.5979  1.0636 -2.7739
15921TIP3   OH269253   6.178   0.437  16.862  0.4313  0.1231  0.1130
15921TIP3    H169254   6.116   0.482  16.919  1.5869  0.3334  1.2700
15921TIP3    H269255   6.154   0.464  16.773 -0.2871  1.2429  0.6263
15922TIP3   OH269256   4.490   4.893  12.801 -0.8082  0.9291  0.2474
15922TIP3    H169257   4.484   4.968  12.859  0.1805  0.6230  0.7771
15922TIP3    H269258   4.541   4.828  12.850  0.8485  0.9919 -1.2796
15923TIP3   OH269259   2.371   2.813   2.196  0.3294  0.1558 -0.5501
15923TIP3    H169260   2.338   2.725   2.181  0.6078  0.2730 -2.1015
15923TIP3    H269261   2.352   2.832   2.288  0.5408 -1.6221 -0.1172
15924TIP3   OH269262   6.332   1.432  10.603  0.1909 -0.3789 -0.8252
15924TIP3    H169263   6.280   1.442  10.683  0.6224  0.4283 -0.6333
15924TIP3    H269264   6.324   1.516  10.559 -0.1651 -0.8710 -1.7202
15925TIP3   OH269265   4.138   5.504  16.775 -0.1503 -0.0819 -0.2933
15925TIP3    H169266   4.043   5.501  16.787  0.1457 -0.3607  2.6046
15925TIP3    H269267   4.163   5.591  16.807  0.6466 -0.3215 -0.2513
15926TIP3   OH269268   4.535   1.789   4.537  0.7324 -0.0327 -0.7080
15926TIP3    H169269   4.476   1.791   4.613  0.5143 -0.3426 -0.8668
15926TIP3    H269270   4.610   1.842   4.564  0.2204  0.6820 -0.6349
15927TIP3   OH269271   0.438   1.777  15.895 -0.1127  0.2413 -0.7451
15927TIP3    H169272   0.370   1.841  15.874 -0.1316 -0.4071 -2.8606
15927TIP3    H269273   0.514   1.830  15.920 -0.7918  1.0104 -0.2522
15928TIP3   OH269274   0.365   4.980   1.775 -0.3491 -0.1248 -0.0444
15928TIP3    H169275   0.280   5.008   1.741 -0.3049  1.8355  1.3003
15928TIP3    H269276   0.428   5.040   1.735 -0.0235  0.6247  1.5280
15929TIP3   OH269277   4.914   6.176   3.503  0.2198 -0.3192 -0.5738
15929TIP3    H169278   4.843   6.164   3.567 -0.1356 -0.4008 -0.9742
15929TIP3    H269279   4.990   6.134   3.543  0.8189  2.1853  1.1303
15930TIP3   OH269280   0.147   5.337   1.014  0.1539 -0.4640 -0.9449
15930TIP3    H169281   0.063   5.345   1.061  1.0184 -0.2865  0.6396
15930TIP3    H269282   0.210   5.378   1.072  1.4684 -1.2566 -1.7747
15931TIP3   OH269283   2.252   4.685   4.147  0.1730 -0.0911  0.3471
15931TIP3    H169284   2.271   4.720   4.059 -1.2830 -1.5072 -0.5715
15931TIP3    H269285   2.266   4.591   4.139 -0.7242 -0.3313  1.4224
15932TIP3   OH269286   1.341   6.748   1.605  0.2200 -0.2105 -0.2954
15932TIP3    H169287   1.404   6.810   1.568  1.2477 -0.2459  1.3026
15932TIP3    H269288   1.376   6.662   1.579  0.0378 -0.1940 -0.6031
15933TIP3   OH269289   4.599   5.167   3.845 -0.3174 -0.1797 -0.0679
15933TIP3    H169290   4.591   5.256   3.811 -1.0641 -0.5013 -0.7732
15933TIP3    H269291   4.650   5.176   3.925 -0.9870  0.9736  0.2483
15934TIP3   OH269292   0.284   2.497  10.725 -0.3375 -0.1691  0.2923
15934TIP3    H169293   0.380   2.501  10.733 -0.1838 -1.8797 -0.2415
15934TIP3    H269294   0.268   2.419  10.673 -1.9899  1.0290 -1.0847
15935TIP3   OH269295   5.252   1.346   0.919 -0.1975 -0.1239  0.4958
15935TIP3    H169296   5.262   1.347   0.824 -2.0180 -0.9201  0.2518
15935TIP3    H269297   5.159   1.366   0.934  0.6384  3.3441  2.2893
15936TIP3   OH269298   0.275   1.020  14.521 -0.3021  0.4661  0.3882
15936TIP3    H169299   0.365   0.989  14.536 -0.4012  1.3386  3.3859
15936TIP3    H269300   0.231   0.945  14.480  1.7694  0.0903 -1.4105
15937TIP3   OH269301   5.196   3.103   5.025 -0.2440  0.4783 -0.2415
15937TIP3    H169302   5.240   3.065   4.949 -0.4911  1.6279 -0.9858
15937TIP3    H269303   5.123   3.044   5.043  0.1058 -0.0667 -0.5915
15938TIP3   OH269304   6.248   5.790   2.975 -0.7296  0.5608  0.0936
15938TIP3    H169305   6.220   5.841   3.051  0.9236  2.1536 -0.2762
15938TIP3    H269306   6.239   5.851   2.901  2.6350  0.9256 -0.1611
15939TIP3   OH269307   4.043   1.527  16.270 -0.4428 -0.4274 -0.7939
15939TIP3    H169308   4.024   1.569  16.353  0.1578 -0.5963 -0.5682
15939TIP3    H269309   3.957   1.502  16.235 -0.8547  1.2979 -1.1133
15940TIP3   OH269310   2.089   3.307  11.519  0.0748  0.5331  0.1691
15940TIP3    H169311   2.085   3.396  11.552 -1.6096  0.3843  0.4763
15940TIP3    H269312   2.066   3.314  11.426 -0.3473  0.3972  0.2604
15941TIP3   OH269313   4.564   3.422   1.276 -0.0720 -0.0528  0.2471
15941TIP3    H169314   4.520   3.430   1.361 -1.3556  1.2473 -0.5080
15941TIP3    H269315   4.649   3.465   1.289  0.6383 -1.7031  1.4334
15942TIP3   OH269316   6.055   1.985  13.613 -0.1860  0.2344 -0.3066
15942TIP3    H169317   6.089   2.045  13.547  0.2674 -0.5832 -0.8322
15942TIP3    H269318   6.107   1.905  13.602  1.1484  0.6545  2.2306
15943TIP3   OH269319   3.595   4.150   5.553 -0.3270 -0.0369 -0.5234
15943TIP3    H169320   3.579   4.077   5.613 -3.0665  0.9889  0.1516
15943TIP3    H269321   3.618   4.108   5.470  0.8403 -1.5581  0.5283
15944TIP3   OH269322   2.667   2.417   5.671 -0.1896 -0.6829 -0.2706
15944TIP3    H169323   2.657   2.351   5.602 -1.2914 -3.0335  1.9870
15944TIP3    H269324   2.761   2.418   5.689 -0.0323 -0.8250 -1.0371
15945TIP3   OH269325   0.285   1.300   5.996  0.0690 -0.1278 -0.1824
15945TIP3    H169326   0.246   1.246   5.928 -2.7369 -1.7559  2.4800
15945TIP3    H269327   0.218   1.366   6.015  2.1295  2.4100 -1.1121
15946TIP3   OH269328   2.218   1.258   2.065 -0.0390  0.3139 -0.5125
15946TIP3    H169329   2.308   1.232   2.087 -0.2696 -0.9597 -0.9686
15946TIP3    H269330   2.189   1.309   2.141  0.4568 -0.8017  0.4675
15947TIP3   OH269331   1.921   4.030  14.343  0.3892  0.5390 -0.5473
15947TIP3    H169332   2.008   4.023  14.304  0.1295 -0.7052 -0.9594
15947TIP3    H269333   1.918   3.959  14.406 -0.7398 -0.2024 -1.3991
15948TIP3   OH269334   1.208   3.037  15.237 -0.0420  0.2534 -0.0079
15948TIP3    H169335   1.293   3.018  15.199  0.4487  0.5056  0.9292
15948TIP3    H269336   1.171   2.951  15.258  0.7407  0.1820  1.1672
15949TIP3   OH269337   2.749   5.241  15.101 -0.2399 -0.8396 -0.0708
15949TIP3    H169338   2.666   5.198  15.081 -0.0046 -1.3087 -0.0661
15949TIP3    H269339   2.730   5.296  15.177 -0.2117 -2.0749  0.8612
15950TIP3   OH269340   2.507   4.803   0.783 -0.2969 -0.0957 -0.2819
15950TIP3    H169341   2.564   4.879   0.767 -0.1391 -0.0552  0.4341
15950TIP3    H269342   2.422   4.829   0.749 -0.0028  0.0204 -0.9457
15951TIP3   OH269343   2.287   3.521  15.207 -0.5577 -0.3706  0.3194
15951TIP3    H169344   2.382   3.523  15.216 -0.7299 -0.8953  3.1049
15951TIP3    H269345   2.269   3.436  15.166  0.2332  0.9859 -3.1503
15952TIP3   OH269346   5.883   1.322  16.482 -0.0120 -0.6956  0.1395
15952TIP3    H169347   5.861   1.371  16.403  1.7236  0.5310  0.3570
15952TIP3    H269348   5.963   1.276  16.460  0.4664 -0.3811  1.1496
15953TIP3   OH269349   5.970   4.607  16.339 -0.7922  0.1014  0.1965
15953TIP3    H169350   6.002   4.661  16.267  0.5723 -0.4407  0.3668
15953TIP3    H269351   5.957   4.521  16.300  0.7961 -0.4247  0.7533
15954TIP3   OH269352   1.651   5.627  12.040 -0.0730 -0.0297  0.3770
15954TIP3    H169353   1.566   5.586  12.027 -1.2159  2.3527 -0.4141
15954TIP3    H269354   1.670   5.617  12.133  0.8450 -4.1492 -0.0804
15955TIP3   OH269355   3.218   4.882  15.165 -0.6482  0.5414 -0.3257
15955TIP3    H169356   3.277   4.957  15.163 -1.2359  1.0930  1.2083
15955TIP3    H269357   3.131   4.919  15.152 -0.8762  0.0213 -0.3380
15956TIP3   OH269358   5.892   6.690  16.670  0.3890 -0.4215 -0.1762
15956TIP3    H169359   5.867   6.734  16.589  0.9611 -1.6708 -1.0781
15956TIP3    H269360   5.895   6.597  16.646 -0.1394 -0.8840  1.4782
15957TIP3   OH269361   4.032   2.282  13.305 -0.0812  0.1735  0.3194
15957TIP3    H169362   4.070   2.282  13.392 -0.9920  1.0701  0.7405
15957TIP3    H269363   4.072   2.356  13.261  0.6809 -0.5213 -0.1749
15958TIP3   OH269364   4.787   4.831  13.084 -0.2747 -0.0692  0.1951
15958TIP3    H169365   4.746   4.752  13.050 -0.7824 -0.1455  0.9436
15958TIP3    H269366   4.800   4.887  13.007  0.3414 -0.9774 -0.3762
15959TIP3   OH269367   0.023   3.174  13.454 -0.3333 -0.3475  0.1884
15959TIP3    H169368  -0.067   3.200  13.475  0.2253 -0.1918  2.7201
15959TIP3    H269369   0.077   3.223  13.516  1.3082 -2.2492  0.3532
15960TIP3   OH269370   3.090   3.777  13.516 -0.4378 -0.2814 -0.5132
15960TIP3    H169371   3.115   3.695  13.473 -0.9157 -0.3436 -0.6690
15960TIP3    H269372   3.160   3.838  13.492 -0.3216 -0.5157 -0.7772
15961TIP3   OH269373   6.492   3.916   4.093 -0.2199 -0.1380  0.1286
15961TIP3    H169374   6.567   3.860   4.115  0.4396  0.8403  0.4435
15961TIP3    H269375   6.487   3.979   4.165 -0.2711  0.8675 -0.7339
15962TIP3   OH269376   0.890   4.299  10.381 -0.3464  0.2849  0.1233
15962TIP3    H169377   0.867   4.387  10.413 -0.5130  0.4388 -0.4134
15962TIP3    H269378   0.820   4.277  10.320 -0.2296 -0.1691  0.1529
15963TIP3   OH269379   3.950   4.371   1.763  0.1740  0.5002  0.1181
15963TIP3    H169380   3.928   4.283   1.795 -1.2133  0.7542 -0.0638
15963TIP3    H269381   3.976   4.358   1.672 -0.7911  0.3561 -0.1446
15964TIP3   OH269382   5.402   3.834   3.238 -0.0838 -0.5651  0.4890
15964TIP3    H169383   5.334   3.896   3.212 -1.0740 -0.5398  2.8299
15964TIP3    H269384   5.483   3.885   3.237 -0.6283  0.3327  0.7935
15965TIP3   OH269385   1.871   3.685  15.980 -0.0019  0.4283  0.0122
15965TIP3    H169386   1.897   3.606  15.934 -2.4779  0.6342 -1.9827
15965TIP3    H269387   1.942   3.748  15.964 -0.6792  0.4637 -3.6309
15966TIP3   OH269388   2.597   1.494  12.116 -0.4474  0.0222 -0.5877
15966TIP3    H169389   2.678   1.481  12.165 -0.1951  1.1745 -0.6793
15966TIP3    H269390   2.528   1.500  12.182 -0.5122 -1.2007 -0.5201
15967TIP3   OH269391   5.857   6.595   3.767 -0.1776  0.2328 -0.2838
15967TIP3    H169392   5.904   6.676   3.786  1.5215 -0.3316 -1.7388
15967TIP3    H269393   5.895   6.531   3.827  0.1101  0.0312 -0.6746
15968TIP3   OH269394   0.281   5.853   5.612 -0.0821 -0.4086  0.3457
15968TIP3    H169395   0.257   5.891   5.696 -0.1026  1.0314 -0.2844
15968TIP3    H269396   0.357   5.903   5.583  0.1790 -1.1584 -0.3206
15969TIP3   OH269397   3.554   3.199  16.837 -0.3638  0.2985 -0.3742
15969TIP3    H169398   3.490   3.212  16.907  1.0679 -2.4218  1.6131
15969TIP3    H269399   3.538   3.110  16.806  0.4136  0.7196 -2.0810
15970TIP3   OH269400   4.762   1.400   5.455 -0.0835 -0.8959 -0.4498
15970TIP3    H169401   4.725   1.315   5.431 -0.1604 -0.5961 -1.4519
15970TIP3    H269402   4.840   1.409   5.401 -0.3409 -0.1321 -0.7170
15971TIP3   OH269403   4.152   1.070  12.045  0.2143  0.4001  0.4955
15971TIP3    H169404   4.189   1.088  11.959  1.6434 -0.7196  0.8447
15971TIP3    H269405   4.173   1.147  12.097  2.1602 -0.2071  0.6912
15972TIP3   OH269406   2.103   5.557  13.608 -0.7106  0.3091 -0.3267
15972TIP3    H169407   2.056   5.499  13.668  0.5578 -0.7417 -0.3103
15972TIP3    H269408   2.036   5.584  13.545 -1.0776 -2.4312 -1.2710
15973TIP3   OH269409   3.701   3.166   0.491  0.4230  0.0005  0.0508
15973TIP3    H169410   3.693   3.250   0.537 -1.0137  0.6762 -1.3189
15973TIP3    H269411   3.765   3.183   0.421  2.4853 -0.9765  1.6068
15974TIP3   OH269412   5.809   4.728  12.802 -0.5585  0.6152 -0.6168
15974TIP3    H169413   5.772   4.702  12.718 -0.3774  0.8893 -0.7848
15974TIP3    H269414   5.881   4.666  12.818  0.1258  1.2334 -1.2027
15975TIP3   OH269415   6.340   2.332   3.854  0.7641  0.0181 -0.6156
15975TIP3    H169416   6.342   2.294   3.942  0.9017  0.1671 -0.5545
15975TIP3    H269417   6.401   2.406   3.859 -1.5843  2.0391  0.0724
15976TIP3   OH269418   6.166   3.644   2.892  0.1783  0.1786 -0.1052
15976TIP3    H169419   6.144   3.700   2.966 -1.2001  1.0407 -1.1272
15976TIP3    H269420   6.100   3.575   2.892 -0.5962  0.8953 -1.2499
15977TIP3   OH269421   0.673   2.316  15.117  0.3250  0.4515 -0.6682
15977TIP3    H169422   0.630   2.398  15.140 -0.6864 -0.3166  0.3035
15977TIP3    H269423   0.601   2.253  15.109  1.2151 -0.7486  0.4364
15978TIP3   OH269424   4.797   1.995  13.212 -0.2156  0.2910  0.2490
15978TIP3    H169425   4.737   1.931  13.173  0.2848 -0.4582  0.6618
15978TIP3    H269426   4.824   1.954  13.294  1.5956  0.1498 -0.3672
15979TIP3   OH269427   0.840   3.001  16.331 -0.3711  0.2356 -0.2497
15979TIP3    H169428   0.785   3.049  16.393 -0.1423 -1.5447  1.4096
15979TIP3    H269429   0.868   3.067  16.268 -0.6493  2.1248  1.5063
15980TIP3   OH269430   2.317   3.357  14.426  0.6386 -0.5552  0.4994
15980TIP3    H169431   2.235   3.317  14.455 -0.3193  1.1245  0.2272
15980TIP3    H269432   2.345   3.303  14.353 -0.7094 -0.6548  0.0221
15981TIP3   OH269433   1.236   3.597   4.234  0.6277  0.0679  0.8963
15981TIP3    H169434   1.313   3.606   4.178 -1.5745 -0.1227 -2.4479
15981TIP3    H269435   1.218   3.503   4.234  0.1482  0.1568  1.2873
15982TIP3   OH269436   4.325   6.519   6.338 -0.1334  0.1070 -0.3457
15982TIP3    H169437   4.338   6.441   6.286 -3.2229  0.0272 -1.2106
15982TIP3    H269438   4.311   6.487   6.427 -0.9375 -0.3156 -0.6172
15983TIP3   OH269439   4.684   4.524   4.447 -0.2976  0.1191  0.6347
15983TIP3    H169440   4.593   4.495   4.450 -1.0460  1.9054 -1.7039
15983TIP3    H269441   4.694   4.580   4.524 -2.2190  2.4238 -0.6594
15984TIP3   OH269442   4.681   1.783   4.823  0.6491  0.0902  0.0631
15984TIP3    H169443   4.626   1.860   4.807 -0.1211 -0.0469  1.8640
15984TIP3    H269444   4.765   1.820   4.852  0.1585  0.2679  1.2941
15985TIP3   OH269445   1.363   5.711  15.954  0.3225  0.2533  0.4333
15985TIP3    H169446   1.416   5.773  16.004  1.3957 -0.9512  0.8546
15985TIP3    H269447   1.396   5.719  15.864  1.2307 -0.4561  0.6843
15986TIP3   OH269448   5.698   4.903  12.994  0.7149  0.2790  0.5042
15986TIP3    H169449   5.619   4.851  13.007  1.4378 -0.7360  0.9957
15986TIP3    H269450   5.759   4.843  12.951  1.8455  0.4495  1.8273
15987TIP3   OH269451   1.076   3.841   3.320 -0.2564  0.4831  0.2548
15987TIP3    H169452   1.081   3.931   3.287 -0.4453  0.8835  1.2592
15987TIP3    H269453   0.987   3.833   3.354 -1.0880 -0.9226 -2.0159
15988TIP3   OH269454   6.767   2.616   3.913  0.0249  0.1323  0.3782
15988TIP3    H169455   6.759   2.703   3.952  0.1772  1.0788 -1.5683
15988TIP3    H269456   6.818   2.566   3.977  2.3242  2.2735  0.3870
15989TIP3   OH269457   3.833   6.810  15.294  0.2242 -0.7327  0.0992
15989TIP3    H169458   3.789   6.770  15.220 -1.9573  1.1347  0.2776
15989TIP3    H269459   3.780   6.786  15.370  1.6400 -1.4639  0.9204
15990TIP3   OH269460   1.974   2.373  14.257  0.4614  0.1975  0.2033
15990TIP3    H169461   1.894   2.361  14.206  1.0268  0.9312 -0.8897
15990TIP3    H269462   2.004   2.461  14.235 -0.5703  1.5755  3.7271
15991TIP3   OH269463   1.119   3.425  16.072 -1.0583  0.0067  0.3998
15991TIP3    H169464   1.206   3.459  16.089 -0.5658 -1.0618  0.1055
15991TIP3    H269465   1.093   3.465  15.989 -0.7525  0.1503  0.3734
15992TIP3   OH269466   6.509   5.074  15.681 -0.5577  0.7709 -0.1804
15992TIP3    H169467   6.594   5.075  15.638 -0.4073 -1.8077 -0.0757
15992TIP3    H269468   6.464   4.997  15.645 -1.7448  0.4852  1.7680
15993TIP3   OH269469   5.416   6.787  15.542 -0.1625  0.2177  0.5753
15993TIP3    H169470   5.445   6.704  15.581  1.5116 -0.0424 -1.0581
15993TIP3    H269471   5.384   6.762  15.455 -1.8444  1.0290  0.9281
15994TIP3   OH269472   0.164   6.564  13.482  0.2010 -0.0436  0.2340
15994TIP3    H169473   0.214   6.639  13.513  1.6996 -0.5368 -0.8632
15994TIP3    H269474   0.108   6.541  13.556  1.0673  0.9954  1.2674
15995TIP3   OH269475   1.763   1.279   2.658 -0.2780 -0.3462  0.2792
15995TIP3    H169476   1.784   1.218   2.729  2.8733 -0.8022 -0.8878
15995TIP3    H269477   1.801   1.239   2.580 -1.8134  1.1482 -1.3388
15996TIP3   OH269478   4.814   0.357  16.941  0.4898  0.3816 -0.1524
15996TIP3    H169479   4.721   0.372  16.958  0.5527  1.7500 -0.8317
15996TIP3    H269480   4.854   0.444  16.953  1.3264  0.2839 -1.9958
15997TIP3   OH269481   4.854   5.756   3.030  0.1144 -0.0412  0.0057
15997TIP3    H169482   4.828   5.801   3.111 -0.5416 -0.9066  0.2947
15997TIP3    H269483   4.934   5.800   3.003  0.3546  0.2601  1.1469
15998TIP3   OH269484   0.018   0.962  15.605 -0.5622 -0.1475  0.7693
15998TIP3    H169485   0.090   1.025  15.611 -0.6149 -0.2408  3.0136
15998TIP3    H269486   0.061   0.877  15.603 -0.5780 -0.1630  1.0655
15999TIP3   OH269487   0.092   1.465  14.534 -1.2095 -0.6809  0.5036
15999TIP3    H169488   0.047   1.431  14.457  1.1988 -0.1276 -1.2939
15999TIP3    H269489   0.151   1.394  14.560  0.2357  0.2092 -0.1812
16000TIP3   OH269490   6.494   1.737   1.571 -0.4331 -0.0089 -0.5700
16000TIP3    H169491   6.442   1.692   1.637  0.1372 -0.7945 -0.6473
16000TIP3    H269492   6.499   1.676   1.498 -2.2741  1.3956 -1.9651
16001TIP3   OH269493   0.166   3.466  16.916 -0.3746 -0.0441 -0.5298
16001TIP3    H169494   0.137   3.420  16.994 -0.4562  0.7522 -0.0772
16001TIP3    H269495   0.260   3.446  16.909 -1.0766 -3.5192 -2.6027
16002TIP3   OH269496   5.486   5.872  15.785  0.4926 -0.0589 -0.7296
16002TIP3    H169497   5.469   5.793  15.837 -1.1755 -0.1485 -1.3414
16002TIP3    H269498   5.405   5.923  15.792  1.1445  1.0795 -1.2479
16003TIP3   OH269499   6.073   0.956   5.203  0.0061  0.0887  0.6770
16003TIP3    H169500   6.102   1.018   5.270  0.5040  0.4773  0.1065
16003TIP3    H269501   6.028   1.009   5.138  1.8258  0.1290 -0.6358
16004TIP3   OH269502   0.423   3.731  11.117  0.3557  0.4407  0.1669
16004TIP3    H169503   0.334   3.701  11.135  1.0711 -0.9088  1.6860
16004TIP3    H269504   0.416   3.827  11.116 -0.6859  0.5028  3.0708
16005TIP3   OH269505   1.172   5.617   2.057  0.1660  0.7487 -0.3064
16005TIP3    H169506   1.152   5.566   2.135 -1.0884  0.8782 -0.5056
16005TIP3    H269507   1.116   5.578   1.989  1.7801  0.1515 -1.3445
16006TIP3   OH269508   2.387   0.390   4.914 -0.0264 -1.0311  0.3420
16006TIP3    H169509   2.482   0.387   4.909 -0.1001 -0.9345 -2.5592
16006TIP3    H269510   2.369   0.458   4.979  1.8192 -1.6073  1.5587
16007TIP3   OH269511   2.013   3.072  16.900  0.4230  0.4068  0.2786
16007TIP3    H169512   2.066   3.151  16.901  0.5431  0.3314  1.1690
16007TIP3    H269513   1.925   3.103  16.925  0.2996  0.3696 -0.1075
16008TIP3   OH269514   1.787   3.240  12.845 -0.0439  0.4190  0.2948
16008TIP3    H169515   1.747   3.299  12.781 -1.6500 -1.1359 -0.2120
16008TIP3    H269516   1.881   3.245  12.827 -0.3211  1.2339 -1.1090
16009TIP3   OH269517   0.924   3.461  12.666  0.6931  0.3208  0.0619
16009TIP3    H169518   0.968   3.425  12.743 -0.8036  0.8264  1.2033
16009TIP3    H269519   0.943   3.555  12.669  0.3838  0.3864 -0.0078
16010TIP3   OH269520   2.596   1.132  14.175  0.1596 -0.2448  0.1360
16010TIP3    H169521   2.517   1.092  14.137  0.1705  1.5959 -2.0531
16010TIP3    H269522   2.668   1.095  14.124  0.2022  2.0031 -1.6115
16011TIP3   OH269523   6.831   2.250  15.351 -1.1006  0.2974  0.0612
16011TIP3    H169524   6.854   2.343  15.361  0.3921  0.0706 -0.8648
16011TIP3    H269525   6.737   2.250  15.333 -1.2662  1.5659  0.8128
16012TIP3   OH269526   5.081   0.132   6.037  0.1669 -0.2635  0.4911
16012TIP3    H169527   5.142   0.169   5.973 -1.1558 -0.3706 -0.8756
16012TIP3    H269528   5.065   0.204   6.099 -0.0620  0.4908 -0.4323
16013TIP3   OH269529   6.732   1.436  16.120 -0.3790 -0.5995 -0.0717
16013TIP3    H169530   6.729   1.390  16.036  0.0995 -0.6272 -0.0740
16013TIP3    H269531   6.749   1.527  16.097  0.0853 -0.6651  0.0167
16014TIP3   OH269532   5.339   1.883  15.818  0.2758  0.4765  0.3210
16014TIP3    H169533   5.286   1.805  15.831 -0.3007  0.7220 -0.4310
16014TIP3    H269534   5.339   1.927  15.903 -0.8295  0.5271  0.3108
16015TIP3   OH269535   0.354   5.493  16.254  0.0165 -0.3977 -0.1591
16015TIP3    H169536   0.310   5.445  16.324  0.1313 -1.0690 -0.5374
16015TIP3    H269537   0.300   5.478  16.177 -0.8217  1.3873  0.0168
16016TIP3   OH269538   0.552   0.380  12.777  0.2906  0.6731  0.6636
16016TIP3    H169539   0.547   0.461  12.828 -0.0149  0.8061  0.4242
16016TIP3    H269540   0.634   0.387  12.728 -0.3247  1.4023 -0.3012
16017TIP3   OH269541   4.825   5.327   4.918  0.0236  0.1262  0.5251
16017TIP3    H169542   4.794   5.368   4.998  1.0711 -0.0456  1.0294
16017TIP3    H269543   4.786   5.239   4.920 -2.3712  1.0641 -0.6470
16018TIP3   OH269544   2.722   3.960   3.093  0.7716  0.0065 -0.2604
16018TIP3    H169545   2.774   3.988   3.168  0.9047 -0.6129 -0.1141
16018TIP3    H269546   2.643   3.922   3.131 -0.2156  1.7258 -0.5016
16019TIP3   OH269547   5.631   3.366   2.469 -0.9165 -0.5342  0.2258
16019TIP3    H169548   5.680   3.424   2.528  0.4670  0.3832 -1.7031
16019TIP3    H269549   5.698   3.323   2.417 -2.0158  1.3875 -3.1000
16020TIP3   OH269550   5.813   3.604  15.555 -0.3965  0.5511 -0.6933
16020TIP3    H169551   5.849   3.662  15.488 -0.2052 -1.1974 -2.1480
16020TIP3    H269552   5.819   3.516  15.518 -0.5365 -0.4564  1.5107
16021TIP3   OH269553   5.950   5.623  15.748 -0.0727  0.1587  0.3988
16021TIP3    H169554   5.944   5.697  15.808 -0.8798  0.1515  0.3300
16021TIP3    H269555   5.987   5.661  15.668  1.2173  0.1233  0.9487
16022TIP3   OH269556   5.653   2.335  15.282 -0.1119 -0.2363  0.0302
16022TIP3    H169557   5.587   2.404  15.278 -0.4848 -0.5807  0.1698
16022TIP3    H269558   5.632   2.287  15.362  0.8547  0.1965  0.5573
16023TIP3   OH269559   3.399   0.139   0.489 -0.1756 -0.3399  0.2920
16023TIP3    H169560   3.308   0.159   0.511 -0.0672  1.7928 -0.9720
16023TIP3    H269561   3.394   0.086   0.410 -0.3065 -0.5847  0.4603
16024TIP3   OH269562   0.483   1.021  14.813 -0.4561  0.1189  0.4779
16024TIP3    H169563   0.389   1.018  14.833 -1.0431  0.1719 -1.9662
16024TIP3    H269564   0.490   0.982  14.726  1.5189  1.9228 -0.2448
16025TIP3   OH269565   4.492   2.262   5.815 -0.5923  0.4122 -0.0610
16025TIP3    H169566   4.433   2.215   5.873 -0.7272  0.1725 -0.3951
16025TIP3    H269567   4.542   2.320   5.874 -1.4463  0.9277  0.1742
16026TIP3   OH269568   1.781   3.120  14.740 -1.3608  0.8229  0.1015
16026TIP3    H169569   1.835   3.042  14.731 -0.5798  0.9113  3.0308
16026TIP3    H269570   1.699   3.098  14.694 -0.6896 -1.1892 -0.2423
16027TIP3   OH269571   2.603   0.903  12.459 -0.2714 -0.4500 -0.2144
16027TIP3    H169572   2.510   0.900  12.435 -0.7220  1.9371  0.9034
16027TIP3    H269573   2.649   0.896  12.376 -1.5750  1.1315 -1.1587
16028TIP3   OH269574   0.517   2.142   5.338  0.1134  0.1998 -0.4934
16028TIP3    H169575   0.533   2.236   5.337 -0.5821  0.3270 -0.1740
16028TIP3    H269576   0.449   2.129   5.272  0.7641 -0.1882 -1.0965
16029TIP3   OH269577   1.046   4.993   2.749  0.2785 -0.1056  0.1060
16029TIP3    H169578   1.086   4.965   2.831 -0.9737  0.8914  1.0940
16029TIP3    H269579   1.020   4.911   2.706 -1.0180 -0.5933  1.7361
16030TIP3   OH269580   2.887   1.464   3.235  0.2746 -0.3206  0.0745
16030TIP3    H169581   2.814   1.474   3.174 -0.2202 -0.7497  0.5965
16030TIP3    H269582   2.963   1.449   3.178 -0.0144  0.2138 -0.4730
16031TIP3   OH269583   4.829   6.646  16.710  0.2498  0.1967 -0.3438
16031TIP3    H169584   4.785   6.562  16.701 -0.4278  0.4667  0.3033
16031TIP3    H269585   4.758   6.709  16.718  0.6933  1.1388 -2.9425
16032TIP3   OH269586   6.493   6.281  15.068 -0.0470  0.0050 -0.0803
16032TIP3    H169587   6.408   6.281  15.112 -0.7967 -0.2007 -1.4468
16032TIP3    H269588   6.520   6.373  15.069 -0.6718  0.2005 -0.2910
16033TIP3   OH269589   1.130   0.995   0.099  0.0754  0.2784  0.3769
16033TIP3    H169590   1.136   1.008   0.194  0.0199 -1.7655  0.7078
16033TIP3    H269591   1.221   0.982   0.071 -0.0264 -0.4855  0.3875
16034TIP3   OH269592   3.347   0.510  15.364 -0.5932 -0.3939  0.4856
16034TIP3    H169593   3.360   0.467  15.280 -0.1049  0.8483 -0.0959
16034TIP3    H269594   3.432   0.547  15.386 -0.9600  0.1434  1.0439
16035TIP3   OH269595   2.656   4.605   0.087  0.7358  0.0359 -0.2800
16035TIP3    H169596   2.601   4.632   0.013  1.5027  0.1683 -0.8157
16035TIP3    H269597   2.741   4.646   0.070  0.8397  0.3249  0.8472
16036TIP3   OH269598   0.391   1.107   3.342  0.0341 -0.0098 -0.2540
16036TIP3    H169599   0.396   1.066   3.428  1.8652 -2.7557 -1.5217
16036TIP3    H269600   0.473   1.155   3.334 -0.2268  0.4148 -0.4048
16037TIP3   OH269601   6.058   6.593   5.347 -0.2986 -0.4528 -0.1634
16037TIP3    H169602   6.116   6.639   5.286 -0.4688 -0.6330 -0.4666
16037TIP3    H269603   6.031   6.659   5.410 -0.4185 -0.1719 -0.5069
16038TIP3   OH269604   5.247   5.611  14.211 -0.3444  0.1929  0.2589
16038TIP3    H169605   5.222   5.567  14.130 -1.1465  0.6098  0.2709
16038TIP3    H269606   5.210   5.699  14.203 -2.1862 -0.3812  1.9363
16039TIP3   OH269607   0.071   0.077   1.053 -0.3277  0.2146  0.0173
16039TIP3    H169608   0.044   0.130   1.128  1.4192  0.1396  0.7600
16039TIP3    H269609   0.143   0.024   1.087 -0.4235 -0.8458 -1.3663
16040TIP3   OH269610   4.293   6.542  10.905 -0.3202  0.3296  0.2939
16040TIP3    H169611   4.283   6.636  10.889  0.5904  0.1176 -1.7785
16040TIP3    H269612   4.317   6.505  10.820 -0.4524 -1.7679  1.1021
16041TIP3   OH269613   3.515   1.872  14.178  0.4172 -0.2846  0.2744
16041TIP3    H169614   3.514   1.967  14.175 -0.6988 -0.2894  0.1528
16041TIP3    H269615   3.578   1.846  14.111  0.2184  0.3583 -0.1654
16042TIP3   OH269616   4.082   2.285  10.908 -0.2933 -0.1372  0.3302
16042TIP3    H169617   4.111   2.222  10.842 -1.2750 -0.1001 -0.1467
16042TIP3    H269618   4.032   2.233  10.971 -2.0342  0.3141 -0.6440
16043TIP3   OH269619   0.758   1.193   6.116 -0.2149  0.2335 -0.4054
16043TIP3    H169620   0.735   1.237   6.198 -0.2948  0.0510 -0.3309
16043TIP3    H269621   0.851   1.215   6.103 -0.1064 -0.0307 -0.0834
16044TIP3   OH269622   1.818   1.124   0.599  0.3546  0.2042 -0.2551
16044TIP3    H169623   1.743   1.137   0.657  1.6368  1.5767  1.1872
16044TIP3    H269624   1.823   1.205   0.548  0.6825 -0.0153 -0.5745
16045TIP3   OH269625   6.105   0.168  16.889 -0.0787  0.6629  0.1981
16045TIP3    H169626   6.170   0.155  16.958 -0.1671 -0.2259  0.1385
16045TIP3    H269627   6.138   0.240  16.836  1.8432 -0.9536 -0.9395
16046TIP3   OH269628   6.282   3.828  11.447  0.1087 -0.1475 -0.1719
16046TIP3    H169629   6.271   3.922  11.434 -2.0107 -0.5683 -2.0482
16046TIP3    H269630   6.355   3.805  11.389 -1.1907 -0.0180 -1.9560
16047TIP3   OH269631   6.763   4.013  15.776  0.9386 -0.0791  0.0328
16047TIP3    H169632   6.708   4.084  15.811  0.2560  0.0369 -1.1947
16047TIP3    H269633   6.798   4.049  15.694 -0.1237 -1.4472 -1.0607
16048TIP3   OH269634   5.463   1.751  11.822 -0.9696  0.1002  0.4130
16048TIP3    H169635   5.545   1.742  11.775 -1.3423  1.9223 -0.6995
16048TIP3    H269636   5.399   1.703  11.770 -0.7988 -0.5012  0.7553
16049TIP3   OH269637   0.799   6.645   5.272  0.1636 -0.1004  0.0527
16049TIP3    H169638   0.827   6.683   5.189  2.3795 -2.0419 -0.1845
16049TIP3    H269639   0.791   6.551   5.255 -1.3470 -0.2952  1.5486
16050TIP3   OH269640   2.159   5.266   2.844  0.0304 -0.0975 -0.3099
16050TIP3    H169641   2.111   5.343   2.813 -0.8421 -0.6509 -0.3591
16050TIP3    H269642   2.093   5.197   2.848  0.4575 -0.4458  1.2918
16051TIP3   OH269643   0.047   6.730   2.538  0.5185 -0.2374  0.0991
16051TIP3    H169644  -0.003   6.649   2.548  0.1599  0.3023  4.4330
16051TIP3    H269645  -0.019   6.800   2.538  1.0156  0.2662  1.6817
16052TIP3   OH269646   1.866   4.884   6.693  0.1486  0.2242 -0.0744
16052TIP3    H169647   1.914   4.840   6.623  0.5357  0.1778  0.2157
16052TIP3    H269648   1.839   4.813   6.752  2.7627  0.5028  1.6356
16053TIP3   OH269649   4.623   4.870  14.798 -0.2829  0.4615 -0.0356
16053TIP3    H169650   4.605   4.791  14.747  0.5091 -1.1010  1.9704
16053TIP3    H269651   4.710   4.899  14.769  0.3034 -0.6053  0.6114
16054TIP3   OH269652   4.702   0.020   0.031 -0.1026 -0.2397  0.1046
16054TIP3    H169653   4.764   0.083  -0.006  0.1806  0.0659  1.0828
16054TIP3    H269654   4.663  -0.022  -0.046  1.3519 -0.4791 -0.5335
16055TIP3   OH269655   0.206   4.801  13.818  0.1831  0.3245 -0.3073
16055TIP3    H169656   0.267   4.874  13.822  1.7089 -0.8516 -1.0664
16055TIP3    H269657   0.175   4.790  13.908  1.8438  0.3671  0.2971
16056TIP3   OH269658   3.303   1.339  17.013  0.3579 -0.3952 -0.7314
16056TIP3    H169659   3.377   1.297  17.057  0.2686  2.1657  2.2177
16056TIP3    H269660   3.231   1.332  17.077 -1.5458 -1.3871 -2.8443
16057TIP3   OH269661   1.980   4.032  10.756 -0.2894 -0.1883 -0.2755
16057TIP3    H169662   2.055   4.089  10.771 -0.2767 -0.1935 -0.3180
16057TIP3    H269663   2.019   3.944  10.748 -0.4722 -0.4663  1.5701
16058TIP3   OH269664   1.320   6.509  15.087 -0.3105  0.2150 -0.0502
16058TIP3    H169665   1.408   6.547  15.083  0.7679 -2.0761  0.2295
16058TIP3    H269666   1.312   6.477  15.176 -1.2985  0.0340 -0.1944
16059TIP3   OH269667   2.182   3.326  16.217  0.4130 -0.3706 -0.1936
16059TIP3    H169668   2.219   3.259  16.159 -1.6224 -1.1428 -0.6857
16059TIP3    H269669   2.167   3.280  16.299  0.4379 -0.0980 -0.0362
16060TIP3   OH269670   1.996   3.532  16.761 -0.0306  0.4638  0.6252
16060TIP3    H169671   1.939   3.559  16.833  0.3200  1.8220  0.4136
16060TIP3    H269672   1.936   3.496  16.696 -0.7170  2.1458  0.2784
16061TIP3   OH269673   1.198   2.316  13.091 -0.0230  0.4255  0.1421
16061TIP3    H169674   1.161   2.236  13.127 -0.0292  0.2547 -0.2423
16061TIP3    H269675   1.227   2.366  13.168 -0.8132  0.4526  0.4350
16062TIP3   OH269676   5.436   0.287  17.022 -0.4238  0.3031 -0.5352
16062TIP3    H169677   5.446   0.192  17.012 -0.7549  0.3828 -1.8069
16062TIP3    H269678   5.455   0.322  16.935  0.3726  1.4722  0.0840
16063TIP3   OH269679   6.419   5.303   4.755  0.1081  0.4012 -0.0206
16063TIP3    H169680   6.418   5.328   4.662  0.2592  0.0722 -0.1117
16063TIP3    H269681   6.467   5.220   4.757 -1.4495 -0.5353  0.1065
16064TIP3   OH269682   1.570   3.679   3.331  0.3855  0.5501  0.1359
16064TIP3    H169683   1.517   3.758   3.318  0.2254  0.3553 -0.4132
16064TIP3    H269684   1.638   3.706   3.392 -1.0715  0.4790  1.9076
16065TIP3   OH269685   6.385   5.966   3.323  0.5061  0.5916  0.3294
16065TIP3    H169686   6.394   5.927   3.236  0.3547 -0.2372  0.6723
16065TIP3    H269687   6.331   5.904   3.371  0.7060  0.9744  1.0608
16066TIP3   OH269688   5.473   0.893  15.338  0.4487  0.1562  0.4223
16066TIP3    H169689   5.409   0.939  15.284  1.3881  0.0458 -0.8352
16066TIP3    H269690   5.425   0.869  15.417 -1.3458 -0.8469 -0.9055
16067TIP3   OH269691   3.832   3.322  15.672 -0.3971 -0.0732  0.1057
16067TIP3    H169692   3.777   3.396  15.695 -1.0124 -0.9369  1.5414
16067TIP3    H269693   3.887   3.308  15.748 -0.2975 -1.0855 -0.1359
16068TIP3   OH269694   2.770   4.024   0.340 -0.4663 -0.1645 -0.1056
16068TIP3    H169695   2.705   4.029   0.409  0.8683 -1.3066  1.2899
16068TIP3    H269696   2.804   4.113   0.332 -1.9529  0.3847 -0.6703
16069TIP3   OH269697   3.581   0.879  13.543  0.2616 -0.0585  0.3104
16069TIP3    H169698   3.634   0.811  13.501  0.3219 -0.1438  0.5235
16069TIP3    H269699   3.585   0.953  13.482  0.1844 -0.2500  0.0712
16070TIP3   OH269700   3.504   6.369  15.655 -0.2365 -0.4580 -0.1613
16070TIP3    H169701   3.589   6.339  15.624  0.4441  0.2018  1.0228
16070TIP3    H269702   3.493   6.456  15.616  0.1091 -0.1014  0.5365
16071TIP3   OH269703   6.128   2.230  17.128 -0.0793 -0.9606 -0.0020
16071TIP3    H169704   6.071   2.284  17.184 -0.0398 -1.5708  0.6448
16071TIP3    H269705   6.115   2.264  17.040 -0.8336 -0.5609  0.2555
16072TIP3   OH269706   5.215   6.264  11.040  0.2437  0.0824  0.2817
16072TIP3    H169707   5.188   6.184  10.995  0.7777  0.5261 -0.8730
16072TIP3    H269708   5.249   6.320  10.970  0.2830  1.1460  1.1303
16073TIP3   OH269709   6.199   0.088  11.062  0.2498 -0.2039 -0.0915
16073TIP3    H169710   6.161   0.059  10.979 -1.6672  1.5849  0.0497
16073TIP3    H269711   6.129   0.074  11.126  0.5159  1.3374  0.5919
16074TIP3   OH269712   0.763   2.234   1.134 -0.0812 -0.0978 -0.0256
16074TIP3    H169713   0.744   2.270   1.047  0.3997 -2.5416 -1.2242
16074TIP3    H269714   0.677   2.223   1.175 -0.4594 -0.6656 -0.9508
16075TIP3   OH269715   5.647   0.105  11.946 -0.4931 -0.2006  0.0360
16075TIP3    H169716   5.570   0.113  12.003  1.0804  1.8487  2.0398
16075TIP3    H269717   5.690   0.190  11.951  1.0631 -0.7435 -2.3537
16076TIP3   OH269718   5.722   4.259  14.270  0.3680 -0.4416 -0.1358
16076TIP3    H169719   5.758   4.212  14.345 -0.1343  1.4473  1.3514
16076TIP3    H269720   5.771   4.342  14.268 -0.2927 -0.0607 -1.2999
16077TIP3   OH269721   2.267   6.592  13.879 -0.1207  0.1942  0.2588
16077TIP3    H169722   2.241   6.547  13.799  0.1989 -0.5126  0.5503
16077TIP3    H269723   2.188   6.640  13.906 -0.0281  0.9797 -0.8384
16078TIP3   OH269724   2.297   2.578   1.009 -0.1643  0.0563 -0.2475
16078TIP3    H169725   2.380   2.624   0.998 -0.5620  0.6130 -1.0026
16078TIP3    H269726   2.259   2.575   0.922  0.1814 -2.3847 -0.3745
16079TIP3   OH269727   4.643   2.316   0.749 -0.0125  0.4307  0.0679
16079TIP3    H169728   4.668   2.233   0.708  0.0103 -0.3686  1.6137
16079TIP3    H269729   4.577   2.292   0.814 -0.2157  1.6643  0.3488
16080TIP3   OH269730   1.188   3.354   0.406  0.1268  0.2784 -0.5908
16080TIP3    H169731   1.129   3.381   0.335  1.0039  0.2628 -1.3345
16080TIP3    H269732   1.168   3.261   0.418  1.3253 -0.2381 -2.1900
16081TIP3   OH269733   1.362   6.349  12.344 -0.7547 -0.5376 -0.8371
16081TIP3    H169734   1.389   6.324  12.256 -0.0504 -1.2775 -0.4328
16081TIP3    H269735   1.295   6.285  12.368 -1.1058 -0.2023 -0.9128
16082TIP3   OH269736   3.547   5.649  16.225 -0.2464  0.1608  0.3831
16082TIP3    H169737   3.487   5.702  16.277  0.2266  1.1905 -0.0915
16082TIP3    H269738   3.628   5.700  16.222 -0.2291  0.0978 -1.2791
16083TIP3   OH269739   5.970   5.408   5.657  0.1507  0.2347 -0.1001
16083TIP3    H169740   6.022   5.398   5.577 -0.7074  1.1029 -0.7896
16083TIP3    H269741   6.007   5.343   5.717  1.4869  0.2650 -0.8361
16084TIP3   OH269742   1.536   0.961   5.340 -0.2341  0.2413 -0.2040
16084TIP3    H169743   1.567   1.039   5.385 -0.7602 -0.5434  1.5796
16084TIP3    H269744   1.462   0.930   5.392 -1.3995 -0.2743 -2.0546
16085TIP3   OH269745   3.572   4.671   4.523  0.1480 -0.0482  0.5146
16085TIP3    H169746   3.491   4.623   4.505  1.7466 -3.0717  0.7976
16085TIP3    H269747   3.572   4.683   4.618  1.2202 -2.5307  0.8936
16086TIP3   OH269748   5.795   1.565   4.823  0.5998 -0.4780 -0.0195
16086TIP3    H169749   5.723   1.527   4.773 -0.6434 -0.4837  1.6998
16086TIP3    H269750   5.754   1.631   4.879  1.6546 -1.4132  1.9955
16087TIP3   OH269751   6.760   1.685  11.910  0.0812  0.3698 -0.8569
16087TIP3    H169752   6.783   1.594  11.924 -0.9595 -0.0792 -1.9577
16087TIP3    H269753   6.690   1.703  11.974  1.9364  1.1602  1.0892
16088TIP3   OH269754   3.499   2.426  12.789 -0.2707 -0.2531 -0.0510
16088TIP3    H169755   3.555   2.448  12.716 -0.5967 -1.5950 -0.7509
16088TIP3    H269756   3.522   2.488  12.858  1.1829  0.0030 -0.7390
16089TIP3   OH269757   4.697   5.947   4.020 -0.2533  0.3994 -0.8254
16089TIP3    H169758   4.702   5.893   4.099 -1.0430 -0.3710 -1.2840
16089TIP3    H269759   4.696   6.037   4.052  1.1673  0.1765 -0.0460
16090TIP3   OH269760   3.051   5.673   2.948 -0.1514 -0.1979  0.4742
16090TIP3    H169761   2.969   5.641   2.985 -0.6820 -1.7092 -1.8084
16090TIP3    H269762   3.024   5.736   2.881  0.7267  1.6065  1.7367
16091TIP3   OH269763   3.537   0.103   2.659 -0.6170  0.5909 -0.1654
16091TIP3    H169764   3.470   0.126   2.723 -1.3303 -0.4173 -0.5274
16091TIP3    H269765   3.540   0.178   2.600  1.3333  2.3899  1.9838
16092TIP3   OH269766   2.722   4.477   3.023 -0.1748  0.3046  0.1063
16092TIP3    H169767   2.766   4.429   3.093 -2.3613  1.1529  2.1738
16092TIP3    H269768   2.783   4.548   3.001  0.8398 -0.3753  0.6124
16093TIP3   OH269769   2.442   4.761   0.415  0.2477 -0.3405 -0.0116
16093TIP3    H169770   2.432   4.795   0.327  1.4153  0.4679  0.1471
16093TIP3    H269771   2.495   4.682   0.404  0.9516  0.1188  0.0180
16094TIP3   OH269772   6.365   2.839   2.480 -0.7219  0.4546 -0.4060
16094TIP3    H169773   6.397   2.888   2.556  1.0354  1.0927 -1.4877
16094TIP3    H269774   6.321   2.763   2.517  1.8146 -0.3215  1.2944
16095TIP3   OH269775   6.306   0.028   2.763  0.4427 -0.2782  0.3420
16095TIP3    H169776   6.320  -0.031   2.688  2.0431  0.2891  0.1508
16095TIP3    H269777   6.344  -0.019   2.837  1.0365  0.1750  0.3310
16096TIP3   OH269778   4.537   4.843   2.351  0.3131 -0.6264 -0.5552
16096TIP3    H169779   4.618   4.800   2.377  0.6269  0.9333  1.3256
16096TIP3    H269780   4.565   4.923   2.307 -0.1291  0.2359  0.6538
16097TIP3   OH269781   6.168   0.560  13.654  0.3073 -0.0599 -0.1019
16097TIP3    H169782   6.157   0.516  13.739  0.3621 -2.9320 -1.4677
16097TIP3    H269783   6.251   0.526  13.620 -0.1245  0.3731 -1.6627
16098TIP3   OH269784   3.700   3.536  15.756 -0.1898 -0.7320 -0.2809
16098TIP3    H169785   3.733   3.625  15.768  0.7657 -0.9506 -1.1562
16098TIP3    H269786   3.653   3.516  15.837 -2.8693  1.5972 -1.0901
16099TIP3   OH269787   3.771   2.398   4.535  0.1045 -0.0454 -0.3696
16099TIP3    H169788   3.840   2.347   4.493 -0.4116 -1.0940  0.0227
16099TIP3    H269789   3.795   2.400   4.628 -0.1357 -0.0036 -0.3072
16100TIP3   OH269790   1.021   0.074  13.475 -0.2660 -0.1256  0.1443
16100TIP3    H169791   1.005   0.000  13.416 -1.3543  0.6077 -0.5085
16100TIP3    H269792   1.053   0.144  13.417  0.9134 -0.1105  0.7784
16101TIP3   OH269793   6.070   6.706  13.511  0.5124 -0.1171 -0.3341
16101TIP3    H169794   6.048   6.718  13.419  2.9742 -0.9232 -1.1096
16101TIP3    H269795   6.101   6.616  13.518  3.3298  0.7792  0.5101
16102TIP3   OH269796   2.538   5.012   4.432 -0.2837  0.3377 -0.5739
16102TIP3    H169797   2.517   4.947   4.366 -0.4127 -0.1339 -0.0735
16102TIP3    H269798   2.577   4.963   4.504  1.0507  0.9961 -0.8087
16103TIP3   OH269799   2.186   0.611  15.530 -0.1288  0.2687 -0.5506
16103TIP3    H169800   2.167   0.702  15.552 -0.2450 -0.0239  0.6452
16103TIP3    H269801   2.270   0.615  15.485  0.8581  0.8157  1.2210
16104TIP3   OH269802   5.517   4.648  15.906 -0.1557  0.0464 -0.1377
16104TIP3    H169803   5.442   4.705  15.893  0.1506  1.5298  3.3811
16104TIP3    H269804   5.483   4.559  15.896 -1.7316  0.7402 -1.1652
16105TIP3   OH269805   3.953   4.990   0.645  0.2403  0.0626 -0.8179
16105TIP3    H169806   3.989   4.920   0.700 -0.9097 -0.9257 -1.2936
16105TIP3    H269807   4.029   5.044   0.624  1.3972 -1.6821 -1.3780
16106TIP3   OH269808   0.338   3.590  14.788  0.2506  0.5257 -0.0464
16106TIP3    H169809   0.406   3.631  14.842  1.0731 -1.7644  0.7868
16106TIP3    H269810   0.299   3.524  14.846 -1.0223  0.1496 -1.2946
16107TIP3   OH269811   0.463   5.218   6.585 -0.2994 -0.2913  0.0768
16107TIP3    H169812   0.546   5.259   6.608  0.3038  0.2779 -2.7252
16107TIP3    H269813   0.413   5.288   6.541 -0.5122 -1.6372 -1.9790
16108TIP3   OH269814   2.028   1.726   1.714 -0.6728  0.3462  0.0017
16108TIP3    H169815   2.038   1.790   1.784 -0.3119  0.3711 -0.0731
16108TIP3    H269816   1.961   1.666   1.747  1.1398 -1.0243  1.4018
16109TIP3   OH269817   6.558   0.018   5.884  0.0692 -0.1341  0.5797
16109TIP3    H169818   6.513  -0.025   5.957 -1.0517 -0.5604 -0.3277
16109TIP3    H269819   6.649  -0.012   5.891 -0.4137 -1.6443  0.7303
16110TIP3   OH269820   0.327   0.295   4.488  0.0688 -0.5667  0.7436
16110TIP3    H169821   0.365   0.215   4.524 -2.2621 -2.2258 -0.2625
16110TIP3    H269822   0.243   0.304   4.532 -0.1252  0.8425  0.1501
16111TIP3   OH269823   2.236   4.885  15.894  0.0796 -0.0115 -0.1056
16111TIP3    H169824   2.168   4.865  15.958  0.7633 -0.8087  0.3972
16111TIP3    H269825   2.190   4.892  15.810 -0.4195 -2.5416 -0.1209
16112TIP3   OH269826   1.760   3.671   4.951 -0.4707 -0.3390  0.1128
16112TIP3    H169827   1.838   3.723   4.935 -0.1586 -1.2192 -1.4026
16112TIP3    H269828   1.697   3.698   4.884 -0.7550 -1.0072  0.0971
16113TIP3   OH269829   1.296   1.140   4.295  0.9400  0.3505  0.2141
16113TIP3    H169830   1.281   1.076   4.225  1.2906 -0.4267  0.8367
16113TIP3    H269831   1.381   1.117   4.331  0.5747  0.4712  1.1783
16114TIP3   OH269832   2.986   2.958   0.074  0.2926 -0.0943  0.0307
16114TIP3    H169833   3.022   3.042   0.047 -0.8858  0.5893  0.5546
16114TIP3    H269834   2.999   2.956   0.169 -1.2321  0.2599  0.2587
16115TIP3   OH269835   1.572   1.291   1.234 -0.5784  0.3988  0.2161
16115TIP3    H169836   1.587   1.226   1.303  0.1026 -1.0954 -1.2564
16115TIP3    H269837   1.660   1.319   1.208 -0.7005 -0.4745 -1.2743
16116TIP3   OH269838   4.818   1.783   5.802  0.8515 -0.0759  0.1150
16116TIP3    H169839   4.730   1.749   5.818  0.9688  0.4621  2.3281
16116TIP3    H269840   4.830   1.850   5.870  3.1863 -0.5643  0.2763
16117TIP3   OH269841   6.379   6.451   2.858  0.0114  0.0520 -0.4049
16117TIP3    H169842   6.327   6.415   2.786 -0.5796  1.2735 -0.6152
16117TIP3    H269843   6.321   6.448   2.934 -0.2496  1.0385 -0.5494
16118TIP3   OH269844   2.247   4.559   0.214 -0.4701 -0.2529 -0.1278
16118TIP3    H169845   2.176   4.544   0.276 -0.4681  0.6336  0.1098
16118TIP3    H269846   2.214   4.629   0.157  1.0102  1.7876  1.3606
16119TIP3   OH269847   1.573   5.886  13.468  0.5498 -0.1889  0.6184
16119TIP3    H169848   1.479   5.865  13.469  0.1175  1.5781  0.7603
16119TIP3    H269849   1.578   5.975  13.503  2.5123 -0.9633  2.5324
16120TIP3   OH269850   6.678   5.345   3.938 -0.0735 -0.1258 -0.0819
16120TIP3    H169851   6.694   5.390   4.021  1.5312 -0.1490 -0.3523
16120TIP3    H269852   6.584   5.327   3.939 -0.1741  0.2965  1.5105
16121TIP3   OH269853   2.779   0.466  14.905  0.5445  0.1691  0.3272
16121TIP3    H169854   2.805   0.459  14.997  0.8319  0.4169  0.2682
16121TIP3    H269855   2.702   0.523  14.906  0.0154 -0.5345  0.4994
16122TIP3   OH269856   4.784   0.658  11.968 -0.1337  0.0828  0.2889
16122TIP3    H169857   4.761   0.624  11.881 -0.3725  1.9889 -0.4543
16122TIP3    H269858   4.764   0.751  11.962  2.5040  0.8086  1.4739
16123TIP3   OH269859   2.119   0.755   3.594  0.0500 -0.1974 -0.3900
16123TIP3    H169860   2.153   0.824   3.536  1.6659 -0.1082  0.6181
16123TIP3    H269861   2.154   0.777   3.680 -0.5494 -1.5382  0.2139
16124TIP3   OH269862   2.665   6.125  11.808 -0.3091 -0.1953 -0.5770
16124TIP3    H169863   2.589   6.068  11.798 -1.3899  1.2718 -1.0940
16124TIP3    H269864   2.651   6.195  11.744  2.5483 -0.9604 -2.2604
16125TIP3   OH269865   0.702   0.400   2.928 -0.6906 -0.2462 -0.6207
16125TIP3    H169866   0.780   0.450   2.903 -1.7869  1.4744 -0.8273
16125TIP3    H269867   0.729   0.309   2.923  1.6030  0.3019  0.3620
16126TIP3   OH269868   4.394   4.392  15.424 -0.8084 -0.3713  0.2980
16126TIP3    H169869   4.381   4.335  15.348  1.2171 -1.4851  0.7242
16126TIP3    H269870   4.390   4.333  15.499  1.3480 -0.0148  0.7494
16127TIP3   OH269871   2.286   0.866  15.326  0.2517 -0.3784 -0.8027
16127TIP3    H169872   2.371   0.909  15.314 -0.7109  1.4124 -1.6479
16127TIP3    H269873   2.274   0.862  15.421  0.9933 -0.0663 -0.6876
16128TIP3   OH269874   1.911   3.814   3.002 -0.4872 -0.1833  0.2861
16128TIP3    H169875   1.932   3.826   3.094  0.5294  2.7059 -0.2055
16128TIP3    H269876   1.824   3.775   3.002 -1.4974  1.8307  2.5387
16129TIP3   OH269877   3.050   3.041   2.058  0.1051  0.4240  0.2660
16129TIP3    H169878   3.117   3.083   2.004 -0.4353  0.2784 -0.5404
16129TIP3    H269879   3.075   2.949   2.059  0.6860  0.5823  1.1315
16130TIP3   OH269880   0.641   4.474   0.638 -0.5569 -0.3235  0.2647
16130TIP3    H169881   0.711   4.537   0.621 -0.4863 -0.5067 -0.1338
16130TIP3    H269882   0.614   4.492   0.728  1.2132 -1.3980  1.0663
16131TIP3   OH269883   4.314   3.381  14.714 -0.2134 -0.0040 -0.1314
16131TIP3    H169884   4.262   3.458  14.692  0.2835  0.0788 -1.0897
16131TIP3    H269885   4.293   3.318  14.645  0.3498 -0.2581 -0.0770
16132TIP3   OH269886   1.183   6.011   3.739 -0.1974 -0.3755  0.4210
16132TIP3    H169887   1.180   5.966   3.824  2.7585 -0.0154  0.8381
16132TIP3    H269888   1.201   6.102   3.761 -1.1759  0.0658 -0.5689
16133TIP3   OH269889   0.277   5.984  15.931 -0.6597  0.1143 -0.2878
16133TIP3    H169890   0.218   6.007  15.859  0.3794  0.7063 -0.9808
16133TIP3    H269891   0.280   6.062  15.986 -1.6324 -0.4175  0.5425
16134TIP3   OH269892   0.321   0.115  16.127 -0.0238 -0.7110 -0.1584
16134TIP3    H169893   0.274   0.050  16.074 -1.6754 -0.3865  0.8447
16134TIP3    H269894   0.277   0.114  16.212  0.4447  1.1315  0.1536
16135TIP3   OH269895   1.042   1.779  15.550 -0.1468 -0.0158  0.0763
16135TIP3    H169896   1.128   1.751  15.581 -0.3547 -0.7687  0.0093
16135TIP3    H269897   1.032   1.734  15.466 -1.0519 -0.8138  0.5934
16136TIP3   OH269898   4.821   1.344   3.313 -0.7305 -0.3498  0.0173
16136TIP3    H169899   4.813   1.380   3.402 -1.9379  0.1961 -0.2824
16136TIP3    H269900   4.804   1.250   3.324 -2.6141 -0.0418  0.1807
16137TIP3   OH269901   2.362   2.113  12.016 -0.6314  0.0904 -0.1753
16137TIP3    H169902   2.435   2.121  12.077  0.2590 -0.4808 -1.1438
16137TIP3    H269903   2.316   2.033  12.044  0.9524 -1.3241 -1.4348
16138TIP3   OH269904   1.334   1.070   4.956 -0.0534 -0.1372  0.3900
16138TIP3    H169905   1.405   1.011   4.981 -0.9867 -1.1973  0.6401
16138TIP3    H269906   1.334   1.069   4.861  0.1839 -0.2379  0.3900
16139TIP3   OH269907   2.144   4.587   1.092  0.0775 -0.1545  0.1655
16139TIP3    H169908   2.146   4.493   1.075  0.9292 -0.1004 -0.0867
16139TIP3    H269909   2.185   4.626   1.015  0.2221  0.3914  0.5110
16140TIP3   OH269910   4.701   4.401  14.830 -0.5917  0.5961  0.7642
16140TIP3    H169911   4.756   4.471  14.865  0.3508  0.5367 -0.5262
16140TIP3    H269912   4.761   4.328  14.818 -0.8641  0.6054 -0.8997
16141TIP3   OH269913   5.606   5.437  13.648 -0.3705 -0.1585  0.0211
16141TIP3    H169914   5.676   5.416  13.711  0.8402  0.6545 -1.0054
16141TIP3    H269915   5.599   5.358  13.594  0.4108  0.0832 -0.4479
16142TIP3   OH269916   5.059   4.073   1.568 -0.2139  0.2270 -0.3853
16142TIP3    H169917   4.967   4.067   1.593 -0.1209  1.5692  0.3747
16142TIP3    H269918   5.098   4.129   1.634  0.9809  0.3464 -1.1621
16143TIP3   OH269919   2.800   2.618  15.824 -0.2363  0.0730 -0.0257
16143TIP3    H169920   2.721   2.580  15.862  0.1879 -0.9695 -0.1548
16143TIP3    H269921   2.774   2.646  15.736 -0.3533 -0.6580 -0.2272
16144TIP3   OH269922   3.366   0.141   4.845 -0.1921  0.0325 -0.0633
16144TIP3    H169923   3.325   0.065   4.803  0.0388 -0.7642  1.1035
16144TIP3    H269924   3.294   0.190   4.882 -0.2486 -0.3127  0.2883
16145TIP3   OH269925   1.040   2.973  15.509 -0.0965 -0.2592 -0.1667
16145TIP3    H169926   1.063   2.881  15.493  0.9695 -0.2326  1.1088
16145TIP3    H269927   0.945   2.976  15.495  0.2474 -0.8519 -3.3350
16146TIP3   OH269928   6.066   4.365   1.820  0.0732  0.2850 -0.1076
16146TIP3    H169929   6.149   4.365   1.773  0.0210 -1.6320 -0.2811
16146TIP3    H269930   6.087   4.400   1.906  0.9128  0.4880 -0.3863
16147TIP3   OH269931   2.224   5.617   2.087  0.1725  1.2312  0.3193
16147TIP3    H169932   2.279   5.539   2.095  1.2936  1.9174 -0.3897
16147TIP3    H269933   2.207   5.644   2.177  0.6126  0.7284  0.5582
16148TIP3   OH269934   1.744   5.852   3.689 -0.2976  0.3887 -0.3236
16148TIP3    H169935   1.675   5.788   3.703  0.1890 -0.3071 -1.0158
16148TIP3    H269936   1.807   5.807   3.632  1.1554  0.6890  0.9838
16149TIP3   OH269937   2.698   6.190   1.781 -0.9307  0.0549 -0.3308
16149TIP3    H169938   2.776   6.151   1.741 -1.1362  0.6274 -1.3175
16149TIP3    H269939   2.729   6.273   1.817 -0.5895 -0.7718  1.3799
16150TIP3   OH269940   0.406   2.487  13.440  0.7417 -0.0142 -0.2463
16150TIP3    H169941   0.345   2.508  13.370  0.4401  0.7309  0.2198
16150TIP3    H269942   0.392   2.556  13.505  3.2923  1.2363 -0.8897
16151TIP3   OH269943   4.726   1.827   1.294 -0.2935  0.2500  0.4839
16151TIP3    H169944   4.684   1.783   1.220 -0.3321  0.7170  0.2181
16151TIP3    H269945   4.665   1.817   1.366 -1.0045  1.1602  0.0297
16152TIP3   OH269946   3.749   4.408   4.578 -0.2580 -0.7628  0.0653
16152TIP3    H169947   3.777   4.426   4.668  0.6410 -0.2810 -0.2867
16152TIP3    H269948   3.815   4.453   4.524 -1.9439  0.7427 -0.8293
16153TIP3   OH269949   0.350   2.541   4.318  0.4401 -0.1158 -0.1837
16153TIP3    H169950   0.348   2.452   4.283  1.7090  0.1875 -1.1286
16153TIP3    H269951   0.424   2.542   4.379  0.4996  0.3121 -0.2562
16154TIP3   OH269952   6.798   3.975   5.610 -0.1313  0.0420  0.0130
16154TIP3    H169953   6.729   4.026   5.568 -0.5216 -0.2719  0.2577
16154TIP3    H269954   6.874   3.985   5.552 -0.2484  0.7555 -0.0221
16155TIP3   OH269955   4.367   3.713  15.708  0.4293  0.0775 -0.0976
16155TIP3    H169956   4.369   3.784  15.773 -0.3181 -0.2132  0.2529
16155TIP3    H269957   4.275   3.692  15.699  0.4927  0.3098 -1.4904
16156TIP3   OH269958   3.604   4.071   1.341  0.4001 -0.4827 -0.0790
16156TIP3    H169959   3.540   4.032   1.283  1.3245 -0.8858 -0.8600
16156TIP3    H269960   3.641   3.998   1.390 -1.0656 -0.0448  1.7804
16157TIP3   OH269961   0.856   1.929  11.076  0.2200 -0.3530  0.5320
16157TIP3    H169962   0.855   1.874  10.999  0.6928 -1.8023  1.5192
16157TIP3    H269963   0.780   1.986  11.067  0.7496  0.1001 -1.3872
16158TIP3   OH269964   5.107   1.047  16.660 -0.3753  0.1500  0.4924
16158TIP3    H169965   5.066   1.130  16.636 -0.2472  0.4435  1.2700
16158TIP3    H269966   5.095   0.992  16.583 -0.5024  0.8699 -0.0164
16159TIP3   OH269967   4.231   1.686  13.797 -0.3308 -0.2117 -0.1520
16159TIP3    H169968   4.194   1.602  13.822  1.9783 -1.4320 -0.5187
16159TIP3    H269969   4.269   1.721  13.878 -1.7679  0.8097  0.1253
16160TIP3   OH269970   0.832   4.645   4.385 -0.2188 -0.3346  0.4031
16160TIP3    H169971   0.898   4.587   4.425  0.8403 -0.6416 -1.6448
16160TIP3    H269972   0.752   4.592   4.383  0.6489 -1.6939 -1.1439
16161TIP3   OH269973   3.413   0.998   3.438 -0.4431 -0.0973  0.0050
16161TIP3    H169974   3.419   0.953   3.522  0.9540  0.4220  0.2107
16161TIP3    H269975   3.444   0.934   3.374 -2.4095 -0.8293 -0.2871
16162TIP3   OH269976   0.178   2.285   0.509 -0.0446 -0.3940  0.5773
16162TIP3    H169977   0.136   2.290   0.423  0.4427  1.0332  0.3953
16162TIP3    H269978   0.110   2.250   0.567 -0.8517  0.0228 -0.0932
16163TIP3   OH269979   2.019   0.396  11.869 -0.6429  0.2575  0.1303
16163TIP3    H169980   2.030   0.351  11.953 -1.6964  1.0942  0.7379
16163TIP3    H269981   1.952   0.344  11.824  0.2483 -0.4583 -0.4106
16164TIP3   OH269982   3.407   5.090   0.894 -0.6781  0.2932 -0.0123
16164TIP3    H169983   3.500   5.083   0.871 -0.2057  1.1058  1.5328
16164TIP3    H269984   3.404   5.159   0.960 -2.3358 -0.0516  0.3080
16165TIP3   OH269985   6.754   4.850  16.972  0.0839  0.3649 -0.1103
16165TIP3    H169986   6.730   4.776  17.027  0.1964 -0.3036 -0.9521
16165TIP3    H269987   6.774   4.812  16.886 -0.7360  1.4406 -0.8181
16166TIP3   OH269988   1.172   6.491   0.648  0.2915 -0.5502  0.3793
16166TIP3    H169989   1.204   6.423   0.589  1.0632  0.0815  0.0518
16166TIP3    H269990   1.096   6.528   0.603  1.0355  0.1092 -0.3594
16167TIP3   OH269991   1.134   4.419  15.128  0.2252 -0.8706  0.4029
16167TIP3    H169992   1.148   4.504  15.087 -1.0541 -0.5891  0.5142
16167TIP3    H269993   1.124   4.438  15.222  0.1618 -1.1734  0.4601
16168TIP3   OH269994   1.651   6.163  15.378 -0.4222  0.0022 -0.1005
16168TIP3    H169995   1.635   6.244  15.328 -0.7136  0.0409  0.0578
16168TIP3    H269996   1.646   6.094  15.312  1.0702  0.2128 -0.4704
16169TIP3   OH269997   4.176   4.583  15.806  0.5966 -0.0205 -0.4572
16169TIP3    H169998   4.197   4.490  15.816 -2.0652 -0.5206  1.4966
16169TIP3    H269999   4.229   4.612  15.731  2.7479 -2.6577 -0.1056
16170TIP3   OH270000   4.152   0.307  11.234 -0.0193  0.1268 -0.3064
16170TIP3    H170001   4.215   0.367  11.194  0.0530  1.6590  1.9769
16170TIP3    H270002   4.090   0.288  11.163  1.3180  0.9188 -1.7679
16171TIP3   OH270003   2.324   3.902   4.445 -0.4640 -0.2834  0.3090
16171TIP3    H170004   2.376   3.981   4.462 -1.9966  0.6288  0.9292
16171TIP3    H270005   2.292   3.912   4.356 -2.9335  1.2332  1.2613
16172TIP3   OH270006   1.316   0.343   0.442 -0.2518  0.6588 -0.3958
16172TIP3    H170007   1.345   0.323   0.530 -0.9938  2.6096  0.3572
16172TIP3    H270008   1.385   0.309   0.385  1.1454  0.9751  1.0453
16173TIP3   OH270009   2.253   4.033  12.651 -0.0799  0.2758  0.5225
16173TIP3    H170010   2.327   4.011  12.594 -0.1504  0.6279  0.2928
16173TIP3    H270011   2.281   4.007  12.738 -0.1392 -0.6856  0.2714
16174TIP3   OH270012   5.997   3.846  14.453 -0.0760  0.4467 -0.1304
16174TIP3    H170013   6.068   3.876  14.510  0.2932 -2.2343  0.9920
16174TIP3    H270014   5.966   3.765  14.494 -2.7141  0.6404 -1.4795
16175TIP3   OH270015   3.594   4.899  13.047  0.4944  0.1347  0.1760
16175TIP3    H170016   3.502   4.886  13.024  0.1709  1.2610  0.7759
16175TIP3    H270017   3.636   4.924  12.964 -0.0922  1.3040  0.2048
16176TIP3   OH270018   5.617   2.262   0.136  0.1512 -0.1115  0.4892
16176TIP3    H170019   5.608   2.183   0.084 -1.3642  0.1312  0.3111
16176TIP3    H270020   5.613   2.232   0.227  3.0598 -0.5634  0.5400
16177TIP3   OH270021   5.691   6.792  11.038  0.2567  1.0979 -0.0885
16177TIP3    H170022   5.607   6.837  11.027 -0.6803 -0.4238  0.5232
16177TIP3    H270023   5.725   6.782  10.949 -0.8502  0.5753 -0.4637
16178TIP3   OH270024   0.280   5.444  16.936  0.2041 -0.0159  0.2791
16178TIP3    H170025   0.354   5.473  16.988  1.9682 -2.6537 -0.5333
16178TIP3    H270026   0.297   5.479  16.848 -0.0947  0.2516  0.3258
16179TIP3   OH270027   2.348   6.663  15.649 -0.2597  0.5811 -0.1010
16179TIP3    H170028   2.399   6.654  15.569 -0.2325  0.9702 -0.1302
16179TIP3    H270029   2.258   6.673  15.619 -0.2523  0.7037 -0.0827
16180TIP3   OH270030   1.489   0.236  15.347  0.1399  0.2048 -0.2563
16180TIP3    H170031   1.467   0.288  15.425 -0.6556 -0.8390  0.2464
16180TIP3    H270032   1.554   0.172  15.379 -0.5202 -0.5140 -0.3253
16181TIP3   OH270033   0.616   1.807   3.599  0.2617 -0.7056 -0.5824
16181TIP3    H170034   0.689   1.848   3.553 -0.2064 -0.4451 -1.1155
16181TIP3    H270035   0.616   1.846   3.686  1.3265 -1.3940 -0.2530
16182TIP3   OH270036   6.587   6.334   4.409 -0.5425 -0.3504 -0.5847
16182TIP3    H170037   6.577   6.404   4.473 -0.1389 -0.7591 -0.0645
16182TIP3    H270038   6.627   6.377   4.333 -0.6142  0.0525 -0.3982
16183TIP3   OH270039   0.230   6.112  12.668  0.4415  0.5279 -0.1878
16183TIP3    H170040   0.154   6.150  12.623  0.2014 -0.4551 -0.6462
16183TIP3    H270041   0.242   6.027  12.627  0.9009  0.0570  0.8777
16184TIP3   OH270042   3.101   1.836   5.127 -0.7174 -0.1367 -0.1046
16184TIP3    H170043   3.194   1.828   5.145 -0.8146 -1.8084 -0.1744
16184TIP3    H270044   3.088   1.928   5.103  0.8391  0.1841  0.2267
16185TIP3   OH270045   6.534   5.586   6.167 -0.3121 -1.1773 -0.1904
16185TIP3    H170046   6.467   5.523   6.195  1.3687 -2.0344  2.1753
16185TIP3    H270047   6.617   5.546   6.192  0.9080  1.4758  0.3530
16186TIP3   OH270048   4.105   1.226   3.567  0.0337 -0.2199 -0.4618
16186TIP3    H170049   4.145   1.307   3.536 -1.3866  1.2695  1.3408
16186TIP3    H270050   4.175   1.181   3.614  0.3681  0.9281  0.1836
16187TIP3   OH270051   0.888   1.974   1.571 -0.6878  0.2728  0.1672
16187TIP3    H170052   0.830   2.050   1.564 -0.5097  0.3990  0.0483
16187TIP3    H270053   0.976   2.010   1.562 -0.6361 -0.0317 -0.6158
16188TIP3   OH270054   3.620   4.737   6.145  0.3286 -0.4854  0.8362
16188TIP3    H170055   3.535   4.757   6.184  0.2663 -1.4233  1.2070
16188TIP3    H270056   3.659   4.673   6.204  1.1427 -0.3377  0.4757
16189TIP3   OH270057   0.742   5.054  11.166 -0.3742 -0.3510  0.3361
16189TIP3    H170058   0.827   5.062  11.209  0.5872 -1.0094 -1.3715
16189TIP3    H270059   0.753   5.097  11.082 -1.9082  0.0283  0.3078
16190TIP3   OH270060   4.834   3.524   1.245  0.2466  0.2839  0.0070
16190TIP3    H170061   4.883   3.591   1.198  1.2370 -0.1168  0.4283
16190TIP3    H270062   4.825   3.558   1.334 -0.1767  0.3219 -0.0488
16191TIP3   OH270063   2.731   2.356   1.385 -0.0473  0.4126 -0.5088
16191TIP3    H170064   2.706   2.290   1.449 -1.2554 -0.7091 -2.0276
16191TIP3    H270065   2.825   2.366   1.395 -0.0156 -0.7240  0.5165
16192TIP3   OH270066   6.231   1.397  15.806  0.0660 -0.3938  0.3987
16192TIP3    H170067   6.146   1.362  15.832 -0.7054  0.2785 -1.0682
16192TIP3    H270068   6.265   1.332  15.745  0.4895 -0.5304  0.7782
16193TIP3   OH270069   2.009   1.024  16.808 -0.0374  0.0529  0.0381
16193TIP3    H170070   1.923   0.982  16.818  0.8097 -1.3952  1.9541
16193TIP3    H270071   1.999   1.110  16.849 -0.3057 -0.5595  1.3112
16194TIP3   OH270072   0.285   4.618   2.688 -0.3434  0.3997 -0.2449
16194TIP3    H170073   0.284   4.522   2.691  0.7072  0.3815 -0.2569
16194TIP3    H270074   0.362   4.640   2.637 -1.2803  1.2436 -1.3500
16195TIP3   OH270075   5.256   4.738   2.788  0.3915  0.1254  0.2476
16195TIP3    H170076   5.325   4.792   2.749  1.3694 -0.1319  1.5456
16195TIP3    H270077   5.282   4.648   2.767  0.5439  0.0208  0.8688
16196TIP3   OH270078   1.622   4.095  13.052  0.7369 -0.8575 -0.1068
16196TIP3    H170079   1.564   4.020  13.048 -0.9937  0.4390 -0.4737
16196TIP3    H270080   1.667   4.087  13.136  0.4860 -2.2100 -0.0842
16197TIP3   OH270081   3.792   1.016   5.626  0.3989  0.1601 -0.3249
16197TIP3    H170082   3.862   1.081   5.626  0.9610 -0.3909 -2.1035
16197TIP3    H270083   3.837   0.932   5.623 -0.3143 -0.2112 -1.0102
16198TIP3   OH270084   1.271   6.563  12.092 -0.4778 -0.4427  0.5163
16198TIP3    H170085   1.332   6.511  12.040  1.5638  2.2351  0.0536
16198TIP3    H270086   1.313   6.571  12.177  0.2464  1.9206  0.0133
16199TIP3   OH270087   5.895   4.786   4.975 -0.3914  0.1069  0.6724
16199TIP3    H170088   5.965   4.813   5.035 -0.7919 -0.5719  1.4755
16199TIP3    H270089   5.939   4.761   4.895  0.0504  2.7056  0.0058
16200TIP3   OH270090   2.012   0.471  11.099 -0.7313  1.2875 -0.7589
16200TIP3    H170091   1.927   0.502  11.130 -0.2648  0.3173  1.6624
16200TIP3    H270092   2.069   0.547  11.106 -0.1440  0.6831  2.9706
16201TIP3   OH270093   0.335   3.113   2.438 -0.4072  0.0017  0.7989
16201TIP3    H170094   0.412   3.170   2.439 -0.2707 -0.1175 -0.6160
16201TIP3    H270095   0.287   3.139   2.360 -0.1511 -2.0308 -0.1175
16202TIP3   OH270096   0.659   3.621  17.141  0.7463  0.0068 -0.0826
16202TIP3    H170097   0.651   3.680  17.066  1.5911  0.0963 -0.1176
16202TIP3    H270098   0.669   3.679  17.217  0.3650 -0.0863  0.0407
16203TIP3   OH270099   2.880   5.636  14.183  0.0589 -0.6861 -0.0503
16203TIP3    H170100   2.933   5.556  14.177  1.6603  0.4192 -1.6732
16203TIP3    H270101   2.848   5.651  14.095  0.3549  0.8129  0.0708
16204TIP3   OH270102   0.871   0.908   0.054 -0.3849  0.7640 -0.3398
16204TIP3    H170103   0.851   0.874   0.141 -0.3991  0.0399 -0.6213
16204TIP3    H270104   0.959   0.946   0.062  0.1416 -0.4310 -0.3214
16205TIP3   OH270105   6.623   1.862   5.386  0.1736  0.0963  0.0347
16205TIP3    H170106   6.572   1.806   5.445  1.4348 -0.7186  0.3772
16205TIP3    H270107   6.574   1.861   5.304  0.1575 -1.5160  0.0330
16206TIP3   OH270108   5.555   0.247   4.967  0.0959  0.7167  0.1254
16206TIP3    H170109   5.589   0.203   5.045  2.3012 -1.3744 -1.8184
16206TIP3    H270110   5.629   0.299   4.936 -0.3022  0.5203 -1.2020
16207TIP3   OH270111   2.000   5.472   2.768  0.4678 -0.0164 -1.0426
16207TIP3    H170112   1.929   5.527   2.802  0.5214  0.5773 -1.8740
16207TIP3    H270113   2.074   5.532   2.757  2.2008 -1.1187  2.7185
16208TIP3   OH270114   3.563   0.826   3.290  0.3667 -0.2738  0.4008
16208TIP3    H170115   3.600   0.907   3.253 -0.2930 -0.1485 -0.0117
16208TIP3    H270116   3.622   0.757   3.260  0.2109 -0.0927 -0.3544
16209TIP3   OH270117   1.338   3.675   1.669 -0.0187  0.2763  0.4306
16209TIP3    H170118   1.393   3.702   1.595 -0.1123 -0.1816  0.1921
16209TIP3    H270119   1.287   3.753   1.690  1.2625  0.9499  1.1518
16210TIP3   OH270120   4.447   6.324   1.051 -0.0057 -0.0060  0.1130
16210TIP3    H170121   4.535   6.310   1.014 -0.1669 -1.3031  0.2041
16210TIP3    H270122   4.463   6.340   1.144  0.2090  0.9554 -0.0697
16211TIP3   OH270123   3.534   6.161   4.788 -1.0228  0.0599 -0.3081
16211TIP3    H170124   3.441   6.150   4.765 -0.8884  0.2295 -0.9750
16211TIP3    H270125   3.553   6.088   4.846 -2.1775  1.3405  1.7816
16212TIP3   OH270126   6.653   5.743   4.855  0.1110 -0.7796 -0.6725
16212TIP3    H170127   6.628   5.832   4.882  0.4488 -1.0412  0.5840
16212TIP3    H270128   6.673   5.751   4.762  0.5677  0.5651 -0.4809
16213TIP3   OH270129   2.472   1.074   3.360  0.4828 -0.4823 -0.0543
16213TIP3    H170130   2.449   1.135   3.289 -0.8004 -0.5278  0.2930
16213TIP3    H270131   2.428   1.110   3.437  1.9283 -0.3924  0.7570
16214TIP3   OH270132   2.864   2.665  14.350 -0.1775  0.2062 -0.1342
16214TIP3    H170133   2.889   2.752  14.317 -1.0948  0.7365  0.5188
16214TIP3    H270134   2.795   2.683  14.414  0.2684 -0.9362  0.6996
16215TIP3   OH270135   5.213   4.691  15.942  0.3193  0.1248 -0.3060
16215TIP3    H170136   5.194   4.683  16.036  0.3380 -0.3347 -0.3378
16215TIP3    H270137   5.169   4.616  15.902  0.1498  0.4292 -0.6908
16216TIP3   OH270138   5.163   1.058   4.385  0.0988  0.0651  0.1571
16216TIP3    H170139   5.136   1.048   4.476 -0.9965  3.6533  0.3429
16216TIP3    H270140   5.217   1.137   4.383 -0.2900  0.3709 -2.3752
16217TIP3   OH270141   6.617   0.236  16.066 -0.3339  0.3481 -0.0599
16217TIP3    H170142   6.650   0.226  16.156 -0.7765  1.9742  0.3125
16217TIP3    H270143   6.522   0.235  16.076 -0.3934  1.5824 -0.3531
16218TIP3   OH270144   5.719   5.425   5.801  0.3981 -0.0567 -0.1698
16218TIP3    H170145   5.756   5.400   5.886 -0.9298 -4.0108 -0.5445
16218TIP3    H270146   5.794   5.428   5.742  0.9517 -0.8279  0.4734
16219TIP3   OH270147   6.386   1.811   4.281 -0.5390  0.3200 -0.8770
16219TIP3    H170148   6.408   1.891   4.329 -1.6993 -0.7207  1.5547
16219TIP3    H270149   6.312   1.836   4.226 -0.6403  1.0173 -0.4424
16220TIP3   OH270150   5.611   6.832  12.609  0.3027  0.0840 -0.0279
16220TIP3    H170151   5.674   6.837  12.536  0.6122  1.4337  0.3048
16220TIP3    H270152   5.575   6.743  12.603  1.8113 -0.5360 -0.5873
16221TIP3   OH270153   2.845   6.259   1.318 -0.3134  0.2527  0.2866
16221TIP3    H170154   2.844   6.302   1.403 -2.4295  1.6823 -0.3878
16221TIP3    H270155   2.898   6.316   1.263  1.2806 -0.8095  0.6534
16222TIP3   OH270156   2.844   6.270  16.214  0.4607 -0.4091 -0.2622
16222TIP3    H170157   2.823   6.361  16.191  0.0869  0.0030  1.5648
16222TIP3    H270158   2.760   6.224  16.208  0.5088 -0.4807 -0.4205
16223TIP3   OH270159   0.121   0.709  12.130  0.4114  0.1617  0.0353
16223TIP3    H170160   0.121   0.636  12.068  0.3130  0.5099 -0.3719
16223TIP3    H270161   0.031   0.711  12.164  0.9427 -1.2886  1.6853
16224TIP3   OH270162   2.988   4.667  11.601 -0.0083 -0.0214 -0.1255
16224TIP3    H170163   2.894   4.656  11.616 -0.3260  1.9806 -0.3547
16224TIP3    H270164   3.000   4.646  11.509  0.2904 -2.9712  0.5097
16225TIP3   OH270165   2.433   0.771  17.026 -0.0276 -0.5859  0.0647
16225TIP3    H170166   2.464   0.857  16.998 -1.5550 -0.2954 -0.8676
16225TIP3    H270167   2.495   0.710  16.989 -0.9304 -0.0790 -2.4897
16226TIP3   OH270168   3.170   4.180   6.291 -0.4616 -0.1220  0.8171
16226TIP3    H170169   3.169   4.272   6.320 -0.3337  0.4181 -0.7909
16226TIP3    H270170   3.095   4.140   6.336 -0.2444  0.6338  1.9038
16227TIP3   OH270171   3.926   0.109  11.764 -0.1991 -0.4217  0.2653
16227TIP3    H170172   3.942   0.174  11.833  0.6755 -1.7427  1.3538
16227TIP3    H270173   3.949   0.026  11.804 -0.7575 -1.3583 -1.2891
16228TIP3   OH270174   3.377   1.578   5.310 -0.1780 -0.0255 -0.1480
16228TIP3    H170175   3.438   1.531   5.254 -0.7462 -0.0429 -0.7583
16228TIP3    H270176   3.399   1.549   5.399  0.9980  0.3274 -0.3202
16229TIP3   OH270177   6.264   2.981   1.433 -0.3109 -0.1358  0.5880
16229TIP3    H170178   6.209   2.947   1.504 -2.3951  2.0780  0.1765
16229TIP3    H270179   6.210   2.969   1.354  0.7611  0.0669 -0.1948
16230TIP3   OH270180   2.894   4.210  16.277  0.4934  0.2496 -0.0900
16230TIP3    H170181   2.912   4.128  16.231 -2.9912 -0.8101  0.1612
16230TIP3    H270182   2.890   4.276  16.208  1.1717 -0.1737 -0.5499
16231TIP3   OH270183   3.146   3.666  17.160 -0.3534 -0.1202 -0.0395
16231TIP3    H170184   3.148   3.734  17.093  0.1812  1.8970  1.9007
16231TIP3    H270185   3.053   3.657  17.182 -0.3661  0.5099  0.1804
16232TIP3   OH270186   0.858   5.887  16.744  0.1850  1.1271  0.5936
16232TIP3    H170187   0.871   5.793  16.734  0.2464  1.1939  0.0359
16232TIP3    H270188   0.944   5.925  16.728 -0.4370  1.5152 -2.4283
16233TIP3   OH270189   3.070   6.652   0.830 -0.2188 -0.5539  0.0345
16233TIP3    H170190   3.141   6.592   0.852 -0.5173 -0.4595  1.3350
16233TIP3    H270191   3.099   6.737   0.862 -0.2362 -0.1943 -0.8862
16234TIP3   OH270192   2.289   2.910   0.983  0.1684 -0.6069 -0.1909
16234TIP3    H170193   2.373   2.937   1.020  0.1900 -1.9299  0.7505
16234TIP3    H270194   2.240   2.875   1.057 -0.9056 -0.6142 -0.8884
16235TIP3   OH270195   3.678   5.391   1.415  0.2926  0.5199 -0.0810
16235TIP3    H170196   3.708   5.306   1.446 -1.8759 -1.2139 -2.3265
16235TIP3    H270197   3.746   5.421   1.355  0.6792  0.0145  0.1024
16236TIP3   OH270198   0.127   0.015  11.609  0.1147 -0.3931 -0.6071
16236TIP3    H170199   0.139   0.099  11.564  0.8981  1.5990  2.8912
16236TIP3    H270200   0.099   0.040  11.698 -2.2818 -4.0012 -0.1518
16237TIP3   OH270201   4.023   6.129   3.082 -0.1274  0.0476  0.0426
16237TIP3    H170202   4.010   6.057   3.020  0.3310  0.9741 -1.1871
16237TIP3    H270203   4.010   6.090   3.168  0.6394 -1.6145 -0.5655
16238TIP3   OH270204   3.195   4.045   3.133 -0.1680  0.6101 -0.5201
16238TIP3    H170205   3.266   4.014   3.190 -1.7131 -0.8439  0.7312
16238TIP3    H270206   3.172   4.130   3.169 -0.8855 -0.1367  0.8811
16239TIP3   OH270207   1.656   5.785  14.499  0.4129  0.7056  0.3188
16239TIP3    H170208   1.649   5.860  14.439 -1.1341  0.3535  0.0161
16239TIP3    H270209   1.593   5.805  14.568 -1.7507 -1.3172 -0.9292
16240TIP3   OH270210   3.152   4.142   2.287  0.3261 -0.2371 -0.2956
16240TIP3    H170211   3.145   4.058   2.241 -0.0522  0.5287 -1.6793
16240TIP3    H270212   3.116   4.124   2.374 -2.8126 -0.7859 -1.5758
16241TIP3   OH270213   5.446   0.135  13.637  0.0519 -0.2015  0.1417
16241TIP3    H170214   5.441   0.067  13.569  0.2684 -0.1089  0.0290
16241TIP3    H270215   5.521   0.109  13.691 -2.3787 -2.4189  2.7330
16242TIP3   OH270216   2.846   3.817   1.019  0.1776  0.1977  0.4547
16242TIP3    H170217   2.858   3.727   1.047 -0.0750  0.4855  1.5104
16242TIP3    H270218   2.755   3.838   1.040 -1.2227 -0.6395 -3.7269
16243TIP3   OH270219   2.304   3.105  16.078  0.0391  0.5390 -0.3133
16243TIP3    H170220   2.318   3.038  16.010 -1.1071  0.4950 -0.5275
16243TIP3    H270221   2.362   3.079  16.149 -0.5047 -0.8098 -0.3279
16244TIP3   OH270222   5.811   3.180   1.265  0.1950  0.5656  0.1022
16244TIP3    H170223   5.890   3.162   1.214  0.9337  2.5284  0.4909
16244TIP3    H270224   5.755   3.230   1.205 -0.7372 -0.6829 -0.1208
16245TIP3   OH270225   5.289   4.246  12.437 -0.0214 -0.1933  0.3821
16245TIP3    H170226   5.383   4.233  12.449  0.2317  1.0308 -0.1485
16245TIP3    H270227   5.259   4.287  12.518  0.3090  1.3065 -0.2236
16246TIP3   OH270228   3.623   3.613   4.990  0.0556  0.2681 -0.2834
16246TIP3    H170229   3.541   3.640   4.947 -1.1710  0.4312  1.9989
16246TIP3    H270230   3.653   3.692   5.036  0.8511 -0.1122 -0.1349
16247TIP3   OH270231   6.033   3.420   4.549 -0.6715  0.2244 -0.3174
16247TIP3    H170232   5.948   3.460   4.565 -0.0123  1.5616  0.0476
16247TIP3    H270233   6.057   3.448   4.461 -0.8065 -0.5441 -0.6073
16248TIP3   OH270234   0.561   5.153   5.543 -0.1287  0.1364  0.0193
16248TIP3    H170235   0.571   5.075   5.488  1.5827 -0.0314  0.5213
16248TIP3    H270236   0.629   5.213   5.514 -0.1815  0.6653  0.9350
16249TIP3   OH270237   6.082   3.610  17.017 -0.1100 -0.4104  0.1992
16249TIP3    H170238   6.118   3.697  17.034 -0.5956 -0.3412  0.9340
16249TIP3    H270239   6.028   3.621  16.939  1.5419 -0.5529 -1.0165
16250TIP3   OH270240   6.758   6.128  10.418  0.1738 -0.2478  0.4748
16250TIP3    H170241   6.843   6.085  10.411  1.0524  1.6739 -3.1328
16250TIP3    H270242   6.775   6.220  10.396 -2.8233  0.1920 -0.5195
16251TIP3   OH270243   6.147   5.418  11.402 -0.1088  0.0471  0.6185
16251TIP3    H170244   6.161   5.328  11.429  2.5408  0.1237 -0.1716
16251TIP3    H270245   6.057   5.420  11.370  0.5715 -3.0860 -2.0238
16252TIP3   OH270246   1.536   3.363   1.895 -0.0477 -0.5831  0.0757
16252TIP3    H170247   1.464   3.369   1.958  0.2087 -1.0943  0.4302
16252TIP3    H270248   1.508   3.417   1.821 -0.1857  0.3506  0.7915
16253TIP3   OH270249   0.724   5.955  10.496  0.0639  0.3149 -0.3267
16253TIP3    H170250   0.774   6.021  10.544  0.9950 -0.6618  0.0848
16253TIP3    H270251   0.729   5.877  10.551 -1.7599  0.1124 -0.3790
16254TIP3   OH270252   2.258   3.211   4.918  0.1792  0.4527  0.3693
16254TIP3    H170253   2.224   3.163   4.843  0.6606 -0.7892  0.8942
16254TIP3    H270254   2.316   3.278   4.881  1.9892 -1.4014 -0.3771
16255TIP3   OH270255   5.078   3.531   2.267 -0.2351 -0.1098 -0.4397
16255TIP3    H170256   5.132   3.453   2.281 -0.2747 -0.0395  0.1324
16255TIP3    H270257   5.036   3.516   2.183  1.7041  0.4319 -1.5818
16256TIP3   OH270258   0.687   3.120  10.969  0.1194  0.4774 -0.2672
16256TIP3    H170259   0.643   3.053  10.917  3.0815 -0.4070 -1.9052
16256TIP3    H270260   0.617   3.165  11.015 -2.1204 -3.3623  0.5394
16257TIP3   OH270261   3.096   3.345   5.700  0.2874  0.1768  0.4923
16257TIP3    H170262   3.141   3.418   5.657 -2.4256  0.6785 -1.8001
16257TIP3    H270263   3.105   3.272   5.639 -0.8547 -0.0619  0.5871
16258TIP3   OH270264   0.205   4.073   1.690 -0.0378 -0.4251  0.0894
16258TIP3    H170265   0.239   4.025   1.615 -1.5846 -0.2351 -0.7804
16258TIP3    H270266   0.221   4.165   1.669  1.2636 -0.4494  0.9039
16259TIP3   OH270267   6.303   3.231  17.142  0.0622 -0.4222 -0.4325
16259TIP3    H170268   6.276   3.139  17.134  0.6138 -0.4466 -2.9397
16259TIP3    H270269   6.382   3.228  17.196 -0.3647 -1.3130  0.1789
16260TIP3   OH270270   2.572   2.029  12.471 -0.4803  0.2032 -0.3919
16260TIP3    H170271   2.637   2.080  12.518  0.0854 -0.8932  0.0530
16260TIP3    H270272   2.586   2.051  12.379 -0.9116  1.5788 -0.1434
16261TIP3   OH270273   0.380   1.645  16.550 -0.0644  0.2919  0.6303
16261TIP3    H170274   0.294   1.689  16.545  0.0581  0.6966  1.7030
16261TIP3    H270275   0.359   1.552  16.550 -0.4022  0.3600 -0.6208
16262TIP3   OH270276   4.739   0.923  11.999 -0.1564 -0.3048 -0.2517
16262TIP3    H170277   4.698   0.975  12.068 -0.8194 -0.4814 -0.5021
16262TIP3    H270278   4.712   0.964  11.917 -2.2094 -2.0303 -0.5455
16263TIP3   OH270279   0.471   5.326   0.438  0.3296  0.2167  0.1386
16263TIP3    H170280   0.388   5.301   0.398  0.3509 -0.8567  0.7186
16263TIP3    H270281   0.524   5.360   0.366 -0.3992  0.3352 -0.3435
16264TIP3   OH270282   1.380   1.551  11.841  0.4428 -0.2134  0.6430
16264TIP3    H170283   1.454   1.509  11.797 -0.9816  0.1267 -2.2601
16264TIP3    H270284   1.407   1.643  11.851 -0.1929  0.3519 -2.1275
16265TIP3   OH270285   2.560   5.213   3.516 -0.4918  0.2476  0.3452
16265TIP3    H170286   2.650   5.246   3.515  0.0342 -1.0946 -0.0173
16265TIP3    H270287   2.546   5.178   3.428 -0.4984 -1.6800  1.0629
16266TIP3   OH270288   4.771   0.401   1.255 -0.1712  0.2743  0.2618
16266TIP3    H170289   4.773   0.486   1.211  0.7723 -0.5791 -1.4495
16266TIP3    H270290   4.863   0.376   1.261 -0.4874 -1.0586 -0.1922
16267TIP3   OH270291   3.175   6.809   2.839 -0.5985 -0.6612 -0.0661
16267TIP3    H170292   3.192   6.771   2.752  2.0629 -1.0292  0.5165
16267TIP3    H270293   3.104   6.756   2.875 -1.5586 -0.6927 -1.8682
16268TIP3   OH270294   5.418   6.662   1.258  0.0803 -0.0240  0.3176
16268TIP3    H170295   5.365   6.738   1.281 -1.0514 -0.2946 -1.2692
16268TIP3    H270296   5.356   6.589   1.255  0.8874 -0.7385  0.3515
16269TIP3   OH270297   5.179   2.123  13.332  0.5042 -0.0640 -0.2035
16269TIP3    H170298   5.213   2.045  13.289  1.3892 -0.2391  0.7927
16269TIP3    H270299   5.247   2.148  13.394 -0.0659  1.1056 -0.0262
16270TIP3   OH270300   0.756   0.424   3.981  0.3909 -0.1997  0.2012
16270TIP3    H170301   0.841   0.399   3.945  1.6061  1.1064  1.9679
16270TIP3    H270302   0.742   0.514   3.950  0.0229 -0.1368  0.5343
16271TIP3   OH270303   6.791   5.118  12.393 -0.1305 -0.2952 -0.3772
16271TIP3    H170304   6.764   5.191  12.449  1.2853 -0.3137  0.3974
16271TIP3    H270305   6.724   5.052  12.405 -0.8516  0.4538 -0.2052
16272TIP3   OH270306   1.480   3.388   5.114 -0.1422 -0.5215  0.1966
16272TIP3    H170307   1.420   3.440   5.061 -0.3636 -0.9406  0.0282
16272TIP3    H270308   1.552   3.448   5.135 -1.5350  0.5947  2.0609
16273TIP3   OH270309   4.963   0.196  14.037 -0.0891 -0.8024 -0.1987
16273TIP3    H170310   4.875   0.228  14.053  1.0275  1.6994  1.6239
16273TIP3    H270311   4.987   0.235  13.952 -0.7013 -1.5293 -0.7225
16274TIP3   OH270312   3.721   4.020   5.316  0.0185 -0.2401 -0.4137
16274TIP3    H170313   3.811   4.048   5.331 -0.7267  2.1330  0.1056
16274TIP3    H270314   3.725   3.925   5.313  2.4891 -0.1975 -0.1536
16275TIP3   OH270315   2.847   5.181  10.853 -0.0136 -0.8024  0.0807
16275TIP3    H170316   2.895   5.222  10.781 -2.2115 -1.1077 -1.6886
16275TIP3    H270317   2.826   5.253  10.912  0.0134 -0.1431 -0.6878
16276TIP3   OH270318   1.755   6.212  13.023 -0.9814  0.3901 -0.2756
16276TIP3    H170319   1.824   6.154  12.991 -1.6872 -1.3285  1.1419
16276TIP3    H270320   1.768   6.216  13.117 -1.8663  1.3390 -0.1779
16277TIP3   OH270321   4.994   5.362   0.187  0.1604 -1.0636 -0.1662
16277TIP3    H170322   4.924   5.297   0.181  0.3075 -1.2019 -0.4241
16277TIP3    H270323   5.050   5.330   0.257 -0.9486 -0.0494  1.2412
16278TIP3   OH270324   4.449   5.684  11.239  0.0204 -0.0781 -0.0057
16278TIP3    H170325   4.394   5.713  11.165  0.0620 -0.8344 -0.3403
16278TIP3    H270326   4.395   5.619  11.284  0.1822  0.0399  0.3598
16279TIP3   OH270327   1.654   4.448  13.850 -0.1904 -0.0056 -0.4622
16279TIP3    H170328   1.634   4.459  13.943 -0.6705 -0.3112 -0.5287
16279TIP3    H270329   1.732   4.502  13.836 -0.6622  0.7805 -0.0867
16280TIP3   OH270330   0.038   6.707   4.095 -0.5591 -0.2053 -0.7404
16280TIP3    H170331   0.069   6.702   4.185  0.4954 -0.3454 -1.0909
16280TIP3    H270332  -0.058   6.703   4.102 -0.7082  2.6943  0.5707
16281TIP3   OH270333   3.816   6.414  13.304 -0.0374 -0.1031 -0.2773
16281TIP3    H170334   3.796   6.504  13.328 -0.5653 -0.5660  1.0982
16281TIP3    H270335   3.750   6.361  13.348  1.6863 -1.3448  0.9647
16282TIP3   OH270336   1.716   5.422  15.179  0.0194  0.0142  0.1822
16282TIP3    H170337   1.649   5.365  15.215 -0.1148 -0.0679 -0.1974
16282TIP3    H270338   1.773   5.363  15.129  0.4986  0.0477  0.6770
16283TIP3   OH270339   1.091   4.191  12.119  0.2545  0.0299  0.5119
16283TIP3    H170340   1.018   4.186  12.057 -0.2197 -1.3548  1.1524
16283TIP3    H270341   1.168   4.165  12.067  0.3820  1.7042 -0.2203
16284TIP3   OH270342   4.694   0.598  12.248 -0.2563  0.1504  0.6125
16284TIP3    H170343   4.600   0.605  12.262 -0.0452  0.9000  1.8284
16284TIP3    H270344   4.711   0.653  12.171 -0.9027 -0.6244 -0.0932
16285TIP3   OH270345   0.922   0.334   6.465  0.1450 -0.0017  0.0924
16285TIP3    H170346   0.950   0.257   6.415 -1.7869  0.0435 -1.1517
16285TIP3    H270347   0.833   0.315   6.491 -0.2037  1.6135  0.1693
16286TIP3   OH270348   4.575   3.241   3.720 -0.0547  0.0829 -0.1136
16286TIP3    H170349   4.655   3.190   3.705  0.2308  1.1248 -2.8279
16286TIP3    H270350   4.521   3.225   3.642 -1.1416  1.7564  0.2307
16287TIP3   OH270351   5.341   1.512  12.272 -0.0463  0.0182 -0.9996
16287TIP3    H170352   5.424   1.502  12.225  0.6559 -2.2390  0.5204
16287TIP3    H270353   5.353   1.589  12.327  1.5414 -0.8701  0.0008
16288TIP3   OH270354   1.692   0.611   1.519  0.3470 -0.4900 -0.2862
16288TIP3    H170355   1.606   0.571   1.510  1.2270 -2.1677 -2.0793
16288TIP3    H270356   1.728   0.573   1.599  0.3142 -1.6790 -0.8136
16289TIP3   OH270357   5.851   2.262  15.844  0.0138 -0.2589  0.4822
16289TIP3    H170358   5.755   2.270  15.841 -0.0705 -1.2527 -1.6842
16289TIP3    H270359   5.882   2.352  15.856 -1.1763  0.3576 -0.7355
16290TIP3   OH270360   6.146   1.600  16.556 -0.1998  0.0612 -0.8038
16290TIP3    H170361   6.140   1.689  16.521 -0.8475  0.1657 -0.4442
16290TIP3    H270362   6.096   1.546  16.494 -0.6365  0.1124 -0.5054
16291TIP3   OH270363   5.353   6.168  14.383  0.6309  0.0264 -0.7352
16291TIP3    H170364   5.288   6.133  14.322  0.8417 -0.4610 -0.6841
16291TIP3    H270365   5.373   6.256  14.349  1.0201 -0.3782 -1.5890
16292TIP3   OH270366   3.617   5.354  13.161  0.0134  0.5424  0.0862
16292TIP3    H170367   3.689   5.403  13.121 -1.0924  0.6597 -1.9211
16292TIP3    H270368   3.540   5.407  13.142 -0.6068  0.6213  2.5309
16293TIP3   OH270369   1.058   3.261  15.518  0.3105  0.1818  0.3430
16293TIP3    H170370   1.043   3.168  15.498 -1.3853  0.8705 -2.0240
16293TIP3    H270371   0.974   3.291  15.552 -0.1185  1.4253 -1.6373
16294TIP3   OH270372   2.868   1.593   0.936 -0.6582  0.2155  0.5149
16294TIP3    H170373   2.843   1.583   0.844  1.4247 -0.0702 -0.0825
16294TIP3    H270374   2.808   1.535   0.984  1.0474 -3.2911 -1.2074
16295TIP3   OH270375   2.872   6.089   5.844 -0.7173 -0.2390 -0.4638
16295TIP3    H170376   2.813   6.101   5.919 -1.1134  0.5995 -0.8981
16295TIP3    H270377   2.911   6.002   5.858  0.1916  0.4030  1.3875
16296TIP3   OH270378   0.413   3.934  11.994 -0.5207  0.0247 -0.5325
16296TIP3    H170379   0.476   3.983  11.941 -0.4713  0.0212 -0.4778
16296TIP3    H270380   0.467   3.887  12.057 -0.5981  0.2185 -0.3234
16297TIP3   OH270381   2.848   4.598   6.342  0.5585 -0.2230  0.2284
16297TIP3    H170382   2.865   4.613   6.435 -1.0063  1.4663  0.2980
16297TIP3    H270383   2.754   4.579   6.338  0.7150 -0.8131 -0.9750
16298TIP3   OH270384   4.622   2.422  14.296 -0.0801 -0.2343  0.0829
16298TIP3    H170385   4.660   2.421  14.208 -1.5714 -0.1035 -0.5978
16298TIP3    H270386   4.600   2.514  14.312 -0.7283 -0.3903  0.1534
16299TIP3   OH270387   0.633   0.587   6.344 -0.0026  0.3924 -0.0498
16299TIP3    H170388   0.693   0.614   6.414  1.7402  1.3312 -1.7871
16299TIP3    H270389   0.691   0.558   6.274 -1.6101  1.0786 -1.7320
16300TIP3   OH270390   5.822   6.271  12.092 -0.3161 -0.0079 -0.1038
16300TIP3    H170391   5.872   6.304  12.017 -2.3429  1.4596 -0.9181
16300TIP3    H270392   5.853   6.182  12.104  2.4702  0.8067 -0.5150
16301TIP3   OH270393   3.642   6.470  14.468 -0.0583  0.1862  0.2039
16301TIP3    H170394   3.681   6.383  14.475 -1.4423 -0.6179 -1.3449
16301TIP3    H270395   3.672   6.517  14.546  0.1874 -1.8869  1.4154
16302TIP3   OH270396   5.594   6.311   2.809  0.1353  0.2741 -0.2391
16302TIP3    H170397   5.499   6.308   2.799 -0.1554  0.0649  2.1950
16302TIP3    H270398   5.619   6.222   2.833  0.8507  0.5124 -0.0910
16303TIP3   OH270399   5.527   2.836   2.713 -0.5809  0.2136  0.5410
16303TIP3    H170400   5.604   2.830   2.769 -0.8279 -0.3737  0.8257
16303TIP3    H270401   5.550   2.901   2.646  0.0747  0.1976  0.7521
16304TIP3   OH270402   2.547   5.286   3.219  0.2723 -0.0681 -0.0992
16304TIP3    H170403   2.593   5.365   3.247  0.9847  0.1197 -1.6729
16304TIP3    H270404   2.513   5.307   3.133  0.1692 -1.3599 -0.4023
16305TIP3   OH270405   6.757   5.319  12.173 -0.3240  0.0669 -0.6354
16305TIP3    H170406   6.733   5.244  12.118 -0.0680  0.6058 -1.5000
16305TIP3    H270407   6.799   5.279  12.249  0.4053 -0.6549 -1.3904
16306TIP3   OH270408   0.074   3.612  13.836  0.0930  0.2762 -0.3553
16306TIP3    H170409   0.107   3.609  13.926  0.2064 -0.0527 -0.4062
16306TIP3    H270410  -0.021   3.601  13.845  0.1377 -0.0878 -0.2933
16307TIP3   OH270411   6.533   6.425  16.191  0.1576 -0.1838  0.0431
16307TIP3    H170412   6.528   6.425  16.096 -0.8335  0.7503  0.0694
16307TIP3    H270413   6.584   6.503  16.213 -0.1627 -0.0333  0.2787
16308TIP3   OH270414   2.948   4.064  11.495 -0.9056 -0.4982 -0.2876
16308TIP3    H170415   2.865   4.018  11.482 -0.2884 -1.1705 -2.2494
16308TIP3    H270416   3.003   4.033  11.424  0.8287  0.4354  0.5902
16309TIP3   OH270417   2.302   3.050   3.072 -0.1278 -0.5687 -0.1909
16309TIP3    H170418   2.242   3.101   3.016 -0.8383 -0.0684  0.9782
16309TIP3    H270419   2.389   3.083   3.051 -0.4323 -0.0474 -0.6522
16310TIP3   OH270420   1.039   6.286   1.226  0.1040 -0.0715  0.0150
16310TIP3    H170421   1.104   6.229   1.184 -1.8966  0.2807 -4.1062
16310TIP3    H270422   1.057   6.373   1.192 -2.1506  0.1055 -0.9152
16311TIP3   OH270423   2.470   5.233  15.035 -0.5040  1.1148 -0.2045
16311TIP3    H170424   2.499   5.294  14.966  0.3968 -0.2008 -1.0453
16311TIP3    H270425   2.406   5.177  14.992  0.2272  0.1378 -0.0535
16312TIP3   OH270426   3.182   4.206   6.007 -0.1470 -0.1874 -0.0366
16312TIP3    H170427   3.209   4.167   6.091  0.0075 -0.6329 -0.2908
16312TIP3    H270428   3.236   4.162   5.942  1.3937  1.7618 -0.1822
16313TIP3   OH270429   5.544   4.586  13.470 -0.1895 -0.1966 -0.2196
16313TIP3    H170430   5.554   4.499  13.431 -2.4463 -0.6286  0.0280
16313TIP3    H270431   5.467   4.578  13.527  0.3186  1.6381  0.7965
16314TIP3   OH270432   2.344   5.366   4.356  0.3330 -0.1165  0.2273
16314TIP3    H170433   2.252   5.377   4.333  0.6489  0.9356 -0.6475
16314TIP3    H270434   2.391   5.388   4.275  1.3167 -2.2108  0.1662
16315TIP3   OH270435   0.338   1.709  15.339  0.1428  0.1954 -0.4122
16315TIP3    H170436   0.354   1.796  15.376 -1.1235 -0.1208  0.9842
16315TIP3    H270437   0.248   1.713  15.306 -0.0151 -0.6488 -0.1097
16316TIP3   OH270438   3.462   0.454   1.004 -0.1852 -0.4176 -0.1672
16316TIP3    H170439   3.474   0.523   0.938 -1.8916  2.1260  2.0073
16316TIP3    H270440   3.538   0.462   1.061  0.4563 -1.5255 -0.8261
16317TIP3   OH270441   2.874   4.993  15.666 -0.1693 -0.0675 -0.0209
16317TIP3    H170442   2.904   5.049  15.737  0.6321  0.3829 -0.6935
16317TIP3    H270443   2.789   4.960  15.695 -0.1347  0.5985  0.8719
16318TIP3   OH270444   4.301   5.965  11.898  0.4287 -0.3783  0.2922
16318TIP3    H170445   4.334   5.928  11.816  2.1838  2.1865 -0.3083
16318TIP3    H270446   4.236   6.030  11.870  0.0657 -0.4215  1.0207
16319TIP3   OH270447   3.924   4.931   5.694  0.0996 -0.0235 -0.0438
16319TIP3    H170448   4.012   4.947   5.729  0.2737 -2.0209  0.5687
16319TIP3    H270449   3.874   4.900   5.770 -0.6625 -0.4879 -0.7292
16320TIP3   OH270450   5.968   4.211   5.404 -0.1912  0.1099 -0.0116
16320TIP3    H170451   6.001   4.152   5.471  0.9487 -0.7961 -1.3119
16320TIP3    H270452   5.910   4.156   5.351 -0.7423  0.7030 -0.0343
16321TIP3   OH270453   0.039   5.815  11.488 -0.0328  0.4975 -0.0312
16321TIP3    H170454  -0.015   5.808  11.567  1.4928 -1.3049  0.9399
16321TIP3    H270455  -0.014   5.867  11.428 -2.6375 -0.7270  1.0253
16322TIP3   OH270456   1.228   1.057  13.578 -0.4004  0.1096  0.0002
16322TIP3    H170457   1.247   0.984  13.637 -1.7208 -1.0500 -0.9214
16322TIP3    H270458   1.143   1.089  13.606 -0.7546 -0.0452 -0.8623
16323TIP3   OH270459   3.759   5.791   4.776 -0.2304  0.2195  0.3979
16323TIP3    H170460   3.831   5.742   4.736 -0.9710 -1.0232  0.5360
16323TIP3    H270461   3.705   5.724   4.817 -2.4677  0.8859 -1.2744
16324TIP3   OH270462   5.165   4.813   1.393 -0.2632  0.0167  0.6773
16324TIP3    H170463   5.232   4.762   1.439  1.4143  1.4017 -0.0897
16324TIP3    H270464   5.120   4.861   1.462  0.9512  0.6384  1.0676
16325TIP3   OH270465   1.506   5.516  14.806 -0.1260 -0.2271 -0.2774
16325TIP3    H170466   1.438   5.575  14.777 -0.4532 -0.5853 -0.2461
16325TIP3    H270467   1.509   5.447  14.739 -0.3692 -0.6551  0.1446
16326TIP3   OH270468   1.777   0.220   6.052  0.9911 -0.3406 -0.4726
16326TIP3    H170469   1.707   0.249   5.994  0.6458  0.4536  0.3141
16326TIP3    H270470   1.745   0.138   6.089  0.1034  0.3951  0.4656
16327TIP3   OH270471   5.971   3.991   3.100  0.0305  0.4077  0.3675
16327TIP3    H170472   5.879   4.016   3.095 -0.6488 -1.9809 -0.5230
16327TIP3    H270473   5.990   3.951   3.015  1.2184 -1.1268  1.2923
16328TIP3   OH270474   0.653   3.343  14.225  0.3224  0.1874  1.1756
16328TIP3    H170475   0.711   3.373  14.154  1.6023 -0.7752  1.7644
16328TIP3    H270476   0.711   3.293  14.283 -0.4641  1.8259  3.4968
16329TIP3   OH270477   2.111   6.819   5.221 -0.1956  0.0788 -0.0791
16329TIP3    H170478   2.182   6.860   5.270 -0.5633  0.0423  0.4911
16329TIP3    H270479   2.136   6.829   5.129  0.1693  0.7464  0.0900
16330TIP3   OH270480   3.401   2.529   4.823 -0.0259  0.4753 -0.3250
16330TIP3    H170481   3.462   2.455   4.816  1.8711  1.7501  1.5305
16330TIP3    H270482   3.387   2.556   4.732 -0.6145 -1.9782 -1.0371
16331TIP3   OH270483   2.075   2.164   0.918  0.1358 -0.9078 -0.1608
16331TIP3    H170484   2.023   2.186   0.996  1.6137  0.0475  0.5948
16331TIP3    H270485   2.089   2.070   0.925  0.3181 -0.8213  0.7821
16332TIP3   OH270486   5.962   2.006  12.136  0.7223  0.0649 -0.4450
16332TIP3    H170487   5.930   2.087  12.174 -0.3748 -0.8185  0.6027
16332TIP3    H270488   6.039   2.031  12.086  1.4182  1.4846  1.2625
16333TIP3   OH270489   6.787   1.432   0.861  0.3218  0.4414  0.2331
16333TIP3    H170490   6.818   1.424   0.770  0.4161 -1.4863  0.4056
16333TIP3    H270491   6.711   1.374   0.866  1.5749 -1.1392  1.9092
16334TIP3   OH270492   5.230   4.186  16.549 -0.4400 -0.0785  0.2440
16334TIP3    H170493   5.214   4.234  16.468 -0.9394  0.7791  0.8314
16334TIP3    H270494   5.212   4.250  16.618  1.9234 -0.1699  1.0300
16335TIP3   OH270495   3.210   5.932   1.673 -0.2979  0.0979  0.1159
16335TIP3    H170496   3.120   5.917   1.702 -0.5009 -0.1801 -0.6335
16335TIP3    H270497   3.243   5.999   1.732 -0.9599  0.1183  0.4764
16336TIP3   OH270498   0.359   1.980  12.459  0.0255 -0.3114  0.2485
16336TIP3    H170499   0.352   1.885  12.453  0.6022 -0.3611  0.3651
16336TIP3    H270500   0.326   2.011  12.374  0.4889 -0.6511 -0.0630
16337TIP3   OH270501   2.717   5.894  13.638  0.2572  0.1095  0.2607
16337TIP3    H170502   2.797   5.893  13.691 -0.1117 -1.1151  0.8129
16337TIP3    H270503   2.745   5.929  13.554  1.4709 -0.6698  0.3164
16338TIP3   OH270504   2.125   2.593  15.830  0.3826 -0.5083 -0.5459
16338TIP3    H170505   2.064   2.664  15.847  0.9338  0.1448 -1.2382
16338TIP3    H270506   2.107   2.529  15.898 -1.0619 -0.3261 -0.7371
16339TIP3   OH270507   3.943   1.996  11.389 -0.4824 -0.0577 -0.0749
16339TIP3    H170508   3.979   2.046  11.462 -1.7313  0.1578  0.4133
16339TIP3    H270509   3.884   1.932  11.430  0.1714 -1.1579 -0.7743
16340TIP3   OH270510   0.062   2.660   3.396  0.5191 -0.2218  0.1923
16340TIP3    H170511   0.139   2.628   3.442  1.5492  0.0483 -1.2929
16340TIP3    H270512  -0.007   2.660   3.463  1.2513 -2.4890  1.0443
16341TIP3   OH270513   5.942   3.366   0.859  0.2358  0.9715 -0.2034
16341TIP3    H170514   5.971   3.376   0.768  1.4451 -3.0349 -0.4929
16341TIP3    H270515   5.848   3.349   0.853  0.6096 -1.1105 -1.0159
16342TIP3   OH270516   1.627   3.437   4.512 -0.0521 -0.0741  0.0027
16342TIP3    H170517   1.579   3.402   4.437  1.3780 -0.8652 -0.5843
16342TIP3    H270518   1.624   3.366   4.577 -1.6322  0.7572  0.8990
16343TIP3   OH270519   5.587   1.589  17.015  0.2259 -0.5377  0.0253
16343TIP3    H170520   5.628   1.502  17.017  1.5342  0.0717  2.0626
16343TIP3    H270521   5.648   1.642  16.964 -0.2806 -0.6431 -0.7100
16344TIP3   OH270522   0.430   3.303   1.970 -0.2679 -0.0618 -0.0003
16344TIP3    H170523   0.464   3.303   1.880 -1.4971 -0.0234 -0.4732
16344TIP3    H270524   0.462   3.385   2.007 -0.1236  0.1324 -0.5457
16345TIP3   OH270525   1.980   5.634  12.895 -0.0721  0.7666 -0.0150
16345TIP3    H170526   2.014   5.562  12.948  0.5758  0.4619 -0.8131
16345TIP3    H270527   1.890   5.608  12.874  0.1566  0.1660 -0.3020
16346TIP3   OH270528   6.702   3.315   3.782  0.4369  0.0238  0.2487
16346TIP3    H170529   6.636   3.251   3.757  0.0166  0.6391 -0.2526
16346TIP3    H270530   6.737   3.348   3.699 -0.2467  1.3442  0.4484
16347TIP3   OH270531   1.531   0.492   2.282 -0.0279 -0.5939  0.3001
16347TIP3    H170532   1.582   0.573   2.287 -0.0866 -0.4731 -0.8313
16347TIP3    H270533   1.456   0.514   2.227 -0.1395 -1.3688  0.1234
16348TIP3   OH270534   6.364   3.899  12.894  0.0101 -0.1228 -0.4419
16348TIP3    H170535   6.316   3.863  12.820 -3.0297 -0.9700  1.7714
16348TIP3    H270536   6.360   3.831  12.962  0.1774  1.6718  1.4768
16349TIP3   OH270537   5.783   5.577  12.393  0.4515  0.1550  0.0877
16349TIP3    H170538   5.788   5.576  12.297 -0.5566  1.1112  0.0077
16349TIP3    H270539   5.864   5.621  12.420  1.0221 -0.6343 -0.2778
16350TIP3   OH270540   2.545   1.476   3.280  0.1682 -0.0849  0.2972
16350TIP3    H170541   2.604   1.512   3.214  0.7200 -1.5036 -0.0387
16350TIP3    H270542   2.505   1.400   3.237 -0.5738 -0.1719  1.1138
16351TIP3   OH270543   4.679   0.131   2.836  0.0007  0.4715 -0.0092
16351TIP3    H170544   4.723   0.072   2.775 -1.2985 -0.5889  0.0149
16351TIP3    H270545   4.685   0.086   2.921 -1.4831  0.0493 -0.0899
16352TIP3   OH270546   1.264   1.511   4.427 -0.5195  0.2639 -0.1487
16352TIP3    H170547   1.257   1.547   4.515  0.7189  1.6857 -0.5943
16352TIP3    H270548   1.334   1.447   4.432 -0.1491  0.6595 -0.1765
16353TIP3   OH270549   4.839   2.531  14.967  0.6734  0.1447 -0.4725
16353TIP3    H170550   4.808   2.544  15.056 -2.5791 -1.6462 -1.1896
16353TIP3    H270551   4.803   2.604  14.917  1.5000  0.5080 -0.5555
16354TIP3   OH270552   6.500   3.152  12.249 -0.4897 -0.0808 -1.0227
16354TIP3    H170553   6.515   3.082  12.312 -1.5587 -0.2852 -0.9695
16354TIP3    H270554   6.585   3.194  12.238 -0.1074 -0.5962 -0.1108
16355TIP3   OH270555   0.600   1.923  12.663 -0.2420 -0.3257  0.0390
16355TIP3    H170556   0.685   1.966  12.655 -1.2792  2.1280  1.2846
16355TIP3    H270557   0.557   1.938  12.579  0.3635 -1.2382 -0.4539
16356TIP3   OH270558   6.087   6.616   2.679 -0.2943 -0.3397  0.4334
16356TIP3    H170559   6.037   6.683   2.633 -0.6152 -1.0897 -0.3410
16356TIP3    H270560   6.035   6.596   2.757  0.3420  1.0695  1.2786
16357TIP3   OH270561   3.292   5.409  11.407 -0.2941 -0.2559 -0.2190
16357TIP3    H170562   3.387   5.422  11.403 -0.2094 -0.0069  1.7470
16357TIP3    H270563   3.281   5.336  11.468 -1.4177  0.5963  0.6171
16358TIP3   OH270564   0.737   3.257   6.136 -0.5439  0.0790 -0.3854
16358TIP3    H170565   0.832   3.266   6.138 -0.6105  0.7481  0.2556
16358TIP3    H270566   0.716   3.202   6.212 -0.6121 -0.7297 -0.9791
16359TIP3   OH270567   2.423   5.528  11.101 -0.7003  0.0569 -0.1404
16359TIP3    H170568   2.487   5.475  11.149 -0.1832 -0.3803 -1.2722
16359TIP3    H270569   2.463   5.541  11.015 -2.1932 -0.3349 -0.9222
16360TIP3   OH270570   2.497   5.563  14.673 -0.1286 -0.2804  0.2647
16360TIP3    H170571   2.549   5.490  14.706 -0.6983 -0.8086  0.0364
16360TIP3    H270572   2.435   5.522  14.612 -1.0410  0.2730  0.7992
16361TIP3   OH270573   3.264   6.091   4.715  0.7021 -0.1244 -0.0298
16361TIP3    H170574   3.245   6.018   4.774  0.4769  0.2817  0.4061
16361TIP3    H270575   3.205   6.161   4.743 -0.0874 -0.2320 -1.3453
16362TIP3   OH270576   1.001   3.783  13.941 -0.4449  0.2888  0.3423
16362TIP3    H170577   0.989   3.747  13.853 -0.4629 -1.4913  1.0362
16362TIP3    H270578   0.913   3.792  13.976 -0.3922 -0.1415  0.5971
16363TIP3   OH270579   3.770   2.123   5.451  0.0043 -0.3190 -0.4044
16363TIP3    H170580   3.761   2.206   5.496  1.3472 -0.2861 -0.1474
16363TIP3    H270581   3.825   2.070   5.509 -0.3361 -1.1661 -0.8356
16364TIP3   OH270582   3.240   0.229  11.802  0.2195  0.3918  0.0177
16364TIP3    H170583   3.174   0.189  11.745  1.0216 -0.7754 -0.1172
16364TIP3    H270584   3.216   0.200  11.890  0.0823  0.6259  0.0559
16365TIP3   OH270585   0.226   1.851   5.594 -0.0666 -0.0219  0.2807
16365TIP3    H170586   0.185   1.821   5.675  0.1814 -1.0782  0.0314
16365TIP3    H270587   0.173   1.813   5.524  0.6713 -0.4794 -0.0426
16366TIP3   OH270588   1.165   2.679  14.015  0.3238 -0.3252 -0.2137
16366TIP3    H170589   1.088   2.729  13.987  0.1951 -0.8555 -0.8188
16366TIP3    H270590   1.154   2.669  14.110 -0.4014 -0.4770 -0.3082
16367TIP3   OH270591   3.238   2.666  12.857 -0.1220 -0.3549  0.2435
16367TIP3    H170592   3.162   2.639  12.805  0.2174 -0.8366 -0.0150
16367TIP3    H270593   3.241   2.602  12.928 -1.5073  1.1904  1.8040
16368TIP3   OH270594   5.977   5.199  13.670  0.3670  0.0973  0.3429
16368TIP3    H170595   6.057   5.239  13.705 -0.1709  0.1400  1.5676
16368TIP3    H270596   6.005   5.112  13.642  0.5924 -0.4162  2.0399
16369TIP3   OH270597   5.841   5.462  16.024 -0.6342 -0.2648  0.1814
16369TIP3    H170598   5.764   5.456  15.967 -0.1940  2.2969 -0.8250
16369TIP3    H270599   5.805   5.469  16.113 -1.5222 -0.0748 -0.1808
16370TIP3   OH270600   6.275   1.304  10.994  0.1532  0.1102  0.6233
16370TIP3    H170601   6.286   1.290  10.900 -4.3150 -1.6535  0.1322
16370TIP3    H270602   6.309   1.224  11.034 -0.9224 -0.6056  0.1510
16371TIP3   OH270603   6.326   3.306  15.377  0.6935 -0.3559 -0.1252
16371TIP3    H170604   6.297   3.325  15.466  0.3461 -2.1300  0.1746
16371TIP3    H270605   6.262   3.243  15.344  0.5350  0.6126 -1.8267
16372TIP3   OH270606   6.426   6.608  13.390  0.7140 -0.2036  0.7556
16372TIP3    H170607   6.427   6.541  13.321  0.6461  0.4417  0.1230
16372TIP3    H270608   6.435   6.558  13.471  0.9299 -0.9627  0.2764
16373TIP3   OH270609   4.972   3.214  15.700 -0.2503 -0.6351  1.1167
16373TIP3    H170610   5.057   3.186  15.734  0.0279 -1.4268 -0.1558
16373TIP3    H270611   4.954   3.154  15.628 -0.3207  1.5389 -0.8024
16374TIP3   OH270612   5.555   5.147  13.804 -0.7006  0.0831  0.0127
16374TIP3    H170613   5.533   5.191  13.722 -0.4218  1.0847  0.4474
16374TIP3    H270614   5.522   5.058  13.794 -0.0263 -0.0351 -1.4721
16375TIP3   OH270615   1.101   0.137  14.005  0.5176 -0.0211  0.4858
16375TIP3    H170616   1.142   0.138  13.919  0.1044  0.9494  0.2900
16375TIP3    H270617   1.152   0.198  14.057 -0.1583  0.5835  0.4683
16376TIP3   OH270618   1.606   5.519  10.684  0.0807 -0.4977  0.5356
16376TIP3    H170619   1.679   5.461  10.707 -0.2005 -1.7508 -1.4477
16376TIP3    H270620   1.599   5.511  10.589 -1.1004  1.4997  0.4040
16377TIP3   OH270621   1.232   4.861   0.897 -0.9027  0.4118 -0.4115
16377TIP3    H170622   1.280   4.782   0.869 -1.9445  0.1229 -1.4838
16377TIP3    H270623   1.232   4.856   0.993 -1.7519 -1.4138 -0.4615
16378TIP3   OH270624   4.906   2.655  11.665  0.3780  0.7737 -0.1880
16378TIP3    H170625   4.864   2.594  11.605  1.8846 -1.6851  1.0598
16378TIP3    H270626   4.868   2.633  11.751  2.0520  0.4410  0.5146
16379TIP3   OH270627   2.514   3.869  13.809  0.4268 -0.1485 -0.3092
16379TIP3    H170628   2.511   3.785  13.855  0.5664 -0.1927 -0.3810
16379TIP3    H270629   2.607   3.892  13.807  0.4510 -0.2893 -0.8368
16380TIP3   OH270630   6.663   0.013  11.290 -0.0326  0.0485 -0.0010
16380TIP3    H170631   6.610  -0.036  11.354  0.4073 -1.7074 -0.9021
16380TIP3    H270632   6.603   0.029  11.218 -0.4300  1.7244  0.6524
16381TIP3   OH270633   4.998   6.670  14.073  0.3232  0.6221 -0.3164
16381TIP3    H170634   4.955   6.617  14.141 -0.3429  1.3374 -0.1636
16381TIP3    H270635   4.925   6.703  14.019  0.8641 -0.3686 -1.7164
16382TIP3   OH270636   1.504   4.869   6.851 -0.0339 -0.1622  0.3921
16382TIP3    H170637   1.554   4.950   6.848 -0.5873  0.2821  2.2326
16382TIP3    H270638   1.569   4.800   6.838  0.4293  0.5224 -1.2966
16383TIP3   OH270639   5.277   6.084  16.065 -0.1462  0.1129  0.9213
16383TIP3    H170640   5.199   6.057  16.016  0.3889 -1.6064  0.9566
16383TIP3    H270641   5.324   6.003  16.083  2.6233  1.2163 -0.6636
16384TIP3   OH270642   2.911   0.632   3.805  0.0346  0.0083  0.0568
16384TIP3    H170643   2.848   0.573   3.763 -0.4363  2.4073 -3.0065
16384TIP3    H270644   2.935   0.694   3.736  3.1397  1.3279  2.0976
16385TIP3   OH270645   3.253   0.425  14.137 -0.2683 -0.1376 -0.8772
16385TIP3    H170646   3.310   0.501  14.144 -0.0624 -0.4153  1.1214
16385TIP3    H270647   3.195   0.432  14.213  1.2078 -3.0896  0.6827
16386TIP3   OH270648   3.925   0.657   0.969  0.2025 -0.9977  0.4657
16386TIP3    H170649   3.977   0.644   1.049 -0.5183  0.6316  1.2609
16386TIP3    H270650   3.834   0.655   0.998 -0.0707 -0.3907 -0.2929
16387TIP3   OH270651   5.152   3.360  15.883 -0.3616  0.0882  0.4311
16387TIP3    H170652   5.199   3.294  15.832  0.4286  0.1812  1.0064
16387TIP3    H270653   5.214   3.432  15.892 -1.1335  0.8231  0.0149
16388TIP3   OH270654   4.855   6.322   4.281 -0.5483 -0.2476 -0.0093
16388TIP3    H170655   4.918   6.394   4.271  1.1635 -1.3413  2.2428
16388TIP3    H270656   4.843   6.313   4.375  0.0352 -3.4756 -0.1294
16389TIP3   OH270657   3.834   1.782  11.506 -0.4738 -0.3520  0.0561
16389TIP3    H170658   3.758   1.772  11.449 -2.0067  1.0586  1.7523
16389TIP3    H270659   3.806   1.749  11.591  1.1911 -0.8334  0.4536
16390TIP3   OH270660   1.300   0.214  14.436 -0.0452  0.3826  0.0931
16390TIP3    H170661   1.394   0.229  14.446  0.1779 -0.5263 -0.5098
16390TIP3    H270662   1.282   0.139  14.493 -0.8148  1.7637  1.7577
16391TIP3   OH270663   1.054   3.853  10.958 -0.1098 -0.2363 -0.2322
16391TIP3    H170664   1.115   3.917  10.994 -1.0739 -0.0173  1.1208
16391TIP3    H270665   1.027   3.889  10.874  0.9576  0.0883 -0.4416
16392TIP3   OH270666   3.458   1.175   3.119 -0.9106  0.9465 -0.0151
16392TIP3    H170667   3.398   1.230   3.170  0.0305  2.2020 -0.2236
16392TIP3    H270668   3.448   1.206   3.029 -1.0395  0.1343 -0.2914
16393TIP3   OH270669   2.734   2.648   1.346  0.7120  0.0545 -0.1461
16393TIP3    H170670   2.713   2.575   1.404 -1.8121  0.1002 -0.8812
16393TIP3    H270671   2.794   2.611   1.282  0.2753 -1.1174  0.0974
16394TIP3   OH270672   4.569   3.788  13.000  0.4881 -0.2410 -0.5432
16394TIP3    H170673   4.526   3.747  13.075  1.3614 -0.3834 -0.1034
16394TIP3    H270674   4.518   3.868  12.984  0.8990  0.3496  0.8915
16395TIP3   OH270675   5.350   0.509  15.544  0.6255 -0.0696  0.0852
16395TIP3    H170676   5.271   0.484  15.495  1.5895  1.4006 -2.4301
16395TIP3    H270677   5.395   0.427  15.562  0.9772 -0.6727 -2.9794
16396TIP3   OH270678   0.989   2.584   1.740  0.0156  0.0139  0.3143
16396TIP3    H170679   0.915   2.583   1.801  0.4698 -0.7781  0.8720
16396TIP3    H270680   1.035   2.666   1.758 -1.3586  1.0779 -0.8360
16397TIP3   OH270681   3.652   4.410   1.275  0.1215  0.7697  1.3388
16397TIP3    H170682   3.611   4.457   1.203  0.2569 -0.6253  0.3055
16397TIP3    H270683   3.729   4.369   1.237 -0.5369 -1.1272  1.8923
16398TIP3   OH270684   0.076   1.812  12.986  0.0618  0.6512  0.2497
16398TIP3    H170685   0.017   1.860  13.044 -2.1830  1.7097 -2.6725
16398TIP3    H270686   0.112   1.879  12.928  0.6519 -0.5795 -0.8597
16399TIP3   OH270687   4.985   4.749   3.257 -0.6943  0.0541 -0.1265
16399TIP3    H170688   4.947   4.662   3.251 -2.8302  0.9686 -1.0458
16399TIP3    H270689   5.031   4.761   3.173 -0.3825 -0.1696  0.0085
16400TIP3   OH270690   2.902   5.224   2.599  0.4671 -0.2047  0.2063
16400TIP3    H170691   2.946   5.144   2.626  0.6810 -0.5674 -1.1608
16400TIP3    H270692   2.970   5.292   2.608  1.0991 -0.6232 -1.0825
16401TIP3   OH270693   4.209   1.012   2.366 -0.2212  0.3480 -0.6053
16401TIP3    H170694   4.296   0.974   2.376  0.2125  1.7902  2.1207
16401TIP3    H270695   4.171   0.966   2.291  1.4720 -3.0000  0.3841
16402TIP3   OH270696   4.820   4.136   1.164  0.2714 -0.3160 -0.4494
16402TIP3    H170697   4.871   4.171   1.091 -1.0345 -0.0070 -1.2376
16402TIP3    H270698   4.827   4.202   1.233  0.4364 -0.0028 -0.7694
16403TIP3   OH270699   6.125   1.267  10.517  0.2031 -0.0592 -0.6136
16403TIP3    H170700   6.173   1.329  10.573  0.6572  0.0706 -1.1348
16403TIP3    H270701   6.185   1.249  10.444  1.2166 -3.2306  0.8408
16404TIP3   OH270702   0.862   2.931  12.038  0.0129 -0.1339 -0.5730
16404TIP3    H170703   0.829   2.912  11.950 -0.9062 -0.3613 -0.1923
16404TIP3    H270704   0.801   2.996  12.073  1.1136  0.9244 -0.5636
16405TIP3   OH270705   4.575   3.537  14.533  0.7959  0.3548 -0.1791
16405TIP3    H170706   4.656   3.491  14.554  0.5539  0.3986  0.8955
16405TIP3    H270707   4.538   3.561  14.618 -1.2346 -1.1879 -0.5452
16406TIP3   OH270708   4.489   2.154   2.058 -0.1831  0.3856 -0.0932
16406TIP3    H170709   4.424   2.102   2.012 -1.1716 -0.8010  2.5106
16406TIP3    H270710   4.496   2.114   2.144  2.1673  2.0289  0.5728
16407TIP3   OH270711   4.283   2.219   1.741  0.0237 -0.7261  0.5665
16407TIP3    H170712   4.271   2.126   1.722 -0.8041 -0.3650 -0.8057
16407TIP3    H270713   4.376   2.234   1.726  0.0360 -1.2026  0.1305
16408TIP3   OH270714   3.296   0.964  15.547 -0.1869 -0.0881  0.1715
16408TIP3    H170715   3.331   0.947  15.459 -1.7176  2.7672 -1.1192
16408TIP3    H270716   3.363   1.016  15.590 -0.3242  0.3414 -0.1252
16409TIP3   OH270717   5.194   3.060  15.524 -0.0786  0.1631  0.3243
16409TIP3    H170718   5.271   3.015  15.489  0.7113  0.2416  1.8673
16409TIP3    H270719   5.170   3.124  15.457 -0.2922 -1.4934 -1.2260
16410TIP3   OH270720   0.122   6.286  15.569  0.0530 -0.0707  0.1821
16410TIP3    H170721   0.067   6.352  15.527 -1.4416 -1.9191 -0.9178
16410TIP3    H270722   0.188   6.264  15.503 -0.3216 -0.6852  0.0123
16411TIP3   OH270723   0.181   0.212   2.786 -0.3886 -0.0313  0.7340
16411TIP3    H170724   0.245   0.165   2.733 -0.2632 -2.1053  2.6065
16411TIP3    H270725   0.102   0.214   2.731  0.7700  1.3420 -1.0328
16412TIP3   OH270726   2.370   0.428  16.052 -0.3844  0.2353  0.0243
16412TIP3    H170727   2.336   0.339  16.068  1.8108 -0.4375  1.4496
16412TIP3    H270728   2.370   0.469  16.139  0.7195  0.7968 -0.2184
16413TIP3   OH270729   6.194   6.595  12.712  0.0598 -0.1420 -0.0368
16413TIP3    H170730   6.113   6.578  12.761 -0.3894  0.1836 -0.6531
16413TIP3    H270731   6.260   6.613  12.779 -0.3722 -0.4562  0.4728
16414TIP3   OH270732   2.258   0.025   1.108  0.1100  0.6162 -0.3851
16414TIP3    H170733   2.255   0.008   1.014 -1.6783  0.4365 -0.3290
16414TIP3    H270734   2.349   0.009   1.132  0.0719 -1.8900 -1.6175
16415TIP3   OH270735   6.199   1.769   0.960 -0.0534 -0.7605 -0.2489
16415TIP3    H170736   6.191   1.855   1.001 -1.1179 -0.1959 -1.5541
16415TIP3    H270737   6.220   1.710   1.033 -2.9717 -0.0110  1.3873
16416TIP3   OH270738   2.215   3.293   5.790  0.0024  0.1363 -0.1051
16416TIP3    H170739   2.179   3.310   5.702  0.6438  0.4027 -0.3182
16416TIP3    H270740   2.308   3.278   5.776 -0.3511 -3.0521  0.1276
16417TIP3   OH270741   5.344   2.351  13.886  0.2622  0.1649  0.5978
16417TIP3    H170742   5.363   2.380  13.975 -1.1437  1.3285  0.5428
16417TIP3    H270743   5.416   2.387  13.833  1.1412 -0.5899  1.2361
16418TIP3   OH270744   4.204   1.965   4.933  0.1188 -0.2370  1.1001
16418TIP3    H170745   4.112   1.971   4.908 -0.0177  0.2087  1.6878
16418TIP3    H270746   4.238   2.053   4.916  0.4760 -0.4373  0.7531
16419TIP3   OH270747   4.146   0.565  15.634 -0.0874  0.0140 -0.3979
16419TIP3    H170748   4.173   0.654  15.653  1.2464 -0.6029  0.7405
16419TIP3    H270749   4.051   0.566  15.646 -0.0659  1.2103 -0.1985
16420TIP3   OH270750   6.466   3.165   3.700  0.0082  0.0593 -0.1188
16420TIP3    H170751   6.486   3.117   3.619 -0.1375 -0.2530  0.0315
16420TIP3    H270752   6.431   3.249   3.669 -1.9949 -0.8221 -0.4109
16421TIP3   OH270753   3.433   0.589  11.318 -0.2290 -0.5054 -0.2401
16421TIP3    H170754   3.378   0.663  11.291 -0.4079 -0.6929 -0.3897
16421TIP3    H270755   3.486   0.624  11.389  0.6457  0.1619 -1.1970
16422TIP3   OH270756   3.519   0.482   4.278 -0.0506 -0.2838 -0.3532
16422TIP3    H170757   3.430   0.449   4.291  0.1016 -0.3418  0.6750
16422TIP3    H270758   3.570   0.405   4.254  0.4491 -1.0548  2.7358
16423TIP3   OH270759   0.016   4.500   5.159 -0.5805 -0.8495 -0.1522
16423TIP3    H170760   0.016   4.565   5.230  0.2385  0.2459 -1.1192
16423TIP3    H270761  -0.071   4.509   5.120 -0.9947 -1.3766  0.6259
16424TIP3   OH270762   6.749   5.173  13.080 -0.4835  0.0356 -0.2076
16424TIP3    H170763   6.690   5.249  13.078 -3.6728 -2.2067  0.4052
16424TIP3    H270764   6.779   5.169  13.171 -0.5389  0.3868 -0.1720
16425TIP3   OH270765   2.346   3.529   1.909  0.1169  0.1524 -0.0143
16425TIP3    H170766   2.277   3.476   1.948 -0.9869  0.3702 -1.5909
16425TIP3    H270767   2.427   3.488   1.939 -0.6846 -0.4251  1.4421
16426TIP3   OH270768   6.134   0.421   3.336  0.5612 -0.3770  0.5204
16426TIP3    H170769   6.226   0.417   3.363 -0.0176  1.3116  3.0346
16426TIP3    H270770   6.110   0.513   3.346 -0.7853 -0.2866 -2.5461
16427TIP3   OH270771   5.193   5.222  10.909 -0.8593  0.3678 -0.2402
16427TIP3    H170772   5.132   5.153  10.885  1.1948 -1.5309 -0.2827
16427TIP3    H270773   5.250   5.232  10.833  0.5938  0.1042  0.7604
16428TIP3   OH270774   6.295   3.310   5.437 -0.3401 -0.3946 -0.2228
16428TIP3    H170775   6.373   3.281   5.485 -1.3527 -1.4786  0.8261
16428TIP3    H270776   6.250   3.230   5.413 -1.0069  0.2135 -1.0543
16429TIP3   OH270777   5.990   2.895   3.413  0.5113 -0.4332 -0.3542
16429TIP3    H170778   6.002   2.957   3.485  0.3532  0.3335 -0.9614
16429TIP3    H270779   6.013   2.810   3.449 -0.9132 -0.2781  0.9929
16430TIP3   OH270780   5.876   1.385  12.589 -0.6206  0.4984  0.1029
16430TIP3    H170781   5.803   1.324  12.574 -1.0673  0.8135  0.9693
16430TIP3    H270782   5.873   1.444  12.514  0.8984 -1.5601 -1.7049
16431TIP3   OH270783   3.240   0.651   4.089 -0.2529  0.3600 -0.3407
16431TIP3    H170784   3.179   0.686   4.153  2.4568 -0.1742  2.8406
16431TIP3    H270785   3.304   0.721   4.075  0.5616 -0.3926 -0.5042
16432TIP3   OH270786   2.827   4.345   3.238 -0.1851  0.1403 -0.5444
16432TIP3    H170787   2.853   4.253   3.245  0.1804  0.1533 -1.5911
16432TIP3    H270788   2.773   4.360   3.315  0.1362 -0.8250 -0.1122
16433TIP3   OH270789   2.061   1.127   0.287 -0.4547 -0.3076 -0.4070
16433TIP3    H170790   2.064   1.037   0.255  0.6608 -0.4768  0.1377
16433TIP3    H270791   2.061   1.119   0.382 -2.4127  0.2323 -0.3343
16434TIP3   OH270792   1.576   0.793  13.533  0.0406 -0.7635 -0.2255
16434TIP3    H170793   1.532   0.843  13.601  0.1540 -3.2231  1.7876
16434TIP3    H270794   1.533   0.708  13.534  1.7017 -1.6841 -1.5145
16435TIP3   OH270795   0.613   6.583  11.116 -0.4599  0.5934 -0.2234
16435TIP3    H170796   0.615   6.679  11.125 -1.5780  0.5742  0.3537
16435TIP3    H270797   0.522   6.560  11.130  0.1332 -0.7707  1.8387
16436TIP3   OH270798   6.046   2.889   1.693  0.0750 -0.1102  0.6028
16436TIP3    H170799   6.115   2.902   1.758  0.1198  1.1318  0.3273
16436TIP3    H270800   5.995   2.969   1.696 -0.2025 -0.2249 -0.5756
16437TIP3   OH270801   4.766   1.527  14.512 -0.0653  0.2368 -0.0136
16437TIP3    H170802   4.824   1.593  14.475  1.1289 -0.7756  0.0088
16437TIP3    H270803   4.725   1.571  14.587  0.2243  1.1437 -0.3738
16438TIP3   OH270804   6.340   3.367  13.388  0.2081  0.5780  0.4287
16438TIP3    H170805   6.333   3.458  13.418  0.3523  0.4349  0.8975
16438TIP3    H270806   6.378   3.320  13.462  2.6229  0.6178 -0.7052
16439TIP3   OH270807   0.276   4.367  12.240  0.0144  0.1433 -0.5976
16439TIP3    H170808   0.220   4.359  12.317  1.0943  2.3758  0.5194
16439TIP3    H270809   0.305   4.277  12.222 -1.0898 -0.5659  0.9404
16440TIP3   OH270810   3.551   0.384   0.551 -0.4332  0.1200 -0.3109
16440TIP3    H170811   3.510   0.301   0.529  1.0061 -0.9787  0.9020
16440TIP3    H270812   3.479   0.446   0.558 -1.5964 -1.1530 -0.6610
16441TIP3   OH270813   6.165   1.396   2.938  0.1048 -0.4667 -0.3660
16441TIP3    H170814   6.235   1.395   2.874  0.2304 -1.2918 -0.2351
16441TIP3    H270815   6.203   1.437   3.015 -0.8181  3.0013 -1.5986
16442TIP3   OH270816   3.533   4.032  13.661  0.2133  0.2093 -0.2265
16442TIP3    H170817   3.499   3.943  13.657  0.3111  0.0837  1.0736
16442TIP3    H270818   3.455   4.087  13.670  0.1872 -0.1776  4.1640
16443TIP3   OH270819   6.817   5.213  16.882 -0.1118 -0.1643 -0.4798
16443TIP3    H170820   6.738   5.199  16.829 -1.7363 -0.3061  1.8063
16443TIP3    H270821   6.823   5.307  16.893  1.7004  0.0824 -2.8850
16444TIP3   OH270822   6.644   1.594  17.136  0.3288 -0.5700 -0.5164
16444TIP3    H170823   6.577   1.647  17.093  0.3717  0.9083  1.1292
16444TIP3    H270824   6.598   1.555  17.211  1.1918  0.1556  0.4109
16445TIP3   OH270825   5.953   3.355  11.700 -0.0936 -0.1023 -0.7254
16445TIP3    H170826   5.929   3.368  11.608 -2.0616  1.6122 -0.0623
16445TIP3    H270827   5.951   3.443  11.738 -0.1917 -0.8490  1.1307
16446TIP3   OH270828   6.429   4.927   4.164 -0.0249 -0.2195 -0.0379
16446TIP3    H170829   6.347   4.928   4.213  0.2519 -0.6147  0.4430
16446TIP3    H270830   6.409   4.971   4.082 -0.1839  1.5998  0.9259
16447TIP3   OH270831   6.314   5.726  15.308 -0.7505  0.3585 -0.3106
16447TIP3    H170832   6.237   5.782  15.297 -1.3417 -0.3527  0.0843
16447TIP3    H270833   6.309   5.665  15.235 -1.6470 -0.9036  0.7599
16448TIP3   OH270834   0.215   1.026   5.527  0.1698 -0.1347  0.0533
16448TIP3    H170835   0.280   1.089   5.497  0.2152  0.4865  1.3892
16448TIP3    H270836   0.227   0.950   5.470  2.7186 -0.4275  0.8645
16449TIP3   OH270837   4.695   0.002  16.417 -0.0724  0.1420  0.3645
16449TIP3    H170838   4.638   0.046  16.354  1.2858  0.6165 -0.5667
16449TIP3    H270839   4.738   0.073  16.464  1.2419 -0.1643 -0.3259
16450TIP3   OH270840   3.444   1.814  16.124 -0.3438  0.6648 -0.3541
16450TIP3    H170841   3.402   1.886  16.171 -0.2334  0.5610 -0.0952
16450TIP3    H270842   3.522   1.853  16.086 -0.3290  0.7019 -0.2850
16451TIP3   OH270843   5.150   3.680  11.253 -0.4617 -0.1424 -0.2066
16451TIP3    H170844   5.197   3.759  11.225 -1.4534  1.1204  1.4935
16451TIP3    H270845   5.182   3.611  11.195 -1.4360  1.9866 -3.5506
16452TIP3   OH270846   4.815   0.870   5.297  0.2380 -0.2684  0.0782
16452TIP3    H170847   4.790   0.835   5.382  1.1631 -2.0480 -0.3423
16452TIP3    H270848   4.736   0.859   5.243 -0.6198  1.5985  0.8553
16453TIP3   OH270849   2.836   2.433   0.812 -0.2064  0.5484 -0.3725
16453TIP3    H170850   2.765   2.452   0.752 -2.0504  1.2231  1.8853
16453TIP3    H270851   2.840   2.337   0.816  0.8824  0.4452 -2.4998
16454TIP3   OH270852   1.448   0.825   3.770  0.3595 -0.2419  0.2231
16454TIP3    H170853   1.539   0.854   3.773  0.3139  0.4415 -2.5310
16454TIP3    H270854   1.397   0.905   3.774  0.0164 -0.3691 -1.1213
16455TIP3   OH270855   5.021   4.997   5.532 -0.0001  0.0130  0.0336
16455TIP3    H170856   5.008   5.091   5.547 -0.3320 -0.1320  0.7178
16455TIP3    H270857   5.071   4.967   5.608 -0.3101 -0.4515  0.0604
16456TIP3   OH270858   5.305   3.852  11.602 -0.2907 -0.1097 -0.3186
16456TIP3    H170859   5.215   3.824  11.622 -0.0194  0.0212  1.2213
16456TIP3    H270860   5.358   3.811  11.670  0.4755  1.8716  0.3666
16457TIP3   OH270861   4.889   6.131  17.019 -0.0662 -0.3873  0.4091
16457TIP3    H170862   4.840   6.102  17.096 -1.3700  1.4603  0.3410
16457TIP3    H270863   4.833   6.112  16.945  1.3657 -2.5542 -0.2304
16458TIP3   OH270864   6.382   0.362   0.440 -0.1831  0.0700 -0.0019
16458TIP3    H170865   6.352   0.275   0.411  0.8251 -0.0334 -0.8296
16458TIP3    H270866   6.403   0.408   0.358  2.2751 -0.0387  0.4775
16459TIP3   OH270867   3.051   4.283  12.937  0.4231  0.3536  0.4137
16459TIP3    H170868   2.989   4.254  13.004 -1.0208 -0.9687 -1.3645
16459TIP3    H270869   3.106   4.206  12.921  0.2569  0.3927 -0.4034
16460TIP3   OH270870   0.990   2.707   5.946  0.4610  0.1805  0.8433
16460TIP3    H170871   1.051   2.634   5.954 -0.9622 -1.2205 -0.4144
16460TIP3    H270872   0.954   2.699   5.857 -1.7201  0.7733  1.6087
16461TIP3   OH270873   2.639   6.234   3.635 -0.1250  1.2077  0.0256
16461TIP3    H170874   2.573   6.287   3.588 -0.2937  0.9365 -0.0495
16461TIP3    H270875   2.670   6.172   3.569 -0.5215  0.6779  0.3246
16462TIP3   OH270876   0.557   0.525   0.615  0.1048 -0.3412  0.1445
16462TIP3    H170877   0.513   0.578   0.548 -0.3217  1.5438  1.8334
16462TIP3    H270878   0.576   0.587   0.686  0.6924 -2.2260  1.7060
16463TIP3   OH270879   6.430   1.424   2.852 -0.5198  0.3036 -0.5479
16463TIP3    H170880   6.507   1.376   2.881 -0.1102  0.9064 -0.6055
16463TIP3    H270881   6.401   1.378   2.773 -2.9965 -2.7470  1.8586
16464TIP3   OH270882   3.533   3.211  12.539  0.8909  0.1000 -0.6273
16464TIP3    H170883   3.588   3.142  12.502  1.6297  0.5370 -0.3950
16464TIP3    H270884   3.491   3.252  12.464 -1.1852 -1.8898 -0.6382
16465TIP3   OH270885   2.077   2.080   5.488 -0.7670  0.0392 -0.2501
16465TIP3    H170886   2.000   2.124   5.455 -0.9376 -1.6707 -2.3720
16465TIP3    H270887   2.150   2.137   5.463 -1.2169  1.0466  0.6580
16466TIP3   OH270888   6.243   5.720   1.432 -0.2060  0.5780  0.8752
16466TIP3    H170889   6.329   5.730   1.391  1.1516  0.0247  3.3915
16466TIP3    H270890   6.241   5.788   1.499 -1.8187  0.6519  0.7947
16467TIP3   OH270891   6.071   4.819   3.926 -0.1638  0.3638 -0.3785
16467TIP3    H170892   6.063   4.754   3.856 -0.0928  0.3832 -0.4045
16467TIP3    H270893   6.079   4.767   4.006  2.7916  0.2430 -0.6398
16468TIP3   OH270894   1.699   3.628  11.880  0.7013 -0.3004  0.6853
16468TIP3    H170895   1.617   3.608  11.926  0.3496 -0.7325 -0.1018
16468TIP3    H270896   1.718   3.719  11.903 -0.5849  0.1698  0.0502
16469TIP3   OH270897   4.718   3.005  12.307 -0.2089 -0.0079 -0.0798
16469TIP3    H170898   4.715   2.951  12.385  2.2568 -0.8129 -0.4387
16469TIP3    H270899   4.806   3.043  12.308  0.0283 -0.3055 -2.5641
16470TIP3   OH270900   0.727   3.180  14.446  0.3263  0.2270 -0.1032
16470TIP3    H170901   0.653   3.239  14.457  0.0513  0.7273 -3.3961
16470TIP3    H270902   0.692   3.106  14.396  1.9039  0.3012 -1.4344
16471TIP3   OH270903   1.856   3.899   1.429  0.5172  0.3988 -0.7451
16471TIP3    H170904   1.853   3.808   1.399  1.2112  1.0676 -3.0543
16471TIP3    H270905   1.911   3.897   1.507 -1.1245 -1.4237  0.4278
16472TIP3   OH270906   2.080   0.436   1.565  0.5764  0.3832  0.2452
16472TIP3    H170907   2.072   0.416   1.472  0.4268  0.0134  0.3358
16472TIP3    H270908   2.087   0.531   1.569  0.3814  0.4126 -0.1275
16473TIP3   OH270909   4.176   0.446  11.680  0.4198  0.0326  0.0206
16473TIP3    H170910   4.164   0.366  11.627  1.6646  0.0648 -0.3424
16473TIP3    H270911   4.225   0.417  11.757 -2.2881 -0.2136  1.7619
16474TIP3   OH270912   3.111   2.047  11.605 -0.3653 -0.6555 -0.4881
16474TIP3    H170913   3.019   2.024  11.599  0.3410 -3.9489 -1.1044
16474TIP3    H270914   3.128   2.101  11.527 -1.4604 -1.4823 -1.3359
16475TIP3   OH270915   0.576   5.373   0.176 -0.4654  0.2180  0.4551
16475TIP3    H170916   0.520   5.426   0.118 -1.4536  1.9960  2.8832
16475TIP3    H270917   0.665   5.403   0.158 -0.4639 -0.8836 -1.6875
16476TIP3   OH270918   1.155   1.916  12.755  0.6027 -0.0661 -1.1104
16476TIP3    H170919   1.179   1.969  12.679  0.9134 -0.7046 -1.4654
16476TIP3    H270920   1.099   1.847  12.719 -1.2618  1.0040 -0.4041
16477TIP3   OH270921   5.312   3.551  16.408 -0.5252 -0.4240 -0.0995
16477TIP3    H170922   5.271   3.483  16.462  0.0021 -0.3342  0.4295
16477TIP3    H270923   5.403   3.555  16.440  0.1630 -1.2219 -1.8068
16478TIP3   OH270924   1.847   5.815  13.975 -0.3573 -0.4437  0.3435
16478TIP3    H170925   1.851   5.727  13.939 -0.3545 -1.1214  1.8977
16478TIP3    H270926   1.804   5.868  13.907  0.9415 -1.3022 -1.1984
16479TIP3   OH270927   4.629   2.112   3.139 -0.4389 -0.2273  0.4821
16479TIP3    H170928   4.645   2.018   3.138  0.1070 -0.1343 -0.2764
16479TIP3    H270929   4.714   2.151   3.156 -0.2894  0.1877 -1.0719
16480TIP3   OH270930   2.682   3.168   5.567  0.1410  0.4111  0.1118
16480TIP3    H170931   2.768   3.127   5.573 -0.1642 -0.3816 -0.6983
16480TIP3    H270932   2.630   3.108   5.514 -0.8547  0.9812  0.4067
16481TIP3   OH270933   1.796   1.079  12.342  0.0383  0.0263 -0.0236
16481TIP3    H170934   1.766   1.097  12.431 -0.1845  1.2582 -0.3254
16481TIP3    H270935   1.810   0.985  12.340 -2.7971 -0.4961  0.4610
16482TIP3   OH270936   5.908   3.113   1.009  0.0826  0.1097 -0.5045
16482TIP3    H170937   6.001   3.128   0.993 -0.0867  2.8671  0.6463
16482TIP3    H270938   5.867   3.123   0.923  0.7974 -1.0200 -1.0020
16483TIP3   OH270939   6.814   0.268   2.614  0.4588  0.2232  0.3906
16483TIP3    H170940   6.774   0.332   2.556  0.8641  0.3997  0.2972
16483TIP3    H270941   6.743   0.208   2.638  0.1163  0.6073  0.3416
16484TIP3   OH270942   3.804   5.253  11.798 -0.4067  0.2329  0.1064
16484TIP3    H170943   3.881   5.254  11.741  0.2126  1.5639  0.8991
16484TIP3    H270944   3.841   5.239  11.886 -1.1576  0.0938  0.4039
16485TIP3   OH270945   3.351   0.849  15.083  0.1384  0.8543 -0.3184
16485TIP3    H170946   3.393   0.763  15.080  0.4688  1.0309 -1.0584
16485TIP3    H270947   3.353   0.879  14.992 -0.1871  1.5464 -0.1013
16486TIP3   OH270948   0.797   5.401  16.232 -0.2897 -0.6394  0.4136
16486TIP3    H170949   0.737   5.333  16.201 -0.2665 -0.3134 -0.3632
16486TIP3    H270950   0.744   5.456  16.289 -0.5727 -0.7105  0.2187
16487TIP3   OH270951   5.853   5.934  16.232 -0.1080 -0.0637 -0.2086
16487TIP3    H170952   5.774   5.942  16.179 -0.1002 -2.4833 -0.7049
16487TIP3    H270953   5.923   5.969  16.177 -0.6162  0.7878 -0.3279
16488TIP3   OH270954   5.612   5.251  16.702 -0.3235 -0.0789  0.3763
16488TIP3    H170955   5.694   5.248  16.652 -1.2461 -0.3293 -1.1824
16488TIP3    H270956   5.633   5.209  16.785  0.8077 -1.3021 -0.4899
16489TIP3   OH270957   1.380   6.710   0.549  0.5474 -0.0669  0.3495
16489TIP3    H170958   1.442   6.658   0.601 -1.3766 -0.6053  2.2253
16489TIP3    H270959   1.427   6.728   0.467  3.2560 -0.2072  1.7675
16490TIP3   OH270960   5.288   5.380   2.598 -0.5545 -0.0781 -0.2959
16490TIP3    H170961   5.296   5.405   2.506 -0.0105 -0.6966 -0.4254
16490TIP3    H270962   5.377   5.358   2.625 -0.8239 -0.6338  0.1645
16491TIP3   OH270963   6.409   2.681  12.792  0.1932  0.1680  0.6336
16491TIP3    H170964   6.462   2.759  12.810  3.1038 -1.6626  0.6192
16491TIP3    H270965   6.417   2.668  12.697  1.5889 -1.3084  0.9117
16492TIP3   OH270966   0.153   2.521  13.626 -0.1689  0.6127 -0.4641
16492TIP3    H170967   0.245   2.524  13.654 -0.5151 -0.7856  0.9909
16492TIP3    H270968   0.157   2.508  13.531  1.1157  1.8626 -0.6037
16493TIP3   OH270969   6.263   4.939  12.586 -0.2110  0.2163 -1.0590
16493TIP3    H170970   6.308   4.974  12.663 -0.3764  1.6976 -1.6051
16493TIP3    H270971   6.234   4.852  12.613 -1.3278  1.1481  0.9778
16494TIP3   OH270972   3.376   2.286   4.504  0.3113 -0.6536 -0.4761
16494TIP3    H170973   3.281   2.288   4.512  0.1613  1.0438 -1.9254
16494TIP3    H270974   3.394   2.210   4.449 -0.2728 -0.6526 -0.6735
16495TIP3   OH270975   6.634   5.991  17.145 -0.0696 -0.2120 -0.3078
16495TIP3    H170976   6.567   6.046  17.105  0.2123  1.4113  1.3125
16495TIP3    H270977   6.596   5.964  17.229  0.2935 -1.5081 -0.5332
16496TIP3   OH270978   6.261   3.569   0.121 -0.1737  0.1380  0.4813
16496TIP3    H170979   6.220   3.560   0.207  0.4003  1.0947  0.8710
16496TIP3    H270980   6.317   3.646   0.129 -0.8239  0.8234 -1.0244
16497TIP3   OH270981   3.994   4.802   4.439  0.2658  0.0670 -0.0079
16497TIP3    H170982   4.059   4.865   4.470  1.3520 -1.1079  0.1898
16497TIP3    H270983   3.951   4.845   4.366 -0.5606  1.8940  1.4577
16498TIP3   OH270984   4.796   5.329   0.436  0.1040  0.2107 -0.0778
16498TIP3    H170985   4.837   5.379   0.507  0.8296 -0.0768 -0.2803
16498TIP3    H270986   4.731   5.388   0.399 -1.2035 -0.0869  1.6503
16499TIP3   OH270987   5.322   1.549   5.716  0.0442 -0.0457 -0.3076
16499TIP3    H170988   5.261   1.543   5.642 -0.0796 -3.0546 -0.0575
16499TIP3    H270989   5.396   1.495   5.690  1.5354  1.5205  0.4708
16500TIP3   OH270990   4.160   1.807   6.620 -0.1212 -0.2832  0.3864
16500TIP3    H170991   4.131   1.767   6.701 -0.7708 -0.9663 -0.1655
16500TIP3    H270992   4.220   1.743   6.581 -2.1004 -1.3799 -1.0940
16501TIP3   OH270993   2.346   4.565   5.591  0.0176 -0.3937 -0.0815
16501TIP3    H170994   2.388   4.596   5.511  0.4927 -0.4521  0.1410
16501TIP3    H270995   2.389   4.613   5.662  1.2981 -2.0372  0.3350
16502TIP3   OH270996   2.997   3.203  16.683  0.5251  0.0757 -0.3040
16502TIP3    H170997   3.088   3.179  16.700  0.3648  0.3501  1.0269
16502TIP3    H270998   2.980   3.277  16.742 -0.4263  0.3291 -0.8680
16503TIP3   OH270999   0.558   5.636   5.951  0.0426 -0.0486  0.2588
16503TIP3    H171000   0.588   5.551   5.920  0.5732  0.1191  0.3087
16503TIP3    H271001   0.542   5.624   6.044 -1.7077 -0.5980 -0.0782
16504TIP3   OH271002   1.988   3.826  14.504  0.0752  0.1902  0.0026
16504TIP3    H171003   2.059   3.762  14.510 -0.3169 -0.8111 -3.5054
16504TIP3    H271004   1.909   3.776  14.524 -0.0241  0.1213 -0.5410
16505TIP3   OH271005   6.198   5.263  15.190  0.4024 -0.0430  0.2128
16505TIP3    H171006   6.257   5.244  15.263  0.6926  1.3643  0.3902
16505TIP3    H271007   6.145   5.337  15.221 -0.6644 -0.5480 -0.3725
16506TIP3   OH271008   3.712   6.414   0.228  0.3223 -0.0774 -0.5580
16506TIP3    H171009   3.755   6.441   0.147 -0.6176  1.2810 -0.6321
16506TIP3    H271010   3.783   6.407   0.292  0.9011  0.1541 -1.1685
16507TIP3   OH271011   0.220   5.627  11.772  0.1296  0.3958 -0.4231
16507TIP3    H171012   0.199   5.597  11.861 -0.0992 -0.4808 -0.7678
16507TIP3    H271013   0.209   5.722  11.776 -1.1326  0.2471  0.1649
16508TIP3   OH271014   2.020   4.061   2.631  0.5358 -0.4146 -0.1977
16508TIP3    H171015   2.072   3.992   2.672 -0.9988 -0.8214  1.1706
16508TIP3    H271016   1.991   4.115   2.705  1.5600  1.6514 -1.2094
16509TIP3   OH271017   6.144   0.990   4.892  0.4642  0.1860 -0.1509
16509TIP3    H171018   6.200   1.064   4.870 -0.4243  0.8736 -0.1662
16509TIP3    H271019   6.071   1.028   4.942  0.1985 -0.7322  0.1936
16510TIP3   OH271020   3.417   1.897  12.590  0.2543  0.2222 -0.4421
16510TIP3    H171021   3.498   1.880  12.541  0.3477  0.0764 -0.2359
16510TIP3    H271022   3.445   1.943  12.669  0.6437 -3.2832  1.6472
16511TIP3   OH271023   4.790   3.586   0.938 -0.2769  0.0113  0.3667
16511TIP3    H171024   4.784   3.491   0.949 -0.8028  0.0617  0.5529
16511TIP3    H271025   4.699   3.614   0.924 -0.3457  0.6657  1.8709
16512TIP3   OH271026   5.737   0.872  13.345  0.0922 -0.8684 -0.5508
16512TIP3    H171027   5.791   0.799  13.374  0.5556 -0.8369 -1.2976
16512TIP3    H271028   5.791   0.917  13.280  0.0340  0.4647  0.2860
16513TIP3   OH271029   3.725   0.242  12.150 -0.4748 -0.3271 -0.4046
16513TIP3    H171030   3.693   0.304  12.216 -1.5930 -0.3015 -0.9501
16513TIP3    H271031   3.745   0.163  12.200 -3.3198 -1.0394 -0.2400
16514TIP3   OH271032   5.215   4.655   4.208  0.4973 -0.1428  0.3099
16514TIP3    H171033   5.163   4.608   4.273  1.5564 -1.7751  0.0294
16514TIP3    H271034   5.302   4.661   4.248  0.2007  2.5213  0.7700
16515TIP3   OH271035   3.844   2.347   5.596 -0.5685 -0.5270 -0.2688
16515TIP3    H171036   3.932   2.348   5.634 -0.2599 -0.3346 -0.9626
16515TIP3    H271037   3.786   2.362   5.670 -0.0097 -0.5615  0.1866
16516TIP3   OH271038   0.640   3.401   4.783 -0.2597 -0.3115 -0.4687
16516TIP3    H171039   0.565   3.456   4.804  0.1306  1.0134 -2.3941
16516TIP3    H271040   0.608   3.341   4.715  0.1582 -0.4316 -0.5630
16517TIP3   OH271041   4.995   2.822   4.811  0.1334 -0.0975 -0.2657
16517TIP3    H171042   4.900   2.834   4.815 -0.1965 -2.2681 -0.2515
16517TIP3    H271043   5.024   2.831   4.902 -0.3548 -1.3077  0.0267
16518TIP3   OH271044   6.006   2.534   2.282  0.8579  0.5115  0.0404
16518TIP3    H171045   5.977   2.463   2.339  2.1762  0.3497  0.5417
16518TIP3    H271046   5.933   2.596   2.283  0.0934 -0.3705  0.3843
16519TIP3   OH271047   5.194   3.539   4.320  0.1033 -0.3613 -0.0910
16519TIP3    H171048   5.115   3.531   4.266 -0.1037 -0.1781  0.1813
16519TIP3    H271049   5.264   3.559   4.257 -0.3043  0.8078 -0.2049
16520TIP3   OH271050   2.005   3.820   0.746  0.4257  0.6726 -0.0716
16520TIP3    H171051   2.039   3.746   0.796 -1.1440  1.1953  1.8591
16520TIP3    H271052   1.929   3.786   0.699  0.8233  0.6386 -0.7185
16521TIP3   OH271053   5.164   0.769   0.122 -0.2581  0.6280 -0.0054
16521TIP3    H171054   5.205   0.763   0.208 -0.8918 -0.7382  0.2329
16521TIP3    H271055   5.074   0.738   0.136  0.0818 -1.1330 -1.4367
16522TIP3   OH271056   2.619   3.150  10.889  0.3689  0.1141 -0.0964
16522TIP3    H171057   2.622   3.166  10.983  1.0990  1.9927 -0.3985
16522TIP3    H271058   2.702   3.184  10.856 -0.2058  0.2261 -1.5193
16523TIP3   OH271059   2.741   3.072  11.739 -0.0159 -0.5396 -0.0516
16523TIP3    H171060   2.654   3.046  11.712 -0.2641  0.3887 -0.1922
16523TIP3    H271061   2.800   3.007  11.700 -0.4167  0.3256 -2.2385
16524TIP3   OH271062   2.702   3.342  14.243  0.1363  0.6384 -0.2163
16524TIP3    H171063   2.709   3.322  14.336  0.6006  0.4418 -0.2899
16524TIP3    H271064   2.650   3.422  14.240 -0.1570  0.4686  0.1910
16525TIP3   OH271065   3.954   0.399  12.951 -0.4487 -0.5122  0.3210
16525TIP3    H171066   3.988   0.377  12.864  0.7539 -0.4768  0.7674
16525TIP3    H271067   4.005   0.344  13.011 -2.9176 -2.3878  0.8765
16526TIP3   OH271068   1.443   6.030  13.075 -0.4117  0.3634 -0.1429
16526TIP3    H171069   1.427   5.948  13.122  1.1562 -0.4626 -0.9467
16526TIP3    H271070   1.514   6.072  13.123  0.8753 -0.2588 -1.4071
16527TIP3   OH271071   3.390   5.371   1.381 -0.3297 -0.2850  0.5785
16527TIP3    H171072   3.485   5.364   1.373 -0.3688 -1.0206  0.6532
16527TIP3    H271073   3.370   5.461   1.354  0.1501 -0.7569 -1.5418
16528TIP3   OH271074   3.631   2.215  12.938 -0.3998 -0.1352  0.1096
16528TIP3    H171075   3.582   2.273  12.880 -1.0447 -1.6807 -0.9534
16528TIP3    H271076   3.573   2.199  13.012 -0.7078 -0.4043 -0.1923
16529TIP3   OH271077   5.291   2.854  12.501 -0.0570 -0.7073  0.4374
16529TIP3    H171078   5.280   2.879  12.409 -0.2295 -0.9709  0.3841
16529TIP3    H271079   5.250   2.925  12.550  1.2370  0.1210  0.3646
16530TIP3   OH271080   5.254   6.022   0.297  0.1026 -0.0317 -0.2759
16530TIP3    H171081   5.237   6.025   0.203  0.4129 -0.2904 -0.3411
16530TIP3    H271082   5.237   6.112   0.327 -2.5045 -0.5036 -0.1316
16531TIP3   OH271083   5.937   0.381  13.515 -0.2897  0.1865  0.5197
16531TIP3    H171084   6.011   0.389  13.576 -0.7698 -1.0814  1.2970
16531TIP3    H271085   5.969   0.325  13.445  0.3084  1.7578 -0.5076
16532TIP3   OH271086   6.205   2.148   1.651 -0.3745 -0.0825  0.4934
16532TIP3    H171087   6.272   2.085   1.625  0.5006  0.6663  0.8726
16532TIP3    H271088   6.126   2.096   1.661  0.3413 -1.1361  0.8505
16533TIP3   OH271089   4.812   4.382   1.537 -0.1744  0.0113 -0.3700
16533TIP3    H171090   4.793   4.416   1.625  0.7014  0.4222 -0.3255
16533TIP3    H271091   4.805   4.459   1.480  1.0315  0.1215 -0.3883
16534TIP3   OH271092   3.466   5.892  12.094  0.1185  0.1289  0.4313
16534TIP3    H171093   3.511   5.843  12.025 -1.3917  1.0237 -1.2441
16534TIP3    H271094   3.377   5.856  12.095 -0.2550  1.0414  1.0106
16535TIP3   OH271095   3.952   0.382  12.345  0.3516  0.6571 -0.3887
16535TIP3    H171096   3.989   0.430  12.271 -0.0635  1.2934 -0.1886
16535TIP3    H271097   3.862   0.415  12.352  0.3917  0.5974  0.3993
16536TIP3   OH271098   3.123   1.405   4.274 -0.3016 -0.2650 -0.1071
16536TIP3    H171099   3.068   1.468   4.228  0.9874  1.1565  0.1998
16536TIP3    H271100   3.155   1.346   4.206 -0.2214  0.4284 -0.6761
16537TIP3   OH271101   5.216   1.281  12.343 -0.1061 -0.0028 -0.6122
16537TIP3    H171102   5.237   1.310  12.432 -0.2366 -1.2629 -0.1487
16537TIP3    H271103   5.220   1.361  12.290  1.2833  0.5482  0.2797
16538TIP3   OH271104   1.301   1.042   0.460  0.4208 -0.2859 -0.0127
16538TIP3    H171105   1.307   1.011   0.550  1.5391  2.1193  0.8404
16538TIP3    H271106   1.213   1.019   0.432 -0.1968 -0.4750  1.9354
16539TIP3   OH271107   5.542   5.430   1.462  0.3482 -0.3615  0.2092
16539TIP3    H171108   5.464   5.470   1.500  0.2681 -0.5416  0.2341
16539TIP3    H271109   5.600   5.504   1.444 -0.4588 -0.0596 -1.2749
16540TIP3   OH271110   4.126   3.899   6.594 -0.1189 -0.3353  0.5633
16540TIP3    H171111   4.216   3.870   6.607 -0.3665 -1.1831  0.4567
16540TIP3    H271112   4.100   3.860   6.511 -0.6630 -0.2870  0.7060
16541TIP3   OH271113   2.626   5.154  16.547  0.1709  0.2494 -0.4180
16541TIP3    H171114   2.584   5.156  16.633 -1.2912  0.4960 -1.1102
16541TIP3    H271115   2.696   5.088  16.556 -0.6145 -0.4741  0.6648
16542TIP3   OH271116   3.987   3.576  11.846  0.1964  0.6559 -0.9005
16542TIP3    H171117   3.978   3.609  11.936  0.3098  1.2097 -1.0861
16542TIP3    H271118   4.076   3.540  11.843 -0.2532 -0.5501 -0.4240
16543TIP3   OH271119   3.063   1.079   1.632 -0.4449 -0.6610 -0.4491
16543TIP3    H171120   3.093   1.141   1.697 -1.9216 -0.7093  0.3323
16543TIP3    H271121   3.081   0.993   1.671  0.3297 -0.7271 -0.9246
16544TIP3   OH271122   4.066   1.380   4.386  0.6275 -0.3529 -0.0858
16544TIP3    H171123   3.971   1.364   4.379  0.4692  0.7179 -0.4597
16544TIP3    H271124   4.104   1.324   4.318  0.3459 -1.3155  0.5124
16545TIP3   OH271125   2.974   2.173  11.980  0.6249 -0.2934  0.3119
16545TIP3    H171126   2.999   2.246  11.923  2.4587 -1.1392 -0.0320
16545TIP3    H271127   2.994   2.204  12.068 -2.0237  0.9391  0.5645
16546TIP3   OH271128   2.675   2.406  12.049  0.0312 -0.2898  0.8358
16546TIP3    H171129   2.757   2.385  12.095  0.3389  1.1560  1.0048
16546TIP3    H271130   2.702   2.465  11.978 -0.8058 -0.1718  0.6102
16547TIP3   OH271131   2.568   5.231  15.826  0.3466 -0.1690 -0.8029
16547TIP3    H171132   2.477   5.203  15.838  0.2417  0.2434 -0.6064
16547TIP3    H271133   2.619   5.169  15.878  0.1172  0.0001 -0.3698
16548TIP3   OH271134   1.539   5.940   1.504 -0.6359  0.0248 -0.9024
16548TIP3    H171135   1.457   5.988   1.491 -0.4137  1.5445  2.2844
16548TIP3    H271136   1.512   5.861   1.551 -0.4232 -0.1841 -1.1336
16549TIP3   OH271137   5.573   6.353  12.198  0.8135  0.2227 -0.2261
16549TIP3    H171138   5.516   6.327  12.125  0.6502 -1.1589  0.3515
16549TIP3    H271139   5.660   6.321  12.172  0.8312  0.0764  0.0181
16550TIP3   OH271140   3.217   2.059  12.656  0.3596  0.6058 -0.3096
16550TIP3    H171141   3.269   2.076  12.735 -0.5288  0.8301  0.2368
16550TIP3    H271142   3.273   2.001  12.604  0.9505  0.4199  0.4945
16551TIP3   OH271143   0.045   5.274  16.262 -0.0609 -0.2580  0.2421
16551TIP3    H171144  -0.039   5.315  16.285  0.3835  0.3853  0.7794
16551TIP3    H271145   0.087   5.337  16.203 -0.8048 -1.4984 -1.6845
16552TIP3   OH271146   2.378   6.022   1.694  0.0412 -0.0299 -0.2071
16552TIP3    H171147   2.455   5.983   1.653  1.0117  1.0063  0.5649
16552TIP3    H271148   2.357   5.963   1.766 -1.0720 -1.3250 -1.5117
16553TIP3   OH271149   6.636   0.418  17.049  0.0304 -0.7641  0.0177
16553TIP3    H171150   6.727   0.406  17.022 -0.0390 -0.0835 -0.5411
16553TIP3    H271151   6.594   0.459  16.974  0.6880  4.9408  2.2590
16554TIP3   OH271152   5.664   0.679  17.007 -0.5990  0.0247 -0.3580
16554TIP3    H171153   5.747   0.726  17.019 -0.8905  0.0077  2.1723
16554TIP3    H271154   5.664   0.611  17.074 -3.3665  1.0965  0.8890
16555TIP3   OH271155   6.147   0.165  13.448  0.8722  0.1756  0.0082
16555TIP3    H171156   6.103   0.080  13.450 -0.7098  0.9247 -0.8157
16555TIP3    H271157   6.140   0.198  13.537  0.8145 -0.2235  0.1537
16556TIP3   OH271158   5.480   2.765  15.768 -0.1243 -0.3123 -0.0893
16556TIP3    H171159   5.553   2.705  15.784  0.3614  0.8263  2.5379
16556TIP3    H271160   5.409   2.731  15.822 -0.5167  0.2691 -0.2317
16557TIP3   OH271161   4.831   2.546  14.173 -0.5852  0.1613  0.2674
16557TIP3    H171162   4.872   2.547  14.086  0.6209  1.4994  0.7973
16557TIP3    H271163   4.859   2.463  14.211  2.3984  1.3131  0.8821
16558TIP3   OH271164   5.963   2.402  16.926  0.0248  0.2206 -0.0307
16558TIP3    H171165   5.940   2.495  16.926  0.0831  0.2802 -2.0874
16558TIP3    H271166   5.880   2.356  16.939  0.0240  0.5463  1.1877
16559TIP3   OH271167   3.308   5.041  12.644  0.1346 -0.1464  0.4320
16559TIP3    H171168   3.375   5.100  12.609 -0.6767  0.5443  0.0157
16559TIP3    H271169   3.354   4.958  12.656  0.0667 -1.1507 -4.3343
16560TIP3   OH271170   0.802   5.415  12.651 -0.0564  0.3549 -0.1740
16560TIP3    H171171   0.778   5.502  12.622 -2.0225  0.2995  1.0993
16560TIP3    H271172   0.754   5.355  12.593  2.4085 -0.0075 -2.0020
16561TIP3   OH271173   1.841   0.031   4.946 -0.0867 -0.6578  0.0505
16561TIP3    H171174   1.855   0.106   5.004 -0.3040 -1.0917  0.6751
16561TIP3    H271175   1.835  -0.044   5.006  2.7357 -1.5859 -0.6505
16562TIP3   OH271176   5.044   1.634  13.959 -0.6161  0.4709 -0.2045
16562TIP3    H171177   4.968   1.580  13.937 -0.0884  0.6193 -2.7875
16562TIP3    H271178   5.112   1.606  13.897  0.7013  1.9214  0.4938
16563TIP3   OH271179   4.512   1.261   3.640  0.1157  0.0257  0.0445
16563TIP3    H171180   4.481   1.345   3.606 -1.7675 -1.1043 -1.2309
16563TIP3    H271181   4.527   1.277   3.733 -1.6920  1.3891  0.1530
16564TIP3   OH271182   5.837   1.556  13.020 -0.4389  0.1029  0.0957
16564TIP3    H171183   5.814   1.543  12.929 -1.3173 -0.1931  0.3518
16564TIP3    H271184   5.861   1.469  13.052 -0.6926  0.1061  0.2975
16565TIP3   OH271185   0.505   6.104   2.522 -0.6885  0.6147 -0.0724
16565TIP3    H171186   0.539   6.022   2.556 -1.9632 -0.0505 -0.3351
16565TIP3    H271187   0.522   6.168   2.591  3.5574  1.0360 -1.2017
16566TIP3   OH271188   2.103   0.953   1.190 -0.1976 -0.9962  0.3201
16566TIP3    H171189   2.022   0.987   1.225 -0.5770 -2.6086  1.0924
16566TIP3    H271190   2.103   0.982   1.098 -1.3752 -0.5490  0.4413
16567TIP3   OH271191   1.778   3.616   1.643 -0.4032  0.2169  0.3649
16567TIP3    H171192   1.728   3.618   1.724 -0.3642  0.9337  0.3801
16567TIP3    H271193   1.857   3.567   1.664  0.0805  1.2664  1.0504
16568TIP3   OH271194   6.301   1.194  15.640 -0.3859 -0.0231 -0.1694
16568TIP3    H171195   6.281   1.171  15.549 -0.2794  0.6989 -0.3836
16568TIP3    H271196   6.307   1.110  15.685 -2.0039 -0.3549 -0.4925
16569TIP3   OH271197   0.061   6.038  16.517 -0.8088 -0.2355 -0.0960
16569TIP3    H171198  -0.000   6.027  16.590 -0.2685  0.1133  0.4214
16569TIP3    H271199   0.143   6.064  16.559 -0.3669 -0.4712 -0.7986
16570TIP3   OH271200   3.665   1.156   5.837 -0.0848 -0.4528  0.0724
16570TIP3    H171201   3.705   1.239   5.811  1.1742 -1.1780 -0.3619
16570TIP3    H271202   3.704   1.091   5.779 -3.6527 -0.9269 -2.0676
16571TIP3   OH271203   3.168   6.079  15.319 -0.4619 -0.3528  1.4419
16571TIP3    H171204   3.138   6.168  15.341  0.3419  0.0305  1.0410
16571TIP3    H271205   3.199   6.087  15.229 -1.6245 -1.3667  0.9370
16572TIP3   OH271206   4.736   3.307  15.553 -0.2681  0.2740 -0.1840
16572TIP3    H171207   4.772   3.307  15.464  0.2778  1.5571  0.0158
16572TIP3    H271208   4.723   3.215  15.574  1.1834 -0.1265 -0.9662
16573TIP3   OH271209   0.958   2.262   0.715 -0.0611  0.2507 -0.1415
16573TIP3    H171210   0.962   2.181   0.766 -0.8864 -0.0233 -0.4946
16573TIP3    H271211   1.034   2.312   0.744  0.8889 -0.9521 -0.4413
16574TIP3   OH271212   0.924   5.130  13.031  0.5918  0.6348 -0.0336
16574TIP3    H171213   0.965   5.045  13.048 -1.1898 -0.0188  1.4353
16574TIP3    H271214   0.944   5.149  12.939  1.9954 -0.8155 -0.0600
16575TIP3   OH271215   3.508   1.329  10.781  0.6825  0.2132 -0.0345
16575TIP3    H171216   3.573   1.372  10.725  1.2463  0.0855  0.5127
16575TIP3    H271217   3.495   1.243  10.742 -1.4716  1.2711 -1.9533
16576TIP3   OH271218   3.280   4.245   5.511  0.1234  0.2607 -0.0601
16576TIP3    H171219   3.310   4.252   5.601  2.0376  2.7378 -0.7941
16576TIP3    H271220   3.324   4.168   5.476  0.9670  0.4466  0.5722
16577TIP3   OH271221   4.120   0.890  14.693  0.4957 -0.1144  0.5158
16577TIP3    H171222   4.077   0.919  14.613  2.1708 -0.9743 -0.7645
16577TIP3    H271223   4.067   0.928  14.764 -0.2516  1.8381 -0.9785
16578TIP3   OH271224   0.993   5.274   3.566  0.3291  0.3755  0.1120
16578TIP3    H171225   1.035   5.260   3.480  0.8152  4.1778 -0.4449
16578TIP3    H271226   0.926   5.339   3.549 -0.1714  0.5694  2.5231
16579TIP3   OH271227   4.067   5.480   0.342 -0.4399  0.5068 -0.7013
16579TIP3    H171228   4.147   5.525   0.315 -1.3686  1.7753 -1.3779
16579TIP3    H271229   4.060   5.498   0.436  0.1896  0.1558 -0.5757
16580TIP3   OH271230   4.907   1.023   5.837 -0.1099  0.3719 -0.4794
16580TIP3    H171231   4.940   1.112   5.826 -0.1786  0.1976 -2.4577
16580TIP3    H271232   4.830   1.034   5.892  0.5137  1.3899  0.2310
16581TIP3   OH271233   2.132   1.355  13.237 -0.0473  0.4565 -0.4804
16581TIP3    H171234   2.140   1.395  13.150 -0.3807  0.2730 -0.5955
16581TIP3    H271235   2.200   1.398  13.289  0.7561 -0.0700 -1.0712
16582TIP3   OH271236   1.710   4.730   2.419  0.0765 -0.4132  0.2675
16582TIP3    H171237   1.703   4.795   2.349  2.1905 -1.2589 -0.8244
16582TIP3    H271238   1.650   4.761   2.486 -0.6173  1.4696 -1.1144
16583TIP3   OH271239   3.967   1.022  13.297  0.5601 -0.1316  0.3971
16583TIP3    H171240   4.019   0.945  13.319  2.4634  1.0007  0.1299
16583TIP3    H271241   3.924   1.046  13.379  0.8176 -0.8646  0.7528
16584TIP3   OH271242   3.470   2.214  10.746  0.4309  0.3632 -0.3454
16584TIP3    H171243   3.376   2.194  10.742  0.2223  0.1321  2.8474
16584TIP3    H271244   3.474   2.304  10.778  1.2129 -0.2165  1.3239
16585TIP3   OH271245   2.970   2.989  16.885 -0.0523 -0.2796 -1.2112
16585TIP3    H171246   2.969   3.058  16.818 -1.9599  0.6135 -0.3094
16585TIP3    H271247   2.918   3.024  16.957  0.6284 -1.8720  0.1099
16586TIP3   OH271248   2.569   4.210  15.204 -0.1268 -0.5022 -0.2714
16586TIP3    H171249   2.580   4.150  15.278 -1.4794 -0.2113  0.2022
16586TIP3    H271250   2.481   4.192  15.171  0.0339  0.1503 -1.1016
16587TIP3   OH271251   6.798   4.921   2.650 -0.3737 -0.2340 -0.5893
16587TIP3    H171252   6.709   4.905   2.679  0.3865 -1.0776  1.4656
16587TIP3    H271253   6.822   4.841   2.603 -0.8878  0.2605 -1.7284
16588TIP3   OH271254   0.207   5.659   3.665 -0.1664  0.1197  0.3357
16588TIP3    H171255   0.188   5.721   3.735  0.6786 -0.8509  1.4749
16588TIP3    H271256   0.133   5.598   3.667  0.1046 -0.2032  0.7467
16589TIP3   OH271257   5.207   5.180  16.202 -0.0259 -0.0279  0.1249
16589TIP3    H171258   5.183   5.113  16.138 -0.6191  1.4539 -1.3006
16589TIP3    H271259   5.299   5.164  16.219  0.3213 -0.1284 -1.5978
16590TIP3   OH271260   4.863   1.086  14.338  0.0524  0.0009 -0.2537
16590TIP3    H171261   4.895   0.999  14.361 -1.3326  0.1034  2.3604
16590TIP3    H271262   4.838   1.126  14.421 -2.3036  1.7007 -1.6460
16591TIP3   OH271263   4.223   4.145  16.776 -0.0052  0.1036 -0.8924
16591TIP3    H171264   4.294   4.141  16.712  0.4749 -0.2032 -0.3442
16591TIP3    H271265   4.235   4.229  16.820 -0.7756  0.6583 -1.6910
16592TIP3   OH271266   4.074   6.348   3.565  0.2563  0.0553 -0.5329
16592TIP3    H171267   4.080   6.397   3.483  0.4040  0.1896 -0.4404
16592TIP3    H271268   4.073   6.415   3.634  0.8537 -0.0829 -0.3830
16593TIP3   OH271269   5.593   1.659  15.137 -1.0461 -0.7786 -0.1727
16593TIP3    H171270   5.653   1.594  15.103  0.2612  0.2253  0.1181
16593TIP3    H271271   5.649   1.719  15.187 -1.7120  2.0924 -2.5875
16594TIP3   OH271272   4.227   2.525   5.576 -0.4455  0.1127  1.2837
16594TIP3    H171273   4.306   2.556   5.532 -0.7052 -0.7943  0.1456
16594TIP3    H271274   4.167   2.599   5.573  0.1636  0.6313  1.6803
16595TIP3   OH271275   1.434   2.086  13.738 -0.2324  0.4966 -0.0680
16595TIP3    H171276   1.478   2.001  13.740  0.3170  0.7640 -0.5983
16595TIP3    H271277   1.341   2.065  13.732 -0.2584 -0.0937  1.7736
16596TIP3   OH271278   4.056   3.498  12.724 -0.5342 -0.0415  0.0362
16596TIP3    H171279   4.112   3.440  12.672 -2.7162 -2.6635  0.4092
16596TIP3    H271280   4.082   3.482  12.815 -0.7313  0.0262  0.1050
16597TIP3   OH271281   4.239   3.386  15.694  0.4991 -0.2120  0.8231
16597TIP3    H171282   4.331   3.408  15.676  0.7105  0.5231  2.5478
16597TIP3    H271283   4.194   3.470  15.688  0.0499 -0.4660  0.6332
16598TIP3   OH271284   1.252   4.025   5.784  0.0107 -0.6437 -0.0284
16598TIP3    H171285   1.337   4.068   5.795 -0.7685  0.5057  1.9581
16598TIP3    H271286   1.258   3.982   5.699  1.7100  1.4009 -1.0201
16599TIP3   OH271287   3.313   3.619   5.231  0.3257  0.3509 -0.1009
16599TIP3    H171288   3.270   3.653   5.310  0.5269 -1.2415  0.7329
16599TIP3    H271289   3.367   3.692   5.201 -1.6545  1.8599 -0.2433
16600TIP3   OH271290   1.130   5.117   6.433  0.5069  0.2083  0.9043
16600TIP3    H171291   1.193   5.144   6.500  0.2881 -0.3769  1.3500
16600TIP3    H271292   1.051   5.094   6.482  0.7162 -1.3338  0.5629
16601TIP3   OH271293   4.566   5.789   0.061  0.1606 -0.6007 -0.0247
16601TIP3    H171294   4.583   5.759   0.150 -1.1138 -1.2534  0.0276
16601TIP3    H271295   4.470   5.799   0.058  0.3145  0.8944 -0.8590
16602TIP3   OH271296   3.822   5.291   2.765  0.3687 -0.6938  0.2727
16602TIP3    H171297   3.836   5.338   2.847  0.6744  1.7325 -1.0809
16602TIP3    H271298   3.867   5.343   2.699 -3.8496  0.2250 -2.2500
16603TIP3   OH271299   4.553   1.260   0.264 -0.5003 -0.2499 -0.8267
16603TIP3    H171300   4.607   1.208   0.324  0.1635 -0.4241 -1.5602
16603TIP3    H271301   4.608   1.335   0.240 -0.8905  0.0018 -0.9501
16604TIP3   OH271302   3.038   0.071  13.431  0.4302 -0.0231  0.2077
16604TIP3    H171303   3.129   0.064  13.402  0.5128 -1.0411  0.6970
16604TIP3    H271304   2.989   0.086  13.350  0.8514 -1.1854 -0.2910
16605TIP3   OH271305   2.390   4.876   3.104  0.4723  0.2264  0.2844
16605TIP3    H171306   2.312   4.903   3.153 -0.1309  2.8254 -1.8250
16605TIP3    H271307   2.425   4.802   3.152 -0.6922  1.8342  3.9253
16606TIP3   OH271308   2.929   2.528  16.062  0.2172 -0.5774 -0.1832
16606TIP3    H171309   2.913   2.567  15.976  0.0242 -0.5863 -0.1521
16606TIP3    H271310   2.920   2.434  16.047  0.2873 -0.5860 -0.1744
16607TIP3   OH271311   5.444   5.189  13.568  0.4673  0.1389 -0.4766
16607TIP3    H171312   5.464   5.152  13.483  1.1939  0.8091 -0.6147
16607TIP3    H271313   5.358   5.229  13.558  0.3844 -0.1173 -0.7828
16608TIP3   OH271314   4.522   1.655  16.731  0.0554  0.4055 -0.3932
16608TIP3    H171315   4.557   1.679  16.817  1.2288 -0.6128 -0.5604
16608TIP3    H271316   4.433   1.622  16.750  0.8254 -1.2218  0.6621
16609TIP3   OH271317   3.374   3.598  11.610  0.3628  0.0005  0.0855
16609TIP3    H171318   3.326   3.525  11.649  0.8149 -0.3970 -0.0865
16609TIP3    H271319   3.427   3.632  11.682  1.4827 -0.9737 -0.2498
16610TIP3   OH271320   5.215   3.662   2.545 -0.0556  0.2388  0.4152
16610TIP3    H171321   5.279   3.627   2.483  1.2229  2.0459  0.6231
16610TIP3    H271322   5.157   3.716   2.492 -0.0180  0.4045  0.5409
16611TIP3   OH271323   1.274   3.852  10.452 -0.1244  0.2484  0.1832
16611TIP3    H171324   1.352   3.818  10.409  0.2111  0.9235  0.2471
16611TIP3    H271325   1.208   3.856  10.383 -0.4287 -1.2948  0.3485
16612TIP3   OH271326   6.079   0.096  15.100 -0.1845 -0.0357 -0.4569
16612TIP3    H171327   6.161   0.072  15.055 -0.5794 -1.4379 -0.4405
16612TIP3    H271328   6.078   0.192  15.095  0.2046 -0.0850 -2.7329
16613TIP3   OH271329   4.663   0.041   4.141  0.2622  0.0943 -0.1168
16613TIP3    H171330   4.599   0.093   4.191 -2.4932  0.0723 -3.2824
16613TIP3    H271331   4.648  -0.049   4.169 -1.6870  0.0063 -1.2792
16614TIP3   OH271332   1.078   2.829  12.173 -0.0445  0.1054  0.1907
16614TIP3    H171333   0.986   2.835  12.145 -0.3407  1.0331  1.2642
16614TIP3    H271334   1.121   2.779  12.104 -1.6239 -1.5014  0.2973
16615TIP3   OH271335   0.145   2.500   6.241  0.0698 -0.1695 -0.5321
16615TIP3    H171336   0.215   2.497   6.305 -0.7344  2.2933  0.6145
16615TIP3    H271337   0.147   2.590   6.208 -3.2779  0.4537  0.5465
16616TIP3   OH271338   0.814   5.453   3.928 -0.8078  0.6462 -0.5932
16616TIP3    H171339   0.742   5.426   3.985 -2.2144  0.9810 -2.1353
16616TIP3    H271340   0.853   5.371   3.897 -0.6530  0.4646  0.0651
16617TIP3   OH271341   5.055   2.860   5.101 -0.8252 -0.3495  0.0396
16617TIP3    H171342   5.058   2.766   5.119 -1.3596 -0.3937 -0.0818
16617TIP3    H271343   5.002   2.897   5.172 -1.7594 -0.3342 -0.6398
16618TIP3   OH271344   6.054   0.343  16.534  0.7621  0.1667  0.1648
16618TIP3    H171345   6.037   0.414  16.597  0.0798 -0.4181  0.6613
16618TIP3    H271346   6.132   0.299  16.568 -0.9099 -1.6103  1.9990
16619TIP3   OH271347   6.025   5.523   0.546 -0.3103 -0.1817 -0.4882
16619TIP3    H171348   5.988   5.456   0.603  3.8751 -0.7815  1.9658
16619TIP3    H271349   5.986   5.605   0.576  1.2940 -0.5491  3.0842
16620TIP3   OH271350   4.057   6.410  14.005  0.3256 -0.0770 -0.6944
16620TIP3    H171351   4.008   6.466  13.945  0.3956  0.2971 -0.4087
16620TIP3    H271352   4.026   6.436  14.092  2.5923  1.7302 -0.3442
16621TIP3   OH271353   2.372   3.378   6.621  0.0943 -0.1233 -0.5056
16621TIP3    H171354   2.458   3.418   6.626 -0.7636  1.8936 -0.9395
16621TIP3    H271355   2.389   3.284   6.612  2.1978  0.0809  0.7339
16622TIP3   OH271356   4.090   2.683  16.296 -0.3154  0.1228  0.4220
16622TIP3    H171357   4.132   2.668  16.211 -0.6675 -2.7570  0.6594
16622TIP3    H271358   4.079   2.595  16.334 -2.8053  1.0525  2.1752
16623TIP3   OH271359   5.615   5.320  10.027  0.8083  0.1227 -0.5811
16623TIP3    H171360   5.664   5.251   9.982 -1.2170 -1.6314 -0.2556
16623TIP3    H271361   5.544   5.274  10.072 -0.0519  2.3374  0.4930
16624TIP3   OH271362   5.004   3.349   0.191  0.2920  0.2728  0.2351
16624TIP3    H171363   4.994   3.420   0.254 -0.1683  1.0669 -0.7157
16624TIP3    H271364   5.075   3.376   0.134 -0.5099  0.4381 -0.7218
16625TIP3   OH271365   6.705   1.975  11.343 -0.1289 -0.0777 -0.1128
16625TIP3    H171366   6.663   1.980  11.257 -0.5392 -1.0501  0.0196
16625TIP3    H271367   6.783   1.921  11.328 -0.0048  0.0558  0.0485
16626TIP3   OH271368   0.132   6.337   5.912 -0.2156 -0.3021 -0.0138
16626TIP3    H171369   0.167   6.413   5.958  0.5749 -0.1570 -0.8391
16626TIP3    H271370   0.196   6.268   5.925  0.7547  0.1331 -2.0270
16627TIP3   OH271371   1.747   6.462   0.958  0.0160 -0.6079 -0.2143
16627TIP3    H171372   1.773   6.550   0.986  0.3476  0.0758 -2.5007
16627TIP3    H271373   1.693   6.430   1.031  0.7362  1.0462  1.1397
16628TIP3   OH271374   4.200   2.115  10.737  0.1598  0.0623  0.3626
16628TIP3    H171375   4.182   2.116  10.643 -0.9426  3.1882  0.5043
16628TIP3    H271376   4.295   2.114  10.744  0.2655  0.4885 -0.8075
16629TIP3   OH271377   3.729   4.449  14.888 -0.1563 -0.1985  0.1072
16629TIP3    H171378   3.735   4.360  14.923 -0.0847  0.5086  2.0247
16629TIP3    H271379   3.770   4.503  14.955  3.0903  0.9815 -2.5177
16630TIP3   OH271380   2.137   4.133  16.042  0.1655  0.0530 -0.4905
16630TIP3    H171381   2.148   4.213  16.094 -3.5602  0.4319  0.0156
16630TIP3    H271382   2.128   4.064  16.107 -3.6427  0.4053 -0.4114
16631TIP3   OH271383   6.328   4.409   2.729 -0.0173  0.4789  0.0493
16631TIP3    H171384   6.373   4.325   2.721  2.1638  1.3783  1.7532
16631TIP3    H271385   6.365   4.463   2.659 -1.9757 -0.1426 -1.5337
16632TIP3   OH271386   0.093   5.794  15.776  0.4790  0.5767  0.4508
16632TIP3    H171387   0.075   5.809  15.868 -0.4672  0.5199  0.2868
16632TIP3    H271388   0.168   5.850  15.756 -0.2197  1.6898  0.9009
16633TIP3   OH271389   2.127   4.046  11.208 -0.1251 -0.2559  0.1492
16633TIP3    H171390   2.130   3.968  11.264  0.3162  0.5161  1.2270
16633TIP3    H271391   2.203   4.097  11.234  0.8660 -0.4644 -2.0771
16634TIP3   OH271392   2.056   1.963   2.887 -0.1435 -0.5352  0.0622
16634TIP3    H171393   2.133   1.958   2.829  0.4378 -0.4573  0.8114
16634TIP3    H271394   2.057   2.053   2.919 -1.0266 -0.2994 -0.5565
16635TIP3   OH271395   4.257   3.791   1.395 -0.0659 -0.0371 -0.3001
16635TIP3    H171396   4.214   3.744   1.324  0.6036 -0.8001 -0.2079
16635TIP3    H271397   4.349   3.764   1.390  0.4464  1.6346 -0.5677
16636TIP3   OH271398   6.608   0.727   1.870  0.1098 -0.2037  0.6304
16636TIP3    H171399   6.585   0.653   1.814 -0.7781  0.4028  0.1672
16636TIP3    H271400   6.661   0.784   1.814 -3.6177  2.1239 -0.8583
16637TIP3   OH271401   5.059   3.628   0.236  0.6871 -0.0997 -0.3071
16637TIP3    H171402   5.153   3.628   0.218  0.7682  0.7111  0.0730
16637TIP3    H271403   5.043   3.712   0.278 -0.2870 -0.0351 -0.7790
16638TIP3   OH271404   3.679   6.510  12.734 -0.5985  0.1562 -0.1869
16638TIP3    H171405   3.609   6.459  12.775 -0.1269 -0.4014 -0.0613
16638TIP3    H271406   3.702   6.576  12.799 -0.8831  0.2225 -0.1547
16639TIP3   OH271407   3.361   3.392  13.811  0.0578 -0.1169 -0.0426
16639TIP3    H171408   3.328   3.480  13.823  2.8349  1.0349 -0.1440
16639TIP3    H271409   3.437   3.402  13.754 -0.3506 -2.7617 -1.1902
16640TIP3   OH271410   0.567   4.995  13.341 -0.4951  0.2081 -0.1416
16640TIP3    H171411   0.475   5.020  13.355 -0.3670 -0.0522  1.3184
16640TIP3    H271412   0.617   5.070  13.373 -0.1847  0.4924 -1.2537
16641TIP3   OH271413   5.428   3.724  10.981  0.3360 -0.2448  0.0891
16641TIP3    H171414   5.427   3.638  10.940 -0.9859 -0.5204  0.6538
16641TIP3    H271415   5.383   3.712  11.064 -1.2089  1.2674 -0.4536
16642TIP3   OH271416   3.498   6.435  15.935 -0.0691 -0.6627  0.1682
16642TIP3    H171417   3.468   6.405  15.849 -0.3841 -1.1318  0.4364
16642TIP3    H271418   3.592   6.450  15.924 -0.5650  2.3455 -1.1381
16643TIP3   OH271419   3.204   0.005  14.809 -0.4791  0.0655  0.6969
16643TIP3    H171420   3.180  -0.085  14.786  0.2596 -0.2437  1.1145
16643TIP3    H271421   3.273  -0.004  14.874 -1.2611  0.9384  1.6942
16644TIP3   OH271422   1.961   5.484  12.105 -0.0052  0.2687  0.0060
16644TIP3    H171423   1.883   5.429  12.118  0.9513 -1.2112 -0.2488
16644TIP3    H271424   1.989   5.508  12.193  0.4499 -0.9770  0.2179
16645TIP3   OH271425   3.070   5.277  10.684 -0.2251  0.1938  0.1798
16645TIP3    H171426   3.130   5.259  10.612  0.0625  0.3109  0.3849
16645TIP3    H271427   3.039   5.366  10.668  0.0745  0.3342  0.3596
16646TIP3   OH271428   5.010   5.836  15.353 -0.1007  0.1042  0.3717
16646TIP3    H171429   5.077   5.770  15.334  0.6447  0.4869  1.5670
16646TIP3    H271430   4.973   5.857  15.268  0.9595 -0.4791 -0.2635
16647TIP3   OH271431   1.612   2.934   4.337 -0.4535  0.1798  0.9376
16647TIP3    H171432   1.636   2.992   4.265  1.3160  0.1671  1.4633
16647TIP3    H271433   1.544   2.982   4.385 -0.4386  0.9318  0.2273
16648TIP3   OH271434   2.325   3.963   3.015  0.2201 -0.5165  0.5411
16648TIP3    H171435   2.360   4.028   2.954  0.4806 -0.9173  0.2625
16648TIP3    H271436   2.257   3.918   2.966  2.1498 -2.6062 -0.3783
16649TIP3   OH271437   6.069   5.985   3.121  0.2365 -0.0371 -0.3854
16649TIP3    H171438   6.026   6.061   3.083  0.6399  0.2915 -0.1906
16649TIP3    H271439   6.123   6.021   3.192  0.7591 -0.4575 -0.5675
16650TIP3   OH271440   4.263   6.783   0.888 -0.1283  0.0524 -0.1824
16650TIP3    H171441   4.213   6.852   0.930  1.5494  0.2202  1.6920
16650TIP3    H271442   4.307   6.738   0.960  1.0679 -1.1622 -1.5996
16651TIP3   OH271443   2.032   2.727   5.167  0.0017 -0.3645  0.4333
16651TIP3    H171444   1.963   2.733   5.233 -0.8405  0.5960 -0.5191
16651TIP3    H271445   1.995   2.765   5.088  1.7490  0.5318 -0.0167
16652TIP3   OH271446   1.117   2.458   5.581  0.1254 -0.1931 -0.2800
16652TIP3    H171447   1.174   2.462   5.657  0.6432 -1.0746 -0.6083
16652TIP3    H271448   1.046   2.399   5.608  0.7051 -1.1183 -0.7142
16653TIP3   OH271449   3.322   0.084  13.360  0.2831  0.1653 -0.0512
16653TIP3    H171450   3.334   0.154  13.295  1.4079 -0.5979 -0.7195
16653TIP3    H271451   3.348   0.004  13.313 -1.7904 -0.8375  0.4207
16654TIP3   OH271452   5.398   1.909  12.664  0.3954  0.3609 -0.5977
16654TIP3    H171453   5.484   1.914  12.706  0.9050  1.6698 -1.7195
16654TIP3    H271454   5.408   1.959  12.583 -0.7445 -1.5222 -1.9591
16655TIP3   OH271455   5.983   3.439  15.808 -0.7658 -0.9868 -0.1755
16655TIP3    H171456   5.919   3.509  15.793 -0.3262 -0.6200 -0.3445
16655TIP3    H271457   5.929   3.362  15.824 -1.3632  0.0260  3.5990
16656TIP3   OH271458   1.108   5.184  16.204  0.0176 -0.2288  0.7014
16656TIP3    H171459   1.146   5.192  16.292 -0.3177 -2.5034  1.1200
16656TIP3    H271460   1.031   5.129  16.216  0.7344 -1.7630 -1.2005
16657TIP3   OH271461   5.951   0.021   1.378  0.0587 -0.3009  0.1489
16657TIP3    H171462   5.927  -0.071   1.382 -2.2654  0.2227 -0.1320
16657TIP3    H271463   5.948   0.043   1.285 -1.7559  0.5475  0.3538
16658TIP3   OH271464   4.083   6.777   1.197  1.2883  0.3269  0.3064
16658TIP3    H171465   4.087   6.865   1.158  0.2050  1.3373  2.3267
16658TIP3    H271466   4.001   6.740   1.164  1.8931 -0.0840 -0.7876
16659TIP3   OH271467   5.157   6.712  10.770  0.5226  0.0472 -0.4804
16659TIP3    H171468   5.156   6.763  10.689  0.4047  0.3903 -0.2653
16659TIP3    H271469   5.111   6.767  10.833 -0.3996 -0.7050 -0.4773
16660TIP3   OH271470   1.291   2.398   5.782  0.3507 -0.2746 -0.1161
16660TIP3    H171471   1.370   2.375   5.832  0.3573  1.5365  0.8044
16660TIP3    H271472   1.259   2.314   5.748  2.8074 -1.0434 -0.7553
16661TIP3   OH271473   4.301   2.439  16.249  0.3189 -0.0018 -0.1392
16661TIP3    H171474   4.302   2.447  16.153 -1.2170 -1.1742 -0.2878
16661TIP3    H271475   4.240   2.368  16.266  0.5454  0.2159  1.7356
16662TIP3   OH271476   2.575   4.920   1.460  0.3539  0.3767 -0.6615
16662TIP3    H171477   2.594   4.830   1.487 -0.7773 -0.0536 -1.2291
16662TIP3    H271478   2.563   4.968   1.542 -0.2621 -0.2755 -0.3541
16663TIP3   OH271479   4.220   3.652  10.540 -0.1910  0.4249  0.5534
16663TIP3    H171480   4.307   3.613  10.537 -0.6192 -0.5988 -2.2760
16663TIP3    H271481   4.160   3.578  10.535 -1.1631  1.2008  0.3680
16664TIP3   OH271482   5.295   0.326   5.004  0.1719  0.4017  0.0250
16664TIP3    H171483   5.371   0.271   4.984 -1.3549 -2.0257  0.5486
16664TIP3    H271484   5.280   0.376   4.924  1.0555 -0.6476 -0.8350
16665TIP3   OH271485   6.110   6.150   3.320  0.4025 -0.5928  0.5683
16665TIP3    H171486   6.102   6.114   3.408  2.8441 -0.1507  1.0556
16665TIP3    H271487   6.101   6.245   3.332  0.2633 -0.5659  0.2664
16666TIP3   OH271488   2.494   6.330   0.854 -0.0979  0.1214 -0.6454
16666TIP3    H171489   2.478   6.413   0.899  0.9621  0.7217 -1.3419
16666TIP3    H271490   2.425   6.272   0.886  0.3977  0.6257  1.4609
16667TIP3   OH271491   6.109   1.806   1.769 -0.4290  0.0815 -0.2009
16667TIP3    H171492   6.137   1.868   1.837 -0.2378 -0.2541  0.0278
16667TIP3    H271493   6.185   1.749   1.756 -0.8268 -0.5176  0.0632
16668TIP3   OH271494   5.319   5.575  11.072  0.1878 -0.4774 -0.1506
16668TIP3    H171495   5.374   5.597  11.148 -0.1755  1.3324 -0.3590
16668TIP3    H271496   5.380   5.573  10.998  0.6261 -2.7524  0.2256
16669TIP3   OH271497   6.724   1.854  13.228  0.5980 -0.4165 -0.5100
16669TIP3    H171498   6.667   1.858  13.305  0.3572  0.3707 -0.7161
16669TIP3    H271499   6.809   1.884  13.260  0.4749 -0.0009 -0.5683
16670TIP3   OH271500   4.089   6.346  16.516  0.0817  0.2205  0.3090
16670TIP3    H171501   4.007   6.301  16.535 -0.2463  0.8148  0.3227
16670TIP3    H271502   4.157   6.290  16.554 -0.3260 -0.1798  0.4568
16671TIP3   OH271503   1.939   5.890   6.148 -0.5439  0.6081  0.0581
16671TIP3    H171504   1.879   5.922   6.216 -4.0791  2.2835 -3.4197
16671TIP3    H271505   1.979   5.970   6.113  2.4299 -0.3542  0.9987
16672TIP3   OH271506   2.723   3.066   5.861  0.2104 -0.2410 -0.2499
16672TIP3    H171507   2.784   3.063   5.787  2.2796  1.2755  1.2762
16672TIP3    H271508   2.737   3.152   5.900  0.5901 -1.6293  2.9759
16673TIP3   OH271509   4.937   3.178  14.021 -0.0848  0.4832 -0.1646
16673TIP3    H171510   4.891   3.261  14.013  1.2368  1.3124  0.4416
16673TIP3    H271511   4.890   3.131  14.090 -2.9482 -0.8113 -2.7418
16674TIP3   OH271512   1.184   0.534  14.195 -0.2187 -0.1146 -0.5211
16674TIP3    H171513   1.098   0.551  14.232  0.2567 -0.1182  0.6499
16674TIP3    H271514   1.245   0.552  14.267  0.8627  1.1304 -1.6836
16675TIP3   OH271515   4.080   5.045   2.731  0.0275  0.3464 -0.0118
16675TIP3    H171516   4.047   5.026   2.643 -1.8057 -0.0878  0.7087
16675TIP3    H271517   4.090   5.140   2.732  0.1936  0.3445 -0.7357
16676TIP3   OH271518   2.811   4.406  16.113 -0.5342 -0.5537 -0.0231
16676TIP3    H171519   2.812   4.431  16.020 -0.7547  2.0258  0.6016
16676TIP3    H271520   2.725   4.433  16.144  0.0816 -0.0216  1.2663
16677TIP3   OH271521   3.993   0.254   6.294  0.2163  0.1515  0.0888
16677TIP3    H171522   4.078   0.223   6.325  0.0936 -0.2785  0.0027
16677TIP3    H271523   4.006   0.273   6.201  0.2446  0.1747  0.0978
16678TIP3   OH271524   4.485   5.075   5.427  0.0148  0.2183  0.3083
16678TIP3    H171525   4.532   4.993   5.444 -0.3484 -0.5348 -1.9291
16678TIP3    H271526   4.525   5.109   5.347 -2.1115  0.4002 -0.7400
16679TIP3   OH271527   4.480   3.089  16.254 -0.4582  0.0010 -0.3357
16679TIP3    H171528   4.403   3.122  16.206 -0.7915 -1.5183 -0.8906
16679TIP3    H271529   4.484   2.996  16.232  2.9032  0.4607 -2.1619
16680TIP3   OH271530   1.809   0.395  16.899 -0.5197 -0.0761  0.4292
16680TIP3    H171531   1.873   0.465  16.889 -1.0101  0.5825  1.6403
16680TIP3    H271532   1.830   0.332  16.830 -0.3626  1.4841 -0.9938
16681TIP3   OH271533   3.073   4.825   1.298  0.3339 -0.4041  0.6265
16681TIP3    H171534   3.108   4.736   1.308  0.5043 -0.5836 -1.1651
16681TIP3    H271535   3.135   4.881   1.344  1.3849 -1.0186  0.0038
16682TIP3   OH271536   3.458   3.533  13.180  0.2341 -0.1951 -0.8496
16682TIP3    H171537   3.372   3.570  13.161  0.4766  0.0273 -1.5504
16682TIP3    H271538   3.505   3.603  13.225 -0.7431 -1.1196  1.7651
16683TIP3   OH271539   1.980   5.847  12.440  0.1412 -0.0098  0.0965
16683TIP3    H171540   2.023   5.877  12.360 -0.8153  0.1682 -0.3647
16683TIP3    H271541   1.897   5.809  12.410 -0.1882 -0.0177  0.9941
16684TIP3   OH271542   2.548   6.297   3.051  0.6037 -0.0421  0.0886
16684TIP3    H171543   2.567   6.280   2.959 -0.2527  1.8105 -0.4865
16684TIP3    H271544   2.497   6.378   3.050  0.7745  0.1476  2.2153
16685TIP3   OH271545   2.838   0.185  15.875 -0.3011 -0.0022 -0.1912
16685TIP3    H171546   2.844   0.274  15.909 -0.1218 -0.4464  1.0070
16685TIP3    H271547   2.866   0.192  15.784 -0.1419  1.1414 -0.0726
16686TIP3   OH271548   1.855   0.410   5.400 -0.0264 -0.1175  0.2775
16686TIP3    H171549   1.858   0.437   5.492 -3.2191 -1.6149  0.9678
16686TIP3    H271550   1.929   0.350   5.391  1.3454  1.3071  1.3375
16687TIP3   OH271551   5.462   4.874   2.650 -0.1140  0.0018 -0.1522
16687TIP3    H171552   5.533   4.816   2.625 -1.2770 -2.0169  1.0341
16687TIP3    H271553   5.502   4.939   2.708  1.3977  1.1128 -2.3031
16688TIP3   OH271554   4.521   4.233  12.768 -0.4436  0.4851 -0.0728
16688TIP3    H171555   4.439   4.193  12.796 -0.2914  0.5610  0.4800
16688TIP3    H271556   4.520   4.320  12.808  1.2570 -0.5457  2.4465
16689TIP3   OH271557   0.207   0.024   2.349  0.7091  0.2428 -0.0896
16689TIP3    H171558   0.162  -0.027   2.417 -0.0155 -0.6268 -1.1904
16689TIP3    H271559   0.295   0.038   2.384  1.2035 -2.4542 -0.0348
16690TIP3   OH271560   5.061   5.797  13.402  0.1738  0.5924 -0.4676
16690TIP3    H171561   5.028   5.880  13.435 -2.2338 -0.3622 -0.2314
16690TIP3    H271562   5.040   5.799  13.308 -2.0588 -0.5770 -0.0795
16691TIP3   OH271563   0.709   2.808   0.271 -0.0398  0.3240  1.2592
16691TIP3    H171564   0.666   2.737   0.319  1.1073 -1.2463  0.0916
16691TIP3    H271565   0.791   2.823   0.319  1.8795 -2.3348 -0.8270
16692TIP3   OH271566   4.053   3.446   3.962  0.4472  0.7319 -1.2216
16692TIP3    H171567   4.087   3.411   3.880  2.2392  1.0591 -0.6587
16692TIP3    H271568   4.055   3.541   3.949 -0.8381  0.7472 -1.3841
16693TIP3   OH271569   4.630   4.000   5.321  0.3910  0.0365 -0.6594
16693TIP3    H171570   4.714   4.044   5.307 -0.1771  1.6912  0.7180
16693TIP3    H271571   4.631   3.976   5.414 -1.9576  3.2506  0.3816
16694TIP3   OH271572   1.941   4.946  12.026 -0.6586 -0.0308 -0.5046
16694TIP3    H171573   1.970   4.971  11.939 -0.0222  0.1108 -0.2623
16694TIP3    H271574   1.948   4.851  12.028 -0.3313 -0.0091 -0.4973
16695TIP3   OH271575   3.937   5.004   1.355  0.4953 -0.0381  0.4815
16695TIP3    H171576   3.946   4.921   1.401  1.4509 -0.0417  0.3043
16695TIP3    H271577   4.018   5.052   1.375  0.0033  0.8049  0.4982
16696TIP3   OH271578   5.875   2.719   1.918 -0.4040 -0.1918 -0.0387
16696TIP3    H171579   5.935   2.757   1.982  0.7477 -0.6780 -0.7945
16696TIP3    H271580   5.830   2.649   1.965 -0.1266 -0.0397  0.4534
16697TIP3   OH271581   6.409   6.332   5.633 -0.5968  0.1394 -0.0440
16697TIP3    H171582   6.354   6.410   5.642 -1.4858 -0.4490 -0.3114
16697TIP3    H271583   6.358   6.272   5.579  0.8373  0.0716 -1.3975
16698TIP3   OH271584   1.494   0.794  15.474  0.2777  0.2436 -0.6727
16698TIP3    H171585   1.556   0.859  15.442  0.0289  1.2430  0.7896
16698TIP3    H271586   1.546   0.715  15.486  1.2045  0.9666  0.1818
16699TIP3   OH271587   1.666   4.852  17.000  0.7845 -1.3698  0.5037
16699TIP3    H171588   1.620   4.924  16.956  2.0049 -1.5431 -1.1472
16699TIP3    H271589   1.729   4.896  17.058  3.0221 -0.9254 -2.0320
16700TIP3   OH271590   4.393   1.468   0.636 -0.2473  0.2106  0.0660
16700TIP3    H171591   4.400   1.396   0.574  0.0437 -0.2555  0.6345
16700TIP3    H271592   4.343   1.433   0.709 -0.1613  0.5987  0.3152
16701TIP3   OH271593   6.540   2.381   0.230 -0.4547 -0.2145 -0.4681
16701TIP3    H171594   6.609   2.446   0.217 -0.8852 -0.2203 -3.4022
16701TIP3    H271595   6.459   2.430   0.215 -0.9257 -0.9003 -0.1959
16702TIP3   OH271596   0.511   4.418  12.931 -0.2132 -0.2409  0.5465
16702TIP3    H171597   0.573   4.443  12.862  0.8871 -1.4878  1.0239
16702TIP3    H271598   0.473   4.501  12.960  1.4480  0.6126  0.4160
16703TIP3   OH271599   3.705   2.855   5.858  0.4221 -0.6825 -0.3506
16703TIP3    H171600   3.653   2.810   5.791  0.1551 -0.4996 -0.2679
16703TIP3    H271601   3.655   2.934   5.878 -0.3407 -1.5222  1.2344
16704TIP3   OH271602   4.297   3.550  11.154  0.0784  0.7736  0.8056
16704TIP3    H171603   4.277   3.529  11.063  0.0588  1.8864  0.5449
16704TIP3    H271604   4.383   3.509  11.169 -1.8589 -3.4185  1.7375
16705TIP3   OH271605   6.301   3.257   1.873  0.0888 -0.0030 -0.2320
16705TIP3    H171606   6.234   3.318   1.906 -0.4255 -2.0018  2.8635
16705TIP3    H271607   6.377   3.274   1.928  0.5763 -0.7984 -0.6453
16706TIP3   OH271608   5.673   0.418   3.639  0.1536 -0.1361  0.4647
16706TIP3    H171609   5.769   0.418   3.644  0.2762  1.1224 -1.0121
16706TIP3    H271610   5.644   0.446   3.726  0.9994 -2.6054  1.6223
16707TIP3   OH271611   1.188   6.740  14.926 -0.0813 -0.7504  0.3664
16707TIP3    H171612   1.155   6.825  14.956  0.1355 -0.8624  0.9515
16707TIP3    H271613   1.212   6.695  15.007  2.5600 -0.2641 -0.0726
16708TIP3   OH271614   3.954   3.388   1.047 -0.9072  0.4472  0.0941
16708TIP3    H171615   3.875   3.336   1.061 -1.9250  1.4087 -1.7514
16708TIP3    H271616   3.948   3.458   1.111 -1.3297  0.2923  0.2282
16709TIP3   OH271617   3.145   6.437  14.219  0.2697 -0.5261  0.2492
16709TIP3    H171618   3.086   6.486  14.161 -2.4457 -1.8174  1.6819
16709TIP3    H271619   3.168   6.359  14.168 -0.4704 -0.6909  0.1449
16710TIP3   OH271620   4.454   0.460   0.048 -0.1056 -0.2712 -0.6799
16710TIP3    H171621   4.467   0.371   0.080  1.3375  0.3468  0.5781
16710TIP3    H271622   4.380   0.493   0.100 -0.8217 -0.7869 -1.3387
16711TIP3   OH271623   0.517   5.782  14.237  0.2608 -0.2181 -0.4908
16711TIP3    H171624   0.461   5.731  14.295  0.3169 -0.5947 -0.7673
16711TIP3    H271625   0.547   5.855  14.291 -2.2464  1.2395 -0.9380
16712TIP3   OH271626   5.457   3.692  12.511 -0.7018 -0.0988 -0.2796
16712TIP3    H171627   5.539   3.679  12.556 -1.5639 -2.6666  0.6864
16712TIP3    H271628   5.446   3.788  12.508  0.8960  0.2378  2.1296
16713TIP3   OH271629   1.840   5.046  13.832  0.0620 -0.5472  0.6183
16713TIP3    H171630   1.799   5.044  13.746  1.6226 -0.0364 -0.1816
16713TIP3    H271631   1.814   4.964  13.874  0.9575 -1.8277 -1.1907
16714TIP3   OH271632   0.200   3.479  11.116  0.8518  0.5433 -0.3785
16714TIP3    H171633   0.144   3.484  11.194  1.0927 -0.4739 -0.1258
16714TIP3    H271634   0.260   3.407  11.135  0.8323  0.2037 -1.5645
16715TIP3   OH271635   4.914   1.881   3.959 -0.2780  0.5954  0.3283
16715TIP3    H171636   4.972   1.817   3.917  0.1411  0.9709  0.3219
16715TIP3    H271637   4.888   1.839   4.041 -0.6851  0.0712 -0.0624
16716TIP3   OH271638   0.027   6.725   5.546  0.7816  0.1370 -0.1784
16716TIP3    H171639  -0.007   6.814   5.545  1.0056  0.3195  2.5892
16716TIP3    H271640  -0.049   6.670   5.565  1.2215  0.1663  1.9444
16717TIP3   OH271641   0.226   0.547   0.518 -0.4494 -0.2393  0.2822
16717TIP3    H171642   0.293   0.603   0.478 -1.2307  0.1763 -0.4763
16717TIP3    H271643   0.272   0.466   0.539 -0.2688 -1.0506 -2.8017
16718TIP3   OH271644   5.642   1.875  12.253  0.1771 -0.3256 -0.2013
16718TIP3    H171645   5.564   1.825  12.230  0.9874 -0.8521 -1.9774
16718TIP3    H271646   5.608   1.958  12.285 -1.1403 -0.1905 -1.7987
16719TIP3   OH271647   6.328   3.119  16.765  0.0142  0.4360  0.3903
16719TIP3    H171648   6.320   3.148  16.674 -1.7047 -1.0709  0.0009
16719TIP3    H271649   6.239   3.096  16.791  0.5861  0.1074  2.2204
16720TIP3   OH271650   2.665   4.911  15.330 -0.5848 -0.4277 -0.2927
16720TIP3    H171651   2.595   4.977  15.327 -0.8354 -0.5412  1.7807
16720TIP3    H271652   2.618   4.827  15.326 -0.4332 -0.5000 -0.5755
16721TIP3   OH271653   3.770   4.104  15.889  0.0647  0.6719 -0.6382
16721TIP3    H171654   3.857   4.109  15.928 -0.1812  1.3501 -0.1561
16721TIP3    H271655   3.779   4.150  15.805  0.4828 -0.4011 -1.2047
16722TIP3   OH271656   0.404   1.610  12.123  0.3517  0.3727  0.5935
16722TIP3    H171657   0.488   1.653  12.139 -0.3564  2.6765 -1.2845
16722TIP3    H271658   0.341   1.682  12.116 -1.6619 -1.2376  1.0859
16723TIP3   OH271659   5.901   0.498  16.204 -0.3963 -0.5595 -0.2825
16723TIP3    H171660   5.934   0.452  16.281  0.2376 -2.2722 -1.5097
16723TIP3    H271661   5.924   0.441  16.130  1.2657  2.1446 -2.0410
16724TIP3   OH271662   2.691   2.587   5.895  0.6434 -0.1539 -0.5113
16724TIP3    H171663   2.598   2.605   5.910  0.3014 -2.2280  0.1800
16724TIP3    H271664   2.693   2.499   5.860  2.4612 -1.1537  1.8153
16725TIP3   OH271665   2.257   5.391   3.922  0.6030  0.6150 -0.8406
16725TIP3    H171666   2.228   5.391   3.831  0.1207 -0.2282 -0.6945
16725TIP3    H271667   2.256   5.484   3.947  0.3795  0.8171 -1.5747
16726TIP3   OH271668   0.739   1.081  12.720 -0.5037 -0.0669  0.1609
16726TIP3    H171669   0.705   1.162  12.681 -1.1710 -0.9543 -1.1792
16726TIP3    H271670   0.829   1.101  12.743 -1.0642  1.4984  1.2112
16727TIP3   OH271671   2.417   6.708   0.651 -0.2035 -0.3555 -0.4277
16727TIP3    H171672   2.502   6.675   0.621  0.0459  0.5748 -0.7852
16727TIP3    H271673   2.359   6.697   0.576 -0.2678 -0.5329 -0.3508
16728TIP3   OH271674   3.754   0.178  12.731  0.3287 -0.3270  0.0433
16728TIP3    H171675   3.734   0.271  12.737 -0.7900 -0.2994 -2.5719
16728TIP3    H271676   3.669   0.135  12.731  0.7586 -1.2072 -0.2945
16729TIP3   OH271677   0.155   3.774  16.854 -0.0062 -0.3157  0.1166
16729TIP3    H171678   0.175   3.680  16.856 -1.4740 -0.7179 -1.4686
16729TIP3    H271679   0.152   3.795  16.761 -3.6899  0.3343  0.2449
16730TIP3   OH271680   1.177   5.604  11.804  0.0342  0.2709  0.0055
16730TIP3    H171681   1.228   5.523  11.796  0.3662  0.2805  1.7367
16730TIP3    H271682   1.231   5.661  11.858 -1.3321  0.6860  0.9872
16731TIP3   OH271683   3.745   2.118   2.177 -0.4918  0.3724  0.1135
16731TIP3    H171684   3.720   2.196   2.128 -1.0068 -0.6217 -1.2631
16731TIP3    H271685   3.840   2.120   2.179 -0.4969  1.8562  1.5291
16732TIP3   OH271686   2.791   1.742   0.121 -0.2108 -0.3796 -0.1102
16732TIP3    H171687   2.873   1.770   0.162 -0.1504  0.3812 -0.7226
16732TIP3    H271688   2.734   1.721   0.195  0.6792 -1.4078  0.3243
16733TIP3   OH271689   3.664   4.500   2.293 -0.3680  0.0734 -0.7882
16733TIP3    H171690   3.588   4.512   2.350 -0.4566 -1.2876 -0.5887
16733TIP3    H271691   3.651   4.564   2.222 -1.1424  0.5819 -0.2057
16734TIP3   OH271692   3.501   5.291   0.491  0.0346  0.8357 -0.2036
16734TIP3    H171693   3.493   5.198   0.513 -0.0032  0.6429 -1.0181
16734TIP3    H271694   3.418   5.313   0.449  0.2203  1.1308 -0.4137
16735TIP3   OH271695   6.404   3.701   1.075 -0.1922  0.2570  0.1392
16735TIP3    H171696   6.410   3.690   1.170 -0.2925 -0.1283  0.1031
16735TIP3    H271697   6.436   3.789   1.059 -1.3630  0.7954  0.6605
16736TIP3   OH271698   1.317   6.282   4.384 -0.4312 -0.1661  0.2341
16736TIP3    H171699   1.311   6.187   4.400  0.3071  0.0847  2.2431
16736TIP3    H271700   1.395   6.291   4.328 -1.8425 -0.8936 -1.9836
16737TIP3   OH271701   2.534   1.578   2.292 -0.1027 -0.1664 -0.3729
16737TIP3    H171702   2.454   1.628   2.311  0.2355  0.0763  0.4968
16737TIP3    H271703   2.605   1.635   2.323  0.3627 -0.6775 -0.4953
16738TIP3   OH271704   0.288   3.355   1.505  0.1831  0.1373 -0.5824
16738TIP3    H171705   0.221   3.287   1.498  0.1645 -0.0728  1.2485
16738TIP3    H271706   0.270   3.399   1.588  1.1248  1.3845 -1.0019
16739TIP3   OH271707   2.592   2.030  12.185 -0.6162 -0.2457 -0.0523
16739TIP3    H171708   2.553   1.946  12.159 -1.3963  0.2040 -0.3971
16739TIP3    H271709   2.686   2.013  12.190 -0.7683 -1.1459 -0.0924
16740TIP3   OH271710   0.237   1.897   2.334 -0.1094 -0.6616  0.4127
16740TIP3    H171711   0.304   1.889   2.402 -0.2622 -0.8559  0.5404
16740TIP3    H271712   0.245   1.988   2.304 -0.4843 -0.3762  1.1557
16741TIP3   OH271713   5.840   4.179   2.838 -0.1065 -0.0654 -0.0786
16741TIP3    H171714   5.880   4.256   2.877  0.5636  0.3732 -1.5920
16741TIP3    H271715   5.911   4.116   2.830 -0.1259  0.0313 -1.0506
16742TIP3   OH271716   2.835   5.982   0.289  0.1592  0.6372 -0.0282
16742TIP3    H171717   2.762   5.921   0.298  0.5580 -0.5057 -3.1954
16742TIP3    H271718   2.895   5.958   0.360 -1.5997  0.2750  1.3982
16743TIP3   OH271719   1.590   5.789  16.478 -0.2790 -0.4574 -0.3107
16743TIP3    H171720   1.653   5.796  16.406  0.2967  1.1200  0.2882
16743TIP3    H271721   1.639   5.748  16.549 -0.4072 -0.6685 -0.3435
16744TIP3   OH271722   3.320   4.156  11.842 -0.6208  0.0605 -0.2487
16744TIP3    H171723   3.363   4.093  11.783 -1.0835 -0.7352  0.2407
16744TIP3    H271724   3.305   4.233  11.787 -0.0325 -0.2477 -0.8651
16745TIP3   OH271725   2.009   0.695   4.526 -0.4102 -0.0759  0.0387
16745TIP3    H171726   2.025   0.788   4.545  0.1577 -0.4729  1.6591
16745TIP3    H271727   2.024   0.687   4.432 -2.4243  1.8468 -0.5246
16746TIP3   OH271728   0.198   5.768  13.737  0.3727  0.1301 -0.0400
16746TIP3    H171729   0.192   5.740  13.646  4.2126 -1.3381 -0.0135
16746TIP3    H271730   0.227   5.859  13.732  0.5891  0.0486 -0.2771
16747TIP3   OH271731   2.102   2.841   2.834 -0.3994 -0.2785 -0.4664
16747TIP3    H171732   2.134   2.754   2.855 -1.5094 -0.9392 -1.4293
16747TIP3    H271733   2.169   2.878   2.776 -0.1472 -0.6723 -0.4263
16748TIP3   OH271734   6.604   2.451  14.357  0.1018 -0.1506  0.4931
16748TIP3    H171735   6.673   2.482  14.416  1.3663  0.5121 -1.2444
16748TIP3    H271736   6.650   2.392  14.296 -0.4078  1.6890 -1.8339
16749TIP3   OH271737   4.473   0.959   6.108  0.1879  0.4352 -0.8742
16749TIP3    H171738   4.388   1.001   6.098 -0.6622 -0.6162  1.3081
16749TIP3    H271739   4.514   1.004   6.181  0.6920 -0.2885 -0.7008
16750TIP3   OH271740   0.346   3.803  10.201 -0.0645 -0.3156 -0.0911
16750TIP3    H171741   0.323   3.830  10.290  1.4021  2.4791 -0.4416
16750TIP3    H271742   0.266   3.765  10.165 -1.7453  1.7398  1.2950
16751TIP3   OH271743   1.263   0.210   6.010  0.1255  0.1485 -0.4918
16751TIP3    H171744   1.346   0.198   5.963  0.6421 -2.3584  0.8855
16751TIP3    H271745   1.197   0.176   5.950  0.2903  0.5650 -0.9158
16752TIP3   OH271746   0.643   5.482   4.377  0.3277  0.7667  0.4547
16752TIP3    H171747   0.726   5.510   4.416  0.9793 -0.3599 -0.0562
16752TIP3    H271748   0.658   5.390   4.354 -1.5713  0.0869  1.7127
16753TIP3   OH271749   4.173   0.166  16.309  0.0820 -0.6099 -0.1055
16753TIP3    H171750   4.094   0.135  16.353  0.2797  0.8232  1.3770
16753TIP3    H271751   4.241   0.105  16.337 -0.2872 -1.2211 -0.5196
16754TIP3   OH271752   0.819   1.322  12.501  0.5826  0.6298  0.4527
16754TIP3    H171753   0.787   1.376  12.429  1.1257  0.7109  0.2635
16754TIP3    H271754   0.758   1.338  12.573 -0.7988 -0.5110 -0.3916
16755TIP3   OH271755   2.522   1.208   1.456 -0.5667 -0.5818  0.1096
16755TIP3    H171756   2.557   1.189   1.369 -0.4671  0.1658 -0.0188
16755TIP3    H271757   2.429   1.184   1.450 -0.4164 -1.1611  0.0067
16756TIP3   OH271758   3.200   1.270   1.782 -0.0594 -0.2352 -0.1113
16756TIP3    H171759   3.274   1.261   1.842  0.2345 -1.4179 -0.6200
16756TIP3    H271760   3.214   1.355   1.740  0.9125 -0.3552 -0.0663
16757TIP3   OH271761   4.457   4.747  10.943  0.6461  0.2709 -0.0727
16757TIP3    H171762   4.416   4.733  10.857  0.2602 -1.6810  0.3818
16757TIP3    H271763   4.539   4.793  10.922 -0.8952  2.7617 -1.1378
16758TIP3   OH271764   3.233   2.134   5.245  0.2276 -0.0314  0.2296
16758TIP3    H171765   3.323   2.127   5.211  0.2989  0.0980  0.3853
16758TIP3    H271766   3.183   2.172   5.173  0.4452  0.5414  0.3741
16759TIP3   OH271767   0.361   3.028  11.447 -0.4660 -0.4873  0.1848
16759TIP3    H171768   0.338   3.106  11.499  0.0437 -0.6543  0.6638
16759TIP3    H271769   0.406   2.971  11.509  1.1266 -0.2303 -0.7042
16760TIP3   OH271770   0.676   3.554   3.962 -0.8065 -0.0732 -0.0854
16760TIP3    H171771   0.597   3.526   3.916 -0.5212  0.3946 -0.8742
16760TIP3    H271772   0.714   3.473   3.997 -1.0195 -0.4415 -0.6932
16761TIP3   OH271773   4.803   1.063   1.022 -0.3534 -0.5247  0.0584
16761TIP3    H171774   4.790   0.969   1.038  0.0135 -0.4555  0.7972
16761TIP3    H271775   4.804   1.071   0.926 -0.2790 -1.2947 -0.0109
16762TIP3   OH271776   3.078   3.507  15.734  0.4971 -0.8053 -0.4700
16762TIP3    H171777   3.058   3.594  15.701  0.7229 -0.7515 -0.4687
16762TIP3    H271778   3.023   3.448  15.682 -0.5655 -0.5653  0.3667
16763TIP3   OH271779   6.299   0.993   3.917  0.2116 -0.2022 -0.2884
16763TIP3    H171780   6.232   1.062   3.922  0.6973  0.2703 -0.1368
16763TIP3    H271781   6.379   1.036   3.949  0.4786 -0.8992 -0.0124
16764TIP3   OH271782   3.469   1.082  16.829 -0.0039  0.1101 -0.1322
16764TIP3    H171783   3.383   1.123  16.830  1.2011  2.8742  0.0170
16764TIP3    H271784   3.529   1.151  16.859  2.3868 -1.4097 -1.1034
16765TIP3   OH271785   5.681   5.383  14.039 -0.0310 -0.3157  0.1644
16765TIP3    H171786   5.626   5.308  14.016  0.7803 -0.6775 -0.6525
16765TIP3    H271787   5.626   5.435  14.099 -0.5611 -1.6060  0.8465
16766TIP3   OH271788   5.335   5.730   5.789  0.7473  0.2107 -0.5793
16766TIP3    H171789   5.305   5.820   5.803  0.8798  0.3201 -0.9890
16766TIP3    H271790   5.297   5.704   5.705  2.3559  0.5998 -1.4643
16767TIP3   OH271791   3.749   6.341   5.495  0.3536 -0.2478 -0.3212
16767TIP3    H171792   3.681   6.398   5.459 -2.1979 -1.5647  2.0490
16767TIP3    H271793   3.824   6.399   5.509 -1.2707  1.9823 -0.2733
16768TIP3   OH271794   2.023   5.512  16.496  0.2276  0.5407 -0.2248
16768TIP3    H171795   2.091   5.482  16.557 -0.6523 -0.4723  0.2894
16768TIP3    H271796   1.986   5.432  16.459  1.0964  1.1387 -2.5611
16769TIP3   OH271797   5.092   4.628  15.277  0.0764  0.8478 -0.2377
16769TIP3    H171798   5.176   4.591  15.303 -0.1814 -0.4722 -1.1947
16769TIP3    H271799   5.098   4.721  15.299  1.3321  0.5416  0.7938
16770TIP3   OH271800   5.096   5.243   3.138 -0.0219 -0.7387 -0.0316
16770TIP3    H171801   5.190   5.248   3.156  0.5749 -3.3043 -1.8128
16770TIP3    H271802   5.068   5.163   3.184 -1.2684 -0.1991  0.1768
16771TIP3   OH271803   0.803   4.641   5.119 -0.0930 -0.5163  0.1759
16771TIP3    H171804   0.727   4.583   5.113 -2.0978  2.0776 -1.2395
16771TIP3    H271805   0.783   4.699   5.193 -0.3885  1.2986 -1.2663
16772TIP3   OH271806   2.786   3.637  11.265  0.4224 -0.1411  0.1686
16772TIP3    H171807   2.750   3.707  11.210  1.1197  0.6666  0.7132
16772TIP3    H271808   2.798   3.563  11.205 -0.3614  0.1837 -0.4088
16773TIP3   OH271809   2.493   4.055  13.137 -0.5516 -0.1615 -0.0185
16773TIP3    H171810   2.563   3.991  13.138 -0.5398 -0.1473  0.0465
16773TIP3    H271811   2.537   4.139  13.121 -0.5821 -0.1891 -0.2516
16774TIP3   OH271812   0.833   0.567   1.160 -0.2568  0.2478 -0.0462
16774TIP3    H171813   0.779   0.551   1.083 -0.9183  1.2639  0.1837
16774TIP3    H271814   0.771   0.565   1.233  0.3562 -0.6767  0.4645
16775TIP3   OH271815   2.945   5.275  16.939 -0.5384  0.3007  0.1469
16775TIP3    H171816   2.914   5.272  16.849  1.6614 -1.4369 -0.6294
16775TIP3    H271817   2.869   5.248  16.991 -0.4716 -4.4638 -1.7119
16776TIP3   OH271818   3.170   1.586  12.092  0.4699  0.5272  0.0027
16776TIP3    H171819   3.240   1.528  12.062  0.0005  0.4151 -0.9167
16776TIP3    H271820   3.197   1.673  12.062  0.5286  0.5832  0.2164
16777TIP3   OH271821   2.954   4.586   3.587 -0.0055 -0.0027  0.0906
16777TIP3    H171822   2.937   4.662   3.643  1.1184 -0.9047  1.7443
16777TIP3    H271823   3.049   4.589   3.572 -0.1019 -0.5421 -0.6392
16778TIP3   OH271824   4.095   3.026  14.717  0.2866 -0.5817  0.5712
16778TIP3    H171825   4.039   3.063  14.786 -1.0406  1.8579 -1.6399
16778TIP3    H271826   4.035   2.974  14.663  0.5857  0.1925 -0.5425
16779TIP3   OH271827   1.900   2.334  16.292 -0.0690  0.0569 -0.1090
16779TIP3    H171828   1.868   2.417  16.328 -0.9145  0.5875 -1.9410
16779TIP3    H271829   1.848   2.267  16.336 -1.8404  0.7507 -1.0496
16780TIP3   OH271830   2.271   4.853   2.861  0.6502  0.0618  0.3428
16780TIP3    H171831   2.298   4.839   2.952  1.9898 -0.9463 -0.1909
16780TIP3    H271832   2.177   4.837   2.862  0.7621 -0.6332  1.4232
16781TIP3   OH271833   3.953   4.042  13.078  0.0063  0.1661  0.0979
16781TIP3    H171834   3.989   4.130  13.088 -0.5187  0.4273 -0.2912
16781TIP3    H271835   3.859   4.055  13.068 -0.1144 -0.4633  0.3566
16782TIP3   OH271836   2.456   0.229  14.260  0.4483 -0.3834  0.1364
16782TIP3    H171837   2.489   0.214  14.348  1.0438 -2.4869 -0.3829
16782TIP3    H271838   2.394   0.302  14.269  1.8602  0.6673  1.9353
16783TIP3   OH271839   3.359   1.525   0.970 -0.2016 -0.3331 -0.1324
16783TIP3    H171840   3.272   1.547   0.936 -0.3788 -0.0069  0.5101
16783TIP3    H271841   3.345   1.514   1.064  0.7720  1.4293  0.2630
16784TIP3   OH271842   2.113   6.528  16.021  0.1967 -0.6132  0.4903
16784TIP3    H171843   2.073   6.481  15.949 -0.2286 -0.2689  0.4996
16784TIP3    H271844   2.040   6.554  16.077  0.3112  0.9664 -0.0516
16785TIP3   OH271845   4.469   2.665   3.624 -0.6404 -0.1459 -0.0114
16785TIP3    H171846   4.412   2.589   3.607 -1.3426  0.7316 -1.8201
16785TIP3    H271847   4.432   2.706   3.702 -0.7500 -1.1709  0.4960
16786TIP3   OH271848   6.624   2.680  13.756  0.2038 -0.0145 -0.4799
16786TIP3    H171849   6.705   2.664  13.805 -0.0339  1.9446  0.6516
16786TIP3    H271850   6.638   2.765  13.713  0.1017 -1.2961 -3.2826
16787TIP3   OH271851   2.000   4.754  14.649 -0.3446  0.0270  0.2497
16787TIP3    H171852   1.993   4.749  14.553  2.4138 -1.3233  0.0112
16787TIP3    H271853   2.056   4.830  14.665  1.1685 -1.1035  0.5659
16788TIP3   OH271854   2.590   2.986   4.211 -0.1298 -0.6254 -0.5907
16788TIP3    H171855   2.623   2.974   4.300  1.2107  1.4859 -0.7518
16788TIP3    H271856   2.497   2.963   4.217 -0.0305 -0.7211  1.2941
16789TIP3   OH271857   0.150   6.256  16.257 -0.6625 -0.3572  0.1419
16789TIP3    H171858   0.105   6.173  16.272 -0.4360 -0.7274 -1.0990
16789TIP3    H271859   0.125   6.311  16.331 -3.1619 -0.5297 -0.4766
16790TIP3   OH271860   0.599   4.216  17.033 -0.3111  0.2176 -0.2602
16790TIP3    H171861   0.516   4.180  17.001 -0.6999  0.4425  0.4771
16790TIP3    H271862   0.664   4.152  17.005 -0.8793 -0.5812  0.1905
16791TIP3   OH271863   5.587   4.365   2.893  0.2151 -0.3302 -0.1405
16791TIP3    H171864   5.641   4.444   2.898  2.4470 -1.3620 -3.8646
16791TIP3    H271865   5.633   4.301   2.948  0.4937 -0.0703 -0.0674
16792TIP3   OH271866   6.669   1.646   4.910  0.3499 -0.2915 -0.5314
16792TIP3    H171867   6.706   1.721   4.955  2.1704 -2.2740  1.5680
16792TIP3    H271868   6.744   1.602   4.871 -0.7040 -0.8777 -1.9822
16793TIP3   OH271869   1.388   5.081   4.125 -0.6816 -0.6857  0.3033
16793TIP3    H171870   1.308   5.069   4.073 -0.5272 -0.5939  0.0387
16793TIP3    H271871   1.458   5.050   4.067  0.0743  3.5614 -1.4774
16794TIP3   OH271872   2.510   0.464   2.681  0.0908 -0.2463 -0.3863
16794TIP3    H171873   2.520   0.559   2.680 -0.7158 -0.1429  0.2522
16794TIP3    H271874   2.599   0.431   2.696  0.4543  0.3788 -1.0914
16795TIP3   OH271875   3.523   0.033  15.293 -0.3696  0.5283  0.9425
16795TIP3    H171876   3.433   0.066  15.287 -0.1149  1.0211 -0.6273
16795TIP3    H271877   3.577   0.111  15.292  0.0930  0.2209  1.6441
16796TIP3   OH271878   2.338   6.679   4.364  0.3902 -0.1786  0.9667
16796TIP3    H171879   2.335   6.709   4.455 -0.1615  1.3260  0.4681
16796TIP3    H271880   2.270   6.729   4.319 -0.9185 -2.5164  0.1654
16797TIP3   OH271881   4.425   6.504   2.990 -0.1815 -0.0220 -0.0049
16797TIP3    H171882   4.351   6.479   3.045 -0.5346 -1.5741 -1.1323
16797TIP3    H271883   4.502   6.487   3.044 -0.4732 -2.4671 -0.2659
16798TIP3   OH271884   5.768   6.608  13.392  0.3193 -0.2630 -0.2261
16798TIP3    H171885   5.763   6.594  13.487 -1.3920 -1.1583 -0.4247
16798TIP3    H271886   5.720   6.689  13.377  0.0755 -0.4380 -0.3917
16799TIP3   OH271887   5.799   2.511   5.766  0.2375 -0.4193 -0.4034
16799TIP3    H171888   5.758   2.463   5.838  0.2829  1.5124  0.9800
16799TIP3    H271889   5.784   2.456   5.689  0.9098 -2.9933  1.1644
16800TIP3   OH271890   5.149   2.812  12.180 -0.2418  0.8686  0.4838
16800TIP3    H171891   5.135   2.864  12.101 -0.4273 -0.0110 -0.0847
16800TIP3    H271892   5.240   2.828  12.204  0.3844 -0.2100 -0.9671
16801TIP3   OH271893   4.533   1.010   3.987 -0.3077 -0.0676  0.1348
16801TIP3    H171894   4.460   1.004   4.049  1.8541  0.4275  2.9425
16801TIP3    H271895   4.558   1.102   3.989 -0.5401  0.0886 -2.0320
16802TIP3   OH271896   1.357   6.358  14.051  0.4294  0.2509 -0.5100
16802TIP3    H171897   1.299   6.425  14.086 -0.3901 -0.3233 -0.7409
16802TIP3    H271898   1.336   6.279  14.100  0.9581  0.0137 -0.6553
16803TIP3   OH271899   1.752   6.554  11.810  0.1133  0.6656 -0.1739
16803TIP3    H171900   1.799   6.471  11.822  1.5989  1.4788 -0.1734
16803TIP3    H271901   1.666   6.527  11.777  0.1746 -0.9248  0.8251
16804TIP3   OH271902   5.272   0.315  12.838 -0.1319  0.1895 -0.7881
16804TIP3    H171903   5.233   0.402  12.852  0.9117  0.5106  0.2236
16804TIP3    H271904   5.348   0.313  12.895  1.4119 -0.3964 -2.7304
16805TIP3   OH271905   4.989   3.876  17.163  0.0565  0.1918 -0.4730
16805TIP3    H171906   4.946   3.904  17.244 -0.5523 -1.5921 -0.1354
16805TIP3    H271907   5.083   3.884  17.182 -0.0839  1.2234 -0.1417
16806TIP3   OH271908   1.724   6.419   4.991  0.0012  0.6278 -0.2008
16806TIP3    H171909   1.807   6.394   4.951  0.7760  1.1824  1.0068
16806TIP3    H271910   1.678   6.468   4.923  1.3840  1.7629 -0.3461
16807TIP3   OH271911   6.780   0.996   2.930  0.2070 -0.2002  0.3119
16807TIP3    H171912   6.785   1.047   3.010  0.7683 -1.4726  1.1299
16807TIP3    H271913   6.773   0.905   2.960 -0.1659 -0.6549 -1.0798
16808TIP3   OH271914   3.938   0.015   3.539  0.0003 -0.1327 -0.3708
16808TIP3    H171915   3.932   0.065   3.620  0.3172 -1.0174  0.2175
16808TIP3    H271916   3.949   0.080   3.470 -0.6540  0.6523  0.2567
16809TIP3   OH271917   6.372   3.982   1.368  0.3241  0.0624 -0.5587
16809TIP3    H171918   6.465   4.006   1.374  0.6291  0.1596 -3.9528
16809TIP3    H271919   6.366   3.930   1.288 -2.2104 -1.9897  0.8272
16810TIP3   OH271920   0.739   3.872  12.536  0.2725  0.3343 -0.1775
16810TIP3    H171921   0.719   3.814  12.463 -0.6956  2.8692 -2.1115
16810TIP3    H271922   0.789   3.944  12.495  0.5373  1.3652  1.8494
16811TIP3   OH271923   5.530   2.454  17.162  0.2984 -0.3332 -0.0788
16811TIP3    H171924   5.526   2.534  17.214 -1.5321 -0.9528  0.8246
16811TIP3    H271925   5.544   2.384  17.225 -1.6366 -1.0673 -0.3939
16812TIP3   OH271926   2.480   6.738   0.099  0.0430  0.0011 -0.1442
16812TIP3    H171927   2.549   6.767   0.039  3.0863 -1.9057  2.1684
16812TIP3    H271928   2.514   6.659   0.140 -3.4475 -0.9011  1.4353
16813TIP3   OH271929   6.459   5.050  14.745 -0.4985  0.4457  0.3140
16813TIP3    H171930   6.549   5.020  14.729 -0.0150  2.2513 -0.6256
16813TIP3    H271931   6.461   5.084  14.834 -0.4204 -0.0548  0.5083
16814TIP3   OH271932   0.387   5.093  15.131  0.5009 -0.6930  0.2837
16814TIP3    H171933   0.367   5.038  15.207  1.8513  0.7379  1.7451
16814TIP3    H271934   0.426   5.172  15.168 -1.4462  1.3559 -1.7202
16815TIP3   OH271935   2.287   1.589   0.636  0.2120 -0.0645 -0.0257
16815TIP3    H171936   2.235   1.511   0.651  2.3257 -1.2449  1.7529
16815TIP3    H271937   2.377   1.557   0.632  1.0493  2.1707 -0.3066
16816TIP3   OH271938   2.762   6.019  16.607 -0.4796  0.4208  0.2303
16816TIP3    H171939   2.800   6.102  16.577  0.0490  0.1569  0.1438
16816TIP3    H271940   2.720   6.040  16.690  1.6381  0.3368  1.4134
16817TIP3   OH271941   1.873   6.533   2.668  0.7135  0.6089  0.1294
16817TIP3    H171942   1.905   6.510   2.756  1.6395 -0.7828 -0.5320
16817TIP3    H271943   1.782   6.559   2.681  0.0375 -1.9712  1.2280
16818TIP3   OH271944   1.408   1.445  10.747  0.3318 -0.2780 -0.1258
16818TIP3    H171945   1.477   1.436  10.812 -0.7133 -0.0795  1.0431
16818TIP3    H271946   1.436   1.519  10.693  0.8559  0.0411  0.5653
16819TIP3   OH271947   5.199   0.909   2.059  0.2001 -0.3170 -0.1292
16819TIP3    H171948   5.112   0.939   2.030 -0.0752 -1.3178 -0.3796
16819TIP3    H271949   5.232   0.981   2.114  0.6370  1.5661 -2.6638
16820TIP3   OH271950   5.152   1.696  14.678 -0.4021 -0.4146  0.4958
16820TIP3    H171951   5.211   1.622  14.692 -1.2301 -1.0430  0.7217
16820TIP3    H271952   5.065   1.663  14.700 -0.8980  0.4010 -0.1502
16821TIP3   OH271953   3.942   4.063  15.390 -0.0746  0.7368  0.7712
16821TIP3    H171954   4.023   4.100  15.354  1.0275 -1.8447  0.3754
16821TIP3    H271955   3.877   4.076  15.321  1.1469 -1.0437 -0.8050
16822TIP3   OH271956   0.774   5.265   5.098  0.0468  0.0143  0.1144
16822TIP3    H171957   0.837   5.328   5.133 -1.2715  1.0786  0.6680
16822TIP3    H271958   0.690   5.293   5.134 -1.0463 -0.2245 -2.0823
16823TIP3   OH271959   3.951   6.412   2.858 -0.0944  0.4530  0.3017
16823TIP3    H171960   3.884   6.374   2.915 -1.5034  0.5829 -1.2109
16823TIP3    H271961   3.972   6.342   2.795 -0.6277  1.2057 -0.7437
16824TIP3   OH271962   4.420   4.728  11.956  0.3879  0.0917  0.4626
16824TIP3    H171963   4.432   4.815  11.994 -0.4324  0.3985  0.0536
16824TIP3    H271964   4.437   4.668  12.028  1.2926  0.5753  0.6690
16825TIP3   OH271965   2.059   0.916   5.181 -0.0856 -0.6045  0.2760
16825TIP3    H171966   2.053   1.004   5.144  0.4250 -0.5214  0.3829
16825TIP3    H271967   1.988   0.912   5.244  0.0093 -0.1985  0.4106
16826TIP3   OH271968   5.663   4.195   5.972  0.4832 -0.2578 -0.4317
16826TIP3    H171969   5.647   4.167   6.062  0.6444  2.5665  0.5821
16826TIP3    H271970   5.603   4.142   5.919 -1.5380 -0.1743  1.6304
16827TIP3   OH271971   3.122   0.547   4.618 -0.2382  0.2289  0.1622
16827TIP3    H171972   3.112   0.634   4.578 -0.4858  1.0530  1.9503
16827TIP3    H271973   3.196   0.556   4.677  0.5928 -1.1935 -0.6067
16828TIP3   OH271974   3.677   2.388   0.213 -0.1475  0.2439 -0.0511
16828TIP3    H171975   3.688   2.306   0.263  1.5251  0.3630 -0.1706
16828TIP3    H271976   3.591   2.379   0.172 -0.0332 -1.4420 -0.0149
16829TIP3   OH271977   1.140   0.469  11.885 -0.0374  0.0029 -0.3241
16829TIP3    H171978   1.101   0.439  11.968 -0.1058  2.7296  0.7476
16829TIP3    H271979   1.066   0.496  11.832 -0.0286 -2.2533 -1.5644
16830TIP3   OH271980   3.745   1.982  12.423 -0.2705  0.0017  0.1383
16830TIP3    H171981   3.831   1.941  12.410 -0.6636 -0.6730 -0.4363
16830TIP3    H271982   3.747   2.012  12.514 -0.0623 -1.5887  0.6961
16831TIP3   OH271983   1.102   4.553  11.271 -0.8621  0.0648  0.4569
16831TIP3    H171984   1.011   4.543  11.243 -0.4182 -0.3946 -0.9057
16831TIP3    H271985   1.150   4.488  11.220  0.5267  1.6512 -0.3789
16832TIP3   OH271986   1.167   6.614  16.517 -0.0382  0.5008 -0.0130
16832TIP3    H171987   1.112   6.687  16.545 -0.9720 -0.6269  1.2198
16832TIP3    H271988   1.255   6.639  16.544 -0.8983 -0.7948  4.9896
16833TIP3   OH271989   3.447   0.658   3.080 -0.0486  0.1586 -0.7696
16833TIP3    H171990   3.456   0.725   3.148 -0.6389  0.4421 -0.9673
16833TIP3    H271991   3.493   0.582   3.116 -1.2097 -0.0324  0.4086
16834TIP3   OH271992   2.481   2.331   3.581 -0.6225  0.3452 -0.4467
16834TIP3    H171993   2.478   2.426   3.572  1.8334  0.4027 -1.2181
16834TIP3    H271994   2.453   2.315   3.671  0.6666  1.9597  0.2966
16835TIP3   OH271995   1.974   3.813  13.638 -0.3385 -0.8008 -0.6918
16835TIP3    H171996   1.947   3.871  13.710 -0.2403 -0.5822 -0.8294
16835TIP3    H271997   1.892   3.794  13.591 -0.0817  1.1989 -2.0963
16836TIP3   OH271998   1.526   4.650   5.813 -0.0548  0.1686  0.0430
16836TIP3    H171999   1.518   4.718   5.880 -2.4925 -0.0823  0.1012
16836TIP3    H272000   1.523   4.568   5.862  1.8193 -0.0513 -0.1236
16837TIP3   OH272001   1.167   1.128   0.834  0.6485 -0.0116  0.8328
16837TIP3    H172002   1.237   1.071   0.800  0.7912 -1.0342  2.7060
16837TIP3    H272003   1.122   1.160   0.756  2.5624 -0.1523 -0.3884
16838TIP3   OH272004   3.352   4.361   1.350 -0.2314  0.4071  0.8547
16838TIP3    H172005   3.427   4.420   1.362 -0.9196  1.5156 -0.1215
16838TIP3    H272006   3.384   4.293   1.291 -0.3320  1.5619 -0.5656
16839TIP3   OH272007   0.171   1.412   0.325  0.1798  0.3725  0.2582
16839TIP3    H172008   0.190   1.468   0.400  1.2505  1.3881 -0.7146
16839TIP3    H272009   0.227   1.446   0.255  1.8031 -2.6754 -0.0861
16840TIP3   OH272010   3.811   4.532   3.767  0.0620 -0.4899  0.1662
16840TIP3    H172011   3.903   4.544   3.790  0.0889 -1.5285  0.6364
16840TIP3    H272012   3.782   4.619   3.738  1.0930 -0.0775  0.3374
16841TIP3   OH272013   0.541   1.032  17.119 -0.0090 -0.6650 -0.1355
16841TIP3    H172014   0.477   1.008  17.186  0.4330 -3.2592 -0.5567
16841TIP3    H272015   0.488   1.058  17.043 -0.4995  0.7186  0.6344
16842TIP3   OH272016   0.350   3.076  14.201  0.7904  0.3497 -0.7200
16842TIP3    H172017   0.273   3.022  14.180  0.1307  0.5589  0.9943
16842TIP3    H272018   0.317   3.142  14.261  1.9442  1.6542 -1.4733
16843TIP3   OH272019   0.518   2.748   5.592 -0.4460 -0.1689  0.0188
16843TIP3    H172020   0.492   2.669   5.639 -0.5685 -0.8953 -1.2245
16843TIP3    H272021   0.603   2.727   5.554 -0.1773  0.5391  0.1988
16844TIP3   OH272022   5.902   1.801  13.442 -0.1927 -0.3133  0.0261
16844TIP3    H172023   5.883   1.797  13.349 -1.5639 -1.2024  0.3205
16844TIP3    H272024   5.984   1.850  13.448 -0.3753  0.2302 -1.5954
16845TIP3   OH272025   4.870   3.907  15.564  0.6344  0.6967 -0.0494
16845TIP3    H172026   4.848   3.820  15.528 -1.3206  1.2493 -0.2931
16845TIP3    H272027   4.876   3.893  15.658 -0.7092  0.4538  0.0255
16846TIP3   OH272028   4.057   5.648   5.304  0.0126  0.5086  0.3555
16846TIP3    H172029   4.080   5.736   5.333 -1.3177  0.7309  0.8186
16846TIP3    H272030   4.105   5.590   5.364  1.4601  0.8844 -0.4100
16847TIP3   OH272031   0.985   2.860   0.368  0.9356 -0.7565 -0.1579
16847TIP3    H172032   1.021   2.779   0.403  0.4684 -0.3141  1.4047
16847TIP3    H272033   1.008   2.927   0.432  1.7652  0.4818 -1.6715
16848TIP3   OH272034   2.648   5.342  12.334  0.2300 -0.2204 -0.1637
16848TIP3    H172035   2.689   5.256  12.322  0.6588 -0.2471  1.2436
16848TIP3    H272036   2.568   5.324  12.383  0.9072  0.2597  1.1739
16849TIP3   OH272037   5.631   4.780  11.506  0.8631  0.8226  0.5441
16849TIP3    H172038   5.712   4.773  11.556  0.5866  0.2267  0.9252
16849TIP3    H272039   5.563   4.752  11.568  0.4535  0.5890 -0.0060
16850TIP3   OH272040   3.607   6.747   2.035 -0.0582  0.0805 -0.0646
16850TIP3    H172041   3.670   6.789   1.978  2.2212 -0.7063  1.7019
16850TIP3    H272042   3.570   6.676   1.982  0.3619  0.6972 -1.2103
16851TIP3   OH272043   4.692   6.256   0.897  0.4210  0.0499  0.2408
16851TIP3    H172044   4.784   6.276   0.882  0.0659  1.5845 -0.0633
16851TIP3    H272045   4.648   6.282   0.816 -0.8366  3.5197  1.8576
16852TIP3   OH272046   3.098   5.625   0.531  0.8701 -0.3080 -0.0864
16852TIP3    H172047   3.113   5.548   0.585 -0.4886  0.9721  2.2630
16852TIP3    H272048   3.164   5.688   0.558  0.1317  0.3785  0.1747
16853TIP3   OH272049   1.140   4.227   0.007 -0.4959  0.3046  0.1311
16853TIP3    H172050   1.085   4.281  -0.050 -1.3088 -2.3912 -1.8361
16853TIP3    H272051   1.230   4.250  -0.019 -0.8413 -0.1893 -1.6821
16854TIP3   OH272052   5.539   2.722   4.912  0.3029  0.0477 -0.5506
16854TIP3    H172053   5.502   2.737   4.825  2.4428  1.4734 -1.2719
16854TIP3    H272054   5.487   2.777   4.970  1.0568  1.8494 -1.5093
16855TIP3   OH272055   2.593   6.114  16.257  0.1136 -0.3402  0.0244
16855TIP3    H172056   2.549   6.122  16.341 -0.6869 -0.3911 -0.3809
16855TIP3    H272057   2.548   6.177  16.200 -0.0309 -1.0342 -0.6462
16856TIP3   OH272058   3.411   4.973   3.978  0.1757 -0.0262 -0.2229
16856TIP3    H172059   3.379   4.963   4.068 -0.4562  1.7452 -0.1979
16856TIP3    H272060   3.471   5.048   3.983  0.1714  0.0584 -1.2515
16857TIP3   OH272061   3.148   4.195   0.652 -0.3728  0.4996  0.4550
16857TIP3    H172062   3.082   4.128   0.637 -1.4671  1.4171  0.9464
16857TIP3    H272063   3.220   4.150   0.696  0.1083 -0.8694 -1.5995
16858TIP3   OH272064   5.432   1.851   2.321 -0.2326  0.0604  0.5175
16858TIP3    H172065   5.364   1.918   2.321 -0.1044  0.1946  0.7209
16858TIP3    H272066   5.491   1.877   2.392 -1.7831 -1.8965  2.6890
16859TIP3   OH272067   1.908   4.034   4.571  0.4072  0.2151  0.1840
16859TIP3    H172068   1.893   4.098   4.640 -0.3705  0.7606 -0.4776
16859TIP3    H272069   1.997   4.002   4.587  0.3343  0.5091  1.2796
16860TIP3   OH272070   6.342   4.489  13.098  0.0823 -0.5977 -0.1393
16860TIP3    H172071   6.328   4.545  13.174  4.6936 -0.8093  1.1529
16860TIP3    H272072   6.333   4.548  13.023 -0.1320  0.7029  0.8719
16861TIP3   OH272073   0.161   0.278  11.811 -0.6581  0.0198 -0.1336
16861TIP3    H172074   0.120   0.360  11.783  0.4166  0.3145 -0.9026
16861TIP3    H272075   0.250   0.303  11.836 -0.4575 -0.8440  0.0383
16862TIP3   OH272076   5.035   1.963  15.547 -0.4872  0.0969 -0.7628
16862TIP3    H172077   4.946   1.932  15.526 -0.3778 -0.1151 -0.9224
16862TIP3    H272078   5.069   1.899  15.609 -1.1914  1.2866  0.9296
16863TIP3   OH272079   0.794   1.913  12.976  0.1228  0.7250 -0.0244
16863TIP3    H172080   0.737   1.837  12.988 -0.7205  1.5674  1.8532
16863TIP3    H272081   0.877   1.887  13.016 -0.3125  0.9054  1.0485
16864TIP3   OH272082   4.859   2.898  16.737 -0.0231 -0.3742 -0.4920
16864TIP3    H172083   4.814   2.979  16.713  0.7534 -0.2735 -1.7301
16864TIP3    H272084   4.919   2.923  16.807 -1.2016 -0.3168  0.5185
16865TIP3   OH272085   1.766   4.687   3.576 -0.0062  0.8266  0.4713
16865TIP3    H172086   1.681   4.730   3.574  0.3315  1.4888 -0.3458
16865TIP3    H272087   1.789   4.683   3.669  0.1258  2.7915  0.5617
16866TIP3   OH272088   2.648   4.718   1.619 -0.7775  0.1483  0.0408
16866TIP3    H172089   2.574   4.659   1.608 -1.4616  0.8099  0.9820
16866TIP3    H272090   2.725   4.663   1.603 -1.4401 -0.7268 -0.1927
16867TIP3   OH272091   6.369   2.332   2.241  0.0609  0.5247  0.3972
16867TIP3    H172092   6.437   2.364   2.299  0.7541 -0.2809  0.0568
16867TIP3    H272093   6.403   2.248   2.209 -0.7777  0.4511 -0.3309
16868TIP3   OH272094   6.655   2.457   3.618 -0.1185 -0.4613 -0.6325
16868TIP3    H172095   6.604   2.535   3.592  0.8673 -0.1474 -1.6969
16868TIP3    H272096   6.637   2.448   3.711 -0.5858  0.8027 -0.5702
16869TIP3   OH272097   3.573   5.131  16.442 -0.6325 -0.6433  0.1824
16869TIP3    H172098   3.481   5.156  16.448 -0.6971 -0.4332 -1.3781
16869TIP3    H272099   3.571   5.039  16.414 -0.3789 -0.2419 -1.1907
16870TIP3   OH272100   6.639   3.638  15.613  0.4873 -0.4199 -0.2011
16870TIP3    H172101   6.723   3.678  15.634  0.0322  0.6843 -0.4449
16870TIP3    H272102   6.583   3.658  15.688  0.1972 -0.4119 -0.4182
16871TIP3   OH272103   3.005   5.257   2.964 -0.3113  0.7744  0.3759
16871TIP3    H172104   2.909   5.253   2.959 -0.3144 -1.7219  1.2634
16871TIP3    H272105   3.025   5.240   3.056  1.0086  1.8408  0.3220
16872TIP3   OH272106   5.861   1.064   1.229 -0.2234  0.5295 -0.0884
16872TIP3    H172107   5.800   1.000   1.266 -0.9609  0.2890 -1.6128
16872TIP3    H272108   5.863   1.043   1.136  3.6326 -0.6548  0.0941
16873TIP3   OH272109   1.682   0.453   2.040 -0.4888  0.3919  0.4452
16873TIP3    H172110   1.746   0.395   2.081  1.7251  0.7681 -2.1861
16873TIP3    H272111   1.728   0.537   2.033 -1.3086  0.7300 -1.3692
16874TIP3   OH272112   2.271   3.717  13.491 -0.5469  0.3346  0.5670
16874TIP3    H172113   2.315   3.665  13.424 -0.4901  0.9234  0.1494
16874TIP3    H272114   2.216   3.778  13.442 -1.3661  0.0190  1.0685
16875TIP3   OH272115   3.852   3.609   5.884 -0.0934  0.1480 -0.1843
16875TIP3    H172116   3.880   3.630   5.794  0.6905  0.4887  0.1305
16875TIP3    H272117   3.930   3.624   5.937 -0.3719 -0.6823  0.4752
16876TIP3   OH272118   0.447   3.070   4.843  0.1679 -0.3209 -0.1516
16876TIP3    H172119   0.395   3.054   4.921 -0.8384 -2.0446 -1.1021
16876TIP3    H272120   0.482   2.984   4.819  0.1149  0.0751 -1.7962
16877TIP3   OH272121   1.842   5.750   0.698  0.4544  0.5044  0.6409
16877TIP3    H172122   1.749   5.769   0.692  0.8198  2.3098  0.2814
16877TIP3    H272123   1.846   5.662   0.735 -1.4375 -0.8922 -2.1086
16878TIP3   OH272124   1.364   1.025   4.660 -0.0353 -0.2675  0.0445
16878TIP3    H172125   1.416   1.019   4.580  1.1644  0.6486  0.7337
16878TIP3    H272126   1.329   0.937   4.672  1.3624 -0.9109 -0.4281
16879TIP3   OH272127   5.453   2.059   6.145 -0.1069  0.1975  0.2824
16879TIP3    H172128   5.394   2.131   6.122  0.3845  0.7850  0.8180
16879TIP3    H272129   5.438   2.045   6.238  0.8598  0.6176  0.5195
16880TIP3   OH272130   4.363   0.045  17.120  0.2767  0.1973 -0.1628
16880TIP3    H172131   4.436   0.106  17.116  1.0485 -0.6692 -4.2429
16880TIP3    H272132   4.286   0.099  17.100  0.0468  0.7125  1.9070
16881TIP3   OH272133   2.959   1.446   1.450 -0.0333 -0.2971 -0.1821
16881TIP3    H172134   2.896   1.517   1.436 -0.0325 -0.0103  1.0766
16881TIP3    H272135   2.909   1.381   1.499 -0.3694 -1.7233 -2.2943
16882TIP3   OH272136   1.574   3.800  15.678 -0.0593 -0.4151 -0.0578
16882TIP3    H172137   1.591   3.723  15.625 -1.4692 -0.0949 -1.0398
16882TIP3    H272138   1.587   3.770  15.768  1.5847 -1.1788 -0.5095
16883TIP3   OH272139   5.394   6.551  11.105 -0.5512  0.0652 -0.5393
16883TIP3    H172140   5.421   6.567  11.015 -1.5812  1.0636 -0.6820
16883TIP3    H272141   5.472   6.512  11.146  0.6900  1.6928 -1.2618
16884TIP3   OH272142   4.222   4.282  14.855 -0.5896 -0.0196 -0.2579
16884TIP3    H172143   4.293   4.334  14.894 -1.3290  0.4094  0.5721
16884TIP3    H272144   4.265   4.221  14.796  0.7807 -1.7977  2.4015
16885TIP3   OH272145   2.773   0.855  14.852 -0.0274  0.5478 -0.0498
16885TIP3    H172146   2.816   0.924  14.802 -1.2282  1.0182 -0.4571
16885TIP3    H272147   2.732   0.800  14.786 -1.0475  0.7841  0.3717
16886TIP3   OH272148   6.300   5.144  13.136 -0.0014  0.7552  0.2788
16886TIP3    H172149   6.271   5.225  13.094  0.2975  0.2382 -0.9720
16886TIP3    H272150   6.222   5.112  13.182 -0.3587  1.3091  0.0720
16887TIP3   OH272151   5.926   1.585  13.999  0.1592 -0.3057  0.5263
16887TIP3    H172152   5.948   1.598  13.907  2.0520  0.8102  1.0854
16887TIP3    H272153   5.837   1.548  13.998 -2.5920  5.2398 -1.6308
16888TIP3   OH272154   0.958   3.938   5.789 -0.7461  0.5099  0.2524
16888TIP3    H172155   1.038   3.983   5.763 -0.0467 -0.5103  0.5773
16888TIP3    H272156   0.910   3.924   5.708  0.4343 -0.7812 -0.2635
16889TIP3   OH272157   2.135   3.624  15.001  0.2221 -0.3795  0.2926
16889TIP3    H172158   2.136   3.546  15.057  1.0124 -0.6271 -0.0515
16889TIP3    H272159   2.221   3.664  15.015  0.6811 -0.7862 -1.2085
16890TIP3   OH272160   0.365   5.043   0.951 -0.5013  0.7441  0.9391
16890TIP3    H172161   0.361   4.965   1.006 -0.1157  0.5821  0.7428
16890TIP3    H272162   0.454   5.043   0.917 -1.0779  0.1570 -0.6682
16891TIP3   OH272163   2.064   2.385   4.387  0.0180  0.2467  0.2533
16891TIP3    H172164   2.074   2.351   4.476 -0.8341  1.2904  0.7587
16891TIP3    H272165   1.970   2.399   4.377  0.1687  0.7035 -0.6078
16892TIP3   OH272166   1.041   0.843   3.123  0.0904 -0.0357  0.1654
16892TIP3    H172167   1.056   0.932   3.092  0.1414 -0.1958 -0.2742
16892TIP3    H272168   0.984   0.803   3.057  0.4336 -0.4690  0.1265
16893TIP3   OH272169   1.149   0.026  12.655  0.1078  0.1499 -0.2708
16893TIP3    H172170   1.096   0.087  12.706  0.1462  0.1105 -0.1840
16893TIP3    H272171   1.239   0.048  12.677  0.1237  0.1135 -0.2993
16894TIP3   OH272172   2.022   0.331  12.732 -0.0904 -0.2987  0.0258
16894TIP3    H172173   2.059   0.349  12.818  0.5422  0.9745 -0.4747
16894TIP3    H272174   2.041   0.239  12.716 -1.0242 -0.7970  1.6046
16895TIP3   OH272175   0.960   0.648  13.832 -0.6485 -0.5254 -0.7309
16895TIP3    H172176   0.983   0.557  13.817  1.1528 -0.1295 -0.6174
16895TIP3    H272177   0.889   0.645  13.896 -1.4523 -1.8678 -1.6499
16896TIP3   OH272178   6.110   1.946  12.700 -0.4500 -0.2096  0.0873
16896TIP3    H172179   6.135   1.860  12.666 -0.5309 -0.0607 -0.3516
16896TIP3    H272180   6.126   2.006  12.627  0.2871  0.2568  0.6249
16897TIP3   OH272181   3.463   2.910   2.248 -0.3094  0.2130 -0.4658
16897TIP3    H172182   3.541   2.946   2.204 -0.6494  1.2804 -0.2188
16897TIP3    H272183   3.470   2.942   2.338 -0.3840 -0.7465 -0.1084
16898TIP3   OH272184   1.891   4.460   2.771 -0.4221  0.3305  0.3661
16898TIP3    H172185   1.983   4.434   2.763 -0.1174  1.5247 -0.2187
16898TIP3    H272186   1.869   4.444   2.863  0.1030 -0.7621  0.3250
16899TIP3   OH272187   2.732   0.294   2.687  0.2346  0.3052 -0.0748
16899TIP3    H172188   2.707   0.305   2.595  0.5347  1.1884 -0.0652
16899TIP3    H272189   2.804   0.231   2.686 -0.2480 -0.2450 -0.3690
16900TIP3   OH272190   5.315   5.129  14.154  0.5569  0.5281  0.2856
16900TIP3    H172191   5.278   5.070  14.088 -0.6838  1.0097  0.5135
16900TIP3    H272192   5.250   5.199  14.162 -0.1973 -0.3474  3.1935
16901TIP3   OH272193   5.325   5.208   5.116  0.0610 -0.6010 -0.1982
16901TIP3    H172194   5.339   5.117   5.090  0.4630 -0.4778 -0.4285
16901TIP3    H272195   5.360   5.260   5.043  0.5127 -0.2592  0.2499
16902TIP3   OH272196   0.319   1.425  11.944  0.3212  0.3824 -0.8096
16902TIP3    H172197   0.304   1.478  11.865  2.1956 -0.1945 -1.5947
16902TIP3    H272198   0.364   1.484  12.004 -3.5211  1.7539  1.1124
16903TIP3   OH272199   2.812   0.032   4.843 -0.2120  0.7027  0.1047
16903TIP3    H172200   2.762   0.026   4.762  1.9964  0.4723 -1.2952
16903TIP3    H272201   2.865   0.111   4.833 -0.0737  0.8038  1.4446
16904TIP3   OH272202   0.519   2.112  15.500  0.1793 -0.0782  0.6575
16904TIP3    H172203   0.571   2.042  15.462  0.5629  0.3182  0.4460
16904TIP3    H272204   0.582   2.180  15.522 -0.3159  0.7376 -0.3300
16905TIP3   OH272205   1.675   4.497   1.618  0.4939 -0.4489 -0.2184
16905TIP3    H172206   1.641   4.417   1.658  0.6672 -0.2730  0.2965
16905TIP3    H272207   1.647   4.493   1.527 -0.5957 -0.4868  0.1017
16906TIP3   OH272208   2.100   4.861   0.867 -0.1361  0.7339  0.6476
16906TIP3    H172209   2.013   4.851   0.828  0.0585 -1.4071  0.6308
16906TIP3    H272210   2.159   4.871   0.792 -0.2902  1.4835  0.6264
16907TIP3   OH272211   6.307   2.254   1.396 -0.3731 -0.6433 -0.0284
16907TIP3    H172212   6.353   2.188   1.344  1.0010  0.4004 -0.2155
16907TIP3    H272213   6.310   2.221   1.485  0.3992 -0.7926 -0.1062
16908TIP3   OH272214   5.763   3.469   4.098 -0.2209 -0.7260  0.6808
16908TIP3    H172215   5.686   3.525   4.109  0.0197 -0.5695  1.7027
16908TIP3    H272216   5.728   3.384   4.072 -0.4784  0.3992 -3.2264
16909TIP3   OH272217   4.635   0.845  13.292  0.3313  0.6305  0.2480
16909TIP3    H172218   4.668   0.781  13.229  0.5733  0.8056  0.1953
16909TIP3    H272219   4.646   0.930  13.248 -2.3362  0.5651 -0.7570
16910TIP3   OH272220   3.515   3.827  17.100  0.3205  0.1498  0.0816
16910TIP3    H172221   3.462   3.878  17.038 -1.4208 -0.0397  1.3412
16910TIP3    H272222   3.597   3.875  17.108  0.3476  0.5008 -1.8786
16911TIP3   OH272223   6.715   0.789  10.661 -0.0749  0.1625 -0.0862
16911TIP3    H172224   6.760   0.803  10.578 -1.9368  0.7200 -1.0513
16911TIP3    H272225   6.648   0.858  10.664 -2.0283 -1.6467  0.4101
16912TIP3   OH272226   4.751   0.604  16.250  0.0097  0.4884 -0.4441
16912TIP3    H172227   4.821   0.602  16.185 -0.2654  0.2282 -0.7350
16912TIP3    H272228   4.675   0.567  16.205  0.0216 -0.4381  0.2580
16913TIP3   OH272229   3.111   2.224   0.174 -0.9614  0.1939 -0.3700
16913TIP3    H172230   3.084   2.251   0.262  0.4125  0.4508 -0.0116
16913TIP3    H272231   3.090   2.131   0.170  0.5058 -0.2210  0.8619
16914TIP3   OH272232   6.478   5.342  10.259 -0.8889  0.0862 -0.0977
16914TIP3    H172233   6.426   5.326  10.180  0.4744  0.1282 -1.0393
16914TIP3    H272234   6.468   5.262  10.310 -1.4211 -0.1336 -0.5378
16915TIP3   OH272235   6.064   3.093  14.328 -0.5119  0.5354 -0.3292
16915TIP3    H172236   6.128   3.080  14.258 -0.3656  1.7632 -0.4402
16915TIP3    H272237   6.039   3.004  14.354  3.6701 -0.1919  2.0284
16916TIP3   OH272238   1.316   3.465   2.205  0.0617 -0.1385 -0.1037
16916TIP3    H172239   1.318   3.530   2.135  0.1444 -0.5123 -0.4461
16916TIP3    H272240   1.377   3.397   2.178  2.1613  0.9460  1.5432
16917TIP3   OH272241   0.996   4.805  11.507  0.4705 -0.0029 -0.1490
16917TIP3    H172242   0.964   4.893  11.526  0.5948  0.1945 -0.8213
16917TIP3    H272243   0.939   4.747  11.557  0.0052  0.4286 -0.1718
16918TIP3   OH272244   4.466   6.106   5.507 -0.1919 -0.3307 -0.0015
16918TIP3    H172245   4.552   6.090   5.544 -0.4626 -3.0507 -0.3170
16918TIP3    H272246   4.405   6.085   5.578 -0.6181 -1.1613 -0.5960
16919TIP3   OH272247   0.006   4.065  17.153 -0.0472 -0.5451  0.2907
16919TIP3    H172248   0.042   4.154  17.161 -0.2820 -0.5989  2.5448
16919TIP3    H272249   0.073   4.009  17.191 -0.7936 -1.0954  0.8105
16920TIP3   OH272250   1.123   6.748   0.483  0.9228 -0.4334 -0.4992
16920TIP3    H172251   1.086   6.783   0.563  1.5528 -1.9046  0.4732
16920TIP3    H272252   1.217   6.743   0.500  0.8326 -2.9517 -0.3910
16921TIP3   OH272253   0.918   5.966   5.033  0.6246 -0.5441  0.6125
16921TIP3    H172254   0.871   6.022   5.096  1.4112  2.0775 -0.9581
16921TIP3    H272255   0.899   6.005   4.948  2.8748 -1.4592 -0.3778
16922TIP3   OH272256   5.720   1.401   1.941 -0.2496  0.2158  0.1958
16922TIP3    H172257   5.767   1.322   1.916  0.2917  0.5488  0.1441
16922TIP3    H272258   5.767   1.472   1.898 -0.2708  0.6376  0.8477
16923TIP3   OH272259   3.953   3.684   2.696  1.0945  0.1257  0.4398
16923TIP3    H172260   3.885   3.677   2.763 -0.7381 -0.8538 -1.3876
16923TIP3    H272261   3.942   3.773   2.661 -0.0603 -0.3959 -0.5967
16924TIP3   OH272262   4.396   0.024   4.796  0.0734  0.6021  0.1125
16924TIP3    H172263   4.320   0.000   4.744 -0.5669  3.1280 -0.2379
16924TIP3    H272264   4.360   0.060   4.877  0.7414  3.0034 -0.5583
16925TIP3   OH272265   5.358   5.561  13.506  0.2582 -0.5032  0.4719
16925TIP3    H172266   5.338   5.591  13.417 -0.5198 -0.5898  0.6066
16925TIP3    H272267   5.439   5.512  13.497  1.6792  1.7430  0.2710
16926TIP3   OH272268   0.008   0.124   3.904  0.1201  0.1166 -0.9476
16926TIP3    H172269   0.005   0.042   3.953  0.2295 -0.7711 -2.3851
16926TIP3    H272270   0.099   0.132   3.875 -0.2506 -0.1217 -2.2223
16927TIP3   OH272271   6.202   2.444   0.521 -0.1404  0.1538  0.5757
16927TIP3    H172272   6.270   2.396   0.568  0.5375  0.0354 -0.4898
16927TIP3    H272273   6.231   2.535   0.524 -0.4216  0.2366  0.9094
16928TIP3   OH272274   4.923   1.045   2.774 -0.2169  0.0820  0.9330
16928TIP3    H172275   4.925   1.077   2.864  2.0164  0.0117  0.9853
16928TIP3    H272276   4.973   0.964   2.777  1.7639  1.1384 -0.6708
16929TIP3   OH272277   0.498   2.905   0.678 -0.3975  0.0168  0.7377
16929TIP3    H172278   0.510   2.972   0.611 -1.0536 -1.0442 -0.4843
16929TIP3    H272279   0.571   2.844   0.664 -2.1199 -1.7981 -1.0386
16930TIP3   OH272280   3.297   4.799  16.806 -0.1779  0.2606  0.0926
16930TIP3    H172281   3.380   4.764  16.837 -0.7790 -0.5282  0.8693
16930TIP3    H272282   3.306   4.894  16.815  0.7730  0.2116 -0.2154
16931TIP3   OH272283   0.999   1.169   2.749  0.3601 -0.1188 -0.8221
16931TIP3    H172284   0.989   1.261   2.725 -1.2063 -0.3316 -1.0652
16931TIP3    H272285   0.921   1.148   2.801  0.0442 -1.6192 -1.8198
16932TIP3   OH272286   3.207   2.147  10.704 -0.3164  0.7612  0.2087
16932TIP3    H172287   3.147   2.221  10.700  0.2255  1.1794 -0.3119
16932TIP3    H272288   3.166   2.086  10.766 -2.9850 -0.4269 -2.4487
16933TIP3   OH272289   3.902   4.150   5.662 -0.0863 -0.2492 -0.2144
16933TIP3    H172290   3.867   4.230   5.701  0.9446 -0.8345  2.0746
16933TIP3    H272291   3.844   4.080   5.694 -1.4412 -0.4272 -2.8029
16934TIP3   OH272292   6.639   0.677  13.379  0.1407  0.3231  0.7492
16934TIP3    H172293   6.650   0.720  13.463 -1.0681  0.6079  0.7852
16934TIP3    H272294   6.619   0.748  13.317 -0.8030 -0.0480  0.6023
16935TIP3   OH272295   5.007   2.470   0.641  0.6453 -0.0855 -0.0419
16935TIP3    H172296   5.048   2.502   0.722  1.6755  1.3607 -1.0922
16935TIP3    H272297   4.932   2.527   0.628  0.9035  0.1512 -0.4904
16936TIP3   OH272298   0.604   4.071  16.528  0.7199  0.4233 -0.1438
16936TIP3    H172299   0.670   4.015  16.486  0.9815  0.5479  0.0931
16936TIP3    H272300   0.520   4.037  16.497  0.8951  0.2429 -0.4265
16937TIP3   OH272301   4.507   5.618   0.576  0.1465 -0.6267 -0.4630
16937TIP3    H172302   4.555   5.577   0.648 -0.0426  0.3768  0.2473
16937TIP3    H272303   4.420   5.637   0.613  1.1987  3.4286  0.3568
16938TIP3   OH272304   4.710   5.750   6.409 -0.5665 -0.0385  0.4614
16938TIP3    H172305   4.778   5.748   6.476 -0.3548  2.4670  0.4227
16938TIP3    H272306   4.734   5.823   6.352 -1.4244 -1.2915 -1.6473
16939TIP3   OH272307   1.189   0.151  13.202 -0.1154 -0.2999  0.0536
16939TIP3    H172308   1.096   0.142  13.179  0.0240 -0.8204 -0.3204
16939TIP3    H272309   1.236   0.107  13.131  0.4121 -0.1761  0.3210
16940TIP3   OH272310   6.605   5.806   4.147  0.1063  0.2095 -0.2377
16940TIP3    H172311   6.586   5.779   4.057  1.1888  0.1372 -0.4553
16940TIP3    H272312   6.564   5.892   4.155 -1.3697 -0.4513 -0.2725
16941TIP3   OH272313   0.364   5.801   4.802  0.5084 -0.4323  0.3645
16941TIP3    H172314   0.379   5.891   4.772  1.5007 -0.5739  0.3747
16941TIP3    H272315   0.351   5.751   4.721 -1.9630  0.0044  0.4333
16942TIP3   OH272316   1.806   1.525  15.368 -0.2827 -0.2164  0.3263
16942TIP3    H172317   1.754   1.510  15.288 -1.7577  3.3740  0.3950
16942TIP3    H272318   1.741   1.526  15.438  0.3860  0.7033  0.9524
16943TIP3   OH272319   5.927   6.209  13.435 -0.1974 -0.2324  0.0789
16943TIP3    H172320   5.837   6.239  13.423 -0.3536 -0.4782  0.6172
16943TIP3    H272321   5.930   6.177  13.525 -0.3223 -2.8167 -0.7540
16944TIP3   OH272322   0.795   1.986   3.423  0.5225  0.2345 -0.0714
16944TIP3    H172323   0.851   1.949   3.491  0.5150 -0.5536 -0.4834
16944TIP3    H272324   0.787   2.078   3.446 -0.3159 -0.2130  1.5534
16945TIP3   OH272325   1.761   0.585   3.795 -0.0609 -0.1692 -0.1741
16945TIP3    H172326   1.735   0.548   3.880  0.3748  1.7530  0.8435
16945TIP3    H272327   1.771   0.679   3.811  1.2931  0.0743 -2.0577
16946TIP3   OH272328   1.280   4.137  11.535 -0.2892 -0.5228 -0.4732
16946TIP3    H172329   1.358   4.191  11.548  0.0377 -1.1505  0.2396
16946TIP3    H272330   1.219   4.194  11.488 -0.8229  1.2903  2.1890
16947TIP3   OH272331   2.928   5.807  14.742  0.1675  0.1633  0.4968
16947TIP3    H172332   2.889   5.734  14.694 -1.9211  0.9983  0.8063
16947TIP3    H272333   2.908   5.788  14.833  2.8330 -0.6691  0.9746
16948TIP3   OH272334   6.244   0.641  14.165  0.0693 -0.1714  0.3150
16948TIP3    H172335   6.279   0.580  14.100  0.7691 -0.9659  1.4003
16948TIP3    H272336   6.184   0.589  14.218  0.4528  0.1431  1.0754
16949TIP3   OH272337   5.046   5.996  11.432 -0.2609 -0.0603 -0.1055
16949TIP3    H172338   5.001   5.912  11.423 -0.9010 -0.0190  2.0892
16949TIP3    H272339   4.975   6.060  11.442  0.2004  0.1656  2.2274
16950TIP3   OH272340   4.689   3.152  14.972 -0.1719  0.2070 -0.1190
16950TIP3    H172341   4.667   3.182  14.884 -2.4193 -1.2408 -0.1183
16950TIP3    H272342   4.782   3.130  14.967 -0.5451 -1.1966 -2.5888
16951TIP3   OH272343   4.366   2.063   6.800 -0.3491  0.5293 -0.1872
16951TIP3    H172344   4.425   1.988   6.806 -1.5510 -0.3637  1.1256
16951TIP3    H272345   4.354   2.076   6.706  3.0380  1.7050 -0.6044
16952TIP3   OH272346   1.225   0.516  15.618  0.1637 -0.0696 -0.2546
16952TIP3    H172347   1.162   0.530  15.688  1.1496  3.4152  0.1072
16952TIP3    H272348   1.184   0.555  15.541  1.0135  0.4236 -0.4707
16953TIP3   OH272349   1.940   2.873   1.846  0.0908  0.0966 -0.2222
16953TIP3    H172350   1.992   2.892   1.768  0.5280  0.3435  0.1218
16953TIP3    H272351   1.852   2.853   1.813  0.6067 -1.1608 -0.8677
16954TIP3   OH272352   2.780   1.983   5.906 -0.0720  0.7050  0.4663
16954TIP3    H172353   2.798   1.906   5.852 -0.3051  0.0463  1.3089
16954TIP3    H272354   2.688   2.003   5.889  0.0334  0.8899  0.1233
16955TIP3   OH272355   1.735   0.936  15.638  0.5704  0.2875  0.0636
16955TIP3    H172356   1.730   1.014  15.694 -0.5281  0.0654  0.3128
16955TIP3    H272357   1.697   0.964  15.555 -1.7002 -0.4469  0.7627
16956TIP3   OH272358   2.813   6.385   0.997  0.2959 -0.2977 -0.1484
16956TIP3    H172359   2.821   6.401   0.903 -0.7696 -2.5244 -0.6766
16956TIP3    H272360   2.843   6.295   1.009  0.7548  0.0659  1.7254
16957TIP3   OH272361   5.570   1.550  16.303  0.8679 -0.2456  0.2152
16957TIP3    H172362   5.531   1.608  16.238 -0.1825 -1.0476  0.1103
16957TIP3    H272363   5.661   1.579  16.309  0.4753  1.1383 -0.1327
16958TIP3   OH272364   0.033   6.426  11.745 -0.3097 -0.3830 -0.5930
16958TIP3    H172365  -0.037   6.490  11.758 -0.7268 -1.1297  1.2406
16958TIP3    H272366   0.046   6.389  11.832  1.1668 -1.5061 -1.2701
16959TIP3   OH272367   1.674   1.410   4.602 -0.0405 -0.5099  0.2899
16959TIP3    H172368   1.592   1.370   4.573  1.4058 -2.9123 -0.8000
16959TIP3    H272369   1.708   1.350   4.668  1.8445 -0.7548 -0.8436
16960TIP3   OH272370   0.288   2.520   3.504  0.7379  0.4569 -0.2403
16960TIP3    H172371   0.316   2.505   3.413  0.9264 -0.2269 -0.0725
16960TIP3    H272372   0.306   2.438   3.549  0.0734  0.5822  0.2794
16961TIP3   OH272373   2.199   6.177   0.234  0.1127  0.4732 -0.2516
16961TIP3    H172374   2.148   6.099   0.212  0.3150  0.6015 -1.2584
16961TIP3    H272375   2.289   6.152   0.216  0.1503  1.0250 -0.8792
16962TIP3   OH272376   3.096   0.116  12.958 -0.0077  0.0989  0.3105
16962TIP3    H172377   3.076   0.166  12.878  1.0694 -0.9709 -0.6693
16962TIP3    H272378   3.188   0.135  12.975 -0.0534 -0.2178  0.9090
16963TIP3   OH272379   1.256   0.606  15.362 -0.5068 -0.1116  0.1064
16963TIP3    H172380   1.332   0.663  15.364 -0.3266 -0.3285  2.5971
16963TIP3    H272381   1.208   0.632  15.283  1.4061  0.9733 -0.7473
16964TIP3   OH272382   4.027   5.176   0.223  0.1864 -0.1631  0.0902
16964TIP3    H172383   3.945   5.219   0.198  0.2519  0.4879  0.9733
16964TIP3    H272384   4.013   5.084   0.203 -0.7732 -0.0583  0.2573
16965TIP3   OH272385   1.066   1.087   3.496  0.4782  0.1411  0.1563
16965TIP3    H172386   1.056   0.999   3.532 -0.5243  0.6977  1.3199
16965TIP3    H272387   0.991   1.136   3.531  1.1577  1.5212 -0.2540
16966TIP3   OH272388   3.766   0.200  14.672  0.0834  0.1930  0.5285
16966TIP3    H172389   3.691   0.148  14.642  1.2997 -0.8062 -0.9214
16966TIP3    H272390   3.780   0.171  14.762 -0.9386  0.0258  0.6491
16967TIP3   OH272391   4.053   4.624   0.784 -0.3176  0.1487  0.0983
16967TIP3    H172392   4.068   4.699   0.842 -1.9484  0.0405  0.7085
16967TIP3    H272393   4.068   4.658   0.696  3.7838 -0.0552  0.5280
16968TIP3   OH272394   0.740   1.478   3.735 -0.0612  0.2690  0.3384
16968TIP3    H172395   0.688   1.483   3.655  1.3889  2.5674 -0.5369
16968TIP3    H272396   0.696   1.536   3.797  0.3334  0.6738  0.2495
16969TIP3   OH272397   4.982   6.248   0.840 -0.0231 -1.0581  0.6070
16969TIP3    H172398   4.962   6.286   0.754  1.1478 -1.1664  0.2693
16969TIP3    H272399   5.023   6.164   0.820  0.9053 -0.7721  1.2466
16970TIP3   OH272400   5.211   5.162   2.751 -0.9289 -0.0295  0.0218
16970TIP3    H172401   5.223   5.237   2.693 -2.1062  0.7454  0.7290
16970TIP3    H272402   5.251   5.089   2.704 -1.3655  0.6757 -1.5212
16971TIP3   OH272403   2.056   5.302  16.812 -0.1775 -0.4009  0.0571
16971TIP3    H172404   2.032   5.241  16.882 -0.1302 -1.2665 -0.6609
16971TIP3    H272405   1.985   5.366  16.810 -0.8508 -1.1320  0.0314
16972TIP3   OH272406   2.913   3.687  12.890  0.1101 -0.3576  0.7838
16972TIP3    H172407   2.822   3.659  12.903 -0.0064 -1.9829 -2.5951
16972TIP3    H272408   2.920   3.704  12.796  2.8361  1.7087  1.2373
16973TIP3   OH272409   6.739   4.951   3.909  0.3172  0.5593 -0.3353
16973TIP3    H172410   6.806   4.902   3.957 -0.1235  1.2436  1.0474
16973TIP3    H272411   6.783   4.983   3.831  1.3568  0.2742  0.1211
16974TIP3   OH272412   2.859   1.656   5.830 -0.6425  0.3329 -0.0568
16974TIP3    H172413   2.926   1.709   5.787 -0.8783  1.5276  0.9911
16974TIP3    H272414   2.906   1.612   5.901 -0.7183  0.2370 -0.0665
16975TIP3   OH272415   2.763   5.859   5.046  0.1209  0.5181 -0.4542
16975TIP3    H172416   2.668   5.852   5.053  0.0201  2.0651  0.0210
16975TIP3    H272417   2.785   5.808   4.968 -0.6663 -2.9067  1.3296
16976TIP3   OH272418   4.888   6.320   4.839 -0.7724  0.2722 -0.6889
16976TIP3    H172419   4.932   6.359   4.763  0.3206  0.6083  0.0912
16976TIP3    H272420   4.797   6.349   4.831 -0.1760  2.3370 -0.6026
16977TIP3   OH272421   1.218   3.943  16.569  0.0980 -0.3176  0.2520
16977TIP3    H172422   1.313   3.952  16.568  0.0616  0.1278 -0.7832
16977TIP3    H272423   1.200   3.874  16.504 -0.2313 -1.2121  1.2534
16978TIP3   OH272424   3.024   1.992  14.324  0.1590  0.6822  0.0213
16978TIP3    H172425   3.069   1.912  14.295 -1.2485  0.2679 -1.1548
16978TIP3    H272426   3.038   1.994  14.418  0.1181 -1.0391  0.1026
16979TIP3   OH272427   0.711   2.539   3.022  0.4180 -0.3904  0.2048
16979TIP3    H172428   0.770   2.479   2.975  0.3521 -0.7076  0.5248
16979TIP3    H272429   0.674   2.486   3.093 -1.0601 -0.5126 -0.6091
16980TIP3   OH272430   5.902   6.142  16.879  0.2319 -0.4260 -0.6984
16980TIP3    H172431   5.913   6.093  16.961  1.0473 -0.1615 -0.6372
16980TIP3    H272432   5.885   6.074  16.813  2.8203 -1.0222 -0.8878
16981TIP3   OH272433   4.230   1.298  14.084 -0.1894 -0.1635 -0.2763
16981TIP3    H172434   4.135   1.310  14.091 -0.1509  0.5092 -0.8033
16981TIP3    H272435   4.242   1.204  14.076 -0.9431 -0.1537 -1.9031
16982TIP3   OH272436   5.780   2.307   5.590 -0.4852 -0.0810 -0.0517
16982TIP3    H172437   5.807   2.248   5.660  0.2768  0.9721  0.5588
16982TIP3    H272438   5.820   2.269   5.511 -0.0435 -0.3990  0.3188
16983TIP3   OH272439   5.139   1.675  13.254 -0.3299 -0.0814 -0.2799
16983TIP3    H172440   5.056   1.685  13.300  0.3828  2.5678  0.6236
16983TIP3    H272441   5.205   1.708  13.315  0.9495  1.2080 -2.2375
16984TIP3   OH272442   0.509   3.013  13.113  0.7421 -0.0685  0.6842
16984TIP3    H172443   0.594   2.977  13.141  0.5839  0.9175  2.5826
16984TIP3    H272444   0.496   3.089  13.168 -2.2907 -1.2912  1.8448
16985TIP3   OH272445   0.805   1.305   2.415 -0.0209  0.0480 -0.2699
16985TIP3    H172446   0.815   1.211   2.402  2.1671  0.2234 -0.1043
16985TIP3    H272447   0.718   1.325   2.379  0.6887 -1.5440 -3.1403
16986TIP3   OH272448   1.486   3.777   4.253 -0.2098 -0.1896  0.0495
16986TIP3    H172449   1.434   3.782   4.333  0.3090  2.7451  0.3404
16986TIP3    H272450   1.473   3.863   4.212  2.9972  0.0477 -0.7249
16987TIP3   OH272451   6.800   0.126   2.225  0.0201 -0.1349  0.2392
16987TIP3    H172452   6.885   0.129   2.269  0.4461  1.1280 -0.6356
16987TIP3    H272453   6.745   0.187   2.274  1.1829  3.1950 -2.2337
16988TIP3   OH272454   1.246   1.598   1.739 -0.0166  0.1417  0.2214
16988TIP3    H172455   1.165   1.619   1.694  0.1855  1.0283  0.2585
16988TIP3    H272456   1.219   1.574   1.828 -0.2964 -0.2751  0.0261
16989TIP3   OH272457   6.708   4.662   0.295 -0.1643  0.0574 -0.3616
16989TIP3    H172458   6.744   4.731   0.350 -1.5623  0.8224 -0.3479
16989TIP3    H272459   6.630   4.701   0.255 -0.7813 -1.3899 -0.6566
16990TIP3   OH272460   6.574   2.914  16.210 -0.0411 -0.0592  0.1409
16990TIP3    H172461   6.610   2.974  16.145  1.4208  0.2711  1.2167
16990TIP3    H272462   6.550   2.970  16.284 -1.5625 -0.4482 -0.0110
16991TIP3   OH272463   4.490   2.402  13.618 -0.1923  0.0574 -0.1575
16991TIP3    H172464   4.424   2.448  13.566 -0.4544  1.4167  1.2925
16991TIP3    H272465   4.572   2.419  13.573 -0.5243  0.4469 -0.6266
16992TIP3   OH272466   0.444   5.458  13.422 -0.3285  0.0869  0.4397
16992TIP3    H172467   0.381   5.503  13.479 -0.6652 -0.0904  0.2108
16992TIP3    H272468   0.510   5.525  13.403  0.7594 -0.3251  2.4594
16993TIP3   OH272469   6.341   4.693  11.479 -0.0328  0.0928 -0.4215
16993TIP3    H172470   6.340   4.730  11.391  1.0331 -1.3573 -1.0880
16993TIP3    H272471   6.285   4.616  11.473  1.0279 -0.7158 -0.1824
16994TIP3   OH272472   2.391   5.358  14.506  0.5923  0.3127  0.4184
16994TIP3    H172473   2.304   5.342  14.469  0.0399 -0.4257  1.9499
16994TIP3    H272474   2.451   5.341  14.433 -0.3895 -2.1617  0.0779
16995TIP3   OH272475   0.600   1.880   0.215  0.3366  0.5954  0.1425
16995TIP3    H172476   0.523   1.907   0.164 -2.8697  0.1809  4.1826
16995TIP3    H272477   0.624   1.959   0.264  1.1641  0.1725  0.4334
16996TIP3   OH272478   6.001   6.776   0.228 -0.2368  0.0066  0.0976
16996TIP3    H172479   6.033   6.816   0.146 -1.3508  2.0667  0.5958
16996TIP3    H272480   6.070   6.793   0.291  0.6283 -1.5916 -0.3653
16997TIP3   OH272481   3.276   0.022   5.917 -0.3111 -0.6014 -0.2854
16997TIP3    H172482   3.198   0.078   5.918  0.9726  1.2492 -0.1638
16997TIP3    H272483   3.295   0.006   6.010 -1.0965 -1.8879 -0.3296
16998TIP3   OH272484   0.673   2.494  13.486  0.0576 -0.1286  0.2584
16998TIP3    H172485   0.578   2.494  13.471 -0.2247 -0.4494  1.8144
16998TIP3    H272486   0.694   2.405  13.512  0.6045  0.1732  0.8930
16999TIP3   OH272487   5.748   3.760  11.279 -0.1952 -0.2799  0.6751
16999TIP3    H172488   5.716   3.824  11.216  1.3257  0.4540  0.5945
16999TIP3    H272489   5.843   3.770  11.277 -0.0531 -0.9195  2.3769
17000TIP3   OH272490   2.587   1.666   4.624 -0.4691  0.4476 -0.4619
17000TIP3    H172491   2.559   1.743   4.574 -0.8517 -0.6727 -2.0391
17000TIP3    H272492   2.622   1.702   4.705  1.2393  2.4439 -1.9698
17001TIP3   OH272493   0.965   0.752  15.789 -0.0002 -0.2792 -0.0269
17001TIP3    H172494   0.948   0.687  15.857  1.2700 -0.8504 -0.2372
17001TIP3    H272495   0.964   0.836  15.837 -1.2086 -0.4676  0.3146
17002TIP3   OH272496   2.972   4.251  13.789  0.2691  0.3064  0.5529
17002TIP3    H172497   2.918   4.308  13.844 -1.8598  0.3668 -1.4644
17002TIP3    H272498   3.056   4.296  13.783  0.1156  0.9661  2.5662
17003TIP3   OH272499   4.763   6.559   4.486  0.1062 -0.1190  0.1688
17003TIP3    H172500   4.671   6.541   4.505  0.0541 -0.7188 -0.5839
17003TIP3    H272501   4.804   6.572   4.571 -0.4702 -0.9050  0.5736
17004TIP3   OH272502   6.666   5.685  11.301  0.1510 -0.1471  0.1759
17004TIP3    H172503   6.748   5.635  11.290 -0.2455 -0.6577 -0.5898
17004TIP3    H272504   6.695   5.773  11.324  0.8702 -0.7277  1.6160
17005TIP3   OH272505   5.353   4.555   3.407  0.6756  0.3854  0.0670
17005TIP3    H172506   5.275   4.605   3.430 -0.0341 -0.3197 -0.7249
17005TIP3    H272507   5.358   4.560   3.312  0.7477 -0.7968 -0.0103
17006TIP3   OH272508   1.074   6.381   4.159 -0.0620  0.4445  0.3977
17006TIP3    H172509   1.121   6.344   4.234 -2.0545 -0.0219  1.4765
17006TIP3    H272510   1.059   6.473   4.182  0.4189  0.6369 -0.0207
17007TIP3   OH272511   4.375   4.772   0.081  0.3285 -0.1132  0.2643
17007TIP3    H172512   4.430   4.841   0.117  2.0609 -1.7664  0.9416
17007TIP3    H272513   4.392   4.773  -0.013 -0.1950  0.8045  0.1698
17008TIP3   OH272514   4.261   0.269   3.052 -0.4335  0.0068 -0.4308
17008TIP3    H172515   4.284   0.355   3.088  0.4988 -0.0609 -0.8444
17008TIP3    H272516   4.341   0.217   3.062 -1.3685 -1.2350  1.0073
17009TIP3   OH272517   0.735   2.701  13.174 -0.3053 -0.2857 -0.0244
17009TIP3    H172518   0.652   2.682  13.129 -0.1751  0.2437 -0.4970
17009TIP3    H272519   0.769   2.615  13.198 -0.5185 -0.5635 -0.6909
17010TIP3   OH272520   1.380   6.471   2.503  0.2713  0.7062 -0.4007
17010TIP3    H172521   1.463   6.450   2.546  0.4014  1.0366 -0.4898
17010TIP3    H272522   1.314   6.466   2.572  0.3893  0.6219 -0.2941
17011TIP3   OH272523   3.865   4.069  11.542 -0.0805  0.2662  0.0149
17011TIP3    H172524   3.899   4.038  11.458  2.1302  1.9002  0.2107
17011TIP3    H272525   3.943   4.083  11.596 -1.2353  2.0484  1.3325
17012TIP3   OH272526   4.982   2.096   2.480  0.1050  0.4941  0.4326
17012TIP3    H172527   5.070   2.077   2.511 -0.9931 -0.2256  3.4201
17012TIP3    H272528   4.945   2.011   2.457 -0.4377  0.5498  1.0693
17013TIP3   OH272529   2.068   0.055   1.755 -0.4894  0.4061 -0.0669
17013TIP3    H172530   2.139   0.104   1.714 -0.6501  1.8185  1.2828
17013TIP3    H272531   2.096   0.041   1.845 -1.3140 -0.2476  0.1073
17014TIP3   OH272532   0.042   4.519  16.308  0.0284 -0.5642  0.0202
17014TIP3    H172533  -0.020   4.588  16.328 -0.6969 -0.9224 -0.9255
17014TIP3    H272534   0.113   4.531  16.372  0.4455  1.6853 -0.7706
17015TIP3   OH272535   2.079   5.428  13.035 -0.1351 -0.9428  0.4562
17015TIP3    H172536   2.052   5.356  12.978 -0.3046  0.2096 -0.9624
17015TIP3    H272537   2.174   5.432  13.023 -0.1071 -1.0111  0.6497
17016TIP3   OH272538   1.863   3.308   0.971  0.0962 -0.0136  0.1563
17016TIP3    H172539   1.909   3.230   0.940  1.7575  1.0401 -0.2363
17016TIP3    H272540   1.853   3.362   0.892 -0.0001  0.6336  0.6050
17017TIP3   OH272541   2.963   1.661   4.641 -0.3454 -0.0980 -0.2339
17017TIP3    H172542   2.900   1.623   4.702 -0.3166  0.3423  0.0743
17017TIP3    H272543   3.015   1.587   4.610 -0.6924 -0.3931 -0.1151
17018TIP3   OH272544   3.198   3.284   3.097 -0.3626  0.6546 -0.3922
17018TIP3    H172545   3.218   3.370   3.133  0.8611  0.9165 -1.6155
17018TIP3    H272546   3.212   3.293   3.003  2.1164 -1.4345 -0.3585
17019TIP3   OH272547   2.658   6.072   3.128  0.5639 -0.2053 -0.4693
17019TIP3    H172548   2.632   6.160   3.102  2.0748 -0.0795 -1.7289
17019TIP3    H272549   2.576   6.029   3.153 -0.2390  1.4460 -0.1148
17020TIP3   OH272550   2.278   4.753  14.339  0.3780 -0.7701 -0.2949
17020TIP3    H172551   2.197   4.706  14.358 -0.1068  0.0103 -0.3916
17020TIP3    H272552   2.280   4.761  14.244  0.3770 -0.4690 -0.2718
17021TIP3   OH272553   1.889   2.975  15.019  0.0024 -0.4420  0.0647
17021TIP3    H172554   1.942   3.043  14.978  0.2815  0.0190  1.1600
17021TIP3    H272555   1.913   2.894  14.973  2.4344 -0.4316  1.1996
17022TIP3   OH272556   5.910   3.637  14.864  0.0724  0.1795 -0.4158
17022TIP3    H172557   5.887   3.572  14.931 -0.8844  0.3850 -0.5306
17022TIP3    H272558   6.004   3.652  14.877  0.1963 -0.8245 -0.0445
17023TIP3   OH272559   1.619   0.198  16.962 -0.0116  0.1753 -0.1920
17023TIP3    H172560   1.690   0.259  16.944 -1.7465  2.5528  0.4921
17023TIP3    H272561   1.649   0.148  17.038  1.1217  0.8146 -0.2047
17024TIP3   OH272562   6.281   4.557  11.922 -0.5168  0.3703 -0.0565
17024TIP3    H172563   6.307   4.649  11.920 -1.7664  0.7232 -1.2342
17024TIP3    H272564   6.203   4.552  11.867 -0.3375 -1.4438 -0.2242
17025TIP3   OH272565   4.001   3.171  16.274  0.7653 -0.7966  0.4058
17025TIP3    H172566   3.999   3.075  16.277 -0.1202 -1.0239 -3.2731
17025TIP3    H272567   3.912   3.198  16.297  0.7313 -0.9018  0.3956
17026TIP3   OH272568   0.605   6.269  12.147  0.2768 -0.0009  0.1737
17026TIP3    H172569   0.554   6.333  12.096  0.7558 -0.7565 -1.3295
17026TIP3    H272570   0.662   6.228  12.082  1.1850 -0.7620  1.4247
17027TIP3   OH272571   3.829   0.441  15.393  0.6245  0.1172  0.1295
17027TIP3    H172572   3.846   0.402  15.307  0.4446  0.4275 -0.0485
17027TIP3    H272573   3.895   0.402  15.450  1.2616  0.5060 -0.3247
17028TIP3   OH272574   6.578   1.067  10.571 -0.8705  0.3685 -0.2857
17028TIP3    H172575   6.546   1.003  10.508 -2.5671 -0.1484  1.0416
17028TIP3    H272576   6.560   1.152  10.530 -1.8109  0.0354 -0.5949
17029TIP3   OH272577   3.765   3.671   0.364  0.3180  0.4768 -0.4585
17029TIP3    H172578   3.725   3.655   0.450 -1.1854  0.1984 -1.1648
17029TIP3    H272579   3.781   3.765   0.362  0.4903  0.4673  0.1742
17030TIP3   OH272580   6.561   3.192   2.361  0.4877  0.0880  0.1376
17030TIP3    H172581   6.586   3.137   2.286 -0.0644  1.4264 -1.0886
17030TIP3    H272582   6.476   3.158   2.389  0.8802 -0.6699  0.4106
17031TIP3   OH272583   5.358   2.013  15.579  0.2749  0.5342 -0.4214
17031TIP3    H172584   5.322   1.963  15.505 -0.2735  1.9850 -1.1791
17031TIP3    H272585   5.336   1.961  15.656 -0.8326 -0.0898 -1.1348
17032TIP3   OH272586   4.320   0.045  12.664 -0.3975  0.1299 -0.0997
17032TIP3    H172587   4.273   0.008  12.738  1.4023 -1.3758  0.3451
17032TIP3    H272588   4.366  -0.029  12.624 -0.4997  1.0685 -2.1326
17033TIP3   OH272589   2.064   5.067  14.651 -0.1475  0.5396  0.1240
17033TIP3    H172590   2.078   5.090  14.560 -1.4878 -0.2492 -0.3117
17033TIP3    H272591   2.112   5.133  14.701 -0.4761  1.7645 -1.1244
17034TIP3   OH272592   1.639   6.360  14.003 -0.1771  0.3181 -0.2603
17034TIP3    H172593   1.694   6.376  14.080  0.8979 -0.7195 -0.7756
17034TIP3    H272594   1.549   6.361  14.036 -0.0733  3.8062  0.3322
17035TIP3   OH272595   5.551   4.291   1.000  0.0750  0.2621 -0.5658
17035TIP3    H172596   5.595   4.287   1.085  0.7913  0.3645 -0.9277
17035TIP3    H272597   5.511   4.205   0.990 -0.2263  0.3314 -0.0145
17036TIP3   OH272598   6.382   5.625   5.263 -0.2936  0.4266  0.5490
17036TIP3    H172599   6.394   5.612   5.169  0.1706  0.0722  0.6514
17036TIP3    H272600   6.471   5.630   5.298 -0.4592  1.5363  0.8470
17037TIP3   OH272601   2.078   1.644   0.200  0.0803  0.2382  0.0908
17037TIP3    H172602   2.045   1.630   0.112 -1.3274  0.8290  0.5018
17037TIP3    H272603   2.049   1.566   0.249 -1.3168  1.0440  0.6006
17038TIP3   OH272604   6.055   5.468   3.044  0.1133  0.6167 -0.4617
17038TIP3    H172605   6.038   5.551   3.087 -0.7936  1.0724 -1.6323
17038TIP3    H272606   6.148   5.452   3.057  0.0052  1.1004  0.9827
17039TIP3   OH272607   5.381   1.644   4.167  0.4899 -0.4990  0.3297
17039TIP3    H172608   5.386   1.726   4.216  0.8319 -0.2923 -0.0435
17039TIP3    H272609   5.288   1.620   4.170  0.0820  0.7887 -0.9805
17040TIP3   OH272610   6.628   6.765  13.664 -0.0831  0.3523 -0.2435
17040TIP3    H172611   6.655   6.713  13.740 -0.4798  2.2515  1.2714
17040TIP3    H272612   6.534   6.781  13.678 -0.0709  1.0751 -0.9193
17041TIP3   OH272613   3.458   0.936  11.776 -0.2662 -0.2323 -0.3560
17041TIP3    H172614   3.545   0.954  11.741 -1.0749  2.0689 -1.3818
17041TIP3    H272615   3.448   0.841  11.767  2.2292 -0.6310  0.1424
17042TIP3   OH272616   3.612   0.817  12.804  0.0369 -0.2775  0.6549
17042TIP3    H172617   3.697   0.858  12.814 -0.8039  1.9433 -0.5240
17042TIP3    H272618   3.564   0.876  12.745 -2.3670 -1.3423  1.4140
17043TIP3   OH272619   4.478   6.346   1.314 -0.4583 -0.2684 -0.1807
17043TIP3    H172620   4.567   6.319   1.335 -0.8022 -0.3531  1.2419
17043TIP3    H272621   4.422   6.298   1.376 -1.1991  2.5031  1.4844
17044TIP3   OH272622   2.569   0.515  13.305  0.1580  0.3101  0.7356
17044TIP3    H172623   2.542   0.607  13.305  1.6038  0.8486 -2.0679
17044TIP3    H272624   2.660   0.517  13.276 -0.5144 -2.1078 -1.9976
17045TIP3   OH272625   2.238   1.529  14.799  0.5228 -0.9611 -0.1778
17045TIP3    H172626   2.260   1.511  14.891  0.9305 -0.5435 -0.1919
17045TIP3    H272627   2.195   1.449  14.769 -1.1077 -0.5261  0.8513
17046TIP3   OH272628   2.818   0.974  16.671 -0.1391 -0.5768 -0.7159
17046TIP3    H172629   2.874   0.909  16.713  0.4678 -0.3401 -1.1422
17046TIP3    H272630   2.869   1.055  16.673 -0.6570 -0.2472 -0.6919
17047TIP3   OH272631   1.021   0.714  12.430  0.0922 -0.3651 -0.2237
17047TIP3    H172632   1.007   0.800  12.470 -0.0854  0.6300 -2.2683
17047TIP3    H272633   1.064   0.662  12.498  2.2328  2.0337  0.4021
17048TIP3   OH272634   1.580   6.462   2.017  0.5634  0.6202  0.1267
17048TIP3    H172635   1.490   6.468   1.986 -0.8347 -1.3010  3.4090
17048TIP3    H272636   1.585   6.522   2.091  1.8274  0.2848  0.3415
17049TIP3   OH272637   5.955   2.593   3.562 -0.6273  0.0656 -0.4918
17049TIP3    H172638   5.896   2.644   3.617  0.2685  1.2279 -0.5740
17049TIP3    H272639   6.032   2.576   3.617 -0.7083 -0.8008 -0.6250
17050TIP3   OH272640   4.148   6.018   0.459  0.3920  0.2680  0.0652
17050TIP3    H172641   4.116   6.050   0.543  0.7348  1.4602 -0.2439
17050TIP3    H272642   4.082   5.954   0.431 -0.6419  1.1380  0.4343
17051TIP3   OH272643   1.581   5.590   1.438 -0.5058 -0.4235  0.5979
17051TIP3    H172644   1.498   5.586   1.392  1.3254  0.1643 -3.1157
17051TIP3    H272645   1.574   5.667   1.495 -1.9572  0.5298 -0.8186
17052TIP3   OH272646   0.737   0.848   4.661 -0.1949  0.4336 -0.3335
17052TIP3    H172647   0.695   0.888   4.737  0.5060  0.0970  0.2374
17052TIP3    H272648   0.736   0.917   4.594  0.9066  1.3836  0.5962
17053TIP3   OH272649   1.899   4.248  13.841 -0.2525 -0.1658 -0.6528
17053TIP3    H172650   1.941   4.163  13.835 -0.5638 -0.2311 -2.4590
17053TIP3    H272651   1.823   4.234  13.897  1.4631 -0.2680  1.8347
17054TIP3   OH272652   1.894   4.451  15.720  0.1636  0.1169 -0.4258
17054TIP3    H172653   1.931   4.373  15.763  0.1511  0.5661  0.4384
17054TIP3    H272654   1.963   4.517  15.728 -0.4724  0.7065  0.4377
17055TIP3   OH272655   0.810   4.774  14.755 -0.2446 -0.0759  0.3146
17055TIP3    H172656   0.834   4.702  14.696 -0.7531  1.4499 -1.9098
17055TIP3    H272657   0.891   4.795  14.802  0.3928 -0.8613 -0.3902
17056TIP3   OH272658   1.897   1.249  15.128 -0.2223  0.5989  0.0480
17056TIP3    H172659   1.858   1.297  15.054 -1.6691 -1.0560 -0.3295
17056TIP3    H272660   1.928   1.167  15.090 -1.1089 -0.3434  1.2765
17057TIP3   OH272661   6.467   3.077   1.628 -0.1512 -0.0900 -0.3421
17057TIP3    H172662   6.422   3.150   1.584 -0.2927  0.1642  0.2190
17057TIP3    H272663   6.398   3.036   1.681  0.1031 -0.1777 -0.0817
17058TIP3   OH272664   0.100   4.124   4.226 -0.8026 -0.2946  0.5515
17058TIP3    H172665   0.126   4.143   4.136 -1.5191 -2.8256 -0.2670
17058TIP3    H272666   0.074   4.209   4.262  1.3923  1.0908 -0.9391
17059TIP3   OH272667   2.690   6.239  13.540  0.0679  0.2967 -0.4100
17059TIP3    H172668   2.598   6.236  13.566  0.2368 -3.5726  0.2176
17059TIP3    H272669   2.689   6.224  13.445  0.0851  0.9954 -0.5324
17060TIP3   OH272670   6.363   4.656  14.894 -0.6186 -0.2584 -0.0529
17060TIP3    H172671   6.289   4.629  14.839 -0.2239  2.1635 -1.9983
17060TIP3    H272672   6.330   4.732  14.942  0.2695  0.1990 -0.1502
17061TIP3   OH272673   3.639   2.126  13.956  0.6345  0.2375 -0.0456
17061TIP3    H172674   3.691   2.207  13.958 -0.5353  1.0538 -1.0742
17061TIP3    H272675   3.553   2.153  13.989  0.0018 -0.4028 -1.1381
17062TIP3   OH272676   3.706   6.776   4.252 -0.6112 -0.1903  0.4033
17062TIP3    H172677   3.716   6.861   4.295  1.3127  0.3313 -0.9681
17062TIP3    H272678   3.618   6.778   4.214 -0.8390  0.9092  0.9661
17063TIP3   OH272679   4.255   5.327  16.052  0.3375  0.6390 -0.0149
17063TIP3    H172680   4.227   5.405  16.100  0.2522  2.3747 -2.6447
17063TIP3    H272681   4.176   5.296  16.008  1.0071  1.2845 -1.7940
17064TIP3   OH272682   4.352   0.575  12.862  0.9812 -0.4354  0.2073
17064TIP3    H172683   4.405   0.650  12.835  2.1040 -0.9016  1.0756
17064TIP3    H272684   4.265   0.595  12.828  1.3701  1.0222 -0.0127
17065TIP3   OH272685   0.297   1.902   3.256 -0.1413 -0.4234 -0.0362
17065TIP3    H172686   0.366   1.843   3.285 -0.1554 -0.5606 -0.2810
17065TIP3    H272687   0.320   1.987   3.294  0.9665 -0.1146 -1.3134
17066TIP3   OH272688   2.226   1.163   6.165  0.0076  0.4684 -0.9921
17066TIP3    H172689   2.253   1.179   6.255  1.1011  1.4660 -1.4618
17066TIP3    H272690   2.296   1.202   6.112 -0.4925 -0.3027 -2.2692
17067TIP3   OH272691   5.325   6.703   2.706  0.3011 -0.0753 -0.0995
17067TIP3    H172692   5.241   6.744   2.685 -0.2304 -0.8753  0.4168
17067TIP3    H272693   5.331   6.629   2.645 -0.2806 -1.1574  1.1011
17068TIP3   OH272694   2.023   4.960   4.060 -0.0204 -0.2421 -0.2775
17068TIP3    H172695   2.054   4.957   4.150 -1.0470 -0.1091  0.1010
17068TIP3    H272696   2.033   5.051   4.033 -0.1562 -0.1820 -0.1273
17069TIP3   OH272697   2.029   0.025   4.475  0.6984 -0.5354 -0.2281
17069TIP3    H172698   1.958   0.088   4.458 -0.3036 -1.7345 -0.6637
17069TIP3    H272699   1.987  -0.047   4.522  0.8263 -2.7479 -3.1785
17070TIP3   OH272700   6.463   1.457  12.237  0.1520 -0.1448  0.3723
17070TIP3    H172701   6.417   1.517  12.178  0.3684 -1.2119 -0.9338
17070TIP3    H272702   6.456   1.498  12.323  0.3710  1.7967 -0.4710
17071TIP3   OH272703   6.547   3.847   1.864 -0.2615 -0.4398  0.3600
17071TIP3    H172704   6.559   3.762   1.905  2.6519  0.4244  1.6000
17071TIP3    H272705   6.535   3.908   1.937 -1.0047  0.3992 -0.4368
17072TIP3   OH272706   6.407   3.402  13.678  0.0489  0.1782 -0.2306
17072TIP3    H172707   6.411   3.485  13.632  1.7303  1.4496  2.0239
17072TIP3    H272708   6.365   3.423  13.761 -2.4283 -1.9269 -0.8115
17073TIP3   OH272709   3.233   0.743   3.660 -0.7534 -0.2752 -0.1453
17073TIP3    H172710   3.204   0.652   3.652 -3.0231  0.1988  1.6829
17073TIP3    H272711   3.215   0.781   3.574 -1.0482 -1.2061 -0.5107
17074TIP3   OH272712   5.832   4.216   1.099 -0.2289 -0.1211 -0.1406
17074TIP3    H172713   5.910   4.201   1.153 -0.4123 -0.2270  0.1013
17074TIP3    H272714   5.844   4.159   1.023 -0.0764 -0.1460 -0.0979
17075TIP3   OH272715   3.416   2.588  14.382 -0.4743 -0.1322  0.4109
17075TIP3    H172716   3.332   2.544  14.393 -0.7003 -0.1987 -1.2688
17075TIP3    H272717   3.407   2.670  14.430 -0.4224 -1.3988  2.6963
17076TIP3   OH272718   4.167   1.159  13.142 -0.3786 -0.0568  1.0208
17076TIP3    H172719   4.096   1.136  13.202 -2.6530  0.6827 -1.2102
17076TIP3    H272720   4.198   1.075  13.108 -0.4622 -0.3625  1.6699
17077TIP3   OH272721   0.322   4.301  10.785  0.6270 -0.0928  0.5699
17077TIP3    H172722   0.347   4.211  10.807  0.9042 -0.0383  0.4791
17077TIP3    H272723   0.316   4.346  10.869  1.5045  0.0690  0.5534
17078TIP3   OH272724   2.337   0.909  12.993  0.1968  0.4856 -0.4466
17078TIP3    H172725   2.292   0.988  12.962  0.8767  1.0732  0.0226
17078TIP3    H272726   2.267   0.855  13.029 -0.1970  1.1994 -0.1150
17079TIP3   OH272727   5.617   0.112   3.129  0.6511 -0.1874  0.2169
17079TIP3    H172728   5.684   0.060   3.085  0.1374 -2.9769  2.4006
17079TIP3    H272729   5.613   0.075   3.217 -2.6981  0.8710  0.6477
17080TIP3   OH272730   2.081   0.138  14.580 -0.6967 -0.1300 -0.4498
17080TIP3    H172731   2.124   0.185  14.509  0.8125 -1.1558 -0.2618
17080TIP3    H272732   1.995   0.114  14.545 -0.5649  0.6932 -1.3741
17081TIP3   OH272733   3.628   4.405  13.888  0.5999 -0.1745  0.5913
17081TIP3    H172734   3.684   4.465  13.839  0.3231  0.8435  1.4684
17081TIP3    H272735   3.624   4.443  13.976 -1.0127 -0.5209  0.6966
17082TIP3   OH272736   5.628   3.394  16.598 -0.4071  0.4296  0.3615
17082TIP3    H172737   5.669   3.397  16.684  3.6720 -1.5679 -1.2609
17082TIP3    H272738   5.683   3.450  16.542 -2.0337  0.4705 -1.3305
17083TIP3   OH272739   1.173   3.179   3.949 -0.0985 -0.8553 -0.4749
17083TIP3    H172740   1.200   3.123   3.876  0.4588 -2.3761  0.8394
17083TIP3    H272741   1.109   3.127   3.997 -1.9370  0.8739 -0.8815
17084TIP3   OH272742   0.359   1.862  11.426 -0.2560  0.0028  0.4900
17084TIP3    H172743   0.316   1.901  11.502 -0.5785  0.5856  0.0157
17084TIP3    H272744   0.291   1.808  11.385 -0.6854  1.2025 -0.4617
17085TIP3   OH272745   3.875   4.410   5.118  0.1817 -0.4037 -0.5995
17085TIP3    H172746   3.839   4.467   5.186  1.2654 -0.4421  0.0298
17085TIP3    H272747   3.807   4.343   5.105 -0.5416  0.2799 -0.4080
17086TIP3   OH272748   0.643   0.405  13.327 -0.0446  0.2276 -0.1859
17086TIP3    H172749   0.708   0.400  13.257  1.4246 -0.0425  1.1319
17086TIP3    H272750   0.666   0.484  13.375  0.1974 -0.6035  1.1107
17087TIP3   OH272751   0.637   4.756   3.288  0.3260  1.1270  0.0267
17087TIP3    H172752   0.576   4.683   3.301  1.4571  0.3665  1.3381
17087TIP3    H272753   0.715   4.715   3.250  1.1334  1.5457  1.1812
17088TIP3   OH272754   0.681   2.576  16.218  0.2124  0.0998  0.2935
17088TIP3    H172755   0.692   2.487  16.250 -0.5000 -0.5010 -1.0388
17088TIP3    H272756   0.670   2.629  16.296 -1.2951 -1.2608  1.0570
17089TIP3   OH272757   4.676   2.565   5.423  0.1277  0.2261 -0.2212
17089TIP3    H172758   4.580   2.568   5.426 -0.0246 -1.4943 -1.4230
17089TIP3    H272759   4.701   2.637   5.365 -0.6915 -1.0124 -2.2332
17090TIP3   OH272760   2.316   4.359  13.064  0.1013 -0.4055  0.1176
17090TIP3    H172761   2.403   4.384  13.031  0.2393 -2.2738 -1.0747
17090TIP3    H272762   2.270   4.328  12.987 -1.1091 -0.8851  1.0147
17091TIP3   OH272763   4.932   6.203  10.878  0.2020 -0.3692 -0.3387
17091TIP3    H172764   4.880   6.145  10.822 -0.5462 -1.1419  1.0929
17091TIP3    H272765   5.011   6.153  10.897 -1.0918 -1.6800  2.1255
17092TIP3   OH272766   2.386   6.598   2.444 -0.8447 -0.5948 -0.0784
17092TIP3    H172767   2.432   6.517   2.468 -0.0422 -0.1594 -0.1424
17092TIP3    H272768   2.395   6.603   2.349  0.7068  0.5080  0.0940
17093TIP3   OH272769   0.712   4.821  12.890 -0.8171  0.5619  0.3360
17093TIP3    H172770   0.699   4.916  12.885 -1.3484  0.4450 -1.2137
17093TIP3    H272771   0.688   4.790  12.803  0.4405 -0.8726  0.4699
17094TIP3   OH272772   6.737   0.278   4.252 -0.0528  0.1882 -0.3222
17094TIP3    H172773   6.790   0.337   4.306 -0.9511 -0.3864  1.2639
17094TIP3    H272774   6.783   0.275   4.168  1.2718  1.3190  0.3124
17095TIP3   OH272775   6.344   5.886  15.871  0.4128 -0.5897  0.0516
17095TIP3    H172776   6.406   5.817  15.848 -0.9441 -1.6686 -0.5793
17095TIP3    H272777   6.290   5.848  15.940  0.3619  0.2677  0.4940
17096TIP3   OH272778   2.377   5.478   0.849  0.1895 -0.2636 -0.1036
17096TIP3    H172779   2.344   5.480   0.759  0.3038  2.9555 -0.1850
17096TIP3    H272780   2.468   5.507   0.842  0.1420  0.2229  1.0517
17097TIP3   OH272781   3.273   0.711   0.405  0.6753  0.1763  0.0125
17097TIP3    H172782   3.268   0.805   0.387 -0.2699  0.4512  1.5112
17097TIP3    H272783   3.360   0.700   0.444  1.7675 -0.0318 -2.2974
17098TIP3   OH272784   4.794   0.094  14.288  0.2315 -0.4503 -0.2746
17098TIP3    H172785   4.820   0.180  14.321  0.2837 -0.4392 -0.3446
17098TIP3    H272786   4.825   0.093  14.197  0.3100 -0.5786 -0.2448
17099TIP3   OH272787   1.029   2.113   0.133  0.0877  0.3084  0.9602
17099TIP3    H172788   1.066   2.110   0.045  1.8975  1.8848  1.6009
17099TIP3    H272789   0.986   2.198   0.138 -1.6796 -0.5364  1.0321
17100TIP3   OH272790   5.487   5.517   0.312 -0.1307  0.2593 -0.3512
17100TIP3    H172791   5.421   5.579   0.281 -1.8825 -0.9219  0.7906
17100TIP3    H272792   5.533   5.564   0.382 -0.8992  0.5529 -0.0347
17101TIP3   OH272793   1.734   2.520  13.255  0.1685 -0.4366 -0.2742
17101TIP3    H172794   1.681   2.495  13.331 -2.1680 -0.4430 -1.8048
17101TIP3    H272795   1.763   2.437  13.217  0.5873 -0.4542  0.0677
17102TIP3   OH272796   1.330   0.821  13.379  0.7892 -0.8029  0.5418
17102TIP3    H172797   1.362   0.811  13.289  1.8589 -2.0642  1.0315
17102TIP3    H272798   1.380   0.894  13.415  0.3890 -0.3235  0.1397
17103TIP3   OH272799   4.298   4.798  12.251  0.4543 -0.4842  0.0895
17103TIP3    H172800   4.324   4.830  12.337 -1.8202  1.9528  0.0233
17103TIP3    H272801   4.349   4.850  12.189 -0.7033  0.6070  0.0052
17104TIP3   OH272802   6.449   5.029   5.100  0.3191 -0.1012  0.3014
17104TIP3    H172803   6.368   5.074   5.074 -0.5145  0.2104  3.0772
17104TIP3    H272804   6.517   5.095   5.089  0.0941 -0.0825 -1.2165
17105TIP3   OH272805   5.042   3.167  10.429 -0.6349 -0.4346  0.1497
17105TIP3    H172806   5.132   3.136  10.421  0.0297  1.6864 -1.7376
17105TIP3    H272807   5.046   3.235  10.496 -0.5692  0.3824 -0.6600
17106TIP3   OH272808   3.882   4.363  11.848  0.1180  0.1209 -0.0482
17106TIP3    H172809   3.872   4.363  11.753 -0.8150  0.0502  0.0474
17106TIP3    H272810   3.949   4.430  11.865  2.4089 -1.8267 -0.9462
17107TIP3   OH272811   0.153   3.827   4.855 -0.0237  0.0561  0.5240
17107TIP3    H172812   0.155   3.747   4.802 -0.9647  0.9452 -0.9326
17107TIP3    H272813   0.131   3.897   4.793 -0.1690  1.3119  1.9193
17108TIP3   OH272814   3.532   1.613   4.507  0.0734 -0.0567  0.0257
17108TIP3    H172815   3.446   1.582   4.533 -0.7483  0.6628 -1.6511
17108TIP3    H272816   3.514   1.678   4.439  1.9773 -0.9035 -1.3782
17109TIP3   OH272817   1.951   6.050  12.646  0.2920  0.4850  0.1498
17109TIP3    H172818   1.872   6.012  12.683  0.2533  0.6700  0.2561
17109TIP3    H272819   1.987   5.981  12.590 -1.3137  1.2508 -1.9453
17110TIP3   OH272820   5.648   3.212   3.245  0.5945 -0.3151 -0.3386
17110TIP3    H172821   5.576   3.274   3.244  0.0030 -0.9694  0.8123
17110TIP3    H272822   5.607   3.127   3.255  1.5630 -0.5548  2.6853
17111TIP3   OH272823   0.856   4.486  15.503 -0.1634  0.4815 -0.2612
17111TIP3    H172824   0.940   4.454  15.472 -0.7875 -0.7722 -0.7291
17111TIP3    H272825   0.792   4.445  15.445 -1.1058  1.2987  0.1777
17112TIP3   OH272826   2.634   1.356  11.529 -0.1897  0.3400 -0.8285
17112TIP3    H172827   2.540   1.340  11.540 -0.3550  1.1249 -1.0259
17112TIP3    H272828   2.644   1.450  11.541  0.5240  0.3170 -1.1794
17113TIP3   OH272829   5.583   4.476  12.466 -0.3840  0.5796 -0.4854
17113TIP3    H172830   5.543   4.496  12.381  0.4172  1.3074 -0.7018
17113TIP3    H272831   5.643   4.549  12.482 -2.1724  1.7169  1.7926
17114TIP3   OH272832   4.363   4.083   5.735  0.5723  0.1603  0.3330
17114TIP3    H172833   4.286   4.032   5.709  0.8610 -1.0517  1.7733
17114TIP3    H272834   4.370   4.150   5.667 -1.2802 -0.1845 -0.2655
17115TIP3   OH272835   5.838   3.470  16.423 -0.8264 -0.1563  0.3484
17115TIP3    H172836   5.917   3.416  16.414 -0.4509  0.4107  0.1929
17115TIP3    H272837   5.778   3.436  16.356 -0.4425 -0.1282 -0.0120
17116TIP3   OH272838   3.504   2.848   1.933  0.5710 -0.3335  0.4339
17116TIP3    H172839   3.502   2.817   2.023  0.5009 -1.9734 -0.0855
17116TIP3    H272840   3.562   2.787   1.888  0.6138  0.4580 -0.6292
17117TIP3   OH272841   3.045   0.746   3.183  0.5525 -0.0726 -0.1063
17117TIP3    H172842   2.977   0.697   3.229 -0.4040 -0.4986 -1.9044
17117TIP3    H272843   3.066   0.693   3.107 -0.6102  2.2387 -2.2090
17118TIP3   OH272844   4.286   1.675   3.294  0.4556  0.2865 -0.2669
17118TIP3    H172845   4.357   1.686   3.231  2.1716 -0.2820  1.4791
17118TIP3    H272846   4.294   1.750   3.353 -1.0593  0.7568 -0.6146
17119TIP3   OH272847   0.630   4.148  12.139 -0.7523  0.7344 -0.5189
17119TIP3    H172848   0.662   4.153  12.229 -2.6313  0.6176  0.1958
17119TIP3    H272849   0.671   4.069  12.104 -1.2072 -0.1061  0.7593
17120TIP3   OH272850   2.911   3.305  15.606 -0.7285 -0.4252 -0.3978
17120TIP3    H172851   2.823   3.305  15.569 -1.8601 -0.4914  2.0932
17120TIP3    H272852   2.897   3.290  15.700  1.9783 -0.8719 -0.0023
17121TIP3   OH272853   6.063   4.711  16.085  0.0062 -0.1422  0.1419
17121TIP3    H172854   6.083   4.630  16.037  1.1919 -0.3560  0.9542
17121TIP3    H272855   6.126   4.775  16.052  0.8392 -0.2922  1.3856
17122TIP3   OH272856   4.872   6.399   2.943  0.0021 -0.0671 -0.3504
17122TIP3    H172857   4.876   6.342   3.021 -0.0076  0.6612  0.1954
17122TIP3    H272858   4.957   6.442   2.941 -0.0922  0.1058 -0.5961
17123TIP3   OH272859   4.029   2.337  12.342 -0.2255  0.2594  0.4973
17123TIP3    H172860   4.026   2.432  12.354 -0.1395  0.0036  2.9678
17123TIP3    H272861   3.958   2.318  12.281 -0.2921  1.8719  0.0181
17124TIP3   OH272862   3.339   4.609  13.639  0.5911 -0.1640  0.4780
17124TIP3    H172863   3.397   4.584  13.566  2.1343 -1.1841  1.9885
17124TIP3    H272864   3.349   4.704  13.646  3.2799 -0.4495  1.5938
17125TIP3   OH272865   5.173   1.840   1.516 -0.1205  0.4872  0.3409
17125TIP3    H172866   5.200   1.787   1.441  1.5975 -1.4298  2.1872
17125TIP3    H272867   5.252   1.850   1.569 -1.3627  1.3532  2.1564
17126TIP3   OH272868   1.396   6.490  16.192 -0.2196 -0.4415 -0.0458
17126TIP3    H172869   1.317   6.542  16.180  0.2291  0.1199 -0.6465
17126TIP3    H272870   1.454   6.546  16.243 -0.7393 -1.4153  1.6715
17127TIP3   OH272871   4.251   4.088   3.705  0.7637  0.0819 -0.0426
17127TIP3    H172872   4.278   4.062   3.617  0.5348 -1.3517  0.2976
17127TIP3    H272873   4.327   4.069   3.760  0.6120  0.1849  0.2041
17128TIP3   OH272874   1.495   0.261  14.010  0.2328  0.1575 -0.6039
17128TIP3    H172875   1.521   0.172  14.034  0.1023 -0.1195 -1.4810
17128TIP3    H272876   1.408   0.272  14.048  1.4869  1.0829  2.3550
17129TIP3   OH272877   2.637   6.681  13.046  0.4663  0.0206 -0.1054
17129TIP3    H172878   2.666   6.712  13.132 -0.2598  0.7865 -0.1208
17129TIP3    H272879   2.541   6.681  13.052  0.4039  0.2804 -0.9808
17130TIP3   OH272880   2.716   5.259  13.801  0.1656  0.0460  0.2435
17130TIP3    H172881   2.735   5.249  13.894  1.3792  0.4378  0.0526
17130TIP3    H272882   2.631   5.217  13.789  0.4514 -0.8912  1.3418
17131TIP3   OH272883   4.885   6.664  14.373 -0.3673  0.7420 -0.3486
17131TIP3    H172884   4.820   6.613  14.326 -1.2008  0.4830  1.0345
17131TIP3    H272885   4.849   6.753  14.376 -0.7084  0.5802  0.4896
17132TIP3   OH272886   4.789   6.616  11.984  0.1275  0.1258  0.1232
17132TIP3    H172887   4.714   6.670  12.007  0.1309 -0.8680  2.8531
17132TIP3    H272888   4.813   6.572  12.066  4.0569  0.8415 -0.4562
17133TIP3   OH272889   2.373   1.022  16.444 -0.1609  0.1287 -0.0777
17133TIP3    H172890   2.313   0.948  16.441 -0.3768  0.3181 -2.1659
17133TIP3    H272891   2.336   1.080  16.510 -0.6472 -1.0618  0.7325
17134TIP3   OH272892   5.033   4.978  16.122  0.3021  0.2982 -0.6531
17134TIP3    H172893   4.996   4.951  16.038 -0.7728 -0.2765 -0.0231
17134TIP3    H272894   5.056   4.896  16.165  1.4062  0.6158 -0.6227
17135TIP3   OH272895   1.130   1.123  11.997  0.4973  0.0939  0.3015
17135TIP3    H172896   1.182   1.184  11.945 -0.6535  0.0549 -0.9824
17135TIP3    H272897   1.191   1.085  12.060  2.0307 -0.0239 -1.1969
17136TIP3   OH272898   6.644   6.008  12.501  0.3121  0.7319 -0.0825
17136TIP3    H172899   6.566   6.038  12.455  0.3432  0.7514 -0.1229
17136TIP3    H272900   6.611   5.947  12.568  0.2538  0.8212 -0.0303
17137TIP3   OH272901   4.819   6.258   2.702 -0.3417  0.5127 -0.4555
17137TIP3    H172902   4.869   6.309   2.639 -0.0268  0.2157 -0.4496
17137TIP3    H272903   4.832   6.303   2.785  1.2069 -0.4077 -0.1425
17138TIP3   OH272904   0.773   5.434   1.075 -0.3976 -0.6528  0.1285
17138TIP3    H172905   0.793   5.519   1.115  0.1485 -0.5985 -0.2487
17138TIP3    H272906   0.680   5.438   1.055 -0.8439 -0.9205  1.9714
17139TIP3   OH272907   6.605   3.965  16.050  0.6519 -0.1606 -0.1521
17139TIP3    H172908   6.633   3.884  16.006  0.4885  1.2310 -3.0822
17139TIP3    H272909   6.538   3.937  16.112  0.4978 -2.2783 -1.1899
17140TIP3   OH272910   5.449   0.325  13.287  0.9320  0.2464  0.4124
17140TIP3    H172911   5.458   0.420  13.293  1.7113  0.1658  0.6020
17140TIP3    H272912   5.529   0.295  13.244  0.5343 -0.2957  0.0296
17141TIP3   OH272913   1.703   6.412  13.614  0.1064 -0.4027  0.3585
17141TIP3    H172914   1.699   6.444  13.524 -1.6838 -0.4368  0.3974
17141TIP3    H272915   1.665   6.482  13.666 -0.6290 -1.1587  0.8615
17142TIP3   OH272916   5.163   2.875   0.834 -0.0418  0.0688 -0.3857
17142TIP3    H172917   5.075   2.874   0.796 -0.5730 -1.9328  0.7157
17142TIP3    H272918   5.208   2.945   0.789 -3.0114  3.0549  0.8471
17143TIP3   OH272919   0.419   1.066   2.226  0.5123 -0.1026  0.1620
17143TIP3    H172920   0.337   1.114   2.221  0.1386 -0.8389 -1.4885
17143TIP3    H272921   0.470   1.097   2.151  1.0723 -0.8239  0.2270
17144TIP3   OH272922   0.027   1.770   1.165 -0.1273 -0.1740  0.1466
17144TIP3    H172923  -0.064   1.798   1.167 -0.2885 -0.5731 -0.7582
17144TIP3    H272924   0.047   1.761   1.071  1.2278  1.1337  0.2667
17145TIP3   OH272925   6.513   1.651  10.867  0.4942 -0.1497 -0.2632
17145TIP3    H172926   6.585   1.594  10.839 -0.0054 -1.2152  0.5510
17145TIP3    H272927   6.451   1.648  10.795  0.1507 -1.2264  0.0606
17146TIP3   OH272928   4.504   2.157  14.234 -0.3391 -0.0940 -0.1935
17146TIP3    H172929   4.536   2.143  14.145  0.4723 -1.6116  0.2951
17146TIP3    H272930   4.553   2.233  14.266  0.4871 -0.4789 -0.5284
17147TIP3   OH272931   4.151   3.140   3.400  0.3044  0.2644 -0.2228
17147TIP3    H172932   4.178   3.150   3.308 -1.2756 -0.0422 -0.7691
17147TIP3    H272933   4.192   3.214   3.445 -0.5729  1.6884 -1.6053
17148TIP3   OH272934   0.427   2.377   2.103  0.9015 -0.1152  0.3233
17148TIP3    H172935   0.399   2.451   2.048 -0.9937 -0.1959  1.0904
17148TIP3    H272936   0.518   2.395   2.123  1.2120  0.7088 -1.5581
17149TIP3   OH272937   5.737   6.492   2.464  0.0037  0.4737  0.2618
17149TIP3    H172938   5.657   6.521   2.420 -0.1040  0.7108  0.6071
17149TIP3    H272939   5.807   6.516   2.404 -0.2734 -1.1469 -0.7647
17150TIP3   OH272940   6.284   4.594  14.164  0.1445  0.2038  0.3397
17150TIP3    H172941   6.205   4.619  14.212  0.3493 -0.9447  1.3213
17150TIP3    H272942   6.280   4.645  14.083 -1.0904  0.9015  0.8136
17151TIP3   OH272943   2.863   2.992  12.943  0.0061 -0.3862 -0.2152
17151TIP3    H172944   2.796   2.939  12.899 -0.2058 -0.2295 -0.0815
17151TIP3    H272945   2.813   3.060  12.989  0.2647 -0.2006 -0.2112
17152TIP3   OH272946   6.794   3.137  13.782 -0.4613  0.1071 -0.5334
17152TIP3    H172947   6.867   3.184  13.742 -0.1208 -0.6602 -0.8329
17152TIP3    H272948   6.811   3.141  13.876 -0.2853  0.3389 -0.5756
17153TIP3   OH272949   1.005   3.167  10.325  0.2207  0.2779 -0.3166
17153TIP3    H172950   0.940   3.101  10.302  0.4452  0.2702 -0.9480
17153TIP3    H272951   1.038   3.199  10.241  1.2206  0.0992 -0.0088
17154TIP3   OH272952   2.149   0.031   4.936  0.9225  0.5974  0.5457
17154TIP3    H172953   2.166   0.102   4.875 -0.2663  3.0558  2.8894
17154TIP3    H272954   2.063  -0.002   4.910  0.9589  0.7934  0.1631
17155TIP3   OH272955   1.900   4.377  13.601  0.4135  0.0423  0.0086
17155TIP3    H172956   1.860   4.463  13.614  3.3357  1.9721 -2.2004
17155TIP3    H272957   1.928   4.350  13.688 -1.0403  1.0596  0.8353
17156TIP3   OH272958   6.251   0.086  14.371  0.4045 -0.1310  0.3924
17156TIP3    H172959   6.174   0.031  14.359  0.3095  0.0065  0.3787
17156TIP3    H272960   6.325   0.026  14.361  0.3495  0.0612 -1.4200
17157TIP3   OH272961   4.768   0.246   3.386  0.3667  0.7206  0.2376
17157TIP3    H172962   4.720   0.199   3.454  2.0607  0.1534  1.1066
17157TIP3    H272963   4.756   0.338   3.408  0.9930  0.5408  1.4026
17158TIP3   OH272964   1.532   0.893   5.072  1.4771  0.2487  0.0062
17158TIP3    H172965   1.530   0.797   5.067 -0.8049  0.2703 -0.7287
17158TIP3    H272966   1.536   0.911   5.166  3.7335 -0.5048  0.1169
17159TIP3   OH272967   4.609   4.831   5.480 -0.2718  0.6914 -1.1542
17159TIP3    H172968   4.570   4.745   5.463  2.0628 -0.3454 -1.7755
17159TIP3    H272969   4.629   4.830   5.573 -0.9682  0.9045 -0.9974
17160TIP3   OH272970   1.861   5.747  16.627 -0.1129 -0.3656  0.0516
17160TIP3    H172971   1.929   5.698  16.581  0.4292  0.6495 -0.2502
17160TIP3    H272972   1.891   5.838  16.625 -1.6169  0.1509 -0.3474
17161TIP3   OH272973   1.401   5.044   5.277 -0.6317  0.3608 -0.6745
17161TIP3    H172974   1.492   5.027   5.253 -0.7566 -1.4767  0.0390
17161TIP3    H272975   1.381   4.979   5.345 -2.0781  1.5982  0.1389
17162TIP3   OH272976   3.142   0.072   3.420 -0.3118  0.2067 -0.8432
17162TIP3    H172977   3.106   0.118   3.495 -0.9452 -2.2625  0.4965
17162TIP3    H272978   3.232   0.051   3.446 -0.5078 -0.5864 -0.7668
17163TIP3   OH272979   6.008   2.058   5.155 -0.6402 -0.0409 -0.3096
17163TIP3    H172980   5.970   2.021   5.076 -1.5012  0.9574 -0.3882
17163TIP3    H272981   6.072   2.122   5.123 -0.8862  0.2606 -0.2120
17164TIP3   OH272982   4.173   4.582   2.861  0.4074 -0.1834 -0.5047
17164TIP3    H172983   4.215   4.496   2.857  1.2263  0.2158 -0.7499
17164TIP3    H272984   4.093   4.572   2.809 -0.0536 -1.0851  0.3468
17165TIP3   OH272985   4.476   3.627   3.152  0.6052  0.4894 -0.5307
17165TIP3    H172986   4.471   3.703   3.093  4.4213  0.1098 -1.6257
17165TIP3    H272987   4.476   3.665   3.240 -2.7092  1.2511 -0.7332
17166TIP3   OH272988   3.348   5.889  14.942 -0.0097  0.0291 -0.3101
17166TIP3    H172989   3.332   5.983  14.936 -1.6787 -0.2625 -0.7891
17166TIP3    H272990   3.303   5.852  14.866 -1.0156 -1.3402  0.8970
17167TIP3   OH272991   3.003   3.935  17.112  0.5337  0.3480  0.4407
17167TIP3    H172992   2.923   3.890  17.139  1.7562 -2.5358 -0.3466
17167TIP3    H272993   2.980   3.976  17.028 -0.1610 -0.3312  0.2859
17168TIP3   OH272994   2.985   5.879   0.737  0.1372 -0.5488  0.4388
17168TIP3    H172995   3.068   5.833   0.748 -0.4595 -1.6191  0.6379
17168TIP3    H272996   2.992   5.923   0.652  0.5640 -1.3944  0.0274
17169TIP3   OH272997   0.882   4.106  12.496  0.1578 -0.1938  0.0213
17169TIP3    H172998   0.812   4.152  12.450 -1.1202 -3.1098 -1.2512
17169TIP3    H272999   0.962   4.149  12.466 -0.9364  1.7214 -0.3324
17170TIP3   OH273000   5.768   0.482   1.119  0.2599  0.2603 -0.0347
17170TIP3    H173001   5.750   0.445   1.205  0.1044  0.5086  0.0432
17170TIP3    H273002   5.738   0.416   1.056 -1.2298  0.7698  0.0846
17171TIP3   OH273003   1.670   1.911   5.848 -0.0039  0.0443  1.2635
17171TIP3    H173004   1.674   1.927   5.942  0.7626  1.4992  1.0208
17171TIP3    H273005   1.616   1.981   5.813  1.6653  0.9757  0.3759
17172TIP3   OH273006   1.159   3.607   0.183 -0.4595 -0.0328  0.3337
17172TIP3    H173007   1.078   3.556   0.178 -0.2069 -0.5296  1.2020
17172TIP3    H273008   1.170   3.626   0.276 -0.0840  0.8640  0.1143
17173TIP3   OH273009   3.834   1.008  12.855  0.3059 -0.3759  0.2512
17173TIP3    H173010   3.823   1.051  12.940  0.6877 -0.5232  0.3814
17173TIP3    H273011   3.800   1.070  12.791  0.1536 -0.2014  0.5035
17174TIP3   OH273012   2.181   0.289   0.825 -0.5704 -0.0685  0.3892
17174TIP3    H173013   2.241   0.363   0.818 -0.7069  0.0267  0.2191
17174TIP3    H273014   2.238   0.212   0.818 -0.6100  0.0035 -1.2806
17175TIP3   OH273015   5.014   1.283   5.758  0.1062  0.3994 -0.3448
17175TIP3    H173016   5.030   1.372   5.789  0.1244  1.0325 -2.0454
17175TIP3    H273017   5.098   1.238   5.770 -0.0631  0.4117  1.0547
17176TIP3   OH273018   4.785   4.727  15.150  0.1658  0.3334 -0.3579
17176TIP3    H173019   4.748   4.815  15.150 -0.2209  0.1874 -1.2515
17176TIP3    H273020   4.724   4.675  15.202 -0.0611  0.4244 -0.5302
17177TIP3   OH273021   2.829   1.089   2.902 -0.4395  0.5038 -0.3360
17177TIP3    H173022   2.902   1.136   2.942  0.2644  0.6985 -1.7655
17177TIP3    H273023   2.841   0.998   2.930  0.4756  0.5028 -0.6942
17178TIP3   OH273024   5.088   5.329   2.097 -0.2129 -0.0064  0.2032
17178TIP3    H173025   5.096   5.339   2.192 -0.6676 -0.3237  0.2791
17178TIP3    H273026   5.059   5.239   2.085 -0.1916  0.0435 -0.2376
17179TIP3   OH273027   5.330   1.255  15.938 -0.7018 -1.0446 -0.9909
17179TIP3    H173028   5.399   1.292  15.992 -1.1814 -1.2446 -0.2369
17179TIP3    H273029   5.376   1.217  15.863  0.0198 -1.3115 -0.4169
17180TIP3   OH273030   1.893   1.168  13.613 -0.3859  0.2194 -0.2259
17180TIP3    H173031   1.920   1.214  13.533 -0.4258 -0.6734 -0.7587
17180TIP3    H273032   1.948   1.090  13.616  2.0009  1.8078  2.3834
17181TIP3   OH273033   4.526   4.336  16.301 -0.3441 -0.2639 -0.4738
17181TIP3    H173034   4.584   4.313  16.374 -1.1340  1.0803  0.6450
17181TIP3    H273035   4.586   4.360  16.230  0.5385  1.5558  0.7995
17182TIP3   OH273036   1.848   2.611  14.950 -0.2103 -0.0945 -0.6955
17182TIP3    H173037   1.831   2.590  14.858 -0.8708  0.7421 -0.7801
17182TIP3    H273038   1.836   2.528  14.996 -1.3647 -0.2203 -1.1833
17183TIP3   OH273039   2.579   1.960  16.403 -0.2762  0.3240  0.2300
17183TIP3    H173040   2.644   2.006  16.456  0.5522 -0.1555 -0.3477
17183TIP3    H273041   2.518   2.029  16.376  0.8146  1.0667 -0.4267
17184TIP3   OH273042   4.103   0.699  14.039  0.1297  0.5224  0.4370
17184TIP3    H173043   4.174   0.664  13.986 -2.3973  0.6627 -3.4318
17184TIP3    H273044   4.139   0.704  14.128  3.8865 -2.1351 -0.7073
17185TIP3   OH273045   1.142   1.216  13.912  0.0865  0.6057  0.2757
17185TIP3    H173046   1.114   1.220  13.821  1.3639  0.3663 -0.1443
17185TIP3    H273047   1.101   1.292  13.953 -1.4330  0.0914 -0.2000
17186TIP3   OH273048   5.548   1.359   5.716 -0.6160  0.0775  0.1016
17186TIP3    H173049   5.536   1.364   5.811 -0.9821  1.3048  0.0132
17186TIP3    H273050   5.643   1.352   5.704 -0.6476 -1.6731  0.5806
17187TIP3   OH273051   3.661   2.271   5.220  0.0827 -0.8679 -0.9985
17187TIP3    H173052   3.587   2.228   5.179 -1.0700 -0.4343  0.5610
17187TIP3    H273053   3.696   2.207   5.281 -1.2794  0.1136  0.9014
17188TIP3   OH273054   3.949   5.570   1.895  0.6652 -0.4239 -0.5606
17188TIP3    H173055   4.034   5.540   1.862  0.3697  1.1142 -2.9145
17188TIP3    H273056   3.965   5.658   1.928  0.3992 -0.9792  1.1740
17189TIP3   OH273057   0.441   2.842   2.319  0.5388  0.2228 -0.1038
17189TIP3    H173058   0.499   2.806   2.386  1.4244  0.1510 -0.8782
17189TIP3    H273059   0.417   2.928   2.352  1.6291  0.5239 -0.0497
17190TIP3   OH273060   4.512   1.063   1.191  0.2469 -0.0025  0.4843
17190TIP3    H173061   4.591   1.115   1.208 -0.2289  0.5203  1.1733
17190TIP3    H273062   4.441   1.127   1.198 -0.1450 -0.1748 -1.5466
17191TIP3   OH273063   3.531   3.220   2.404  0.3912 -0.4149 -0.0490
17191TIP3    H173064   3.499   3.188   2.488  0.0357 -0.3927 -0.1778
17191TIP3    H273065   3.626   3.204   2.408  0.3353 -0.6984  0.2288
17192TIP3   OH273066   4.458   3.117  14.036 -0.1483 -0.4496 -0.4156
17192TIP3    H173067   4.458   3.118  14.131  2.2123  0.7092 -0.3402
17192TIP3    H273068   4.415   3.198  14.010  1.0889  0.2968 -0.2285
17193TIP3   OH273069   6.737   1.315   0.470  0.1456 -0.2577  0.0813
17193TIP3    H173070   6.829   1.338   0.457  0.4449 -1.8215 -0.7634
17193TIP3    H273071   6.737   1.267   0.553 -0.2494  1.4260  1.0962
17194TIP3   OH273072   1.844   2.804   0.469  0.0835 -0.2758 -0.2783
17194TIP3    H173073   1.837   2.716   0.506 -0.5786  0.3158  1.0830
17194TIP3    H273074   1.769   2.810   0.410  0.3675 -0.7543 -0.7024
17195TIP3   OH273075   2.216   4.802  15.378  0.1078 -0.3076  0.1259
17195TIP3    H173076   2.176   4.745  15.444 -1.0521 -0.6914 -0.8815
17195TIP3    H273077   2.300   4.762  15.359 -0.2300 -1.0816  0.2296
17196TIP3   OH273078   6.434   3.454   5.120 -0.3457 -0.7393 -0.4515
17196TIP3    H173079   6.526   3.440   5.097  0.2045 -1.4344  1.8388
17196TIP3    H273080   6.432   3.542   5.157 -0.1433 -1.4414  1.3222
17197TIP3   OH273081   5.076   1.714   3.816 -0.3166  0.0665  0.3771
17197TIP3    H173082   5.143   1.665   3.862  0.1976  0.1052 -0.3108
17197TIP3    H273083   5.036   1.649   3.757  0.6530  0.5332 -0.8480
17198TIP3   OH273084   2.316   2.702  15.680  0.1796  0.0605  0.1178
17198TIP3    H173085   2.254   2.651  15.732 -1.3447  1.1963 -0.5189
17198TIP3    H273086   2.316   2.789  15.721  1.0415  0.1992 -0.1522
17199TIP3   OH273087   0.351   4.485   1.493 -0.5187 -0.2625  0.7071
17199TIP3    H173088   0.440   4.517   1.510  0.6105 -3.2157  1.1222
17199TIP3    H273089   0.331   4.516   1.405  1.0338  0.2819  0.5068
17200TIP3   OH273090   3.811   5.275  11.289  0.3692  0.0873 -0.2170
17200TIP3    H173091   3.892   5.315  11.321 -1.2390  1.5559  2.4535
17200TIP3    H273092   3.801   5.196  11.343 -1.1602  1.2903  1.3930
17201TIP3   OH273093   4.052   1.427  15.090  0.1156 -0.3598  0.1384
17201TIP3    H173094   4.107   1.376  15.149  1.2436 -0.8881 -1.3139
17201TIP3    H273095   4.114   1.483  15.042 -0.9088  1.0721  0.3994
17202TIP3   OH273096   4.691   3.329  12.291  0.7078 -0.7466  0.2391
17202TIP3    H173097   4.724   3.410  12.251  1.1630 -1.0638 -0.0354
17202TIP3    H273098   4.722   3.259  12.232 -1.0612 -1.0111 -0.4366
17203TIP3   OH273099   4.062   5.282  11.408 -0.7201  0.0976  0.3294
17203TIP3    H173100   4.069   5.198  11.454 -0.2122  0.5435  1.0824
17203TIP3    H273101   4.144   5.290  11.360 -0.5423  0.4063  0.6823
17204TIP3   OH273102   0.792   6.529   5.660 -0.2777  0.1627  0.2604
17204TIP3    H173103   0.747   6.499   5.739  0.9624  1.5946  1.5843
17204TIP3    H273104   0.747   6.610   5.637  0.0867  0.3330  0.1542
17205TIP3   OH273105   0.636   2.593   0.422 -0.3725  1.0866  0.2293
17205TIP3    H173106   0.716   2.566   0.466  0.0028  1.0722 -0.4452
17205TIP3    H273107   0.565   2.565   0.480  0.0219 -0.8813 -0.1656
17206TIP3   OH273108   6.808   4.015  11.163  0.0635 -0.2908 -0.2887
17206TIP3    H173109   6.731   3.984  11.115  0.0964 -1.8679  0.6172
17206TIP3    H273110   6.883   3.980  11.113  0.1624  0.2702 -0.5330
17207TIP3   OH273111   1.200   0.123   6.625 -0.4428 -0.1852  1.1167
17207TIP3    H173112   1.105   0.127   6.639 -0.5219  1.2966  0.3281
17207TIP3    H273113   1.237   0.156   6.707 -0.6234 -0.1782  1.1964
17208TIP3   OH273114   4.154   6.720   2.131  0.1577 -0.3636  0.9503
17208TIP3    H173115   4.190   6.669   2.204 -0.0777 -1.2887  0.4360
17208TIP3    H273116   4.225   6.778   2.104 -0.0469  0.6675  2.5088
17209TIP3   OH273117   0.617   3.715  10.144 -0.7431  0.4887  0.6513
17209TIP3    H173118   0.637   3.623  10.128 -0.0880  0.7728 -0.2949
17209TIP3    H273119   0.522   3.719  10.151 -0.7071 -0.4814  2.3121
17210TIP3   OH273120   5.618   0.223  11.196 -0.0279  0.0229  0.1252
17210TIP3    H173121   5.697   0.276  11.207  0.3830 -0.7017  0.8090
17210TIP3    H273122   5.649   0.140  11.162 -0.5310 -0.1607  0.1061
17211TIP3   OH273123   1.751   0.815   6.063 -0.2073  0.7350  0.7775
17211TIP3    H173124   1.773   0.876   6.134  1.0585  0.3632  0.7345
17211TIP3    H273125   1.757   0.868   5.983 -2.6007  1.4025  0.9682
17212TIP3   OH273126   3.824   6.239   0.824  0.4191 -0.1653 -0.1403
17212TIP3    H173127   3.814   6.287   0.906 -1.1742  2.1398 -1.5938
17212TIP3    H273128   3.769   6.161   0.835 -0.7077  0.7055  0.5725
17213TIP3   OH273129   0.417   4.055  10.802 -0.4345 -0.3383  0.9793
17213TIP3    H173130   0.428   3.978  10.746  0.1952  0.7145 -0.4072
17213TIP3    H273131   0.497   4.057  10.856  1.6537  1.5742 -1.8951
17214TIP3   OH273132   5.902   6.557   0.336 -0.3907 -1.2217 -0.8400
17214TIP3    H173133   5.863   6.528   0.254 -0.7448  0.6490 -1.3577
17214TIP3    H273134   5.951   6.636   0.314 -0.2882 -0.8160  0.6997
17215TIP3   OH273135   2.433   2.680   0.730 -0.6645 -0.8319 -0.0027
17215TIP3    H173136   2.456   2.772   0.716 -1.7696 -0.4307  0.6426
17215TIP3    H273137   2.439   2.640   0.644  1.5762 -0.5999 -0.0283
17216TIP3   OH273138   6.271   1.988   2.549 -0.1504 -0.3116 -0.2918
17216TIP3    H173139   6.263   2.073   2.593 -0.7822 -0.4009 -0.2174
17216TIP3    H273140   6.365   1.973   2.541  0.0779 -1.0592  2.5830
17217TIP3   OH273141   4.618   1.663   3.665 -0.3258  0.6782  0.1831
17217TIP3    H173142   4.568   1.637   3.587  0.8262  0.9574 -0.6752
17217TIP3    H273143   4.551   1.687   3.729 -1.2932  0.8972 -0.8691
17218TIP3   OH273144   2.440   3.380  15.573  0.0974  0.3627  0.1607
17218TIP3    H173145   2.438   3.475  15.591 -0.7813  0.0033  2.3865
17218TIP3    H273146   2.526   3.365  15.534  0.7881  1.9123  0.9691
17219TIP3   OH273147   4.191   0.889  13.025  0.3500 -0.3367 -0.1975
17219TIP3    H173148   4.260   0.834  13.060 -0.8388 -1.5913  0.2700
17219TIP3    H273149   4.214   0.901  12.932  0.7259 -1.4731 -0.2629
17220TIP3   OH273150   0.844   6.529  12.414 -0.3226  0.1790  0.1863
17220TIP3    H173151   0.811   6.523  12.504  0.8670 -1.1497  0.5681
17220TIP3    H273152   0.866   6.439  12.391  0.4930  0.6720 -1.0236
17221TIP3   OH273153   3.226   1.950  12.298  0.2875  0.8335  0.1370
17221TIP3    H173154   3.214   1.883  12.365  0.5674 -1.0323 -1.5729
17221TIP3    H273155   3.319   1.972  12.303  0.4048  0.3682  0.0895
17222TIP3   OH273156   2.973   1.716   2.966  0.0443 -0.1066  0.2699
17222TIP3    H173157   3.023   1.740   2.887 -1.7380 -1.1386 -1.2593
17222TIP3    H273158   2.882   1.731   2.941 -0.5367  0.5963  2.5665
17223TIP3   OH273159   5.748   2.920  13.603 -0.7262  0.0095 -0.0470
17223TIP3    H173160   5.703   2.918  13.687 -0.6819  1.1252  0.0156
17223TIP3    H273161   5.677   2.926  13.538 -0.6953  1.0358  0.0127
17224TIP3   OH273162   6.591   5.906   3.655  0.4414  0.2778 -0.2590
17224TIP3    H173163   6.677   5.887   3.618  0.1478  1.9704 -1.9032
17224TIP3    H273164   6.575   5.998   3.636 -1.5278  0.1423  0.4623
17225TIP3   OH273165   4.190   2.680   4.359  0.1934  0.2219 -0.2292
17225TIP3    H173166   4.200   2.697   4.265  0.5981  0.3553 -0.1647
17225TIP3    H273167   4.252   2.740   4.401 -0.9842  1.1822  0.2060
17226TIP3   OH273168   4.485   3.198  10.580 -0.5987 -0.5102  0.0149
17226TIP3    H173169   4.524   3.238  10.502 -2.3318  0.4173 -0.4163
17226TIP3    H273170   4.486   3.268  10.645 -0.1980 -0.9415  0.4803
17227TIP3   OH273171   4.079   2.144   0.349 -0.3540 -0.6431 -0.2460
17227TIP3    H173172   4.015   2.200   0.393  1.0496 -0.2301  1.3855
17227TIP3    H273173   4.112   2.087   0.418  1.5387 -0.3427 -0.8384
17228TIP3   OH273174   5.278   6.489  15.767 -0.2563 -0.3274 -0.0428
17228TIP3    H173175   5.235   6.460  15.687 -2.5134  1.4997  0.4228
17228TIP3    H273176   5.359   6.531  15.738 -0.7765 -0.1896 -1.3193
17229TIP3   OH273177   2.899   4.424  14.028 -0.3162  0.2887  0.5664
17229TIP3    H173178   2.945   4.476  13.961  1.5199 -1.0504  0.7135
17229TIP3    H273179   2.969   4.393  14.086 -1.5899 -0.7139  1.6209
17230TIP3   OH273180   3.178   1.199   2.052  0.0885  0.4834  0.9129
17230TIP3    H173181   3.185   1.281   2.100  0.5864  0.0870  1.5512
17230TIP3    H273182   3.268   1.180   2.024 -0.3037  1.0960 -0.8877
17231TIP3   OH273183   1.657   1.558   2.238 -0.3736  0.1185  0.1526
17231TIP3    H173184   1.597   1.620   2.196  1.5527  1.9573 -0.0218
17231TIP3    H273185   1.662   1.588   2.329  1.2605  0.8670 -0.1395
17232TIP3   OH273186   4.912   6.172   1.794  0.1172  0.0669 -0.4933
17232TIP3    H173187   4.952   6.198   1.876 -1.0378 -0.2493  0.1883
17232TIP3    H273188   4.968   6.102   1.760 -0.2374 -0.8620  0.7937
17233TIP3   OH273189   1.570   6.320  11.142 -0.0504 -0.4563  0.1841
17233TIP3    H173190   1.593   6.410  11.166 -1.5119  0.4959 -1.6401
17233TIP3    H273191   1.517   6.330  11.062  0.4183 -3.0043 -0.5400
17234TIP3   OH273192   4.891   6.620  13.276 -0.1861 -0.4671  0.0825
17234TIP3    H173193   4.911   6.694  13.218  0.5069 -0.7090  0.0113
17234TIP3    H273194   4.829   6.656  13.340  0.2857  0.2271  0.1597
17235TIP3   OH273195   1.892   6.543   0.095 -0.3977 -0.3886 -0.0083
17235TIP3    H173196   1.916   6.455   0.066  0.6255 -0.0856 -0.1192
17235TIP3    H273197   1.904   6.598   0.018 -2.1501 -0.3156 -0.2691
17236TIP3   OH273198   5.377   0.738   6.314 -0.2609 -0.1815  0.4513
17236TIP3    H173199   5.358   0.749   6.408 -1.9710  0.2347  0.0904
17236TIP3    H273200   5.441   0.667   6.311 -2.5479 -2.4525  1.7647
17237TIP3   OH273201   1.848   3.314   4.130  0.2771 -0.4435  0.3836
17237TIP3    H173202   1.808   3.240   4.084  2.3147 -1.4511  0.1075
17237TIP3    H273203   1.914   3.347   4.069  0.3141  0.7522  1.0435
17238TIP3   OH273204   1.886   2.239  12.664  0.4023  0.5815 -0.4652
17238TIP3    H173205   1.821   2.207  12.727  0.5093  0.5777 -0.3552
17238TIP3    H273206   1.941   2.299  12.715 -0.5899  1.9638 -0.9740
17239TIP3   OH273207   0.163   3.902   3.811  0.4340 -0.0958 -0.4183
17239TIP3    H173208   0.215   3.834   3.770  1.7423  0.9917 -0.6291
17239TIP3    H273209   0.167   3.883   3.905  1.9395  0.4355 -0.3539
17240TIP3   OH273210   2.432   6.046   3.373 -0.5383 -0.5770  0.0648
17240TIP3    H173211   2.355   5.997   3.345 -0.8290  0.0163 -0.1781
17240TIP3    H273212   2.398   6.127   3.410  0.0244  0.7174 -2.0867
17241TIP3   OH273213   0.825   1.765  14.931 -0.1844 -0.5994 -0.3163
17241TIP3    H173214   0.839   1.855  14.961  0.9309 -1.4309  1.8669
17241TIP3    H273215   0.732   1.749  14.949 -0.5334  0.2303 -1.2153
17242TIP3   OH273216   3.917   3.223   3.182 -0.4264  0.4797  0.2677
17242TIP3    H173217   3.891   3.181   3.264  1.7565 -1.0986  0.2189
17242TIP3    H273218   3.937   3.150   3.123 -1.1846  1.5902 -1.4470
17243TIP3   OH273219   2.565   5.923   4.840 -0.2272 -0.7080  0.3617
17243TIP3    H173220   2.577   5.958   4.928  2.2769 -1.2272  0.2885
17243TIP3    H273221   2.572   5.828   4.850  2.6740 -0.6981 -0.6325
17244TIP3   OH273222   2.060   0.684   2.407  0.0164  1.2403  0.3887
17244TIP3    H173223   2.028   0.720   2.490  0.6378  0.3462  1.0430
17244TIP3    H273224   2.155   0.678   2.420  0.3452  2.7033 -1.0433
17245TIP3   OH273225   1.065   2.115  11.148 -0.3131  0.0536  0.4805
17245TIP3    H173226   1.095   2.142  11.061 -0.5947 -0.1231  0.3294
17245TIP3    H273227   0.984   2.067  11.132  0.3368 -1.1497  0.7275
17246TIP3   OH273228   5.285   6.473  16.225  0.4266 -0.5472 -0.0788
17246TIP3    H173229   5.255   6.386  16.251  2.1071 -1.2987 -0.5312
17246TIP3    H273230   5.232   6.494  16.148  0.3971 -1.4079 -0.3085
17247TIP3   OH273231   5.894   0.904  12.422 -0.3522  0.0159  0.0875
17247TIP3    H173232   5.840   0.826  12.409 -0.5598 -0.0918  1.4145
17247TIP3    H273233   5.981   0.879  12.391 -0.8261 -0.1142 -1.2124
17248TIP3   OH273234   2.102   2.422  12.726  0.1950 -0.3319 -0.3529
17248TIP3    H173235   2.143   2.503  12.697 -0.4370 -0.6486 -2.2710
17248TIP3    H273236   2.172   2.358  12.725  0.2095 -0.3129 -1.1431
17249TIP3   OH273237   3.160   6.005  11.165  0.1753  0.1242 -0.3133
17249TIP3    H173238   3.135   6.000  11.072 -0.2456  0.6680 -0.2333
17249TIP3    H273239   3.252   5.977  11.166 -0.7133 -3.2141 -0.4416
17250TIP3   OH273240   6.316   4.062   3.110 -0.0868 -0.0817  0.0570
17250TIP3    H173241   6.305   4.108   3.027 -0.5014 -0.5795 -0.1664
17250TIP3    H273242   6.248   4.098   3.166 -0.9013 -0.9498 -0.3544
17251TIP3   OH273243   1.890   4.131   0.088 -0.4966 -0.5514 -0.1790
17251TIP3    H173244   1.918   4.051   0.133  0.2359 -0.9519 -1.2941
17251TIP3    H273245   1.812   4.159   0.136 -0.3841 -1.5655  0.6439
17252TIP3   OH273246   2.852   5.200   4.191  0.0435 -0.2376  0.0905
17252TIP3    H173247   2.940   5.201   4.154 -0.7334 -0.9077 -1.9013
17252TIP3    H273248   2.816   5.286   4.171  1.3938  1.5082  4.1506
17253TIP3   OH273249   4.160   6.236  15.615 -0.5061 -0.1854  0.7378
17253TIP3    H173250   4.209   6.268  15.691  1.1836  2.1414 -1.1751
17253TIP3    H273251   4.090   6.300  15.604 -0.8763 -0.6373  0.4443
17254TIP3   OH273252   2.853   1.443  11.217 -0.0264 -0.2195 -0.3550
17254TIP3    H173253   2.798   1.508  11.261  0.1124 -0.5179  0.2640
17254TIP3    H273254   2.838   1.459  11.124  2.4048  2.8449 -0.3907
17255TIP3   OH273255   0.171   5.242   5.005  0.0697  0.1947 -0.3168
17255TIP3    H173256   0.109   5.276   5.070  1.6350  1.6017  0.5480
17255TIP3    H273257   0.187   5.152   5.032 -1.8741 -0.3383 -0.8201
17256TIP3   OH273258   3.204   5.130   2.771 -0.0569 -0.0880 -0.1288
17256TIP3    H173259   3.154   5.200   2.811 -0.4168 -0.3887 -0.0451
17256TIP3    H273260   3.292   5.165   2.762 -0.7601  1.3171 -2.3708
17257TIP3   OH273261   0.447   5.755  12.248 -0.1505 -0.4839 -0.2596
17257TIP3    H173262   0.496   5.817  12.302 -0.4573 -0.0062 -0.5235
17257TIP3    H273263   0.426   5.683  12.307  1.8677 -1.2546 -0.4181
17258TIP3   OH273264   1.767   3.232  16.950  0.1228 -0.6686 -0.3038
17258TIP3    H173265   1.701   3.226  16.880 -2.0343 -1.7694  1.6732
17258TIP3    H273266   1.722   3.199  17.028  2.7263 -0.4316  1.4239
17259TIP3   OH273267   3.386   0.380   4.704 -0.0047  0.3245  0.4143
17259TIP3    H173268   3.480   0.399   4.708  0.4521 -1.2509 -1.2883
17259TIP3    H273269   3.367   0.336   4.788  0.9539 -0.0250  0.4578
17260TIP3   OH273270   0.923   0.225  16.407 -0.1565 -0.1948  1.0005
17260TIP3    H173271   0.928   0.286  16.332  0.5188 -0.4230  0.8554
17260TIP3    H273272   0.833   0.193  16.405  0.0896 -0.8861 -0.2749
17261TIP3   OH273273   1.587   6.339  16.807 -0.2426 -0.5413 -0.9340
17261TIP3    H173274   1.646   6.409  16.778 -0.0208 -1.6000 -3.2365
17261TIP3    H273275   1.611   6.324  16.898  0.8697  1.2043 -0.8921
17262TIP3   OH273276   2.801   2.712   2.086 -0.1594 -0.1707 -0.6637
17262TIP3    H173277   2.805   2.796   2.132  0.3806  1.1487 -2.9441
17262TIP3    H273278   2.729   2.665   2.128 -1.4047  2.0212 -0.1918
17263TIP3   OH273279   1.993   3.486   1.785  0.2361  0.2949 -0.8341
17263TIP3    H173280   2.010   3.460   1.876 -0.4939  0.3055 -0.6928
17263TIP3    H273281   1.979   3.403   1.739  0.2740  0.3094 -0.8719
17264TIP3   OH273282   3.608   3.913  16.062  0.6524  0.4099  0.4414
17264TIP3    H173283   3.599   3.830  16.016 -0.9459  1.0490 -0.4421
17264TIP3    H273284   3.663   3.966  16.005 -1.4567  1.2584 -0.9152
17265TIP3   OH273285   6.504   4.909   1.755 -0.5843  0.1921 -0.2093
17265TIP3    H173286   6.409   4.911   1.753 -0.6255 -1.0985 -2.0277
17265TIP3    H273287   6.530   4.929   1.665  0.8238 -0.7172 -0.0375
17266TIP3   OH273288   2.812   1.966   3.986  0.3771  0.3160  0.4996
17266TIP3    H173289   2.824   1.875   3.958 -1.7737  0.2805 -0.4530
17266TIP3    H273290   2.794   2.014   3.905  4.4075  2.2770  0.4875
17267TIP3   OH273291   3.638   4.508   1.535 -0.1540  0.1488  0.1838
17267TIP3    H173292   3.648   4.465   1.450 -0.4306 -0.4299  0.4396
17267TIP3    H273293   3.619   4.437   1.596  1.6348  0.3398  1.0294
17268TIP3   OH273294   4.168   4.779  14.761 -0.1082 -0.0931  0.1576
17268TIP3    H173295   4.094   4.734  14.721 -0.3684  1.6704 -1.4797
17268TIP3    H273296   4.245   4.737  14.722 -0.2871 -0.4982  0.2353
17269TIP3   OH273297   6.036   5.129   0.022 -0.1913 -0.4826  0.1780
17269TIP3    H173298   6.028   5.194   0.092  0.1574 -0.2904  0.0382
17269TIP3    H273299   5.977   5.160  -0.047 -0.5130 -0.6564  0.3711
17270TIP3   OH273300   2.719   2.361   2.027 -0.2115 -0.5725 -0.3598
17270TIP3    H173301   2.764   2.427   1.973  0.1945  0.1428  0.8257
17270TIP3    H273302   2.668   2.412   2.090  0.0673 -1.4009  0.5475
17271TIP3   OH273303   6.758   0.881   0.098  0.4981  0.0628 -0.0400
17271TIP3    H173304   6.742   0.941   0.171 -1.8738 -1.6490  0.9590
17271TIP3    H273305   6.825   0.821   0.130 -0.7486 -0.8648  0.8977
17272TIP3   OH273306   3.813   0.013   1.357 -0.3694  0.4845  0.2430
17272TIP3    H173307   3.807  -0.029   1.271  0.9447  0.2906  0.2287
17272TIP3    H273308   3.728   0.056   1.369 -2.1169 -2.7159  0.5555
17273TIP3   OH273309   3.007   6.158   4.020 -0.3184 -0.2298  0.7006
17273TIP3    H173310   2.946   6.213   3.971  0.6390  2.0432  1.9043
17273TIP3    H273311   2.951   6.100   4.072 -1.4414  1.0349  0.9443
17274TIP3   OH273312   1.556   2.456   3.927 -0.4579 -0.0657 -0.4400
17274TIP3    H173313   1.478   2.443   3.874 -1.0450 -2.9963  0.9319
17274TIP3    H273314   1.530   2.519   3.994 -0.9818  0.5575 -1.2290
17275TIP3   OH273315   6.052   0.040  17.184 -0.2207  0.4980  0.2111
17275TIP3    H173316   5.990   0.088  17.130 -0.9648  0.5873  1.1246
17275TIP3    H273317   6.138   0.068  17.153 -0.6148  0.1320 -1.2903
17276TIP3   OH273318   5.858   3.803   3.942 -0.1781  0.0088  0.1830
17276TIP3    H173319   5.901   3.799   3.857 -0.3884  0.7580  0.0356
17276TIP3    H273320   5.922   3.844   4.001  0.9742 -2.7980  1.0538
17277TIP3   OH273321   3.368   2.595  16.371  0.2572  0.0719  0.4581
17277TIP3    H173322   3.416   2.511  16.367 -0.3612 -0.2894  0.5081
17277TIP3    H273323   3.295   2.583  16.310 -1.1596 -0.2769  2.1434
17278TIP3   OH273324   1.666   3.238   3.148 -0.2798 -0.0020  0.0382
17278TIP3    H173325   1.758   3.253   3.126 -0.3379 -1.6329 -1.5380
17278TIP3    H273326   1.620   3.314   3.111  0.4238  0.9754  1.0999
17279TIP3   OH273327   4.570   2.473   4.068  0.1333  0.0827 -0.1255
17279TIP3    H173328   4.666   2.473   4.066  0.1378 -0.8237 -0.3395
17279TIP3    H273329   4.546   2.564   4.085  1.0078  0.6827 -1.7992
17280TIP3   OH273330   5.686   0.259  13.173 -0.3271  0.4461  0.2456
17280TIP3    H173331   5.705   0.256  13.079  1.1336 -0.6151  0.5314
17280TIP3    H273332   5.772   0.257  13.214 -0.9785 -0.3466  1.6299
17281TIP3   OH273333   5.116   6.536   3.788  0.7305 -0.4082 -0.2223
17281TIP3    H173334   5.197   6.487   3.799  1.3212  0.5612 -0.1152
17281TIP3    H273335   5.144   6.627   3.781 -0.4126  0.0883  1.0698
17282TIP3   OH273336   3.961   1.221   5.776  0.1141 -0.2326 -0.5982
17282TIP3    H173337   4.036   1.252   5.827 -0.3076  0.3072 -0.3030
17282TIP3    H273338   3.896   1.291   5.783 -0.8262 -1.1369  0.0012
17283TIP3   OH273339   2.513   5.818   2.703  0.2236 -0.1900 -0.1633
17283TIP3    H173340   2.472   5.863   2.777 -0.5554 -0.6771 -0.2790
17283TIP3    H273341   2.524   5.885   2.637  1.4561  0.3763  0.5960
17284TIP3   OH273342   0.976   1.633   4.418 -0.6687 -0.1527 -0.1599
17284TIP3    H173343   1.059   1.623   4.465  0.5143  0.3490 -2.0350
17284TIP3    H273344   0.917   1.674   4.482  1.1866  1.5445  0.5890
17285TIP3   OH273345   3.163   0.722  15.292 -0.3230  0.4045 -0.1416
17285TIP3    H173346   3.216   0.763  15.223  1.0941 -0.2041  0.5352
17285TIP3    H273347   3.212   0.643  15.316 -1.9499 -0.5967  0.0080
17286TIP3   OH273348   3.447   0.546   6.418  0.4319 -0.7724  0.1189
17286TIP3    H173349   3.433   0.468   6.472 -1.5942 -0.3101  0.3709
17286TIP3    H273350   3.527   0.585   6.451  2.1392 -3.2857 -0.7310
17287TIP3   OH273351   2.855   1.334  16.426 -0.9033 -0.1965 -0.2489
17287TIP3    H173352   2.863   1.303  16.516  0.0915 -3.7374 -1.4058
17287TIP3    H273353   2.761   1.346  16.413 -1.0587  0.4001  1.2421
17288TIP3   OH273354   2.057   3.420   1.436  0.0601  0.0192 -0.2912
17288TIP3    H173355   2.063   3.398   1.343  1.4390  1.0299 -0.4748
17288TIP3    H273356   1.991   3.360   1.471 -0.3616 -0.4871 -1.8789
17289TIP3   OH273357   0.183   1.846   0.689  0.5936 -0.0284 -0.2015
17289TIP3    H173358   0.143   1.799   0.762 -1.2229  0.8763 -0.5469
17289TIP3    H273359   0.152   1.936   0.699  0.7476  0.2289 -1.7748
17290TIP3   OH273360   4.915   0.705  14.996  0.6431 -1.0352 -0.2055
17290TIP3    H173361   4.826   0.707  15.030  1.0478  0.9745  0.8653
17290TIP3    H273362   4.933   0.612  14.981 -0.5458 -1.7851  2.4639
17291TIP3   OH273363   0.108   2.456   4.065  0.2941  0.5347 -0.0538
17291TIP3    H173364   0.136   2.388   4.126  2.2347  1.1923 -0.1608
17291TIP3    H273365   0.146   2.432   3.981 -1.3810  0.2750 -0.7893
17292TIP3   OH273366   1.028   6.734  13.282  0.8976 -0.2002  0.1139
17292TIP3    H173367   1.003   6.642  13.285  0.8867 -0.2509 -1.2054
17292TIP3    H273368   0.977   6.771  13.209  0.8547  0.8682  0.6578
17293TIP3   OH273369   3.389   3.015   1.727 -0.4700 -0.2303  0.6928
17293TIP3    H173370   3.312   3.018   1.783 -0.3491  0.0301  0.8451
17293TIP3    H273371   3.448   2.954   1.772 -1.0809 -1.4285 -0.0617
17294TIP3   OH273372   1.745   6.283   2.971 -0.5314 -1.0442  0.1126
17294TIP3    H173373   1.730   6.194   3.006 -0.4483 -1.0420  0.1527
17294TIP3    H273374   1.668   6.332   3.000 -0.3257 -0.9701  0.5362
17295TIP3   OH273375   1.515   4.916   4.554  0.3534 -0.0888 -0.3120
17295TIP3    H173376   1.422   4.908   4.535  0.0657 -1.4363  1.3363
17295TIP3    H273377   1.550   4.970   4.484 -2.0351  2.2378  0.1311
17296TIP3   OH273378   3.203   0.841   1.748  0.0907  0.2333  0.0591
17296TIP3    H173379   3.217   0.833   1.843 -0.3582  0.8182  0.1805
17296TIP3    H273380   3.237   0.760   1.712  3.1562  1.2189  0.4116
17297TIP3   OH273381   0.210   1.554   5.368 -0.3052 -0.3203  0.4765
17297TIP3    H173382   0.297   1.555   5.330 -1.4305 -2.6346 -2.6436
17297TIP3    H273383   0.219   1.503   5.448  1.0361 -1.8027 -0.5600
17298TIP3   OH273384   0.335   4.236  14.506 -0.3564 -0.5929 -0.1569
17298TIP3    H173385   0.320   4.159  14.562 -1.9761 -1.0271 -1.1078
17298TIP3    H273386   0.358   4.199  14.421  0.6988  0.0348 -0.1595
17299TIP3   OH273387   5.274   1.123   5.504  0.0842 -0.1519 -0.2342
17299TIP3    H173388   5.252   1.110   5.596 -1.2952 -1.4393 -0.7042
17299TIP3    H273389   5.263   1.037   5.464 -2.4439  0.9407 -2.1837
17300TIP3   OH273390   3.933   6.097   3.601  0.4639  0.4546 -0.1054
17300TIP3    H173391   3.958   6.184   3.630  0.2741  0.1681  0.9821
17300TIP3    H273392   4.003   6.070   3.542  1.1668  0.8583  0.5277
17301TIP3   OH273393   3.500   5.603   4.545  0.1301 -0.4406 -0.6395
17301TIP3    H173394   3.426   5.659   4.521 -1.5665 -2.9701 -1.7661
17301TIP3    H273395   3.576   5.644   4.504 -0.6786  1.9812  0.1445
17302TIP3   OH273396   1.026   4.384  16.946 -0.4716  0.2344 -0.0502
17302TIP3    H173397   0.971   4.462  16.949 -2.4508 -1.0955  2.2403
17302TIP3    H273398   0.983   4.327  16.882 -1.8531 -0.7795  1.6945
17303TIP3   OH273399   6.029   1.263  15.163  0.6242 -0.8106  0.3292
17303TIP3    H173400   5.992   1.239  15.078 -0.4380 -2.1707  1.1446
17303TIP3    H273401   6.050   1.356  15.154 -0.3002 -0.7116 -1.1230
17304TIP3   OH273402   1.826   1.192   1.695 -0.1960  0.0501 -0.0287
17304TIP3    H173403   1.901   1.246   1.669  0.9008 -2.4467 -2.5694
17304TIP3    H273404   1.853   1.152   1.777  0.1810  1.0864  0.3645
17305TIP3   OH273405   2.714   2.842   0.416 -0.3491  0.3798  0.0495
17305TIP3    H173406   2.749   2.859   0.503 -1.9641 -1.6878  1.1966
17305TIP3    H273407   2.789   2.853   0.358  0.5568  2.7351  1.5239
17306TIP3   OH273408   2.544   0.926  13.163 -0.6097  0.4626 -0.0093
17306TIP3    H173409   2.608   0.928  13.091 -0.4602  0.8331  0.1301
17306TIP3    H273410   2.460   0.913  13.120 -0.5834  1.1625 -0.3017
17307TIP3   OH273411   5.702   1.485   3.721  0.0832 -0.0940  0.2196
17307TIP3    H173412   5.644   1.558   3.702 -0.7757 -0.4483  1.3424
17307TIP3    H273413   5.731   1.454   3.635 -0.6789  0.6584 -0.3243
17308TIP3   OH273414   1.692   3.223  12.079 -0.1814 -0.5417  0.5359
17308TIP3    H173415   1.728   3.312  12.080 -2.3534  0.4663 -1.6249
17308TIP3    H273416   1.767   3.167  12.098  2.2374  1.5080 -2.0777
17309TIP3   OH273417   6.234   4.913   0.350 -0.2891 -0.2429  0.0911
17309TIP3    H173418   6.294   4.897   0.422  1.6606  0.0879 -1.3806
17309TIP3    H273419   6.160   4.959   0.390  0.8969  0.2846  1.8024
17310TIP3   OH273420   5.009   5.684  16.600  0.3786  0.5002 -0.0091
17310TIP3    H173421   5.023   5.713  16.691 -1.9188 -0.7972  0.8331
17310TIP3    H273422   4.957   5.754  16.561 -0.9345 -0.1301  0.5381
17311TIP3   OH273423   3.091   3.877   4.717  0.7902  0.6511  0.0731
17311TIP3    H173424   3.033   3.884   4.641  0.3328  1.3161  0.4730
17311TIP3    H273425   3.168   3.831   4.684 -0.9592 -2.6294  0.0871
17312TIP3   OH273426   2.396   1.932  16.950 -0.5312 -0.1519 -0.8024
17312TIP3    H173427   2.414   2.026  16.941  0.3067 -0.1209  0.8000
17312TIP3    H273428   2.454   1.891  16.886  0.0682  0.3604 -0.6059
17313TIP3   OH273429   2.189   4.912   1.348 -0.2761 -0.0810 -0.1300
17313TIP3    H173430   2.128   4.849   1.386  1.4419 -1.6414  0.1788
17313TIP3    H273431   2.229   4.956   1.423  0.5552 -0.6395 -0.2353
17314TIP3   OH273432   2.270   1.474   1.103  0.1333  0.1378  0.8699
17314TIP3    H173433   2.238   1.397   1.056 -1.4715  1.3531 -0.1090
17314TIP3    H273434   2.358   1.449   1.133 -0.2578 -1.9692  0.3847
17315TIP3   OH273435   6.071   6.548   0.061 -0.6913 -0.1595  0.3871
17315TIP3    H173436   6.048   6.631   0.101 -0.8376 -0.0818  0.1443
17315TIP3    H273437   6.067   6.565  -0.033 -2.9188 -1.0216  0.2769
17316TIP3   OH273438   0.127   3.344  13.725 -0.1433  0.3050 -0.5471
17316TIP3    H173439   0.179   3.373  13.650 -1.5780  3.0195 -0.6190
17316TIP3    H273440   0.113   3.424  13.776  0.2134 -1.3442  2.3064
17317TIP3   OH273441   5.767   5.675   3.670 -0.0717 -0.0961  0.3331
17317TIP3    H173442   5.697   5.721   3.716 -0.1657  0.0032  0.0930
17317TIP3    H273443   5.734   5.664   3.581 -0.2116 -0.9778  0.4860
17318TIP3   OH273444   6.163   3.809  12.677  0.2776 -0.0204 -0.0526
17318TIP3    H173445   6.142   3.833  12.587 -0.4351  1.8518  0.5617
17318TIP3    H273446   6.081   3.825  12.725  0.9813  0.1307  1.1201
17319TIP3   OH273447   6.271   2.650  11.307 -0.0915  0.3542  0.1044
17319TIP3    H173448   6.249   2.600  11.228  0.5599  0.5447 -0.2095
17319TIP3    H273449   6.345   2.705  11.280 -0.9841  1.7096  0.3600
17320TIP3   OH273450   1.722   2.846  15.189  0.0139  0.3401  0.2725
17320TIP3    H173451   1.692   2.912  15.252  1.5222  0.0756  1.3247
17320TIP3    H273452   1.774   2.895  15.125 -0.2405  0.4015  0.1145
17321TIP3   OH273453   2.301   2.221  12.367  0.2980  1.0209  0.7107
17321TIP3    H173454   2.208   2.230  12.388  0.0069 -2.1117  1.3348
17321TIP3    H273455   2.343   2.204  12.451  0.8815 -0.7259  0.1084
17322TIP3   OH273456   2.122   4.098   0.540 -0.0440  0.0500  0.1604
17322TIP3    H173457   2.186   4.032   0.564 -1.3607 -0.5138  2.4243
17322TIP3    H273458   2.171   4.180   0.538  0.7264 -0.3043  2.2337
17323TIP3   OH273459   6.332   4.209  11.038 -0.2710  0.9603  0.7449
17323TIP3    H173460   6.244   4.204  11.001  0.1371  0.1362 -0.1762
17323TIP3    H273461   6.390   4.183  10.965  0.6360  0.1827  1.7088
17324TIP3   OH273462   5.023   0.849   1.261  0.5108  0.4283 -0.1466
17324TIP3    H173463   5.012   0.943   1.271  0.5425  0.1731  3.7660
17324TIP3    H273464   5.094   0.826   1.322 -0.4177 -2.2587  0.0727
17325TIP3   OH273465   0.272   6.531  14.012  0.1958  0.2131  1.0017
17325TIP3    H173466   0.310   6.480  13.940 -0.1683 -0.4538  1.2716
17325TIP3    H273467   0.347   6.561  14.063  0.3799 -1.1383  1.5643
17326TIP3   OH273468   6.583   4.621  15.662  0.1881 -0.2257  0.0746
17326TIP3    H173469   6.626   4.538  15.678 -0.0454 -0.2903  0.3586
17326TIP3    H273470   6.644   4.687  15.696  0.0956 -0.3131  0.4073
17327TIP3   OH273471   6.468   0.810   2.633 -0.1775  0.4165  0.4376
17327TIP3    H173472   6.476   0.777   2.723  1.3433  0.1664  0.2318
17327TIP3    H273473   6.540   0.872   2.624  1.2825 -1.4257 -1.3897
17328TIP3   OH273474   5.051   0.463   4.037  0.1530  0.5113  0.2694
17328TIP3    H173475   5.116   0.511   4.089 -2.3751  2.7489  1.5814
17328TIP3    H273476   5.058   0.372   4.068  2.3096  0.7419  0.6405
17329TIP3   OH273477   6.792   0.562   3.822 -0.1723 -0.2852  0.0940
17329TIP3    H173478   6.720   0.514   3.780 -0.1974 -1.2490  1.1834
17329TIP3    H273479   6.854   0.579   3.752 -0.5986 -1.1212 -0.4949
17330TIP3   OH273480   0.584   1.733  15.224  0.3430 -0.5778  0.0900
17330TIP3    H173481   0.499   1.711  15.262  0.4481 -0.8773  0.1512
17330TIP3    H273482   0.576   1.707  15.132  0.1356  0.0211 -0.0677
17331TIP3   OH273483   0.222   0.790  11.660 -0.5167  0.1132  0.4229
17331TIP3    H173484   0.300   0.847  11.664  1.0550 -1.9104  0.0636
17331TIP3    H273485   0.182   0.810  11.575 -0.9144  1.7627  0.9543
17332TIP3   OH273486   2.016   1.627   6.966  0.4183  0.0138 -0.8596
17332TIP3    H173487   1.942   1.578   6.931 -0.0893 -0.3439  0.6321
17332TIP3    H273488   1.986   1.718   6.969  1.1785  0.4211 -3.1394
17333TIP3   OH273489   4.129   1.728  12.312  0.3811  0.0115  0.3053
17333TIP3    H173490   4.106   1.684  12.393  0.9052 -2.9074 -0.9833
17333TIP3    H273491   4.214   1.770  12.330 -0.6343  1.5352  1.8832
17334TIP3   OH273492   0.500   6.595   5.275 -1.0180 -0.1123 -0.4891
17334TIP3    H173493   0.512   6.631   5.188 -0.2620 -1.2332 -0.8757
17334TIP3    H273494   0.583   6.612   5.320 -2.0573  2.2275  0.7376
17335TIP3   OH273495   2.701   1.851  10.898 -0.5661 -0.2335  0.3178
17335TIP3    H173496   2.722   1.900  10.818 -0.0935 -0.0805  0.5340
17335TIP3    H273497   2.785   1.820  10.930 -0.6895  0.1890  1.0745
17336TIP3   OH273498   1.842   5.475   4.973  0.4915  0.0301  0.2817
17336TIP3    H173499   1.847   5.542   4.905 -3.5066 -1.8644 -2.2829
17336TIP3    H273500   1.748   5.466   4.992  1.1022 -2.4959  3.0174
17337TIP3   OH273501   3.237   2.516  15.736 -0.2276 -0.3979 -0.1657
17337TIP3    H173502   3.249   2.494  15.644  0.4382  0.1010 -0.2099
17337TIP3    H273503   3.201   2.604  15.736 -1.2635 -0.8015  0.0418
17338TIP3   OH273504   6.501   3.768  15.804 -0.3053  0.5250 -0.6002
17338TIP3    H173505   6.408   3.747  15.809 -0.0776 -0.2637  2.1539
17338TIP3    H273506   6.505   3.863  15.809 -0.9559  0.6196 -1.5576
17339TIP3   OH273507   3.393   4.755   5.589  0.2400 -0.8498 -0.4191
17339TIP3    H173508   3.328   4.732   5.656  1.9902 -2.7511  0.7623
17339TIP3    H273509   3.431   4.838   5.620 -1.8221  0.5097 -1.3501
17340TIP3   OH273510   3.437   1.246   5.421 -0.3787  0.7310  0.0342
17340TIP3    H173511   3.368   1.231   5.357 -0.9952 -1.5664  1.1573
17340TIP3    H273512   3.404   1.208   5.503  2.5545 -1.3549  0.3954
17341TIP3   OH273513   2.670   6.824  11.309 -0.5511  0.0805 -0.0712
17341TIP3    H173514   2.764   6.831  11.290 -0.2865  1.5810  1.5673
17341TIP3    H273515   2.644   6.913  11.335 -1.9643 -0.7379  1.4827
17342TIP3   OH273516   5.310   6.588   2.958 -0.2404 -0.0826 -0.1762
17342TIP3    H173517   5.314   6.633   2.874  1.4157  1.4048  0.6452
17342TIP3    H273518   5.244   6.637   3.008 -0.2629 -0.1494 -0.1398
17343TIP3   OH273519   4.302   3.358  13.956  0.6742  0.1211  0.4843
17343TIP3    H173520   4.206   3.362  13.958  0.5613 -0.4214 -1.4956
17343TIP3    H273521   4.329   3.447  13.933  0.5264 -0.1281 -0.7092
17344TIP3   OH273522   6.599   0.018  16.920  0.1392  0.4902  0.5286
17344TIP3    H173523   6.607   0.071  17.000 -0.6992  0.4637  0.6414
17344TIP3    H273524   6.523  -0.038  16.936 -0.1018  0.5583 -0.3321
17345TIP3   OH273525   1.554   2.499  12.826 -0.3765  0.3704  0.2969
17345TIP3    H173526   1.468   2.535  12.804 -0.7048 -1.2428 -1.3037
17345TIP3    H273527   1.544   2.463  12.914 -1.0645  1.0116  0.4878
17346TIP3   OH273528   0.746   4.438  16.712 -0.2818  0.3587 -0.2686
17346TIP3    H173529   0.671   4.384  16.737  1.1926 -0.9488  1.5648
17346TIP3    H273530   0.809   4.376  16.675  1.8249  0.5236  2.7413
17347TIP3   OH273531   5.236   5.641   1.368 -0.0060  0.5323 -0.7624
17347TIP3    H173532   5.173   5.713   1.366  0.0906  0.6979  0.8360
17347TIP3    H273533   5.193   5.574   1.420  2.2215  1.8331  3.1910
17348TIP3   OH273534   5.503   0.773  11.638  0.1604 -0.1374  0.5688
17348TIP3    H173535   5.481   0.824  11.717 -0.8545  0.9657 -0.3778
17348TIP3    H273536   5.585   0.812  11.607  1.0008 -1.1088  1.4916
17349TIP3   OH273537   5.983   0.008   5.920 -0.2588 -0.2774  0.2193
17349TIP3    H173538   5.996   0.097   5.885  2.4576 -0.6416  0.0929
17349TIP3    H273539   5.925   0.020   5.994 -2.0087  1.2395 -1.2891
17350TIP3   OH273540   0.820   5.900  12.386 -0.3823  0.3368  0.1226
17350TIP3    H173541   0.912   5.915  12.407 -0.1057 -0.1010 -0.7154
17350TIP3    H273542   0.814   5.916  12.292 -1.2839  0.9002  0.2536
17351TIP3   OH273543   3.928   1.321  12.645  0.0364 -0.4547  0.7844
17351TIP3    H173544   3.920   1.282  12.732  1.5860  0.0227  1.1775
17351TIP3    H273545   3.840   1.351  12.624 -0.7201 -2.1217  1.4329
17352TIP3   OH273546   2.854   3.505  14.003 -0.4880 -0.0263  0.4029
17352TIP3    H173547   2.762   3.478  14.000 -0.2751 -0.6790 -2.1515
17352TIP3    H273548   2.851   3.600  13.988 -0.7567  0.1003  1.1756
17353TIP3   OH273549   0.950   3.698  14.380  0.1922  0.3441 -0.0997
17353TIP3    H173550   0.895   3.709  14.457 -0.4809  0.5922 -0.6119
17353TIP3    H273551   0.939   3.779  14.331 -0.1641 -0.2080 -0.9485
17354TIP3   OH273552   2.176   5.805   4.367 -0.2086  0.1962  0.1250
17354TIP3    H173553   2.247   5.868   4.354  0.5455 -0.1760  2.0827
17354TIP3    H273554   2.097   5.859   4.369  0.1195  0.7435 -1.0086
17355TIP3   OH273555   6.750   3.801   5.323 -0.2469  0.3794 -0.3491
17355TIP3    H173556   6.798   3.743   5.263 -0.9276  0.7310 -1.2578
17355TIP3    H273557   6.815   3.826   5.388  0.8519  0.9082 -1.5938
17356TIP3   OH273558   2.586   3.052  15.565 -0.9622  0.2918  0.4866
17356TIP3    H173559   2.580   3.056  15.661 -2.9474 -0.9985  0.4652
17356TIP3    H273560   2.547   3.134  15.535 -0.4859  0.6248  0.7607
17357TIP3   OH273561   2.619   0.318   5.480 -0.4964  0.4117  0.6452
17357TIP3    H173562   2.698   0.283   5.520 -1.1386 -1.7013  0.1984
17357TIP3    H273563   2.593   0.251   5.416 -2.1383  1.4651  0.1441
17358TIP3   OH273564   2.849   2.378   3.300 -0.1662  0.1789 -0.4582
17358TIP3    H173565   2.816   2.465   3.279 -1.3371 -0.6384 -2.2925
17358TIP3    H273566   2.942   2.382   3.280 -0.6113  0.4450 -2.7304
17359TIP3   OH273567   1.347   6.158  16.554  0.1697  0.3343 -0.4501
17359TIP3    H173568   1.322   6.170  16.463 -0.4279  0.4506 -0.2776
17359TIP3    H273569   1.265   6.136  16.599  0.2034  1.6234  0.2938
17360TIP3   OH273570   2.366   4.998  14.831 -0.2521 -1.2142 -0.7595
17360TIP3    H173571   2.359   4.964  14.741  1.8491 -0.2109 -1.3671
17360TIP3    H273572   2.349   5.092  14.822  2.8439 -0.5632 -0.6749
17361TIP3   OH273573   4.070   3.155  13.044 -0.2277 -0.2537  0.0085
17361TIP3    H173574   4.112   3.074  13.072  0.4182 -0.2817 -1.0041
17361TIP3    H273575   4.098   3.166  12.953 -0.0689  1.2587  0.2260
17362TIP3   OH273576   6.214   3.215   5.747  0.1267  0.3517 -0.6143
17362TIP3    H173577   6.198   3.190   5.838  1.1648  1.0291 -0.2238
17362TIP3    H273578   6.222   3.132   5.700 -0.9861  0.0018 -0.2012
17363TIP3   OH273579   3.014   5.524   0.314 -0.4465  1.0223 -0.2490
17363TIP3    H173580   3.079   5.519   0.243 -0.5154  0.3258 -0.2645
17363TIP3    H273581   3.059   5.572   0.383  1.0012 -1.5117  0.6940
17364TIP3   OH273582   1.037   2.151   3.216  0.2838 -0.1329 -0.0199
17364TIP3    H173583   0.982   2.114   3.146  1.6362 -0.3561 -0.9991
17364TIP3    H273584   1.009   2.242   3.223  0.1976 -0.0787 -0.9396
17365TIP3   OH273585   3.370   5.268  12.138 -0.4347 -0.6806  0.3405
17365TIP3    H173586   3.417   5.214  12.202  0.1777 -1.9117 -1.0963
17365TIP3    H273587   3.438   5.319  12.095 -0.9829  1.1120  1.4913
17366TIP3   OH273588   5.213   0.987   5.223  0.6314 -0.3587 -0.3650
17366TIP3    H173589   5.238   0.934   5.299  1.4073  1.3066  0.6083
17366TIP3    H273590   5.149   1.049   5.258  2.9014  2.1627 -0.3366
17367TIP3   OH273591   4.139   2.266  14.552 -0.0715  0.0471 -0.4944
17367TIP3    H173592   4.177   2.188  14.512  0.5057  1.2318 -2.4000
17367TIP3    H273593   4.065   2.288  14.495 -0.5721  0.5898  0.3430
17368TIP3   OH273594   6.677   1.222  11.756 -0.0167 -0.3798 -0.4197
17368TIP3    H173595   6.612   1.194  11.820  2.7597 -0.7196  2.5038
17368TIP3    H273596   6.687   1.147  11.698 -1.3561 -0.7579 -0.1885
17369TIP3   OH273597   6.420   4.997   0.148  0.0961  0.2762  0.2112
17369TIP3    H173598   6.372   5.043   0.217  0.8393  0.3312  0.7062
17369TIP3    H273599   6.380   5.028   0.067 -1.4494 -0.5391  0.6318
17370TIP3   OH273600   5.343   0.262   0.169  0.1249  0.1179  0.1861
17370TIP3    H173601   5.380   0.292   0.252  0.9229  0.7993 -0.3930
17370TIP3    H273602   5.409   0.204   0.133  0.1712  0.5074 -0.3695
17371TIP3   OH273603   2.813   0.663   5.599  0.2959 -0.2544 -0.3501
17371TIP3    H173604   2.889   0.718   5.577  0.8587 -0.2140  1.5736
17371TIP3    H273605   2.847   0.574   5.594  0.7908 -0.2003  1.5213
17372TIP3   OH273606   0.413   2.926  16.013  0.2323 -1.0335  0.0826
17372TIP3    H173607   0.431   2.954  15.923  0.7827 -2.7421 -0.3970
17372TIP3    H273608   0.458   2.842  16.021 -0.2089 -1.1514  1.8162
17373TIP3   OH273609   1.207   1.612  12.957  0.1231  0.2960 -0.0315
17373TIP3    H173610   1.190   1.677  12.889 -1.2462  0.3115  0.3115
17373TIP3    H273611   1.297   1.582  12.939  0.1857  1.0996 -1.1597
17374TIP3   OH273612   4.830   5.996   2.797 -0.2083  0.1281  0.2587
17374TIP3    H173613   4.822   6.090   2.787 -1.9801 -0.1001 -0.9064
17374TIP3    H273614   4.887   5.984   2.873  0.7819  2.0999 -0.1188
17375TIP3   OH273615   0.428   6.458  15.870  0.9726  0.3944 -0.5508
17375TIP3    H173616   0.464   6.470  15.958 -0.3444  3.2799 -0.2971
17375TIP3    H273617   0.405   6.546  15.841 -0.4447 -0.6795 -3.0190
17376TIP3   OH273618   2.796   1.710   3.881 -0.2626 -0.0996 -0.4236
17376TIP3    H173619   2.819   1.634   3.935 -1.3171 -0.6867 -0.7880
17376TIP3    H273620   2.808   1.679   3.791 -1.4591 -0.1004 -0.5951
17377TIP3   OH273621   5.235   5.133   4.409 -0.4102 -0.3532  0.0599
17377TIP3    H173622   5.177   5.203   4.440 -1.0594 -1.5379  1.6577
17377TIP3    H273623   5.322   5.159   4.439 -0.4737  0.2285 -0.2290
17378TIP3   OH273624   4.593   6.585  14.522 -0.2327 -0.1467 -0.3834
17378TIP3    H173625   4.601   6.676  14.550  0.3908 -0.0776 -0.7755
17378TIP3    H273626   4.655   6.537  14.578 -0.2837 -0.2710 -0.4320
17379TIP3   OH273627   6.541   4.920  12.443  0.7891 -0.4615 -0.1348
17379TIP3    H173628   6.459   4.909  12.491  1.2882 -1.6090  0.4865
17379TIP3    H273629   6.553   4.837  12.397  1.0330  0.1201 -1.1452
17380TIP3   OH273630   0.000   1.177  17.018 -0.1340 -0.6788 -0.1829
17380TIP3    H173631   0.038   1.260  16.992  0.6175 -1.3917 -1.4673
17380TIP3    H273632  -0.080   1.169  16.968 -1.1673  0.0570  1.2820
17381TIP3   OH273633   6.017   4.752   3.262 -0.4567 -0.0475  0.0183
17381TIP3    H173634   5.992   4.826   3.207 -3.1484 -0.7029  0.1852
17381TIP3    H273635   6.112   4.757   3.269 -0.5748  4.1512  1.1256
17382TIP3   OH273636   6.434   6.054  16.753 -0.3674 -0.5023  0.4444
17382TIP3    H173637   6.485   6.115  16.699 -0.2481 -1.4280 -0.5194
17382TIP3    H273638   6.424   5.976  16.698 -3.9020  0.0561  0.0525
17383TIP3   OH273639   3.548   4.106  12.582  0.2173  0.0737  0.1933
17383TIP3    H173640   3.523   4.155  12.504 -1.0250 -0.1791  0.4182
17383TIP3    H273641   3.548   4.171  12.653 -1.6487 -0.2342  0.5348
17384TIP3   OH273642   6.616   0.146   1.538  0.2137 -0.1461  0.3832
17384TIP3    H173643   6.533   0.171   1.497 -0.0352  0.6085  1.3006
17384TIP3    H273644   6.653   0.229   1.568  1.4199 -0.4470 -0.2189
17385TIP3   OH273645   4.828   6.368   1.211 -0.5244 -0.2257 -0.1380
17385TIP3    H173646   4.812   6.392   1.303 -0.5662  0.2631 -0.2729
17385TIP3    H273647   4.856   6.450   1.170 -0.8586 -0.3702 -0.6473
17386TIP3   OH273648   2.463   3.778  16.641  0.0976  0.2919  0.2686
17386TIP3    H173649   2.379   3.731  16.640  0.3691 -0.2915  1.9004
17386TIP3    H273650   2.516   3.735  16.574 -0.4533 -0.2005  0.1440
17387TIP3   OH273651   3.264   6.078  17.081 -0.2086  0.1085  0.6482
17387TIP3    H173652   3.192   6.137  17.104 -0.0304  0.5530  0.0848
17387TIP3    H273653   3.248   5.999  17.132 -1.3810  0.0098  0.1499
17388TIP3   OH273654   0.161   0.650  16.307  0.4332  0.0076 -0.6348
17388TIP3    H173655   0.074   0.613  16.290  0.3021  0.4303 -0.8966
17388TIP3    H273656   0.189   0.685  16.222  1.7929 -2.0501 -1.0998
17389TIP3   OH273657   0.498   4.474   4.692 -0.3531  0.2038  0.6993
17389TIP3    H173658   0.554   4.412   4.646 -0.8000  1.1703 -1.2674
17389TIP3    H273659   0.439   4.419   4.743 -0.5462 -1.0071 -0.7407
17390TIP3   OH273660   4.932   3.410  10.337  0.3175 -0.3648 -0.3621
17390TIP3    H173661   4.951   3.317  10.350  1.3488  0.0741  1.8734
17390TIP3    H273662   5.018   3.450  10.325 -0.1443  0.2861 -1.6880
17391TIP3   OH273663   4.970   4.903  16.987  0.0864 -0.6133  0.9014
17391TIP3    H173664   4.938   4.836  17.047 -0.5457  0.6061  1.9671
17391TIP3    H273665   4.892   4.954  16.965  0.4397 -0.6224 -0.4364
17392TIP3   OH273666   3.316   4.221   6.985 -0.0863 -0.5193 -0.2598
17392TIP3    H173667   3.386   4.258   6.930 -1.5731  0.3569 -1.6336
17392TIP3    H273668   3.321   4.127   6.970  0.3694 -0.4080 -0.8568
17393TIP3   OH273669   1.490   0.804  11.463 -0.0313  0.1544 -0.5711
17393TIP3    H173670   1.487   0.730  11.402  1.1510 -0.5852  0.2175
17393TIP3    H273671   1.557   0.862  11.427 -0.9057  0.8306 -1.1486
17394TIP3   OH273672   4.104   3.188  12.766  0.0468 -0.2984 -0.2484
17394TIP3    H173673   4.181   3.176  12.711 -1.2181 -2.3852 -1.7242
17394TIP3    H273674   4.041   3.233  12.709 -0.1540  0.5380  0.6192
17395TIP3   OH273675   1.406   6.172   3.833 -0.4032  0.9026  0.1028
17395TIP3    H173676   1.419   6.178   3.739  2.6850 -1.1555  0.2638
17395TIP3    H273677   1.469   6.235   3.870 -1.0999  1.2023  0.8065
17396TIP3   OH273678   4.527   5.285  16.068 -0.6741  0.1144  0.0934
17396TIP3    H173679   4.559   5.351  16.006 -0.6630  0.3448  0.3456
17396TIP3    H273680   4.432   5.300  16.071 -1.1592 -1.7964 -2.1287
17397TIP3   OH273681   2.208   6.340   3.874 -0.0241 -0.5508  0.1087
17397TIP3    H173682   2.235   6.249   3.861  0.6302 -0.0720 -2.2167
17397TIP3    H273683   2.120   6.343   3.837 -0.1793 -0.2875  0.4934
17398TIP3   OH273684   0.676   3.308  14.729  0.6702 -0.0811  0.0126
17398TIP3    H173685   0.584   3.318  14.705  0.5948  0.0842  0.3590
17398TIP3    H273686   0.724   3.360  14.665  0.4242  0.9033  0.5948
17399TIP3   OH273687   6.123   0.590   0.320 -0.2963  0.0536  0.1247
17399TIP3    H173688   6.192   0.654   0.339 -0.6679  0.5142 -0.0594
17399TIP3    H273689   6.047   0.643   0.296 -0.1704 -0.4793 -1.5746
17400TIP3   OH273690   3.338   3.894  14.947  0.7319 -0.0855 -0.2468
17400TIP3    H173691   3.312   3.859  14.862  1.2745 -0.6606 -0.1809
17400TIP3    H273692   3.261   3.881  15.002  0.9275 -1.2023 -0.2203
17401TIP3   OH273693   0.527   6.636  14.428  0.5829 -0.2828 -0.3404
17401TIP3    H173694   0.510   6.638  14.334  1.3960  0.7311 -0.4887
17401TIP3    H273695   0.590   6.564  14.440  3.1273  1.6598 -1.1075
17402TIP3   OH273696   6.683   4.302   0.224  0.3291  0.4581  0.4468
17402TIP3    H173697   6.699   4.263   0.138 -0.7406  0.1721  0.3585
17402TIP3    H273698   6.605   4.257   0.256  1.7106 -0.6888  2.3523
17403TIP3   OH273699   3.419   6.606   1.193  0.4510  0.2719 -0.5429
17403TIP3    H173700   3.418   6.679   1.132  0.9209  0.4279 -0.3682
17403TIP3    H273701   3.355   6.630   1.260  0.6243  0.5352 -0.4705
17404TIP3   OH273702   4.128   2.333  16.987 -0.1501 -0.1795 -0.2388
17404TIP3    H173703   4.104   2.336  16.894  0.8582 -0.2487 -0.5108
17404TIP3    H273704   4.044   2.338  17.033 -0.6032  1.0866 -1.1241
17405TIP3   OH273705   5.638   3.286   3.539 -0.7439  0.1552  0.1503
17405TIP3    H173706   5.598   3.366   3.503  2.1473  1.0551 -1.3325
17405TIP3    H273707   5.662   3.235   3.462  0.0885 -0.7734  1.0159
17406TIP3   OH273708   3.470   0.570   2.474 -0.7205 -0.0081 -0.4599
17406TIP3    H173709   3.389   0.593   2.519  0.0549 -2.2172  2.3580
17406TIP3    H273710   3.540   0.604   2.530  0.3016 -0.4513 -1.4185
17407TIP3   OH273711   4.918   3.668  13.992 -0.0179  0.1424  0.4487
17407TIP3    H173712   4.840   3.684  14.046 -0.8533 -0.4142 -0.5765
17407TIP3    H273713   4.886   3.619  13.917  1.3017  0.0704 -0.0863
17408TIP3   OH273714   3.731   0.160  13.542 -0.3456 -0.3266 -0.5318
17408TIP3    H173715   3.757   0.138  13.453  0.8538 -1.2452  0.0069
17408TIP3    H273716   3.796   0.115  13.597 -1.2947 -0.1134  0.8074
17409TIP3   OH273717   6.756   5.136   3.506  0.2354  0.5897 -0.5832
17409TIP3    H173718   6.726   5.180   3.427  0.4192  1.1014 -0.3739
17409TIP3    H273719   6.763   5.206   3.571  1.6573  0.4498 -0.5596
17410TIP3   OH273720   0.210   0.948  17.085 -0.4825 -0.7125  0.0379
17410TIP3    H173721   0.140   1.013  17.075  1.2433  1.4336  1.1778
17410TIP3    H273722   0.227   0.944  17.179  3.9020  2.3529 -0.3384
17411TIP3   OH273723   6.170   6.221  11.514  0.1398  0.1157 -0.0159
17411TIP3    H173724   6.141   6.173  11.592 -1.2792  1.6368  0.4404
17411TIP3    H273725   6.124   6.178  11.442 -4.0826  2.7720  0.7274
17412TIP3   OH273726   3.929   1.479   0.363 -0.3086  0.2115  0.2482
17412TIP3    H173727   3.870   1.503   0.435 -1.9125  0.1738 -1.0058
17412TIP3    H273728   3.871   1.456   0.291  1.1717  3.1619 -2.1083
17413TIP3   OH273729   5.592   0.374  14.381 -0.0080  0.0147  0.2383
17413TIP3    H173730   5.557   0.289  14.354  1.3031 -0.5740  0.3329
17413TIP3    H273731   5.633   0.410  14.303 -0.2778  0.4211  0.2799
17414TIP3   OH273732   3.964   6.229   5.274  0.0051  0.1874  0.3359
17414TIP3    H173733   4.005   6.163   5.218 -1.5954  0.3158 -1.0785
17414TIP3    H273734   3.871   6.225   5.252 -0.4133  1.5418  1.6726
17415TIP3   OH273735   1.729   2.821   1.545  0.1385  0.1277 -0.0935
17415TIP3    H173736   1.683   2.897   1.508  0.4012  1.1665  1.6006
17415TIP3    H273737   1.791   2.795   1.477 -1.3042  0.1692 -1.4933
17416TIP3   OH273738   2.594   3.912   1.146  0.1076  0.2349  0.2321
17416TIP3    H173739   2.501   3.895   1.160 -0.1124  1.0918 -0.1393
17416TIP3    H273740   2.637   3.880   1.226 -0.4485 -0.5702  0.2180
17417TIP3   OH273741   0.297   1.922   2.889 -0.4588  0.5130  0.2419
17417TIP3    H173742   0.363   1.896   2.953 -0.4645 -0.8019 -0.2532
17417TIP3    H273743   0.285   2.016   2.903  0.4857  0.4944  1.2790
17418TIP3   OH273744   4.392   0.027  11.504 -0.2612 -0.2345 -0.6507
17418TIP3    H173745   4.395   0.015  11.599 -0.1482  0.4566 -0.5588
17418TIP3    H273746   4.475  -0.007  11.473 -0.7394 -1.4670 -0.6334
17419TIP3   OH273747   5.834   2.157   5.827  0.2074  0.0721  0.0106
17419TIP3    H173748   5.765   2.136   5.889  1.1965 -0.4889  0.9565
17419TIP3    H273749   5.880   2.231   5.866  1.6769 -1.1402  0.6630
17420TIP3   OH273750   3.618   3.986   0.341 -0.5926 -0.0590  0.0261
17420TIP3    H173751   3.547   3.968   0.403 -1.7236  1.2384 -0.8582
17420TIP3    H273752   3.653   4.070   0.370 -1.0642  0.5081 -1.0102
17421TIP3   OH273753   6.114   1.527  15.115 -0.0997 -0.4228  0.9284
17421TIP3    H173754   6.190   1.490  15.071  0.3274  1.1772  0.2581
17421TIP3    H273755   6.102   1.613  15.076 -2.7124 -0.8892  0.4768
17422TIP3   OH273756   4.012   5.290  16.257 -0.0636 -0.0057 -0.0277
17422TIP3    H173757   4.102   5.274  16.285 -0.4017  1.1306  1.8022
17422TIP3    H273758   4.011   5.380  16.225 -0.3595 -0.3292 -0.9928
17423TIP3   OH273759   0.610   2.439  14.580  0.3931 -0.2240  1.0272
17423TIP3    H173760   0.648   2.505  14.638  1.4098 -0.4374  0.6323
17423TIP3    H273761   0.566   2.489  14.511  1.3909  0.0594  0.5800
17424TIP3   OH273762   4.152   4.609  15.032 -0.6956  0.7089  0.3886
17424TIP3    H173763   4.180   4.603  14.941 -3.2448  0.4507 -0.4547
17424TIP3    H273764   4.141   4.518  15.060  1.5032  0.7121  1.5236
17425TIP3   OH273765   0.092   1.576  15.004  0.5168  0.0743  0.0034
17425TIP3    H173766   0.048   1.641  15.059 -0.8644 -1.3088  0.6337
17425TIP3    H273767   0.123   1.510  15.067 -1.6871 -1.8914 -0.8052
17426TIP3   OH273768   6.390   3.858   2.629  0.9498  0.0893  0.5770
17426TIP3    H173769   6.415   3.876   2.538  3.5354  0.1601  1.2135
17426TIP3    H273770   6.379   3.763   2.632 -1.8498  0.2984 -0.3410
17427TIP3   OH273771   1.759   2.715  13.705  0.2365  0.3485 -0.2118
17427TIP3    H173772   1.777   2.694  13.613 -0.2447  0.0548 -0.2387
17427TIP3    H273773   1.844   2.708  13.748  0.4901  0.6205 -0.6619
17428TIP3   OH273774   2.082   6.181  11.643 -0.1027  0.4730 -0.2457
17428TIP3    H173775   2.028   6.107  11.614 -1.5690  1.8088 -1.1168
17428TIP3    H273776   2.164   6.141  11.673  0.1245 -1.3152 -2.9299
17429TIP3   OH273777   2.452   5.274   5.387 -0.4077  0.0794 -0.2024
17429TIP3    H173778   2.502   5.227   5.322  2.9101  0.2491  1.9962
17429TIP3    H273779   2.400   5.207   5.431 -1.9168 -0.1719 -2.2255
17430TIP3   OH273780   6.733   5.013   0.961 -0.1167  0.8470  0.4438
17430TIP3    H173781   6.787   4.975   0.892  0.7797  2.2224  0.3434
17430TIP3    H273782   6.732   4.946   1.030 -2.0948 -1.0949 -1.3469
17431TIP3   OH273783   2.590   5.915  15.287 -0.1684  0.4001 -0.2650
17431TIP3    H173784   2.577   5.900  15.381  0.1172 -0.4058 -0.3444
17431TIP3    H273785   2.581   5.828  15.248 -1.5208  0.8854 -1.1380
17432TIP3   OH273786   4.129   5.728   3.910 -0.1820  0.0341 -0.0380
17432TIP3    H173787   4.205   5.776   3.942 -0.8467 -0.3068  2.2309
17432TIP3    H273788   4.065   5.796   3.888  1.1210  0.3927 -3.2158
17433TIP3   OH273789   6.062   6.514  14.450  0.3071 -0.3609  0.0157
17433TIP3    H173790   6.053   6.527  14.544 -0.1622  1.1446 -0.2145
17433TIP3    H273791   5.992   6.452  14.427  0.2932 -0.5698  0.6226
17434TIP3   OH273792   1.139   2.873  12.495  0.0256  0.5755  0.0978
17434TIP3    H173793   1.071   2.935  12.466 -2.4564 -0.5857  2.9022
17434TIP3    H273794   1.189   2.922  12.560  1.2438  1.0668 -1.1572
17435TIP3   OH273795   3.787   4.698  13.031 -0.1200 -0.5905 -0.1251
17435TIP3    H173796   3.869   4.747  13.023 -0.4997  0.0326 -0.2550
17435TIP3    H273797   3.718   4.763  13.016 -0.6233 -1.2481 -0.7234
17436TIP3   OH273798   5.709   0.216   1.885  0.6297 -0.6671  0.2017
17436TIP3    H173799   5.658   0.215   1.804 -0.2783  0.1610  0.7239
17436TIP3    H273800   5.705   0.308   1.914  3.2065 -0.3605 -0.1829
17437TIP3   OH273801   6.117   4.687  13.925  0.6383  0.2909  0.3285
17437TIP3    H173802   6.121   4.699  13.831 -2.3651  0.9728  0.1833
17437TIP3    H273803   6.056   4.754  13.955 -0.9508 -1.8685  2.3040
17438TIP3   OH273804   1.398   3.397   1.072  0.5949  0.2442 -0.1623
17438TIP3    H173805   1.324   3.337   1.083  2.2607 -2.0271 -0.5575
17438TIP3    H273806   1.475   3.340   1.072  2.2237  2.2695 -1.8672
17439TIP3   OH273807   4.386   2.405   2.335 -0.2081 -0.0314  0.0671
17439TIP3    H173808   4.354   2.351   2.407 -0.3237 -1.1743 -0.7947
17439TIP3    H273809   4.334   2.485   2.339 -1.1431 -0.6432  0.4460
17440TIP3   OH273810   5.216   3.880   0.795  0.0224  0.4408 -0.6068
17440TIP3    H173811   5.231   3.822   0.720  0.2170  1.3730 -1.2979
17440TIP3    H273812   5.133   3.923   0.775  0.5855  1.4578 -0.7895
17441TIP3   OH273813   5.309   1.666  16.914 -0.0156 -0.3242  0.4791
17441TIP3    H173814   5.244   1.737  16.909  0.2410 -0.0973  0.3703
17441TIP3    H273815   5.367   1.691  16.985 -0.0897 -0.5685  0.6281
17442TIP3   OH273816   0.398   4.590  14.746  0.0145 -0.0505 -0.2508
17442TIP3    H173817   0.438   4.517  14.698  1.4472  0.5026  0.0291
17442TIP3    H273818   0.473   4.638  14.781 -0.9160  1.3961 -0.1938
17443TIP3   OH273819   2.374   0.367  13.153  0.3560 -0.5755 -0.1011
17443TIP3    H173820   2.345   0.304  13.218  0.1367  1.0140  1.4121
17443TIP3    H273821   2.427   0.430  13.202 -0.3515  1.0489 -1.3020
17444TIP3   OH273822   3.440   3.196   1.512 -0.2199 -0.3482  0.3281
17444TIP3    H173823   3.464   3.127   1.450  1.1055 -0.3452  0.8130
17444TIP3    H273824   3.390   3.151   1.580  0.7216 -0.8682  0.6928
17445TIP3   OH273825   3.517   3.318   3.441  0.1812 -0.2336 -0.1706
17445TIP3    H173826   3.556   3.273   3.367  0.5365  1.3128 -0.9637
17445TIP3    H273827   3.423   3.304   3.431  0.2397 -0.1620 -0.8341
17446TIP3   OH273828   0.572   4.719  14.916  0.4569  0.1161  0.6407
17446TIP3    H173829   0.609   4.666  14.987 -0.6707 -1.6039 -0.0088
17446TIP3    H273830   0.642   4.722  14.850 -0.2545 -2.7534 -0.3906
17447TIP3   OH273831   2.050   6.226   1.563 -0.3312  0.2810 -0.8037
17447TIP3    H173832   1.983   6.197   1.624  0.1026 -0.1795 -0.5392
17447TIP3    H273833   2.111   6.152   1.557  0.8307  1.1388 -0.0597
17448TIP3   OH273834   3.754   4.327  11.362 -0.4137  0.5024 -0.3041
17448TIP3    H173835   3.664   4.297  11.365 -0.6645  1.2878  1.5574
17448TIP3    H273836   3.751   4.409  11.313 -0.5383  0.0250 -1.0988
17449TIP3   OH273837   2.071   6.202  16.423 -0.3828  0.5612  0.1905
17449TIP3    H173838   2.055   6.192  16.517 -0.2725  2.0627  0.3877
17449TIP3    H273839   1.999   6.154  16.381  1.0136 -2.4811  0.9637
17450TIP3   OH273840   6.070   0.426   4.456  0.1940  0.1373 -0.6208
17450TIP3    H173841   5.985   0.417   4.412  0.0311  1.6811 -0.6657
17450TIP3    H273842   6.066   0.512   4.499  2.0544  0.6448 -1.3686
17451TIP3   OH273843   0.696   1.941  14.558  0.1562  0.1553  0.6323
17451TIP3    H173844   0.759   1.999  14.600  0.3330  0.3879  0.0469
17451TIP3    H273845   0.748   1.887  14.499 -0.4133  1.8722 -1.5826
17452TIP3   OH273846   1.277   3.345   6.072 -0.1330  0.3263 -0.0615
17452TIP3    H173847   1.298   3.358   6.165 -1.2851 -2.0661  0.6243
17452TIP3    H273848   1.344   3.285   6.040  0.2926  1.1823 -0.8286
17453TIP3   OH273849   2.641   3.999   3.555 -0.1685 -0.4882 -0.1730
17453TIP3    H173850   2.713   4.053   3.587  0.0087 -1.0726  0.4330
17453TIP3    H273851   2.666   3.910   3.577 -0.2895 -0.8716 -1.4804
17454TIP3   OH273852   3.242   1.137   1.411 -0.0507  0.2771  0.6226
17454TIP3    H173853   3.313   1.117   1.471 -0.5609  0.0438  1.1555
17454TIP3    H273854   3.162   1.121   1.461 -0.5160  2.7018  0.7847
17455TIP3   OH273855   2.770   5.060   5.784 -0.0495 -0.6008  0.5224
17455TIP3    H173856   2.830   5.117   5.832  0.8392 -1.4028  0.3864
17455TIP3    H273857   2.710   5.026   5.850 -0.2569  0.0565  0.6843
17456TIP3   OH273858   2.611   0.602  15.260 -0.1478 -0.3373  0.1154
17456TIP3    H173859   2.631   0.675  15.202 -0.9042 -1.4977 -1.6816
17456TIP3    H273860   2.561   0.641  15.332  0.3986  1.0574 -0.2381
17457TIP3   OH273861   1.768   1.255  16.780  0.4059  0.1478 -0.1102
17457TIP3    H173862   1.835   1.269  16.847  0.7574  0.9927 -0.6320
17457TIP3    H273863   1.685   1.272  16.826  0.4805 -1.3502  0.6569
17458TIP3   OH273864   1.540   1.584  15.803  0.1495  0.2065  0.6299
17458TIP3    H173865   1.582   1.636  15.872 -2.0432  0.0357  2.1929
17458TIP3    H273866   1.490   1.517  15.850 -0.9387 -0.3235 -1.1716
17459TIP3   OH273867   4.570   4.375  11.256  0.2689  0.2826 -0.7602
17459TIP3    H173868   4.627   4.452  11.255 -0.4580  0.8307 -0.8559
17459TIP3    H273869   4.500   4.396  11.194 -1.4305  0.7234  1.1606
17460TIP3   OH273870   5.628   3.337  12.562 -0.2780 -0.5158  0.1578
17460TIP3    H173871   5.570   3.336  12.486 -0.1646 -0.1593  0.0659
17460TIP3    H273872   5.570   3.315  12.636 -0.4760 -0.4255  0.0323
17461TIP3   OH273873   5.150   6.741   1.792  0.1054 -0.4221  0.4458
17461TIP3    H173874   5.104   6.798   1.730  0.2707  0.2107  0.8947
17461TIP3    H273875   5.081   6.686   1.829 -0.1090 -0.2949  0.2396
17462TIP3   OH273876   3.417   3.270  11.494 -0.0506 -0.5204 -0.0188
17462TIP3    H173877   3.404   3.322  11.573  0.1918 -1.9341  1.0019
17462TIP3    H273878   3.512   3.272  11.480  0.0086 -1.0328  0.2844
17463TIP3   OH273879   0.561   5.404   1.295 -0.6405  0.3721  0.6297
17463TIP3    H173880   0.540   5.339   1.227 -1.5296 -0.6660  1.8444
17463TIP3    H273881   0.634   5.366   1.343  0.9535  1.7672 -0.5861
17464TIP3   OH273882   4.005   3.552   3.397 -0.4586 -0.3106 -0.1848
17464TIP3    H173883   3.983   3.570   3.306 -2.1817 -0.3551  0.1890
17464TIP3    H273884   3.921   3.539   3.440  0.3759 -1.6472  1.1473
17465TIP3   OH273885   3.931   0.766   3.374  0.3326  0.1346  0.0954
17465TIP3    H173886   4.025   0.752   3.372  0.2132 -0.8350  0.5629
17465TIP3    H273887   3.909   0.798   3.286  1.0787  0.2915 -0.0365
17466TIP3   OH273888   5.811   5.071   1.597 -0.1379  0.2594 -0.3248
17466TIP3    H173889   5.759   5.018   1.658  1.0690 -2.5265 -1.5085
17466TIP3    H273890   5.746   5.107   1.536 -1.1658  1.5786  1.4681
17467TIP3   OH273891   6.060   5.552   1.636  0.3807  0.3583  0.3427
17467TIP3    H173892   5.969   5.528   1.616  0.0806  1.8658 -0.2253
17467TIP3    H273893   6.069   5.641   1.601  1.9727  0.3635  0.7251
17468TIP3   OH273894   4.748   3.619  17.005 -0.2489 -0.5264  0.0215
17468TIP3    H173895   4.838   3.642  17.026  0.0342 -1.1238 -0.5068
17468TIP3    H273896   4.742   3.525  17.023 -0.8196 -0.4598  0.2202
17469TIP3   OH273897   4.915   0.432  12.949  0.1171 -0.5527 -0.3154
17469TIP3    H173898   4.835   0.484  12.939  0.5525  0.0402 -0.8050
17469TIP3    H273899   4.985   0.491  12.922  1.1005  0.0851  3.2375
17470TIP3   OH273900   0.482   4.112   2.590 -0.3385 -0.0068 -0.0199
17470TIP3    H173901   0.536   4.088   2.665 -1.0289 -0.6631  0.2853
17470TIP3    H273902   0.442   4.030   2.562  2.7366 -0.5818 -3.4946
17471TIP3   OH273903   1.590   4.856  15.808 -0.0621  0.0607 -0.0854
17471TIP3    H173904   1.519   4.851  15.871  1.1188 -1.7702  1.1830
17471TIP3    H273905   1.643   4.778  15.824  2.0310  1.1424 -1.2237
17472TIP3   OH273906   5.845   0.595   3.971 -0.3051  0.1553  0.1403
17472TIP3    H173907   5.903   0.541   4.025 -2.3894 -0.4930  1.8698
17472TIP3    H273908   5.903   0.658   3.929  2.0370 -2.2913 -0.6030
17473TIP3   OH273909   4.992   2.232   1.753  0.2357  0.0223  0.0437
17473TIP3    H173910   5.009   2.284   1.832 -2.3567  1.6919 -0.4000
17473TIP3    H273911   5.060   2.261   1.692  0.6025  0.7574  0.7636
17474TIP3   OH273912   2.739   5.599   5.690 -0.0065  0.5850  0.2165
17474TIP3    H173913   2.827   5.577   5.661  0.4086  0.4093  1.5201
17474TIP3    H273914   2.686   5.524   5.667  0.1535  0.7462 -0.6948
17475TIP3   OH273915   3.746   0.877   2.305 -0.2872  0.4515 -0.8350
17475TIP3    H173916   3.841   0.866   2.301 -0.4147 -1.3570 -0.2964
17475TIP3    H273917   3.712   0.795   2.270 -1.5679 -0.4526  2.2047
17476TIP3   OH273918   4.280   0.226   0.323 -0.0260  0.7088  0.1995
17476TIP3    H173919   4.293   0.135   0.297 -0.0099  0.4376  1.0980
17476TIP3    H273920   4.190   0.229   0.356  0.4330  0.6546  1.5306
17477TIP3   OH273921   5.016   4.819   2.653 -0.0244 -0.2952  0.4974
17477TIP3    H173922   5.096   4.775   2.684 -0.3955 -1.7971 -0.5408
17477TIP3    H273923   4.995   4.774   2.571 -0.4218  1.9366 -0.6742
17478TIP3   OH273924   1.808   5.186  14.417 -0.0599  0.0698  0.0530
17478TIP3    H173925   1.816   5.091  14.426  1.7989  0.2243  0.5305
17478TIP3    H273926   1.755   5.213  14.492  1.6000 -0.3525  1.4290
17479TIP3   OH273927   4.435   2.156  15.891  0.2238  0.6152 -0.1667
17479TIP3    H173928   4.402   2.070  15.865 -0.0618  0.4427  0.7376
17479TIP3    H273929   4.514   2.169  15.838  0.1549 -0.1075 -0.4567
17480TIP3   OH273930   2.411   0.337   4.211  0.5089  0.0536 -0.2410
17480TIP3    H173931   2.475   0.401   4.243  0.7788 -0.2680 -0.1253
17480TIP3    H273932   2.463   0.275   4.160  0.3202 -0.3107  0.0038
17481TIP3   OH273933   1.058   2.916  11.365  0.0146  0.9213  0.2975
17481TIP3    H173934   1.108   2.943  11.288  1.3606 -1.8411  0.0731
17481TIP3    H273935   0.976   2.966  11.359  0.7774  2.0516 -1.9588
17482TIP3   OH273936   0.632   4.062  14.124 -0.2026 -0.0054  0.4353
17482TIP3    H173937   0.611   4.001  14.053  0.0158 -0.2649  0.5897
17482TIP3    H273938   0.547   4.084  14.163 -0.1585 -1.7247  1.6110
17483TIP3   OH273939   2.115   0.752   0.610  0.0521 -0.2811  0.3735
17483TIP3    H173940   2.129   0.801   0.691  0.1223  2.7018 -1.3023
17483TIP3    H273941   2.025   0.775   0.584  0.1525 -0.9163 -0.5631
17484TIP3   OH273942   6.410   2.008   0.939 -0.0649 -0.3899 -0.2373
17484TIP3    H173943   6.328   2.044   0.905  0.3695 -1.1066 -2.2054
17484TIP3    H273944   6.404   1.914   0.920  0.8779 -0.5754  0.3285
17485TIP3   OH273945   0.705   4.332   3.594 -0.2264 -0.4867  0.7888
17485TIP3    H173946   0.758   4.412   3.590 -0.4848  0.0129  4.3543
17485TIP3    H273947   0.768   4.262   3.608 -0.0536 -0.9862 -1.8166
17486TIP3   OH273948   2.351   3.623  17.026  0.7172 -0.1654 -0.0969
17486TIP3    H173949   2.380   3.545  16.980 -0.3858 -0.3237 -0.5501
17486TIP3    H273950   2.290   3.591  17.092  1.0991  0.2129  0.4454
17487TIP3   OH273951   5.363   4.899  17.183 -0.0953 -0.0846  0.4397
17487TIP3    H173952   5.289   4.945  17.223 -1.1200 -1.0996 -0.2575
17487TIP3    H273953   5.357   4.919  17.090  0.0455 -0.7737  0.2733
17488TIP3   OH273954   3.667   2.503  16.869  0.0698  0.1449  0.4216
17488TIP3    H173955   3.702   2.419  16.839  0.2460  0.0332  0.9444
17488TIP3    H273956   3.579   2.507  16.831  0.2206 -0.0766  0.0380
17489TIP3   OH273957   4.770   1.479  11.593 -0.3700 -0.4331  0.0417
17489TIP3    H173958   4.759   1.386  11.575  2.7773 -0.8648 -0.1926
17489TIP3    H273959   4.776   1.485  11.688  1.9537 -0.9195 -0.0169
17490TIP3   OH273960   3.097   3.248  11.994  0.3070  0.3943  0.1768
17490TIP3    H173961   3.018   3.254  12.048  0.3107 -0.9481  0.3634
17490TIP3    H273962   3.069   3.196  11.918  1.3926 -1.5454  1.0387
17491TIP3   OH273963   5.586   6.800  13.816  0.0898  0.1540  0.5748
17491TIP3    H173964   5.587   6.760  13.903  1.1888 -0.1511  0.4488
17491TIP3    H273965   5.544   6.735  13.760  0.4212 -0.1517  0.6746
17492TIP3   OH273966   6.364   3.737  15.426 -0.4552  0.1559 -0.1417
17492TIP3    H173967   6.284   3.692  15.455 -0.7720  2.4124  3.0914
17492TIP3    H273968   6.426   3.725  15.498  0.4777  2.2070 -0.5219
17493TIP3   OH273969   0.301   6.546  11.889  0.1113  0.4739  0.0074
17493TIP3    H173970   0.267   6.624  11.845 -1.1997 -0.9699 -1.6649
17493TIP3    H273971   0.331   6.489  11.818  0.7851 -0.6754  1.1639
17494TIP3   OH273972   5.698   2.478  12.158 -0.4584 -0.1599  0.1847
17494TIP3    H173973   5.607   2.491  12.130 -0.3677 -2.6434 -1.6825
17494TIP3    H273974   5.733   2.566  12.168 -2.8012  0.8677  0.0034
17495TIP3   OH273975   4.114   3.592  13.266  0.3720  0.1904  0.0132
17495TIP3    H173976   4.103   3.576  13.359  0.5299  2.4447  0.4808
17495TIP3    H273977   4.094   3.508  13.224  0.2731 -0.8521  2.0491
17496TIP3   OH273978   2.395   5.152   2.976  0.1707  0.3103 -0.2684
17496TIP3    H173979   2.389   5.066   3.017  3.1293 -0.1027 -0.5061
17496TIP3    H273980   2.315   5.159   2.923 -0.2417 -2.1680 -0.0880
17497TIP3   OH273981   3.817   6.547   5.183  0.0326 -0.2349  0.0905
17497TIP3    H173982   3.773   6.508   5.107 -3.7173  2.9173  0.2855
17497TIP3    H273983   3.758   6.530   5.256  0.9443  1.1764  1.2066
17498TIP3   OH273984   5.546   0.445   0.698 -0.0816  0.1957  0.7469
17498TIP3    H173985   5.482   0.445   0.770  0.1392  1.2804  0.9632
17498TIP3    H273986   5.505   0.501   0.631 -0.2450 -0.7326  0.0589
17499TIP3   OH273987   0.397   3.657  11.432  0.0840  0.0735 -0.6311
17499TIP3    H173988   0.330   3.675  11.366  1.2467 -2.2958 -2.6393
17499TIP3    H273989   0.362   3.582  11.481 -0.4631  1.3880  1.0730
17500TIP3   OH273990   4.366   5.712   2.533  0.1619 -0.3186 -0.6202
17500TIP3    H173991   4.445   5.677   2.575  0.2104  0.4993 -0.0047
17500TIP3    H273992   4.387   5.803   2.513 -1.0629  0.3272  0.7979
17501TIP3   OH273993   1.802   1.015   5.859 -0.0352  0.6662  0.0947
17501TIP3    H173994   1.865   1.074   5.900 -0.1822  0.4685  0.6221
17501TIP3    H273995   1.717   1.043   5.895 -0.0159 -0.3990  1.0083
17502TIP3   OH273996   5.941   3.939  11.056 -0.3989  0.0282 -0.0559
17502TIP3    H173997   5.919   3.878  10.985 -0.7987 -1.7807  1.5397
17502TIP3    H273998   6.027   3.973  11.032 -0.1049 -1.2654 -0.9638
17503TIP3   OH273999   5.060   5.287  14.116  0.6777 -0.4969 -0.3563
17503TIP3    H174000   5.071   5.364  14.062  1.1082 -0.4854 -0.2515
17503TIP3    H274001   4.974   5.298  14.157  0.3793 -0.4734 -0.9741
17504TIP3   OH274002   6.380   5.396  16.510 -0.1632  0.2576 -0.0332
17504TIP3    H174003   6.451   5.457  16.530  2.2058 -3.1176  3.0427
17504TIP3    H274004   6.395   5.369  16.419  2.0546  0.2141  0.3041
17505TIP3   OH274005   6.533   3.180   2.832 -0.2318 -0.3176 -0.0779
17505TIP3    H174006   6.500   3.165   2.920 -0.6099  0.2217 -0.1203
17505TIP3    H274007   6.562   3.272   2.832  0.0618 -0.4076 -0.4169
17506TIP3   OH274008   0.727   5.619  15.403 -0.1677  0.3367 -0.1788
17506TIP3    H174009   0.756   5.640  15.314 -0.3937 -0.0896 -0.3539
17506TIP3    H274010   0.768   5.686  15.458  3.8368 -2.0361  0.0508
17507TIP3   OH274011   5.575   1.570   0.810  0.3968  0.1292  0.0669
17507TIP3    H174012   5.506   1.573   0.744  0.2427  0.1426  0.2278
17507TIP3    H274013   5.577   1.658   0.847  0.6292  0.1814 -0.0683
17508TIP3   OH274014   0.809   3.936   2.756  0.5792  0.2612  0.2005
17508TIP3    H174015   0.735   3.994   2.771  1.2329  1.2106 -0.1974
17508TIP3    H274016   0.883   3.994   2.739  1.5802 -0.6525  1.2716
17509TIP3   OH274017   1.620   4.944  16.380 -0.2663  0.4471 -0.3672
17509TIP3    H174018   1.566   4.870  16.351 -0.0816  0.4051 -0.6106
17509TIP3    H274019   1.591   5.017  16.325  0.7187  0.1494 -1.3155
17510TIP3   OH274020   4.151   6.184  16.251 -0.4483  0.1167 -0.2021
17510TIP3    H174021   4.140   6.091  16.271 -0.8656  0.5064  1.6235
17510TIP3    H274022   4.068   6.224  16.278 -0.2098  1.0364 -0.7995
17511TIP3   OH274023   5.362   4.360   4.627  0.4648  0.0666  0.3956
17511TIP3    H174024   5.330   4.446   4.599  2.2808 -0.0419 -2.4203
17511TIP3    H274025   5.283   4.306   4.633 -0.5072  1.3916  0.1127
17512TIP3   OH274026   0.676   2.304   0.877  0.1855  0.0592  0.0065
17512TIP3    H174027   0.730   2.342   0.809  0.2282  0.1402  0.0848
17512TIP3    H274028   0.646   2.220   0.841  0.5686 -0.1021  0.0617
17513TIP3   OH274029   6.755   2.671   1.319  0.6326  0.2674  0.5007
17513TIP3    H174030   6.833   2.670   1.374  1.6727  2.8417 -0.8107
17513TIP3    H274031   6.694   2.730   1.364 -0.6849 -1.7130  1.5124
17514TIP3   OH274032   3.678   0.954  15.020 -0.0620 -0.7269  0.3750
17514TIP3    H174033   3.716   0.905  15.092 -0.9511 -2.6647 -0.3938
17514TIP3    H274034   3.661   1.041  15.056  0.2548 -1.3992  2.2417
17515TIP3   OH274035   1.540   1.738  14.311  0.0019  0.2103 -0.1374
17515TIP3    H174036   1.566   1.721  14.220 -1.0445  0.4879 -0.5030
17515TIP3    H274037   1.600   1.806  14.341  0.7083 -0.2643 -0.4280
17516TIP3   OH274038   4.476   0.525   0.718 -0.3923  0.1238 -0.3357
17516TIP3    H174039   4.400   0.543   0.662 -0.4605 -0.5522 -0.4683
17516TIP3    H274040   4.512   0.443   0.684 -0.5973 -0.4491  0.7713
17517TIP3   OH274041   4.388   0.396   2.014 -0.1370  0.4225  0.3792
17517TIP3    H174042   4.303   0.437   1.996 -0.8205 -0.8065  0.6811
17517TIP3    H274043   4.452   0.456   1.977 -1.2625 -0.0798 -2.7084
17518TIP3   OH274044   5.825   0.188  11.497  0.6804 -0.8292  0.0923
17518TIP3    H174045   5.768   0.162  11.570  0.5837 -0.7353  0.0507
17518TIP3    H274046   5.898   0.127  11.501  1.2944 -0.0599  1.0166
17519TIP3   OH274047   5.747   5.905  15.439 -0.4690 -0.2716 -0.6392
17519TIP3    H174048   5.654   5.883  15.446 -0.5977  0.2663 -0.5571
17519TIP3    H274049   5.766   5.951  15.521 -0.1846 -0.1829 -0.7559
17520TIP3   OH274050   0.377   6.370   5.668 -0.3161  0.3027 -0.0405
17520TIP3    H174051   0.367   6.396   5.759  1.5936 -0.7259  0.5115
17520TIP3    H274052   0.450   6.423   5.636 -0.6549  0.3063 -0.8419
17521TIP3   OH274053   2.978   6.208   3.272  0.2675 -0.4063 -0.1703
17521TIP3    H174054   2.941   6.296   3.267 -0.8872 -0.9182 -1.2010
17521TIP3    H274055   2.902   6.150   3.278  0.9651 -1.4022 -0.6096
17522TIP3   OH274056   5.350   6.592  12.494 -0.0041  0.0504  0.0887
17522TIP3    H174057   5.358   6.618  12.586  2.3439  0.9109 -0.2683
17522TIP3    H274058   5.387   6.503  12.492  0.1527  0.1167 -0.0332
17523TIP3   OH274059   6.240   3.188   3.299  0.2574 -0.0015  0.2990
17523TIP3    H174060   6.222   3.211   3.208  0.5231 -0.3398  0.1573
17523TIP3    H274061   6.252   3.272   3.343  1.9151  0.1408 -0.3526
17524TIP3   OH274062   6.795   0.362  16.465  0.4569  0.5039  0.2811
17524TIP3    H174063   6.769   0.307  16.391  0.4059  0.5965  0.2303
17524TIP3    H274064   6.872   0.410  16.434 -1.0630  2.4965 -0.6376
17525TIP3   OH274065   1.253   5.417  17.168  0.4736  0.1479 -0.5797
17525TIP3    H174066   1.240   5.347  17.231 -0.9590  0.4506 -0.4897
17525TIP3    H274067   1.193   5.486  17.197  1.3732  1.1448 -1.0407
17526TIP3   OH274068   4.248   5.751  12.082  0.3888 -0.0085 -0.0853
17526TIP3    H174069   4.205   5.814  12.140 -1.0296 -0.5652 -0.5089
17526TIP3    H274070   4.267   5.801  12.002 -1.3171 -0.2447 -0.6705
17527TIP3   OH274071   6.427   0.502   0.221  0.3769 -0.5746 -0.4808
17527TIP3    H174072   6.410   0.575   0.280  1.2861  0.4546 -1.4445
17527TIP3    H274073   6.352   0.501   0.162 -0.2843 -1.2829  0.3444
17528TIP3   OH274074   2.894   1.970   6.139  0.0626 -0.2959  0.1096
17528TIP3    H174075   2.838   2.036   6.179  2.2386  1.4122  0.5627
17528TIP3    H274076   2.861   1.961   6.049 -0.0067  1.8673 -0.1404
17529TIP3   OH274077   2.793   6.111  15.512  0.2320 -0.9645 -0.3180
17529TIP3    H174078   2.853   6.180  15.484 -0.7786 -0.7804 -2.1335
17529TIP3    H274079   2.813   6.037  15.454 -3.0946 -0.0151 -2.9397
17530TIP3   OH274080   6.454   3.322   4.808 -0.3977  0.3148 -0.7599
17530TIP3    H174081   6.432   3.383   4.878 -1.0709  0.1788 -0.8528
17530TIP3    H274082   6.374   3.312   4.757 -0.1887 -0.3444 -0.9774
17531TIP3   OH274083   3.411   4.396  17.108  0.5687  0.0145 -0.1279
17531TIP3    H174084   3.465   4.335  17.057  1.2738 -0.5109  1.2128
17531TIP3    H274085   3.324   4.355  17.111  0.6666 -0.2182 -0.4154
17532TIP3   OH274086   3.181   1.631   4.970  0.2815 -0.1774 -0.0085
17532TIP3    H174087   3.141   1.691   5.033  0.7988  0.3188 -0.1405
17532TIP3    H274088   3.273   1.630   4.994  0.5776  0.4211 -1.0666
17533TIP3   OH274089   1.373   6.553  11.373 -0.1390  0.0525  0.6055
17533TIP3    H174090   1.449   6.562  11.316  0.7975 -1.2924  1.5663
17533TIP3    H274091   1.404   6.583  11.459 -1.1813  0.9803  0.6753
17534TIP3   OH274092   6.378   4.110   1.753 -0.1252  0.7988  0.1108
17534TIP3    H174093   6.361   4.020   1.726  1.3216  0.7436 -0.7578
17534TIP3    H274094   6.339   4.118   1.840  0.3258 -0.8871  0.4938
17535TIP3   OH274095   3.598   4.513  14.628  0.2832  0.2113  0.2486
17535TIP3    H174096   3.632   4.477  14.710 -2.8385 -2.8522  0.4372
17535TIP3    H274097   3.551   4.592  14.654 -2.2864 -1.7052  1.9231
17536TIP3   OH274098   1.027   1.368  10.583 -0.4666  0.4698 -0.1679
17536TIP3    H174099   1.087   1.411  10.522 -1.5250 -1.0257 -2.3964
17536TIP3    H274100   1.018   1.279  10.549 -2.0009 -0.1074  1.5710
17537TIP3   OH274101   2.810   3.455  13.074 -0.0964 -0.4843  0.4515
17537TIP3    H174102   2.718   3.473  13.094  0.6205  2.3825  1.6718
17537TIP3    H274103   2.840   3.402  13.147 -0.6867 -1.2057  0.1844
17538TIP3   OH274104   3.498   6.295  13.840  0.0437 -0.0840  0.1142
17538TIP3    H174105   3.537   6.371  13.882  2.5169  0.2891 -2.5134
17538TIP3    H274106   3.454   6.330  13.763 -2.0003 -0.9902  0.8126
17539TIP3   OH274107   1.169   3.170   2.594  0.9877 -0.0088  0.0377
17539TIP3    H174108   1.132   3.240   2.648 -0.8263 -0.0761 -1.0499
17539TIP3    H274109   1.148   3.089   2.641  1.8813  0.0783  0.6073
17540TIP3   OH274110   6.395   2.268   4.164  0.1219 -0.5041 -0.3121
17540TIP3    H174111   6.478   2.245   4.205 -0.4158 -0.5200  0.8287
17540TIP3    H274112   6.338   2.291   4.238 -0.0242  2.4380 -1.1928
17541TIP3   OH274113   3.662   6.204   3.657 -0.5636  0.5464  0.4395
17541TIP3    H174114   3.708   6.158   3.587 -0.4964  1.1050  0.1125
17541TIP3    H274115   3.669   6.296   3.634 -2.4752  0.6212 -0.0250
17542TIP3   OH274116   6.685   3.371   4.218  0.6024  0.6284  0.6305
17542TIP3    H174117   6.621   3.319   4.266  0.3686  0.5137  0.1979
17542TIP3    H274118   6.638   3.401   4.140  1.7368 -1.4748 -0.9644
17543TIP3   OH274119   5.717   3.097   5.578 -0.8261 -0.4196  0.6046
17543TIP3    H174120   5.761   3.086   5.494 -0.9715 -1.1101  0.6150
17543TIP3    H274121   5.789   3.102   5.642 -0.7196  0.0160  0.4522
17544TIP3   OH274122   2.029   0.857   3.977 -0.0140  0.1076  0.4772
17544TIP3    H174123   1.936   0.874   3.959  0.0333 -0.7788 -0.7334
17544TIP3    H274124   2.075   0.933   3.943 -0.1421 -0.4313 -0.9742
17545TIP3   OH274125   1.188   1.927  12.003 -0.1341 -0.4407  0.0714
17545TIP3    H174126   1.214   1.839  12.028 -0.4816 -0.6891 -0.4429
17545TIP3    H274127   1.093   1.927  12.009 -0.0634  0.4483  1.8946
17546TIP3   OH274128   2.953   3.635  11.734 -0.0403 -0.0809 -0.5079
17546TIP3    H174129   2.950   3.602  11.644  1.0863  0.3319 -0.7146
17546TIP3    H274130   3.024   3.699  11.733  1.5822 -1.7255  1.2165
17547TIP3   OH274131   0.491   3.043  10.282  0.5758  0.0018  0.6210
17547TIP3    H174132   0.408   3.089  10.292  0.4405  0.2629 -1.2091
17547TIP3    H274133   0.472   2.952  10.304 -0.4995 -0.1494 -0.7902
17548TIP3   OH274134   3.459   3.182   4.249  0.4530  0.1181 -0.0573
17548TIP3    H174135   3.408   3.109   4.214  0.4420  0.7277 -1.3809
17548TIP3    H274136   3.497   3.148   4.330 -0.1480 -1.1043 -0.2625
17549TIP3   OH274137   6.116   0.920  16.137 -0.6256  0.3657  1.0227
17549TIP3    H174138   6.164   0.859  16.194 -0.2549  0.0189  0.3556
17549TIP3    H274139   6.024   0.899  16.152 -0.4990 -0.4198  0.7401
17550TIP3   OH274140   0.817   1.544  11.680  0.2498  0.1579  0.0978
17550TIP3    H174141   0.817   1.465  11.626 -0.2562 -0.9501  1.6377
17550TIP3    H274142   0.904   1.545  11.720 -0.1973 -0.3901  1.1162
17551TIP3   OH274143   4.429   2.759   0.162  0.4662 -0.2232  0.5846
17551TIP3    H174144   4.517   2.791   0.139  0.6508 -1.8400 -1.3028
17551TIP3    H274145   4.444   2.671   0.195 -0.4231 -0.3894  0.5646
17552TIP3   OH274146   4.277   1.237   0.071 -0.4403 -0.5745 -0.0470
17552TIP3    H174147   4.300   1.177  -0.000 -0.8611 -0.2058 -0.5005
17552TIP3    H274148   4.333   1.314   0.057 -0.8749 -0.2949 -0.2783
17553TIP3   OH274149   1.949   4.421  14.341 -0.2374  0.2619  0.3661
17553TIP3    H174150   1.875   4.377  14.299  0.3875  0.1078 -0.5989
17553TIP3    H274151   2.026   4.376  14.307  0.3063  0.4016  1.3890
17554TIP3   OH274152   5.440   0.763   0.315 -0.1144 -0.3609 -0.0279
17554TIP3    H174153   5.410   0.849   0.289  0.9796  0.0786  0.1018
17554TIP3    H274154   5.512   0.743   0.255 -0.1284 -1.0285  0.1674
17555TIP3   OH274155   1.775   1.375  15.811  0.4774  0.0574  0.0447
17555TIP3    H174156   1.753   1.461  15.776 -0.6472 -1.4466 -3.3373
17555TIP3    H274157   1.857   1.351  15.767  0.2780 -0.9994  0.2219
17556TIP3   OH274158   5.898   4.168  13.289  0.0401 -0.0640 -0.2278
17556TIP3    H174159   5.912   4.242  13.348  2.5890 -1.1283  0.6492
17556TIP3    H274160   5.825   4.119  13.327 -1.0032  1.3905 -0.2666
17557TIP3   OH274161   0.065   4.024   0.554 -0.0383  0.1392  0.2793
17557TIP3    H174162   0.039   3.960   0.487  0.5372  0.4774 -0.2761
17557TIP3    H274163  -0.006   4.088   0.555 -0.5988 -0.4802  0.8101
17558TIP3   OH274164   2.811   3.357   5.743 -0.0775  0.3558 -0.2057
17558TIP3    H174165   2.803   3.331   5.835  1.4323  3.3216  0.8989
17558TIP3    H274166   2.774   3.284   5.694 -3.4513 -0.2756  2.8353
17559TIP3   OH274167   0.349   2.556   5.652  0.1781  0.4859  0.0096
17559TIP3    H174168   0.336   2.468   5.617  0.9346  1.5570 -3.2781
17559TIP3    H274169   0.329   2.548   5.745 -3.5179 -2.3504 -0.7845
17560TIP3   OH274170   5.281   3.668   2.028  0.0173  0.3525  0.1422
17560TIP3    H174171   5.191   3.691   2.053 -0.0839 -0.7167  0.8641
17560TIP3    H274172   5.278   3.659   1.933 -0.9707 -0.8720  0.2580
17561TIP3   OH274173   0.983   3.149  14.923  0.4216 -0.5681  0.1487
17561TIP3    H174174   1.053   3.097  14.961  0.2964 -1.7621 -1.1777
17561TIP3    H274175   1.025   3.203  14.857  0.6252  1.4434  1.8149
17562TIP3   OH274176   4.256   0.355  14.633 -0.2461  0.5504 -0.0370
17562TIP3    H174177   4.196   0.294  14.677 -0.7659 -0.4734 -2.0146
17562TIP3    H274178   4.234   0.441  14.668  1.0395 -0.3649  3.4495
17563TIP3   OH274179   4.002   2.810   2.135  0.3669 -0.2220  0.5664
17563TIP3    H174180   4.013   2.717   2.115 -0.0887 -0.2610  0.4774
17563TIP3    H274181   3.965   2.812   2.223  1.0521 -0.0949  0.8627
17564TIP3   OH274182   4.815   1.664   1.038  0.2690 -0.6406  0.0974
17564TIP3    H174183   4.771   1.716   0.971  0.0097 -1.7800 -0.6375
17564TIP3    H274184   4.890   1.718   1.065  0.3856 -0.1693 -1.1213
17565TIP3   OH274185   3.317   4.084   5.804 -0.6735 -0.0598 -0.0768
17565TIP3    H174186   3.404   4.072   5.767 -0.7165  0.8391 -0.5170
17565TIP3    H274187   3.281   3.996   5.811 -0.8081 -0.2847 -2.5686
17566TIP3   OH274188   5.384   1.466  14.618  0.0149  0.3135 -0.1886
17566TIP3    H174189   5.418   1.544  14.573  1.1064 -0.6217 -1.0661
17566TIP3    H274190   5.441   1.456  14.694 -0.7489  0.9056  0.4855
17567TIP3   OH274191   4.472   3.977  11.404 -0.3293 -0.0994  0.0507
17567TIP3    H174192   4.557   3.989  11.361 -0.1396  1.9389  0.8808
17567TIP3    H274193   4.475   3.887  11.437  1.1572 -0.3524 -0.6434
17568TIP3   OH274194   5.615   3.353   6.195 -0.2367  0.1678  0.4191
17568TIP3    H174195   5.657   3.271   6.222 -1.0100  0.0709  1.3346
17568TIP3    H274196   5.684   3.419   6.202  0.0296 -0.1671  0.9779
17569TIP3   OH274197   3.203   3.047   2.642  0.1617  0.2526 -0.6221
17569TIP3    H174198   3.212   3.089   2.557  1.8012  0.1698 -0.5259
17569TIP3    H274199   3.280   3.074   2.691 -0.1890 -0.5904  0.4484
17570TIP3   OH274200   4.269   6.334   4.952  0.5909  0.0401  0.7509
17570TIP3    H174201   4.261   6.244   4.921  1.5937  0.4112 -0.6588
17570TIP3    H274202   4.260   6.388   4.873  1.2281  1.1140  1.3805
17571TIP3   OH274203   6.172   5.049  11.031 -0.5066  0.1917 -0.1469
17571TIP3    H174204   6.081   5.053  11.060 -0.2617 -0.9412  0.8145
17571TIP3    H274205   6.187   5.135  10.990 -1.5061  1.0272  1.1498
17572TIP3   OH274206   4.368   1.926  15.791  0.5043 -0.5903  0.0888
17572TIP3    H174207   4.319   1.957  15.714  1.0942 -1.4553 -0.6529
17572TIP3    H274208   4.389   1.835  15.771  2.8072 -0.1365  0.1476
17573TIP3   OH274209   0.142   5.457   1.475 -0.1198 -0.0158 -0.2312
17573TIP3    H174210   0.209   5.389   1.476  1.6009  1.6009 -0.6328
17573TIP3    H274211   0.189   5.537   1.500 -1.6505  1.3851 -1.6412
17574TIP3   OH274212   6.757   1.869  14.105 -0.2118 -0.2693 -0.1746
17574TIP3    H174213   6.707   1.812  14.047 -1.6812  2.6039 -1.9575
17574TIP3    H274214   6.848   1.858  14.077 -0.5100 -1.3490 -0.7874
17575TIP3   OH274215   3.516   4.394   5.615 -0.2178  0.8706  0.3280
17575TIP3    H174216   3.551   4.308   5.591 -1.3074  0.7885 -1.1048
17575TIP3    H274217   3.515   4.442   5.533 -0.7097  1.8606  0.9042
17576TIP3   OH274218   1.045   0.987   0.360  0.2032  0.1807  0.2846
17576TIP3    H174219   0.961   1.033   0.361  1.1381  2.1263  2.7343
17576TIP3    H274220   1.024   0.898   0.333 -2.7030  0.5357  1.0200
17577TIP3   OH274221   6.165   3.053   5.342  0.1336 -0.2812  0.2195
17577TIP3    H174222   6.144   3.059   5.248  2.1699 -0.3049 -0.2946
17577TIP3    H274223   6.103   2.989   5.376 -0.7318 -0.1902 -1.0912
17578TIP3   OH274224   6.204   5.246   3.700  0.1790 -0.3465 -0.4351
17578TIP3    H174225   6.150   5.284   3.769 -0.3756 -1.5737 -0.1792
17578TIP3    H274226   6.294   5.252   3.734  0.5670  3.4571 -1.6527
17579TIP3   OH274227   5.069   2.582  12.050 -0.3214  0.1356 -0.4919
17579TIP3    H174228   5.072   2.616  11.961 -1.1975 -0.5371 -0.7950
17579TIP3    H274229   5.081   2.659  12.106 -0.8475  0.7243 -1.1756
17580TIP3   OH274230   2.374   4.238   6.445  1.2815  0.7332 -0.0781
17580TIP3    H174231   2.445   4.231   6.381  2.0781 -1.0570  0.9129
17580TIP3    H274232   2.419   4.247   6.529  0.3327  0.2885  0.4905
17581TIP3   OH274233   2.598   1.507  10.935  0.5745  0.0284 -0.9471
17581TIP3    H174234   2.633   1.419  10.944 -0.6861 -0.3809  0.1280
17581TIP3    H274235   2.672   1.564  10.957  0.9127 -0.7877  0.0880
17582TIP3   OH274236   2.302   1.173   2.804  0.7978 -0.3586 -0.1056
17582TIP3    H174237   2.315   1.162   2.898 -2.0600  0.7099  0.5094
17582TIP3    H274238   2.240   1.246   2.796  3.0528  1.5439 -2.9651
17583TIP3   OH274239   0.558   3.128   0.045 -0.3546  0.2159 -0.1260
17583TIP3    H174240   0.580   3.216   0.015  2.4350 -0.4920 -0.4842
17583TIP3    H274241   0.523   3.084  -0.032 -0.3141  0.5888 -0.3595
17584TIP3   OH274242   0.283   3.766   2.716  0.1192  0.0490 -0.0448
17584TIP3    H174243   0.289   3.822   2.639  1.2739  0.7613  0.5447
17584TIP3    H274244   0.363   3.714   2.716  0.6961  0.8718  1.2660
17585TIP3   OH274245   5.584   3.942  11.152  0.3256  0.0107  0.3184
17585TIP3    H174246   5.507   3.899  11.116  0.5920 -1.0647  0.9839
17585TIP3    H274247   5.607   4.009  11.088  0.6582 -1.6650 -1.4176
17586TIP3   OH274248   6.529   6.049  12.194  0.2688  0.1012  0.7403
17586TIP3    H174249   6.511   6.096  12.113  0.7915 -1.7843 -0.5294
17586TIP3    H274250   6.455   6.069  12.251  0.3519  2.2169  0.2050
17587TIP3   OH274251   3.728   2.953  16.540  0.3911 -0.2478  0.3223
17587TIP3    H174252   3.682   2.954  16.624 -0.4895 -5.0091  0.1610
17587TIP3    H274253   3.817   2.978  16.561 -0.5780  2.2604  1.9037
17588TIP3   OH274254   5.676   3.165  14.250  0.4868  0.1985 -0.4759
17588TIP3    H174255   5.601   3.175  14.191 -0.4243 -0.3813  0.5407
17588TIP3    H274256   5.713   3.080  14.227 -0.6781 -0.6481  0.6298
17589TIP3   OH274257   2.386   6.061   2.850  0.3446 -0.6183  0.3638
17589TIP3    H174258   2.440   6.083   2.774  2.1746  2.9350  2.4491
17589TIP3    H274259   2.317   6.126   2.850 -1.7959 -2.7484 -0.0611
17590TIP3   OH274260   6.001   0.171  12.785 -0.2504 -0.0430 -0.3261
17590TIP3    H174261   5.990   0.136  12.696  2.9269  0.7651 -1.1500
17590TIP3    H274262   6.072   0.119  12.822 -0.9295  0.2506  1.4531
17591TIP3   OH274263   5.028   1.884   3.281  0.6103 -0.5593 -0.2236
17591TIP3    H174264   5.040   1.931   3.363 -0.9278  1.0064 -0.8336
17591TIP3    H274265   5.021   1.792   3.307 -2.0288  0.0683  1.7024
17592TIP3   OH274266   6.806   5.376   0.337 -0.2103 -0.1034 -0.0061
17592TIP3    H174267   6.831   5.285   0.352 -2.0474 -0.8428 -1.1114
17592TIP3    H274268   6.789   5.410   0.425 -1.6041 -1.5060  0.3196
17593TIP3   OH274269   1.301   0.041  11.570 -0.1336 -0.0700  0.3190
17593TIP3    H174270   1.270   0.087  11.492 -0.3614 -0.9826 -0.1447
17593TIP3    H274271   1.302   0.107  11.639  0.6396  0.8906 -0.5975
17594TIP3   OH274272   3.117   3.129   4.817 -0.6198  0.1479  0.8740
17594TIP3    H174273   3.129   3.036   4.839  1.0981 -0.0743 -0.7119
17594TIP3    H274274   3.205   3.160   4.796 -1.2322  2.0316  0.9078
17595TIP3   OH274275   2.481   6.428  12.505  0.4754 -0.4079 -0.0252
17595TIP3    H174276   2.442   6.417  12.592 -0.5292  1.4359 -0.1792
17595TIP3    H274277   2.489   6.523  12.495  2.5560 -0.6533 -1.1125
17596TIP3   OH274278   2.912   6.101  13.127  0.4650  0.3952  0.4969
17596TIP3    H174279   2.859   6.109  13.048  0.0144  1.0837  0.8662
17596TIP3    H274280   2.928   6.007  13.136 -1.6925  0.0290  1.0334
17597TIP3   OH274281   6.536   0.602  15.759 -0.0423 -0.0498  0.0689
17597TIP3    H174282   6.573   0.523  15.719  2.5513  0.5417  1.0755
17597TIP3    H274283   6.465   0.569  15.814 -0.6801 -1.3516 -1.4465
17598TIP3   OH274284   2.458   4.882  15.594  0.0101  0.0846 -0.0771
17598TIP3    H174285   2.398   4.957  15.596  0.1250  0.1723  0.0751
17598TIP3    H274286   2.407   4.809  15.629  0.7145  0.6741  2.3418
17599TIP3   OH274287   0.214   6.156  14.968  0.3880 -0.1712 -0.1611
17599TIP3    H174288   0.187   6.119  14.884  0.3203  1.4625 -0.8868
17599TIP3    H274289   0.178   6.245  14.969 -1.4256 -0.8009  2.5099
17600TIP3   OH274290   2.478   2.476   6.375 -0.2209 -0.1136  0.0545
17600TIP3    H174291   2.401   2.448   6.423 -0.1350  2.0519  1.6027
17600TIP3    H274292   2.463   2.569   6.357  1.0411 -0.1703 -1.6323
17601TIP3   OH274293   0.896   4.983  15.926 -0.0451  0.8262  0.0677
17601TIP3    H174294   0.959   5.055  15.917 -0.3504  0.9692 -1.1154
17601TIP3    H274295   0.888   4.969  16.020 -0.1813  2.5224  0.3352
17602TIP3   OH274296   6.391   2.141   4.982 -0.0679  0.1557  0.4163
17602TIP3    H174297   6.315   2.106   4.936 -0.2235  1.5882 -0.4652
17602TIP3    H274298   6.358   2.217   5.030  0.4797 -0.2115  1.4205
17603TIP3   OH274299   5.951   2.793   2.583 -0.3149  0.3063  0.5366
17603TIP3    H174300   5.918   2.853   2.517  0.3748  0.2180  0.1013
17603TIP3    H274301   5.945   2.842   2.666  0.1805  0.9446  0.1987
17604TIP3   OH274302   0.177   5.292  13.023 -0.4290 -0.1973 -0.5226
17604TIP3    H174303   0.210   5.252  13.104 -0.2731 -0.5799 -0.7747
17604TIP3    H274304   0.100   5.240  13.000 -1.9415  1.3749  0.6831
17605TIP3   OH274305   4.760   3.499  14.761 -0.0521  0.0723  0.3860
17605TIP3    H174306   4.714   3.415  14.759 -1.3782  0.7713 -1.1012
17605TIP3    H274307   4.846   3.481  14.724 -0.2622 -0.6711  0.2449
17606TIP3   OH274308   6.045   0.275   4.934 -0.7581 -0.8683 -0.1526
17606TIP3    H174309   6.116   0.277   4.998 -1.3161  1.4731  0.4616
17606TIP3    H274310   6.089   0.273   4.849  0.1290  1.3939  0.1895
17607TIP3   OH274311   5.903   2.646   1.260  0.3314  0.6729  0.3456
17607TIP3    H174312   5.857   2.726   1.234  0.4016  0.3839 -0.7184
17607TIP3    H274313   5.957   2.624   1.184  0.5880 -0.1822  0.7697
17608TIP3   OH274314   4.542   2.038  12.057  0.3818 -0.1460 -0.0145
17608TIP3    H174315   4.577   2.035  11.968  0.0356 -0.3686 -0.1462
17608TIP3    H274316   4.460   1.989  12.052 -0.6843  1.5540 -0.0315
17609TIP3   OH274317   6.021   6.288  11.877  0.6926  0.0600  0.1236
17609TIP3    H174318   6.107   6.327  11.863  0.7347  0.3716  1.1513
17609TIP3    H274319   6.024   6.205  11.829  2.0154 -0.5234  1.1303
17610TIP3   OH274320   1.630   2.301  14.908  0.1132  1.0856 -0.5880
17610TIP3    H174321   1.649   2.382  14.861 -1.4869  1.7926 -0.0945
17610TIP3    H274322   1.536   2.287  14.895  0.1649 -0.1410  0.1897
17611TIP3   OH274323   4.875   6.624   3.674 -0.2033  0.0483 -0.0612
17611TIP3    H174324   4.958   6.590   3.707 -0.2283  0.0113 -0.0364
17611TIP3    H274325   4.810   6.598   3.739 -0.0729  1.0062  0.4729
17612TIP3   OH274326   5.367   4.603   3.133 -0.0344  0.2455 -0.2715
17612TIP3    H174327   5.348   4.528   3.077 -0.2485  1.1823 -1.4994
17612TIP3    H274328   5.454   4.632   3.107  1.1833 -1.0644  1.9704
17613TIP3   OH274329   1.810   5.748  13.576  0.1097 -0.3711 -0.3798
17613TIP3    H174330   1.735   5.807  13.573 -1.4237 -2.2395 -0.2578
17613TIP3    H274331   1.883   5.802  13.545 -1.3446  1.3686 -0.9920
17614TIP3   OH274332   0.452   4.788  14.104 -0.0649 -0.6242 -0.3462
17614TIP3    H174333   0.358   4.793  14.124  0.3258 -0.0889  1.6375
17614TIP3    H274334   0.457   4.738  14.023 -2.2357  1.8536 -2.1911
17615TIP3   OH274335   2.404   3.570   5.241  0.7564  0.1996 -0.1486
17615TIP3    H174336   2.372   3.482   5.264  1.2019 -0.7191 -2.7353
17615TIP3    H274337   2.497   3.568   5.260  0.8638 -0.0744 -0.6975
17616TIP3   OH274338   2.336   3.778  11.972 -0.0939  0.2204  0.3887
17616TIP3    H174339   2.317   3.760  11.880 -2.4142  1.2928  0.5882
17616TIP3    H274340   2.392   3.855  11.971  0.9892 -0.5494 -0.1284
17617TIP3   OH274341   3.997   3.470  12.409 -0.8308 -0.2890  0.1700
17617TIP3    H174342   4.052   3.515  12.344 -1.7217  0.5420 -0.0180
17617TIP3    H274343   3.909   3.503  12.393 -1.1245 -0.3471  1.5777
17618TIP3   OH274344   6.610   0.664  14.394 -0.2330 -0.3496  0.0667
17618TIP3    H174345   6.530   0.699  14.356 -1.3249 -1.0823  1.5972
17618TIP3    H274346   6.595   0.667  14.489  2.0738  0.6967  0.4719
17619TIP3   OH274347   2.012   3.358  11.244 -0.1871  0.5590 -0.3377
17619TIP3    H174348   2.055   3.373  11.159 -0.3633  2.2305 -0.1608
17619TIP3    H274349   1.939   3.300  11.223  0.5482 -0.1440 -1.0893
17620TIP3   OH274350   5.574   2.189  15.966 -0.0543 -0.0957 -0.0636
17620TIP3    H174351   5.529   2.111  16.000  0.9797 -1.7224 -2.2384
17620TIP3    H274352   5.527   2.210  15.885  0.9519  0.2851 -0.5593
17621TIP3   OH274353   6.537   0.603   3.236  0.0010 -0.0410  0.3141
17621TIP3    H174354   6.455   0.649   3.217 -0.3188 -0.9538 -0.5755
17621TIP3    H274355   6.603   0.673   3.237 -0.6152  0.5685 -0.0855
17622TIP3   OH274356   0.908   4.044  10.485  0.1875  0.0314  0.4710
17622TIP3    H174357   0.901   4.139  10.477 -2.0784 -0.0448  0.7557
17622TIP3    H274358   0.854   4.010  10.413 -0.9841 -0.9607  1.7494
17623TIP3   OH274359   1.938   0.086  16.913  0.2275  0.0991 -0.3377
17623TIP3    H174360   1.992   0.165  16.927 -2.0785  1.5117  1.2186
17623TIP3    H274361   1.904   0.096  16.824  1.4070 -0.1435 -0.8431
17624TIP3   OH274362   3.835   5.269  10.796  0.0851 -0.6181 -0.4552
17624TIP3    H174363   3.777   5.328  10.748  0.7941  0.6322  0.1771
17624TIP3    H274364   3.813   5.284  10.888  2.7667  1.4560 -0.0367
17625TIP3   OH274365   6.282   1.425   4.281  0.2505  0.0597 -0.8653
17625TIP3    H174366   6.324   1.405   4.197  1.0983  0.0247 -0.4431
17625TIP3    H274367   6.351   1.466   4.333 -0.5673  1.0781 -0.5640
17626TIP3   OH274368   4.445   3.213  11.650 -0.1723  0.1861 -0.3069
17626TIP3    H174369   4.464   3.306  11.643 -0.7518  0.1911 -2.2254
17626TIP3    H274370   4.488   3.186  11.732 -2.1100  2.6236  1.6496
17627TIP3   OH274371   6.059   4.809  13.044  0.5274  0.3641  0.2186
17627TIP3    H174372   6.052   4.875  13.114  2.9541 -0.4757  1.3906
17627TIP3    H274373   6.068   4.860  12.964  1.3770  1.4971  0.9867
17628TIP3   OH274374   5.379   3.834  12.267  0.1581  0.2397 -0.2413
17628TIP3    H174375   5.428   3.897  12.214 -1.3933  1.5185 -0.2400
17628TIP3    H274376   5.347   3.886  12.341 -0.6852 -0.7043  0.0722
17629TIP3   OH274377   3.047   6.355  15.053  0.1222 -0.0514  0.4502
17629TIP3    H174378   3.046   6.417  15.126  1.3366  1.1488 -0.5000
17629TIP3    H274379   2.974   6.383  14.997 -1.5905 -1.7282  1.7518
17630TIP3   OH274380   6.657   5.723  13.812 -0.2922 -0.0689  0.7426
17630TIP3    H174381   6.671   5.786  13.742 -0.7212 -0.2811  0.4665
17630TIP3    H274382   6.683   5.639  13.775  3.4639  0.3023  2.1003
17631TIP3   OH274383   1.283   2.233  16.170 -0.1107 -0.2278  0.5036
17631TIP3    H174384   1.288   2.260  16.261 -0.8227 -2.1444  1.1485
17631TIP3    H274385   1.368   2.259  16.132  1.1771 -1.5879  2.3278
17632TIP3   OH274386   2.946   4.287   4.349  0.5549 -0.4490  0.4496
17632TIP3    H174387   2.857   4.297   4.383  1.3306  3.7082  1.8640
17632TIP3    H274388   3.000   4.276   4.428  1.5076 -0.2070 -0.1555
17633TIP3   OH274389   1.307   6.009  16.141  0.2554  0.7443 -0.3002
17633TIP3    H174390   1.346   5.956  16.211  2.5602  1.3114 -1.0607
17633TIP3    H274391   1.348   5.977  16.061 -1.7512  0.6380 -1.3380
17634TIP3   OH274392   4.242   1.925  13.639 -0.4030  0.4516  0.7796
17634TIP3    H174393   4.220   1.833  13.656  0.1080  0.0029 -0.8177
17634TIP3    H274394   4.332   1.934  13.671  1.1225 -0.7948 -2.6287
17635TIP3   OH274395   0.720   1.953   5.411  0.3428 -0.2210 -0.4866
17635TIP3    H174396   0.799   2.006   5.415  0.2785  0.1271 -2.4584
17635TIP3    H274397   0.652   2.014   5.382 -0.3408 -0.8125 -0.1603
17636TIP3   OH274398   2.634   4.737   4.067  0.1440 -0.0657 -0.5843
17636TIP3    H174399   2.674   4.824   4.060 -0.8199  0.3950 -0.5274
17636TIP3    H274400   2.605   4.732   4.158 -0.1934 -0.2719 -0.7023
17637TIP3   OH274401   0.775   0.475   6.137  0.5523  0.1986 -0.3878
17637TIP3    H174402   0.790   0.384   6.114 -1.0692 -0.5536  1.3069
17637TIP3    H274403   0.714   0.507   6.070  0.8325 -0.0584 -0.7697
17638TIP3   OH274404   1.426   6.682   0.989  0.3925  0.2970 -0.4200
17638TIP3    H174405   1.455   6.650   0.903  0.3136 -2.3261  0.4433
17638TIP3    H274406   1.417   6.603   1.042 -1.1969  1.6971  1.5322
17639TIP3   OH274407   5.608   1.421   2.951 -0.2129 -0.9857  0.2376
17639TIP3    H174408   5.530   1.431   3.007 -0.9411 -0.7472 -0.7964
17639TIP3    H274409   5.586   1.467   2.871  0.4278 -2.1457 -0.6388
17640TIP3   OH274410   5.517   4.638  14.925 -0.3759 -0.0741  0.1317
17640TIP3    H174411   5.596   4.655  14.874 -1.0576  1.5515 -0.4526
17640TIP3    H274412   5.491   4.724  14.958 -1.6893 -0.6311  0.6196
17641TIP3   OH274413   1.839   2.141  13.417  0.5244  0.2232  0.1764
17641TIP3    H174414   1.805   2.175  13.500 -1.8682 -2.6622  0.5334
17641TIP3    H274415   1.815   2.206  13.352 -2.1649  0.2221  1.0656
17642TIP3   OH274416   6.228   0.113   5.505 -0.2338  0.3757  0.3203
17642TIP3    H174417   6.266   0.194   5.540 -2.9006  2.7400 -1.6803
17642TIP3    H274418   6.289   0.086   5.437  1.3684 -0.1296  1.9054
17643TIP3   OH274419   4.691   4.133  13.008  0.5770  0.4053  0.1059
17643TIP3    H174420   4.709   4.047  12.968  2.8087  0.0990  1.6361
17643TIP3    H274421   4.638   4.178  12.942  1.2030 -1.3196 -1.7003
17644TIP3   OH274422   6.299   6.317   2.622 -0.0044  0.5674 -0.0778
17644TIP3    H174423   6.338   6.292   2.539  1.3589 -0.2220  0.7602
17644TIP3    H274424   6.206   6.327   2.603  0.4631  1.7040 -1.9642
17645TIP3   OH274425   6.739   2.935   4.599  0.0373 -0.7094 -0.2285
17645TIP3    H174426   6.757   2.875   4.527 -0.2527 -1.6085  0.4359
17645TIP3    H274427   6.665   2.896   4.646  0.5848 -0.4435  0.8956
17646TIP3   OH274428   3.186   1.519   3.310  0.2450  0.3687 -0.3192
17646TIP3    H174429   3.186   1.431   3.271  1.1421  0.2461 -0.0720
17646TIP3    H274430   3.116   1.517   3.375  1.9116 -1.0585  1.5798
17647TIP3   OH274431   4.111   1.593  15.784 -0.5661 -0.0014  0.0241
17647TIP3    H174432   4.141   1.510  15.747 -0.4364  0.1636 -0.2439
17647TIP3    H274433   4.044   1.623  15.724 -1.4584 -0.4841  0.7483
17648TIP3   OH274434   2.875   1.361  14.606 -0.4756 -0.4574 -0.2433
17648TIP3    H174435   2.811   1.406  14.662 -0.4027  0.6380 -0.9987
17648TIP3    H274436   2.856   1.392  14.517  1.9975  1.0717 -0.3440
17649TIP3   OH274437   4.087   2.455   6.546 -0.4411  0.2398 -0.0328
17649TIP3    H174438   3.996   2.445   6.573 -0.3406 -0.8166 -0.0592
17649TIP3    H274439   4.103   2.550   6.549 -1.8139  0.5243 -0.9413
17650TIP3   OH274440   5.074   5.161  11.421  0.8922 -0.2478  0.8384
17650TIP3    H174441   5.000   5.144  11.478  0.7506 -0.2993  0.6397
17650TIP3    H274442   5.052   5.243  11.376 -0.1403 -1.4549 -0.9847
17651TIP3   OH274443   3.709   4.645  12.053 -0.1285  0.2477 -0.1430
17651TIP3    H174444   3.767   4.590  12.000 -1.4277 -0.2883 -1.0376
17651TIP3    H274445   3.624   4.602  12.049 -0.9178  1.7223  0.0818
17652TIP3   OH274446   0.535   2.439   0.659  0.0962 -0.1266  0.2382
17652TIP3    H174447   0.572   2.432   0.748  1.4503  1.6129 -0.1413
17652TIP3    H274448   0.478   2.516   0.663  0.5060  0.2238 -0.4964
17653TIP3   OH274449   2.039   1.376   0.196 -0.6081  0.7433  0.4500
17653TIP3    H174450   2.048   1.283   0.213 -2.1093  0.2864 -1.0724
17653TIP3    H274451   1.990   1.382   0.114  2.0830  2.8398 -1.2083
17654TIP3   OH274452   2.760   0.811   0.771  0.2431  0.3980  0.2823
17654TIP3    H174453   2.825   0.876   0.747 -0.2898  1.0725  0.6163
17654TIP3    H274454   2.783   0.733   0.720  1.4438  0.5436  0.5768
17655TIP3   OH274455   2.226   2.315   3.780  0.3617  0.1638  0.0285
17655TIP3    H174456   2.226   2.385   3.845  1.4217 -0.3581  0.6261
17655TIP3    H274457   2.185   2.354   3.703 -1.3119  0.6557  1.1293
17656TIP3   OH274458   6.531   6.018  14.727  0.6898 -0.2494  0.2745
17656TIP3    H174459   6.576   5.983  14.804 -1.0798  0.0202  1.4786
17656TIP3    H274460   6.558   6.110  14.725  0.7012 -0.2425  0.6056
17657TIP3   OH274461   1.390   3.431  16.354  0.1035  0.1163 -0.4007
17657TIP3    H174462   1.364   3.374  16.282 -0.8738  0.9083 -0.7060
17657TIP3    H274463   1.320   3.420  16.419 -0.5242  1.5149 -0.7916
17658TIP3   OH274464   3.684   3.662   4.101 -0.2465  0.1486 -0.2324
17658TIP3    H174465   3.681   3.667   4.197 -1.0223  0.1469 -0.2505
17658TIP3    H274466   3.627   3.589   4.079 -0.6261  0.5856 -0.7277
17659TIP3   OH274467   6.191   6.243  15.814 -0.0975 -0.1816 -0.3623
17659TIP3    H174468   6.238   6.266  15.735  0.5651 -2.3859 -0.6630
17659TIP3    H274469   6.113   6.196  15.784 -0.9637  0.7862  0.2528
17660TIP3   OH274470   0.376   4.009   1.051 -0.6049  0.6230  0.2339
17660TIP3    H174471   0.340   4.090   1.088  0.1016  1.4008 -0.7320
17660TIP3    H274472   0.319   3.940   1.085 -0.9156  1.4551  1.4942
17661TIP3   OH274473   0.200   4.732  15.812  0.0459 -0.3118  0.2879
17661TIP3    H174474   0.269   4.758  15.750 -0.6881  2.1519  0.3888
17661TIP3    H274475   0.196   4.804  15.874 -1.7595 -1.0115  1.0346
17662TIP3   OH274476   0.912   6.479   3.184 -0.5097  0.0353 -0.0902
17662TIP3    H174477   0.966   6.511   3.257  0.0809  0.3199 -0.6377
17662TIP3    H274478   0.852   6.416   3.224  0.4835 -0.5818  0.4783
17663TIP3   OH274479   2.257   1.120  16.926  0.4103 -0.2779 -0.3234
17663TIP3    H174480   2.168   1.155  16.931  0.5370  0.2374 -1.4221
17663TIP3    H274481   2.258   1.050  16.991 -0.6954 -0.0734 -0.0546
17664TIP3   OH274482   6.646   1.751   0.693 -0.3188  0.2196  0.9702
17664TIP3    H174483   6.621   1.829   0.644  0.1615  0.2381  0.7476
17664TIP3    H274484   6.625   1.678   0.635  0.8722  0.2720  0.4463
17665TIP3   OH274485   2.996   0.804  16.771 -0.0877  0.1546  0.5753
17665TIP3    H174486   2.985   0.710  16.790 -0.3103 -0.0029 -0.2628
17665TIP3    H274487   3.091   0.816  16.765 -0.0865 -0.3246 -0.6807
17666TIP3   OH274488   5.624   3.114  17.199  0.3206 -0.3405 -0.3183
17666TIP3    H174489   5.647   3.112  17.107 -0.4445 -1.5203 -0.5069
17666TIP3    H274490   5.695   3.069  17.243 -0.7576 -2.5691 -0.7200
17667TIP3   OH274491   2.431   4.257  14.028  0.5674  0.0971 -0.1192
17667TIP3    H174492   2.380   4.330  14.062 -1.0754 -1.3057  0.6238
17667TIP3    H274493   2.469   4.216  14.106 -1.0457 -1.5799 -0.1419
17668TIP3   OH274494   4.298   3.617  15.243  0.1220  0.1563  0.1950
17668TIP3    H174495   4.243   3.663  15.180  1.9364  0.2997 -1.3866
17668TIP3    H274496   4.383   3.660  15.236  1.8019 -3.0426 -1.0311
17669TIP3   OH274497   5.852   4.456   1.684  0.1185 -0.0076 -0.8188
17669TIP3    H174498   5.885   4.472   1.596  1.3930 -0.0307 -0.3641
17669TIP3    H274499   5.917   4.399   1.724 -2.6710 -4.0282 -1.3572
17670TIP3   OH274500   2.162   3.478   0.770  0.7624 -0.1183  0.7923
17670TIP3    H174501   2.121   3.399   0.805  0.5030  0.0579  0.8929
17670TIP3    H274502   2.118   3.491   0.685  1.0646 -0.2881  0.6094
17671TIP3   OH274503   4.550   1.052  10.765  0.4722  0.6612 -0.6754
17671TIP3    H174504   4.524   1.144  10.769  0.6112  0.7062 -0.7909
17671TIP3    H274505   4.557   1.033  10.671 -0.4651  0.2711 -0.6785
17672TIP3   OH274506   5.135   1.444  15.836  0.0816  0.4636 -0.1460
17672TIP3    H174507   5.198   1.377  15.810  0.8659  1.3546 -0.6140
17672TIP3    H274508   5.121   1.428  15.930  3.2143  1.9401  0.7015
17673TIP3   OH274509   3.956   6.656   3.010  0.2247 -1.0143  0.0688
17673TIP3    H174510   3.919   6.607   2.937 -0.7201  1.5268 -1.2775
17673TIP3    H274511   3.890   6.723   3.030  1.8554  0.3453  1.1395
17674TIP3   OH274512   2.549   6.687  13.736 -0.3219  0.3643 -0.7676
17674TIP3    H174513   2.498   6.614  13.702  0.8707  0.6797 -3.5027
17674TIP3    H274514   2.548   6.752  13.666  0.5914  1.9958  0.6459
17675TIP3   OH274515   5.934   2.450  12.912  0.1419 -0.0701 -0.2983
17675TIP3    H174516   5.910   2.458  13.005  2.3690 -1.2025  0.4657
17675TIP3    H274517   5.902   2.363  12.887  1.1925 -0.5670  0.0131
17676TIP3   OH274518   0.375   6.589   0.490  0.8226 -0.0146  0.1869
17676TIP3    H174519   0.437   6.639   0.437 -1.1995  0.9487 -1.3724
17676TIP3    H274520   0.362   6.642   0.569  0.8506  0.4959 -0.1548
17677TIP3   OH274521   1.136   2.790   1.294 -0.0907 -0.9269 -0.3619
17677TIP3    H174522   1.228   2.769   1.313 -0.3274 -0.7911  1.0031
17677TIP3    H274523   1.086   2.724   1.342 -0.7694  0.7988  1.4240
17678TIP3   OH274524   1.447   0.474   2.586 -0.2273 -0.1563 -0.3633
17678TIP3    H174525   1.465   0.514   2.501 -1.9267  1.4582 -0.0505
17678TIP3    H274526   1.389   0.400   2.565  0.0677 -0.2982 -0.6857
17679TIP3   OH274527   3.768   2.338  13.432  0.2821 -0.1517 -0.4311
17679TIP3    H174528   3.843   2.293  13.393  1.5302  0.6155  1.0034
17679TIP3    H274529   3.728   2.385  13.359  1.9780  0.4940 -0.9985
17680TIP3   OH274530   6.337   0.553   1.881  0.3400  0.3223 -0.1916
17680TIP3    H174531   6.261   0.507   1.846 -0.3274  1.6674 -0.6005
17680TIP3    H274532   6.412   0.517   1.833 -0.1854 -0.1205 -0.6918
17681TIP3   OH274533   1.292   1.228  11.730  0.2315  0.5526  0.1243
17681TIP3    H174534   1.330   1.240  11.817 -0.2865 -0.8180  0.5691
17681TIP3    H274535   1.325   1.143  11.701  0.5184  1.0536 -1.1069
17682TIP3   OH274536   0.638   2.626  15.499 -0.0251  0.8194 -0.0168
17682TIP3    H174537   0.573   2.621  15.428 -0.7341  1.8466  0.5424
17682TIP3    H274538   0.605   2.694  15.557  0.6115  0.0705  1.2566
17683TIP3   OH274539   2.257   5.247  14.744  0.1592  0.1665 -0.2739
17683TIP3    H174540   2.267   5.328  14.794  0.5285  0.1220 -0.2722
17683TIP3    H274541   2.296   5.267  14.659 -1.2808  0.5448 -0.8912
17684TIP3   OH274542   6.711   3.921  16.749 -0.4220  0.1537  0.7880
17684TIP3    H174543   6.635   3.869  16.775 -0.0511 -2.0468 -2.0069
17684TIP3    H274544   6.694   3.945  16.658  1.9379  0.0410  0.2348
17685TIP3   OH274545   6.564   5.521  12.303  0.2338 -0.0908 -0.3219
17685TIP3    H174546   6.497   5.527  12.235  0.2032  0.0864 -0.2758
17685TIP3    H274547   6.550   5.598  12.358  1.3114  0.6474 -1.0515
17686TIP3   OH274548   6.261   4.553   4.976 -0.1104  0.3655  0.2658
17686TIP3    H174549   6.298   4.605   5.048  1.7255 -0.0776 -0.2910
17686TIP3    H274550   6.254   4.465   5.013  2.1942 -0.1886 -0.4394
17687TIP3   OH274551   4.871   1.572   1.482 -0.0633 -0.2007  0.4545
17687TIP3    H174552   4.893   1.658   1.518 -0.9918  0.7443 -1.1154
17687TIP3    H274553   4.798   1.589   1.423 -1.4929 -2.3915  1.4945
17688TIP3   OH274554   1.407   5.425  11.784  0.3014 -0.0733 -0.2503
17688TIP3    H174555   1.458   5.503  11.763 -1.3023  1.3572  0.8805
17688TIP3    H274556   1.420   5.412  11.877 -0.2491 -0.5612 -0.2350
17689TIP3   OH274557   0.847   4.590  10.788  0.1096 -0.3803  0.0654
17689TIP3    H174558   0.812   4.633  10.866 -2.0429 -0.5402 -0.7303
17689TIP3    H274559   0.939   4.576  10.807  0.1668  1.7133  1.6071
17690TIP3   OH274560   4.322   5.388  12.849 -0.3943 -0.0306  0.2171
17690TIP3    H174561   4.360   5.458  12.797 -0.1008  0.1185  0.6332
17690TIP3    H274562   4.368   5.309  12.820  0.6486  0.2277  1.1212
17691TIP3   OH274563   5.418   3.507  13.113 -0.1141 -0.4133  0.2768
17691TIP3    H174564   5.386   3.510  13.203  0.9447 -3.2212  0.8633
17691TIP3    H274565   5.348   3.545  13.061 -0.9570  0.8249  2.2179
17692TIP3   OH274566   0.134   5.459   3.957 -0.8597  0.0808 -0.6089
17692TIP3    H174567   0.126   5.554   3.957  0.3231  0.2463  1.7315
17692TIP3    H274568   0.110   5.432   4.045  0.3080 -1.6251 -0.7530
17693TIP3   OH274569   2.482   0.954   2.584  0.0358  0.4179  0.2378
17693TIP3    H174570   2.532   1.005   2.520 -0.6626 -0.1190 -0.7530
17693TIP3    H274571   2.390   0.974   2.564 -0.2076 -0.3936  0.5353
17694TIP3   OH274572   6.461   3.106   1.302  0.5364  0.0004 -0.8207
17694TIP3    H174573   6.542   3.069   1.336  0.8565  1.7273  0.4207
17694TIP3    H274574   6.392   3.064   1.352  0.9087  1.1934  0.7779
17695TIP3   OH274575   1.280   3.020  14.854 -0.3540 -0.4000  0.8754
17695TIP3    H174576   1.347   3.028  14.922  0.2972 -0.1427  0.2194
17695TIP3    H274577   1.229   2.943  14.880 -1.7622  1.1480  3.0327
17696TIP3   OH274578   4.932   3.076   2.711 -0.9375  0.4879 -0.2523
17696TIP3    H174579   4.876   3.150   2.685  1.0513  1.6662 -1.4948
17696TIP3    H274580   5.011   3.118   2.746 -0.4447 -1.0934  0.5812
17697TIP3   OH274581   3.487   0.192  16.967  0.4841  0.7105  0.4223
17697TIP3    H174582   3.480   0.103  17.000 -0.4883  0.4146 -0.5200
17697TIP3    H274583   3.573   0.197  16.926  1.6548  1.0328  2.7461
17698TIP3   OH274584   1.541   0.797   5.857  0.3484 -0.0464  0.0405
17698TIP3    H174585   1.451   0.825   5.870  0.3262  0.7786 -1.6210
17698TIP3    H274586   1.586   0.823   5.938 -0.6821  0.4649  0.4717
17699TIP3   OH274587   1.556   6.456   4.753  0.0187 -0.0101 -0.2032
17699TIP3    H174588   1.566   6.545   4.717 -3.8447  1.2213  1.2793
17699TIP3    H274589   1.466   6.432   4.731 -0.0560 -2.2692  2.1987
17700TIP3   OH274590   3.460   2.092   5.104 -0.3312  0.4983  0.2762
17700TIP3    H174591   3.499   2.087   5.017 -0.2381  0.2556  0.3293
17700TIP3    H274592   3.475   2.005   5.142 -0.6546  0.5002  0.4121
17701TIP3   OH274593   3.565   0.073   2.265 -0.0975  0.3235  0.4472
17701TIP3    H174594   3.566   0.013   2.191 -1.1309 -1.1862  1.6010
17701TIP3    H274595   3.616   0.029   2.333  1.3345  1.9373  0.5189
17702TIP3   OH274596   0.317   6.141  14.414 -1.0605  0.0013 -0.7473
17702TIP3    H174597   0.333   6.064  14.468 -0.1118  1.0782  0.5711
17702TIP3    H274598   0.392   6.199  14.432 -2.4933  1.8684 -0.5136
17703TIP3   OH274599   2.140   1.622   5.020  0.2998  0.6334 -0.7586
17703TIP3    H174600   2.164   1.529   5.027  1.1801  0.8757 -0.3138
17703TIP3    H274601   2.195   1.655   4.950  0.5088  0.9703 -0.4386
17704TIP3   OH274602   0.441   0.030  16.716  0.4566  0.4434 -0.3190
17704TIP3    H174603   0.400   0.042  16.801 -3.4412  0.9998 -2.0601
17704TIP3    H274604   0.420  -0.060  16.692  0.1272  0.7735 -1.3160
17705TIP3   OH274605   6.377   1.110  14.353  0.0252  0.1434 -0.0869
17705TIP3    H174606   6.428   1.075  14.280  0.5763  0.6335  0.0536
17705TIP3    H274607   6.436   1.102  14.429 -0.2375  0.3940  0.1444
17706TIP3   OH274608   0.445   0.038  14.245 -0.3807 -0.3329  0.1071
17706TIP3    H174609   0.371  -0.022  14.232 -0.3739 -0.2841 -0.1527
17706TIP3    H274610   0.459   0.078  14.159  0.2204 -0.6543  0.0456
17707TIP3   OH274611   6.279   4.297   4.160  0.5180  0.8285  0.4048
17707TIP3    H174612   6.204   4.264   4.209  1.5407 -0.9320  0.8628
17707TIP3    H274613   6.250   4.295   4.068  0.0790 -0.1317  0.5454
17708TIP3   OH274614   1.985   4.903   5.345  0.0063  0.1008 -0.3511
17708TIP3    H174615   2.052   4.923   5.410 -1.4047 -2.0711  1.9909
17708TIP3    H274616   1.904   4.935   5.384 -0.7400 -0.1622 -1.6244
17709TIP3   OH274617   3.372   0.444  17.031 -0.4672 -0.3053 -0.4171
17709TIP3    H174618   3.406   0.361  17.001  0.6392  0.1658 -0.4875
17709TIP3    H274619   3.327   0.423  17.114 -0.7058 -1.0491 -0.7293
17710TIP3   OH274620   3.840   1.967   5.123  0.8119 -0.2139  0.2909
17710TIP3    H174621   3.895   2.038   5.091  0.7303 -0.2741  0.0130
17710TIP3    H274622   3.829   1.909   5.048 -0.2326  0.1726  0.1262
17711TIP3   OH274623   3.872   6.740   3.812 -0.0597 -0.5028  0.1045
17711TIP3    H174624   3.885   6.715   3.903 -0.3922  1.5791  0.7637
17711TIP3    H274625   3.870   6.836   3.812 -1.5563 -0.4474 -1.8724
17712TIP3   OH274626   4.205   0.758  14.309 -0.0263  0.0731  0.4403
17712TIP3    H174627   4.251   0.786  14.388 -0.0455 -2.2683  1.3439
17712TIP3    H274628   4.116   0.738  14.339 -0.4927  0.6145 -0.5087
17713TIP3   OH274629   1.708   2.971  11.401 -0.4655 -0.4697  0.8748
17713TIP3    H174630   1.629   2.939  11.445 -0.3089 -0.3450  1.2531
17713TIP3    H274631   1.687   3.061  11.376 -0.2384 -0.2342  1.5073
17714TIP3   OH274632   5.911   5.204   2.483  0.2338 -0.0404 -0.5129
17714TIP3    H174633   6.005   5.197   2.469  0.4202  1.0164  0.0923
17714TIP3    H274634   5.892   5.140   2.552  0.5625 -0.0471 -0.4271
17715TIP3   OH274635   0.999   5.649   3.796 -0.1278 -0.2649 -1.0000
17715TIP3    H174636   0.933   5.715   3.780 -0.0486 -0.4194 -2.0150
17715TIP3    H274637   0.949   5.568   3.811 -0.2084 -0.0737 -0.1567
17716TIP3   OH274638   3.115   3.413  14.025 -0.1262  0.2659  0.7996
17716TIP3    H174639   3.028   3.438  14.055 -0.5865  0.9647 -1.0478
17716TIP3    H274640   3.134   3.472  13.952  0.0039 -2.7174 -1.7705
17717TIP3   OH274641   3.980   3.529  13.742 -0.0876  0.2814 -0.3054
17717TIP3    H174642   3.894   3.530  13.702  0.3215 -0.8552 -1.2975
17717TIP3    H274643   4.040   3.553  13.672  0.3931  1.5411  0.4920
17718TIP3   OH274644   1.754   4.540  11.971  0.1312  0.3280  0.8751
17718TIP3    H174645   1.823   4.514  11.911 -0.2622 -1.1065  1.0061
17718TIP3    H274646   1.747   4.467  12.033 -2.6669 -0.4028 -0.1557
17719TIP3   OH274647   5.233   1.299   5.133  0.7143 -0.0836 -0.2168
17719TIP3    H174648   5.277   1.224   5.172  0.1638  0.3916  1.4013
17719TIP3    H274649   5.144   1.268   5.116  0.8521 -0.1796 -0.7861
17720TIP3   OH274650   3.233   2.580  16.991  0.0872  0.0773  0.0954
17720TIP3    H174651   3.212   2.663  17.034  1.7260  0.9094 -0.5878
17720TIP3    H274652   3.191   2.513  17.045  0.3420  1.2266  1.7899
17721TIP3   OH274653   5.837   4.269   0.577 -0.7637  0.2381  0.4705
17721TIP3    H174654   5.919   4.318   0.570  0.5435 -1.5524  1.9967
17721TIP3    H274655   5.808   4.285   0.667 -0.9177 -0.8160  0.6238
17722TIP3   OH274656   2.327   5.845   1.869  0.1148 -0.3508 -0.5257
17722TIP3    H174657   2.239   5.843   1.905  0.0013  3.5447 -0.1661
17722TIP3    H274658   2.383   5.822   1.943 -0.5063 -0.5666 -0.1150
17723TIP3   OH274659   3.062   6.452   2.853 -0.4368  0.2520  0.3560
17723TIP3    H174660   3.009   6.385   2.896  1.2489 -1.7041 -0.4360
17723TIP3    H274661   3.016   6.535   2.871 -2.1777 -0.9948  2.0402
17724TIP3   OH274662   2.754   6.339  12.171  0.3689  0.0884 -0.4616
17724TIP3    H174663   2.799   6.401  12.229  0.0766 -0.3102  0.2057
17724TIP3    H274664   2.674   6.385  12.145 -0.6273 -0.5665  1.2899
17725TIP3   OH274665   3.554   0.712  16.983 -0.5766  0.6615 -0.2769
17725TIP3    H174666   3.493   0.640  16.966  1.2908 -1.0871  0.0975
17725TIP3    H274667   3.577   0.744  16.895 -0.1640 -0.3239 -0.5436
17726TIP3   OH274668   5.512   6.430   4.293 -0.1548 -0.3673  0.2768
17726TIP3    H174669   5.433   6.446   4.345  0.2607 -1.1668  1.1877
17726TIP3    H274670   5.580   6.482   4.334  0.0733 -0.6520  0.2664
17727TIP3   OH274671   0.937   6.288  13.610 -0.4338 -0.3802 -0.0173
17727TIP3    H174672   1.002   6.250  13.551 -0.0859  0.9879 -0.5660
17727TIP3    H274673   0.905   6.365  13.563 -0.6127  0.3816  1.3216
17728TIP3   OH274674   0.349   6.649   0.923  0.2498 -0.1145  0.0313
17728TIP3    H174675   0.321   6.562   0.894  2.4900 -0.6630 -0.7653
17728TIP3    H274676   0.276   6.683   0.974 -1.9305 -1.1865 -2.1827
17729TIP3   OH274677   1.622   3.040  13.929 -0.1851 -0.4690 -0.3556
17729TIP3    H174678   1.672   3.043  13.848 -1.1041 -1.8662 -1.0254
17729TIP3    H274679   1.677   3.084  13.994  0.0142  1.8737 -1.9983
17730TIP3   OH274680   1.447   1.073  16.320  0.1740 -0.4042  0.2277
17730TIP3    H174681   1.472   1.095  16.410  1.6228 -2.3496  0.3551
17730TIP3    H274682   1.352   1.080  16.320  0.1682  0.0479  1.7962
17731TIP3   OH274683   0.731   6.681  13.364 -0.0800  0.0209  0.3266
17731TIP3    H174684   0.768   6.694  13.277  0.8673  0.6545  0.8148
17731TIP3    H274685   0.696   6.767  13.389 -1.6536 -0.4901 -0.0006
17732TIP3   OH274686   0.828   4.389  13.207 -0.0995 -0.2196 -0.4593
17732TIP3    H174687   0.895   4.322  13.222  0.8078 -0.1313 -3.4848
17732TIP3    H274688   0.751   4.341  13.177 -0.0875 -0.0540 -0.7614
17733TIP3   OH274689   1.621   3.525  14.842  0.3647 -0.5879 -0.2468
17733TIP3    H174690   1.572   3.574  14.776 -0.2387 -1.3131 -0.3626
17733TIP3    H274691   1.712   3.549  14.828  0.0962  0.4172 -0.3569
17734TIP3   OH274692   3.460   6.584   2.357  0.0636 -0.0878 -0.1075
17734TIP3    H174693   3.367   6.599   2.345 -0.1981  0.8677  2.4129
17734TIP3    H274694   3.498   6.593   2.270 -1.8894  2.0817 -0.8308
17735TIP3   OH274695   0.914   5.637   5.803  0.2312  0.0373  0.6664
17735TIP3    H174696   0.934   5.567   5.865 -0.3574  0.1926  1.0472
17735TIP3    H274697   0.960   5.613   5.723  1.5750  0.1981  1.3741
17736TIP3   OH274698   1.130   3.001  11.114  0.2025 -0.8293 -0.2808
17736TIP3    H174699   1.172   2.969  11.034 -0.3388 -1.2852 -0.3873
17736TIP3    H274700   1.037   3.001  11.094 -0.0319 -2.0050  0.7263
17737TIP3   OH274701   6.476   1.321  13.899 -0.6644 -0.4529  0.3090
17737TIP3    H174702   6.422   1.399  13.909 -0.0321 -0.2793  3.6064
17737TIP3    H274703   6.459   1.270  13.979  2.7646 -1.1654  0.7564
17738TIP3   OH274704   4.207   6.035   4.319 -0.4636 -0.2756 -0.4205
17738TIP3    H174705   4.227   6.032   4.413  0.9999 -0.7366 -0.7255
17738TIP3    H274706   4.292   6.027   4.276 -1.0711  0.4043 -1.7954
17739TIP3   OH274707   0.983   1.078  15.519  0.6119  0.1998  0.3674
17739TIP3    H174708   0.889   1.093  15.530  0.1155 -2.2389  0.0695
17739TIP3    H274709   1.021   1.104  15.603 -0.5555 -0.2714  1.0752
17740TIP3   OH274710   6.506   3.982   2.114  0.5555  0.2366 -0.1865
17740TIP3    H174711   6.570   4.053   2.120 -1.4736  2.0400  1.4675
17740TIP3    H274712   6.427   4.023   2.079 -0.0604 -1.7045 -1.2345
17741TIP3   OH274713   1.745   0.850   5.605 -0.2212 -0.9025 -0.3185
17741TIP3    H174714   1.662   0.870   5.563 -0.2215 -0.2055 -0.0031
17741TIP3    H274715   1.730   0.871   5.698  0.6474  0.3489 -0.4381
17742TIP3   OH274716   2.250   5.016   4.605  0.3706  0.4342  0.1188
17742TIP3    H174717   2.310   4.986   4.673  1.0637  0.3451 -0.5227
17742TIP3    H274718   2.284   4.978   4.524 -0.6745  0.2085 -0.2321
17743TIP3   OH274719   0.814   6.676  15.102  0.2057 -0.0835  0.1104
17743TIP3    H174720   0.826   6.663  15.196 -0.6143 -0.5191  0.1631
17743TIP3    H274721   0.726   6.713  15.094 -0.5001 -1.8406 -0.6107
17744TIP3   OH274722   4.023   2.656  15.720  0.3097 -0.1714  0.1454
17744TIP3    H174723   4.006   2.599  15.794  0.6408  0.1196  0.4485
17744TIP3    H274724   4.059   2.736  15.758  0.0269  0.1682 -0.2895
17745TIP3   OH274725   1.226   0.604  11.535 -0.5957 -0.2796 -0.3886
17745TIP3    H174726   1.294   0.624  11.599  0.2054 -1.5664 -0.7998
17745TIP3    H274727   1.266   0.541  11.476 -1.9041 -0.4818 -1.1059
17746TIP3   OH274728   4.902   5.333   1.116  0.2348  0.2590  0.0656
17746TIP3    H174729   4.996   5.321   1.123  0.4478  2.4403  2.2601
17746TIP3    H274730   4.869   5.321   1.205 -1.5229 -0.0684 -0.5783
17747TIP3   OH274731   3.039   2.279  16.702 -0.8360 -0.0494 -0.2563
17747TIP3    H174732   3.043   2.201  16.758  2.0752 -0.7088 -1.2002
17747TIP3    H274733   2.972   2.334  16.743 -0.5215 -1.5118  2.5074
17748TIP3   OH274734   1.764   2.169  16.502 -0.2521  0.8722  0.2505
17748TIP3    H174735   1.736   2.122  16.581 -0.2743  0.5698  0.0682
17748TIP3    H274736   1.858   2.151  16.496  0.1678  2.5496  1.3038
17749TIP3   OH274737   6.169   6.076  14.355  0.3771 -0.4196  0.0940
17749TIP3    H174738   6.209   5.992  14.334 -0.0044 -0.8368  0.9730
17749TIP3    H274739   6.229   6.117  14.418  0.2116 -0.3531  0.2108
17750TIP3   OH274740   4.037   5.111  11.723 -0.4618  0.4716 -1.0234
17750TIP3    H174741   4.070   5.080  11.639  1.2983 -0.4707 -0.0453
17750TIP3    H274742   3.979   5.041  11.754 -0.6359  0.5495 -1.1692
17751TIP3   OH274743   3.262   3.901   2.575 -0.3467 -0.6140  0.1311
17751TIP3    H174744   3.236   3.839   2.643 -2.5233 -0.7776 -0.7582
17751TIP3    H274745   3.315   3.966   2.620  0.0992 -1.9045  1.5345
17752TIP3   OH274746   6.182   0.033   2.263  0.0439  0.3360 -0.5351
17752TIP3    H174747   6.276   0.032   2.245  0.0931 -0.3913 -0.2993
17752TIP3    H274748   6.151   0.116   2.228  0.7219  0.4377 -0.9046
17753TIP3   OH274749   3.543   5.661   3.487 -0.1497  0.0220  0.2639
17753TIP3    H174750   3.580   5.574   3.500 -0.5565 -0.4311 -1.3672
17753TIP3    H274751   3.454   5.654   3.522  0.5333  0.4898  2.2243
17754TIP3   OH274752   4.362   3.076  16.621  0.7682 -0.0609  0.0420
17754TIP3    H174753   4.305   3.019  16.570  1.8323 -0.9512 -0.1984
17754TIP3    H274754   4.327   3.164  16.608 -1.2285 -0.6846  0.8445
17755TIP3   OH274755   5.380   4.105   3.802  0.2679  0.0252 -0.0859
17755TIP3    H174756   5.390   4.013   3.827  1.8825  0.1295 -0.2171
17755TIP3    H274757   5.327   4.103   3.723  1.2972 -0.9129 -0.7770
17756TIP3   OH274758   4.527   6.166  16.665 -0.4016  0.0782 -0.2865
17756TIP3    H174759   4.456   6.143  16.606 -1.0086 -0.3436  0.5780
17756TIP3    H274760   4.505   6.253  16.697 -1.3002 -0.5932  1.0417
17757TIP3   OH274761   1.971   4.279  15.162  0.4192  0.1150  0.1611
17757TIP3    H174762   2.031   4.354  15.165 -0.4753  0.8094  1.6644
17757TIP3    H274763   1.900   4.308  15.104 -0.1576  0.6390  1.1049
17758TIP3   OH274764   1.001   1.271  16.558  0.2074 -0.3333 -0.1310
17758TIP3    H174765   0.997   1.182  16.593 -1.1433 -0.0544  0.4895
17758TIP3    H274766   0.948   1.323  16.618  0.1398  0.6954 -1.0485
17759TIP3   OH274767   4.018   4.700  14.406 -0.1953 -0.1701 -0.3111
17759TIP3    H174768   3.968   4.619  14.417 -1.7530  0.1742 -3.7250
17759TIP3    H274769   3.955   4.770  14.422  0.5862  0.3707  0.4927
17760TIP3   OH274770   2.879   4.753  14.661 -0.2175  0.1434  0.0256
17760TIP3    H174771   2.946   4.821  14.651 -1.0410  1.0894  0.7722
17760TIP3    H274772   2.836   4.749  14.575  1.9251 -1.7537 -1.0559
17761TIP3   OH274773   0.190   6.130   4.204 -0.0618 -0.7825  0.7214
17761TIP3    H174774   0.281   6.117   4.178 -0.2954  1.4976 -1.7426
17761TIP3    H274775   0.140   6.075   4.143 -0.4301  1.3217 -1.0082
17762TIP3   OH274776   1.326   4.916   2.828 -0.1611  0.3597 -0.2423
17762TIP3    H174777   1.333   4.949   2.917  1.9547 -0.5000 -0.0253
17762TIP3    H274778   1.416   4.898   2.802 -0.8709 -1.0651 -1.9223
17763TIP3   OH274779   3.056   5.449  11.793 -0.2404  0.4553 -0.2078
17763TIP3    H174780   2.969   5.410  11.801  0.2300 -0.4809  0.4826
17763TIP3    H274781   3.039   5.538  11.764 -1.4189  0.2069 -0.3476
17764TIP3   OH274782   6.775   6.040  16.241 -0.4856  0.1680 -0.3361
17764TIP3    H174783   6.850   6.007  16.290 -1.3151 -2.3917 -0.6611
17764TIP3    H274784   6.728   6.095  16.304  0.4646  0.0133  0.5389
17765TIP3   OH274785   2.938   1.718  15.476 -0.7387 -0.4289 -0.0094
17765TIP3    H174786   2.897   1.804  15.470  0.6123  0.4568  2.4043
17765TIP3    H274787   2.869   1.660  15.507 -1.8866 -0.5027 -2.4325
17766TIP3   OH274788   5.812   1.343   1.210  0.2032 -0.1713  0.1095
17766TIP3    H174789   5.834   1.250   1.201  2.1039  0.3124 -0.5796
17766TIP3    H274790   5.806   1.357   1.305  1.8812 -0.5898  0.3079
17767TIP3   OH274791   2.415   4.581   1.619 -0.5747 -0.2051 -0.3810
17767TIP3    H174792   2.412   4.567   1.525 -1.0639 -0.0205 -0.3951
17767TIP3    H274793   2.406   4.494   1.658  0.7832 -0.4311 -0.5060
17768TIP3   OH274794   6.139   1.146   0.967  0.3677  0.8719 -0.6604
17768TIP3    H174795   6.144   1.065   1.019  2.0673 -0.1719 -2.3202
17768TIP3    H274796   6.191   1.127   0.889  1.8431  4.0052 -0.5742
17769TIP3   OH274797   0.961   2.165  14.104  0.1436 -0.0665  0.5235
17769TIP3    H174798   0.905   2.243  14.101  0.5334  0.2365  1.0203
17769TIP3    H274799   1.050   2.200  14.114  0.5067 -0.5140 -0.8722
17770TIP3   OH274800   1.016   3.587   2.632  0.3949  0.1992 -0.2262
17770TIP3    H174801   0.937   3.638   2.612 -0.7409 -1.4309 -0.1502
17770TIP3    H274802   1.065   3.586   2.550  0.6810  1.7512 -0.1091
17771TIP3   OH274803   1.408   0.704   0.036 -0.0846  0.1030  0.8398
17771TIP3    H174804   1.402   0.613   0.008 -0.5979 -0.0416  1.3819
17771TIP3    H274805   1.443   0.699   0.126  0.0700  0.4516  0.8016
17772TIP3   OH274806   2.990   5.666  16.594 -0.2558  0.8447  0.0648
17772TIP3    H174807   2.938   5.737  16.558  0.1176  0.3730 -1.4721
17772TIP3    H274808   2.940   5.635  16.669 -0.3093  2.8622  0.9226
17773TIP3   OH274809   5.392   0.891  14.495 -0.8151  0.1971  0.4382
17773TIP3    H174810   5.312   0.944  14.499 -0.4931  0.7190 -0.0265
17773TIP3    H274811   5.460   0.951  14.465 -0.5849 -0.6210 -0.7381
17774TIP3   OH274812   2.963   4.584   2.880 -0.6116 -0.0353 -0.1555
17774TIP3    H174813   3.022   4.524   2.926  0.5969  0.0240 -1.5464
17774TIP3    H274814   2.962   4.662   2.935 -0.5353 -0.5577  0.6075
17775TIP3   OH274815   2.191   3.277   3.235 -0.3677  0.1673  0.0333
17775TIP3    H174816   2.221   3.188   3.213  1.6752  0.4933  1.2467
17775TIP3    H274817   2.191   3.279   3.330 -1.9796  0.9949  0.0330
17776TIP3   OH274818   1.233   4.305   2.012 -0.3255  0.0590 -0.3531
17776TIP3    H174819   1.272   4.325   2.097 -1.6530 -0.4359  0.4103
17776TIP3    H274820   1.200   4.390   1.981 -0.0068  0.2120 -0.2745
17777TIP3   OH274821   0.430   5.823  16.118 -0.4947 -0.3561 -0.3093
17777TIP3    H174822   0.390   5.821  16.032 -0.6976  2.2604 -0.3531
17777TIP3    H274823   0.386   5.895  16.164  0.1271 -1.1787  1.7215
17778TIP3   OH274824   1.091   4.020   0.499  0.3796 -0.8711  0.2901
17778TIP3    H174825   1.122   4.110   0.503  0.3517 -0.7385 -1.7173
17778TIP3    H274826   1.007   4.024   0.454  1.3124 -2.0567 -1.6901
17779TIP3   OH274827   6.100   1.915   4.183 -0.0767  0.1117  0.0590
17779TIP3    H174828   6.056   1.996   4.158 -1.2898 -0.7871 -0.8548
17779TIP3    H274829   6.104   1.864   4.102  1.5721 -0.3489  0.3918
17780TIP3   OH274830   0.893   3.885   1.728 -0.0745  0.7326 -0.1832
17780TIP3    H174831   0.985   3.909   1.713 -0.4565  1.7036 -1.1433
17780TIP3    H274832   0.851   3.900   1.643 -0.8085 -1.2992 -0.2208
17781TIP3   OH274833   1.554   5.376   4.890 -0.1536  0.1108  0.2237
17781TIP3    H174834   1.576   5.466   4.913 -0.5239  0.1898  0.2763
17781TIP3    H274835   1.462   5.380   4.861 -0.5625 -0.4415  1.3789
17782TIP3   OH274836   1.640   2.375   1.265 -0.7005  0.3921 -0.2509
17782TIP3    H174837   1.632   2.330   1.349  0.1583  2.3876  0.9580
17782TIP3    H274838   1.566   2.436   1.263  1.7855  3.7456  1.3332
17783TIP3   OH274839   6.051   1.349   5.904 -0.0396  0.3836 -0.1433
17783TIP3    H174840   6.129   1.293   5.902 -0.0699  0.3505 -0.4633
17783TIP3    H274841   5.987   1.297   5.953  0.1521  0.4338  0.1690
17784TIP3   OH274842   4.171   3.491  13.546 -0.5164 -0.0999  0.3540
17784TIP3    H174843   4.248   3.546  13.556 -0.4315 -0.0681 -0.4285
17784TIP3    H274844   4.203   3.413  13.501 -0.5354 -1.0321  1.8585
17785TIP3   OH274845   3.801   6.533  15.473  0.1724 -0.4437  0.0653
17785TIP3    H174846   3.782   6.623  15.499  1.5404 -0.0374 -0.2363
17785TIP3    H274847   3.870   6.504  15.533 -0.9361 -1.6608  0.8039
17786TIP3   OH274848   2.999   3.757   0.790 -0.3339  0.0067  0.1962
17786TIP3    H174849   2.925   3.813   0.766  0.6239  1.2941  0.1655
17786TIP3    H274850   3.016   3.778   0.882  0.8764  0.7837 -0.1862
17787TIP3   OH274851   4.210   6.319  13.130 -0.3198  0.3347  0.1166
17787TIP3    H174852   4.289   6.370  13.148  1.0096 -1.3786 -0.5379
17787TIP3    H274853   4.148   6.383  13.094  0.9586  1.6289  0.1099
17788TIP3   OH274854   3.336   2.155   2.910 -0.0239  0.1603  0.1955
17788TIP3    H174855   3.272   2.196   2.852 -0.9602 -1.4647 -0.0065
17788TIP3    H274856   3.305   2.064   2.918  1.7574 -0.4235  0.8543
17789TIP3   OH274857   6.688   3.910   2.772 -0.4552  0.0611  0.6226
17789TIP3    H174858   6.694   3.823   2.732 -0.0075  0.3066  0.1564
17789TIP3    H274859   6.611   3.949   2.732 -0.1789  0.1934  0.2228
17790TIP3   OH274860   5.025   5.912  13.156 -0.5477 -0.0059 -0.1811
17790TIP3    H174861   5.054   6.003  13.156 -1.4361  0.2959  0.8066
17790TIP3    H274862   4.955   5.908  13.092 -1.5743  0.3883  0.8820
17791TIP3   OH274863   3.903   5.207   3.856  0.1751  0.3590  0.4788
17791TIP3    H174864   3.940   5.120   3.868  0.7364  0.1901 -1.9166
17791TIP3    H274865   3.949   5.242   3.779 -0.7915  2.3399  0.7427
17792TIP3   OH274866   3.273   4.240   4.309 -0.1551 -0.3741  0.7316
17792TIP3    H174867   3.306   4.317   4.356  0.9208 -0.6954  0.5279
17792TIP3    H274868   3.279   4.264   4.217  0.8133 -0.9319  0.6383
17793TIP3   OH274869   0.280   1.832   1.473 -0.0504 -0.7634 -0.6764
17793TIP3    H174870   0.345   1.854   1.540  1.6843 -2.2045 -1.7779
17793TIP3    H274871   0.286   1.903   1.409 -0.5882 -0.1786 -0.0865
17794TIP3   OH274872   0.930   0.618  11.756  0.0192 -0.0533 -0.7903
17794TIP3    H174873   0.849   0.577  11.787  0.6603 -0.4066  0.4728
17794TIP3    H274874   0.904   0.707  11.733 -1.0150 -0.5910 -1.7886
17795TIP3   OH274875   0.326   3.412   1.237 -0.2804 -0.3386  0.2926
17795TIP3    H174876   0.374   3.488   1.269 -0.9478  0.0818  0.3197
17795TIP3    H274877   0.296   3.368   1.317 -0.3927 -0.3085  0.2662
17796TIP3   OH274878   4.364   3.035  13.107 -0.6806 -0.3956  0.7844
17796TIP3    H174879   4.383   3.093  13.034  2.2546  0.2623  1.9287
17796TIP3    H274880   4.348   2.950  13.066 -3.0469  0.6936 -0.7776
17797TIP3   OH274881   0.665   6.054  16.854 -0.3381 -0.2807  0.6538
17797TIP3    H174882   0.735   5.991  16.837  1.1679  1.3929  0.3006
17797TIP3    H274883   0.710   6.138  16.861 -2.3575  0.8919  0.2710
17798TIP3   OH274884   0.530   6.130  15.450 -0.2243 -0.1448  0.0692
17798TIP3    H174885   0.482   6.150  15.370 -0.1765  0.3081  0.1495
17798TIP3    H274886   0.517   6.037  15.463  0.8262 -0.5018 -1.1760
17799TIP3   OH274887   4.226   1.595   4.486  0.3367 -0.1650 -0.1202
17799TIP3    H174888   4.156   1.545   4.444 -0.2730  1.4261 -1.0947
17799TIP3    H274889   4.285   1.618   4.414  1.5989 -1.0379  0.6090
17800TIP3   OH274890   2.857   3.014   2.863  0.6662 -0.2851  0.2321
17800TIP3    H174891   2.769   2.993   2.892  0.8609 -0.8795  0.4072
17800TIP3    H274892   2.912   3.000   2.940  0.9736 -0.3871 -0.0030
17801TIP3   OH274893   2.413   6.348  12.878  0.2772 -0.1303 -0.1461
17801TIP3    H174894   2.388   6.436  12.852 -0.9803 -0.0071  1.3828
17801TIP3    H274895   2.342   6.292  12.847  0.1553 -0.3458  0.4964
17802TIP3   OH274896   3.999   5.870  16.147 -0.0593 -0.0743 -0.4670
17802TIP3    H174897   3.941   5.795  16.162  0.9687 -1.0317 -1.1219
17802TIP3    H274898   4.037   5.888  16.233 -0.6661  0.0228 -0.2080
17803TIP3   OH274899   0.107   3.685   5.154  0.2691  0.0218  0.0261
17803TIP3    H174900   0.098   3.643   5.068 -0.4455 -2.5168  1.2598
17803TIP3    H274901   0.202   3.693   5.166  0.3812  0.8396 -1.1449
17804TIP3   OH274902   0.299   4.090  12.221 -0.4104 -0.5043  0.2234
17804TIP3    H174903   0.372   4.042  12.260  0.9420  0.8915 -0.5124
17804TIP3    H274904   0.308   4.075  12.127 -1.8733 -1.3614  0.1839
17805TIP3   OH274905   2.879   5.032  13.681 -0.5637  0.5669 -0.4835
17805TIP3    H174906   2.821   4.983  13.740  0.5025 -1.0776 -0.7170
17805TIP3    H274907   2.828   5.044  13.601 -1.0526  0.3430 -0.2091
17806TIP3   OH274908   0.981   0.389   0.707  0.5600 -0.6058  0.0999
17806TIP3    H174909   1.001   0.344   0.789  2.1208  1.9907  1.2510
17806TIP3    H274910   0.976   0.482   0.731 -0.4129  0.1054 -2.5134
17807TIP3   OH274911   4.122   6.808   1.635 -0.3413 -0.2188  0.4095
17807TIP3    H174912   4.163   6.738   1.584  1.3480 -0.3855  1.9033
17807TIP3    H274913   4.089   6.764   1.714  1.7244  0.7444  1.8954
17808TIP3   OH274914   4.771   5.942   3.749  0.0388 -0.3035 -0.5316
17808TIP3    H174915   4.744   6.028   3.717  2.3412  0.1602 -1.3550
17808TIP3    H274916   4.730   5.936   3.836 -0.0225  1.6987 -0.3635
17809TIP3   OH274917   3.887   3.608  10.709 -0.0054  0.2504 -0.3742
17809TIP3    H174918   3.933   3.666  10.771 -0.2343 -0.3498  0.3640
17809TIP3    H274919   3.958   3.563  10.662  0.1996  1.7212 -1.5625
17810TIP3   OH274920   3.609   4.348  15.274  0.2963 -0.2136 -0.4660
17810TIP3    H174921   3.672   4.417  15.294  0.5756  0.2992 -2.8322
17810TIP3    H274922   3.552   4.345  15.351  1.4063  1.3278  0.4883
17811TIP3   OH274923   0.567   1.959   1.784 -0.1833 -0.2814 -0.0429
17811TIP3    H174924   0.563   1.892   1.717 -0.5304 -0.1375 -0.1682
17811TIP3    H274925   0.513   1.925   1.856  0.3162 -0.5060  0.2259
17812TIP3   OH274926   5.276   1.048   5.755 -0.2792 -0.2861 -0.0518
17812TIP3    H174927   5.229   0.973   5.791 -0.1777 -0.9145 -1.1887
17812TIP3    H274928   5.353   1.058   5.812 -0.8461 -0.3682  0.7417
17813TIP3   OH274929   5.407   4.952  10.652 -0.1213  0.2054 -0.1154
17813TIP3    H174930   5.431   4.949  10.559  1.3593  0.0634  0.2506
17813TIP3    H274931   5.398   5.045  10.671 -0.4893  0.2331 -0.4154
17814TIP3   OH274932   1.239   0.681  10.248  0.4739 -0.5848 -0.5679
17814TIP3    H174933   1.296   0.646  10.317 -0.5719  0.0995  0.6831
17814TIP3    H274934   1.180   0.609  10.226  0.3275 -0.5664 -0.2257
17815TIP3   OH274935   5.468   5.107   4.715 -0.1461  0.2395 -0.2051
17815TIP3    H174936   5.381   5.068   4.710 -0.3357  0.7654 -1.4000
17815TIP3    H274937   5.528   5.032   4.713 -0.5403 -0.0695 -0.6873
17816TIP3   OH274938   4.037   1.360  17.119  0.1508 -0.3694 -0.0385
17816TIP3    H174939   4.014   1.321  17.035  0.3817  2.3082 -1.4579
17816TIP3    H274940   4.122   1.322  17.141 -0.1812 -1.5338 -0.6918
17817TIP3   OH274941   3.515   4.525   3.687 -0.5877 -0.2316  0.3080
17817TIP3    H174942   3.541   4.433   3.694 -1.3471 -0.7033 -2.2250
17817TIP3    H274943   3.585   4.566   3.637 -1.0256  0.2235  0.0638
17818TIP3   OH274944   2.875   1.871  11.557  0.1286  0.3816 -0.2677
17818TIP3    H174945   2.903   1.783  11.532 -0.7736 -0.4437  1.4961
17818TIP3    H274946   2.831   1.860  11.641 -2.1672  2.1755 -1.1404
17819TIP3   OH274947   1.140   2.728  14.918 -0.1117  0.3343 -0.0461
17819TIP3    H174948   1.181   2.664  14.976 -0.4734 -0.5479 -0.7563
17819TIP3    H274949   1.052   2.740  14.954 -0.2420 -0.0066 -0.2473
17820TIP3   OH274950   0.213   2.066  13.171 -0.1067  0.6997 -0.4808
17820TIP3    H174951   0.220   1.999  13.239  2.6236  1.4904  0.1266
17820TIP3    H274952   0.244   2.024  13.091 -0.3198  0.6658 -0.5459
17821TIP3   OH274953   3.063   2.790   6.666  0.7512 -0.1372  0.6337
17821TIP3    H174954   3.138   2.737   6.639 -0.1538 -1.3273  0.3541
17821TIP3    H274955   2.987   2.741   6.634 -0.0986  2.2837 -1.3375
17822TIP3   OH274956   0.155   0.302  16.691  0.0112  0.4282  0.0354
17822TIP3    H174957   0.137   0.208  16.686 -1.2886  0.6637  0.0284
17822TIP3    H274958   0.134   0.335  16.603 -0.2908  0.8511  0.2641
17823TIP3   OH274959   3.153   3.591  15.075  0.3736 -0.2080  0.2368
17823TIP3    H174960   3.186   3.671  15.117  0.5073  0.0073 -0.2696
17823TIP3    H274961   3.088   3.557  15.136  0.3073  0.2970  0.4551
17824TIP3   OH274962   3.211   5.594   4.224  0.1974  0.0303  0.1427
17824TIP3    H174963   3.258   5.537   4.286 -3.0605 -0.2153  2.6483
17824TIP3    H274964   3.214   5.681   4.264 -0.6867  0.1754 -0.0782
17825TIP3   OH274965   1.805   3.785  12.537  0.0141 -0.2311 -0.0120
17825TIP3    H174966   1.722   3.741  12.521  0.2498 -0.2043 -1.4635
17825TIP3    H274967   1.823   3.771  12.630 -1.5203 -0.3699  0.2854
17826TIP3   OH274968   1.821   1.333   0.013 -0.3460  0.1649  0.3906
17826TIP3    H174969   1.866   1.334  -0.072 -0.5680 -1.5258  0.2184
17826TIP3    H274970   1.775   1.249   0.014 -1.4413  0.7492  1.6338
17827TIP3   OH274971   3.162   2.204  12.189 -0.0592  0.3040 -0.3689
17827TIP3    H174972   3.166   2.117  12.228  2.3101  0.5932  0.1877
17827TIP3    H274973   3.114   2.257  12.253 -0.0995 -0.2382  0.0590
17828TIP3   OH274974   3.865   5.585   5.055 -0.5055 -0.1200 -0.3924
17828TIP3    H174975   3.785   5.542   5.025  0.5956 -1.2838 -1.8238
17828TIP3    H274976   3.908   5.518   5.109 -1.5282  1.2854  2.3776
17829TIP3   OH274977   2.392   2.064   2.891  0.2755 -0.2474  0.1421
17829TIP3    H174978   2.327   2.028   2.831 -0.9972 -1.6987  2.2740
17829TIP3    H274979   2.363   2.154   2.906 -0.2888 -0.3711 -0.1918
17830TIP3   OH274980   3.055   6.821   4.961  0.0050  0.4940  0.3547
17830TIP3    H174981   3.091   6.736   4.987 -0.5573  0.6424  1.7299
17830TIP3    H274982   2.969   6.800   4.925  0.3043  0.3898 -0.3043
17831TIP3   OH274983   3.966   2.296   3.184 -0.3427 -0.3974 -0.4540
17831TIP3    H174984   3.892   2.298   3.124 -0.0169  0.9100 -0.8269
17831TIP3    H274985   3.984   2.387   3.204 -0.6030 -0.7859  1.8414
17832TIP3   OH274986   2.535   1.426   1.192 -0.4290 -0.1106  0.3935
17832TIP3    H174987   2.600   1.358   1.177  0.2675  0.6958 -0.3938
17832TIP3    H274988   2.552   1.456   1.281  1.4609  1.2377 -0.3316
17833TIP3   OH274989   0.879   1.130   1.717 -0.1119  0.1387  0.2913
17833TIP3    H174990   0.848   1.055   1.666  1.7745  0.2517 -1.0948
17833TIP3    H274991   0.972   1.135   1.698  0.0411  2.0820  1.3672
17834TIP3   OH274992   6.756   6.454   4.754 -0.4118  0.2886  0.1579
17834TIP3    H174993   6.765   6.451   4.849 -0.8385  0.0207  0.1952
17834TIP3    H274994   6.837   6.494   4.723 -0.0963  0.0014  0.6059
17835TIP3   OH274995   4.701   2.687   1.181 -0.3691 -0.4225 -0.2612
17835TIP3    H174996   4.636   2.706   1.249 -1.7496 -1.2934 -1.2933
17835TIP3    H274997   4.662   2.723   1.101 -1.2193 -3.8614 -1.5393
17836TIP3   OH274998   1.854   2.626  15.686  0.0911 -0.4724  0.6338
17836TIP3    H174999   1.871   2.696  15.622  1.9493 -0.1615  1.4054
17836TIP3    H275000   1.874   2.546  15.638 -0.1613 -0.3603  0.3314
17837TIP3   OH275001   2.677   5.323   5.674 -0.1970  0.0428  0.2258
17837TIP3    H175002   2.743   5.265   5.713  0.3916 -0.9390 -2.0649
17837TIP3    H275003   2.604   5.319   5.736  1.6358  0.8174  2.6254
17838TIP3   OH275004   0.413   2.998  17.027  0.1297  0.1612 -0.0414
17838TIP3    H175005   0.419   3.048  16.945  0.2789 -1.2512 -0.9153
17838TIP3    H275006   0.346   3.044  17.078  0.1603  1.1610 -0.8778
17839TIP3   OH275007   3.542   0.691   0.441 -0.0882  0.4172 -0.1476
17839TIP3    H175008   3.601   0.671   0.368  1.7101  0.1623  1.3094
17839TIP3    H275009   3.599   0.728   0.508 -1.4058 -0.8227  1.7428
17840TIP3   OH275010   3.222   5.683  13.697 -0.7591  0.4925 -0.1882
17840TIP3    H175011   3.203   5.775  13.715 -1.4725  0.8313 -2.3736
17840TIP3    H275012   3.289   5.685  13.628 -0.3404 -0.6521  0.1550
17841TIP3   OH275013   0.093   0.620   4.665  0.0194 -0.2805 -0.0586
17841TIP3    H175014   0.140   0.634   4.748  0.4611  2.2818 -0.6549
17841TIP3    H275015   0.036   0.697   4.657  0.9686  0.2281 -2.7397
17842TIP3   OH275016   1.481   6.142   3.554  0.2594 -0.1050 -0.7681
17842TIP3    H175017   1.456   6.058   3.516 -1.0388  0.1769 -0.5565
17842TIP3    H275018   1.462   6.207   3.486 -1.4337  0.3238  0.0635
17843TIP3   OH275019   0.712   0.191  15.132  0.2355  0.0917 -0.1201
17843TIP3    H175020   0.761   0.243  15.068  0.2153  0.3254  0.0539
17843TIP3    H275021   0.664   0.127  15.080 -1.0539  1.3050 -0.4686
17844TIP3   OH275022   6.832   4.152  15.525  0.2424  0.8231  0.1307
17844TIP3    H175023   6.896   4.084  15.550 -0.8704 -0.5150 -0.5205
17844TIP3    H275024   6.838   4.156  15.429 -3.0377 -1.9027 -0.3515
17845TIP3   OH275025   2.845   5.560   1.170  0.0860  0.2012  0.5616
17845TIP3    H175026   2.847   5.518   1.084 -0.8662  1.4170 -0.0877
17845TIP3    H275027   2.782   5.508   1.221  0.0218 -0.0320  0.2454
17846TIP3   OH275028   2.314   4.153   0.798  0.5140  0.3186 -0.0608
17846TIP3    H175029   2.341   4.065   0.773  0.1652 -0.5286  2.3777
17846TIP3    H275030   2.230   4.141   0.842  0.8017  1.7720  0.9536
17847TIP3   OH275031   1.339   4.588   2.506  0.3844 -0.2165  0.1056
17847TIP3    H175032   1.254   4.553   2.480  0.0181  0.0599  0.9019
17847TIP3    H275033   1.361   4.541   2.587  1.5407 -1.1304 -0.7134
17848TIP3   OH275034   6.563   0.421   5.711  0.0378  0.4105  0.3546
17848TIP3    H175035   6.596   0.457   5.794 -0.3752 -0.5638  0.9632
17848TIP3    H275036   6.493   0.362   5.738 -0.2496  0.2552 -0.7205
17849TIP3   OH275037   4.263   2.546   0.925 -0.3637  0.8453 -0.1602
17849TIP3    H175038   4.273   2.552   1.020 -1.0765 -1.3695  0.1165
17849TIP3    H275039   4.286   2.633   0.893  1.8904  1.1059  1.8581
17850TIP3   OH275040   6.665   6.506   3.577 -0.5156 -0.1640 -0.2088
17850TIP3    H175041   6.698   6.539   3.661 -2.5305 -0.3257  0.6873
17850TIP3    H275042   6.573   6.530   3.576 -0.5495 -0.2088 -2.3931
17851TIP3   OH275043   5.126   1.366  11.688  1.1291  0.4731  0.5580
17851TIP3    H175044   5.073   1.376  11.766  0.1120  2.3053 -0.3132
17851TIP3    H275045   5.111   1.275  11.660 -0.5660  0.5822  1.0291
17852TIP3   OH275046   0.857   1.474  15.799 -0.1413 -0.3208 -0.3548
17852TIP3    H175047   0.812   1.480  15.883 -0.0441  0.8263 -0.3659
17852TIP3    H275048   0.832   1.555  15.753 -1.1605 -1.4584 -1.9252
17853TIP3   OH275049   3.818   4.019   3.612  0.0101  0.2485 -0.3535
17853TIP3    H175050   3.799   3.999   3.520 -1.5088  0.2493 -0.0645
17853TIP3    H275051   3.743   4.070   3.641  0.3929  0.0965  0.9386
17854TIP3   OH275052   0.379   5.976   3.315 -0.1964 -0.1446 -0.2081
17854TIP3    H175053   0.409   6.001   3.403  0.4203 -0.8914 -0.2038
17854TIP3    H275054   0.318   5.904   3.331  2.3585 -2.5264 -0.5498
17855TIP3   OH275055   4.149   3.992   0.252 -0.2856  0.4931 -0.0419
17855TIP3    H175056   4.109   3.908   0.230  1.0594 -0.4623  1.0134
17855TIP3    H275057   4.225   3.999   0.195 -0.2913  0.9178 -0.0025
17856TIP3   OH275058   4.133   2.130   2.715  0.8044  0.3941  0.1364
17856TIP3    H175059   4.100   2.044   2.690 -2.7252  1.8941 -0.9243
17856TIP3    H275060   4.141   2.126   2.810 -3.7511  0.0739  0.7237
17857TIP3   OH275061   6.568   0.030   1.288  0.0251  0.5134 -0.0262
17857TIP3    H175062   6.602  -0.059   1.281 -1.4377 -0.1891  1.1143
17857TIP3    H275063   6.604   0.063   1.371 -1.4126  0.0145  0.8389
17858TIP3   OH275064   4.289   4.349   2.830  0.1555  0.1008  0.2067
17858TIP3    H175065   4.282   4.298   2.911  0.1287  0.4794  0.4480
17858TIP3    H275066   4.251   4.293   2.762 -0.0297 -0.1310  0.4994
17859TIP3   OH275067   5.050   0.265  13.582  0.3667 -0.2927 -0.0235
17859TIP3    H175068   5.119   0.258  13.516  0.6986  0.2984  0.2488
17859TIP3    H275069   5.024   0.175  13.600  0.8037 -0.4986 -0.4062
17860TIP3   OH275070   1.743   2.165   2.382  0.2353  0.0429  0.3210
17860TIP3    H175071   1.753   2.136   2.473  0.4039 -0.3457  0.1784
17860TIP3    H275072   1.830   2.195   2.357  0.3444 -0.4811  0.0698
17861TIP3   OH275073   5.605   2.831   0.755 -0.3399 -0.1346 -0.3074
17861TIP3    H175074   5.588   2.897   0.822  0.0390 -0.3793  0.0381
17861TIP3    H275075   5.560   2.863   0.677  0.6465  1.0247 -0.4252
17862TIP3   OH275076   3.495   3.063   6.394  0.2575  0.7777 -0.1156
17862TIP3    H175077   3.542   3.120   6.455 -1.9263  0.9107  1.5640
17862TIP3    H275078   3.409   3.104   6.384  0.1127  0.0766 -2.3643
17863TIP3   OH275079   4.822   6.632   4.729  0.0421 -0.1212 -0.0954
17863TIP3    H175080   4.752   6.568   4.740  0.9371 -1.1543 -0.2917
17863TIP3    H275081   4.798   6.704   4.789 -0.7453 -0.8294  0.4573
17864TIP3   OH275082   4.627   4.269  12.030 -0.3091  0.2708  0.7521
17864TIP3    H175083   4.551   4.307  12.073 -0.3333  0.4195  0.5806
17864TIP3    H275084   4.640   4.323  11.952  0.8641  1.1719  1.5411
17865TIP3   OH275085   4.995   4.399   4.640  0.1444  0.0120  0.3678
17865TIP3    H175086   4.991   4.356   4.554 -0.2049  0.2915  0.2427
17865TIP3    H275087   4.906   4.430   4.656  0.1615 -0.2153  0.9254
17866TIP3   OH275088   5.042   0.548   1.583 -0.5325 -0.5454 -0.6236
17866TIP3    H175089   4.964   0.494   1.572 -0.9336 -0.8656  2.7861
17866TIP3    H275090   5.008   0.637   1.590 -0.6266 -0.6779  0.7968
17867TIP3   OH275091   0.145   5.222  14.037 -0.2904  0.5473 -0.0076
17867TIP3    H175092   0.076   5.280  14.004  0.7157  1.8386  0.0604
17867TIP3    H275093   0.102   5.170  14.105 -1.4081  0.6856 -0.5836
17868TIP3   OH275094   5.847   3.439  12.415  0.0993  0.3332  0.6245
17868TIP3    H175095   5.820   3.391  12.494  0.6257 -1.0814 -0.0183
17868TIP3    H275096   5.804   3.392  12.343 -0.9287  2.0035  0.0771
17869TIP3   OH275097   0.181   2.320   1.962  0.5006 -0.2186  0.4237
17869TIP3    H175098   0.201   2.413   1.971 -2.2029  0.5464 -0.2845
17869TIP3    H275099   0.180   2.304   1.868  0.3743 -0.7990  0.5156
17870TIP3   OH275100   0.666   6.380   1.731 -0.1715  0.1759 -0.1320
17870TIP3    H175101   0.750   6.340   1.750 -0.9193 -1.7594 -0.7272
17870TIP3    H275102   0.604   6.334   1.787 -0.8004  1.9294  0.6939
17871TIP3   OH275103   3.664   0.090   6.842 -0.0693 -0.2742  0.1643
17871TIP3    H175104   3.689   0.182   6.848  1.8226 -0.7769  0.6286
17871TIP3    H275105   3.581   0.091   6.794  1.2327  1.5028 -2.3025
17872TIP3   OH275106   2.611   2.195   0.911  0.0925 -0.3498 -0.4253
17872TIP3    H175107   2.540   2.250   0.878 -1.3544 -1.9577 -0.1125
17872TIP3    H275108   2.579   2.105   0.901  2.5892 -1.2130 -1.4336
17873TIP3   OH275109   5.471   4.902  14.590 -0.1170  0.0640  0.5169
17873TIP3    H175110   5.457   4.973  14.527 -0.5020 -1.8914 -1.7831
17873TIP3    H275111   5.554   4.923  14.633  0.7912  0.9531 -1.5411
17874TIP3   OH275112   3.050   6.051  14.720  0.1146  0.2283 -0.2970
17874TIP3    H175113   3.094   6.011  14.645  0.3409  0.7147 -0.4246
17874TIP3    H275114   2.986   5.985  14.748 -0.7732  0.4876 -1.6122
17875TIP3   OH275115   4.133   1.442  13.171 -0.3654 -0.5132 -0.0251
17875TIP3    H175116   4.139   1.477  13.082 -1.4804  0.1209  0.1417
17875TIP3    H275117   4.125   1.347  13.158 -0.5007 -0.4284 -0.6056
17876TIP3   OH275118   1.925   1.167  11.494 -0.1248 -0.2541 -0.2898
17876TIP3    H175119   1.989   1.236  11.511 -2.0050  1.3973  0.3481
17876TIP3    H275120   1.914   1.167  11.399 -1.7643  1.9606 -0.1654
17877TIP3   OH275121   4.526   1.758   2.314  1.1026  0.0985  0.3394
17877TIP3    H175122   4.551   1.669   2.339  1.2402 -0.2131 -0.8706
17877TIP3    H275123   4.598   1.789   2.260 -0.6290 -0.5112 -2.5340
17878TIP3   OH275124   2.444   4.519  12.683  0.0752 -0.3193  0.3371
17878TIP3    H175125   2.363   4.481  12.647  0.1433  1.2948 -1.7647
17878TIP3    H275126   2.513   4.459  12.656 -0.1549 -0.3732 -0.1458
17879TIP3   OH275127   3.977   6.210   4.250  0.1234  0.2450 -0.3234
17879TIP3    H175128   3.904   6.174   4.300  1.2685 -0.6664  0.7566
17879TIP3    H275129   4.047   6.145   4.259  0.7970  0.6844 -2.0411
17880TIP3   OH275130   0.445   5.028  14.722  0.0555 -0.6399 -0.1854
17880TIP3    H175131   0.450   4.983  14.637 -0.7902 -0.5927 -0.2734
17880TIP3    H275132   0.356   5.011  14.752 -0.2386  0.8444 -0.1446
17881TIP3   OH275133   4.581   5.184  14.640  0.3117  0.3821  0.4027
17881TIP3    H175134   4.597   5.127  14.565  1.6363  0.0991  0.8680
17881TIP3    H275135   4.555   5.268  14.602 -0.9491 -0.3081 -0.3055
17882TIP3   OH275136   4.283   0.522   2.264  0.2359 -0.0258  0.1489
17882TIP3    H175137   4.350   0.462   2.233 -1.2646 -0.6219 -2.1968
17882TIP3    H275138   4.289   0.598   2.205 -0.3265  0.4555  0.6924
17883TIP3   OH275139   0.478   6.673  16.969 -0.1439 -0.2879  0.0879
17883TIP3    H175140   0.452   6.609  16.903  1.6903 -0.5146 -0.4756
17883TIP3    H275141   0.419   6.657  17.043 -1.6520 -0.6241 -1.1373
17884TIP3   OH275142   0.565   0.306  14.640 -0.5099 -0.2824 -0.5115
17884TIP3    H175143   0.477   0.308  14.601 -0.3377  0.6245 -0.8743
17884TIP3    H275144   0.563   0.375  14.706  0.3535  0.7201 -1.4882
17885TIP3   OH275145   4.203   5.259   0.972  0.0153  0.2102 -0.0196
17885TIP3    H175146   4.140   5.230   1.038 -0.6758  0.6801 -0.4528
17885TIP3    H275147   4.182   5.205   0.895  1.2028 -0.7570  0.2979
17886TIP3   OH275148   3.023   1.119  13.496 -0.5667 -0.2559  0.2788
17886TIP3    H175149   2.968   1.124  13.573  0.1582  0.3239  0.7670
17886TIP3    H275150   3.005   1.200  13.448  0.2895  0.2258  0.7468
17887TIP3   OH275151   4.550   2.798   0.655  0.0077  0.0491  0.2316
17887TIP3    H175152   4.467   2.779   0.611 -0.5102  0.3546  1.0442
17887TIP3    H275153   4.592   2.864   0.600  0.5524 -1.3879 -1.1384
17888TIP3   OH275154   6.731   4.217   5.332 -0.5010  0.1655 -0.7441
17888TIP3    H175155   6.665   4.281   5.358 -0.5056  0.0195 -0.3968
17888TIP3    H275156   6.686   4.132   5.338  0.5711 -0.3126  2.6126
17889TIP3   OH275157   3.741   2.904   2.583  0.1020  0.5676  0.3299
17889TIP3    H175158   3.707   2.988   2.613  1.8429  1.3591  0.2178
17889TIP3    H275159   3.752   2.852   2.663 -1.3833  0.2487  0.3595
17890TIP3   OH275160   6.156   1.963   1.992  0.5061 -0.4251  0.8254
17890TIP3    H175161   6.198   1.975   2.077 -0.9564 -0.7213  1.6334
17890TIP3    H275162   6.070   2.006   2.002  0.8634  0.8558 -1.0002
17891TIP3   OH275163   1.356   3.146   4.207 -0.4389  0.1224  0.3743
17891TIP3    H175164   1.281   3.203   4.226 -0.3985  0.5042 -0.5726
17891TIP3    H275165   1.318   3.059   4.199 -0.1832 -0.6354  4.6698
17892TIP3   OH275166   5.011   2.666   4.395 -0.4368  0.1946 -0.4681
17892TIP3    H175167   4.936   2.724   4.385 -0.7289  0.3559  2.0172
17892TIP3    H275168   5.039   2.678   4.486  0.8074 -1.9934 -0.4906
17893TIP3   OH275169   2.105   5.031  14.375  0.3159  0.4716  0.3540
17893TIP3    H175170   2.131   5.056  14.286 -1.0360  2.5218  0.4685
17893TIP3    H275171   2.044   4.958  14.362 -0.1099  0.9525 -0.4441
17894TIP3   OH275172   1.607   5.476  12.467 -0.5583  0.0611  0.6717
17894TIP3    H175173   1.579   5.386  12.482  1.2017 -0.7230 -0.4109
17894TIP3    H275174   1.556   5.504  12.391  0.5935 -0.9143 -0.5082
17895TIP3   OH275175   1.574   5.662   3.795  0.3998 -0.1684  0.2986
17895TIP3    H175176   1.538   5.598   3.734 -1.4937  2.1512 -1.1819
17895TIP3    H275177   1.498   5.710   3.828  1.6774  0.8518  1.9395
17896TIP3   OH275178   0.976   3.139   0.173  0.1083 -0.7905  1.1191
17896TIP3    H175179   0.989   3.084   0.250 -2.8572  0.0371  2.3641
17896TIP3    H275180   0.929   3.083   0.111  0.7701 -0.8806  0.6963
17897TIP3   OH275181   5.621   3.092   5.181  0.0163  0.2628 -0.1814
17897TIP3    H175182   5.609   3.088   5.086 -1.5329 -0.6280  0.0011
17897TIP3    H275183   5.534   3.113   5.215 -0.1515 -2.1591  1.1475
17898TIP3   OH275184   1.192   0.959  16.083  0.4497  0.0172 -0.1560
17898TIP3    H175185   1.276   0.958  16.129  0.8780  0.4821 -0.9242
17898TIP3    H275186   1.203   0.899  16.010  0.1341  0.1457 -0.3118
17899TIP3   OH275187   3.143   3.853  11.677 -0.2504 -0.0250 -0.1373
17899TIP3    H175188   3.082   3.927  11.683  0.0677  0.3001 -0.8479
17899TIP3    H275189   3.199   3.863  11.754  0.9124  1.5023 -1.1309
17900TIP3   OH275190   6.579   1.872  12.987 -0.3994 -0.4265 -0.0983
17900TIP3    H175191   6.602   1.953  12.942  1.1007 -0.2071  0.9713
17900TIP3    H275192   6.626   1.877  13.070 -1.6291 -1.6391  0.7168
17901TIP3   OH275193   6.137   3.153  10.959  0.4961  0.1367 -0.0265
17901TIP3    H175194   6.182   3.077  10.921  0.4774 -0.1089  0.4321
17901TIP3    H275195   6.150   3.223  10.895  0.0796 -0.3871 -0.7004
17902TIP3   OH275196   2.293   3.591  11.196  0.1620 -0.2665 -0.4231
17902TIP3    H175197   2.200   3.567  11.191 -0.1079  0.7145 -0.3198
17902TIP3    H275198   2.299   3.674  11.150  1.0366 -0.4251 -0.6082
17903TIP3   OH275199   3.548   0.998  10.717 -0.1407  0.0779 -0.0887
17903TIP3    H175200   3.547   0.918  10.664 -0.7785  0.4429 -0.6574
17903TIP3    H275201   3.459   1.033  10.708 -0.9117 -0.8284  2.7896
17904TIP3   OH275202   3.900   6.259  14.656 -0.1383  0.2074 -0.3043
17904TIP3    H175203   3.826   6.254  14.595 -0.4380  0.4390  0.0358
17904TIP3    H275204   3.974   6.225  14.606 -0.5108 -0.2029 -0.5885
17905TIP3   OH275205   3.019   4.583  16.101 -0.0075 -0.1640  0.9792
17905TIP3    H175206   2.957   4.510  16.103  0.8411 -0.9021  2.7214
17905TIP3    H275207   2.965   4.660  16.116 -1.1204 -0.1890 -2.2736
17906TIP3   OH275208   1.114   3.714   1.948  0.0238  0.1755 -0.9161
17906TIP3    H175209   1.201   3.675   1.955  0.2202  0.7422 -0.0617
17906TIP3    H275210   1.059   3.644   1.912  0.1190 -1.3217  1.5642
17907TIP3   OH275211   4.655   2.874   5.500 -0.0700  0.0019 -0.4681
17907TIP3    H175212   4.577   2.913   5.462 -0.3552  0.9676  1.0269
17907TIP3    H275213   4.717   2.947   5.510  0.2189 -0.3311  0.3156
17908TIP3   OH275214   6.723   2.465  14.679  0.6606 -0.5241 -0.0975
17908TIP3    H175215   6.691   2.375  14.690  2.8998 -1.3825 -0.1259
17908TIP3    H275216   6.766   2.485  14.762 -1.4930  1.3479  0.6926
17909TIP3   OH275217   0.974   3.921   4.590  0.1850  0.1087 -0.6322
17909TIP3    H175218   1.058   3.880   4.614 -0.9047 -1.0736  1.4452
17909TIP3    H275219   0.949   3.972   4.667 -0.9713  0.5233 -1.2585
17910TIP3   OH275220   5.337   5.837   0.705 -0.4339 -0.9619 -0.1570
17910TIP3    H175221   5.360   5.819   0.614 -0.5624 -1.7017 -0.0448
17910TIP3    H275222   5.396   5.908   0.731 -1.6374  0.5423 -1.3640
17911TIP3   OH275223   2.887   1.554  11.620  0.0781 -0.0174  0.4748
17911TIP3    H175224   2.978   1.580  11.635  0.2386 -1.1186  1.5916
17911TIP3    H275225   2.892   1.466  11.583 -0.4940  0.8403 -1.7835
17912TIP3   OH275226   5.049   3.998   3.027  0.5894 -0.1847 -0.0212
17912TIP3    H175227   5.048   3.956   3.113 -0.0322  1.7237  0.9606
17912TIP3    H275228   5.130   3.966   2.986  2.0226  0.4670  2.1297
17913TIP3   OH275229   2.285   0.430  14.317 -0.0737 -0.0991  0.3517
17913TIP3    H175230   2.191   0.412  14.308 -0.1082 -0.8253  1.7782
17913TIP3    H275231   2.289   0.501  14.382  0.3762 -0.4656  0.7275
17914TIP3   OH275232   6.071   1.299   1.623  0.3264 -0.0778 -0.6539
17914TIP3    H175233   6.019   1.298   1.703  0.1127  1.4049 -0.7454
17914TIP3    H275234   6.162   1.300   1.654  0.2447  1.1028 -0.3743
17915TIP3   OH275235   1.867   5.461   0.450  0.0316 -0.3118  0.6623
17915TIP3    H175236   1.794   5.522   0.448 -0.1461 -0.5241  0.6564
17915TIP3    H275237   1.854   5.404   0.374 -1.3526 -2.1359  2.1744
17916TIP3   OH275238   6.678   6.748  12.670 -0.2654 -0.5989  0.1762
17916TIP3    H175239   6.601   6.730  12.616 -0.8711  1.8268  0.1417
17916TIP3    H275240   6.653   6.824  12.722  2.8497  1.8141 -1.5275
17917TIP3   OH275241   2.032   2.996   4.095 -0.4308 -0.0314  0.0193
17917TIP3    H175242   2.121   2.966   4.110 -0.7551 -0.1426  1.9888
17917TIP3    H275243   1.991   2.994   4.182 -2.2697  0.2576 -0.7963
17918TIP3   OH275244   3.612   5.844   1.461 -0.5779  0.1055  0.6003
17918TIP3    H175245   3.550   5.905   1.422 -1.2769 -1.1537 -0.3623
17918TIP3    H275246   3.680   5.899   1.500 -1.1802  1.4715 -0.2128
17919TIP3   OH275247   2.755   6.503  13.513 -0.0427 -0.1630 -0.4669
17919TIP3    H175248   2.740   6.511  13.607  0.2070 -2.1608 -0.2074
17919TIP3    H275249   2.761   6.409  13.498  1.9162  0.1557 -2.1691
17920TIP3   OH275250   2.742   4.938   1.139 -0.0187  0.5065  0.0799
17920TIP3    H175251   2.688   4.980   1.072  1.3752 -0.2354 -1.5842
17920TIP3    H275252   2.737   4.997   1.214 -0.2085  2.3175 -1.2827
17921TIP3   OH275253   2.887   0.333  16.824  0.5730 -0.5067 -0.6105
17921TIP3    H175254   2.802   0.293  16.809  1.0746 -0.8350 -2.9344
17921TIP3    H275255   2.877   0.423  16.792  1.0490 -0.4890 -0.7147
17922TIP3   OH275256   4.991   5.522   5.017 -0.3113 -0.4336 -0.2266
17922TIP3    H175257   4.968   5.430   5.001  0.4298 -0.8811  1.1090
17922TIP3    H275258   5.037   5.521   5.102 -1.5932  1.3592  0.5606
17923TIP3   OH275259   2.171   5.202  11.347  0.2815  0.7411 -0.7088
17923TIP3    H175260   2.261   5.202  11.381  0.3105  2.8685 -0.6656
17923TIP3    H275261   2.118   5.234  11.420 -0.3341  0.8254 -1.1843
17924TIP3   OH275262   2.264   6.481   6.069  0.5418 -0.1427  0.0333
17924TIP3    H175263   2.275   6.394   6.030  0.7877  0.3296 -0.9934
17924TIP3    H275264   2.303   6.473   6.156 -1.5068 -1.6969  0.9096
17925TIP3   OH275265   6.758   0.255   1.966 -0.3049  0.2166 -0.4565
17925TIP3    H175266   6.817   0.225   2.035  0.5160  3.8998  0.6514
17925TIP3    H275267   6.815   0.298   1.902 -1.3946 -0.2799 -1.8140
17926TIP3   OH275268   1.093   6.465  11.092 -0.0537 -0.2810  0.0789
17926TIP3    H175269   1.109   6.418  11.174  1.2672 -0.5480 -0.3005
17926TIP3    H275270   1.119   6.403  11.024 -0.8600  0.0471 -0.5385
17927TIP3   OH275271   6.018   6.068  11.727  0.3524 -0.0531  0.0568
17927TIP3    H175272   6.055   5.981  11.722  0.0616 -0.2975  1.5280
17927TIP3    H275273   5.926   6.057  11.703  0.5355  0.0253 -0.6900
17928TIP3   OH275274   4.379   1.240   0.491  0.1528  0.5181 -0.0783
17928TIP3    H175275   4.422   1.245   0.406  0.1201  2.0394 -0.0384
17928TIP3    H275276   4.286   1.253   0.471  0.2052  1.4115  0.2231
17929TIP3   OH275277   2.153   5.222   4.112 -0.1915  0.1715 -0.6666
17929TIP3    H175278   2.213   5.269   4.054 -0.9766  1.0017 -0.8284
17929TIP3    H275279   2.134   5.284   4.182  2.8018 -1.6585  2.0608
17930TIP3   OH275280   5.626   4.124   1.235 -0.3438  0.1029 -0.2457
17930TIP3    H175281   5.712   4.147   1.201 -1.5523  0.3418 -3.5112
17930TIP3    H275282   5.618   4.030   1.221 -0.6735  0.1077 -0.1017
17931TIP3   OH275283   4.164   6.752   0.647 -0.1526  0.0784 -0.4477
17931TIP3    H175284   4.191   6.755   0.738 -0.1759 -1.8743 -0.3234
17931TIP3    H275285   4.228   6.693   0.605 -2.3320 -2.1822 -0.8130
17932TIP3   OH275286   4.866   4.578  14.951  0.1658  0.4025  0.3033
17932TIP3    H175287   4.834   4.628  15.027  0.8374 -1.3220  1.8043
17932TIP3    H275288   4.958   4.603  14.943  0.9002 -1.5487  1.9655
17933TIP3   OH275289   0.888   6.801   3.247  0.0961 -0.4563 -0.2270
17933TIP3    H175290   0.904   6.815   3.340  1.0720 -0.0287 -0.4549
17933TIP3    H275291   0.959   6.847   3.203 -0.1680 -0.9380 -1.1777
17934TIP3   OH275292   2.811   5.522   3.002  0.1481  0.2967 -0.1478
17934TIP3    H175293   2.799   5.441   2.952 -0.1971 -0.0518  0.4960
17934TIP3    H275294   2.765   5.508   3.084  0.9219  0.7698  0.3908
17935TIP3   OH275295   1.355   5.217   0.592 -0.5492  0.3156 -0.2177
17935TIP3    H175296   1.317   5.295   0.633 -2.1324  0.2157 -1.3692
17935TIP3    H275297   1.302   5.204   0.513  1.3111 -0.4550 -1.4096
17936TIP3   OH275298   2.023   1.845  15.385  0.3021  0.2311 -0.3259
17936TIP3    H175299   2.090   1.912  15.368  0.6314 -0.6740 -3.1650
17936TIP3    H275300   2.055   1.799  15.462  1.0565  2.0839  0.5497
17937TIP3   OH275301   4.966   5.861   6.196  0.3202 -0.1263 -0.9686
17937TIP3    H175302   4.965   5.931   6.261  0.1086 -0.1310 -0.9657
17937TIP3    H275303   5.042   5.807   6.219  0.2819 -0.0930 -0.7635
17938TIP3   OH275304   5.620   6.074  14.110  0.7181 -0.3141 -0.6062
17938TIP3    H175305   5.685   6.055  14.178 -0.0185 -0.1042  0.1774
17938TIP3    H275306   5.609   5.991  14.064  0.0161 -0.9160  0.6038
17939TIP3   OH275307   4.739   3.652   5.631 -0.8558 -0.7533  0.2314
17939TIP3    H175308   4.669   3.683   5.688  0.8238 -0.0051  2.0493
17939TIP3    H275309   4.793   3.596   5.688  1.6273  1.0652 -0.1557
17940TIP3   OH275310   4.245   5.844  13.632  0.3512 -0.2199 -0.6557
17940TIP3    H175311   4.175   5.784  13.609  0.3988  0.0231 -1.4580
17940TIP3    H275312   4.295   5.798  13.700 -0.0052 -0.7936 -0.7796
17941TIP3   OH275313   6.420   4.318   4.707  0.1309  0.2056  0.4903
17941TIP3    H175314   6.403   4.233   4.748  0.3359 -0.5749 -1.0026
17941TIP3    H275315   6.338   4.341   4.663  0.0769  0.7997  0.8811
17942TIP3   OH275316   5.716   4.458   6.018  0.2991 -0.3917  0.4690
17942TIP3    H175317   5.762   4.450   6.102  0.2673 -1.2487  0.4151
17942TIP3    H275318   5.691   4.368   5.996  0.1057 -0.1444 -0.3485
17943TIP3   OH275319   2.507   4.010   1.608  0.3599 -0.2776  0.2834
17943TIP3    H175320   2.544   4.060   1.536  1.9557 -0.8343  0.6788
17943TIP3    H275321   2.569   3.938   1.622  0.5994  0.3328  2.7995
17944TIP3   OH275322   1.001   6.042  12.222 -0.4432  0.1414 -0.1535
17944TIP3    H175323   1.054   6.013  12.297 -0.3694  2.1595  0.6236
17944TIP3    H275324   1.050   6.010  12.146  2.3543  2.4233  0.4961
17945TIP3   OH275325   4.695   2.522   4.486  0.4529  0.4969 -0.2937
17945TIP3    H175326   4.679   2.614   4.468 -1.9651  0.1691 -0.0732
17945TIP3    H275327   4.674   2.512   4.579  0.7793 -0.2638 -0.2967
17946TIP3   OH275328   4.859   6.136   0.127  0.8127  0.2579  0.1906
17946TIP3    H175329   4.885   6.216   0.081  0.8410 -0.7051 -1.5860
17946TIP3    H275330   4.801   6.091   0.065  0.6405 -0.9956  1.2212
17947TIP3   OH275331   5.840   5.916  14.149  0.0406 -0.0785  0.2539
17947TIP3    H175332   5.868   5.825  14.146  0.1438 -0.0332 -2.0523
17947TIP3    H275333   5.859   5.950  14.061 -2.8039  1.2889  0.0499
17948TIP3   OH275334   5.695   0.879   1.570  0.6993 -0.2452  0.0274
17948TIP3    H175335   5.618   0.825   1.582 -0.0490  0.9958  1.0526
17948TIP3    H275336   5.766   0.817   1.554 -0.6284 -1.3878 -1.9381
17949TIP3   OH275337   5.614   4.942   1.747  0.1939 -1.2035  0.2441
17949TIP3    H175338   5.558   4.884   1.695  0.4355 -1.0104 -0.2404
17949TIP3    H275339   5.595   4.920   1.838 -1.3200 -0.5362  0.1139
17950TIP3   OH275340   5.148   3.318   3.066 -0.1595 -0.1273 -0.3113
17950TIP3    H175341   5.097   3.398   3.052 -0.4435  0.1547  1.9046
17950TIP3    H275342   5.144   3.271   2.983 -0.9350  1.6338 -1.3033
17951TIP3   OH275343   6.550   0.706   0.611 -0.1719 -0.1946 -0.0317
17951TIP3    H175344   6.540   0.739   0.700  1.4557 -1.6903  0.7825
17951TIP3    H275345   6.624   0.755   0.574 -0.1329 -0.3334 -0.1431
17952TIP3   OH275346   1.397   6.176  11.707 -0.1674  0.9073  0.0835
17952TIP3    H175347   1.447   6.258  11.703  0.9470  0.2172 -2.3272
17952TIP3    H275348   1.447   6.121  11.767  1.4244  0.6672 -1.3462
17953TIP3   OH275349   6.574   0.483   1.749  0.1203  0.2040  0.0363
17953TIP3    H175350   6.568   0.494   1.654 -1.5057 -1.8614 -0.1729
17953TIP3    H275351   6.657   0.438   1.763  0.8055  1.3164 -0.2634
17954TIP3   OH275352   4.805   3.370  12.831 -0.1604  0.5467  0.0977
17954TIP3    H175353   4.787   3.278  12.810  1.4617  0.5051 -1.3032
17954TIP3    H275354   4.872   3.365  12.900 -0.7306  0.6889  0.6665
17955TIP3   OH275355   1.642   1.848  11.587 -0.1046 -0.1818  0.3003
17955TIP3    H175356   1.560   1.891  11.561  0.8769  0.9216 -1.1230
17955TIP3    H275357   1.667   1.892  11.668  0.3856  1.3291 -0.6256
17956TIP3   OH275358   6.039   2.275  13.365 -0.1538 -0.3062  0.1873
17956TIP3    H175359   6.038   2.352  13.308  2.0409  0.7283  1.4168
17956TIP3    H275360   6.102   2.216  13.324 -0.7582 -0.8322  0.0086
17957TIP3   OH275361   6.212   1.748   4.871  0.4296 -0.4601  0.5317
17957TIP3    H175362   6.286   1.687   4.869  1.4117  0.6354  1.8178
17957TIP3    H275363   6.191   1.756   4.964  0.1331  0.9464  0.3582
17958TIP3   OH275364   2.890   0.508   2.890  0.6375  0.2286  0.2852
17958TIP3    H175365   2.936   0.471   2.815 -1.2399 -1.5154 -0.0966
17958TIP3    H275366   2.959   0.537   2.949  2.2155 -1.8220 -0.4599
17959TIP3   OH275367   6.217   5.427  11.121 -0.3629  0.0710  0.2472
17959TIP3    H175368   6.201   5.453  11.212  0.8976  1.4698  0.1083
17959TIP3    H275369   6.277   5.353  11.127 -0.0322  0.3629  0.5530
17960TIP3   OH275370   5.199   0.873  12.279  0.1519  0.3543  0.0994
17960TIP3    H175371   5.132   0.893  12.215  1.4377  1.0783 -1.0808
17960TIP3    H275372   5.271   0.836  12.228  0.9359  0.2704  1.2254
17961TIP3   OH275373   5.039   2.796  14.951 -0.1947  0.0152 -0.0226
17961TIP3    H175374   5.062   2.762  15.037  1.4343  0.6458 -0.1766
17961TIP3    H275375   4.943   2.798  14.951 -0.2451  1.0316  2.2022
17962TIP3   OH275376   2.823   6.169  13.967 -0.1701  0.5964 -0.4449
17962TIP3    H175377   2.872   6.143  14.045 -0.9544  2.3068  0.6862
17962TIP3    H275378   2.833   6.095  13.907  3.3664  0.6092 -0.1275
17963TIP3   OH275379   0.624   3.314  15.002 -0.1131  0.1645 -0.2395
17963TIP3    H175380   0.536   3.276  15.005 -0.2059  0.3998 -0.0321
17963TIP3    H275381   0.644   3.321  14.908 -1.8469  3.6363 -0.4918
17964TIP3   OH275382   2.637   0.927  17.142 -0.0908 -0.1560 -0.5545
17964TIP3    H175383   2.656   1.005  17.089 -0.8107 -0.8650 -1.9062
17964TIP3    H275384   2.618   0.962  17.229  1.7316  0.9961 -0.5621
17965TIP3   OH275385   0.169   3.757   1.330  0.6836 -0.1417  0.1410
17965TIP3    H175386   0.089   3.705   1.338  0.9805 -0.8638 -1.1805
17965TIP3    H275387   0.181   3.767   1.236  1.7444  0.5973  0.3401
17966TIP3   OH275388   2.999   3.938  16.279  0.3292 -0.4010 -0.5580
17966TIP3    H175389   3.052   3.961  16.355 -1.2142 -0.9769  0.7666
17966TIP3    H275390   3.044   3.862  16.241  1.0644 -0.1799 -0.1484
17967TIP3   OH275391   6.586   1.261   4.461 -0.3651  0.0573 -0.3348
17967TIP3    H175392   6.583   1.254   4.557  0.8713  0.4581 -0.2518
17967TIP3    H275393   6.516   1.322   4.440 -0.0990  0.6332  0.3956
17968TIP3   OH275394   0.387   0.437  13.348  0.4406 -0.1208  0.3914
17968TIP3    H175395   0.472   0.395  13.340  1.4242  1.8242  0.1324
17968TIP3    H275396   0.402   0.529  13.325 -1.7802  0.2305  0.0410
17969TIP3   OH275397   2.119   1.569   3.204 -0.0497  0.0195  0.0313
17969TIP3    H175398   2.105   1.583   3.297  1.2332  0.6386  0.1611
17969TIP3    H275399   2.105   1.656   3.165 -1.2079 -0.3635 -0.4586
17970TIP3   OH275400   4.280   2.830   1.892 -0.5477  1.0467  0.2821
17970TIP3    H175401   4.333   2.777   1.831 -1.8293  0.4469 -0.3649
17970TIP3    H275402   4.319   2.814   1.978  0.2862  0.5856 -0.1667
17971TIP3   OH275403   4.231   1.675  15.329 -0.2766 -0.2294  0.3680
17971TIP3    H175404   4.153   1.707  15.374 -0.5163  0.4201 -0.4883
17971TIP3    H275405   4.275   1.754  15.297  1.3127 -0.4950  1.7358
17972TIP3   OH275406   1.279   5.506   0.419 -0.0403 -0.2300 -0.4398
17972TIP3    H175407   1.251   5.577   0.361 -1.1427 -0.8365 -0.6777
17972TIP3    H275408   1.234   5.523   0.501 -0.0995 -0.5140 -0.4137
17973TIP3   OH275409   5.057   0.087   5.642 -0.2499 -0.4459  0.6128
17973TIP3    H175410   5.117   0.023   5.606  0.6558 -0.8790  2.7496
17973TIP3    H275411   4.973   0.041   5.650 -0.7077 -0.0813 -1.6222
17974TIP3   OH275412   3.491   2.037   4.402 -0.0290  0.2301 -0.0396
17974TIP3    H175413   3.574   2.083   4.387  0.7603 -0.4795  1.8172
17974TIP3    H275414   3.513   1.945   4.390 -0.8765  0.0985 -0.7184
17975TIP3   OH275415   1.637   6.565  11.313  0.0347 -0.4023  0.3332
17975TIP3    H175416   1.730   6.548  11.294  0.0274  0.5511 -0.6409
17975TIP3    H275417   1.638   6.638  11.374 -0.0617 -1.2036  1.3298
17976TIP3   OH275418   5.322   3.071   6.487 -0.0235  0.0144 -0.2597
17976TIP3    H175419   5.258   3.141   6.475  0.1980  0.3332  0.3536
17976TIP3    H275420   5.376   3.101   6.561 -0.8532 -1.4773  0.9990
17977TIP3   OH275421   6.206   5.124   1.404  0.3674 -0.6996  0.3483
17977TIP3    H175422   6.252   5.124   1.321  0.8913  0.4761  0.6176
17977TIP3    H275423   6.266   5.167   1.465 -1.2416  1.4028  0.5824
17978TIP3   OH275424   3.610   3.161  17.140  0.3129  0.2051 -0.2640
17978TIP3    H175425   3.522   3.143  17.106  0.4184  0.6063 -0.7685
17978TIP3    H275426   3.668   3.123  17.075  0.5262 -1.0960  0.6437
17979TIP3   OH275427   6.702   4.531   1.082  0.0856  0.5806  0.6061
17979TIP3    H175428   6.763   4.457   1.082 -0.9517 -0.3059 -0.5791
17979TIP3    H275429   6.622   4.496   1.043 -1.4136  1.5488  2.6550
17980TIP3   OH275430   5.006   2.525  11.378 -0.1731  0.1989 -0.4008
17980TIP3    H175431   4.938   2.481  11.327 -0.3569  0.5427 -0.4534
17980TIP3    H275432   5.088   2.490  11.343 -0.3077  0.1816 -0.7006
17981TIP3   OH275433   0.400   2.413  12.455  0.5246 -0.0443  0.2056
17981TIP3    H175434   0.390   2.402  12.550 -0.0627 -0.9080  0.0565
17981TIP3    H275435   0.414   2.507  12.443  1.6598 -0.0591  1.2330
17982TIP3   OH275436   2.055   3.199  14.016 -0.3551 -0.1974 -0.2246
17982TIP3    H175437   2.131   3.253  14.040 -1.6389  0.5230  2.6714
17982TIP3    H275438   2.090   3.110  14.012  0.8165  0.2149  0.2063
17983TIP3   OH275439   2.359   6.271  12.277 -0.2577 -0.4252 -0.2665
17983TIP3    H175440   2.396   6.334  12.339 -0.3483 -1.1287  0.5329
17983TIP3    H275441   2.326   6.324  12.205 -0.2840  0.4365  0.3639
17984TIP3   OH275442   5.624   3.773  13.927  0.2121  0.1657  0.3195
17984TIP3    H175443   5.663   3.852  13.890  1.8549 -1.0771 -0.7699
17984TIP3    H275444   5.635   3.782  14.021  1.5555  0.6618  0.1328
17985TIP3   OH275445   6.187   0.602   1.495  0.4068  0.1484  0.2276
17985TIP3    H175446   6.146   0.624   1.411 -0.3238 -0.5387  0.3888
17985TIP3    H275447   6.281   0.611   1.479  0.2987 -0.2899 -0.7590
17986TIP3   OH275448   2.950   1.024   0.803  0.2519  0.0339  0.0604
17986TIP3    H175449   2.925   1.100   0.751  0.1663 -0.2833 -0.3627
17986TIP3    H275450   3.037   1.001   0.771 -0.1413 -0.6703 -0.5296
17987TIP3   OH275451   3.184   2.813  14.214 -0.6291 -0.0161 -0.3639
17987TIP3    H175452   3.209   2.836  14.304 -1.5777  0.0691 -0.1149
17987TIP3    H275453   3.249   2.858  14.159 -0.2494  0.2159  0.2610
17988TIP3   OH275454   2.570   1.068  11.799  0.3913  0.3519  0.0435
17988TIP3    H175455   2.477   1.051  11.783  0.2196 -0.4356  1.7003
17988TIP3    H275456   2.571   1.154  11.841  0.4505  0.5075 -0.2732
17989TIP3   OH275457   0.354   1.303  16.698  0.1768 -0.2764  0.3709
17989TIP3    H175458   0.365   1.366  16.769  1.1355 -1.9605  1.8146
17989TIP3    H275459   0.300   1.234  16.736 -1.4905 -0.0227 -1.4047
17990TIP3   OH275460   0.920   1.161  12.281 -0.2256  0.3888 -0.8136
17990TIP3    H175461   0.880   1.206  12.355  1.0926  0.5787 -0.1848
17990TIP3    H275462   1.013   1.181  12.289  0.1430 -0.9133 -1.6059
17991TIP3   OH275463   0.123   6.401  13.080 -0.4762 -0.2114 -0.3344
17991TIP3    H175464   0.071   6.478  13.058 -0.3450  0.7199  2.3053
17991TIP3    H275465   0.204   6.436  13.116  0.3390 -1.6314 -0.6871
17992TIP3   OH275466   0.491   4.366  13.981  0.2299 -0.1021 -0.3456
17992TIP3    H175467   0.535   4.281  13.970 -0.2949 -0.2720 -1.2589
17992TIP3    H275468   0.441   4.377  13.900 -1.3960  0.1015  0.6519
17993TIP3   OH275469   6.460   4.517  12.781  0.0544 -0.2897 -0.1492
17993TIP3    H175470   6.392   4.576  12.814 -0.0294 -1.1028  1.1975
17993TIP3    H275471   6.520   4.574  12.732  1.4472  1.4423  3.2702
17994TIP3   OH275472   4.495   2.124  12.696 -0.2264 -0.1519 -0.1658
17994TIP3    H175473   4.583   2.141  12.730 -0.0167  0.2799 -0.9055
17994TIP3    H275474   4.447   2.206  12.709 -0.9201 -0.7820  1.4105
17995TIP3   OH275475   5.402   3.292   2.601 -0.4342 -0.3527 -0.1965
17995TIP3    H175476   5.413   3.344   2.681  0.6542  1.6798 -1.6147
17995TIP3    H275477   5.475   3.317   2.545 -1.2427 -1.6385 -1.9097
17996TIP3   OH275478   6.199   4.511  16.892  0.0643 -0.6619  0.3139
17996TIP3    H175479   6.132   4.528  16.958 -0.6086 -0.2822 -0.4491
17996TIP3    H275480   6.218   4.596  16.853 -0.7493 -1.0993 -1.1006
17997TIP3   OH275481   6.517   4.196   5.651  0.3748 -0.1630 -0.2842
17997TIP3    H175482   6.557   4.148   5.723 -0.7976  2.6671  2.4881
17997TIP3    H275483   6.434   4.151   5.635  0.5493 -0.7107  0.3086
17998TIP3   OH275484   0.718   6.379  15.767  0.3277  0.3936  0.4892
17998TIP3    H175485   0.787   6.339  15.821  0.6446 -0.0643 -0.2392
17998TIP3    H275486   0.725   6.472  15.786  0.8762  0.3090  0.7472
17999TIP3   OH275487   6.112   2.064  12.438 -0.1641 -0.1053 -0.0056
17999TIP3    H175488   6.066   2.001  12.382  0.1406 -0.2993 -0.0469
17999TIP3    H275489   6.194   2.081  12.391  0.5137 -0.9727  0.8083
18000TIP3   OH275490   5.524   6.825   0.572  0.4375  0.4730  0.1159
18000TIP3    H175491   5.487   6.817   0.484  0.2049  0.1987  0.2369
18000TIP3    H275492   5.545   6.918   0.581 -2.8815  1.2386  1.1029
18001TIP3   OH275493   2.828   1.310   5.166  0.1931 -0.5421  0.3761
18001TIP3    H175494   2.869   1.246   5.109  0.1795 -1.1039  0.9897
18001TIP3    H275495   2.774   1.258   5.226 -1.0533  0.1430 -0.1176
18002TIP3   OH275496   2.037   1.509  14.460  0.5107  0.6333 -0.0314
18002TIP3    H175497   2.073   1.590  14.423 -0.3085  0.7914 -0.5287
18002TIP3    H275498   2.099   1.441  14.435  1.0256  1.0580  0.0850
18003TIP3   OH275499   2.507   1.502  13.718 -0.0325  0.1044  0.3376
18003TIP3    H175500   2.446   1.560  13.673 -1.4063  0.0628  2.0501
18003TIP3    H275501   2.451   1.450  13.776  1.4765 -1.0579  0.7953
18004TIP3   OH275502   2.181   4.787  11.776  0.3236 -0.7697  0.5200
18004TIP3    H175503   2.218   4.819  11.694 -0.4910  1.1441  0.8370
18004TIP3    H275504   2.205   4.853  11.841 -2.0017 -0.3898  1.0975
18005TIP3   OH275505   2.369   2.085   2.164  0.0778 -0.2352 -0.4216
18005TIP3    H175506   2.347   2.005   2.116  0.2692  0.6327 -2.0120
18005TIP3    H275507   2.319   2.153   2.120 -0.6552  0.4473  1.3649
18006TIP3   OH275508   0.998   6.596   6.374 -0.1465 -0.3733  0.1285
18006TIP3    H175509   1.018   6.533   6.444 -0.4786  1.1860  1.6755
18006TIP3    H275510   0.906   6.618   6.386 -0.4772 -0.7804 -1.4205
18007TIP3   OH275511   2.947   4.815   1.052 -0.9488  0.0231 -0.1351
18007TIP3    H175512   3.010   4.848   1.116 -0.0115  3.2596 -2.4567
18007TIP3    H275513   2.882   4.884   1.045 -0.8764 -0.0924 -2.7731
18008TIP3   OH275514   5.096   3.536  12.700  0.4219  0.1616 -0.0008
18008TIP3    H175515   5.150   3.547  12.622 -1.2991 -1.7757 -1.5664
18008TIP3    H275516   5.014   3.579  12.678  0.2037  0.3310  1.1042
18009TIP3   OH275517   1.604   0.583   3.015 -0.1538  0.0572  0.2964
18009TIP3    H175518   1.593   0.603   3.107 -0.8461 -1.0690  0.4803
18009TIP3    H275519   1.569   0.659   2.969 -1.6898 -0.2281  0.9572
18010TIP3   OH275520   3.189   5.549  15.022 -0.5942  0.3181 -0.1437
18010TIP3    H175521   3.094   5.554  15.014 -0.6091 -0.1005 -0.2127
18010TIP3    H275522   3.219   5.521  14.936 -0.4022  0.4816 -0.1323
18011TIP3   OH275523   5.359   1.401   3.848 -0.2960  0.2271  0.0015
18011TIP3    H175524   5.283   1.398   3.906 -0.4040  0.9673 -0.0904
18011TIP3    H275525   5.434   1.385   3.905 -0.5788 -1.4600 -0.0590
18012TIP3   OH275526   5.867   2.635  16.117  0.0696  0.2609 -0.1205
18012TIP3    H175527   5.923   2.558  16.114 -0.0853  0.1124  0.6440
18012TIP3    H275528   5.923   2.705  16.149  0.4215  0.6711 -1.5555
18013TIP3   OH275529   0.582   0.624  12.888 -0.1427 -0.6447  0.0533
18013TIP3    H175530   0.636   0.675  12.828  0.3952 -1.4322 -0.1460
18013TIP3    H275531   0.496   0.665  12.883 -0.3436 -1.2001 -1.9270
18014TIP3   OH275532   0.199   5.324  15.295  0.2443  0.6127 -0.2614
18014TIP3    H175533   0.171   5.332  15.386 -0.4372 -1.7177 -0.2044
18014TIP3    H275534   0.294   5.337  15.297  0.4025 -0.5678  0.9895
18015TIP3   OH275535   2.617   1.824  15.709  0.4051 -0.4116 -0.0421
18015TIP3    H175536   2.696   1.810  15.760 -0.1303 -0.1117  0.8811
18015TIP3    H275537   2.563   1.882  15.762 -0.1424 -0.0381 -0.9729
18016TIP3   OH275538   4.763   1.339   4.188  0.1241  0.3841 -0.0438
18016TIP3    H175539   4.853   1.334   4.220 -0.6250 -1.4926  1.9571
18016TIP3    H275540   4.732   1.425   4.216  0.5114  0.0192  1.5862
18017TIP3   OH275541   2.862   4.859   1.967  0.4233 -0.0277 -0.3971
18017TIP3    H175542   2.869   4.894   1.879  0.2590 -0.7303 -0.6969
18017TIP3    H275543   2.926   4.908   2.018 -1.2006  2.1537 -0.3153
18018TIP3   OH275544   4.417   0.044   3.069  0.0350  0.5173  0.4775
18018TIP3    H175545   4.480  -0.027   3.078  1.0488  1.3104 -0.0840
18018TIP3    H275546   4.332   0.004   3.088  0.4222 -1.1246 -0.9568
18019TIP3   OH275547   3.189   5.932  12.044 -0.0757 -0.5732 -0.2312
18019TIP3    H175548   3.190   5.986  12.123 -1.7398  2.7455 -2.2602
18019TIP3    H275549   3.099   5.901  12.037 -0.4445  0.7496 -1.7382
18020TIP3   OH275550   0.573   0.048  14.945  0.4792  0.3025 -0.4880
18020TIP3    H175551   0.548   0.023  14.856  1.1469 -1.3724 -0.2396
18020TIP3    H275552   0.494   0.034  14.997  0.7283 -0.9796 -0.4271
18021TIP3   OH275553   0.796   6.402   5.913  0.3358 -0.2223 -0.2109
18021TIP3    H175554   0.836   6.455   5.982 -0.9043  3.1484 -1.8016
18021TIP3    H275555   0.712   6.374   5.950 -0.8329  2.5088 -0.5566
18022TIP3   OH275556   3.906   0.423   5.596 -0.1067  0.4492  0.4128
18022TIP3    H175557   3.847   0.372   5.651 -0.5093 -0.7167 -1.0070
18022TIP3    H275558   3.861   0.506   5.582 -0.7063  0.1563  0.5784
18023TIP3   OH275559   5.141   6.489   6.089  0.4319  0.5035 -0.1652
18023TIP3    H175560   5.052   6.479   6.123  0.3466  1.6121 -0.0299
18023TIP3    H275561   5.185   6.408   6.112 -0.3274  0.2561  0.4466
18024TIP3   OH275562   5.250   5.083   1.728  0.1752 -0.5770 -0.3048
18024TIP3    H175563   5.326   5.074   1.786 -0.2264 -1.7988  0.0584
18024TIP3    H275564   5.282   5.136   1.655  1.2409 -0.6610  0.0807
18025TIP3   OH275565   2.513   0.660   0.683 -0.2752 -0.2609 -0.0657
18025TIP3    H175566   2.491   0.663   0.590 -1.6527  0.1076  0.2440
18025TIP3    H275567   2.599   0.700   0.689 -0.4128  0.2233 -1.1168
18026TIP3   OH275568   1.353   3.358  17.171 -0.5751 -0.7344 -0.2067
18026TIP3    H175569   1.370   3.271  17.135  0.8793  0.0275 -1.4619
18026TIP3    H275570   1.339   3.343  17.265  1.1564 -2.1528 -0.1373
18027TIP3   OH275571   3.388   0.698   2.045 -0.2001  0.1085  0.5293
18027TIP3    H175572   3.477   0.733   2.049 -0.3036  0.3193  1.1670
18027TIP3    H275573   3.345   0.734   2.123 -1.3699  1.4357 -0.6725
18028TIP3   OH275574   0.475   1.303   1.996  0.4273  0.5058  0.4384
18028TIP3    H175575   0.514   1.245   1.931 -3.9348 -1.4266 -0.8863
18028TIP3    H275576   0.441   1.376   1.945 -0.0766  0.7049  1.0493
18029TIP3   OH275577   1.881   0.611   5.206  0.3896 -0.3633 -0.0765
18029TIP3    H175578   1.915   0.524   5.225 -1.7824 -1.4803 -1.0125
18029TIP3    H275579   1.893   0.659   5.288  1.5112 -1.5483  0.4985
18030TIP3   OH275580   0.203   1.007  12.641 -0.2676 -0.1000 -0.0482
18030TIP3    H175581   0.156   0.979  12.562  2.9560 -1.3102 -1.7555
18030TIP3    H275582   0.150   1.077  12.677 -3.7494 -1.8794 -1.2139
18031TIP3   OH275583   0.414   1.343   0.483 -0.3784 -0.3362 -0.0437
18031TIP3    H175584   0.466   1.343   0.563 -1.3426 -0.2982  0.5945
18031TIP3    H275585   0.464   1.288   0.422  1.5774  1.5545 -0.2494
18032TIP3   OH275586   6.016   5.937   1.940  0.0756  0.5799 -0.7582
18032TIP3    H175587   5.992   5.974   1.855  0.5679  0.2483 -1.0461
18032TIP3    H275588   6.111   5.951   1.947 -0.2561  2.5972  0.7207
18033TIP3   OH275589   4.314   0.371   4.134  0.8664 -0.2504  0.3965
18033TIP3    H175590   4.315   0.383   4.229 -1.0952  0.2938  0.3881
18033TIP3    H275591   4.222   0.381   4.109  1.3598 -0.1885 -1.5953
18034TIP3   OH275592   6.573   5.875   2.671  0.1472  0.6047 -0.4723
18034TIP3    H175593   6.623   5.923   2.738  0.8595 -2.1044  1.0872
18034TIP3    H275594   6.519   5.942   2.629  2.7582  3.1630 -0.0968
18035TIP3   OH275595   2.377   4.582  16.247 -0.1497 -0.2919 -0.0323
18035TIP3    H175596   2.425   4.560  16.168 -2.0715  0.7888 -1.5917
18035TIP3    H275597   2.389   4.676  16.257  0.8066 -0.5427  1.5298
18036TIP3   OH275598   3.716   3.359  15.265 -0.2863  0.4310 -0.0859
18036TIP3    H175599   3.645   3.316  15.217 -0.5320  0.2379  0.4452
18036TIP3    H275600   3.683   3.447  15.283  0.0732  0.7350 -0.8511
18037TIP3   OH275601   5.475   0.408  13.586  0.0840  0.1940 -0.1460
18037TIP3    H175602   5.515   0.383  13.503  1.1055 -0.3014  0.4764
18037TIP3    H275603   5.434   0.328  13.618  1.0120 -0.0197  0.5466
18038TIP3   OH275604   3.070   3.543  15.347 -0.0999  0.1377  0.0854
18038TIP3    H175605   3.145   3.597  15.374  0.1005  0.0308 -0.2527
18038TIP3    H275606   3.107   3.456  15.334 -0.9625 -0.9495  3.7910
18039TIP3   OH275607   1.205   3.025  10.796  0.1640 -0.7695 -0.5609
18039TIP3    H175608   1.163   2.945  10.766  0.2374 -0.3022 -2.0090
18039TIP3    H275609   1.295   3.020  10.763  0.3881 -0.4478 -0.0097
18040TIP3   OH275610   0.410   5.763   1.542 -0.2830  0.0167  0.2182
18040TIP3    H175611   0.340   5.774   1.478  0.9530  0.5843 -1.0919
18040TIP3    H275612   0.483   5.726   1.492  0.5514 -0.0246  1.4154
18041TIP3   OH275613   3.381   4.353  14.768  0.5528  0.5690  0.2500
18041TIP3    H175614   3.363   4.301  14.846  1.7008  1.8956  1.4515
18041TIP3    H275615   3.396   4.441  14.801 -0.8843  1.6206 -1.6768
18042TIP3   OH275616   0.308   5.492   1.195  0.8574 -0.0135  0.0034
18042TIP3    H175617   0.269   5.545   1.265  1.5658  0.8662 -0.2532
18042TIP3    H275618   0.387   5.455   1.234  1.0318  0.1422 -0.2000
18043TIP3   OH275619   4.987   3.454  14.634  0.3109 -0.3688  0.1716
18043TIP3    H175620   5.078   3.479  14.649  0.6413 -0.7376 -1.1305
18043TIP3    H275621   4.993   3.373  14.583 -0.7516 -0.7110  0.5717
18044TIP3   OH275622   6.551   2.700  11.226  0.2070  0.3123  0.3031
18044TIP3    H175623   6.550   2.607  11.249  0.5754  0.2420  0.0436
18044TIP3    H275624   6.597   2.742  11.299  0.1780  0.2688  0.3456
18045TIP3   OH275625   1.507   4.696   4.105  0.1408 -0.2756  0.2241
18045TIP3    H175626   1.533   4.693   4.197  0.7756 -1.0640  0.0285
18045TIP3    H275627   1.531   4.610   4.071 -0.9850 -0.3494 -0.4412
18046TIP3   OH275628   6.513   5.662  12.899 -0.3772 -0.3389 -0.1713
18046TIP3    H175629   6.445   5.642  12.963 -0.1787 -0.5294 -0.0198
18046TIP3    H275630   6.573   5.721  12.945 -0.1433 -0.6112 -0.1262
18047TIP3   OH275631   6.631   0.242   3.578  0.5717  0.1137 -0.5451
18047TIP3    H175632   6.592   0.159   3.552  0.7787 -0.5684  1.2117
18047TIP3    H275633   6.640   0.291   3.496 -1.3822 -0.7946 -1.3653
18048TIP3   OH275634   2.250   2.105  15.718 -0.3810 -0.1767  0.2906
18048TIP3    H175635   2.288   2.171  15.660  1.1145  0.0021  1.4007
18048TIP3    H275636   2.174   2.147  15.757 -0.0156  0.5457  0.2384
18049TIP3   OH275637   3.334   3.178   5.338 -0.0693  0.4820 -0.5110
18049TIP3    H175638   3.283   3.251   5.375  0.7113  1.7550 -1.8586
18049TIP3    H275639   3.305   3.172   5.247 -0.7350 -1.4908 -0.2231
18050TIP3   OH275640   6.683   5.125   5.023  0.4885 -0.0319 -0.4416
18050TIP3    H175641   6.682   5.069   4.945 -1.0303 -0.9455  0.1846
18050TIP3    H275642   6.669   5.214   4.988  0.8506 -0.2917 -1.2855
18051TIP3   OH275643   0.460   5.926  13.520 -0.2509  0.1701  0.4904
18051TIP3    H175644   0.487   5.937  13.429  0.0633  2.3434  0.7898
18051TIP3    H275645   0.526   5.868  13.558 -0.1510 -0.4182 -0.5418
18052TIP3   OH275646   0.520   4.523   2.166  0.7092 -0.3656  0.4193
18052TIP3    H175647   0.528   4.469   2.087  0.0373  1.0921 -0.7105
18052TIP3    H275648   0.533   4.463   2.238  0.0738 -2.0128 -0.7747
18053TIP3   OH275649   0.086   1.260  16.292 -0.6708  0.3670  0.0784
18053TIP3    H175650   0.007   1.305  16.261 -1.3844 -1.7628 -1.4181
18053TIP3    H275651   0.073   1.169  16.267  1.4668 -0.3954  1.4692
18054TIP3   OH275652   0.078   4.422  13.595  0.5525 -0.2220 -0.4846
18054TIP3    H175653   0.062   4.430  13.689 -0.5851 -0.7197 -0.6255
18054TIP3    H275654   0.116   4.507  13.571 -0.0218  0.2563  0.2477
18055TIP3   OH275655   6.651   5.262   0.076  0.2868  0.3340 -0.0949
18055TIP3    H175656   6.688   5.179   0.045 -1.0842 -0.8667  1.2813
18055TIP3    H275657   6.613   5.302  -0.002  1.8570  0.2146 -0.9787
18056TIP3   OH275658   3.170   2.357  16.452  0.0147 -0.7364  0.2952
18056TIP3    H175659   3.123   2.440  16.444 -0.2262 -0.9001  0.0101
18056TIP3    H275660   3.136   2.318  16.533  1.1878  0.1089  1.2375
18057TIP3   OH275661   2.435   4.324   6.171 -0.4786 -0.2972  0.2243
18057TIP3    H175662   2.360   4.348   6.226  0.2498 -2.7570  2.5244
18057TIP3    H275663   2.509   4.371   6.209 -0.6468  1.6853 -1.6986
18058TIP3   OH275664   3.432   6.668   0.046  1.2458  0.4338 -0.0724
18058TIP3    H175665   3.412   6.579   0.017  0.8567 -0.1609  1.9250
18058TIP3    H275666   3.422   6.721  -0.034  1.2812 -1.2487 -1.2558
18059TIP3   OH275667   4.733   3.326   1.043 -0.1491  0.0244 -0.0821
18059TIP3    H175668   4.816   3.283   1.064 -0.3931 -0.1157  0.6308
18059TIP3    H275669   4.704   3.364   1.126 -1.0445 -0.3765 -0.1978
18060TIP3   OH275670   5.352   1.490   3.146 -0.5623 -0.2158  0.3100
18060TIP3    H175671   5.330   1.433   3.072  0.4753  0.0549 -0.2201
18060TIP3    H275672   5.273   1.542   3.161 -1.4239 -1.5337  0.5910
18061TIP3   OH275673   1.263   3.132  12.704  0.2638 -0.7141 -0.1227
18061TIP3    H175674   1.295   3.077  12.775  1.2934 -1.3760 -1.0786
18061TIP3    H275675   1.323   3.207  12.702 -0.6177  0.0383  0.6116
18062TIP3   OH275676   6.380   1.351  12.507  0.3091 -0.5818  0.1083
18062TIP3    H175677   6.330   1.307  12.439  0.0891 -2.1096  1.2137
18062TIP3    H275678   6.314   1.388  12.566  0.4998  0.4837 -0.3206
18063TIP3   OH275679   2.806   4.892   3.267  0.4713 -0.1542 -0.3079
18063TIP3    H175680   2.726   4.946   3.268  0.4860 -0.0949 -1.3622
18063TIP3    H275681   2.776   4.804   3.289  0.1467 -0.1005 -0.5393
18064TIP3   OH275682   5.022   0.081   4.279 -0.6367  0.2868 -0.2969
18064TIP3    H175683   5.069   0.136   4.341 -2.1306  1.2117  0.0732
18064TIP3    H275684   4.990   0.141   4.212  1.1533 -0.7243 -2.1745
18065TIP3   OH275685   0.654   1.045  13.069  0.1751  0.3058  0.0157
18065TIP3    H175686   0.732   1.096  13.050  0.0673  0.5556  0.2396
18065TIP3    H275687   0.609   1.037  12.984 -0.7476  2.1558  0.2833
18066TIP3   OH275688   3.388   2.824   5.868  0.2955 -0.5038  0.5415
18066TIP3    H175689   3.426   2.880   5.801 -0.9340  0.4527  0.6012
18066TIP3    H275690   3.387   2.737   5.829 -0.4522  0.0486 -0.7257
18067TIP3   OH275691   0.467   2.193  12.097  0.0823 -0.5287 -0.0475
18067TIP3    H175692   0.452   2.115  12.043  0.1176 -0.4698 -0.1442
18067TIP3    H275693   0.391   2.197  12.155 -1.2315  0.7744 -1.7425
18068TIP3   OH275694   4.534   6.713  15.056  0.1669 -0.1847  0.0861
18068TIP3    H175695   4.587   6.635  15.072 -0.4889 -0.5730  0.4454
18068TIP3    H275696   4.542   6.729  14.962  3.0301  1.3596  0.4916
18069TIP3   OH275697   5.289   3.529   0.911  0.0308  0.3058 -0.5809
18069TIP3    H175698   5.246   3.598   0.861  0.3636  0.0986 -1.1788
18069TIP3    H275699   5.341   3.482   0.845  1.0186  0.4425  0.0838
18070TIP3   OH275700   4.509   4.035   2.771 -0.2593  0.2014 -0.1534
18070TIP3    H175701   4.434   3.983   2.799  0.1192 -0.3727 -0.1889
18070TIP3    H275702   4.584   3.975   2.778 -0.0795  0.1720 -1.8861
18071TIP3   OH275703   4.017   0.032   6.057  0.0559  0.0985 -0.1026
18071TIP3    H175704   4.070  -0.047   6.063 -0.3153 -0.0923  0.9344
18071TIP3    H275705   3.927   0.001   6.069 -0.4474  0.2747 -2.7768
18072TIP3   OH275706   1.378   2.745   0.227  0.0363  0.0637  0.2175
18072TIP3    H175707   1.428   2.814   0.183 -1.2609 -1.1546 -3.5941
18072TIP3    H275708   1.430   2.666   0.213 -0.9475 -0.5372 -0.1231
18073TIP3   OH275709   1.984   3.496  12.679  0.4896  0.2933 -0.0477
18073TIP3    H175710   1.942   3.569  12.724  1.9677  0.8312  0.5132
18073TIP3    H275711   2.062   3.476  12.731  1.2628 -0.2845 -1.3543
18074TIP3   OH275712   5.556   3.498   3.358 -0.3435 -0.2599 -0.1721
18074TIP3    H175713   5.619   3.550   3.308  2.1324 -3.0456 -0.1935
18074TIP3    H275714   5.497   3.462   3.292  1.1803 -1.6371 -0.8424
18075TIP3   OH275715   0.383   3.694   1.542 -0.0518  0.0640  0.2079
18075TIP3    H175716   0.407   3.686   1.449 -0.4571  1.5865 -0.0610
18075TIP3    H275717   0.433   3.770   1.573 -0.0334 -0.3472  1.2031
18076TIP3   OH275718   1.336   6.784  15.714  0.3666  0.4970  0.1034
18076TIP3    H175719   1.407   6.843  15.691  0.3163  0.9040  0.9403
18076TIP3    H275720   1.301   6.819  15.796 -1.0381  0.5036 -0.4805
18077TIP3   OH275721   5.030   0.162  11.694  0.2481  0.0045  0.4634
18077TIP3    H175722   5.124   0.152  11.684  0.4239 -0.3488  2.0953
18077TIP3    H275723   5.005   0.093  11.756 -0.6190  1.6766  2.0978
18078TIP3   OH275724   0.476   1.799  15.619  0.4312 -0.0140  0.3696
18078TIP3    H175725   0.467   1.782  15.713  0.1040  1.7348  0.6889
18078TIP3    H275726   0.401   1.854  15.598  1.6778  1.4502 -0.4230
18079TIP3   OH275727   0.929   5.627  16.772 -0.1281 -0.0085 -0.0346
18079TIP3    H175728   1.020   5.626  16.740 -0.8588  1.3244 -2.4498
18079TIP3    H275729   0.884   5.563  16.716 -0.9435  0.3646  0.1864
18080TIP3   OH275730   4.947   0.825  14.381 -0.1006 -0.4895  0.2204
18080TIP3    H175731   4.918   0.742  14.345 -1.1174 -0.8367  1.7375
18080TIP3    H275732   5.029   0.804  14.427 -0.3005 -0.6470  0.5111
18081TIP3   OH275733   5.537   2.850  14.055  0.0246  0.5312  0.2877
18081TIP3    H175734   5.540   2.757  14.035 -0.7874 -0.1379  2.9034
18081TIP3    H275735   5.443   2.871  14.056  0.0687  0.7921  1.9021
18082TIP3   OH275736   5.596   6.789   2.694 -1.0703 -0.1080  0.1524
18082TIP3    H175737   5.503   6.768   2.705 -1.0402 -1.0792 -1.2424
18082TIP3    H275738   5.625   6.735   2.621  0.3799  0.8529 -0.0298
18083TIP3   OH275739   0.457   3.723   6.385 -0.1174  0.8337 -0.6740
18083TIP3    H175740   0.515   3.726   6.461  0.3501  1.4746 -1.0489
18083TIP3    H275741   0.414   3.638   6.391  0.3103  0.6609  0.0157
18084TIP3   OH275742   0.145   3.545  14.094  0.0317 -0.3783  0.0490
18084TIP3    H175743   0.158   3.637  14.116 -2.9027  0.2924 -0.5721
18084TIP3    H275744   0.102   3.509  14.171  0.3227 -1.0005 -0.0765
18085TIP3   OH275745   2.909   0.642   5.251 -0.5162 -0.0447  0.0955
18085TIP3    H175746   2.987   0.596   5.282  0.1306 -0.7007 -2.3562
18085TIP3    H275747   2.943   0.721   5.209 -1.4028  1.0756  1.4036
18086TIP3   OH275748   4.773   2.850  12.925  0.0947 -0.0623 -0.1658
18086TIP3    H175749   4.750   2.778  12.867 -2.6058 -0.6594  1.4848
18086TIP3    H275750   4.789   2.809  13.010  0.2010  1.1236  0.4146
18087TIP3   OH275751   0.085   0.712  15.579  0.4419 -0.8301 -0.1168
18087TIP3    H175752   0.061   0.647  15.645 -0.8084 -0.8155 -0.5285
18087TIP3    H275753   0.042   0.681  15.499  5.1167 -3.1244 -2.1100
18088TIP3   OH275754   1.002   1.407   2.246  0.4606  0.3264 -0.3012
18088TIP3    H175755   0.941   1.353   2.294 -0.2274  0.1280 -1.3671
18088TIP3    H275756   1.023   1.479   2.306  2.1806 -1.5700  1.5439
18089TIP3   OH275757   3.049   2.369  12.400  0.2173 -0.3529  0.0320
18089TIP3    H175758   3.042   2.390  12.493 -0.5569  0.3927 -0.1758
18089TIP3    H275759   3.066   2.453  12.358  1.0826 -0.7608 -0.4559
18090TIP3   OH275760   2.635   4.979   1.748 -0.1619 -0.0837  0.4410
18090TIP3    H175761   2.566   4.995   1.811 -0.7697  1.3947 -0.5356
18090TIP3    H275762   2.615   4.893   1.711 -1.3528  0.2263  0.3409
18091TIP3   OH275763   1.362   3.111   1.207  0.4018 -0.3114  0.4614
18091TIP3    H175764   1.350   3.044   1.139 -1.8448  0.1323  0.3454
18091TIP3    H275765   1.444   3.154   1.184 -1.2083  1.2110 -3.2833
18092TIP3   OH275766   4.980   3.589  17.137  0.0549  0.0007  0.3795
18092TIP3    H175767   4.941   3.547  17.213  0.8685  1.5231  1.6917
18092TIP3    H275768   4.989   3.681  17.162  0.1087  0.5904 -1.6621
18093TIP3   OH275769   1.918   5.679   3.578 -0.3288 -0.0867  0.4510
18093TIP3    H175770   1.909   5.605   3.637 -0.6280 -0.0190  0.4923
18093TIP3    H275771   1.893   5.646   3.492  0.0560 -0.1709  0.3693
18094TIP3   OH275772   4.859   1.883  11.967  0.0926  0.8730  0.0758
18094TIP3    H175773   4.852   1.912  12.058 -0.9107 -0.9959  0.6477
18094TIP3    H275774   4.814   1.951  11.917 -0.8961  1.0659  1.1852
18095TIP3   OH275775   3.913   1.071  13.586 -0.2026 -0.5997 -0.6806
18095TIP3    H175776   3.958   1.098  13.666 -0.4199  0.8712 -1.0254
18095TIP3    H275777   3.906   0.976  13.593  0.7293 -0.5989  0.5426
18096TIP3   OH275778   1.635   6.004  15.812  0.0677 -0.8018 -0.4891
18096TIP3    H175779   1.718   6.046  15.832 -0.4664  0.2944 -0.5030
18096TIP3    H275780   1.626   5.935  15.878  0.0994  0.3170  0.7264
18097TIP3   OH275781   5.396   4.548   1.970  0.1220 -0.7031  0.1084
18097TIP3    H175782   5.427   4.568   2.059  1.2312 -1.4071 -0.1049
18097TIP3    H275783   5.342   4.623   1.946 -0.1808 -0.4916  1.3656
18098TIP3   OH275784   2.836   5.894   2.079 -0.3122 -0.0275 -0.6681
18098TIP3    H175785   2.825   5.988   2.091  2.5439  0.3307 -0.2563
18098TIP3    H275786   2.926   5.876   2.107 -2.1389 -3.7809  4.4115
18099TIP3   OH275787   2.286   5.065  10.540 -0.4535 -0.4434  0.3719
18099TIP3    H175788   2.233   5.076  10.461  0.8056 -1.6219 -0.6819
18099TIP3    H275789   2.290   5.153  10.579  1.8343  1.0513 -2.8202
18100TIP3   OH275790   5.412   2.793  11.795 -0.1406  0.1218  0.3091
18100TIP3    H175791   5.343   2.726  11.800  0.0375 -0.0224  1.0019
18100TIP3    H275792   5.409   2.824  11.705 -0.7240 -0.2976  0.1776
18101TIP3   OH275793   6.767   6.454   2.537  0.2479 -0.6409 -0.0185
18101TIP3    H175794   6.781   6.374   2.486  1.3591 -0.0625 -0.6626
18101TIP3    H275795   6.723   6.513   2.476 -0.3228 -0.6558  0.3720
18102TIP3   OH275796   6.568   2.724   2.335 -0.0643 -0.3705  0.2115
18102TIP3    H175797   6.493   2.771   2.373  0.0122  0.4966 -0.6552
18102TIP3    H275798   6.534   2.637   2.316 -0.7079 -0.1587  0.3358
18103TIP3   OH275799   4.606   1.107   4.685  0.2292 -0.1586 -0.1551
18103TIP3    H175800   4.700   1.089   4.681  0.2969  0.2645 -0.6380
18103TIP3    H275801   4.574   1.051   4.756  0.8148 -0.4308 -0.0949
18104TIP3   OH275802   2.900   6.334   3.571  0.3543  0.5974  0.1304
18104TIP3    H175803   2.847   6.388   3.629 -0.2187  1.1360 -0.8636
18104TIP3    H275804   2.912   6.388   3.492  2.5696  0.5787  0.4046
18105TIP3   OH275805   1.407   1.778   2.361  0.6935 -0.1764 -0.3072
18105TIP3    H175806   1.396   1.771   2.267  0.6266 -1.6919 -0.2120
18105TIP3    H275807   1.479   1.840   2.373  0.1873  0.6319 -1.3045
18106TIP3   OH275808   3.863   4.230   0.037  0.1345 -0.7151  0.6667
18106TIP3    H175809   3.840   4.197   0.124 -3.3315 -2.7127 -0.7596
18106TIP3    H275810   3.832   4.320   0.036 -2.0835 -1.4157  0.8708
18107TIP3   OH275811   3.870   1.463   3.652  0.2284  0.2410  0.0837
18107TIP3    H175812   3.816   1.435   3.726  1.6669  1.2851  1.6110
18107TIP3    H275813   3.901   1.382   3.612 -0.3355 -0.3438  0.8034
18108TIP3   OH275814   1.749   2.014  15.281  0.2315  0.1269 -0.1306
18108TIP3    H175815   1.761   1.981  15.369 -0.2690 -0.3204 -0.2231
18108TIP3    H275816   1.819   2.078  15.269  0.1052  0.4321  0.7048
18109TIP3   OH275817   5.724   5.115  15.063  0.9849  0.2174  0.0749
18109TIP3    H175818   5.699   5.116  15.155  2.3791  1.3444  0.4870
18109TIP3    H275819   5.815   5.146  15.063  0.3046  2.4857 -1.8599
18110TIP3   OH275820   2.495   3.153  15.866  0.2694  0.1552  0.5344
18110TIP3    H175821   2.481   3.059  15.881  1.1269  0.1909  1.7203
18110TIP3    H275822   2.455   3.195  15.942 -1.4895  0.8869 -0.7436
18111TIP3   OH275823   0.968   1.223  13.151 -0.5929 -0.1931 -0.7649
18111TIP3    H175824   1.025   1.159  13.194 -1.0302 -0.9184 -1.2742
18111TIP3    H275825   1.001   1.308  13.183  1.4750 -0.5073 -1.8535
18112TIP3   OH275826   2.971   0.328   2.219  0.2962 -0.4785 -0.0749
18112TIP3    H175827   2.893   0.309   2.271  0.6264  0.8139  0.9454
18112TIP3    H275828   2.949   0.298   2.131 -1.2580 -0.3420  0.2457
18113TIP3   OH275829   3.447   6.760   0.298 -0.4299  0.2939  0.6382
18113TIP3    H175830   3.528   6.748   0.349  0.7787  0.0426 -1.2672
18113TIP3    H275831   3.459   6.707   0.220 -1.7355  1.5512 -0.4807
18114TIP3   OH275832   1.308   2.715  16.104 -0.9815  0.0142  0.2864
18114TIP3    H175833   1.355   2.632  16.112 -0.5756  0.2856  0.7397
18114TIP3    H275834   1.329   2.746  16.015 -2.7019 -1.3023 -0.6461
18115TIP3   OH275835   5.918   2.463   5.116  0.1247 -0.4087 -0.1081
18115TIP3    H175836   5.836   2.419   5.139  0.9150 -0.9120  1.8994
18115TIP3    H275837   5.903   2.555   5.140  0.1519 -0.4990  0.2528
18116TIP3   OH275838   3.931   4.666   3.546 -0.3982  0.4734 -0.3169
18116TIP3    H175839   3.836   4.674   3.536 -0.9100 -1.3473  2.1688
18116TIP3    H275840   3.945   4.572   3.557  1.5920  0.8046  0.2413
18117TIP3   OH275841   6.073   3.933   4.893 -0.1413 -0.4432  0.6641
18117TIP3    H175842   6.063   4.028   4.885 -0.7278 -0.6360 -1.2690
18117TIP3    H275843   5.984   3.901   4.905 -0.3105 -0.9328 -1.4961
18118TIP3   OH275844   5.750   1.129  15.935  0.1824  0.1090  0.5836
18118TIP3    H175845   5.746   1.043  15.978  1.0280 -0.1863  0.0908
18118TIP3    H275846   5.697   1.119  15.855  1.0560 -0.2520  0.0393
18119TIP3   OH275847   3.521   6.255   6.634  0.7160 -0.6420  0.0724
18119TIP3    H175848   3.572   6.198   6.576 -0.3617 -1.9781  0.3895
18119TIP3    H275849   3.486   6.196   6.701  0.3752  0.5660  0.9915
18120TIP3   OH275850   1.925   4.047  12.426  0.4985  0.3025  0.2972
18120TIP3    H175851   1.880   3.963  12.416  1.2601 -0.1731  0.7724
18120TIP3    H275852   1.856   4.108  12.451  0.0093 -0.2773  0.4028
18121TIP3   OH275853   2.299   6.640  14.917  0.0243 -0.1641 -0.1852
18121TIP3    H175854   2.259   6.688  14.844 -0.4369  0.1382  0.2644
18121TIP3    H275855   2.284   6.694  14.993 -1.3768 -1.4569  0.5094
18122TIP3   OH275856   4.785   4.600  11.288 -0.2544 -0.2821 -0.1644
18122TIP3    H175857   4.817   4.533  11.228  2.1162  0.4934  0.1073
18122TIP3    H275858   4.798   4.563  11.375 -0.8048 -0.2286 -0.0575
18123TIP3   OH275859   6.604   3.591  13.126  0.0908 -0.4710 -0.4168
18123TIP3    H175860   6.509   3.601  13.117  0.1844 -0.7276 -1.8356
18123TIP3    H275861   6.640   3.625  13.044  1.2864  0.3163  0.3923
18124TIP3   OH275862   2.399   6.522  16.158  0.4660 -0.0765 -0.1090
18124TIP3    H175863   2.316   6.521  16.112 -0.0965  2.0006  0.7505
18124TIP3    H275864   2.442   6.440  16.132 -0.5685  0.1407 -2.8553
18125TIP3   OH275865   5.830   1.028   0.248 -0.4547  0.1041  0.3525
18125TIP3    H175866   5.870   1.027   0.335 -0.3813  1.3623  0.3508
18125TIP3    H275867   5.748   1.077   0.260 -0.8352 -0.4038 -0.1283
18126TIP3   OH275868   5.559   5.477   6.111  0.5278  0.1863 -0.2587
18126TIP3    H175869   5.641   5.520   6.087  0.3918  0.3718 -0.4011
18126TIP3    H275870   5.583   5.413   6.178  0.6422  0.9067  0.4019
18127TIP3   OH275871   3.547   4.575   1.086 -0.0042  0.3384 -0.1170
18127TIP3    H175872   3.550   4.533   0.999  0.2807  0.3661 -0.1219
18127TIP3    H275873   3.487   4.649   1.075 -2.2291 -1.2710  0.4260
18128TIP3   OH275874   4.449   1.733   3.035 -0.2909  0.1616  1.0015
18128TIP3    H175875   4.402   1.814   3.053 -0.2898  0.1315  1.1405
18128TIP3    H275876   4.460   1.732   2.940  1.0088  1.0554  1.1149
18129TIP3   OH275877   5.617   1.351   3.951 -0.3917  0.7075  0.3309
18129TIP3    H175878   5.637   1.429   3.899 -1.2206  0.9812  0.4043
18129TIP3    H275879   5.648   1.278   3.897  0.4896  1.0932  0.3095
18130TIP3   OH275880   6.389   3.060   4.174 -0.0240  0.0798 -0.4979
18130TIP3    H175881   6.318   3.071   4.237  1.6007  1.8874  1.1203
18130TIP3    H275882   6.409   2.967   4.176 -0.9282 -0.1100  0.6178
18131TIP3   OH275883   2.728   0.832  15.654 -0.1839 -0.0389 -0.2775
18131TIP3    H175884   2.749   0.796  15.741 -1.7466 -0.2451  0.0352
18131TIP3    H275885   2.660   0.774  15.620 -0.6461  0.9187 -1.0219
18132TIP3   OH275886   3.963   3.344  15.101 -0.6092  0.7344 -0.2689
18132TIP3    H175887   3.882   3.350  15.151  0.2614 -0.8591  1.4844
18132TIP3    H275888   4.031   3.335  15.167  0.7356 -0.3814 -1.7210
18133TIP3   OH275889   4.885   2.334   4.371  0.0763  0.2695 -0.6455
18133TIP3    H175890   4.916   2.392   4.301  0.4354  0.5530 -0.2578
18133TIP3    H275891   4.821   2.387   4.419 -0.3710 -0.0186 -0.9225
18134TIP3   OH275892   2.475   1.614  15.251 -0.6983 -0.6066 -0.3347
18134TIP3    H175893   2.556   1.564  15.262 -0.6792 -0.6932 -0.8667
18134TIP3    H275894   2.475   1.676  15.324 -0.2929 -0.7942 -0.1725
18135TIP3   OH275895   5.834   3.478  13.742  0.4055  0.1843 -0.5220
18135TIP3    H175896   5.837   3.556  13.796  1.4545  1.2839 -2.0658
18135TIP3    H275897   5.926   3.453  13.730  0.0736 -1.9042  0.7253
18136TIP3   OH275898   1.166   3.030   6.902  0.3802  0.0016 -0.7085
18136TIP3    H175899   1.168   2.937   6.924 -0.2734  0.2314  0.3811
18136TIP3    H275900   1.255   3.062   6.918  0.4119 -0.2739 -0.3422
18137TIP3   OH275901   6.713   5.720   1.102  0.6759 -0.4177 -0.4392
18137TIP3    H175902   6.805   5.741   1.119  0.6944 -0.4365 -0.5147
18137TIP3    H275903   6.686   5.783   1.036  0.6637 -0.4769 -0.4914
18138TIP3   OH275904   5.046   0.783   2.782 -0.8307 -0.0410  0.1004
18138TIP3    H175905   5.085   0.717   2.840  1.9207  1.0914 -0.2876
18138TIP3    H275906   5.051   0.744   2.694  1.4367  0.8088 -0.2284
18139TIP3   OH275907   0.806   5.206  12.243 -0.3402  0.3481  0.0939
18139TIP3    H175908   0.853   5.142  12.296  2.9725  1.3691 -1.3549
18139TIP3    H275909   0.764   5.153  12.175  1.5475 -0.4567 -0.5280
18140TIP3   OH275910   6.405   3.201   0.848 -0.4625 -0.4483  0.4297
18140TIP3    H175911   6.478   3.162   0.801 -1.8454 -2.3510 -0.2285
18140TIP3    H275912   6.380   3.277   0.795  0.9593  0.2119  0.6476
18141TIP3   OH275913   6.580   5.155  15.964  0.2539  0.4310  1.0751
18141TIP3    H175914   6.508   5.211  15.995  0.8084  1.7455  0.1210
18141TIP3    H275915   6.548   5.120  15.881  0.1893 -0.0920  1.3219
18142TIP3   OH275916   4.684   0.669   1.315  0.5314  0.3440 -0.3262
18142TIP3    H175917   4.684   0.681   1.409 -1.4635 -2.5475  0.1789
18142TIP3    H275918   4.604   0.712   1.284  0.8373  0.7092 -0.6262
18143TIP3   OH275919   4.796   3.877  14.650 -0.2561  0.8754 -0.1547
18143TIP3    H175920   4.880   3.921  14.662  0.0928  0.4424 -0.9104
18143TIP3    H275921   4.818   3.793  14.609 -1.1474  1.3602 -1.7202
18144TIP3   OH275922   3.189   3.642   1.864  0.1813  0.5668 -0.2247
18144TIP3    H175923   3.282   3.658   1.853  0.2838  0.2829  0.1975
18144TIP3    H275924   3.167   3.576   1.798  0.7406 -0.9601  1.0337
18145TIP3   OH275925   3.611   1.006   5.424 -0.0856 -0.1631  0.2870
18145TIP3    H175926   3.579   1.096   5.426  0.6748  0.1338 -0.3087
18145TIP3    H275927   3.676   1.003   5.494 -1.1948 -0.6955  1.3307
18146TIP3   OH275928   3.963   5.329   5.151  0.3604  0.0991 -0.3913
18146TIP3    H175929   4.042   5.279   5.131  0.4277 -0.6578  1.4905
18146TIP3    H275930   3.894   5.263   5.156  0.1492  0.3684  0.5696
18147TIP3   OH275931   3.573   4.435   0.558 -0.7463  0.3091  0.3479
18147TIP3    H175932   3.484   4.400   0.550 -1.2203  1.3031  1.0922
18147TIP3    H275933   3.570   4.519   0.512 -0.8692  1.4673  2.3343
18148TIP3   OH275934   1.600   5.327  13.791 -0.3051 -0.4833 -0.1388
18148TIP3    H175935   1.536   5.380  13.744  0.0194 -1.6408 -1.9830
18148TIP3    H275936   1.659   5.293  13.723 -0.6680 -3.4201  0.8432
18149TIP3   OH275937   5.824   1.477  14.464 -0.1887  0.1531 -0.0141
18149TIP3    H175938   5.859   1.552  14.416  2.1778  0.5705  2.1177
18149TIP3    H275939   5.750   1.447  14.411  0.4480  2.2931 -2.3390
18150TIP3   OH275940   3.653   1.280   0.350  0.3173  0.4077 -0.3827
18150TIP3    H175941   3.689   1.329   0.276  0.2702  1.5660  0.3397
18150TIP3    H275942   3.729   1.236   0.388  0.4005  0.1003 -0.8903
18151TIP3   OH275943   1.340   2.904   1.854  0.0016  0.3130  0.5552
18151TIP3    H175944   1.401   2.932   1.922  0.0962 -0.6340  0.8867
18151TIP3    H275945   1.344   2.973   1.788 -1.7014  2.3478  2.4182
18152TIP3   OH275946   2.162   4.331   2.476 -0.2027 -0.7610  0.1948
18152TIP3    H175947   2.156   4.264   2.407  1.3557  2.5284 -3.5098
18152TIP3    H275948   2.082   4.382   2.467  1.0762  1.1425 -0.9828
18153TIP3   OH275949   2.442   0.322  12.729 -0.4479  0.4728  0.6205
18153TIP3    H175950   2.422   0.416  12.732 -1.0848  0.3407  0.5153
18153TIP3    H275951   2.531   0.316  12.763  1.1086  1.5404 -2.7404
18154TIP3   OH275952   4.488   6.033  12.104  0.2204  0.3124  0.4704
18154TIP3    H175953   4.424   5.966  12.081  1.1559 -0.7208  0.7906
18154TIP3    H275954   4.464   6.059  12.194 -0.4756  0.8286  0.1474
18155TIP3   OH275955   6.572   5.005   3.059  0.6252  0.6963 -0.4972
18155TIP3    H175956   6.579   5.081   3.001  1.8803  2.5319  1.8353
18155TIP3    H275957   6.508   5.031   3.125 -0.2189 -1.0091 -0.5949
18156TIP3   OH275958   5.489   2.837   2.195 -0.3908  0.5387  0.1547
18156TIP3    H175959   5.563   2.780   2.218 -1.3154 -0.5306  0.5841
18156TIP3    H275960   5.481   2.828   2.100 -1.3223 -1.1002  0.3570
18157TIP3   OH275961   0.357   3.336   4.314  0.0419 -0.3624 -0.1130
18157TIP3    H175962   0.300   3.346   4.390 -0.4203 -0.2177 -0.4814
18157TIP3    H275963   0.377   3.242   4.311 -1.2780 -0.6340 -0.7833
18158TIP3   OH275964   2.219   3.696   2.183  0.6045  0.3167  0.2580
18158TIP3    H175965   2.179   3.740   2.258 -1.4265  2.8586 -2.0639
18158TIP3    H275966   2.231   3.606   2.211 -1.3669  0.8113  3.1559
18159TIP3   OH275967   0.093   1.021  11.778  0.0093  0.5885  0.3350
18159TIP3    H175968   0.130   1.083  11.841 -1.0035  0.6590  0.8826
18159TIP3    H275969   0.166   0.998  11.721  1.3767 -0.6687  2.4512
18160TIP3   OH275970   3.539   3.841  13.299 -0.2386  0.4398 -0.4617
18160TIP3    H175971   3.477   3.832  13.371  1.8753 -1.0564  1.2870
18160TIP3    H275972   3.590   3.919  13.321  1.9444 -1.2864  1.0421
18161TIP3   OH275973   4.629   0.634  14.060  0.3598  0.3505  0.1569
18161TIP3    H175974   4.600   0.726  14.060  1.3603  0.7041  1.8511
18161TIP3    H275975   4.570   0.591  14.121 -0.8213 -0.4333 -1.4580
18162TIP3   OH275976   2.158   3.433  13.097  0.2279 -0.1807 -0.9329
18162TIP3    H175977   2.095   3.505  13.094  0.9055  0.6513  1.9290
18162TIP3    H275978   2.112   3.362  13.141  0.8695  0.0155  0.0876
18163TIP3   OH275979   2.455   5.612   1.782  0.1797  0.5641  0.4886
18163TIP3    H175980   2.390   5.674   1.815 -0.3358 -0.4544  1.4484
18163TIP3    H275981   2.538   5.659   1.784 -0.3981  1.6308 -0.0213
18164TIP3   OH275982   1.700   2.212  15.948 -0.7568 -0.0586 -0.3288
18164TIP3    H175983   1.660   2.278  16.005  1.3245 -1.0266  2.4611
18164TIP3    H275984   1.627   2.180  15.895 -3.3507 -0.2822  2.9732
18165TIP3   OH275985   5.982   2.358   0.686 -0.6078  0.5124  0.1891
18165TIP3    H175986   5.964   2.438   0.736 -0.0668  1.1386 -0.6024
18165TIP3    H275987   6.030   2.388   0.609 -1.7735 -0.3932 -0.9360
18166TIP3   OH275988   3.086   0.529   2.350  0.3808  0.3446 -0.0665
18166TIP3    H175989   3.162   0.474   2.373 -0.3111 -1.0057 -0.8868
18166TIP3    H275990   3.023   0.468   2.312 -0.0420  1.8624 -1.9658
18167TIP3   OH275991   1.999   3.968   5.481 -0.1419 -0.4067  0.9037
18167TIP3    H175992   1.935   4.036   5.503 -0.0746 -0.5780  1.6673
18167TIP3    H275993   1.989   3.955   5.387  0.9570  1.8191  0.3934
18168TIP3   OH275994   5.993   0.671   4.576  0.2959  0.6989  0.3837
18168TIP3    H175995   5.959   0.719   4.652 -3.7453  0.1695 -0.8619
18168TIP3    H275996   6.035   0.738   4.522  2.0501  1.2948  2.3448
18169TIP3   OH275997   6.328   2.062   1.200  0.0040  0.0568 -0.2429
18169TIP3    H175998   6.383   2.082   1.124 -0.8230  1.8523 -0.4052
18169TIP3    H275999   6.242   2.041   1.163 -0.1652  0.0494  0.1476
18170TIP3   OH276000   5.315   3.268   5.598  0.1135 -0.5167 -0.1007
18170TIP3    H176001   5.252   3.293   5.530  1.8426 -2.2494 -2.5111
18170TIP3    H276002   5.278   3.189   5.637 -0.0952 -0.4816 -0.2232
18171TIP3   OH276003   1.326   4.713   2.005 -0.5335 -0.1389  0.1747
18171TIP3    H176004   1.255   4.649   2.010  0.0981 -0.8762 -0.1513
18171TIP3    H276005   1.404   4.665   2.033 -0.6017  1.4595  3.6648
18172TIP3   OH276006   1.224   2.205  12.083 -0.2693  0.4170  0.2122
18172TIP3    H176007   1.174   2.245  12.011  1.3362 -1.2331 -1.9645
18172TIP3    H276008   1.213   2.111  12.070 -0.2353  0.0634  2.4380
18173TIP3   OH276009   1.084   5.998  13.601  0.5418  0.4995 -0.2471
18173TIP3    H176010   1.105   6.041  13.684  1.0381 -0.2149  0.0081
18173TIP3    H276011   1.113   6.060  13.534 -0.3284  1.3033  0.0987
18174TIP3   OH276012   4.715   0.318  14.116 -0.2671 -0.5399 -0.4708
18174TIP3    H176013   4.707   0.393  14.175 -1.1499 -0.8587 -0.1736
18174TIP3    H276014   4.629   0.277  14.117  0.0368 -1.2168 -1.0972
18175TIP3   OH276015   6.461   1.815  14.163 -0.4436  0.1324  0.2745
18175TIP3    H176016   6.522   1.746  14.190 -0.1677  0.9095  1.7446
18175TIP3    H276017   6.515   1.894  14.158 -1.0543  0.5501  0.1621
18176TIP3   OH276018   6.603   0.014  15.058 -0.3764  0.5348 -0.2129
18176TIP3    H176019   6.672   0.049  15.001 -0.1667 -2.2810 -1.8664
18176TIP3    H276020   6.543   0.088  15.071  1.9989  2.5819 -0.1389
18177TIP3   OH276021   0.324   3.864  14.340 -0.0262  0.2159  0.1223
18177TIP3    H176022   0.247   3.844  14.287  0.5615 -1.4223 -0.1652
18177TIP3    H276023   0.307   3.820  14.423 -0.2309  1.4471  0.7481
18178TIP3   OH276024   1.584   5.355   2.905  0.4251 -0.2191  0.3488
18178TIP3    H176025   1.638   5.432   2.921  0.0444  0.5395 -1.6733
18178TIP3    H276026   1.584   5.346   2.809  0.1994 -2.5563  0.5220
18179TIP3   OH276027   6.457   1.706   5.575 -0.0917  0.0470 -0.2160
18179TIP3    H176028   6.477   1.673   5.662  0.2123  1.3006  0.2130
18179TIP3    H276029   6.400   1.782   5.590  0.6814  0.8247 -1.0484
18180TIP3   OH276030   2.778   0.973   4.514  0.2272 -0.5723 -0.4038
18180TIP3    H176031   2.818   0.897   4.555  1.0441 -0.3881 -0.8240
18180TIP3    H276032   2.687   0.971   4.541  0.6990 -0.5287  1.3121
18181TIP3   OH276033   4.041   3.228  11.824  0.6876 -0.1505 -0.9198
18181TIP3    H176034   4.106   3.297  11.838 -0.8473  1.0073  1.0230
18181TIP3    H276035   4.051   3.204  11.732  2.4781  1.3959 -1.1931
18182TIP3   OH276036   5.057   5.635  11.862 -0.5541 -0.0364  0.5547
18182TIP3    H176037   5.101   5.621  11.779 -0.3087  1.1436  0.4599
18182TIP3    H276038   4.992   5.703  11.844 -2.0111 -1.2970  0.8400
18183TIP3   OH276039   2.680   2.736  11.840 -0.3903  0.4582 -0.2621
18183TIP3    H176040   2.591   2.705  11.821 -0.3963 -0.2173  0.8082
18183TIP3    H276041   2.667   2.823  11.877 -0.6143  0.3714 -0.1293
18184TIP3   OH276042   0.489   2.105   4.047  0.5469  0.2270 -0.8790
18184TIP3    H176043   0.426   2.165   4.007 -0.9109  0.1056  1.0833
18184TIP3    H276044   0.556   2.163   4.085 -1.3607  0.8053  1.8645
18185TIP3   OH276045   6.058   4.775  14.326  0.0115  0.0456  0.5337
18185TIP3    H176046   6.017   4.809  14.247 -0.5484 -1.0974  0.3123
18185TIP3    H276047   6.116   4.846  14.355  0.6237  0.3004 -1.1760
18186TIP3   OH276048   1.104   6.153  10.627  0.1273 -0.0347 -0.3736
18186TIP3    H176049   1.194   6.184  10.639  0.0111  0.4199 -0.6773
18186TIP3    H276050   1.110   6.058  10.639  0.5492  0.0543  0.1852
18187TIP3   OH276051   4.627   0.728   2.175  0.2147  0.0312 -0.0736
18187TIP3    H176052   4.545   0.772   2.153  1.1015  0.8359 -1.9693
18187TIP3    H276053   4.625   0.720   2.271 -1.5203  1.1163  0.0188
18188TIP3   OH276054   6.545   1.857  13.452  0.2093 -0.0805 -0.1863
18188TIP3    H176055   6.571   1.765  13.449  1.1350  0.1528  0.3248
18188TIP3    H276056   6.563   1.885  13.541 -1.3635  0.2465  0.0517
18189TIP3   OH276057   0.325   6.649  11.622  0.2700  0.9355  1.0299
18189TIP3    H176058   0.262   6.719  11.605 -0.0835  0.0476 -1.7156
18189TIP3    H276059   0.411   6.689  11.606  0.0559  0.7383 -0.8119
18190TIP3   OH276060   1.048   3.505   3.946  0.1561 -0.0037  0.2088
18190TIP3    H176061   1.065   3.473   4.035 -2.6345 -0.9058  0.5289
18190TIP3    H276062   1.086   3.438   3.889 -1.5177 -1.6016  0.8461
18191TIP3   OH276063   5.125   3.296  11.952 -0.0861 -0.1169  0.5539
18191TIP3    H176064   5.149   3.376  11.905 -0.1839  0.2208  1.0656
18191TIP3    H276065   5.185   3.229  11.919 -1.0943 -0.2606 -1.1197
18192TIP3   OH276066   5.509   1.729  14.542  0.2777  1.2080 -0.0185
18192TIP3    H176067   5.581   1.736  14.603 -0.4009 -0.2340  0.9978
18192TIP3    H276068   5.551   1.718  14.456  1.3385 -1.0677  0.7071
18193TIP3   OH276069   5.072   1.651   0.059 -0.0527 -0.1842 -0.4441
18193TIP3    H176070   5.020   1.596   0.001 -0.3781  0.8330 -1.1389
18193TIP3    H276071   5.137   1.592   0.097 -0.2534 -0.9898 -1.3336
18194TIP3   OH276072   2.499   0.015   5.724 -0.7612  0.4220  0.2416
18194TIP3    H176073   2.447  -0.035   5.787 -0.3624 -0.2280  0.0706
18194TIP3    H276074   2.539  -0.052   5.668 -0.8630  0.9762 -0.5044
18195TIP3   OH276075   2.912   2.549   1.837  0.1208  0.1762  0.1943
18195TIP3    H176076   2.873   2.571   1.922  1.6544  0.5619  0.8451
18195TIP3    H276077   3.000   2.517   1.859 -0.3642 -2.2495 -1.0762
18196TIP3   OH276078   1.527   0.236   4.409  0.0270 -0.2627 -0.1755
18196TIP3    H176079   1.537   0.150   4.369  0.9081 -0.0021 -0.5305
18196TIP3    H276080   1.502   0.218   4.500 -0.3499 -0.8776 -0.3975
18197TIP3   OH276081   5.149   4.416   0.321 -0.1114 -0.1221 -0.0683
18197TIP3    H176082   5.217   4.467   0.365  0.3755 -0.9299  0.1345
18197TIP3    H276083   5.133   4.464   0.239 -0.4952  0.9743  0.6242
18198TIP3   OH276084   6.114   3.775   5.623  0.1712  0.1866  0.1327
18198TIP3    H176085   6.126   3.699   5.567 -0.3754  0.9292 -1.0284
18198TIP3    H276086   6.118   3.740   5.712  2.3080 -0.8497 -0.3026
18199TIP3   OH276087   2.265   4.102   4.968 -0.4969 -0.1632  0.0881
18199TIP3    H176088   2.296   4.145   5.048  0.9020 -1.0036  0.0373
18199TIP3    H276089   2.171   4.091   4.981 -0.2545 -0.5251  1.7538
18200TIP3   OH276090   0.396   1.947   4.236 -0.2453 -0.0358  0.4247
18200TIP3    H176091   0.403   2.024   4.293  0.1385 -0.4954  0.9974
18200TIP3    H276092   0.410   1.982   4.148 -2.8420  1.0413  0.3409
18201TIP3   OH276093   0.694   1.448   0.314 -0.4706 -0.1034  0.5139
18201TIP3    H176094   0.743   1.528   0.296  0.2100 -0.4749  0.6612
18201TIP3    H276095   0.731   1.414   0.395 -0.0457 -1.0853 -0.0622
18202TIP3   OH276096   2.905   0.308   3.897 -0.4082 -0.0636  0.8123
18202TIP3    H176097   2.818   0.315   3.857 -1.1518 -0.4122  2.3175
18202TIP3    H276098   2.900   0.230   3.952  0.6721  0.2528  1.3846
18203TIP3   OH276099   0.067   0.452   1.792 -0.0366 -0.0531  0.8965
18203TIP3    H176100   0.011   0.495   1.857  2.8685  1.6236  2.5230
18203TIP3    H276101   0.068   0.511   1.717  0.5033  0.5658  1.3781
18204TIP3   OH276102   2.146   6.099  13.185 -0.0896 -0.0140 -0.3103
18204TIP3    H176103   2.076   6.087  13.249 -0.5007 -1.3488 -0.9762
18204TIP3    H276104   2.227   6.091  13.236 -0.4138 -0.6216  0.1180
18205TIP3   OH276105   6.192   2.625   3.777 -0.6090  0.7510  0.3811
18205TIP3    H176106   6.268   2.657   3.826 -0.7407 -0.0111  1.0842
18205TIP3    H276107   6.188   2.683   3.701  0.3755  1.1205  0.5908
18206TIP3   OH276108   4.035   5.714  15.300 -0.3582 -0.2788 -0.0358
18206TIP3    H176109   3.979   5.696  15.224  0.6061  0.2564 -0.9058
18206TIP3    H276110   4.043   5.630  15.345  0.5407 -1.0757 -1.5776
18207TIP3   OH276111   1.905   0.498  11.402 -0.1113  0.1627 -0.3776
18207TIP3    H176112   1.974   0.562  11.390  0.2991 -0.3366 -0.7395
18207TIP3    H276113   1.873   0.481  11.314 -0.5902  0.2711 -0.2279
18208TIP3   OH276114   3.698   2.889   5.475  0.5024 -0.2564  0.7813
18208TIP3    H176115   3.639   2.962   5.453  1.8187  0.9053  0.9272
18208TIP3    H276116   3.666   2.815   5.425 -1.7569  0.0136  1.7151
18209TIP3   OH276117   5.491   0.181   5.699  0.6069  0.5459 -0.1713
18209TIP3    H176118   5.538   0.212   5.777 -0.4977  1.1863  0.2606
18209TIP3    H276119   5.422   0.246   5.685 -1.6850 -1.5617  0.6516
18210TIP3   OH276120   2.448   2.721   5.243  0.4478  0.0849 -0.2765
18210TIP3    H176121   2.426   2.788   5.178 -0.8672 -0.7415 -0.7129
18210TIP3    H276122   2.491   2.652   5.192  1.0429  0.2163  0.0382
18211TIP3   OH276123   0.470   1.120  14.042 -0.2389 -0.3492 -0.6969
18211TIP3    H176124   0.419   1.054  14.089  0.2315 -0.6913 -0.6577
18211TIP3    H276125   0.437   1.204  14.075  0.3541 -0.5796  0.5524
18212TIP3   OH276126   6.581   1.012   6.330 -0.0342  0.0102 -0.8840
18212TIP3    H176127   6.676   0.999   6.331 -0.1601 -2.0993  2.6122
18212TIP3    H276128   6.567   1.097   6.373  0.2913 -0.4507  0.1689
18213TIP3   OH276129   5.149   4.876   5.277 -0.0612  0.1523 -0.8768
18213TIP3    H176130   5.160   4.785   5.303  0.3300 -1.0273 -4.5553
18213TIP3    H276131   5.057   4.895   5.291  0.3543  0.2944  2.6050
18214TIP3   OH276132   6.610   5.472  16.728  0.5543  0.3069 -0.2454
18214TIP3    H176133   6.561   5.517  16.797  0.5591 -1.5566  1.0728
18214TIP3    H276134   6.696   5.514  16.729  0.1641  1.1300  0.0091
18215TIP3   OH276135   3.619   0.255  10.869  0.0992  0.1562  0.2399
18215TIP3    H176136   3.630   0.161  10.880  2.2820  0.2881 -0.4994
18215TIP3    H276137   3.552   0.264  10.801  0.2273 -0.8619 -0.0328
18216TIP3   OH276138   0.730   5.803   3.728  0.2900  0.3093  0.3043
18216TIP3    H176139   0.642   5.791   3.766  0.0449  0.3425 -0.2455
18216TIP3    H276140   0.714   5.811   3.634  0.9681 -0.5334  0.1151
18217TIP3   OH276141   3.301   0.031   3.198 -0.2879 -0.3297  0.1882
18217TIP3    H176142   3.302   0.102   3.134 -1.2067 -1.3738 -1.0487
18217TIP3    H276143   3.254   0.066   3.273 -0.0056  0.6321 -0.0749
18218TIP3   OH276144   1.959   5.122   2.929  0.2390  0.1347 -0.0063
18218TIP3    H176145   1.881   5.168   2.959  0.5595  0.8203 -0.2024
18218TIP3    H276146   1.949   5.033   2.962 -1.0368 -0.0226 -0.7339
18219TIP3   OH276147   2.241   0.436  14.773  0.0942 -0.4525 -0.2082
18219TIP3    H176148   2.268   0.356  14.728  1.1725 -0.5870  0.6232
18219TIP3    H276149   2.147   0.443  14.756 -0.3361 -2.6988  0.9293
18220TIP3   OH276150   3.949   1.046   3.701 -0.2937  0.5886 -0.4155
18220TIP3    H176151   3.989   1.093   3.628 -0.5754  2.5902  0.6241
18220TIP3    H276152   3.998   0.964   3.707  1.6830  1.6530 -1.0352
18221TIP3   OH276153   1.759   0.566   6.426 -0.3436 -0.0015 -0.2740
18221TIP3    H176154   1.683   0.524   6.387 -0.1401  0.2494 -0.9566
18221TIP3    H276155   1.812   0.493   6.459 -0.3425 -0.2461 -0.8013
18222TIP3   OH276156   3.574   5.078   5.480 -0.0174 -0.4913 -0.1051
18222TIP3    H176157   3.484   5.086   5.449  0.2294  2.1786 -0.2959
18222TIP3    H276158   3.617   5.023   5.414 -1.7001 -2.8281  0.5955
18223TIP3   OH276159   4.478   2.602   3.289 -0.0025 -0.0825 -0.3268
18223TIP3    H176160   4.571   2.597   3.265  0.1907 -0.5267  0.4808
18223TIP3    H276161   4.442   2.517   3.263 -0.5942  0.6922 -2.2155
18224TIP3   OH276162   1.386   0.969   0.033  0.4754  0.0391 -0.5606
18224TIP3    H176163   1.426   1.019   0.104  2.8797 -0.4848 -1.4486
18224TIP3    H276164   1.405   0.877   0.055  0.1830 -0.1940 -1.2566
18225TIP3   OH276165   2.423   5.244  12.471  0.3318  0.1158 -0.1814
18225TIP3    H176166   2.441   5.289  12.553 -0.0896  1.2800 -0.6982
18225TIP3    H276167   2.476   5.165  12.474  3.3231  1.9734 -0.4063
18226TIP3   OH276168   2.655   4.500  11.400 -1.4584 -0.1743 -0.8066
18226TIP3    H176169   2.626   4.411  11.417  0.7474 -0.8137  0.0046
18226TIP3    H276170   2.685   4.499  11.309 -0.8368 -0.4665 -0.6064
18227TIP3   OH276171   4.343   4.518  16.417 -0.0532 -0.5078 -0.3935
18227TIP3    H176172   4.428   4.482  16.395  0.0314 -0.6630  0.1646
18227TIP3    H276173   4.338   4.512  16.513 -0.6804 -0.4846 -0.4197
18228TIP3   OH276174   0.311   3.113   3.915 -0.1481 -0.3317 -0.8235
18228TIP3    H176175   0.267   3.088   3.834 -0.5556  2.3897 -1.5453
18228TIP3    H276176   0.262   3.189   3.946  1.9013  0.6238  0.2685
18229TIP3   OH276177   0.436   2.785  11.168  0.3638 -0.4030 -0.0771
18229TIP3    H176178   0.418   2.779  11.075  1.2156  1.2151 -0.3809
18229TIP3    H276179   0.421   2.877  11.190 -2.8203 -1.2562  2.0730
18230TIP3   OH276180   3.605   3.963  15.501  0.9549 -0.5368 -0.3554
18230TIP3    H176181   3.589   3.909  15.424 -1.4270 -0.2583 -0.1178
18230TIP3    H276182   3.690   3.933  15.534  0.7313 -2.5787 -1.5008
18231TIP3   OH276183   2.561   1.981  11.091  0.2468 -0.0905  0.0148
18231TIP3    H176184   2.602   1.933  11.019 -0.6175  1.3351 -1.4981
18231TIP3    H276185   2.484   1.929  11.114 -0.7867  0.5558 -1.7325
18232TIP3   OH276186   1.990   3.055   0.861  0.5381 -1.1159 -0.3293
18232TIP3    H176187   2.079   3.044   0.830  0.5238 -4.1665  0.3830
18232TIP3    H276188   1.937   3.064   0.782  1.5671  3.5104 -0.7615
18233TIP3   OH276189   3.582   5.422   4.353 -0.4339 -0.5252  0.1821
18233TIP3    H176190   3.563   5.475   4.430  0.0926 -0.2453  0.1220
18233TIP3    H276191   3.667   5.452   4.323 -0.6548 -0.5891 -0.5470
18234TIP3   OH276192   2.616   1.707   0.328  0.1762 -0.2482 -0.2909
18234TIP3    H176193   2.536   1.750   0.297  0.2530  0.5837  0.6027
18234TIP3    H276194   2.587   1.653   0.401  0.4316  0.1126  0.0829
18235TIP3   OH276195   4.029   5.420   1.425 -0.4142 -0.5287  0.1421
18235TIP3    H176196   3.972   5.410   1.501  1.6013  0.7854  1.9572
18235TIP3    H276197   4.012   5.509   1.393 -0.0295 -0.4547  0.1360
18236TIP3   OH276198   3.557   4.680   5.861  0.1116  0.0183 -0.1236
18236TIP3    H176199   3.615   4.754   5.882  1.4156 -0.5938 -1.4080
18236TIP3    H276200   3.476   4.720   5.830  0.3804  0.8994  0.2886
18237TIP3   OH276201   0.681   5.187  14.413 -0.5706  0.1543 -0.0311
18237TIP3    H176202   0.608   5.162  14.357  0.7005 -1.8802 -0.9199
18237TIP3    H276203   0.714   5.103  14.448  1.4933  0.9466  0.0855
18238TIP3   OH276204   5.507   0.079   0.044  0.2629  0.5480 -0.0531
18238TIP3    H176205   5.563   0.131  -0.014 -1.3594  1.3710 -0.9763
18238TIP3    H276206   5.560   0.004   0.070  1.3357  0.6084 -1.9463
18239TIP3   OH276207   4.838   3.353  16.442 -0.0516 -0.2092  0.4102
18239TIP3    H176208   4.866   3.444  16.432  0.7430 -0.4230  0.7108
18239TIP3    H276209   4.912   3.308  16.483 -0.3994 -1.0153  0.1816
18240TIP3   OH276210   5.838   2.827   4.977  0.4890 -0.3385  0.8398
18240TIP3    H176211   5.819   2.888   4.906  0.6136 -0.4340  0.7240
18240TIP3    H276212   5.753   2.792   5.001  0.3514  0.2623  1.2542
18241TIP3   OH276213   6.434   6.097   6.289 -0.1884 -0.4955  0.4136
18241TIP3    H176214   6.430   6.049   6.206 -0.1949 -1.9537  1.2331
18241TIP3    H276215   6.378   6.047   6.349 -0.2177  0.5589  1.2913
18242TIP3   OH276216   4.464   5.151  12.302  0.4675 -0.1296 -0.5812
18242TIP3    H176217   4.456   5.148  12.398  1.7034 -1.3859 -0.4920
18242TIP3    H276218   4.404   5.221  12.276 -0.1098  0.0540  1.0824
18243TIP3   OH276219   5.780   3.508   3.647 -0.2966 -0.5280 -0.7426
18243TIP3    H176220   5.720   3.517   3.721  1.4379 -0.2207  0.6911
18243TIP3    H276221   5.740   3.441   3.591 -2.6333  0.6300 -0.5592
18244TIP3   OH276222   3.764   0.795  15.748 -0.2727  0.5654 -0.4947
18244TIP3    H176223   3.713   0.862  15.701 -1.5383 -0.3684 -0.5196
18244TIP3    H276224   3.742   0.713  15.704  1.0672  0.0861 -0.3077
18245TIP3   OH276225   2.431   5.594   2.409  0.3417 -0.1557 -0.2816
18245TIP3    H176226   2.360   5.657   2.396 -0.7731 -1.2836  0.1306
18245TIP3    H276227   2.400   5.538   2.481  1.3290 -1.1300 -0.5956
18246TIP3   OH276228   5.878   6.191   5.200 -0.3807 -0.2355 -0.6241
18246TIP3    H176229   5.930   6.264   5.166  0.2402  0.0402  0.8171
18246TIP3    H276230   5.847   6.222   5.285  0.4189 -1.8683  0.3096
18247TIP3   OH276231   5.181   4.408   1.250 -0.4013  0.0477 -0.2213
18247TIP3    H176232   5.179   4.415   1.154 -0.2648  1.8776 -0.1227
18247TIP3    H276233   5.119   4.338   1.270  0.7812 -1.5231 -1.7180
18248TIP3   OH276234   1.437   4.274   5.257  0.2835  0.0447 -0.1616
18248TIP3    H176235   1.483   4.296   5.176  0.6926 -0.0208  0.0516
18248TIP3    H276236   1.443   4.353   5.311 -0.5839  0.3214 -0.4669
18249TIP3   OH276237   4.130   6.570  10.634 -0.3976  0.0228 -1.0523
18249TIP3    H176238   4.126   6.664  10.652  3.4903 -0.0662  1.4758
18249TIP3    H276239   4.216   6.558  10.592 -0.8671 -2.4117 -1.4634
18250TIP3   OH276240   1.655   3.313   6.097  0.4849 -0.3099  0.3926
18250TIP3    H176241   1.624   3.374   6.164  0.0011 -1.1780  0.9891
18250TIP3    H276242   1.650   3.362   6.015  1.1911  0.8142  0.9942
18251TIP3   OH276243   5.576   4.926   0.143  0.0802 -0.3692  0.0675
18251TIP3    H176244   5.486   4.913   0.115  0.3388 -0.9158 -0.5339
18251TIP3    H276245   5.617   4.977   0.073 -0.0783  1.0084  0.9263
18252TIP3   OH276246   4.408   3.797   2.873 -0.7345 -0.2848 -0.5093
18252TIP3    H176247   4.343   3.750   2.821  0.4087 -1.2060 -1.1477
18252TIP3    H276248   4.491   3.753   2.853 -0.2552 -0.8149  2.1996
18253TIP3   OH276249   2.341   0.983   6.688 -0.5144 -0.9159  0.0567
18253TIP3    H176250   2.380   0.992   6.602  0.7609  1.3666  0.7988
18253TIP3    H276251   2.395   0.918   6.733  0.6216 -0.0038  0.0569
18254TIP3   OH276252   4.122   1.036   6.352 -0.0953  0.7395  0.5353
18254TIP3    H176253   4.040   1.073   6.319 -0.1870 -1.8888 -2.6296
18254TIP3    H276254   4.106   0.942   6.355  2.9880  0.0453 -0.9805
18255TIP3   OH276255   4.627   3.961   0.909 -0.3895  0.5131  0.1781
18255TIP3    H176256   4.600   3.873   0.883 -0.2521  0.1929  1.0703
18255TIP3    H276257   4.588   3.973   0.996  2.6750 -0.1881  1.7961
18256TIP3   OH276258   1.405   2.519   0.815  0.0360  0.3528 -0.2636
18256TIP3    H176259   1.466   2.449   0.836 -0.9022 -0.5290 -0.4285
18256TIP3    H276260   1.433   2.592   0.871  1.9049  0.3523 -1.1306
18257TIP3   OH276261   2.312   4.969   2.615 -0.0871 -0.0666 -0.5778
18257TIP3    H176262   2.368   5.042   2.640  0.8927 -1.1818  0.6345
18257TIP3    H276263   2.288   4.928   2.698 -1.3607 -0.5887 -1.1851
18258TIP3   OH276264   4.430   6.070   3.771  0.0171 -0.0924 -0.2175
18258TIP3    H176265   4.358   6.120   3.733  0.3632 -1.5060 -3.0023
18258TIP3    H276266   4.509   6.112   3.738  0.3592 -0.9255 -0.4974
18259TIP3   OH276267   1.627   6.628   2.778  0.1913 -0.2542 -0.1978
18259TIP3    H176268   1.629   6.723   2.790 -0.1673 -0.2432 -0.2209
18259TIP3    H276269   1.622   6.593   2.867 -0.2283 -0.2335 -0.2100
18260TIP3   OH276270   6.064   1.500  11.967 -0.9308 -0.4446  0.0842
18260TIP3    H176271   5.969   1.506  11.981 -0.8523  0.6070  0.2375
18260TIP3    H276272   6.077   1.538  11.880 -0.6841 -0.9090 -0.0841
18261TIP3   OH276273   4.481   2.140  11.141 -0.2233 -0.0766  0.2571
18261TIP3    H176274   4.394   2.180  11.142 -0.1271  0.1326  0.3949
18261TIP3    H276275   4.471   2.061  11.088 -0.4485  0.0576  0.0961
18262TIP3   OH276276   0.027   3.357   0.760  0.0656  0.0471 -0.6658
18262TIP3    H176277  -0.010   3.437   0.722  2.3417  1.7486  0.4418
18262TIP3    H276278   0.003   3.288   0.699 -3.3762  1.2214 -0.8844
18263TIP3   OH276279   4.399   0.124  16.695  0.2358 -0.8820 -0.1305
18263TIP3    H176280   4.411   0.193  16.630  0.6780  1.0136  1.8536
18263TIP3    H276281   4.337   0.161  16.757  2.0056 -1.4173  2.0723
18264TIP3   OH276282   6.595   4.827  15.280  0.3229 -0.1673 -0.6059
18264TIP3    H176283   6.527   4.782  15.229  0.0530 -1.0081  0.4405
18264TIP3    H276284   6.638   4.757  15.329  3.0382  0.1262 -2.4048
18265TIP3   OH276285   1.102   5.628   0.035  0.2422  0.2118 -0.2564
18265TIP3    H176286   1.124   5.700  -0.024  0.0779 -0.4195 -1.1148
18265TIP3    H276287   1.101   5.667   0.122 -1.8691  1.7453 -0.8842
18266TIP3   OH276288   3.792   4.180  15.159  0.1626 -0.6217  0.5600
18266TIP3    H176289   3.712   4.220  15.194 -1.5344 -2.9122 -0.3860
18266TIP3    H276290   3.766   4.148  15.072  2.6052 -0.0906 -0.4420
18267TIP3   OH276291   3.602   4.652  14.394 -0.0026 -0.4912 -0.0198
18267TIP3    H176292   3.606   4.567  14.437  1.2971 -0.6854 -0.4770
18267TIP3    H276293   3.680   4.698  14.426 -0.3497  0.2868 -0.2780
18268TIP3   OH276294   6.808   1.170  15.154  0.5566 -0.2502 -0.2772
18268TIP3    H176295   6.738   1.230  15.180  1.0318  0.1449  0.1147
18268TIP3    H276296   6.887   1.224  15.152  0.6678 -0.4264 -1.8854
18269TIP3   OH276297   2.296   0.973  13.734  0.4582 -0.1407 -0.1038
18269TIP3    H176298   2.236   0.959  13.808  0.4437  3.1722  0.6620
18269TIP3    H276299   2.239   0.976  13.658 -0.1660  1.0193  0.3788
18270TIP3   OH276300   6.720   2.531   1.061  0.1812  0.4388  0.0691
18270TIP3    H176301   6.676   2.450   1.085 -4.3939  2.7482  0.8130
18270TIP3    H276302   6.744   2.571   1.145  0.0262  0.9212 -0.1084
18271TIP3   OH276303   5.002   1.463  15.195 -0.5210 -0.3755  0.3444
18271TIP3    H176304   4.926   1.477  15.139  0.0755  3.3860  0.2177
18271TIP3    H276305   5.076   1.464  15.135 -0.0730  1.0836  0.8675
18272TIP3   OH276306   3.322   6.005  15.532  0.0495 -0.0578  0.1730
18272TIP3    H176307   3.281   6.037  15.452 -0.6846  2.1137  1.3327
18272TIP3    H276308   3.388   5.942  15.503  0.1814  1.0865 -2.1521
18273TIP3   OH276309   3.705   0.725  14.004 -0.4819  0.7768 -0.2666
18273TIP3    H176310   3.646   0.756  14.073 -0.2733 -1.3011  0.9318
18273TIP3    H276311   3.691   0.630  14.001  1.9075  0.3820 -0.8145
18274TIP3   OH276312   5.703   5.985   2.750  0.2263 -0.5644  0.0974
18274TIP3    H176313   5.644   5.916   2.777 -0.8628  0.5671  0.7061
18274TIP3    H276314   5.654   6.034   2.683  0.5396  0.2595  0.4517
18275TIP3   OH276315   4.185   6.190  14.861  0.6428 -0.0859  0.0743
18275TIP3    H176316   4.116   6.202  14.926  0.6189  0.2180 -0.0055
18275TIP3    H276317   4.147   6.130  14.797 -0.3407  1.6752 -1.0840
18276TIP3   OH276318   1.774   0.822  14.706  0.0451 -0.2210 -0.1379
18276TIP3    H176319   1.863   0.803  14.738  0.0408 -0.4200 -0.2420
18276TIP3    H276320   1.769   0.776  14.622  0.1363  0.4804 -0.5378
18277TIP3   OH276321   2.252   2.154   4.153 -0.9290  0.0180  0.0866
18277TIP3    H176322   2.241   2.121   4.243  1.3758  0.0536  0.4284
18277TIP3    H276323   2.273   2.076   4.102 -1.6768  0.0831 -0.3294
18278TIP3   OH276324   0.226   1.808   6.163 -0.4621  0.0153  0.6056
18278TIP3    H176325   0.309   1.824   6.207  0.2433 -0.0363 -0.6682
18278TIP3    H276326   0.213   1.885   6.108 -1.1671 -0.0733  0.6408
18279TIP3   OH276327   3.229   3.067   0.186  0.0073 -0.1537  0.2663
18279TIP3    H176328   3.324   3.058   0.185 -0.0016 -0.2283 -0.3713
18279TIP3    H276329   3.213   3.149   0.233  0.4362  0.4524 -0.6256
18280TIP3   OH276330   4.219   3.638  13.879  0.4851  0.3224  0.3619
18280TIP3    H176331   4.185   3.716  13.924  2.2524  1.5002 -0.2388
18280TIP3    H276332   4.149   3.613  13.819 -0.4163  0.9724  1.1118
18281TIP3   OH276333   1.642   3.913   3.847  0.3630  0.2244  0.3322
18281TIP3    H176334   1.703   3.949   3.911 -1.5860  1.7954  1.4451
18281TIP3    H276335   1.610   3.989   3.798 -0.6930 -0.5209 -0.1886
18282TIP3   OH276336   3.764   1.418   5.746 -0.7879  0.2301  0.3764
18282TIP3    H176337   3.779   1.512   5.761 -1.4884  0.4816 -0.4074
18282TIP3    H276338   3.699   1.415   5.675  0.2589 -0.8564 -0.5783
18283TIP3   OH276339   1.280   1.754   0.802  0.7020 -0.4180 -0.0032
18283TIP3    H176340   1.259   1.847   0.810 -0.7135 -0.5554 -1.6477
18283TIP3    H276341   1.375   1.750   0.814  0.7587  1.1905  0.3087
18284TIP3   OH276342   1.474   4.663  12.590 -0.1522  0.2412 -0.2188
18284TIP3    H176343   1.411   4.702  12.529  1.6114  1.9626 -1.0366
18284TIP3    H276344   1.426   4.654  12.672 -1.9964 -0.2796 -1.2816
18285TIP3   OH276345   3.612   2.680   1.452 -0.0688 -0.7822  0.4432
18285TIP3    H176346   3.638   2.715   1.366  0.8357 -0.6125  0.7729
18285TIP3    H276347   3.676   2.717   1.513  0.2085 -2.0857  0.9780
18286TIP3   OH276348   1.780   4.955  14.989  0.9689  0.4389  0.4978
18286TIP3    H176349   1.785   5.007  14.908  0.4807  0.0379  0.2082
18286TIP3    H276350   1.812   4.869  14.965  0.6707  0.2717  0.6954
18287TIP3   OH276351   2.396   2.349  16.070 -0.6062  0.0833 -0.4673
18287TIP3    H176352   2.429   2.258  16.067 -0.3844  0.1861 -1.3458
18287TIP3    H276353   2.301   2.340  16.067 -0.5698 -0.1017 -1.2830
18288TIP3   OH276354   4.332   2.025   3.398  0.2039 -0.2481 -0.2089
18288TIP3    H176355   4.255   2.082   3.399  0.0054 -0.5135  0.5739
18288TIP3    H276356   4.349   2.009   3.305 -1.4571 -1.2066 -0.3969
18289TIP3   OH276357   6.614   0.150  14.135  0.2952  0.2538  0.0457
18289TIP3    H176358   6.611   0.199  14.217 -1.5606  1.6382 -0.7718
18289TIP3    H276359   6.694   0.180  14.092 -0.7226  2.6358 -0.3855
18290TIP3   OH276360   2.367   6.792   3.229  0.4082 -0.4477  0.6492
18290TIP3    H176361   2.275   6.791   3.201  0.8635  0.7342 -0.9795
18290TIP3    H276362   2.366   6.745   3.313 -1.8654  0.4795  1.2292
18291TIP3   OH276363   4.895   0.578   4.585 -0.1947 -0.0960 -0.4564
18291TIP3    H176364   4.815   0.593   4.637 -0.9081 -1.2879 -1.1683
18291TIP3    H276365   4.964   0.619   4.637 -0.9866 -0.6297  1.1077
18292TIP3   OH276366   4.188   6.291   1.971  0.1421  0.0233  0.5608
18292TIP3    H176367   4.251   6.271   1.902  1.3737  1.4690  1.1966
18292TIP3    H276368   4.112   6.326   1.924  0.9778  1.0266 -0.1129
18293TIP3   OH276369   6.568   1.774  15.063  0.4348 -0.3464 -0.3573
18293TIP3    H176370   6.525   1.800  14.981 -0.3805 -0.0699  0.1461
18293TIP3    H276371   6.649   1.826  15.065  0.4021 -0.2643 -0.9244
18294TIP3   OH276372   3.163   6.250  11.273 -0.8598 -0.1248  0.1643
18294TIP3    H176373   3.146   6.161  11.242  1.4952 -0.6858  0.2828
18294TIP3    H276374   3.239   6.241  11.331 -0.0175  2.0717 -0.4884
18295TIP3   OH276375   0.897   5.437   4.764 -0.1915  0.5187  0.8887
18295TIP3    H176376   0.915   5.367   4.702 -0.9755  1.1261 -0.0371
18295TIP3    H276377   0.805   5.428   4.786  0.0318  0.4190  1.8518
18296TIP3   OH276378   3.457   4.467  16.724  0.6528 -0.4962  0.1118
18296TIP3    H176379   3.509   4.515  16.789 -2.1456  1.7016  0.9338
18296TIP3    H276380   3.411   4.400  16.774  1.9104 -1.8295 -0.4549
18297TIP3   OH276381   5.943   6.381  16.045  0.5335  0.1245  0.1057
18297TIP3    H176382   5.941   6.451  16.110 -0.5255  1.4896 -1.3302
18297TIP3    H276383   5.994   6.417  15.973  1.9364 -1.4687  0.2183
18298TIP3   OH276384   2.145   3.020  15.488  0.6785  0.1405  0.7620
18298TIP3    H176385   2.156   2.999  15.581  0.3110 -1.4320  0.4872
18298TIP3    H276386   2.145   3.116  15.485 -2.1255  0.3436  2.7570
18299TIP3   OH276387   2.054   4.800  15.018  0.1765  0.1053 -0.1860
18299TIP3    H176388   2.145   4.824  15.035  0.8841 -1.5275 -1.4877
18299TIP3    H276389   2.037   4.829  14.928 -0.9186  1.2177  0.3371
18300TIP3   OH276390   5.321   0.334   1.294  0.1060 -0.4286  0.6638
18300TIP3    H176391   5.375   0.379   1.360  0.1858  0.8009 -0.2006
18300TIP3    H276392   5.272   0.404   1.252  1.1574 -0.9673 -1.5886
18301TIP3   OH276393   3.817   4.106  16.410  0.2748  0.1206 -0.0153
18301TIP3    H176394   3.848   4.135  16.325  0.7868  1.0473  0.4631
18301TIP3    H276395   3.894   4.066  16.451 -0.4752 -2.2581 -0.7551
18302TIP3   OH276396   3.664   0.955  12.403  0.1114 -0.1901  0.2239
18302TIP3    H176397   3.635   0.880  12.351  0.7589 -1.8148  2.0981
18302TIP3    H276398   3.752   0.933  12.431  0.5714  1.5871  0.3106
18303TIP3   OH276399   3.085   4.020  13.199 -0.2082 -0.0763 -0.6810
18303TIP3    H176400   3.040   4.098  13.231  1.3457  1.0907 -1.2196
18303TIP3    H276401   3.051   4.008  13.110 -2.2852 -1.5526  0.2082
18304TIP3   OH276402   6.605   3.602  12.049 -0.0552  0.1645  0.0631
18304TIP3    H176403   6.572   3.685  12.014  0.2923 -0.0073 -0.7032
18304TIP3    H276404   6.635   3.623  12.137  1.7184  1.2980 -0.7445
18305TIP3   OH276405   4.976   5.465  12.490  0.6113  0.2752 -0.1616
18305TIP3    H176406   4.953   5.449  12.398  0.2452 -0.5244  0.0570
18305TIP3    H276407   5.072   5.468  12.490  0.6204  0.0811 -0.5455
18306TIP3   OH276408   4.667   1.370  13.119  0.2956  0.1001  0.7870
18306TIP3    H176409   4.689   1.457  13.151  0.1420  1.0286 -1.4685
18306TIP3    H276410   4.577   1.356  13.146 -0.1801  1.3097 -0.0830
18307TIP3   OH276411   0.927   1.332   5.152 -0.2827  0.1295 -0.0641
18307TIP3    H176412   0.880   1.272   5.210  0.4312  1.2205  1.7521
18307TIP3    H276413   1.013   1.291   5.140 -0.0424  0.4209  0.5969
18308TIP3   OH276414   4.757   1.587  16.303  0.3129 -0.1709  0.0507
18308TIP3    H176415   4.801   1.616  16.383 -0.2777 -0.4889  0.4976
18308TIP3    H276416   4.672   1.555  16.333 -0.7532  1.5716 -0.9157
18309TIP3   OH276417   1.979   3.980   5.995 -0.3465 -0.6612  0.4268
18309TIP3    H176418   1.976   3.903   6.051 -2.2437 -1.2401 -0.3812
18309TIP3    H276419   1.924   3.957   5.920  0.5550  0.8028 -0.7315
18310TIP3   OH276420   5.645   0.118   1.012 -0.4039 -0.0394 -0.7967
18310TIP3    H176421   5.620   0.067   1.090  0.4250  0.0724 -0.4456
18310TIP3    H276422   5.570   0.176   0.998 -0.8942 -0.5867 -0.5462
18311TIP3   OH276423   6.622   2.715  16.544  0.1173 -0.2535 -0.4008
18311TIP3    H176424   6.712   2.727  16.512 -0.2077 -1.9052 -2.1140
18311TIP3    H276425   6.609   2.620  16.543 -1.5340 -0.0581  0.1555
18312TIP3   OH276426   4.540   5.193  15.521 -0.3474  0.2421  0.0092
18312TIP3    H176427   4.518   5.199  15.614  0.8535 -0.4408  0.3514
18312TIP3    H276428   4.474   5.247  15.478 -0.5353  1.0951  1.3072
18313TIP3   OH276429   0.517   0.255   4.713 -0.2422 -0.4526 -0.0985
18313TIP3    H176430   0.611   0.241   4.712  0.0947  1.1130 -3.4400
18313TIP3    H276431   0.480   0.166   4.712  0.9921 -1.1623  3.1288
18314TIP3   OH276432   5.744   1.005   4.475  0.1241 -0.1574  0.0603
18314TIP3    H176433   5.833   0.985   4.505  1.0264  1.3090 -1.4878
18314TIP3    H276434   5.690   0.936   4.513  1.8150 -0.7008  1.5896
18315TIP3   OH276435   0.238   4.245  12.633 -0.0800 -0.8291 -0.2386
18315TIP3    H176436   0.156   4.196  12.624 -0.4357 -0.2285 -0.2931
18315TIP3    H276437   0.247   4.261  12.727 -0.0048 -0.9286 -0.2288
18316TIP3   OH276438   1.434   5.739   5.667 -0.3879  0.1595  0.6105
18316TIP3    H176439   1.490   5.672   5.705 -0.9366 -0.5256  0.2362
18316TIP3    H276440   1.428   5.716   5.574 -1.4362  0.0898  0.6763
18317TIP3   OH276441   3.900   2.190  14.116  0.1359 -0.0663 -0.2613
18317TIP3    H176442   3.831   2.205  14.180 -0.6585 -2.0447 -0.6013
18317TIP3    H276443   3.930   2.278  14.093 -1.4260  0.7918  0.7911
18318TIP3   OH276444   5.985   1.068   3.896 -0.0470 -0.0972 -0.0660
18318TIP3    H176445   6.001   0.974   3.907 -0.6832  0.0890  3.8235
18318TIP3    H276446   5.940   1.094   3.977 -1.2131  3.3125 -1.6276
18319TIP3   OH276447   4.911   3.923  15.839 -0.0288 -0.1318 -0.8249
18319TIP3    H176448   4.979   3.991  15.838 -0.8264  0.7325  0.5563
18319TIP3    H276449   4.948   3.853  15.892  0.6999 -0.7230 -2.0530
18320TIP3   OH276450   3.450   5.277   1.076  0.6758  0.0782  0.8868
18320TIP3    H176451   3.516   5.253   1.141  0.4831 -1.2427  0.6180
18320TIP3    H276452   3.456   5.373   1.070  2.5105 -0.0018  0.9342
18321TIP3   OH276453   0.996   3.928  15.383  1.1457  0.4842 -0.1818
18321TIP3    H176454   0.961   4.014  15.407  0.7010  0.5195 -0.9370
18321TIP3    H276455   0.938   3.897  15.314  1.1113 -0.5721  0.3030
18322TIP3   OH276456   1.059   1.226   0.613  0.6951  0.2581  0.1676
18322TIP3    H176457   1.041   1.179   0.532  1.3519  0.3430 -0.0333
18322TIP3    H276458   0.976   1.267   0.636  0.4115 -0.0679 -0.2654
18323TIP3   OH276459   1.141   2.492   5.990 -0.0425  0.1828  0.2520
18323TIP3    H176460   1.206   2.450   5.934 -0.8096 -1.5964  0.6192
18323TIP3    H276461   1.135   2.435   6.067 -1.8747  0.3847  0.3185
18324TIP3   OH276462   0.494   5.723  15.123 -0.8635 -0.3432  0.0795
18324TIP3    H176463   0.456   5.789  15.065 -0.8070 -1.1497 -0.9214
18324TIP3    H276464   0.425   5.705  15.187 -0.1729  2.0924  1.6348
18325TIP3   OH276465   4.867   0.216   4.103 -0.3136  0.1148  0.0473
18325TIP3    H176466   4.792   0.161   4.126 -0.1584 -0.0315  0.2048
18325TIP3    H276467   4.868   0.215   4.007  1.0603 -2.0835  0.0030
18326TIP3   OH276468   1.954   0.686   1.871 -0.3746  0.4227 -0.2064
18326TIP3    H176469   1.966   0.593   1.852  1.4597  0.8322 -1.4187
18326TIP3    H276470   1.941   0.690   1.965 -1.7220 -1.1402 -0.2897
18327TIP3   OH276471   3.807   5.085   1.865  0.2152  0.7243 -0.2450
18327TIP3    H176472   3.773   5.073   1.954 -1.0122  0.3446 -0.7477
18327TIP3    H276473   3.759   5.162   1.832  0.8816  1.0434 -0.4787
18328TIP3   OH276474   6.623   3.470   0.013 -0.7780  0.2102  0.5361
18328TIP3    H176475   6.573   3.412   0.071  0.0689 -1.3700 -0.2513
18328TIP3    H276476   6.665   3.532   0.071 -2.9576  1.0765  1.2943
18329TIP3   OH276477   3.488   4.586   5.420 -0.4790  0.5368  0.4481
18329TIP3    H176478   3.497   4.665   5.473  1.4713  0.1181  0.8495
18329TIP3    H276479   3.401   4.591   5.383 -0.3704  2.9367  0.3757
18330TIP3   OH276480   1.423   1.108  13.357 -0.6228 -0.1768 -0.0997
18330TIP3    H176481   1.479   1.115  13.435 -0.8859 -0.7909  0.1457
18330TIP3    H276482   1.474   1.151  13.288 -0.0603 -0.2937  0.2357
18331TIP3   OH276483   5.199   4.205   0.542 -0.2477 -0.1877  0.2497
18331TIP3    H176484   5.280   4.240   0.578 -0.5668  3.3938 -2.0407
18331TIP3    H276485   5.146   4.184   0.620  2.0662 -0.7743  1.7709
18332TIP3   OH276486   5.202   3.748  13.338  0.3269 -0.5354  0.2442
18332TIP3    H176487   5.257   3.748  13.417  0.4813 -1.2768  0.1432
18332TIP3    H276488   5.255   3.794  13.273  1.4637 -2.4477 -0.2569
18333TIP3   OH276489   0.411   4.682   4.836  0.4740 -0.2047  0.1854
18333TIP3    H176490   0.362   4.625   4.895  1.4199 -1.0120  0.2284
18333TIP3    H276491   0.463   4.622   4.783  0.3961  0.5581 -0.7874
18334TIP3   OH276492   1.655   1.915   2.250  0.9949  1.2104 -0.7258
18334TIP3    H176493   1.688   1.863   2.323 -0.4811 -0.8376 -1.4318
18334TIP3    H276494   1.687   2.004   2.267  2.1949  0.4263  1.4210
18335TIP3   OH276495   5.334   5.483   5.418  0.4755  0.1205 -0.2768
18335TIP3    H176496   5.422   5.464   5.452 -0.0731 -0.3832  0.9364
18335TIP3    H276497   5.346   5.489   5.323  2.1680  2.0930 -0.0193
18336TIP3   OH276498   1.174   2.048  17.078  0.5431 -0.4599 -0.0317
18336TIP3    H176499   1.126   1.966  17.072  0.7269 -0.5734  0.0389
18336TIP3    H276500   1.266   2.022  17.079  0.6312 -0.2047 -0.8635
18337TIP3   OH276501   1.497   5.133  12.171 -0.0264  0.2353 -0.1532
18337TIP3    H176502   1.438   5.150  12.098 -1.9214 -0.2788  1.1585
18337TIP3    H276503   1.545   5.054  12.147  0.2089  0.7183 -1.2991
18338TIP3   OH276504   6.122   3.589  13.501 -0.2119  0.4002  0.3643
18338TIP3    H176505   6.117   3.670  13.451  1.1181  0.3259  0.0958
18338TIP3    H276506   6.132   3.617  13.592  1.3838  0.5604  0.1571
18339TIP3   OH276507   3.960   1.779   0.079  0.2465 -0.3811 -0.9129
18339TIP3    H176508   3.892   1.717   0.055  0.8490 -1.7767  0.7665
18339TIP3    H276509   3.940   1.803   0.169  1.2524  0.1827 -0.8223
18340TIP3   OH276510   3.098   5.249   3.268  0.5352  0.0085  0.2086
18340TIP3    H176511   3.086   5.166   3.315  0.9132  0.8233  1.8335
18340TIP3    H276512   3.072   5.316   3.331  0.5644  1.1459 -0.9550
18341TIP3   OH276513   0.387   0.429   3.516  0.3149 -0.1092  0.2481
18341TIP3    H176514   0.475   0.431   3.555  0.1286  1.1334  0.6286
18341TIP3    H276515   0.378   0.339   3.485  1.1446 -0.6708  1.5301
18342TIP3   OH276516   5.588   3.813  15.424  0.1362 -0.1736 -0.5240
18342TIP3    H176517   5.652   3.846  15.487 -0.4798  1.0404 -0.4939
18342TIP3    H276518   5.578   3.721  15.446  1.1017 -0.1312  0.1399
18343TIP3   OH276519   6.558   5.823   0.412 -0.5411  0.5435  0.0758
18343TIP3    H176520   6.606   5.904   0.393 -2.9803  1.6509 -1.8524
18343TIP3    H276521   6.485   5.850   0.467  0.2483 -0.9127  1.9504
18344TIP3   OH276522   5.643   2.805   0.328  0.3451 -0.1776 -0.1765
18344TIP3    H176523   5.637   2.750   0.406 -0.3098 -0.5648 -0.4895
18344TIP3    H276524   5.634   2.744   0.255  0.0594  0.2832 -0.5354
18345TIP3   OH276525   1.835   6.762   0.545  0.1872 -0.0563  0.2234
18345TIP3    H176526   1.895   6.693   0.573  0.8558  0.1888 -0.5625
18345TIP3    H276527   1.892   6.837   0.527 -0.5348  0.7259  1.1095
18346TIP3   OH276528   4.628   0.793   6.363  0.1522 -0.1385 -0.1293
18346TIP3    H176529   4.544   0.748   6.359  0.8889 -1.6164  0.0392
18346TIP3    H276530   4.684   0.744   6.302  0.6919  1.3009 -0.8437
18347TIP3   OH276531   0.192   5.727  13.428 -0.3395  0.2738  0.3614
18347TIP3    H176532   0.232   5.807  13.395  1.1496 -0.6628 -0.2038
18347TIP3    H276533   0.220   5.658  13.367 -3.0506 -0.4437 -0.2199
18348TIP3   OH276534   1.413   0.453  14.649  0.1889  0.0927 -0.1402
18348TIP3    H176535   1.355   0.432  14.723 -0.1418  0.8603 -0.1648
18348TIP3    H276536   1.446   0.541  14.670 -0.3619  0.5618 -1.1789
18349TIP3   OH276537   6.043   0.734  13.053 -0.0894  0.1290 -0.1783
18349TIP3    H176538   6.103   0.717  13.125 -0.5045  2.9725  1.0073
18349TIP3    H276539   6.098   0.769  12.983  0.1555 -1.5048 -0.8380
18350TIP3   OH276540   6.376   1.883  16.256  0.4909 -0.3693  0.2337
18350TIP3    H176541   6.311   1.842  16.313  0.7602 -0.0126  0.8094
18350TIP3    H276542   6.429   1.937  16.315  0.5678  0.2730 -0.4035
18351TIP3   OH276543   6.795   4.323  12.145 -0.2508  0.6146 -0.5576
18351TIP3    H176544   6.822   4.337  12.235 -1.2585  2.3781 -0.4896
18351TIP3    H276545   6.873   4.340  12.093 -0.0285  1.0301 -0.0943
18352TIP3   OH276546   0.486   5.917   0.814  0.0881  0.5945  0.2053
18352TIP3    H176547   0.580   5.935   0.816  0.6287 -1.8594  0.2736
18352TIP3    H276548   0.463   5.920   0.721  0.9158 -1.5259 -0.1380
18353TIP3   OH276549   0.400   4.363   5.333 -0.5743  0.1916  0.0856
18353TIP3    H176550   0.333   4.339   5.269 -0.9655  0.9158  0.2046
18353TIP3    H276551   0.356   4.355   5.417 -0.5569  0.7904  0.1582
18354TIP3   OH276552   4.769   2.766  14.409  0.2321  0.5289  0.3205
18354TIP3    H176553   4.673   2.761  14.400  0.2937  1.0024 -0.8325
18354TIP3    H276554   4.792   2.687  14.458 -0.6189 -0.4132 -0.7096
18355TIP3   OH276555   5.182   6.709  13.698 -0.4450 -0.0683  0.1209
18355TIP3    H176556   5.202   6.664  13.780  0.3971  0.5282  0.2645
18355TIP3    H276557   5.267   6.721  13.656 -0.8449 -0.1532 -0.7276
18356TIP3   OH276558   3.940   3.831   0.901 -0.0483 -0.3295  0.1089
18356TIP3    H176559   3.889   3.841   0.821 -0.0186  0.7669  0.2147
18356TIP3    H276560   3.882   3.861   0.971  0.6972  0.9288  0.2304
18357TIP3   OH276561   3.619   3.210   3.212 -0.1869  0.3057 -0.1021
18357TIP3    H176562   3.667   3.261   3.147 -0.5355 -0.6919 -1.1578
18357TIP3    H276563   3.558   3.157   3.162  1.4081 -2.5705  0.7508
18358TIP3   OH276564   5.012   1.540  11.359  0.4363  0.8143 -1.1412
18358TIP3    H176565   4.996   1.450  11.388  3.0873  0.8891  0.9964
18358TIP3    H276566   5.048   1.531  11.271 -0.3200 -0.1294 -1.3654
18359TIP3   OH276567   6.061   3.345  13.668 -0.6824  0.2689 -0.3748
18359TIP3    H176568   6.042   3.267  13.617 -0.0311 -0.9713  1.2025
18359TIP3    H276569   6.080   3.412  13.602 -1.4172 -0.8305 -1.7675
18360TIP3   OH276570   4.344   1.910   5.638  0.1543 -0.0110  0.1340
18360TIP3    H176571   4.285   1.977   5.602 -0.0146  1.6022  3.0751
18360TIP3    H276572   4.311   1.828   5.603 -0.9306  1.2242 -1.9873
18361TIP3   OH276573   1.575   1.390   5.050  0.4901  0.1710 -0.3207
18361TIP3    H176574   1.484   1.378   5.023  0.7718 -0.7858 -0.8782
18361TIP3    H276575   1.572   1.464   5.110 -0.7445 -0.2398  0.1564
18362TIP3   OH276576   0.517   2.961   6.001 -0.1326 -0.0381  0.8934
18362TIP3    H176577   0.532   3.051   5.973  0.6304  0.2598  2.1537
18362TIP3    H276578   0.460   2.969   6.078 -0.8230 -0.6941  0.4567
18363TIP3   OH276579   6.060   3.096  16.281 -0.4064  0.5503  0.1759
18363TIP3    H176580   6.030   3.118  16.193  0.6060 -2.1488 -0.9690
18363TIP3    H276581   6.152   3.125  16.283 -0.2447  0.0665  0.0775
18364TIP3   OH276582   3.168   0.075  15.870  0.3145 -0.0150  0.0517
18364TIP3    H176583   3.222   0.149  15.898 -0.6595  1.1235 -1.0250
18364TIP3    H276584   3.117   0.052  15.948 -0.0739  1.0744  0.1373
18365TIP3   OH276585   0.941   4.787   4.133  0.4052  0.1235  0.4914
18365TIP3    H176586   0.904   4.767   4.219  2.0215  0.2851  1.2513
18365TIP3    H276587   0.911   4.715   4.077  0.9902 -1.0759  1.6790
18366TIP3   OH276588   1.987   2.372   0.761  0.3187 -0.0214 -0.1959
18366TIP3    H176589   1.944   2.442   0.810  1.9004  0.9016 -0.0494
18366TIP3    H276590   2.001   2.303   0.826 -0.1151  0.0345 -0.0369
18367TIP3   OH276591   4.958   2.558  15.772  0.5474  0.3831  0.4709
18367TIP3    H176592   4.867   2.561  15.802  0.0784 -1.7450 -0.5287
18367TIP3    H276593   5.010   2.584  15.848 -0.8905  2.2919  0.8628
18368TIP3   OH276594   3.829   4.587  15.094  0.3613 -0.2793 -0.3070
18368TIP3    H176595   3.919   4.620  15.099  0.8794 -1.6685  0.0093
18368TIP3    H276596   3.813   4.550  15.181 -0.2473 -0.7225 -0.6069
18369TIP3   OH276597   4.699   5.518   3.326 -0.1183 -0.8092  0.9864
18369TIP3    H176598   4.667   5.480   3.244  0.1778  0.5242  0.2382
18369TIP3    H276599   4.627   5.573   3.356  0.7526  0.7976  0.2238
18370TIP3   OH276600   0.536   6.757   5.690  0.5234 -0.4743 -0.3911
18370TIP3    H176601   0.598   6.829   5.674 -0.5297  0.6531  0.3600
18370TIP3    H276602   0.500   6.737   5.604 -0.3772  1.0765 -0.4164
18371TIP3   OH276603   3.683   2.911  11.846 -0.3515 -0.1980  0.3003
18371TIP3    H176604   3.715   2.996  11.874  0.7075 -1.1077  2.0843
18371TIP3    H276605   3.596   2.928  11.810  0.4411  1.7982 -0.7974
18372TIP3   OH276606   2.661   4.711  16.646 -0.2437 -0.2425 -0.1278
18372TIP3    H176607   2.725   4.705  16.716 -1.4802  1.4562  1.2436
18372TIP3    H276608   2.699   4.661  16.574  4.2064  3.1488 -0.5951
18373TIP3   OH276609   4.715   5.423   5.999  0.4367  0.4808  0.1788
18373TIP3    H176610   4.729   5.464   6.085 -2.7085  0.6045  0.7561
18373TIP3    H276611   4.727   5.330   6.014  0.1007  0.5217  0.7147
18374TIP3   OH276612   3.527   4.169   3.523  0.5418 -0.1366 -0.5364
18374TIP3    H176613   3.527   4.102   3.591 -0.9255 -0.2265 -0.5961
18374TIP3    H276614   3.614   4.209   3.529  1.0633 -1.3361  0.1889
18375TIP3   OH276615   5.762   0.432   0.198  0.5921  0.3454  0.0380
18375TIP3    H176616   5.709   0.422   0.119 -0.0812  1.1608  0.3721
18375TIP3    H276617   5.807   0.348   0.208  0.2074  0.0223 -0.8596
18376TIP3   OH276618   3.503   5.469   1.988  0.6438 -0.2683 -0.1228
18376TIP3    H176619   3.469   5.438   2.072  0.1339  0.8718  0.1067
18376TIP3    H276620   3.520   5.562   2.002 -0.4726  0.1936 -1.6082
18377TIP3   OH276621   1.273   3.632  10.998 -0.7905 -0.2773  0.2937
18377TIP3    H176622   1.233   3.666  10.918 -1.2144  0.1859  0.6949
18377TIP3    H276623   1.258   3.701  11.063 -2.2253 -1.4838  1.3015
18378TIP3   OH276624   6.086   6.132  11.250 -0.3090 -0.1665  0.6685
18378TIP3    H176625   6.018   6.185  11.208 -0.0948 -1.0995 -0.9548
18378TIP3    H276626   6.153   6.122  11.183  0.3322 -1.2492  1.4300
18379TIP3   OH276627   4.348   6.667  16.605 -0.1083 -0.2557  0.5531
18379TIP3    H176628   4.375   6.741  16.660 -0.9455  0.9897 -0.6241
18379TIP3    H276629   4.345   6.704  16.517 -0.3233 -1.7873 -0.1045
18380TIP3   OH276630   3.787   3.663   1.904 -0.5081 -0.3316  0.1063
18380TIP3    H176631   3.770   3.575   1.872 -3.2001  0.5473 -1.1587
18380TIP3    H276632   3.728   3.673   1.979 -0.1595  0.3708  0.2965
18381TIP3   OH276633   5.364   1.224  14.972  0.3013 -0.1319 -0.5301
18381TIP3    H176634   5.307   1.165  14.924  1.8752 -0.9105 -1.5342
18381TIP3    H276635   5.437   1.169  15.000  1.1278  1.0510 -0.2924
18382TIP3   OH276636   0.271   5.243   3.798  0.2348 -0.0542  0.2117
18382TIP3    H176637   0.287   5.272   3.708  2.9000  2.4039  1.3412
18382TIP3    H276638   0.207   5.306   3.832 -0.9692 -1.1362  0.0234
18383TIP3   OH276639   5.885   5.852   0.903 -0.3384 -0.9386 -0.4797
18383TIP3    H176640   5.925   5.922   0.954  0.6605 -1.1140 -0.9843
18383TIP3    H276641   5.792   5.871   0.905  0.0500  1.9755 -2.7988
18384TIP3   OH276642   4.853   4.118  16.925  0.6977  0.0276 -0.4144
18384TIP3    H176643   4.908   4.167  16.864  1.2321 -0.5252 -0.3944
18384TIP3    H276644   4.882   4.027  16.915  0.8863 -0.0599  0.7338
18385TIP3   OH276645   0.873   2.148  12.352 -0.3149 -0.6252  0.1629
18385TIP3    H176646   0.811   2.182  12.417  0.0401 -0.3134  0.3432
18385TIP3    H276647   0.947   2.209  12.355  0.8333 -2.0092  1.2710
18386TIP3   OH276648   6.608   2.704  14.557 -0.2121 -0.0015 -0.1462
18386TIP3    H176649   6.645   2.617  14.575  0.3678  0.5984  1.7246
18386TIP3    H276650   6.539   2.715  14.622  1.6385  2.0804  1.5824
18387TIP3   OH276651   6.096   6.419   0.463 -0.0179 -0.2134 -0.7598
18387TIP3    H176652   6.029   6.475   0.424 -0.6540 -0.6300 -0.2906
18387TIP3    H276653   6.047   6.346   0.502  0.4646  0.6365  1.6477
18388TIP3   OH276654   3.419   5.746   2.729  0.0914 -0.5248 -0.1605
18388TIP3    H176655   3.392   5.663   2.768  0.4268 -0.9310 -0.7692
18388TIP3    H276656   3.358   5.760   2.656  0.3728 -0.5148 -0.3962
18389TIP3   OH276657   5.098   3.533   3.421 -0.1464  0.1674 -0.8616
18389TIP3    H176658   5.065   3.458   3.371 -1.0701  0.4249 -0.6592
18389TIP3    H276659   5.188   3.509   3.443 -0.3262 -0.7481 -1.0770
18390TIP3   OH276660   0.223   4.661   4.486 -0.4388 -0.5111  0.7174
18390TIP3    H176661   0.223   4.618   4.572 -0.2700 -1.6913  0.1436
18390TIP3    H276662   0.216   4.754   4.506  0.6651 -0.6845  2.0500
18391TIP3   OH276663   3.793   2.389   4.828 -0.3802 -1.0369  0.2282
18391TIP3    H176664   3.721   2.327   4.822 -1.3530  0.1496 -1.2613
18391TIP3    H276665   3.756   2.472   4.796  1.0515  0.1449  1.4978
18392TIP3   OH276666   2.496   6.630  10.816  0.3070  0.4119 -0.0282
18392TIP3    H176667   2.496   6.702  10.879  1.0097 -2.1196  3.1498
18392TIP3    H276668   2.580   6.638  10.770  0.7798  1.1174  0.9335
18393TIP3   OH276669   0.315   4.048  15.078  0.2720 -0.1589 -0.8671
18393TIP3    H176670   0.247   4.105  15.043 -1.4937 -0.4549  1.8042
18393TIP3    H276671   0.269   3.990  15.138  3.0930  1.2199  2.9926
18394TIP3   OH276672   1.907   2.558   2.293 -0.4967 -0.2979 -0.4307
18394TIP3    H176673   1.945   2.484   2.341 -0.4004  0.0778  0.0863
18394TIP3    H276674   1.967   2.631   2.311 -1.0443  0.1079 -0.2412
18395TIP3   OH276675   2.886   6.081  14.207 -0.0329  0.4741  0.3107
18395TIP3    H176676   2.858   5.989  14.217 -0.9348  0.7368  0.3155
18395TIP3    H276677   2.957   6.091  14.270 -1.7407  0.4901  2.3661
18396TIP3   OH276678   3.632   1.091  10.987  0.0960  0.2725  0.1233
18396TIP3    H176679   3.619   1.048  10.902 -1.3206  1.3826 -0.2698
18396TIP3    H276680   3.549   1.077  11.033  0.4398  0.6642  0.8665
18397TIP3   OH276681   1.670   6.260   4.600 -0.4163 -0.2242 -0.3750
18397TIP3    H176682   1.652   6.177   4.645  4.8872 -1.0505  0.9170
18397TIP3    H276683   1.622   6.326   4.649 -3.5411 -2.2246 -0.4899
18398TIP3   OH276684   6.488   1.493   0.155  0.0035  0.3576  0.1059
18398TIP3    H176685   6.454   1.484   0.244 -1.2984  0.4567 -0.3492
18398TIP3    H276686   6.456   1.579   0.126  0.9286  0.5961 -0.2509
18399TIP3   OH276687   3.348   5.059  11.808  0.6390  0.4508  0.0539
18399TIP3    H176688   3.314   5.016  11.730  0.8456  1.6775 -0.7362
18399TIP3    H276689   3.443   5.056  11.797  0.6860  0.2148  0.4955
18400TIP3   OH276690   1.230   4.222  10.824 -0.1994  0.6199 -0.2057
18400TIP3    H176691   1.171   4.160  10.782  0.3625 -0.5806  0.7157
18400TIP3    H276692   1.315   4.207  10.781 -0.3611  1.8109 -1.0009
18401TIP3   OH276693   1.616   3.327  16.461  0.3236  0.8468  0.1830
18401TIP3    H176694   1.652   3.408  16.497  0.8539  0.9770 -0.6027
18401TIP3    H276695   1.539   3.355  16.412  0.9602  1.0013 -0.7595
18402TIP3   OH276696   5.178   3.463   1.161 -0.1270  0.1179 -0.1605
18402TIP3    H176697   5.219   3.468   1.074  0.1041  1.7523  0.0118
18402TIP3    H276698   5.156   3.554   1.182 -1.5803 -0.4307  0.8395
18403TIP3   OH276699   6.523   6.168  15.485  0.5746 -0.8599  0.1799
18403TIP3    H176700   6.610   6.149  15.519 -0.5814 -0.1586  4.0241
18403TIP3    H276701   6.469   6.096  15.515 -0.1922 -1.5750 -2.6156
18404TIP3   OH276702   0.117   5.706  16.600  0.2702  0.2578 -0.6935
18404TIP3    H176703   0.029   5.739  16.616  0.8844  1.9982 -0.7029
18404TIP3    H276704   0.109   5.651  16.523 -1.2513 -1.6868  0.7444
18405TIP3   OH276705   3.742   2.523  12.643  0.2832  0.7984 -0.0398
18405TIP3    H176706   3.699   2.480  12.569  0.2805  1.1006 -0.2168
18405TIP3    H276707   3.818   2.468  12.663 -0.6006 -0.1658  0.7716
18406TIP3   OH276708   5.734   1.548  13.449  0.0566 -1.0826 -0.6328
18406TIP3    H176709   5.775   1.610  13.389  0.8158 -1.1078 -0.1517
18406TIP3    H276710   5.807   1.504  13.491 -0.4413 -0.4392  0.9693
18407TIP3   OH276711   2.136   4.867  12.401 -0.1049 -0.1869 -0.1397
18407TIP3    H176712   2.138   4.861  12.497  1.5416  0.0206 -0.1214
18407TIP3    H276713   2.092   4.949  12.383 -0.9483 -0.5042  0.4133
18408TIP3   OH276714   0.957   4.203  11.087 -0.3669  0.2448  0.0434
18408TIP3    H176715   0.912   4.233  11.008 -0.6360  0.4964  0.2897
18408TIP3    H276716   0.887   4.189  11.150 -0.5679 -3.3224 -0.7807
18409TIP3   OH276717   3.567   0.396   2.194  0.3793  0.3968 -0.1815
18409TIP3    H176718   3.478   0.403   2.161 -0.4255 -2.0925  1.1424
18409TIP3    H276719   3.606   0.325   2.143  0.4858 -0.6827  1.3349
18410TIP3   OH276720   3.533   1.867   4.045  0.3659  0.1358 -0.3897
18410TIP3    H176721   3.525   1.888   4.139  2.3070 -1.8843  0.3122
18410TIP3    H276722   3.599   1.798   4.042 -0.9885 -1.1636 -3.0908
18411TIP3   OH276723   0.624   3.374   4.290 -0.0281  0.2856 -0.3974
18411TIP3    H176724   0.601   3.462   4.261 -1.1046  0.3814  0.6668
18411TIP3    H276725   0.539   3.331   4.303  0.4841 -0.8343 -0.6604
18412TIP3   OH276726   2.405   4.379   3.465 -0.1138  0.3384  0.0283
18412TIP3    H176727   2.395   4.409   3.555  0.4600 -1.6406  0.8199
18412TIP3    H276728   2.366   4.291   3.464 -0.8098  0.6223 -1.8603
18413TIP3   OH276729   0.825   4.704  16.589  0.0249 -0.6467  0.5653
18413TIP3    H176730   0.848   4.617  16.622  3.4501 -0.4405 -0.8565
18413TIP3    H276731   0.766   4.687  16.516  1.1402 -1.8795 -0.0983
18414TIP3   OH276732   6.150   0.129   3.167  0.2880  0.3895  0.1149
18414TIP3    H176733   6.152   0.196   3.099 -1.0214  0.9117  0.5629
18414TIP3    H276734   6.067   0.084   3.153  0.1397  0.3131  1.1885
18415TIP3   OH276735   0.826   2.175  10.559 -0.4223  0.0307  0.3560
18415TIP3    H176736   0.841   2.262  10.597 -0.0852  0.1592 -0.0642
18415TIP3    H276737   0.875   2.115  10.616  2.1915  0.4845 -1.2134
18416TIP3   OH276738   6.454   4.851  15.534 -0.0986  0.3140 -0.5435
18416TIP3    H176739   6.402   4.825  15.457 -1.2891  2.5825 -0.5701
18416TIP3    H276740   6.500   4.771  15.559 -2.8204 -1.5739 -1.1441
18417TIP3   OH276741   0.938   5.240  11.908 -0.2478 -0.3396  0.5558
18417TIP3    H176742   0.952   5.174  11.840  1.5734  0.5459  0.0219
18417TIP3    H276743   0.843   5.254  11.908 -0.4122 -1.1895 -0.9990
18418TIP3   OH276744   4.156   5.294   3.726 -0.2579  0.2290 -0.4624
18418TIP3    H176745   4.201   5.377   3.738 -1.3639  0.8194 -0.3464
18418TIP3    H276746   4.227   5.229   3.722  0.6185  1.1769 -0.6864
18419TIP3   OH276747   1.314   4.367   2.268 -0.1784 -0.3306  0.6078
18419TIP3    H176748   1.400   4.409   2.275 -0.3340  0.2113 -0.5776
18419TIP3    H276749   1.301   4.326   2.354  0.3040  1.4125  1.5604
18420TIP3   OH276750   6.613   4.413  17.061 -0.2839 -0.7319  0.0324
18420TIP3    H176751   6.590   4.505  17.076 -0.4852 -0.6569 -0.6804
18420TIP3    H276752   6.556   4.365  17.121 -0.6496 -0.4211 -0.0562
18421TIP3   OH276753   6.565   4.381  13.939  0.1155 -0.7449  0.0774
18421TIP3    H176754   6.504   4.341  14.001 -0.6514  1.4252  0.8214
18421TIP3    H276755   6.510   4.438  13.885  1.3743  1.0749  0.6036
18422TIP3   OH276756   4.217   1.308  11.249  0.1979 -0.0977  0.5168
18422TIP3    H176757   4.135   1.332  11.207  0.2714  0.7031  0.8179
18422TIP3    H276758   4.192   1.281  11.338  0.4153  1.9795  1.2721
18423TIP3   OH276759   2.456   2.342  13.262  0.4369 -0.1657  0.1435
18423TIP3    H176760   2.455   2.398  13.339 -0.7419  0.0528 -0.0220
18423TIP3    H276761   2.447   2.253  13.296  0.3113 -0.0989  0.2837
18424TIP3   OH276762   6.416   6.690  14.385  0.4532  0.6458  0.0761
18424TIP3    H176763   6.400   6.670  14.293  0.6007  0.3676  0.1099
18424TIP3    H276764   6.375   6.618  14.432 -0.6211  1.3625  0.2837
18425TIP3   OH276765   6.741   0.863   4.319  0.6049  0.2221 -0.7946
18425TIP3    H176766   6.803   0.891   4.252  1.3725 -0.5694 -0.4231
18425TIP3    H276767   6.669   0.824   4.270  0.7870  0.3731 -1.1891
18426TIP3   OH276768   3.611   1.488   1.848  0.0933  0.7101 -0.0396
18426TIP3    H176769   3.606   1.543   1.926 -2.9577 -0.1801  0.5039
18426TIP3    H276770   3.555   1.531   1.783 -1.2589 -0.9820 -0.0577
18427TIP3   OH276771   2.160   4.723   4.405 -0.2546 -0.5688  0.0467
18427TIP3    H176772   2.183   4.723   4.312 -1.6772 -2.3212 -0.3552
18427TIP3    H276773   2.159   4.630   4.430 -3.0354 -0.3862  0.9583
18428TIP3   OH276774   0.342   5.823   3.976  0.2152  0.1344 -0.1588
18428TIP3    H176775   0.253   5.787   3.972  0.4744 -0.4801 -0.5031
18428TIP3    H276776   0.384   5.773   4.046  0.0439  0.9934  0.5683
18429TIP3   OH276777   0.233   2.072  10.999 -0.0122  0.0023 -0.1696
18429TIP3    H176778   0.252   2.152  10.950  0.2171 -0.5693 -1.0420
18429TIP3    H276779   0.221   2.101  11.089 -0.0101  1.0282 -0.4874
18430TIP3   OH276780   4.145   5.720   2.699 -0.6421  0.2128  0.6660
18430TIP3    H176781   4.158   5.664   2.776 -0.5132 -1.7895 -0.7490
18430TIP3    H276782   4.216   5.696   2.640 -1.8027  0.3535 -0.8399
18431TIP3   OH276783   0.775   1.709  16.433  0.5831 -0.2656  0.0938
18431TIP3    H176784   0.811   1.722  16.521 -3.1226 -1.7350  2.0696
18431TIP3    H276785   0.766   1.614  16.425  1.5275 -0.2115 -2.2815
18432TIP3   OH276786   1.371   0.419   6.634 -0.4621 -0.0123 -0.0192
18432TIP3    H176787   1.457   0.390   6.663 -0.4653  0.4479  0.4549
18432TIP3    H276788   1.316   0.341   6.642  0.2557 -0.7870 -1.9060
18433TIP3   OH276789   2.384   2.366   3.025  0.0062  0.1711  0.4835
18433TIP3    H176790   2.470   2.331   3.048 -0.8685 -1.4175  1.5454
18433TIP3    H276791   2.387   2.458   3.051  1.1027 -0.0737  1.2766
18434TIP3   OH276792   0.184   6.034   2.708  0.1082  0.3279 -0.1685
18434TIP3    H176793   0.207   6.125   2.689  0.2471  0.2504 -0.3782
18434TIP3    H276794   0.090   6.036   2.726  0.3717  0.7456  1.3188
18435TIP3   OH276795   5.939   0.926  14.658  1.1217 -0.1878 -0.2708
18435TIP3    H176796   5.850   0.964  14.658  0.8178 -0.7020 -2.7573
18435TIP3    H276797   5.979   0.959  14.739 -0.4046  2.3213 -0.4107
18436TIP3   OH276798   4.164   5.927  12.264 -0.2384 -0.3148  0.0198
18436TIP3    H176799   4.157   6.017  12.231 -0.0988 -0.4882 -0.5033
18436TIP3    H276800   4.105   5.924  12.339  3.4006  1.6297  3.2927
18437TIP3   OH276801   0.350   6.100  11.584  0.1080 -0.3665 -0.1712
18437TIP3    H176802   0.258   6.094  11.559  0.4935 -1.8784 -1.3831
18437TIP3    H276803   0.398   6.095  11.502  1.2898  0.8865  0.4018
18438TIP3   OH276804   1.862   4.098   2.926 -0.0435  0.1019 -0.1889
18438TIP3    H176805   1.872   4.161   2.998  1.7811  0.4452 -0.6864
18438TIP3    H276806   1.883   4.013   2.965 -1.0178 -0.0001  0.1311
18439TIP3   OH276807   6.405   0.467  13.561 -0.3088 -0.1613  0.1050
18439TIP3    H176808   6.417   0.555  13.525 -1.7542 -0.2499 -0.6598
18439TIP3    H276809   6.489   0.447  13.604  0.2068  1.3867 -0.1116
18440TIP3   OH276810   5.112   4.861  10.378  0.2412  0.9643  0.4531
18440TIP3    H176811   5.173   4.905  10.318  2.2137 -0.5973  1.2132
18440TIP3    H276812   5.069   4.795  10.324  1.0404  0.4386  0.4538
18441TIP3   OH276813   4.845   1.430  13.940  0.2860 -0.5027 -0.1850
18441TIP3    H176814   4.857   1.337  13.961  1.8388 -0.6529 -1.5919
18441TIP3    H276815   4.750   1.441  13.938  0.0540 -2.2206 -0.6236
18442TIP3   OH276816   3.736   4.945   4.694  0.3593 -0.1369 -0.6629
18442TIP3    H176817   3.641   4.935   4.701 -0.1359  2.0689 -2.7924
18442TIP3    H276818   3.764   4.874   4.637 -0.4025  0.5095 -1.8757
18443TIP3   OH276819   4.155   5.435   2.237 -0.2155 -0.0549  0.3653
18443TIP3    H176820   4.133   5.511   2.290 -1.7068 -1.0004  1.1910
18443TIP3    H276821   4.120   5.455   2.150 -0.0671  0.4380  0.4184
18444TIP3   OH276822   2.898   0.178   5.270  0.1763 -0.4275  0.0409
18444TIP3    H176823   2.909   0.248   5.206  0.3490 -0.9697 -0.5277
18444TIP3    H276824   2.854   0.108   5.222 -0.6478 -0.4427  0.7960
18445TIP3   OH276825   2.414   4.454  16.581 -0.2740  0.2735  0.2530
18445TIP3    H176826   2.338   4.396  16.577 -0.7658  0.9881 -1.6207
18445TIP3    H276827   2.378   4.542  16.571  0.8546  0.5369 -2.4151
18446TIP3   OH276828   4.337   2.829  12.928 -0.6950 -0.1787  0.1190
18446TIP3    H176829   4.351   2.765  12.858 -0.2626  0.6367 -0.5586
18446TIP3    H276830   4.249   2.810  12.960 -0.4958 -1.2388  0.0747
18447TIP3   OH276831   5.764   4.367   2.298  0.1085  0.2816 -0.1361
18447TIP3    H176832   5.731   4.282   2.268 -0.2336  0.5908 -0.6512
18447TIP3    H276833   5.741   4.370   2.391  2.5474 -1.3406  0.5973
18448TIP3   OH276834   6.603   2.209   0.888  0.4713 -0.1947  0.0401
18448TIP3    H176835   6.536   2.142   0.901  0.8561 -1.2403 -2.6914
18448TIP3    H276836   6.554   2.289   0.870  0.0050 -0.3158  0.7111
18449TIP3   OH276837   0.825   0.201   6.124 -0.0754 -0.2380 -1.0044
18449TIP3    H176838   0.871   0.148   6.189  0.6270 -0.6609 -1.8385
18449TIP3    H276839   0.827   0.149   6.044  0.0813  0.7707 -1.6735
18450TIP3   OH276840   3.559   4.221   6.123  0.3242 -0.7116 -0.0090
18450TIP3    H176841   3.598   4.299   6.084  3.0683 -2.0422 -0.1185
18450TIP3    H276842   3.492   4.255   6.183  2.8549  1.9072  1.5581
18451TIP3   OH276843   4.020   4.162  11.980  0.0740  0.1822 -0.1661
18451TIP3    H176844   4.113   4.184  11.974  0.2173  0.7034  2.4524
18451TIP3    H276845   3.975   4.238  11.944  0.6364 -0.0633 -1.4354
18452TIP3   OH276846   3.420   0.039  11.669 -0.3462  0.5963 -0.1141
18452TIP3    H176847   3.496  -0.010  11.703  0.3333  0.9029 -1.1659
18452TIP3    H276848   3.403   0.105  11.736  1.1846  1.4008 -0.4613
18453TIP3   OH276849   6.826   5.963  13.272 -0.0850 -0.3712  0.5144
18453TIP3    H176850   6.810   6.037  13.214 -0.8372  1.5716  3.0681
18453TIP3    H276851   6.919   5.966  13.290 -0.4317  1.3968  2.3254
18454TIP3   OH276852   3.062   1.267   3.664 -0.1405  0.4115 -0.5594
18454TIP3    H176853   3.110   1.256   3.746  1.3854  2.7432 -1.0207
18454TIP3    H276854   3.113   1.217   3.600 -1.9977 -2.4243  0.0065
18455TIP3   OH276855   6.479   5.372  12.057  0.6129  0.2959  0.1629
18455TIP3    H176856   6.441   5.301  12.109  0.5443  0.3127  0.1357
18455TIP3    H276857   6.552   5.403  12.110 -0.6838  1.6866  1.2203
18456TIP3   OH276858   5.962   5.539   2.762 -0.2427  0.5342 -0.0122
18456TIP3    H176859   6.040   5.533   2.817 -0.0473 -0.4509 -0.3817
18456TIP3    H276860   5.907   5.605   2.806  0.3706  0.5374  0.7769
18457TIP3   OH276861   0.044   3.516  11.360 -0.4436 -0.3356  0.4222
18457TIP3    H176862  -0.020   3.587  11.371 -0.5309 -0.2783 -0.4096
18457TIP3    H276863   0.110   3.534  11.427  0.3209  1.4152 -0.7335
18458TIP3   OH276864   3.568   3.865   1.620  0.1042 -0.9358 -0.1708
18458TIP3    H176865   3.502   3.889   1.555  0.7140 -2.1544 -1.2941
18458TIP3    H276866   3.642   3.834   1.568  1.4260 -0.0119  1.0672
18459TIP3   OH276867   6.339   4.063   2.363  0.2004  0.3233  0.0022
18459TIP3    H176868   6.300   4.012   2.292 -1.5226 -1.5233  2.1534
18459TIP3    H276869   6.320   4.154   2.340 -0.1256 -0.1840 -1.9564
18460TIP3   OH276870   0.591   6.696  12.715 -0.5626 -0.3034 -0.4287
18460TIP3    H176871   0.519   6.652  12.671  0.6529 -2.6430 -0.2284
18460TIP3    H276872   0.553   6.778  12.748 -3.3716 -1.8747  0.5167
18461TIP3   OH276873   1.341   6.017  11.972 -0.0738  0.7463 -0.8335
18461TIP3    H176874   1.280   6.039  12.042  0.5599 -0.3363  0.0820
18461TIP3    H276875   1.285   5.996  11.897 -0.7722  1.3655 -0.4962
18462TIP3   OH276876   0.084   6.356   5.272 -0.0216  0.2231  0.0910
18462TIP3    H176877   0.096   6.321   5.360 -0.5059 -0.2452 -0.0251
18462TIP3    H276878   0.173   6.371   5.240  0.1532  1.0595  0.9161
18463TIP3   OH276879   4.453   6.324  13.569  0.4735  0.2071  0.4319
18463TIP3    H176880   4.480   6.246  13.616 -1.1463  0.3086  1.5865
18463TIP3    H276881   4.515   6.331  13.497  0.1693 -2.6133 -0.2072
18464TIP3   OH276882   4.093   4.035   5.003  0.5557 -0.6204 -0.0889
18464TIP3    H176883   4.177   3.993   4.988  1.5984  1.7548 -1.3569
18464TIP3    H276884   4.113   4.117   5.049 -1.2862 -0.8898  1.3630
18465TIP3   OH276885   4.562   0.437   5.499 -0.2676  0.4541  0.4166
18465TIP3    H176886   4.612   0.482   5.567  0.8804 -1.1623  0.7293
18465TIP3    H276887   4.621   0.368   5.469 -1.8944 -0.8001 -0.0415
18466TIP3   OH276888   4.163   4.067   2.069  0.9126 -0.0216 -0.3533
18466TIP3    H176889   4.172   4.012   1.991  0.7535  0.2399 -0.5595
18466TIP3    H276890   4.107   4.139   2.041  2.6781  1.3106 -0.6805
18467TIP3   OH276891   2.491   6.299   5.380  0.4089  0.2131  0.7164
18467TIP3    H176892   2.483   6.251   5.299 -1.4125  0.9743  0.3868
18467TIP3    H276893   2.576   6.342   5.375  0.4507 -0.0002 -0.6607
18468TIP3   OH276894   0.532   0.588  14.569  0.4212  0.5853 -0.3533
18468TIP3    H176895   0.523   0.535  14.490 -0.4874  1.1544 -0.6510
18468TIP3    H276896   0.443   0.591  14.606  0.5484  1.5002 -0.0915
18469TIP3   OH276897   4.162   3.919  12.059  0.3502 -0.5265  0.2640
18469TIP3    H176898   4.095   3.972  12.015 -0.6135 -0.0960  2.1307
18469TIP3    H276899   4.147   3.936  12.152  1.8417 -1.9378  0.7910
18470TIP3   OH276900   4.016   0.453   6.581 -0.1007 -0.4817 -0.3861
18470TIP3    H176901   4.058   0.383   6.631 -0.1509 -0.9134 -0.9359
18470TIP3    H276902   3.926   0.424   6.570 -0.0521 -0.4577 -0.8509
18471TIP3   OH276903   4.439   1.576  14.540 -0.3931 -0.2701  0.4696
18471TIP3    H176904   4.400   1.559  14.626  1.6299 -0.9670  1.3303
18471TIP3    H276905   4.420   1.668  14.523 -2.5335 -0.6166  0.6920
18472TIP3   OH276906   1.373   0.169   4.081 -0.7018 -0.2627 -0.1086
18472TIP3    H176907   1.294   0.221   4.070 -0.4450  0.0932 -0.2753
18472TIP3    H276908   1.401   0.185   4.171  0.4965  1.4816 -0.7500
18473TIP3   OH276909   4.774   0.872  12.750 -0.6087  0.2748 -0.4701
18473TIP3    H176910   4.796   0.879  12.657  0.3016  0.0389 -0.2874
18473TIP3    H276911   4.732   0.956  12.771  0.7694  1.0633 -0.7077
18474TIP3   OH276912   1.621   2.139  11.326  0.0869  0.7198 -0.4739
18474TIP3    H176913   1.705   2.099  11.349 -1.2297 -1.4413  0.8747
18474TIP3    H276914   1.607   2.205  11.395  0.4846  0.8017 -0.4677
18475TIP3   OH276915   4.775   2.931   4.140 -0.3394  0.3014  0.3892
18475TIP3    H176916   4.734   3.017   4.135  1.4719  1.1859 -0.4017
18475TIP3    H276917   4.838   2.939   4.212  0.6189  0.0196 -0.3953
18476TIP3   OH276918   4.214   5.476  17.106 -0.0991  0.2568  0.0365
18476TIP3    H176919   4.203   5.385  17.078  1.8134 -0.2303  0.7019
18476TIP3    H276920   4.126   5.514  17.100 -1.3147 -2.1217  1.4202
18477TIP3   OH276921   3.832   2.780  16.883  0.6859  0.0103 -0.2234
18477TIP3    H176922   3.752   2.731  16.903  0.1581  0.0458 -2.0365
18477TIP3    H276923   3.825   2.859  16.937  1.3086 -1.5915  2.3541
18478TIP3   OH276924   1.198   6.214   2.386  0.7487 -0.6489 -0.4435
18478TIP3    H176925   1.119   6.207   2.440  1.2470  0.6081  0.4887
18478TIP3    H276926   1.265   6.250   2.445  1.3842  0.5124 -1.8111
18479TIP3   OH276927   3.428   5.243  12.935  0.3800 -0.1945 -0.0871
18479TIP3    H176928   3.512   5.198  12.926  0.6550  0.3322 -0.1607
18479TIP3    H276929   3.375   5.208  12.863  0.4495 -0.7081  0.1051
18480TIP3   OH276930   2.945   4.036   5.083  0.6999 -0.6799 -0.5741
18480TIP3    H176931   2.867   4.067   5.128  0.8474 -1.4574  0.2388
18480TIP3    H276932   2.936   4.069   4.993 -0.8765 -1.3079 -0.6726
18481TIP3   OH276933   6.080   2.648  13.416  0.1484  0.2940 -0.5689
18481TIP3    H176934   6.068   2.586  13.488  2.9448 -1.0960 -1.1685
18481TIP3    H276935   6.105   2.730  13.458  2.6422 -0.7390  0.1027
18482TIP3   OH276936   2.981   6.551   1.610 -0.7678 -0.1307  0.8073
18482TIP3    H176937   2.948   6.633   1.573 -2.4102 -0.7201  0.9125
18482TIP3    H276938   3.023   6.507   1.536  0.1275  0.7711  0.7477
18483TIP3   OH276939   1.568   2.849   3.324  0.3322 -0.1758 -0.5587
18483TIP3    H176940   1.609   2.868   3.239  0.1254  1.5824 -0.2995
18483TIP3    H276941   1.641   2.821   3.380  0.6058 -0.4805 -1.0553
18484TIP3   OH276942   4.826   5.395  14.241 -0.1315  0.2897 -0.0469
18484TIP3    H176943   4.783   5.480  14.256 -3.0442 -1.1489  0.6119
18484TIP3    H276944   4.807   5.375  14.149 -0.9435 -0.3375  0.2386
18485TIP3   OH276945   5.101   5.579  10.487 -0.0443 -0.2923 -0.5285
18485TIP3    H176946   5.178   5.587  10.543 -0.4595 -0.5111  0.0828
18485TIP3    H276947   5.137   5.561  10.400  0.6184  0.3850 -0.4071
18486TIP3   OH276948   4.700   2.056   2.221  0.4699  0.6039  0.0196
18486TIP3    H176949   4.723   2.129   2.278 -0.1881 -0.0310  1.1393
18486TIP3    H276950   4.735   2.080   2.135  1.6470  1.5080  0.7206
18487TIP3   OH276951   0.903   6.770  13.938 -0.1164  0.0853  0.3354
18487TIP3    H176952   0.917   6.842  13.876 -1.1535  1.0348  1.1496
18487TIP3    H276953   0.990   6.734  13.953  0.4626  1.3111  0.0512
18488TIP3   OH276954   4.619   5.314  12.970  0.1854  0.6411 -0.5173
18488TIP3    H176955   4.694   5.331  12.914 -0.8918  0.8489 -1.9563
18488TIP3    H276956   4.579   5.400  12.984 -1.2916  0.2526 -2.0134
18489TIP3   OH276957   0.317   6.707   5.508 -0.1769 -0.2561 -0.2512
18489TIP3    H176958   0.222   6.714   5.497 -0.1604 -0.9793 -0.9835
18489TIP3    H276959   0.349   6.678   5.423  0.8499  1.0862 -0.3557
18490TIP3   OH276960   4.426   5.773  16.999  0.3428 -0.4841  0.5524
18490TIP3    H176961   4.473   5.700  17.039  1.4292 -0.1016  0.0056
18490TIP3    H276962   4.465   5.783  16.912 -2.0628 -1.4046 -0.7284
18491TIP3   OH276963   2.641   6.689  16.114 -0.3484 -0.6463 -0.1814
18491TIP3    H176964   2.652   6.686  16.019  1.0279  1.6838 -0.1761
18491TIP3    H276965   2.562   6.637  16.131 -1.2360 -0.2414 -2.6920
18492TIP3   OH276966   5.186   5.515   4.511  0.3349 -0.6763  0.0162
18492TIP3    H176967   5.265   5.469   4.542  1.0555  0.6839  0.2863
18492TIP3    H276968   5.203   5.607   4.531 -1.6518 -0.4299  0.7661
18493TIP3   OH276969   3.224   0.247  14.651  0.1287  0.4059  0.5750
18493TIP3    H176970   3.234   0.163  14.696  1.3299  0.3598  0.2478
18493TIP3    H276971   3.230   0.312  14.721 -0.0232  0.2550  0.7303
18494TIP3   OH276972   0.279   4.389  17.167 -0.3547  0.3056 -0.1879
18494TIP3    H176973   0.186   4.365  17.173 -0.3753  0.0211 -1.3724
18494TIP3    H276974   0.315   4.367  17.253 -0.8240 -2.1261 -0.5496
18495TIP3   OH276975   2.341   1.340   0.288  0.0658 -0.1950  0.0715
18495TIP3    H176976   2.255   1.316   0.253 -0.2967  1.8047 -0.5325
18495TIP3    H276977   2.373   1.409   0.229  3.0414 -2.2291 -0.9750
18496TIP3   OH276978   2.881   2.121   1.612 -0.3190 -0.4727 -0.3246
18496TIP3    H176979   2.817   2.058   1.577  0.6218 -1.7301  0.1175
18496TIP3    H276980   2.828   2.187   1.656 -1.3568 -0.9907 -0.7487
18497TIP3   OH276981   6.628   1.959  11.599  0.0271 -0.4105 -0.1272
18497TIP3    H176982   6.682   2.029  11.636 -2.2541  0.6919  1.2776
18497TIP3    H276983   6.652   1.957  11.506  1.0631  1.3366  0.0622
18498TIP3   OH276984   2.614   6.690   5.949 -0.2051  0.6963  0.6518
18498TIP3    H176985   2.606   6.635   5.872 -1.1332  0.3958  0.9435
18498TIP3    H276986   2.648   6.632   6.017  0.3196  0.8843  0.5541
18499TIP3   OH276987   2.584   2.416  14.093  0.1200 -0.4722  0.5155
18499TIP3    H176988   2.645   2.453  14.030  0.9281 -1.8162  0.4565
18499TIP3    H276989   2.498   2.435  14.057  0.5548 -0.9456 -0.8490
18500TIP3   OH276990   6.433   5.689  13.185 -0.0821 -0.3623 -0.1728
18500TIP3    H176991   6.436   5.597  13.211  0.4165  0.1030  1.5373
18500TIP3    H276992   6.348   5.720  13.214  0.4578  0.1511  0.9170
18501TIP3   OH276993   0.306   1.276  14.354  0.1333 -0.3002 -0.4796
18501TIP3    H176994   0.288   1.255  14.262  0.8393 -0.4219 -0.5919
18501TIP3    H276995   0.253   1.213  14.403 -1.1336  0.4848 -0.7784
18502TIP3   OH276996   4.103   1.125  13.788 -0.1019 -0.1768 -0.1566
18502TIP3    H176997   4.128   1.217  13.791 -1.4661  0.1959  1.2614
18502TIP3    H276998   4.169   1.080  13.841 -0.7468  0.3677  1.1538
18503TIP3   OH276999   1.606   2.999   0.999  0.3661 -0.2858  0.5579
18503TIP3    H177000   1.563   3.022   0.917  1.0054  0.9765  0.5526
18503TIP3    H277001   1.675   2.937   0.974  0.7360  0.3012  0.0920
18504TIP3   OH277002   4.919   1.127   1.627  0.4334  0.5941  0.1790
18504TIP3    H177003   4.979   1.197   1.652 -0.3301  1.3966 -0.2017
18504TIP3    H277004   4.848   1.171   1.579 -1.1786 -0.1468  1.7789
18505TIP3   OH277005   2.488   4.322   5.874 -0.1451 -0.4729 -0.1621
18505TIP3    H177006   2.411   4.296   5.822 -0.2403 -0.4270 -0.0439
18505TIP3    H277007   2.485   4.266   5.951 -0.6312  0.2277  0.3366
18506TIP3   OH277008   5.533   5.171  11.444 -0.0373 -0.3476  0.1846
18506TIP3    H177009   5.617   5.198  11.409  0.4750  0.7595  2.1205
18506TIP3    H277010   5.553   5.102  11.507 -0.7662 -1.1916 -0.4702
18507TIP3   OH277011   2.354   1.799   0.244 -0.3068 -0.1763  0.0282
18507TIP3    H177012   2.320   1.888   0.236 -0.6105 -0.3834 -1.1932
18507TIP3    H277013   2.278   1.742   0.232  0.1818 -0.6151 -1.2581
18508TIP3   OH277014   5.722   5.663  14.650  0.2462  0.2463 -0.0930
18508TIP3    H177015   5.744   5.662  14.557  1.4272  0.2031  0.1700
18508TIP3    H277016   5.807   5.664  14.694 -0.2670 -1.1933  1.0025
18509TIP3   OH277017   0.256   6.074   3.076 -0.1929  0.5530 -0.3040
18509TIP3    H177018   0.313   6.052   3.150 -2.0578 -0.4252  0.9134
18509TIP3    H277019   0.288   6.018   3.004  1.4988  1.3577 -0.2290
18510TIP3   OH277020   4.744   3.912  13.551 -0.2653  0.0180 -0.3965
18510TIP3    H177021   4.724   3.903  13.458  0.3784  2.4032 -0.8498
18510TIP3    H277022   4.831   3.873  13.562 -0.7922 -1.2436 -0.5287
18511TIP3   OH277023   4.102   5.935  16.393  0.2804  0.0194  0.4318
18511TIP3    H177024   4.021   5.957  16.440 -0.1885 -0.9080  0.0819
18511TIP3    H277025   4.151   5.881  16.455 -0.3076 -1.1477 -0.0883
18512TIP3   OH277026   3.567   2.628   0.011  0.0524  0.6393 -0.2014
18512TIP3    H177027   3.520   2.701   0.051  0.0456 -0.0426  1.0900
18512TIP3    H277028   3.511   2.552   0.029  0.7627  0.0967 -0.2700
18513TIP3   OH277029   6.418   4.234  11.717 -0.8855  0.8401 -0.3395
18513TIP3    H177030   6.360   4.253  11.791  1.0183 -0.4790  1.6442
18513TIP3    H277031   6.397   4.145  11.692 -0.9353  0.9835 -0.8143
18514TIP3   OH277032   4.139   1.999   6.164  0.0417 -0.3339  0.1431
18514TIP3    H177033   4.219   1.993   6.112 -0.2652 -0.7244 -0.2896
18514TIP3    H277034   4.087   2.067   6.120  0.8689  1.2363  1.4500
18515TIP3   OH277035   0.590   0.283  13.759  0.3299  0.7296  0.1962
18515TIP3    H177036   0.609   0.377  13.761  0.3342  0.7503 -0.6341
18515TIP3    H277037   0.502   0.278  13.722  0.5471  0.3761 -0.2774
18516TIP3   OH277038   6.589   1.181  10.824  0.1078 -0.2278 -0.4440
18516TIP3    H177039   6.612   1.146  10.737  2.7911 -1.3349  0.5884
18516TIP3    H277040   6.582   1.275  10.810  0.1008 -0.4109 -1.9292
18517TIP3   OH277041   0.349   0.780   6.390 -0.2706 -0.2134 -0.3951
18517TIP3    H177042   0.272   0.829   6.419  0.8971  0.6793  1.3295
18517TIP3    H277043   0.423   0.838   6.408  0.8874 -1.3230 -1.3768
18518TIP3   OH277044   1.076   4.593  15.979  0.2702 -0.3462 -0.4993
18518TIP3    H177045   1.020   4.516  15.988 -0.9687  0.7229  1.5492
18518TIP3    H277046   1.036   4.643  15.908 -1.5277  0.4449  0.9865
18519TIP3   OH277047   6.044   2.668  15.634  0.0894  0.5268 -0.2170
18519TIP3    H177048   5.968   2.616  15.609 -0.2565  0.1087  1.5864
18519TIP3    H277049   6.120   2.618  15.604 -0.2744 -0.5391  0.5973
18520TIP3   OH277050   2.296   5.713  11.295  0.0511 -0.0872  0.3396
18520TIP3    H177051   2.343   5.663  11.228 -0.0484 -1.0859  0.9964
18520TIP3    H277052   2.248   5.646  11.345  0.1188  0.6430  1.3988
18521TIP3   OH277053   5.662   6.140   3.157  0.2052 -0.2458 -0.1783
18521TIP3    H177054   5.740   6.121   3.105 -0.3698 -0.0260 -1.1414
18521TIP3    H277055   5.680   6.225   3.198  0.7653 -0.5405  0.2028
18522TIP3   OH277056   3.259   5.670  16.708  0.1194  0.6893 -0.2343
18522TIP3    H177057   3.222   5.692  16.793  0.0918  1.3660 -0.4135
18522TIP3    H277058   3.183   5.648  16.654  0.0568  1.1602 -0.3390
18523TIP3   OH277059   0.986   5.557   2.258  0.3783  0.4146 -0.0080
18523TIP3    H177060   1.056   5.549   2.322  0.2054  0.2692  0.1620
18523TIP3    H277061   0.918   5.496   2.288  0.1361  0.6310 -0.1128
18524TIP3   OH277062   6.712   6.309   3.337 -0.0434  0.8320  0.0943
18524TIP3    H177063   6.721   6.312   3.432 -0.1484 -1.0982  0.2013
18524TIP3    H277064   6.795   6.273   3.306 -0.6473 -0.2254 -0.3649
18525TIP3   OH277065   2.096   2.736   0.355 -0.3808 -0.0847 -0.1775
18525TIP3    H177066   2.023   2.790   0.387 -0.9486 -0.3501 -0.9950
18525TIP3    H277067   2.067   2.646   0.372 -0.5883 -0.2200 -1.1984
18526TIP3   OH277068   1.209   1.040  12.764  0.1972 -0.4184  0.0542
18526TIP3    H177069   1.275   1.025  12.832  0.5028  1.3694  0.2031
18526TIP3    H277070   1.136   1.081  12.811 -0.6214 -1.4373 -0.2870
18527TIP3   OH277071   5.433   0.056  12.139 -0.3015  0.4787  0.5210
18527TIP3    H177072   5.363   0.091  12.195  2.9350  1.5145  4.3202
18527TIP3    H277073   5.425  -0.039  12.148 -2.4514  0.4176 -1.0212
18528TIP3   OH277074   5.764   4.152  14.727  0.0062 -0.2076 -0.0908
18528TIP3    H177075   5.808   4.165  14.643  0.9445 -1.0741  0.2304
18528TIP3    H277076   5.682   4.200  14.720  0.3665  0.2673 -1.2596
18529TIP3   OH277077   1.875   4.224   3.254 -0.3191 -0.0778  0.3765
18529TIP3    H177078   1.959   4.269   3.263  0.4269 -0.9401 -1.6778
18529TIP3    H277079   1.810   4.290   3.278  0.9099  0.4908  2.3951
18530TIP3   OH277080   6.749   6.063   2.786  0.1052  0.0034 -0.1148
18530TIP3    H177081   6.666   6.111   2.776  0.0923 -0.0090 -0.0725
18530TIP3    H277082   6.800   6.116   2.848 -0.6333 -0.9497  1.3820
18531TIP3   OH277083   4.895   1.053   4.662 -0.1104  0.1147 -0.4322
18531TIP3    H177084   4.926   1.120   4.723  0.8101  0.2023 -0.9834
18531TIP3    H277085   4.957   0.981   4.671 -2.7168 -2.0866  2.4175
18532TIP3   OH277086   4.829   3.934   5.813 -0.6656  0.2107  0.2571
18532TIP3    H177087   4.758   3.885   5.854  0.1770 -0.5612  0.8387
18532TIP3    H277088   4.907   3.912   5.866 -0.2913  2.3703  0.7015
18533TIP3   OH277089   2.754   5.158   2.962  0.4909  0.3370 -0.1991
18533TIP3    H177090   2.774   5.102   3.037 -0.7126  1.0326  0.6849
18533TIP3    H277091   2.713   5.099   2.899 -2.9048  0.4897  1.6230
18534TIP3   OH277092   3.473   3.785   0.977 -0.2438  0.1968 -0.3372
18534TIP3    H177093   3.403   3.740   0.929  0.0899 -1.0191  0.2563
18534TIP3    H277094   3.525   3.829   0.909 -1.9534  1.7002 -0.7258
18535TIP3   OH277095   3.484   2.052  12.296 -0.3391 -0.2291 -0.2865
18535TIP3    H177096   3.493   2.052  12.392  0.5222 -2.9050 -0.2778
18535TIP3    H277097   3.560   2.004  12.265  1.0067  3.0727 -2.6402
18536TIP3   OH277098   1.737   5.277  16.696 -0.0457 -0.3401 -0.4891
18536TIP3    H177099   1.822   5.238  16.680 -0.0805 -1.1119  0.9673
18536TIP3    H277100   1.675   5.205  16.685 -0.3242 -0.2091  0.1430
18537TIP3   OH277101   1.509   5.261  15.433  0.2912  0.4044 -0.0344
18537TIP3    H177102   1.596   5.281  15.468  0.2943  1.1123 -0.4154
18537TIP3    H277103   1.462   5.224  15.507  1.3450 -1.3424 -0.1813
18538TIP3   OH277104   0.767   4.304  16.371  0.3465 -1.0637  0.2981
18538TIP3    H177105   0.817   4.287  16.450  0.0288  1.9319  1.2532
18538TIP3    H277106   0.676   4.292  16.397  0.2981 -1.4084 -0.0162
18539TIP3   OH277107   6.617   6.271  16.755 -0.2169 -0.2495  0.0049
18539TIP3    H177108   6.659   6.350  16.720  0.4815 -0.2604  0.7743
18539TIP3    H277109   6.687   6.225  16.801 -1.0185 -0.3479  1.1837
18540TIP3   OH277110   1.166   3.095  11.594 -0.0664 -0.4689 -0.5377
18540TIP3    H177111   1.131   3.134  11.514  2.1369  1.5672 -0.6214
18540TIP3    H277112   1.247   3.053  11.567 -0.3153 -1.5579  0.3162
18541TIP3   OH277113   0.272   6.100  16.667 -0.6478  0.3444  0.8981
18541TIP3    H177114   0.326   6.134  16.595  0.5566 -0.9661  1.1474
18541TIP3    H277115   0.309   6.140  16.746 -1.8884  1.6803  0.8452
18542TIP3   OH277116   6.324   5.850   0.565 -0.1556 -0.1336 -0.1893
18542TIP3    H177117   6.259   5.918   0.584  0.0575 -0.0706  0.3228
18542TIP3    H277118   6.272   5.771   0.552 -0.2989 -0.2466  0.9808
18543TIP3   OH277119   0.112   5.672   2.760  0.1253 -0.1922 -0.0371
18543TIP3    H177120   0.172   5.659   2.832 -0.8160 -0.2244  0.7620
18543TIP3    H277121   0.026   5.683   2.801 -0.0527  2.7053 -0.9465
18544TIP3   OH277122   2.470   6.215   5.035  0.4074  0.3794  0.0146
18544TIP3    H177123   2.535   6.272   4.994  0.5892  0.7397  0.8029
18544TIP3    H277124   2.401   6.273   5.064 -0.6927 -0.0737 -1.5287
18545TIP3   OH277125   0.064   0.654  15.041  0.4184  0.3494  0.1958
18545TIP3    H177126   0.077   0.583  14.978  1.5235 -0.2273  1.0481
18545TIP3    H277127   0.144   0.706  15.035  0.7154  0.0642  1.3874
18546TIP3   OH277128   6.215   3.262   2.430  0.2055 -0.7479  0.0206
18546TIP3    H177129   6.144   3.239   2.490 -2.0622 -0.4421 -2.3947
18546TIP3    H277130   6.211   3.357   2.423  2.3331 -0.4733  1.4579
18547TIP3   OH277131   2.910   2.171   0.856  0.4911 -0.1167 -0.4221
18547TIP3    H177132   2.944   2.081   0.859  0.7189 -0.0100  0.6503
18547TIP3    H277133   2.824   2.162   0.815  0.4756 -0.8458 -0.2522
18548TIP3   OH277134   1.145   1.659  13.514  0.0896  0.1228 -0.3528
18548TIP3    H177135   1.115   1.635  13.426 -1.4462 -2.0406  0.6662
18548TIP3    H277136   1.234   1.625  13.520  1.1814  2.4873 -1.8407
18549TIP3   OH277137   1.663   0.971  15.354 -0.2659  0.6808 -0.7686
18549TIP3    H177138   1.751   0.983  15.319  0.2041 -0.0169  0.1183
18549TIP3    H277139   1.617   1.052  15.333  0.7693  1.2988 -0.7112
18550TIP3   OH277140   4.148   2.342  13.767 -0.3376  0.7238 -0.1968
18550TIP3    H177141   4.099   2.422  13.747 -0.4319  0.3792 -1.4336
18550TIP3    H277142   4.104   2.273  13.718 -1.3492 -0.4773  2.2191
18551TIP3   OH277143   3.056   1.472   5.254 -0.1668  0.5538 -0.3104
18551TIP3    H177144   3.130   1.419   5.224 -0.8329 -1.1336  0.8861
18551TIP3    H277145   2.980   1.414   5.245 -1.2585  2.0051 -0.8232
18552TIP3   OH277146   1.901   3.553  13.131  0.2876  0.0066 -0.5733
18552TIP3    H177147   1.902   3.640  13.091  0.5835 -0.1017 -0.8165
18552TIP3    H277148   1.818   3.515  13.104 -0.3031  0.5906  0.3879
18553TIP3   OH277149   0.906   0.634   4.707 -0.0298 -0.0875  0.3681
18553TIP3    H177150   0.880   0.567   4.644  1.9503 -0.4263 -0.1815
18553TIP3    H277151   0.855   0.711   4.682 -1.6741 -1.1237  0.4458
18554TIP3   OH277152   4.510   0.279   3.722 -0.4069 -0.4425  0.4952
18554TIP3    H177153   4.493   0.368   3.693  3.5796  0.6402  0.8086
18554TIP3    H277154   4.502   0.283   3.817  2.2076  0.4246  0.7764
18555TIP3   OH277155   5.135   4.036  16.284  0.2004  0.6300  0.3803
18555TIP3    H177156   5.113   4.084  16.363 -0.1635  0.9217  0.1039
18555TIP3    H277157   5.132   3.944  16.310 -2.2932  0.5771  0.1470
18556TIP3   OH277158   0.523   1.819  16.356 -0.4409  0.2710  0.2373
18556TIP3    H177159   0.613   1.792  16.373  0.3322  3.0179  0.9192
18556TIP3    H277160   0.470   1.762  16.412  0.9411 -0.6581  0.6403
18557TIP3   OH277161   0.160   2.217   6.234  0.1734 -0.0548 -0.0647
18557TIP3    H177162   0.148   2.309   6.257  1.6887  0.0724  0.3160
18557TIP3    H277163   0.195   2.218   6.145 -1.3464 -0.3671 -0.7113
18558TIP3   OH277164   6.147   5.148   3.174 -0.3186  0.1004 -0.3906
18558TIP3    H177165   6.137   5.197   3.255  1.9476 -0.0735  0.0689
18558TIP3    H277166   6.073   5.087   3.172  0.5156 -1.1669  2.5015
18559TIP3   OH277167   0.350   5.545  12.369  0.1859  0.0101 -0.1943
18559TIP3    H177168   0.396   5.463  12.351 -0.6600 -0.3448 -0.7586
18559TIP3    H277169   0.259   5.520  12.382 -0.0374  0.8303 -0.0902
18560TIP3   OH277170   3.477   0.965  14.827  0.4677  0.2862 -0.3233
18560TIP3    H177171   3.550   0.987  14.884  0.6548  0.2027 -0.5306
18560TIP3    H277172   3.517   0.934  14.746  0.2062  0.0586 -0.3707
18561TIP3   OH277173   1.157   6.162  13.201  0.0801  0.1257 -0.0752
18561TIP3    H177174   1.245   6.123  13.201  0.3661  0.7485  0.8551
18561TIP3    H277175   1.159   6.225  13.130 -0.5568 -1.8500 -1.9704
18562TIP3   OH277176   4.078   4.020   2.373 -0.0492  0.2181  0.2475
18562TIP3    H177177   4.155   4.070   2.400 -0.3470  1.5501 -1.2636
18562TIP3    H277178   4.022   4.083   2.329 -1.1007 -1.1562 -0.4594
18563TIP3   OH277179   1.975   3.502   2.686 -0.0776 -0.1867  0.5840
18563TIP3    H177180   1.990   3.409   2.672  0.6081 -0.0953  0.6764
18563TIP3    H277181   1.898   3.506   2.742  0.7326 -0.7604  1.7779
18564TIP3   OH277182   0.400   2.191   2.961 -0.1708  0.0847  0.3474
18564TIP3    H177183   0.462   2.219   3.029  0.8721 -3.5467  1.0730
18564TIP3    H277184   0.454   2.167   2.887 -1.1492  1.5226 -0.9066
18565TIP3   OH277185   4.115   3.845  14.047 -0.6499 -0.0998  0.1848
18565TIP3    H177186   4.139   3.854  14.139  0.0074 -1.5296  0.1769
18565TIP3    H277187   4.025   3.811  14.049 -1.2908  1.5197  0.2556
18566TIP3   OH277188   3.100   3.552  11.506  0.3372 -0.1318  0.0948
18566TIP3    H177189   3.056   3.472  11.534 -0.3799  0.5875  1.1549
18566TIP3    H277190   3.064   3.571  11.420 -1.1315  0.1781  0.7432
18567TIP3   OH277191   3.445   6.162  16.903  0.1782 -0.3748  0.0011
18567TIP3    H177192   3.381   6.162  16.832  0.2922  0.4121 -0.1100
18567TIP3    H277193   3.397   6.125  16.978 -1.0440  1.9312  0.4477
18568TIP3   OH277194   6.112   2.013  13.249 -0.2988  0.1906  0.2079
18568TIP3    H177195   6.206   2.031  13.259 -0.3534  0.1072  0.8903
18568TIP3    H277196   6.108   1.943  13.184  0.0785  0.5742 -0.2438
18569TIP3   OH277197   3.889   4.651  16.605 -0.1417 -0.5081  0.5877
18569TIP3    H177198   3.928   4.611  16.683  2.3864 -1.7932 -1.1923
18569TIP3    H277199   3.843   4.579  16.562 -1.9691  0.3108  1.0925
18570TIP3   OH277200   0.678   4.474  12.716 -0.0481 -0.2098  0.1085
18570TIP3    H177201   0.678   4.385  12.752 -0.9725  0.1568  1.0815
18570TIP3    H277202   0.757   4.478  12.662 -0.9381 -2.2248 -1.5128
18571TIP3   OH277203   4.312   4.784   4.531 -0.4141 -0.2087 -0.0040
18571TIP3    H177204   4.352   4.733   4.461 -1.8171 -0.3190 -0.7586
18571TIP3    H277205   4.385   4.828   4.573  0.5255 -0.6190 -1.1512
18572TIP3   OH277206   4.244   1.945  16.092  0.4097  0.5209  0.5176
18572TIP3    H177207   4.303   1.942  16.017 -1.2605  2.5411 -0.9957
18572TIP3    H277208   4.186   1.870  16.080  0.6856  0.3461  0.2706
18573TIP3   OH277209   2.469   6.282  16.080  0.7044  0.5263  1.0069
18573TIP3    H177210   2.469   6.282  15.985  1.3634 -0.4555  0.9948
18573TIP3    H277211   2.386   6.241  16.105  1.6634 -1.6454  0.8070
18574TIP3   OH277212   3.300   2.928  14.451  0.1235 -0.2648  0.1359
18574TIP3    H177213   3.316   3.022  14.454 -1.1367  0.0038 -0.7931
18574TIP3    H277214   3.316   2.898  14.541  0.2932  0.8599  0.4955
18575TIP3   OH277215   2.139   2.718   0.786  0.5011  0.4804  0.3127
18575TIP3    H177216   2.146   2.794   0.844 -0.0294  1.1949 -0.5504
18575TIP3    H277217   2.223   2.716   0.740  0.7042  0.2392  0.6783
18576TIP3   OH277218   1.049   1.144   2.142 -0.4111  0.1431  0.2316
18576TIP3    H177219   1.132   1.136   2.095 -0.6122  0.4630 -0.1787
18576TIP3    H277220   1.056   1.228   2.187  0.9277 -1.2939  3.0404
18577TIP3   OH277221   1.581   4.847   5.463  0.4759  0.1516  0.3545
18577TIP3    H177222   1.491   4.819   5.448 -0.0810  1.6281  0.7136
18577TIP3    H277223   1.626   4.769   5.495 -0.9713 -0.3482  1.2664
18578TIP3   OH277224   3.157   0.997   0.631 -0.1008 -0.1390  1.1140
18578TIP3    H177225   3.237   1.047   0.615  0.8605 -2.1007 -0.7668
18578TIP3    H277226   3.104   1.010   0.553 -0.6319 -0.5972  1.3848
18579TIP3   OH277227   3.503   0.121  14.602  0.2011  0.0497  0.3880
18579TIP3    H177228   3.448   0.199  14.593 -0.6918 -0.2040  2.7893
18579TIP3    H277229   3.447   0.048  14.576  0.6119  0.0686 -0.5983
18580TIP3   OH277230   2.184   2.041   3.813  0.4030 -0.8597  0.0500
18580TIP3    H177231   2.206   2.131   3.786  2.0770 -1.2478  0.0687
18580TIP3    H277232   2.242   2.022   3.886  1.7982 -2.7751 -1.4381
18581TIP3   OH277233   1.971   1.430   4.081 -0.5979 -0.1710  0.0985
18581TIP3    H177234   1.973   1.410   3.987  1.6531 -1.9523  0.4194
18581TIP3    H277235   2.025   1.361   4.120 -0.9339  0.9205  2.6363
18582TIP3   OH277236   4.324   5.401   0.779  0.1084 -0.5047 -0.2270
18582TIP3    H177237   4.305   5.338   0.849  2.2763  0.8684  1.7301
18582TIP3    H277238   4.391   5.357   0.725  1.8840  0.1647  1.3426
18583TIP3   OH277239   1.482   5.805  11.556 -0.8693 -0.1148 -0.1572
18583TIP3    H177240   1.478   5.710  11.544  2.4858 -0.1122 -2.5332
18583TIP3    H277241   1.527   5.817  11.639  1.6130 -0.7810 -1.3154
18584TIP3   OH277242   0.193   4.835  12.294  0.7336 -0.1469 -0.1215
18584TIP3    H177243   0.117   4.812  12.347  1.8829  0.6800  2.0469
18584TIP3    H277244   0.164   4.910  12.242 -0.6019 -1.3362 -1.1456
18585TIP3   OH277245   5.646   1.771  17.200 -0.1279 -0.7174  0.2032
18585TIP3    H177246   5.609   1.698  17.151 -1.6835  1.4259 -2.0510
18585TIP3    H277247   5.573   1.804  17.252 -0.2113  0.7294 -0.7611
18586TIP3   OH277248   3.299   4.188  12.853 -0.3404 -0.6211  0.5404
18586TIP3    H177249   3.288   4.276  12.889 -2.5225 -1.0308  0.9948
18586TIP3    H277250   3.389   4.164  12.877 -0.5593  0.4557  2.7524
18587TIP3   OH277251   1.829   3.644   0.581 -0.5492  0.2712 -0.2782
18587TIP3    H177252   1.761   3.710   0.597 -0.4013  0.3849 -0.1087
18587TIP3    H277253   1.823   3.625   0.488 -1.5118 -0.4940 -0.0718
18588TIP3   OH277254   2.789   4.964   4.053  0.1548 -0.5183 -0.1354
18588TIP3    H177255   2.805   5.033   4.118  2.4373  0.2095 -1.3929
18588TIP3    H277256   2.860   4.902   4.066 -1.4518 -2.3430  0.4647
18589TIP3   OH277257   6.236   6.515  15.995  0.3524 -0.5459  0.3395
18589TIP3    H177258   6.187   6.570  15.934  0.6190  0.4379  0.9744
18589TIP3    H277259   6.261   6.438  15.944 -0.6207 -0.3997 -0.3865
18590TIP3   OH277260   3.250   3.299   3.430  0.1054  0.5237 -0.2769
18590TIP3    H177261   3.181   3.330   3.489 -0.2110 -1.0378  0.2205
18590TIP3    H277262   3.217   3.215   3.397  0.2873  1.3187 -2.6905
18591TIP3   OH277263   5.462   6.240  15.928 -0.3041  0.3925 -0.1000
18591TIP3    H177264   5.395   6.217  15.992 -1.0716 -0.6460 -1.2299
18591TIP3    H277265   5.484   6.331  15.948 -1.0499  0.3252  1.1511
18592TIP3   OH277266   2.122   5.781  14.765 -0.0110  0.2750  0.3291
18592TIP3    H177267   2.092   5.815  14.680 -0.6033  1.7367  1.0909
18592TIP3    H277268   2.051   5.803  14.826  0.5357 -0.4979  1.2667
18593TIP3   OH277269   4.092   0.496   5.392  0.2596  0.4640 -0.0791
18593TIP3    H177270   4.184   0.471   5.382 -0.4573 -2.0476 -1.1677
18593TIP3    H277271   4.056   0.434   5.455 -0.9817  0.5945 -0.6230
18594TIP3   OH277272   2.151   3.645   3.195 -0.2209 -0.1168  0.5766
18594TIP3    H177273   2.072   3.601   3.226 -0.1940 -0.4824  0.1224
18594TIP3    H277274   2.150   3.730   3.240 -1.5198  0.4003 -0.3662
18595TIP3   OH277275   3.692   6.129  16.792  0.4286  0.4899 -0.7741
18595TIP3    H177276   3.614   6.145  16.845 -0.0006  2.1269 -1.8224
18595TIP3    H277277   3.669   6.053  16.738  0.5969 -0.7217  0.8061
18596TIP3   OH277278   1.278   1.002  12.186 -0.9001  0.1772 -0.2920
18596TIP3    H177279   1.235   0.967  12.264 -1.0438 -0.4827 -0.6587
18596TIP3    H277280   1.342   0.936  12.162  0.8231  1.4401  0.6291
18597TIP3   OH277281   0.490   2.789  12.672 -0.1212  0.0370 -0.6585
18597TIP3    H177282   0.410   2.743  12.696  0.3647  0.5744  2.3871
18597TIP3    H277283   0.491   2.866  12.728  2.4759  0.1082 -0.6915
18598TIP3   OH277284   4.455   1.911  10.976  0.1539  0.3974  0.0255
18598TIP3    H177285   4.533   1.907  10.921  0.7811 -0.7117  0.9489
18598TIP3    H277286   4.393   1.851  10.933 -0.1522  1.1557 -0.6184
18599TIP3   OH277287   0.341   1.554  14.292  0.5478  1.1537  0.0152
18599TIP3    H177288   0.400   1.538  14.219  1.0683  2.0728  0.2275
18599TIP3    H277289   0.335   1.469  14.336 -0.9996  0.1451 -1.9371
18600TIP3   OH277290   6.651   2.056   1.303  0.1090  0.1478 -0.3565
18600TIP3    H177291   6.627   1.966   1.279 -2.0845 -0.3229  2.8934
18600TIP3    H277292   6.696   2.046   1.387  1.3630  2.0135 -0.7622
18601TIP3   OH277293   4.295   1.600  15.051  0.0894  0.5297  0.1544
18601TIP3    H177294   4.277   1.629  15.140 -1.5448  2.1109 -0.6224
18601TIP3    H277295   4.279   1.678  14.997  1.3615 -0.2969 -1.4946
18602TIP3   OH277296   1.848   4.475   3.924 -0.3037 -0.7770  1.0732
18602TIP3    H177297   1.922   4.415   3.923 -0.1320 -0.6080  2.4116
18602TIP3    H277298   1.886   4.561   3.938 -0.6407 -0.4903  0.2820
18603TIP3   OH277299   1.031   0.094   3.048  0.1768 -0.1900  0.0762
18603TIP3    H177300   1.095   0.155   3.083  0.8273 -1.6405  1.5520
18603TIP3    H277301   0.969   0.149   3.000  0.4487  1.6885  1.7468
18604TIP3   OH277302   4.201   4.312   3.933 -0.0074 -0.5310 -0.2049
18604TIP3    H177303   4.291   4.296   3.959 -0.0808  1.0091  1.2070
18604TIP3    H277304   4.192   4.270   3.848  1.4511 -2.3727  0.4914
18605TIP3   OH277305   6.297   6.305  12.215 -0.3070 -0.1492 -0.2735
18605TIP3    H177306   6.242   6.226  12.220  0.9209 -1.1291 -1.4946
18605TIP3    H277307   6.256   6.359  12.148 -1.4548  0.5378  0.9377
18606TIP3   OH277308   2.665   4.848  15.794 -0.3145 -0.6488 -0.0351
18606TIP3    H177309   2.634   4.803  15.715 -0.8741 -1.5692  0.6931
18606TIP3    H277310   2.585   4.881  15.835  0.1128  1.7953 -0.9591
18607TIP3   OH277311   1.717   0.849  12.129  0.2717  0.4953 -0.5981
18607TIP3    H177312   1.627   0.840  12.161 -0.0134  0.4210 -1.4020
18607TIP3    H277313   1.736   0.942  12.138 -0.0265  0.5768 -0.7836
18608TIP3   OH277314   5.840   0.961   0.684  0.2853  0.3999  0.0100
18608TIP3    H177315   5.880   0.875   0.666  0.6451  0.7101 -0.7043
18608TIP3    H277316   5.900   1.024   0.644 -1.3994  0.8362 -2.0333
18609TIP3   OH277317   1.404   3.031   4.499 -0.4652  0.4400 -0.2689
18609TIP3    H177318   1.408   3.076   4.584  1.4626 -1.2230  0.5838
18609TIP3    H277319   1.365   3.096   4.440 -0.2716  2.2500  1.4775
18610TIP3   OH277320   5.303   3.317  16.580  0.4354  0.0003  0.3941
18610TIP3    H177321   5.339   3.322  16.668  1.5479  0.3470 -0.0581
18610TIP3    H277322   5.378   3.292  16.525  0.2166  1.6692 -0.7162
18611TIP3   OH277323   4.572   4.058   5.941  0.0923  0.0463  0.1260
18611TIP3    H177324   4.511   4.120   5.900 -1.8075 -0.8677  1.3867
18611TIP3    H277325   4.555   3.975   5.897  0.1642 -0.2860  0.7052
18612TIP3   OH277326   4.073   4.618   1.551  0.8132  0.4442 -0.3040
18612TIP3    H177327   3.990   4.634   1.505  2.0313 -0.4019 -3.0450
18612TIP3    H277328   4.105   4.706   1.572 -0.5984  0.7959  0.5108
18613TIP3   OH277329   4.222   3.137  11.324  0.0682 -0.6373  0.0746
18613TIP3    H177330   4.281   3.075  11.368  0.2704 -0.3194  0.2512
18613TIP3    H277331   4.265   3.222  11.334  0.6795 -0.6973 -1.6659
18614TIP3   OH277332   1.173   6.584   5.631 -0.4451  0.1326  0.1043
18614TIP3    H177333   1.109   6.591   5.560  0.4170  0.6376 -0.6463
18614TIP3    H277334   1.187   6.490   5.640 -0.6546  0.0578 -0.3066
18615TIP3   OH277335   0.238   2.323  14.539 -0.5161  0.6277 -0.1640
18615TIP3    H177336   0.240   2.300  14.632 -0.7633 -0.1404 -0.3343
18615TIP3    H277337   0.315   2.378  14.526 -0.1187  0.2124  0.3694
18616TIP3   OH277338   3.683   0.317   3.510  0.0415 -0.8756 -0.3292
18616TIP3    H177339   3.612   0.380   3.520  0.1841 -0.6132 -0.9389
18616TIP3    H277340   3.704   0.290   3.600  0.6383  0.6763  0.0342
18617TIP3   OH277341   6.017   3.156  11.476  0.1786 -0.6900 -0.1322
18617TIP3    H177342   6.086   3.147  11.410 -0.3850 -0.6641 -0.7379
18617TIP3    H277343   5.939   3.180  11.425 -0.0081  0.4635  0.6537
18618TIP3   OH277344   3.717   0.874   5.200  0.3145  0.3915 -0.0594
18618TIP3    H177345   3.663   0.911   5.271  0.9931  0.9711  0.1635
18618TIP3    H277346   3.661   0.880   5.122 -1.1903 -1.9959  0.7210
18619TIP3   OH277347   2.129   4.515  13.211 -0.2895  0.2687 -0.0656
18619TIP3    H177348   2.168   4.600  13.233 -1.1529  0.9723 -1.0965
18619TIP3    H277349   2.202   4.462  13.180  0.7142 -0.2727  2.9334
18620TIP3   OH277350   3.520   4.875   2.989 -0.1250 -0.4561 -0.5718
18620TIP3    H177351   3.613   4.881   3.010 -0.1484  0.2093 -0.6485
18620TIP3    H277352   3.518   4.849   2.897 -0.0235 -0.8314 -0.4734
18621TIP3   OH277353   1.178   1.108  16.400 -0.0511  0.5693  0.5245
18621TIP3    H177354   1.144   1.161  16.472 -0.2045 -1.0400  1.7023
18621TIP3    H277355   1.132   1.139  16.323  0.7990  3.0149  0.8837
18622TIP3   OH277356   5.205   0.341  13.160  0.0407 -0.3946  0.1052
18622TIP3    H177357   5.233   0.417  13.109  0.9788 -1.4974 -1.1236
18622TIP3    H277358   5.286   0.305  13.196 -0.2896 -1.2300  0.0467
18623TIP3   OH277359   5.182   4.820  13.608  0.1127  0.2887  0.2134
18623TIP3    H177360   5.101   4.866  13.586  0.7235  0.5510 -1.6856
18623TIP3    H277361   5.154   4.731  13.629 -0.6700  0.3685 -0.4417
18624TIP3   OH277362   3.744   2.953  15.081 -0.1126  0.0658  0.2179
18624TIP3    H177363   3.797   3.010  15.024 -0.6799  0.7313  0.3534
18624TIP3    H277364   3.669   3.006  15.105 -0.5195 -0.6577  0.5636
18625TIP3   OH277365   0.129   1.598   2.216  0.4881 -0.9601  0.1333
18625TIP3    H177366   0.061   1.535   2.241 -0.0611 -0.4682 -0.0821
18625TIP3    H277367   0.179   1.612   2.296 -0.1531 -0.7438  0.5069
18626TIP3   OH277368   4.769   5.955   1.547  0.2373 -0.1554  0.0484
18626TIP3    H177369   4.740   5.868   1.521 -0.7746  0.0049  0.5874
18626TIP3    H277370   4.854   5.966   1.505 -0.8013 -0.3427 -2.2475
18627TIP3   OH277371   4.898   6.773   1.618  0.6616 -0.6642 -0.2637
18627TIP3    H177372   4.821   6.758   1.672  0.2473  2.3262  0.1511
18627TIP3    H277373   4.865   6.775   1.529  0.3531 -0.0950 -0.1431
18628TIP3   OH277374   3.487   2.480  14.158  0.0948  0.0360 -0.2049
18628TIP3    H177375   3.418   2.422  14.123 -0.2098  0.8881 -1.0619
18628TIP3    H277376   3.449   2.516  14.239  0.9268 -2.1967  1.2758
18629TIP3   OH277377   1.566   4.803  11.342  0.0454  0.3649 -0.1874
18629TIP3    H177378   1.613   4.885  11.355 -0.7970  0.8920 -0.3919
18629TIP3    H277379   1.564   4.792  11.246 -1.5193  1.1209 -0.2640
18630TIP3   OH277380   5.051   2.035   2.835 -0.2712 -0.2134 -0.3333
18630TIP3    H177381   5.002   2.118   2.833 -1.2748 -0.7080  1.3675
18630TIP3    H277382   5.117   2.049   2.902 -1.9936 -1.5232  1.7706
18631TIP3   OH277383   1.182   4.645  16.643  0.5466 -0.0263 -0.2192
18631TIP3    H177384   1.146   4.732  16.657 -1.0132 -0.6857  0.0102
18631TIP3    H277385   1.202   4.612  16.731  1.8037  0.3401 -0.3426
18632TIP3   OH277386   1.296   4.820  14.435 -0.3894 -0.4053  0.0428
18632TIP3    H177387   1.299   4.916  14.427 -2.6689 -0.4177 -2.5295
18632TIP3    H277388   1.206   4.801  14.460  0.3468 -1.9032  1.7856
18633TIP3   OH277389   1.260   2.703  15.813  0.2933 -0.4635  0.4784
18633TIP3    H177390   1.308   2.755  15.749  0.7303  0.9310  1.8847
18633TIP3    H277391   1.168   2.707  15.785  0.2941  1.2610  0.6657
18634TIP3   OH277392   6.559   6.292  14.647 -0.4078 -0.3821  0.6481
18634TIP3    H177393   6.623   6.292  14.576 -1.4242 -0.0499 -0.2978
18634TIP3    H277394   6.595   6.352  14.712  0.2248 -0.1748  0.1150
18635TIP3   OH277395   6.415   6.552  12.292 -0.1939  0.4263  0.2519
18635TIP3    H177396   6.443   6.611  12.222 -1.2387  0.3995 -0.2116
18635TIP3    H277397   6.366   6.483  12.246  1.2563 -0.9989  0.7355
18636TIP3   OH277398   3.831   3.294  16.858  0.5568  0.4815 -0.1743
18636TIP3    H177399   3.751   3.258  16.821  1.0433  0.5276 -1.3208
18636TIP3    H277400   3.811   3.387  16.873 -0.0222  0.2083  0.8103
18637TIP3   OH277401   4.776   5.722  14.775  0.5260  0.1604  0.3115
18637TIP3    H177402   4.791   5.667  14.852 -0.3276  0.5381  0.7618
18637TIP3    H277403   4.863   5.736  14.739  0.7301 -1.8488 -0.0769
18638TIP3   OH277404   3.059   1.409   2.412  0.5394  0.1887 -0.4570
18638TIP3    H177405   3.024   1.488   2.370 -0.8788  0.8436  1.7537
18638TIP3    H277406   3.001   1.339   2.385  0.3700  0.3674 -0.5602
18639TIP3   OH277407   4.543   5.790  14.628  0.6353 -0.2576 -0.0068
18639TIP3    H177408   4.566   5.883  14.627 -0.1835 -0.0229  1.3618
18639TIP3    H277409   4.605   5.750  14.689 -1.3444  0.0911  2.3814
18640TIP3   OH277410   6.812   5.953  14.508  0.1821  0.0112 -0.1343
18640TIP3    H177411   6.768   6.024  14.463  0.4551 -0.2809 -0.8714
18640TIP3    H277412   6.821   5.884  14.442  0.1555 -0.6079  0.4931
18641TIP3   OH277413   2.343   0.717   2.423  0.0993 -0.5913  0.0008
18641TIP3    H177414   2.360   0.626   2.447  1.8140 -0.5909 -1.0762
18641TIP3    H277415   2.419   0.744   2.372 -2.0240  0.2685 -3.0136
18642TIP3   OH277416   2.608   3.381   0.532  0.2430 -0.6117  0.2378
18642TIP3    H177417   2.578   3.294   0.559 -0.3419 -0.2687  0.7179
18642TIP3    H277418   2.530   3.424   0.497  0.5351 -0.2933 -0.0320
18643TIP3   OH277419   2.178   1.968   6.064  0.1706 -0.1068 -0.0117
18643TIP3    H177420   2.099   1.920   6.039 -1.3215  2.5255 -0.7037
18643TIP3    H277421   2.182   1.961   6.159 -1.6729  0.7658  0.1707
18644TIP3   OH277422   1.677   3.466   2.754  0.3901 -0.5247  0.7599
18644TIP3    H177423   1.690   3.481   2.661 -0.5093 -0.4433  0.6419
18644TIP3    H277424   1.718   3.382   2.772  0.5751 -0.5320  0.3011
18645TIP3   OH277425   0.133   4.016   5.386 -0.6668 -0.3590 -0.5391
18645TIP3    H177426   0.211   3.976   5.346 -0.7648  0.2197 -1.3238
18645TIP3    H277427   0.091   4.063   5.314 -0.5172  1.2325  0.3685
18646TIP3   OH277428   1.046   1.575  13.254  0.6019 -0.1913  0.2525
18646TIP3    H177429   1.103   1.603  13.183  0.5485 -1.2234 -0.2149
18646TIP3    H277430   0.959   1.571  13.215  0.6411 -1.1853  0.2504
18647TIP3   OH277431   3.059   5.594   1.651 -0.3869 -0.0091 -0.2313
18647TIP3    H177432   3.034   5.669   1.706 -0.3647 -2.1467  3.0047
18647TIP3    H277433   3.136   5.624   1.603 -0.3473  2.0052  0.9544
18648TIP3   OH277434   1.072   3.153  12.518  0.6734  0.0029  0.4282
18648TIP3    H177435   1.001   3.152  12.583 -0.1410 -1.2737 -0.4342
18648TIP3    H277436   1.148   3.184  12.567 -0.5494  1.9201  1.2740
18649TIP3   OH277437   0.775   3.151   1.209  0.1677 -0.1101  0.4357
18649TIP3    H177438   0.835   3.154   1.135 -0.3615  0.2823  0.0140
18649TIP3    H277439   0.701   3.206   1.183 -0.2517 -0.3601  1.0540
18650TIP3   OH277440   4.335   1.744   6.394  0.3160 -0.3178 -0.0456
18650TIP3    H177441   4.364   1.726   6.304  0.9463  0.7032 -0.0630
18650TIP3    H277442   4.300   1.661   6.425  1.3481 -1.0552 -0.7690
18651TIP3   OH277443   5.474   3.259  14.673  0.5671  0.0475  0.7018
18651TIP3    H177444   5.430   3.215  14.600  2.0582 -1.2986  0.5608
18651TIP3    H277445   5.564   3.227  14.669  1.1312  1.3634  2.0404
18652TIP3   OH277446   4.445   5.870  16.465 -0.0843  0.1320 -0.1404
18652TIP3    H177447   4.455   5.955  16.421 -0.5710 -0.2636 -1.0397
18652TIP3    H277448   4.399   5.891  16.546 -0.1889  0.7407 -0.3482
18653TIP3   OH277449   3.203   0.293  13.790  0.5556 -0.9937 -0.0683
18653TIP3    H177450   3.161   0.345  13.859  1.7790 -1.0736  0.7612
18653TIP3    H277451   3.257   0.356  13.743 -0.1305 -0.9792 -0.8642
18654TIP3   OH277452   2.156   0.878  11.567 -0.2604 -0.0868 -0.1274
18654TIP3    H177453   2.129   0.803  11.620  0.4473 -1.2513 -1.3397
18654TIP3    H277454   2.077   0.904  11.521 -0.0907 -1.4952 -1.3097
18655TIP3   OH277455   6.693   0.296   2.948  0.1561 -0.5425  0.1612
18655TIP3    H177456   6.684   0.388   2.926  0.0774 -0.8049 -0.9582
18655TIP3    H277457   6.685   0.250   2.864  2.2254 -1.4305  0.3938
18656TIP3   OH277458   2.935   0.380   1.398  0.2980  0.6570  0.7068
18656TIP3    H177459   2.854   0.423   1.370  0.6167 -0.4409 -2.2570
18656TIP3    H277460   2.928   0.374   1.493 -1.7859  3.1180  0.7970
18657TIP3   OH277461   2.145   5.722  13.813  0.0986  0.0028 -0.0454
18657TIP3    H177462   2.146   5.658  13.884 -0.1143  0.6129  0.5205
18657TIP3    H277463   2.151   5.670  13.733 -3.2765 -0.9828  0.1885
18658TIP3   OH277464   1.604   0.626   5.077  0.2355  0.0366  0.4752
18658TIP3    H177465   1.583   0.535   5.099  0.6419 -0.1385  0.1496
18658TIP3    H277466   1.688   0.642   5.122  0.0279  0.3400  0.7599
18659TIP3   OH277467   1.997   0.729  12.113 -0.4125 -0.2398 -0.0799
18659TIP3    H177468   1.995   0.664  12.042 -1.7850  0.6361 -0.9058
18659TIP3    H277469   1.905   0.752  12.126 -0.3726 -1.4257  3.0428
18660TIP3   OH277470   0.904   0.470  15.204 -0.5574  0.1306 -0.2637
18660TIP3    H177471   0.960   0.547  15.203  1.8038 -1.4833 -0.6551
18660TIP3    H277472   0.881   0.458  15.296 -1.1658  1.3960 -0.2291
18661TIP3   OH277473   3.275   1.988  16.263 -0.4378 -0.6106  0.8612
18661TIP3    H177474   3.278   2.080  16.239  1.0182 -0.8914 -0.1856
18661TIP3    H277475   3.310   1.985  16.352 -1.0677 -0.0941  1.1281
18662TIP3   OH277476   2.776   1.569   2.627 -0.3963  0.0561  0.0100
18662TIP3    H177477   2.848   1.527   2.675 -1.3988 -1.5615  0.1522
18662TIP3    H277478   2.731   1.497   2.583 -2.3519  0.9366  0.4670
18663TIP3   OH277479   2.810   0.569   0.639  0.4916 -0.1883  0.4454
18663TIP3    H177480   2.793   0.493   0.584  0.6878 -0.3630  0.6205
18663TIP3    H277481   2.900   0.595   0.617  0.4342 -0.0229  0.4033
18664TIP3   OH277482   2.409   0.012  14.500 -0.1291 -0.0551 -0.1796
18664TIP3    H177483   2.471   0.082  14.520 -1.1292  1.3444 -1.7515
18664TIP3    H277484   2.461  -0.055  14.456  1.3157 -1.4643  3.3043
18665TIP3   OH277485   0.166   3.698  13.400 -0.2063 -0.3371  0.5864
18665TIP3    H177486   0.172   3.731  13.490 -0.1773 -0.2747  0.5614
18665TIP3    H277487   0.237   3.743  13.353 -0.6252  0.1273  0.3808
18666TIP3   OH277488   2.062   1.235  10.602 -0.4191  0.2216  0.0913
18666TIP3    H177489   2.149   1.211  10.636  0.0273 -0.4075 -1.4400
18666TIP3    H277490   2.014   1.153  10.598 -0.7882  0.4369  0.0586
18667TIP3   OH277491   2.793   0.247  12.777  0.0224 -0.1830 -0.3001
18667TIP3    H177492   2.762   0.279  12.862  1.7197 -0.4715  0.4622
18667TIP3    H277493   2.767   0.155  12.776 -2.2610  0.3998 -1.2431
18668TIP3   OH277494   1.443   3.456   0.325  0.1970  0.0959  0.0529
18668TIP3    H177495   1.497   3.378   0.311  0.5861  0.5361 -0.9337
18668TIP3    H277496   1.353   3.424   0.324  0.3871 -0.4538  0.4294
18669TIP3   OH277497   1.740   4.259  11.516  0.9425 -0.3024  0.1409
18669TIP3    H177498   1.714   4.240  11.426  1.7597 -0.5755 -0.0498
18669TIP3    H277499   1.691   4.197  11.569  1.1247 -0.7419 -0.1973
18670TIP3   OH277500   0.827   5.483  12.264 -0.5205  0.0221  0.7757
18670TIP3    H177501   0.821   5.388  12.261 -3.7654  0.1456 -0.0051
18670TIP3    H277502   0.841   5.509  12.173  0.6319  0.3441  1.0216
18671TIP3   OH277503   1.768   0.579   2.457  0.2417 -0.3871 -0.1853
18671TIP3    H177504   1.735   0.522   2.527  0.2367  0.2341  0.3277
18671TIP3    H277505   1.839   0.629   2.499 -1.3142  1.7239  0.0806
18672TIP3   OH277506   1.957   2.168  15.165 -0.6118 -0.4842  0.3396
18672TIP3    H177507   1.949   2.115  15.085 -1.2748 -0.7662  0.5853
18672TIP3    H277508   1.881   2.225  15.163 -0.2906 -0.0529  0.4573
18673TIP3   OH277509   2.268   1.498  13.443  0.1729 -0.2753  0.7560
18673TIP3    H177510   2.207   1.565  13.476 -0.9270 -0.2410 -1.2174
18673TIP3    H277511   2.343   1.548  13.411 -1.1932  0.2431 -1.9194
18674TIP3   OH277512   5.942   4.513  11.791  0.4045  0.6441 -0.7740
18674TIP3    H177513   5.947   4.502  11.885 -0.9710  1.8273 -0.5252
18674TIP3    H277514   5.938   4.424  11.756  0.9269  0.1985  0.2714
18675TIP3   OH277515   6.568   2.239  11.267 -0.3535  0.3633 -0.2467
18675TIP3    H177516   6.556   2.322  11.314  0.3640  0.3554 -0.0326
18675TIP3    H277517   6.479   2.207  11.251 -0.6275  0.9367  0.0929
18676TIP3   OH277518   5.939   5.333   0.187 -0.1281  0.1076 -0.7984
18676TIP3    H177519   5.851   5.349   0.152 -0.7207  1.6669  1.2021
18676TIP3    H277520   5.978   5.420   0.195  1.3661 -0.5063 -1.0116
18677TIP3   OH277521   1.194   3.798   5.609 -0.0514 -0.4173  0.0400
18677TIP3    H177522   1.275   3.769   5.650  0.6359  1.4404  0.0641
18677TIP3    H277523   1.126   3.744   5.650  0.8893 -0.2903  1.8504
18678TIP3   OH277524   1.152   2.604   4.485  0.0885  0.1549 -0.3126
18678TIP3    H177525   1.191   2.640   4.565  2.0514 -0.0275 -1.1316
18678TIP3    H277526   1.217   2.621   4.417 -0.4449 -1.8852 -1.3999
18679TIP3   OH277527   1.733   4.104  15.532  0.3689  0.0394 -0.0006
18679TIP3    H177528   1.708   4.080  15.442 -3.2394 -1.6198  1.2772
18679TIP3    H277529   1.779   4.026  15.564 -1.3032 -0.7674  0.5574
18680TIP3   OH277530   1.377   6.447   3.969  0.6011  0.0594  0.2311
18680TIP3    H177531   1.370   6.353   3.983 -0.7125  0.2956  1.4101
18680TIP3    H277532   1.318   6.485   4.035 -1.2293  1.5887 -2.1266
18681TIP3   OH277533   3.859   1.695  16.440  0.0629  0.6262 -0.1643
18681TIP3    H177534   3.929   1.753  16.468  1.7299 -0.9219 -0.8960
18681TIP3    H277535   3.802   1.750  16.387 -0.4387  2.4050  2.0694
18682TIP3   OH277536   2.211   4.636  16.616 -0.1781  0.7860  0.0176
18682TIP3    H177537   2.179   4.552  16.647 -2.0592  2.0026  1.6976
18682TIP3    H277538   2.205   4.631  16.520  0.5316 -1.2078  0.0347
18683TIP3   OH277539   4.919   0.083   3.627 -0.1292  0.7237 -0.7255
18683TIP3    H177540   4.906  -0.011   3.642  0.5270  1.0268  2.5428
18683TIP3    H277541   4.831   0.116   3.606 -0.7942 -0.3231  0.2702
18684TIP3   OH277542   5.462   3.550   2.384  0.0743 -0.0575 -0.7043
18684TIP3    H177543   5.523   3.495   2.432  0.2444 -0.2184 -1.1002
18684TIP3    H277544   5.479   3.531   2.292 -1.1846 -0.7711 -0.8139
18685TIP3   OH277545   5.489   6.199   1.182  0.1773  0.4712  0.0621
18685TIP3    H177546   5.471   6.257   1.257  1.3593 -2.0336  2.4489
18685TIP3    H277547   5.458   6.249   1.106 -2.9912  2.3790  2.3398
18686TIP3   OH277548   4.179   4.110  15.673 -0.4897  0.5857  0.3569
18686TIP3    H177549   4.233   4.046  15.628  0.1414  0.5763  1.1141
18686TIP3    H277550   4.102   4.121  15.616 -1.3197 -1.8807  0.8694
18687TIP3   OH277551   4.503   4.116   4.269  0.2027  0.1062  0.2593
18687TIP3    H177552   4.567   4.113   4.340  0.2044 -0.6983  0.2362
18687TIP3    H277553   4.477   4.208   4.263 -0.2021  0.0993  1.6610
18688TIP3   OH277554   3.351   2.316  12.445  0.3100  0.1019  0.2086
18688TIP3    H177555   3.329   2.396  12.397  0.2678 -1.3300 -2.3591
18688TIP3    H277556   3.271   2.293  12.492 -0.8090 -0.1895 -1.7443
18689TIP3   OH277557   6.805   3.409  15.828 -0.0033 -0.4202 -0.0812
18689TIP3    H177558   6.751   3.338  15.793  0.2438 -1.6415  1.8823
18689TIP3    H277559   6.870   3.366  15.883  0.1357  1.3204  1.2108
18690TIP3   OH277560   5.638   5.634  11.688 -0.0131 -0.3081 -0.6695
18690TIP3    H177561   5.601   5.558  11.732 -1.6708 -0.1009 -1.6464
18690TIP3    H277562   5.692   5.597  11.618  1.1373 -0.5949  0.3303
18691TIP3   OH277563   1.919   2.038   0.580 -0.3108  0.0116 -0.0637
18691TIP3    H177564   1.985   1.980   0.543 -0.6333 -0.6156  0.3420
18691TIP3    H277565   1.892   1.997   0.662 -1.0948  0.3289 -0.1453
18692TIP3   OH277566   5.202   4.221   6.511  0.0408 -0.0380 -0.4035
18692TIP3    H177567   5.176   4.301   6.464  0.9806  1.1636  1.0202
18692TIP3    H277568   5.200   4.152   6.445  2.8645  1.8210 -2.6571
18693TIP3   OH277569   1.630   0.970   1.845  0.1054  0.0805  0.4203
18693TIP3    H177570   1.705   0.952   1.789 -0.6097  0.1948 -0.5973
18693TIP3    H277571   1.667   0.980   1.933  1.3392  0.7110 -0.1543
18694TIP3   OH277572   2.835   6.159   4.766  0.3315  0.1063  0.3205
18694TIP3    H177573   2.844   6.075   4.722  0.0651  0.6403 -0.7941
18694TIP3    H277574   2.871   6.222   4.704  1.9893  0.6758  1.7642
18695TIP3   OH277575   1.350   4.096   1.879  0.0906 -0.0074  0.5352
18695TIP3    H177576   1.381   4.036   1.946  0.4632  0.6218  0.9389
18695TIP3    H277577   1.297   4.161   1.927  0.8179  0.7649  0.3162
18696TIP3   OH277578   2.999   3.628  15.974  0.8772  0.1657  0.1228
18696TIP3    H177579   3.041   3.563  15.917 -0.9867 -0.2847 -0.8249
18696TIP3    H277580   2.905   3.615  15.959  0.4204  1.9823  1.1799
18697TIP3   OH277581   1.103   2.571  17.084  0.5483  0.0548  0.4354
18697TIP3    H177582   1.152   2.492  17.106  0.1276 -0.1519  0.6484
18697TIP3    H277583   1.111   2.627  17.161  1.2554  0.4307  0.0968
18698TIP3   OH277584   2.854   3.678   0.024 -0.3334 -0.6603 -0.3601
18698TIP3    H177585   2.834   3.694   0.116  0.1141  0.4648 -0.4430
18698TIP3    H277586   2.768   3.669  -0.018 -0.5346 -2.1638  0.3072
18699TIP3   OH277587   4.726   6.552  16.318 -0.4042  0.3615  0.1739
18699TIP3    H177588   4.663   6.616  16.287 -0.2202 -0.0984 -1.2248
18699TIP3    H277589   4.778   6.599  16.383  1.4198  2.5418 -2.5831
18700TIP3   OH277590   6.649   0.669   1.108 -0.2055  0.2853  0.2564
18700TIP3    H177591   6.624   0.751   1.151 -2.5040 -1.4541  2.5053
18700TIP3    H277592   6.707   0.626   1.170  0.5183 -0.0849 -0.6538
18701TIP3   OH277593   0.486   5.854  16.599 -0.0660 -0.1758 -0.2131
18701TIP3    H177594   0.559   5.916  16.602 -0.4374  0.2590 -0.1936
18701TIP3    H277595   0.528   5.768  16.601  0.4093  0.0567  1.5612
18702TIP3   OH277596   3.167   3.687  10.684 -0.4780  0.1253 -0.4016
18702TIP3    H177597   3.094   3.729  10.639 -0.7467  0.0719 -0.0220
18702TIP3    H277598   3.213   3.759  10.727 -0.6457  0.0938 -0.1658
18703TIP3   OH277599   0.605   3.035   1.401 -0.3047  0.1439  0.6748
18703TIP3    H177600   0.630   2.944   1.417  2.2388  0.7116  0.4356
18703TIP3    H277601   0.669   3.066   1.336 -1.0722  2.1187  0.7877
18704TIP3   OH277602   1.757   6.343   1.706  0.3865  0.0621  0.2581
18704TIP3    H177603   1.844   6.381   1.720  0.3670  0.4365 -0.6244
18704TIP3    H277604   1.702   6.417   1.680  0.2738 -0.5011 -1.1614
18705TIP3   OH277605   6.001   4.935  12.818  0.3270 -0.7263 -0.0630
18705TIP3    H177606   5.981   4.986  12.740  1.8788  1.7454  1.0474
18705TIP3    H277607   5.924   4.880  12.831 -0.0342 -1.1726 -3.2124
18706TIP3   OH277608   2.210   2.244   1.653 -0.0696 -0.3306 -0.0510
18706TIP3    H177609   2.245   2.218   1.738 -1.0931  0.6911  0.7112
18706TIP3    H277610   2.115   2.243   1.664 -0.2064  0.4279 -0.9819
18707TIP3   OH277611   5.265   5.877  14.032  0.0959  0.8462  0.0441
18707TIP3    H177612   5.241   5.925  14.111  1.3804  0.5967  0.6079
18707TIP3    H277613   5.193   5.893  13.971 -0.0867  2.4612  0.6518
18708TIP3   OH277614   4.763   5.513   4.272  0.0007  0.2596  0.9539
18708TIP3    H177615   4.739   5.468   4.353 -0.2444 -1.5187 -0.0513
18708TIP3    H277616   4.708   5.473   4.205  2.0149 -0.1846 -0.5322
18709TIP3   OH277617   4.873   3.808  11.458 -0.0354  0.5712 -0.0311
18709TIP3    H177618   4.911   3.896  11.459 -0.1255  0.7263 -2.4697
18709TIP3    H277619   4.948   3.749  11.455  0.0609  0.7342 -1.4702
18710TIP3   OH277620   5.408   0.671  16.463  0.4632 -0.2188 -0.2871
18710TIP3    H177621   5.455   0.661  16.380 -0.0443  0.5005 -0.6715
18710TIP3    H277622   5.460   0.620  16.525  0.5627 -1.2127 -1.1445
18711TIP3   OH277623   3.139   3.753   3.360 -0.3229  0.0053 -0.3433
18711TIP3    H177624   3.232   3.749   3.382 -0.4862  0.6948  0.5163
18711TIP3    H277625   3.098   3.796   3.435 -1.2376  0.3444 -1.0222
18712TIP3   OH277626   5.416   2.179   4.315 -0.0437  0.3291 -0.2204
18712TIP3    H177627   5.475   2.175   4.241  0.9509 -0.4326  0.5785
18712TIP3    H277628   5.397   2.272   4.327 -0.0227  0.4788 -1.2522
18713TIP3   OH277629   0.956   5.492  13.172 -0.2514 -0.1519  0.2309
18713TIP3    H177630   1.002   5.411  13.196  0.9363  0.0547 -1.2198
18713TIP3    H277631   0.961   5.547  13.251  0.0620 -0.9842  0.8034
18714TIP3   OH277632   2.191   3.460  14.747 -0.1635  0.0186 -0.1929
18714TIP3    H177633   2.196   3.420  14.834  1.2515 -0.3240 -0.4101
18714TIP3    H277634   2.147   3.393  14.693  0.7817 -0.6203 -0.1936
18715TIP3   OH277635   0.585   1.493   1.137  0.1153  0.7977  0.0864
18715TIP3    H177636   0.586   1.577   1.092  0.2752  1.3968  1.1693
18715TIP3    H277637   0.498   1.487   1.176 -0.1087  0.1734 -0.4753
18716TIP3   OH277638   1.484   0.695  12.694 -0.6683 -0.0441 -0.5929
18716TIP3    H177639   1.474   0.628  12.627  1.1283 -0.9759 -0.0085
18716TIP3    H277640   1.470   0.648  12.777 -0.3168  0.5107 -0.2090
18717TIP3   OH277641   0.768   5.640  12.496 -0.6967  0.3926 -0.3915
18717TIP3    H177642   0.763   5.725  12.452  0.6829 -0.7806 -3.0373
18717TIP3    H277643   0.769   5.576  12.425  0.5848 -1.7357  1.4218
18718TIP3   OH277644   6.469   0.692   5.911 -0.2782 -0.3328  0.4398
18718TIP3    H177645   6.491   0.754   5.980 -0.7953  0.4507 -0.0917
18718TIP3    H277646   6.470   0.607   5.954  0.5494  0.0197  1.1486
18719TIP3   OH277647   4.768   3.510   6.574  0.1286 -0.1823 -0.2055
18719TIP3    H177648   4.780   3.490   6.482 -1.4492 -0.5987 -0.3314
18719TIP3    H277649   4.677   3.539   6.582  0.5907  1.0958  1.0116
18720TIP3   OH277650   1.537   0.338   3.316 -0.3132  0.1785  0.2421
18720TIP3    H177651   1.533   0.433   3.304 -0.3791 -0.0478 -1.9360
18720TIP3    H277652   1.605   0.325   3.382  0.4839  1.6953 -0.2333
18721TIP3   OH277653   5.918   5.969   5.762 -0.0637  0.2412 -0.2822
18721TIP3    H177654   6.013   5.976   5.774 -0.1176  0.6043 -0.0484
18721TIP3    H277655   5.893   6.052   5.721 -0.0792 -0.4393 -1.7045
18722TIP3   OH277656   1.938   6.402   5.952  0.1791 -0.3133  0.3486
18722TIP3    H177657   1.873   6.472   5.964  0.3620 -0.4645  2.5476
18722TIP3    H277658   1.994   6.434   5.881 -0.9203  0.8680 -0.0306
18723TIP3   OH277659   6.531   6.280   4.085  0.4248  0.0816 -0.3015
18723TIP3    H177660   6.454   6.336   4.075  0.0514 -0.5585 -1.2163
18723TIP3    H277661   6.594   6.334   4.131 -1.1438  0.0648  2.0492
18724TIP3   OH277662   0.058   2.636  16.459  0.1409 -0.2378 -0.3103
18724TIP3    H177663   0.082   2.558  16.509 -1.5220 -0.5530  0.0447
18724TIP3    H277664   0.120   2.703  16.488  3.9205 -2.1229 -3.0307
18725TIP3   OH277665   2.639   4.751   2.448 -0.0863  0.2568 -0.0279
18725TIP3    H177666   2.644   4.707   2.533 -0.8914 -0.4484 -0.3280
18725TIP3    H277667   2.545   4.755   2.429 -0.2202  3.5640  0.7089
18726TIP3   OH277668   6.153   1.001  13.118 -0.8179  0.2628  0.2390
18726TIP3    H177669   6.167   0.946  13.041  2.1210 -0.3392  1.0999
18726TIP3    H277670   6.080   0.959  13.164 -1.4330 -0.4074 -1.2669
18727TIP3   OH277671   4.312   1.520   6.541 -0.2182 -0.7937 -0.1986
18727TIP3    H177672   4.309   1.425   6.548  0.2166 -0.8591 -0.7574
18727TIP3    H277673   4.390   1.545   6.591  0.4103 -0.8634 -1.1090
18728TIP3   OH277674   5.920   1.110   5.013 -0.6927 -0.0166 -0.9875
18728TIP3    H177675   5.919   1.199   5.048 -2.0228  0.2393 -1.6107
18728TIP3    H277676   5.837   1.102   4.966 -1.9918 -2.5635  1.4647
18729TIP3   OH277677   5.432   2.622  11.008  0.7135 -0.2289 -0.3105
18729TIP3    H177678   5.344   2.592  10.986  1.3574 -1.7004 -1.0312
18729TIP3    H277679   5.434   2.624  11.104  0.2287 -1.2569 -0.2677
18730TIP3   OH277680   1.076   3.810   6.546  0.4704 -0.0173  0.0177
18730TIP3    H177681   1.076   3.754   6.623 -2.6303  0.1588  0.2982
18730TIP3    H277682   1.013   3.768   6.486 -0.4785  2.0887 -0.5608
18731TIP3   OH277683   0.772   2.543   6.284  0.2075 -0.7798  0.1687
18731TIP3    H177684   0.744   2.634   6.271  0.7348 -0.7020 -0.4544
18731TIP3    H277685   0.725   2.494   6.216  2.1064 -0.5381 -1.3985
18732TIP3   OH277686   5.820   5.097  15.899  0.1795 -0.0068  0.4417
18732TIP3    H177687   5.843   5.045  15.976 -0.1775 -4.4204 -2.0771
18732TIP3    H277688   5.726   5.113  15.909 -0.4776 -2.8721 -0.0904
18733TIP3   OH277689   2.128   2.536  14.469  0.1634 -0.2629  0.1238
18733TIP3    H177690   2.201   2.490  14.509 -0.2912 -0.6614  0.5085
18733TIP3    H277691   2.055   2.474  14.473 -0.0830 -0.0315 -0.6470
18734TIP3   OH277692   6.430   1.537  16.563 -0.0400 -0.2344  0.0058
18734TIP3    H177693   6.353   1.583  16.529 -0.4661 -0.4620  0.6399
18734TIP3    H277694   6.481   1.515  16.485  0.9129  2.5294 -0.2550
18735TIP3   OH277695   3.640   1.833  15.245 -0.0748  0.2651  0.2638
18735TIP3    H177696   3.626   1.793  15.159  1.4522  0.1153  0.0546
18735TIP3    H277697   3.555   1.829  15.287 -0.6435 -0.4954 -0.8954
18736TIP3   OH277698   2.239   5.771   5.050 -0.2182  0.1891  0.0385
18736TIP3    H177699   2.231   5.755   5.144  1.5678  3.2196  0.8237
18736TIP3    H277700   2.247   5.683   5.012 -2.2418 -1.2102  2.4947
18737TIP3   OH277701   3.771   2.776  16.022  0.4832  0.0679  0.0148
18737TIP3    H177702   3.751   2.853  16.074 -3.8124  0.1456 -1.2913
18737TIP3    H277703   3.779   2.809  15.932 -0.5311 -0.8454 -0.4414
18738TIP3   OH277704   1.672   0.631  13.260  0.3060  0.2236 -0.0544
18738TIP3    H177705   1.706   0.604  13.174  0.2509 -0.9145  0.2784
18738TIP3    H277706   1.581   0.654  13.244 -0.0640 -1.2161 -0.0681
18739TIP3   OH277707   6.520   5.445   3.164  0.4462  0.5498 -0.4077
18739TIP3    H177708   6.601   5.424   3.117  1.0068 -0.7441  1.0545
18739TIP3    H277709   6.457   5.467   3.095  1.9845  1.4938 -1.5893
18740TIP3   OH277710   1.200   0.535  12.329  0.3293  0.1980  0.5165
18740TIP3    H177711   1.152   0.491  12.259  0.7921 -0.6458  0.7125
18740TIP3    H277712   1.154   0.618  12.342 -1.0689 -0.5750  0.6971
18741TIP3   OH277713   1.972   0.101   3.201 -0.4627 -0.1262 -0.1511
18741TIP3    H177714   2.012   0.056   3.127 -0.6088 -0.2386 -0.1612
18741TIP3    H277715   1.880   0.112   3.177 -0.6777 -0.8225  0.3255
18742TIP3   OH277716   5.104   2.397  16.754 -0.1708  0.2011  0.5055
18742TIP3    H177717   5.147   2.317  16.785  1.2843  0.5415 -0.5142
18742TIP3    H277718   5.159   2.468  16.786  0.6166  0.6194 -1.6022
18743TIP3   OH277719   4.811   1.809  15.444  0.0989 -0.4964  0.0305
18743TIP3    H177720   4.773   1.856  15.369  2.4618 -0.3144 -1.1700
18743TIP3    H277721   4.737   1.768  15.488 -1.5516  0.7508 -1.4685
18744TIP3   OH277722   4.963   3.540   0.735 -0.4058  0.0175  0.1531
18744TIP3    H177723   4.903   3.570   0.803 -2.6175  1.8867 -2.4159
18744TIP3    H277724   4.941   3.447   0.723  1.8771 -1.1719  3.6006
18745TIP3   OH277725   4.887   1.705  13.392 -0.6416 -0.3487 -0.2069
18745TIP3    H177726   4.903   1.649  13.468 -0.3641  0.6707  0.5110
18745TIP3    H277727   4.892   1.794  13.427 -1.3764  0.1224 -1.2629
18746TIP3   OH277728   2.715   1.562  15.569  0.3816  0.1986  0.0666
18746TIP3    H177729   2.747   1.492  15.625  1.5198  1.8809  1.6475
18746TIP3    H277730   2.662   1.617  15.626 -2.0361 -0.2929 -1.5734
18747TIP3   OH277731   4.672   6.207   3.656 -0.9329  0.2318  0.6657
18747TIP3    H177732   4.611   6.271   3.620 -0.9071  0.6359  1.3188
18747TIP3    H277733   4.718   6.254   3.726 -0.2746 -0.2351  0.5557
18748TIP3   OH277734   5.322   5.880   1.556 -0.0036 -0.2952  0.2251
18748TIP3    H177735   5.315   5.813   1.625  0.5960 -0.8737 -0.2604
18748TIP3    H277736   5.320   5.831   1.474  1.1155  0.2146 -0.1266
18749TIP3   OH277737   4.498   5.981  10.756  0.1169  0.3924  0.4942
18749TIP3    H177738   4.529   6.024  10.676  0.2567  0.4565  0.5831
18749TIP3    H277739   4.553   5.903  10.764 -2.7911 -2.1752 -1.9603
18750TIP3   OH277740   4.858   4.355   0.181 -0.4811  0.6813  0.1734
18750TIP3    H177741   4.841   4.296   0.108 -0.0282  1.7390 -0.8133
18750TIP3    H277742   4.772   4.375   0.217 -0.6354 -0.7061  0.6623
18751TIP3   OH277743   3.141   2.474   5.560  0.1538  0.0374  0.2971
18751TIP3    H177744   3.086   2.455   5.484 -0.8132  0.6503  0.8295
18751TIP3    H277745   3.217   2.519   5.523  0.8020 -1.6580 -0.5574
18752TIP3   OH277746   1.840   0.191   2.114 -0.4877 -0.7701 -0.2616
18752TIP3    H177747   1.931   0.200   2.141 -0.5418  1.3395 -0.6627
18752TIP3    H277748   1.800   0.135   2.181  0.4251  0.6755  1.5725
18753TIP3   OH277749   3.733   0.414   6.577  0.8716  0.3660 -0.0624
18753TIP3    H177750   3.717   0.500   6.539 -0.0945 -0.4521 -1.6053
18753TIP3    H277751   3.646   0.376   6.586  1.1037  0.2470  2.4334
18754TIP3   OH277752   3.333   5.321   4.282 -0.0015  0.4412  0.4252
18754TIP3    H177753   3.421   5.354   4.296 -0.6700  1.7954  1.7907
18754TIP3    H277754   3.304   5.292   4.369 -1.1382  0.6897  0.1554
18755TIP3   OH277755   4.140   2.658  14.663 -0.0740 -0.2149 -0.1923
18755TIP3    H177756   4.156   2.643  14.570  0.8340  1.8171 -0.4276
18755TIP3    H277757   4.090   2.740  14.665  2.8315  1.6887  1.1635
18756TIP3   OH277758   4.208   0.999   4.055  0.4081 -0.5862  0.3958
18756TIP3    H177759   4.208   0.906   4.032 -0.1183 -0.9420  1.7273
18756TIP3    H277760   4.255   1.002   4.139 -1.5324  0.0193  1.5137
18757TIP3   OH277761   5.497   4.381   3.594  0.4813 -0.0020  0.1916
18757TIP3    H177762   5.426   4.436   3.561 -0.3014 -0.9580  0.2433
18757TIP3    H277763   5.541   4.435   3.660 -1.5217 -0.0962  1.7098
18758TIP3   OH277764   2.145   6.703  16.585 -0.1947  0.2023 -0.1132
18758TIP3    H177765   2.193   6.649  16.522 -2.5167 -0.5067 -1.4030
18758TIP3    H277766   2.056   6.706  16.551 -1.0644  1.5833  2.0562
18759TIP3   OH277767   4.355   4.131  16.053  0.5315  0.0079 -0.1752
18759TIP3    H177768   4.384   4.170  16.136 -1.5327  2.7164 -0.5704
18759TIP3    H277769   4.363   4.201  15.989 -1.5325 -0.7848 -1.4167
18760TIP3   OH277770   3.879   5.379  12.494  0.5808 -0.5741 -0.3113
18760TIP3    H177771   3.949   5.431  12.533  1.7150 -1.8934 -0.5108
18760TIP3    H277772   3.815   5.444  12.464  0.1563  0.5649  2.6648
18761TIP3   OH277773   6.649   1.150   4.937 -0.0421 -0.4885  0.2452
18761TIP3    H177774   6.692   1.233   4.955  0.6536 -0.5913 -0.8765
18761TIP3    H277775   6.612   1.159   4.849 -1.8952 -0.5999  0.9584
18762TIP3   OH277776   0.773   1.898   1.959 -0.6885 -0.2967  0.0869
18762TIP3    H177777   0.721   1.933   1.888 -0.0827 -1.0647 -0.7574
18762TIP3    H277778   0.808   1.816   1.925 -0.2566 -0.5998  1.2129
18763TIP3   OH277779   5.365   4.030  13.919  0.2084 -0.7987  0.0459
18763TIP3    H177780   5.389   3.978  13.996  1.7402 -1.8325 -1.0629
18763TIP3    H277781   5.356   3.965  13.849  2.5826  0.3925 -1.4893
18764TIP3   OH277782   3.478   3.003   1.320 -0.1935  0.3608 -0.0480
18764TIP3    H177783   3.419   2.931   1.298 -2.2173  2.1559 -0.8540
18764TIP3    H277784   3.565   2.969   1.302 -1.2058 -1.1653 -2.6626
18765TIP3   OH277785   4.060   4.653   4.906 -0.0559  0.2332  0.3084
18765TIP3    H177786   3.982   4.700   4.934 -0.7436 -0.5088 -0.3412
18765TIP3    H277787   4.051   4.566   4.944  1.2573  0.6046  1.5820
18766TIP3   OH277788   6.575   2.312  15.293 -0.4975 -0.6605 -0.3390
18766TIP3    H177789   6.492   2.268  15.312 -0.5897 -0.1667  0.4478
18766TIP3    H277790   6.559   2.360  15.212 -1.5721  0.8866  0.7375
18767TIP3   OH277791   6.332   1.299   1.679 -0.0870  0.0689 -0.0653
18767TIP3    H177792   6.383   1.346   1.745  0.3072  0.3485 -0.5578
18767TIP3    H277793   6.359   1.208   1.687  1.1687  0.3354 -0.9020
18768TIP3   OH277794   0.492   5.694   1.058 -0.3319 -0.3339  0.4648
18768TIP3    H177795   0.573   5.742   1.047 -0.6384 -0.0324 -0.5299
18768TIP3    H277796   0.511   5.606   1.026 -0.6050 -0.0501 -0.5144
18769TIP3   OH277797   2.307   3.080  12.190  0.2540  0.8023  0.6850
18769TIP3    H177798   2.354   3.017  12.245 -0.1717  0.4373  0.6393
18769TIP3    H277799   2.374   3.142  12.162  0.7771  0.1189  0.3717
18770TIP3   OH277800   3.356   1.176   3.737 -0.2143  0.7362  0.5265
18770TIP3    H177801   3.396   1.229   3.806  0.5415 -1.7490  2.1161
18770TIP3    H277802   3.296   1.117   3.783  2.8793 -3.4946 -0.2053
18771TIP3   OH277803   3.678   5.556   0.186  0.2717 -0.2432  0.1981
18771TIP3    H177804   3.713   5.582   0.272  0.9058 -1.8443  0.4705
18771TIP3    H277805   3.745   5.497   0.151 -1.2684 -1.8810 -0.1215
18772TIP3   OH277806   0.651   1.159  11.740 -0.1492  0.1199 -0.5684
18772TIP3    H177807   0.669   1.072  11.777  0.8583  0.2057 -0.8315
18772TIP3    H277808   0.656   1.218  11.815 -0.4966  0.0012 -0.4470
18773TIP3   OH277809   0.146   6.126   0.934 -0.2361 -0.7708  0.0539
18773TIP3    H177810   0.216   6.079   0.979 -0.0261  1.5014  2.3088
18773TIP3    H277811   0.067   6.105   0.983 -0.7444 -1.4355 -1.0221
18774TIP3   OH277812   4.627   0.108  11.898 -0.0424  0.0968 -0.0487
18774TIP3    H177813   4.668   0.176  11.950 -1.7315  0.9046  0.3163
18774TIP3    H277814   4.608   0.038  11.960  2.5495 -1.1975 -0.5949
18775TIP3   OH277815   2.846   6.192  10.235  0.2120  0.6754 -0.6593
18775TIP3    H177816   2.833   6.264  10.297  1.4186  0.2845  0.0730
18775TIP3    H277817   2.816   6.114  10.281 -1.1920  0.6754 -1.4896
18776TIP3   OH277818   5.895   4.414  14.951 -0.4076 -0.9205  0.2695
18776TIP3    H177819   5.944   4.367  14.884 -0.3872  0.9381 -1.1186
18776TIP3    H277820   5.830   4.465  14.903 -2.0103 -1.3357  1.8791
18777TIP3   OH277821   1.649   3.218  13.080 -0.5920  0.2185  0.2260
18777TIP3    H177822   1.691   3.246  12.998  0.3134  2.6212  1.4297
18777TIP3    H277823   1.720   3.184  13.133 -1.3079 -2.1707 -0.2158
18778TIP3   OH277824   3.459   0.344  13.316  0.0891  0.3955 -0.1231
18778TIP3    H177825   3.474   0.430  13.276  0.4263  1.1158  1.4379
18778TIP3    H277826   3.437   0.364  13.407 -1.0872 -1.1355 -0.0334
18779TIP3   OH277827   5.012   0.815  13.260  0.0773  0.4534  0.2880
18779TIP3    H177828   4.994   0.723  13.281 -0.1615  0.1142 -1.2784
18779TIP3    H277829   5.107   0.823  13.268  0.3245 -0.4386 -1.3076
18780TIP3   OH277830   2.240   5.887  15.565  0.1038  0.2549  0.0448
18780TIP3    H177831   2.169   5.935  15.608  0.2762  1.4054 -0.9095
18780TIP3    H277832   2.237   5.916  15.474  2.6700  1.3894  0.2469
18781TIP3   OH277833   2.186   5.766   2.342 -0.4231  0.0768 -0.0074
18781TIP3    H177834   2.144   5.759   2.428  0.7461  0.4882  0.6257
18781TIP3    H277835   2.149   5.845   2.303 -1.1196 -0.2306  0.0265
18782TIP3   OH277836   0.033   4.324  16.746 -0.0428  0.2473 -0.2366
18782TIP3    H177837   0.063   4.242  16.785 -0.7693  0.1082  0.0468
18782TIP3    H277838   0.103   4.386  16.765  1.0261 -0.5543 -1.4129
18783TIP3   OH277839   3.027   5.269   3.629  0.3736 -0.1100  0.3386
18783TIP3    H177840   2.984   5.190   3.597 -0.9380  0.8900 -0.5154
18783TIP3    H277841   2.999   5.276   3.721  0.7250 -0.7738  0.5008
18784TIP3   OH277842   5.710   1.498   6.154 -0.1506  0.6974  0.2244
18784TIP3    H177843   5.730   1.514   6.246  0.9592 -0.2097  0.1601
18784TIP3    H277844   5.706   1.585   6.115  1.8705  1.0108  0.6319
18785TIP3   OH277845   6.493   4.799   0.886  0.0830  0.3139  0.3990
18785TIP3    H177846   6.542   4.881   0.884 -0.9764  0.9754  0.9260
18785TIP3    H277847   6.402   4.824   0.869  0.0870 -1.0705 -2.1575
18786TIP3   OH277848   2.455   3.766   1.958 -0.0018 -0.1178  0.1375
18786TIP3    H177849   2.400   3.693   1.931 -0.8670  0.5219  0.1507
18786TIP3    H277850   2.401   3.815   2.020 -0.2505  1.7045 -1.4366
18787TIP3   OH277851   5.779   3.771   5.791 -0.1705  0.4167 -0.0936
18787TIP3    H177852   5.816   3.798   5.875  1.9582 -0.5095 -0.6652
18787TIP3    H277853   5.767   3.677   5.799  0.1395  0.3081 -0.8580
18788TIP3   OH277854   5.595   2.447  16.092 -0.1885 -0.5512 -0.3471
18788TIP3    H177855   5.630   2.366  16.130 -0.6899 -0.9535 -0.7398
18788TIP3    H277856   5.639   2.517  16.141 -0.4455 -1.0562  0.6233
18789TIP3   OH277857   3.961   6.480   4.309  0.1875 -0.1223 -0.0692
18789TIP3    H177858   4.047   6.523   4.311  1.1113 -1.8915  2.1428
18789TIP3    H277859   3.981   6.387   4.295 -1.2677 -0.7108  1.4960
18790TIP3   OH277860   4.842   2.528   4.084  0.3011  0.0545 -0.7840
18790TIP3    H177861   4.936   2.513   4.089  0.5622  1.4083 -1.1142
18790TIP3    H277862   4.834   2.623   4.074 -1.0837 -0.0907 -1.2161
18791TIP3   OH277863   5.042   0.413   2.322  0.1024 -0.2758  0.1387
18791TIP3    H177864   4.997   0.363   2.390  0.2779  0.6283  0.9598
18791TIP3    H277865   4.985   0.409   2.246 -0.8310 -0.0578  0.8176
18792TIP3   OH277866   0.069   4.351   3.606  0.3055  0.7394  0.3049
18792TIP3    H177867   0.127   4.279   3.632 -0.0305  0.5920  0.6580
18792TIP3    H277868   0.022   4.317   3.529 -1.0496 -0.0711  1.4245
18793TIP3   OH277869   0.059   2.661  13.843 -0.2672  0.0642  0.1524
18793TIP3    H177870   0.120   2.733  13.859 -1.3344  1.1485 -0.5209
18793TIP3    H277871   0.090   2.621  13.762 -0.4854  0.6739 -0.2414
18794TIP3   OH277872   5.880   4.964   1.195  0.1759  0.5010 -0.3121
18794TIP3    H177873   5.799   4.915   1.177  2.3277 -3.0796 -1.2536
18794TIP3    H277874   5.935   4.947   1.119  2.5969  1.0149  1.2424
18795TIP3   OH277875   2.208   4.879   4.964  0.2363 -0.5880  0.0167
18795TIP3    H177876   2.284   4.912   4.917  0.4498  0.0267  0.7783
18795TIP3    H277877   2.163   4.822   4.901  0.4220  0.3394 -0.9750
18796TIP3   OH277878   6.199   1.757  14.163 -0.0260 -1.0489  0.1428
18796TIP3    H177879   6.291   1.781  14.163 -0.3330  0.2995 -1.4782
18796TIP3    H277880   6.164   1.795  14.244  0.4963 -0.0959 -0.0681
18797TIP3   OH277881   4.450   3.107   4.275 -0.4337 -0.4119  0.4580
18797TIP3    H177882   4.488   3.178   4.326  1.4874 -1.7816  1.0293
18797TIP3    H277883   4.463   3.133   4.183  0.1440  0.0158  0.6592
18798TIP3   OH277884   1.195   5.995   0.462  0.0048  0.3600  0.5413
18798TIP3    H177885   1.240   6.064   0.413  1.2432 -0.6957  0.1563
18798TIP3    H277886   1.225   6.007   0.552  0.4418  0.1672  0.4263
18799TIP3   OH277887   4.977   3.022   1.260  0.0354  0.1599 -1.0202
18799TIP3    H177888   5.068   3.024   1.231  0.1896  2.6254 -0.6234
18799TIP3    H277889   4.947   3.112   1.250 -2.6471 -0.7354 -1.9152
18800TIP3   OH277890   6.285   2.381  15.814  0.0765 -0.2712  0.1058
18800TIP3    H177891   6.306   2.472  15.834 -0.0061 -0.6507  2.1120
18800TIP3    H277892   6.211   2.361  15.871 -1.0700 -1.1001 -1.6060
18801TIP3   OH277893   2.484   0.489   1.318 -0.4873  0.0517  0.3824
18801TIP3    H177894   2.455   0.402   1.346 -2.2359  0.7073  0.7152
18801TIP3    H277895   2.501   0.479   1.224 -1.0608 -0.5667  0.3373
18802TIP3   OH277896   5.332   4.368   3.943  0.1282 -0.3414  0.2096
18802TIP3    H177897   5.364   4.292   3.894 -0.7643  0.6060 -1.9604
18802TIP3    H277898   5.399   4.383   4.010 -0.3779 -3.8982  1.7153
18803TIP3   OH277899   1.902   0.836  15.865  0.1800  0.1166 -0.4933
18803TIP3    H177900   1.831   0.865  15.808 -0.7613 -1.5551 -0.2494
18803TIP3    H277901   1.890   0.741  15.872  0.1671  0.2259  2.5317
18804TIP3   OH277902   6.202   6.238  10.821 -0.5840 -0.0213 -0.4966
18804TIP3    H177903   6.114   6.221  10.854 -0.1963  0.4502  0.8258
18804TIP3    H277904   6.222   6.163  10.766 -1.4635 -0.5694 -0.0842
18805TIP3   OH277905   4.403   2.891   3.207  0.2630 -0.0963  0.5985
18805TIP3    H177906   4.426   2.799   3.221  3.3828  0.6696  1.2289
18805TIP3    H277907   4.469   2.941   3.254 -1.3154  2.5350  0.2900
18806TIP3   OH277908   5.524   1.702   4.848 -0.0074  0.0014 -0.2417
18806TIP3    H177909   5.551   1.729   4.760 -3.0204  0.5746 -1.1149
18806TIP3    H277910   5.450   1.760   4.869 -0.1795 -0.9695  2.1478
18807TIP3   OH277911   3.651   1.423   2.876  0.1845 -0.2825  0.2688
18807TIP3    H177912   3.694   1.365   2.939 -0.2807  0.0066  0.8651
18807TIP3    H277913   3.565   1.385   2.862  0.3577 -0.4534 -0.3521
18808TIP3   OH277914   0.872   6.772   4.383  0.0478 -0.2292  0.0625
18808TIP3    H177915   0.890   6.681   4.361 -1.9142 -0.5849 -0.2377
18808TIP3    H277916   0.932   6.823   4.328  0.6431 -1.2985 -0.2980
18809TIP3   OH277917   5.921   4.018   0.952  0.7208 -0.1032  0.8861
18809TIP3    H177918   5.882   3.955   1.013  0.2567 -0.7237 -0.0349
18809TIP3    H277919   5.965   3.964   0.887  1.0063  0.5491  0.5296
18810TIP3   OH277920   4.001   0.671  11.619 -0.3627 -0.5140  0.2917
18810TIP3    H177921   3.980   0.702  11.530  0.3575  0.4425  0.4373
18810TIP3    H277922   4.042   0.586  11.606 -0.6522 -0.5733 -0.2687
18811TIP3   OH277923   3.566   5.419  17.096  0.3543 -0.3343  0.0234
18811TIP3    H177924   3.614   5.357  17.040 -0.4936 -1.3364  0.3590
18811TIP3    H277925   3.631   5.447  17.161  0.7847 -0.8214 -0.1828
18812TIP3   OH277926   5.995   2.499   2.775  0.5853 -0.0559  0.1868
18812TIP3    H177927   5.926   2.556   2.808  0.3614 -0.8607  1.1504
18812TIP3    H277928   6.071   2.518   2.831  1.1138  0.7103 -0.7633
18813TIP3   OH277929   5.316   6.385  11.992 -0.2193  0.0730 -0.3334
18813TIP3    H177930   5.237   6.419  11.950 -0.3782 -0.3719 -0.4032
18813TIP3    H277931   5.388   6.411  11.935 -0.0599  2.3582  0.8145
18814TIP3   OH277932   5.184   0.687   1.392  0.5845 -0.2713 -0.3631
18814TIP3    H177933   5.154   0.634   1.466 -0.6582 -0.0508 -0.6828
18814TIP3    H277934   5.169   0.631   1.315 -0.3741  0.3753 -0.6653
18815TIP3   OH277935   0.172   0.383  12.368  0.2256 -0.3732 -0.7107
18815TIP3    H177936   0.099   0.440  12.344  0.5064  0.2726 -0.0715
18815TIP3    H277937   0.229   0.439  12.421  0.4407 -1.2923  0.0487
18816TIP3   OH277938   5.316   3.405  14.070 -0.7158 -0.4883  0.3992
18816TIP3    H177939   5.280   3.493  14.085  0.9558  0.3019  0.0805
18816TIP3    H277940   5.311   3.393  13.975  0.6660  0.0589  0.2195
18817TIP3   OH277941   2.746   2.662   3.279 -0.3090  0.1536 -0.5532
18817TIP3    H177942   2.700   2.664   3.363  0.5940 -0.9138 -0.0128
18817TIP3    H277943   2.826   2.712   3.294  0.1552 -0.5685 -0.5824
18818TIP3   OH277944   5.749   4.711   1.444 -0.3314 -0.0266 -0.4472
18818TIP3    H177945   5.785   4.623   1.445 -1.1145 -0.3550  0.6436
18818TIP3    H277946   5.670   4.704   1.391  1.2332  0.7581 -3.1001
18819TIP3   OH277947   2.674   4.886   0.331  0.1061  0.3569 -0.2516
18819TIP3    H177948   2.742   4.856   0.392 -0.4901  1.0577  0.7976
18819TIP3    H277949   2.604   4.822   0.340  0.0910  0.3615 -0.3398
18820TIP3   OH277950   2.631   0.576  11.944  0.3143 -0.4976 -0.2951
18820TIP3    H177951   2.551   0.572  11.892  0.4707 -2.5948 -0.4367
18820TIP3    H277952   2.701   0.586  11.880  0.3826 -1.5896 -0.4084
18821TIP3   OH277953   6.643   5.193   5.447 -0.0781  0.1985  0.0082
18821TIP3    H177954   6.553   5.221   5.463  0.5751  1.4219  1.8318
18821TIP3    H277955   6.691   5.274   5.433  0.6825 -0.4742 -1.4961
18822TIP3   OH277956   5.629   4.302  13.646  0.1064 -0.3200  0.7395
18822TIP3    H177957   5.649   4.387  13.685  0.7924  0.6964 -1.6374
18822TIP3    H277958   5.707   4.281  13.595 -0.9315 -1.3014 -0.4889
18823TIP3   OH277959   4.523   6.575  15.737 -0.0590 -0.1944 -0.3105
18823TIP3    H177960   4.500   6.663  15.706 -0.0883 -0.7677 -1.9592
18823TIP3    H277961   4.506   6.518  15.663 -0.9478 -1.7475  1.0272
18824TIP3   OH277962   3.486   1.992   4.849  0.1160 -0.2992  0.3783
18824TIP3    H177963   3.430   1.928   4.893 -0.2816 -1.1469 -1.2876
18824TIP3    H277964   3.519   1.946   4.771  0.8500  1.1059 -0.1738
18825TIP3   OH277965   0.754   3.420  10.755 -0.1640 -0.0060  0.3134
18825TIP3    H177966   0.808   3.491  10.791  0.0888  0.0766 -0.2212
18825TIP3    H277967   0.810   3.342  10.762 -0.4661 -0.1758  0.9616
18826TIP3   OH277968   6.598   5.595   3.364 -0.5863 -0.2006  0.1201
18826TIP3    H177969   6.545   5.534   3.313 -0.5316  0.2323 -0.4531
18826TIP3    H277970   6.643   5.649   3.300 -1.5287  1.2286  0.6123
18827TIP3   OH277971   2.325   3.194  13.456 -0.3189  0.1261  0.3966
18827TIP3    H177972   2.281   3.272  13.422  0.0561 -0.0859 -0.6145
18827TIP3    H277973   2.280   3.175  13.538 -3.5426 -1.2645 -1.5164
18828TIP3   OH277974   5.958   0.276  13.974  0.0783 -0.0340 -0.0644
18828TIP3    H177975   5.865   0.255  13.976 -0.4924  2.3161  2.2006
18828TIP3    H277976   6.001   0.200  14.013 -0.8808 -0.9711 -0.7751
18829TIP3   OH277977   3.664   4.970  10.774  0.8689 -0.3791 -0.5230
18829TIP3    H177978   3.593   4.978  10.837  0.6257 -0.5941 -0.7653
18829TIP3    H277979   3.704   5.057  10.772 -0.3271  0.1785 -1.4659
18830TIP3   OH277980   6.380   5.884  13.694 -0.3609 -0.0598 -0.4824
18830TIP3    H177981   6.422   5.961  13.732 -0.2013 -0.6746  0.6430
18830TIP3    H277982   6.287   5.907  13.689 -0.1894  0.5327 -1.0033
18831TIP3   OH277983   1.654   4.952  13.200 -0.2359 -0.0227 -0.4214
18831TIP3    H177984   1.647   5.045  13.177  0.9513  0.1274 -0.2494
18831TIP3    H277985   1.642   4.906  13.117  0.2771  0.3342 -0.6953
18832TIP3   OH277986   2.350   3.490   2.834 -0.0652 -0.0367  0.4982
18832TIP3    H177987   2.369   3.455   2.922  0.8627  0.7139  0.6136
18832TIP3    H277988   2.418   3.556   2.820 -0.6691  0.3868 -0.4815
18833TIP3   OH277989   4.446   5.618  13.007  0.3939 -0.2200  0.1215
18833TIP3    H177990   4.408   5.627  12.919  0.9991 -0.2113 -0.1472
18833TIP3    H277991   4.399   5.546  13.047  0.1155 -0.2261 -0.2170
18834TIP3   OH277992   1.219   0.193  12.899  0.4292 -0.3961  0.0572
18834TIP3    H177993   1.144   0.245  12.928 -0.1174 -1.1560  0.0503
18834TIP3    H277994   1.262   0.247  12.832  0.9972  0.8533  1.3820
18835TIP3   OH277995   2.115   5.616  14.467  0.1597  0.2332 -0.2647
18835TIP3    H177996   2.028   5.649  14.444 -0.3179  0.7620  2.0362
18835TIP3    H277997   2.160   5.692  14.503  2.1392  0.3072 -2.6051
18836TIP3   OH277998   1.061   6.575   1.427  0.1821 -0.4513  0.7907
18836TIP3    H177999   1.088   6.497   1.475  1.4399 -0.0322  0.8068
18836TIP3    H278000   1.092   6.561   1.338  1.8893  0.6850  1.1462
18837TIP3   OH278001   4.289   1.284   2.682 -0.3690  0.2383 -0.2234
18837TIP3    H178002   4.252   1.361   2.725 -0.7134  0.5670 -1.0776
18837TIP3    H278003   4.265   1.211   2.739  1.5095  0.9171  1.5601
18838TIP3   OH278004   0.936   3.024   4.918  0.0704  0.6053 -0.0907
18838TIP3    H178005   0.950   2.966   4.993  0.9763  0.6614 -0.1963
18838TIP3    H278006   0.868   3.085   4.946  0.6407  0.8450  0.8348
18839TIP3   OH278007   5.034   4.694   3.984 -0.2699 -0.2344 -0.3444
18839TIP3    H178008   4.973   4.741   4.042  1.1187  0.2162  0.8050
18839TIP3    H278009   5.100   4.657   4.043  0.4192 -0.9601 -1.5315
18840TIP3   OH278010   0.464   0.797  16.624 -0.0511  0.6422 -0.3270
18840TIP3    H178011   0.414   0.845  16.690  1.1439  0.8389  0.4761
18840TIP3    H278012   0.441   0.838  16.541 -1.6128  0.3693 -0.0644
18841TIP3   OH278013   2.443   6.469  11.703  0.4326 -0.2754  0.1469
18841TIP3    H178014   2.434   6.525  11.780 -1.5798 -0.3191 -0.0185
18841TIP3    H278015   2.535   6.480  11.677  1.0411  0.0895  2.2526
18842TIP3   OH278016   1.962   0.480  14.794 -0.2575  0.0157 -0.6236
18842TIP3    H178017   1.922   0.555  14.838 -0.1572 -0.0826 -0.3671
18842TIP3    H278018   1.990   0.422  14.865  2.2254  1.0131 -0.7222
18843TIP3   OH278019   5.035   3.268  11.043  0.1510 -0.2526 -0.1640
18843TIP3    H178020   4.990   3.343  11.081 -1.5375 -1.2837 -0.0340
18843TIP3    H278021   5.086   3.305  10.971 -3.2807  0.7285 -2.3680
18844TIP3   OH278022   6.165   0.940   1.149  0.1857 -0.4136  0.2213
18844TIP3    H178023   6.245   0.905   1.189  0.8682  1.4759  0.6521
18844TIP3    H278024   6.125   0.993   1.218 -0.0909  0.6613 -0.7287
18845TIP3   OH278025   0.806   4.268   5.483 -0.6033  0.2301  0.1864
18845TIP3    H178026   0.725   4.266   5.535  0.5862  1.6583  2.2619
18845TIP3    H278027   0.814   4.360   5.456 -0.0857 -0.0742 -0.7245
18846TIP3   OH278028   2.185   3.795   3.554 -0.2057  0.8974 -0.2792
18846TIP3    H178029   2.187   3.861   3.485 -2.1077 -0.0840 -1.3313
18846TIP3    H278030   2.107   3.743   3.536 -1.5147  1.3282  3.3161
18847TIP3   OH278031   3.312   0.159   1.322 -0.0109 -0.7540  0.4095
18847TIP3    H178032   3.262   0.083   1.293 -0.1265 -0.4720 -0.1368
18847TIP3    H278033   3.254   0.234   1.304 -0.6719 -0.6544  2.6163
18848TIP3   OH278034   1.165   2.964  14.057  0.5401  0.2257 -0.3108
18848TIP3    H178035   1.210   2.935  13.978  2.4182  0.8913  0.4664
18848TIP3    H278036   1.197   2.906  14.126 -0.4979  0.1359  0.1149
18849TIP3   OH278037   6.720   3.051   2.197  0.3882 -0.1234  0.0332
18849TIP3    H178038   6.684   2.992   2.131 -3.2470  0.8989  0.8939
18849TIP3    H278039   6.758   2.993   2.263  3.7509 -1.1744 -2.5330
18850TIP3   OH278040   3.622   1.864  12.873 -0.1160  0.0243 -0.4687
18850TIP3    H178041   3.597   1.781  12.831 -1.1615  0.5361 -0.8925
18850TIP3    H278042   3.599   1.852  12.966  0.2266 -0.3414 -0.4279
18851TIP3   OH278043   0.729   2.478   1.892  0.1618 -0.2692  0.5325
18851TIP3    H178044   0.762   2.402   1.844  0.6694 -1.3903  2.5559
18851TIP3    H278045   0.649   2.502   1.846  1.5185 -0.1647 -1.9161
18852TIP3   OH278046   5.470   1.025  16.237  0.5798 -0.3193 -0.2430
18852TIP3    H178047   5.538   0.973  16.193  0.7421 -1.1450  0.9191
18852TIP3    H278048   5.388   0.992  16.202  0.6687 -1.6231  0.7013
18853TIP3   OH278049   3.566   6.428  13.022 -0.0039  0.2644 -0.5720
18853TIP3    H178050   3.531   6.380  13.097  1.3139  0.0671 -0.0450
18853TIP3    H278051   3.634   6.484  13.059  0.5992  0.2347 -1.5959
18854TIP3   OH278052   3.935   5.060   6.750  0.1327  0.4133 -0.1960
18854TIP3    H178053   4.000   5.117   6.790 -1.3261  1.6802  0.4546
18854TIP3    H278054   3.869   5.120   6.714 -1.1992 -0.8436  0.0726
18855TIP3   OH278055   6.725   3.014  14.851  0.7753  0.0106 -0.3765
18855TIP3    H178056   6.774   2.984  14.775  0.0242 -0.1463 -0.8054
18855TIP3    H278057   6.651   3.063  14.814 -0.7961 -1.8412  0.1515
18856TIP3   OH278058   0.846   6.723   2.694 -0.3956 -0.0257  0.4889
18856TIP3    H178059   0.816   6.726   2.785  0.1838  0.6664  0.6680
18856TIP3    H278060   0.784   6.666   2.650 -0.1210 -1.1735  1.5284
18857TIP3   OH278061   2.494   5.179   2.659  0.1510  0.4967 -0.0058
18857TIP3    H178062   2.539   5.133   2.588 -2.4914 -0.2362 -1.3299
18857TIP3    H278063   2.562   5.231   2.701  2.9828 -3.0840  0.3610
18858TIP3   OH278064   4.122   5.235   1.695  0.1761  0.3844 -0.3209
18858TIP3    H178065   4.070   5.243   1.776 -0.2673  0.1895 -0.5854
18858TIP3    H278066   4.069   5.278   1.628  0.0544 -0.3943 -0.7288
18859TIP3   OH278067   6.724   1.078  12.973  0.0609 -0.3382 -0.1549
18859TIP3    H178068   6.699   1.081  12.880 -0.1428 -2.1249 -0.1915
18859TIP3    H278069   6.772   0.996  12.982  0.2589 -0.0833  1.2883
18860TIP3   OH278070   1.839   4.746  15.214  0.0790  0.1229  0.1238
18860TIP3    H178071   1.853   4.665  15.263  1.5762  0.5953  0.5421
18860TIP3    H278072   1.919   4.757  15.163 -0.6785  0.6252 -1.0030
18861TIP3   OH278073   4.181   4.446  11.130 -0.0226  0.5439 -0.0966
18861TIP3    H178074   4.152   4.395  11.205 -0.5809  1.6927  0.4893
18861TIP3    H278075   4.126   4.524  11.131  0.1131  0.6829 -1.5742
18862TIP3   OH278076   6.776   3.621   1.229  0.0241  0.0886  0.6626
18862TIP3    H178077   6.843   3.557   1.207 -0.0615 -0.1775  1.1730
18862TIP3    H278078   6.694   3.571   1.230 -0.0365  0.1941  1.1177
18863TIP3   OH278079   0.793   2.867  12.336 -0.1415  0.5313 -0.3288
18863TIP3    H178080   0.868   2.828  12.380 -0.9606 -0.9511 -0.1690
18863TIP3    H278081   0.740   2.792  12.308 -0.9517  1.5119 -1.5168
18864TIP3   OH278082   2.506   5.850  15.580 -0.0087 -0.7649 -0.3514
18864TIP3    H178083   2.415   5.880  15.578  0.4187  0.6128 -1.5601
18864TIP3    H278084   2.541   5.885  15.662 -0.4365 -0.8824 -0.1156
18865TIP3   OH278085   1.349   2.710   4.295 -0.0976 -0.2588 -0.1758
18865TIP3    H178086   1.376   2.787   4.247 -0.5955  0.4125  0.5803
18865TIP3    H278087   1.415   2.644   4.276  0.3714  0.3789 -0.7726
18866TIP3   OH278088   1.277   2.793  16.673  0.1414 -0.1200  0.1978
18866TIP3    H178089   1.268   2.722  16.610 -1.3500 -1.3441  1.6873
18866TIP3    H278090   1.362   2.778  16.714 -0.1688 -1.1036  0.5214
18867TIP3   OH278091   3.561   6.356  14.787 -0.0199  0.8398 -0.0357
18867TIP3    H178092   3.542   6.410  14.865  0.0817 -2.5074  2.5384
18867TIP3    H278093   3.478   6.355  14.739 -0.6968  1.4878  1.0461
18868TIP3   OH278094   1.941   4.076  16.999 -0.0922 -0.6611  0.4115
18868TIP3    H178095   1.952   4.114  17.086  1.1481 -1.5611  0.6624
18868TIP3    H278096   2.004   4.122  16.944 -3.0085  2.2549 -0.8851
18869TIP3   OH278097   3.635   5.477  13.430  0.8081 -0.3034  0.0524
18869TIP3    H178098   3.687   5.557  13.433  0.2252  0.0511  0.7108
18869TIP3    H278099   3.635   5.453  13.337 -1.9878  2.4230 -0.8202
18870TIP3   OH278100   5.193   3.705  14.037  0.0547  0.2692 -0.0660
18870TIP3    H178101   5.182   3.719  14.131 -0.4989  1.7255 -0.3322
18870TIP3    H278102   5.108   3.674  14.008  0.5164 -1.2070  0.0564
18871TIP3   OH278103   2.460   2.646  12.951  0.2030 -0.2622 -0.1024
18871TIP3    H178104   2.430   2.656  12.860 -0.2275  1.5957  0.1984
18871TIP3    H278105   2.521   2.718  12.964 -2.9363  2.2514  2.2863
18872TIP3   OH278106   6.111   5.527   0.260 -0.0504  0.3507 -0.2751
18872TIP3    H178107   6.162   5.604   0.235  0.6005  0.1035  0.2755
18872TIP3    H278108   6.080   5.547   0.348 -0.5262  0.3064 -0.4316
18873TIP3   OH278109   1.817   5.916  16.304 -0.0063  0.3166  0.1407
18873TIP3    H178110   1.854   5.960  16.227 -1.0348  1.6005  0.3438
18873TIP3    H278111   1.892   5.871  16.343  1.4104  2.8005  0.5421
18874TIP3   OH278112   6.095   4.111  15.270 -0.2187 -0.8120 -0.4274
18874TIP3    H178113   6.108   4.167  15.346 -2.7589 -0.7262  0.0489
18874TIP3    H278114   6.009   4.072  15.284 -0.9714 -0.4904 -3.4523
18875TIP3   OH278115   2.895   0.341   0.514  0.4393 -0.3116 -0.3902
18875TIP3    H178116   2.919   0.287   0.590  0.0328  0.2253  0.1280
18875TIP3    H278117   2.965   0.325   0.451 -0.0337 -2.0349 -0.5512
18876TIP3   OH278118   4.212   3.580   0.612 -0.1324  0.6933  0.0212
18876TIP3    H178119   4.235   3.492   0.643 -0.9467  0.6528  0.5215
18876TIP3    H278120   4.121   3.572   0.584 -0.4173  1.5343  0.6738
18877TIP3   OH278121   5.383   0.649   5.159 -0.2611 -0.4383 -1.0487
18877TIP3    H178122   5.385   0.570   5.105 -0.2984 -0.1967 -1.4018
18877TIP3    H278123   5.455   0.636   5.222  1.6236  0.4933 -2.8738
18878TIP3   OH278124   0.991   1.422  14.096  0.2971  0.1112  0.3564
18878TIP3    H178125   0.967   1.495  14.040 -0.6075  0.1549  0.7789
18878TIP3    H278126   1.008   1.461  14.182  0.1869 -0.1277  0.4894
18879TIP3   OH278127   0.161   1.085  16.665  0.5962 -0.3623 -0.0167
18879TIP3    H178128   0.088   1.144  16.644  2.6020  1.9529 -1.0653
18879TIP3    H278129   0.162   1.022  16.593 -0.7935 -0.8942  0.4063
18880TIP3   OH278130   3.209   4.644   1.093 -0.3636  0.6091  0.6134
18880TIP3    H178131   3.200   4.589   1.171 -0.3599  1.4565  1.2252
18880TIP3    H278132   3.119   4.666   1.069 -0.4140 -0.3670 -0.1606
18881TIP3   OH278133   1.835   4.619   3.277 -0.1640  0.2921  0.3447
18881TIP3    H178134   1.898   4.660   3.337  0.8020 -0.1740 -0.3188
18881TIP3    H278135   1.808   4.539   3.323  1.3863 -0.6256 -0.2324
18882TIP3   OH278136   3.657   2.818  15.298 -0.0346  0.0825 -0.7264
18882TIP3    H178137   3.689   2.868  15.223 -2.1416  1.2179 -0.9439
18882TIP3    H278138   3.636   2.732  15.263  1.0285 -0.1084 -0.9388
18883TIP3   OH278139   3.582   2.224   0.637  0.4291  0.0027  0.7134
18883TIP3    H178140   3.672   2.256   0.636 -0.3155  2.3142 -0.0870
18883TIP3    H278141   3.529   2.304   0.640 -1.6241 -1.2079 -0.8200
18884TIP3   OH278142   2.832   3.759   0.330  0.2506 -0.0698 -0.4675
18884TIP3    H178143   2.904   3.753   0.393 -0.2459 -0.5752  0.0587
18884TIP3    H278144   2.815   3.853   0.322  0.2870 -0.0044  0.1854
18885TIP3   OH278145   3.091   1.040   3.140 -0.2732  0.1002  0.4913
18885TIP3    H178146   3.126   1.047   3.051 -0.1412  3.1454  0.6595
18885TIP3    H278147   3.112   0.951   3.168 -0.1834 -0.8939 -2.4369
18886TIP3   OH278148   2.164   0.946  12.022 -0.0372  0.0962 -0.0138
18886TIP3    H178149   2.116   0.864  12.036 -0.8768  0.7328  1.0594
18886TIP3    H278150   2.112   0.994  11.957  0.9764 -0.6090 -1.3773
18887TIP3   OH278151   0.907   2.716   3.221  0.2544 -0.6908 -0.9446
18887TIP3    H178152   0.818   2.723   3.186 -0.1015 -0.5907 -0.0567
18887TIP3    H278153   0.912   2.627   3.256  0.5251 -0.7144 -1.0405
18888TIP3   OH278154   5.463   1.572   5.414 -0.1213 -0.6032 -0.1801
18888TIP3    H178155   5.436   1.481   5.398 -1.9104 -0.0599 -0.5172
18888TIP3    H278156   5.382   1.617   5.438  0.3151  1.3342 -2.0013
18889TIP3   OH278157   4.798   0.001  14.620  0.2898  0.0656 -0.0750
18889TIP3    H178158   4.802   0.096  14.623  0.1058  0.0558  0.5194
18889TIP3    H278159   4.885  -0.026  14.593  0.4083  0.3908 -0.0206
18890TIP3   OH278160   4.186   0.409  15.219  0.3520  0.3570  0.4042
18890TIP3    H178161   4.266   0.414  15.270  0.9596 -2.0642 -0.1721
18890TIP3    H278162   4.173   0.315  15.204 -2.5663  0.6700  0.4341
18891TIP3   OH278163   1.619   1.661  14.059 -0.1692  0.3085 -0.4968
18891TIP3    H178164   1.579   1.630  13.978  0.5498 -0.1097 -0.7076
18891TIP3    H278165   1.646   1.581  14.105  1.0899  0.5666 -0.7246
18892TIP3   OH278166   2.372   6.565   1.259  0.3361  0.0150  0.8567
18892TIP3    H178167   2.306   6.517   1.308 -1.2952  1.8840  0.6411
18892TIP3    H278168   2.379   6.650   1.303  2.0920  0.1339  0.4418
18893TIP3   OH278169   3.467   1.315   3.516  0.2284 -0.6057 -0.2764
18893TIP3    H178170   3.427   1.253   3.578 -0.1829 -0.7871 -0.7162
18893TIP3    H278171   3.537   1.265   3.474 -0.4687 -0.9682 -1.0425
18894TIP3   OH278172   5.694   2.176  15.054  0.4057  0.4146 -0.4625
18894TIP3    H178173   5.656   2.219  15.130  1.7324 -0.3136  0.6494
18894TIP3    H278174   5.660   2.226  14.979 -0.7134  1.3089  0.5993
18895TIP3   OH278175   5.516   4.814  14.160  0.0347  0.7557  0.3047
18895TIP3    H178176   5.570   4.892  14.149 -0.7559  1.3931  0.7621
18895TIP3    H278177   5.437   4.832  14.109  0.1739 -0.0809 -0.2131
18896TIP3   OH278178   2.042   2.475  11.142  0.3650 -0.0516 -0.1724
18896TIP3    H178179   2.013   2.424  11.218  2.1536  0.1780  0.7191
18896TIP3    H278180   1.986   2.445  11.070  1.3281 -3.2946  0.2821
18897TIP3   OH278181   0.394   2.933  14.801  0.3537  0.0705 -0.1793
18897TIP3    H178182   0.451   2.904  14.729  1.5753 -0.0487  0.8096
18897TIP3    H278183   0.352   2.853  14.831 -0.0053  0.0899 -0.6094
18898TIP3   OH278184   4.540   1.496   4.459  0.5659  0.7326  0.2027
18898TIP3    H178185   4.475   1.505   4.528 -0.8076 -0.1736 -0.9162
18898TIP3    H278186   4.589   1.578   4.461  0.4453  0.7941  2.1066
18899TIP3   OH278187   4.419   3.582  12.530  0.0805 -0.0142  0.2841
18899TIP3    H178188   4.389   3.659  12.481 -0.7826 -0.1641  0.5736
18899TIP3    H278189   4.340   3.532  12.547  0.6335 -0.9332  0.1780
18900TIP3   OH278190   2.784   2.850  16.429 -0.3074  0.0327  0.4402
18900TIP3    H178191   2.879   2.861  16.416 -0.7031  3.0452 -0.8572
18900TIP3    H278192   2.757   2.795  16.355  0.4422 -1.1300  1.0040
18901TIP3   OH278193   5.205   0.758  16.280 -0.3789 -0.5369  0.6008
18901TIP3    H178194   5.128   0.770  16.335  0.2533  0.1653  1.3685
18901TIP3    H278195   5.274   0.733  16.341  0.0583 -0.9081 -0.0406
18902TIP3   OH278196   0.936   2.618  15.487  0.2078 -0.5624 -0.1571
18902TIP3    H178197   0.913   2.615  15.580  0.9645 -0.6793  0.0346
18902TIP3    H278198   0.855   2.642  15.443  0.2632  1.3621  0.6989
18903TIP3   OH278199   1.564   5.108  14.011 -0.2239 -0.2692 -0.2245
18903TIP3    H178200   1.539   5.173  13.946 -0.3403 -0.0039  0.0820
18903TIP3    H278201   1.625   5.155  14.069  2.6910 -1.4418 -2.1421
18904TIP3   OH278202   1.389   0.524  10.713  0.2883  0.2058 -0.2057
18904TIP3    H178203   1.421   0.491  10.798  3.2412  0.4074 -1.1037
18904TIP3    H278204   1.317   0.582  10.735 -0.8362 -1.8033  1.9259
18905TIP3   OH278205   1.275   2.455   4.101 -0.4473  0.1158  0.2761
18905TIP3    H178206   1.263   2.542   4.139 -2.4006  0.5050 -1.0913
18905TIP3    H278207   1.216   2.453   4.026  1.1849 -1.6206 -1.0525
18906TIP3   OH278208   5.248   1.005  14.859  0.0804  0.0037 -0.3056
18906TIP3    H178209   5.208   0.973  14.778 -0.4695  0.7056 -0.3177
18906TIP3    H278210   5.185   0.984  14.927 -0.3176  1.0688 -0.3181
18907TIP3   OH278211   0.879   0.777  11.052 -0.0772  0.2837 -0.2964
18907TIP3    H178212   0.852   0.770  11.144  0.0518  0.8983 -0.2077
18907TIP3    H278213   0.956   0.722  11.045 -0.0555  0.2795 -0.0217
18908TIP3   OH278214   2.829   1.407   4.751  0.0658 -0.2162  0.2770
18908TIP3    H178215   2.896   1.433   4.814 -0.5613  2.3390 -0.0081
18908TIP3    H278216   2.756   1.375   4.804  0.6311 -0.8688  0.6756
18909TIP3   OH278217   5.132   1.243   2.474 -0.5198  0.5667 -0.3634
18909TIP3    H178218   5.205   1.236   2.536  1.9374  1.6783 -2.9266
18909TIP3    H278219   5.136   1.333   2.442 -3.6412  0.9510 -0.0433
18910TIP3   OH278220   5.011   0.599   2.056 -0.4412  0.0478  0.3411
18910TIP3    H178221   4.981   0.576   1.968  2.6047  2.9520 -1.7061
18910TIP3    H278222   4.952   0.669   2.084  0.7121  1.6889 -1.1183
18911TIP3   OH278223   3.508   3.038  12.180  0.3111 -0.3101  0.1489
18911TIP3    H178224   3.421   3.010  12.207  0.4785 -0.8545  0.1348
18911TIP3    H278225   3.494   3.082  12.096 -0.5055  3.1863  1.9368
18912TIP3   OH278226   3.907   6.577   5.509 -0.0051 -0.0375 -0.3608
18912TIP3    H178227   3.975   6.583   5.442  0.1230  0.3766 -0.1983
18912TIP3    H278228   3.934   6.640   5.576 -3.3815  4.5519 -2.8022
18913TIP3   OH278229   1.438   5.120  10.402 -0.1148 -0.5997  0.3109
18913TIP3    H178230   1.455   5.165  10.320  0.8576 -0.5274  0.5368
18913TIP3    H278231   1.420   5.190  10.465 -1.1538 -0.6690  0.1052
18914TIP3   OH278232   1.714   1.632   5.268 -0.5279  0.1275  0.1434
18914TIP3    H178233   1.771   1.600   5.197  1.0494  2.0490  0.4639
18914TIP3    H278234   1.693   1.553   5.319  0.9387 -0.8142 -0.6338
18915TIP3   OH278235   5.099   2.493   4.202  0.0047 -0.0822  0.5489
18915TIP3    H178236   5.057   2.566   4.248 -0.0080  1.3167 -1.5463
18915TIP3    H278237   5.190   2.495   4.234  0.0341  0.9453  0.4482
18916TIP3   OH278238   1.080   2.438  11.476 -0.0736 -0.9461 -0.4791
18916TIP3    H178239   1.083   2.530  11.500  0.2636 -1.5752  2.1521
18916TIP3    H278240   1.169   2.420  11.443  0.6346 -0.8438  1.2677
18917TIP3   OH278241   0.118   5.470   0.126 -0.5242 -0.3646 -0.2252
18917TIP3    H178242   0.067   5.402   0.169 -0.9051 -0.9613 -1.5713
18917TIP3    H278243   0.176   5.423   0.066 -0.1809  0.4436 -0.5432
18918TIP3   OH278244   2.550   1.225  12.992 -0.4133  0.0485 -0.3117
18918TIP3    H178245   2.524   1.135  13.014 -0.3339 -0.4176 -1.9971
18918TIP3    H278246   2.550   1.271  13.076 -0.0196 -1.6315  0.6513
18919TIP3   OH278247   2.265   6.104  15.162 -0.1097 -0.0933  0.7093
18919TIP3    H178248   2.252   6.143  15.076  0.2556  4.5102  2.4464
18919TIP3    H278249   2.360   6.095  15.171 -0.1490 -0.6191  0.6444
18920TIP3   OH278250   4.958   5.483  15.473 -0.0135 -0.2090 -0.3827
18920TIP3    H178251   5.040   5.529  15.453  0.1278  0.1050  0.8010
18920TIP3    H278252   4.902   5.499  15.398  0.2252  1.4689 -0.2420
18921TIP3   OH278253   2.386   3.983  13.419 -0.7944 -0.3589  0.2625
18921TIP3    H178254   2.411   4.010  13.331 -1.4704  0.8698  0.4170
18921TIP3    H278255   2.467   3.948  13.457  0.4320  2.1827  0.2582
18922TIP3   OH278256   5.597   2.927   3.911 -0.1857 -0.0227  0.1027
18922TIP3    H178257   5.642   2.847   3.885 -0.5985  0.0715 -0.9237
18922TIP3    H278258   5.652   2.998   3.878  0.7050  0.1747  1.8641
18923TIP3   OH278259   0.688   3.112   2.265 -0.0904  0.2612 -0.6449
18923TIP3    H178260   0.651   3.076   2.184  0.9678 -1.1840 -0.5330
18923TIP3    H278261   0.708   3.203   2.244  1.9314 -0.5496 -2.6965
18924TIP3   OH278262   6.497   1.302   1.451 -0.0177  0.0319 -0.1959
18924TIP3    H178263   6.430   1.298   1.521 -1.0777  0.8168 -1.1288
18924TIP3    H278264   6.447   1.294   1.370  1.1217 -0.1150 -0.9026
18925TIP3   OH278265   3.812   6.467   3.759  0.4555  0.1400 -0.1465
18925TIP3    H178266   3.796   6.545   3.812 -2.4703 -0.0598 -0.5582
18925TIP3    H278267   3.848   6.403   3.820  1.1302  1.2075  0.6125
18926TIP3   OH278268   3.443   3.910   1.209  0.4946  0.1730 -0.1938
18926TIP3    H178269   3.449   3.844   1.141  0.2703  0.3635 -0.3994
18926TIP3    H278270   3.353   3.905   1.241  1.2511 -1.6619  1.8683
18927TIP3   OH278271   0.231   3.388   2.870 -0.4895  0.1721  0.4290
18927TIP3    H178272   0.220   3.295   2.853  1.8194 -0.0119 -0.3133
18927TIP3    H278273   0.308   3.394   2.927 -1.2913  1.5734  1.4449
18928TIP3   OH278274   1.416   1.148   6.474 -0.0848  0.0442 -0.1944
18928TIP3    H178275   1.469   1.083   6.428 -2.2822 -0.3301 -2.4159
18928TIP3    H278276   1.457   1.232   6.452  0.3564 -0.3091 -0.7742
18929TIP3   OH278277   6.832   6.806   5.845  0.5251 -0.9567  0.0037
18929TIP3    H178278   6.927   6.793   5.848  0.9874  0.5345 -3.1681
18929TIP3    H278279   6.810   6.796   5.752 -2.1639  0.2360  0.4293
18930TIP3   OH278280   2.191   4.440  15.214 -0.3292 -0.2763  0.3952
18930TIP3    H178281   2.230   4.355  15.232  0.3395 -0.1751 -0.4580
18930TIP3    H278282   2.258   4.486  15.162 -0.2581  1.1327  1.6694
18931TIP3   OH278283   3.961   1.743   4.415  0.3570 -0.0552 -0.4102
18931TIP3    H178284   3.922   1.679   4.356  1.9086 -1.5106  0.0613
18931TIP3    H278285   4.034   1.781   4.365  0.7765 -0.2372  0.0555
18932TIP3   OH278286   1.105   4.268  11.362 -0.0142 -0.2442 -0.1720
18932TIP3    H178287   1.036   4.204  11.375  0.0394 -0.6837 -1.8929
18932TIP3    H278288   1.068   4.350  11.396 -0.5540 -0.9020  0.8727
18933TIP3   OH278289   3.130   4.971  15.559 -0.3008 -0.0063 -0.3152
18933TIP3    H178290   3.048   4.980  15.608  0.2068  1.0469  0.3898
18933TIP3    H278291   3.184   5.045  15.589  1.8838 -2.0289  1.1062
18934TIP3   OH278292   1.007   0.084  11.722 -0.3556 -0.1213  0.1295
18934TIP3    H178293   1.031   0.012  11.664  2.1063  0.3828  0.3970
18934TIP3    H278294   1.064   0.157  11.695 -0.4049  0.6759  1.9971
18935TIP3   OH278295   0.192   6.750  14.491 -0.2297  0.1691 -0.2772
18935TIP3    H178296   0.230   6.663  14.502  0.5000  0.7371  2.7717
18935TIP3    H278297   0.200   6.768  14.398  0.6824 -2.5259 -0.8195
18936TIP3   OH278298   2.035   4.204   1.990 -0.5097 -0.0221  0.4305
18936TIP3    H178299   1.965   4.140   1.977  0.6381 -1.0543 -1.2091
18936TIP3    H278300   2.035   4.256   1.910  1.2179 -0.7382 -0.0807
18937TIP3   OH278301   5.664   0.218   0.740 -0.6247  0.1922  0.1518
18937TIP3    H178302   5.617   0.300   0.752 -1.9752 -0.6557  0.9233
18937TIP3    H278303   5.670   0.180   0.828 -1.9822 -1.5462 -0.4350
18938TIP3   OH278304   4.491   0.498   3.101 -0.0329  0.2482 -0.0388
18938TIP3    H178305   4.506   0.407   3.126  1.0905  0.8308  1.5689
18938TIP3    H278306   4.578   0.533   3.083 -0.1932  1.5605  1.5118
18939TIP3   OH278307   6.120   5.254   2.702  0.6359  0.0265  0.3354
18939TIP3    H178308   6.161   5.223   2.783 -1.0382 -0.4027  1.0489
18939TIP3    H278309   6.039   5.295   2.730 -0.0693 -0.2915 -1.1337
18940TIP3   OH278310   1.304   1.199   2.030  0.0466 -0.0308 -0.2868
18940TIP3    H178311   1.310   1.294   2.040  2.4505 -0.1298 -0.2922
18940TIP3    H278312   1.339   1.182   1.943 -0.8566 -0.9105 -0.4984
18941TIP3   OH278313   6.604   4.875  11.784 -0.1784 -0.6180 -0.4825
18941TIP3    H178314   6.680   4.817  11.779  0.9306  0.7453 -0.3367
18941TIP3    H278315   6.603   4.904  11.876  1.4140  2.1699 -1.1922
18942TIP3   OH278316   0.154   2.560  16.747  0.6191  0.0775  0.7725
18942TIP3    H178317   0.213   2.501  16.699  0.8660  0.4721  0.5808
18942TIP3    H278318   0.211   2.632  16.774 -0.3037  2.0070 -1.9891
18943TIP3   OH278319   1.372   3.958   0.987  0.0035  0.2564 -0.4441
18943TIP3    H178320   1.314   3.881   0.981 -0.7054  0.8606 -1.6142
18943TIP3    H278321   1.370   3.981   1.079 -0.0116 -0.9532 -0.1174
18944TIP3   OH278322   5.182   4.030  12.713  0.1485  0.2593  0.1651
18944TIP3    H178323   5.125   3.991  12.647  2.7961  0.0506 -2.1673
18944TIP3    H278324   5.175   4.124  12.699 -0.7031  0.3187  0.8968
18945TIP3   OH278325   4.498   2.744  13.687 -0.0902  0.6448  0.1234
18945TIP3    H178326   4.585   2.735  13.647 -0.9624  1.4948 -2.1561
18945TIP3    H278327   4.445   2.677  13.644 -0.8966  1.0559  0.4662
18946TIP3   OH278328   3.391   0.194  16.244  0.2228  0.5803  0.8366
18946TIP3    H178329   3.457   0.217  16.310 -0.2912  0.3210  1.4523
18946TIP3    H278330   3.315   0.166  16.295  0.2517 -0.8836  0.1347
18947TIP3   OH278331   4.797   2.396   3.829  0.7674 -0.0854  0.0952
18947TIP3    H178332   4.741   2.326   3.861 -1.4825  0.8564 -1.5043
18947TIP3    H278333   4.831   2.438   3.908 -1.5570 -0.1120  1.1756
18948TIP3   OH278334   1.795   3.948   4.098 -0.5211  0.6435  0.3337
18948TIP3    H178335   1.802   3.861   4.138  0.7683  0.5941  0.0566
18948TIP3    H278336   1.857   4.002   4.148 -0.1015  0.9809 -0.5300
18949TIP3   OH278337   3.347   2.290  14.421  1.0670 -0.5250  0.1898
18949TIP3    H178338   3.433   2.319  14.453  0.5456  2.3971 -0.7022
18949TIP3    H278339   3.296   2.274  14.501  2.1465 -1.3741  0.7307
18950TIP3   OH278340   2.041   5.436   5.114 -0.1766  0.3320 -0.0607
18950TIP3    H178341   1.960   5.428   5.063 -0.2304 -1.7066  0.2880
18950TIP3    H278342   2.105   5.468   5.051 -0.3008 -1.9287 -1.4359
18951TIP3   OH278343   1.441   2.805  15.064  0.6455 -0.0363 -0.1227
18951TIP3    H178344   1.515   2.788  15.121  0.0606  1.1064  1.0270
18951TIP3    H278345   1.438   2.900  15.055  0.0473 -0.1321 -1.1665
18952TIP3   OH278346   5.007   3.971  10.721 -0.2578 -0.2222  0.1206
18952TIP3    H178347   4.983   4.049  10.671 -0.0321 -0.7328 -0.8086
18952TIP3    H278348   5.098   3.987  10.748  0.9241 -1.4181 -2.7131
18953TIP3   OH278349   6.175   0.453  13.919 -0.0668  0.4330 -0.0991
18953TIP3    H178350   6.219   0.391  13.976  0.0661 -2.7452 -3.2911
18953TIP3    H278351   6.085   0.421  13.914 -0.5829  1.8130 -0.2050
18954TIP3   OH278352   1.494   2.865   2.286 -0.1940 -0.0671  1.0525
18954TIP3    H178353   1.477   2.937   2.347  0.3910 -0.2482  1.4390
18954TIP3    H278354   1.560   2.811   2.330  0.3138 -0.1478  0.2176
18955TIP3   OH278355   6.021   4.415   3.759  0.4516  0.2234  0.1531
18955TIP3    H178356   5.981   4.359   3.693  1.3099  1.0185 -1.0966
18955TIP3    H278357   5.962   4.409   3.834 -1.4024  0.4465 -1.1892
18956TIP3   OH278358   3.888   2.799   6.589 -0.4485  0.1350 -0.3194
18956TIP3    H178359   3.810   2.841   6.624  0.1283  0.3772  0.7083
18956TIP3    H278360   3.925   2.751   6.663 -1.1778 -2.3717 -1.4740
18957TIP3   OH278361   1.558   5.099  15.215  0.1012 -0.1019  0.3624
18957TIP3    H178362   1.519   5.146  15.140  1.1794 -0.2355 -0.2977
18957TIP3    H278363   1.546   5.158  15.289 -1.4208 -0.1662  0.2021
18958TIP3   OH278364   0.380   5.053  10.147  0.1950 -0.0204  0.4767
18958TIP3    H178365   0.456   5.104  10.172  0.8049 -0.5578 -0.2526
18958TIP3    H278366   0.414   4.965  10.131 -0.2158  0.1749 -1.7689
18959TIP3   OH278367   6.244   2.321  16.126 -0.3872  0.2516 -0.2224
18959TIP3    H178368   6.158   2.353  16.152 -0.0020 -0.2071  1.7955
18959TIP3    H278369   6.230   2.229  16.103 -0.2319 -0.3091  1.7152
18960TIP3   OH278370   4.223   4.705   4.055 -0.2812 -0.2711  0.3132
18960TIP3    H178371   4.192   4.665   4.137 -0.0956 -0.0798  0.4772
18960TIP3    H278372   4.244   4.795   4.079  1.1436 -0.6073  0.3844
18961TIP3   OH278373   1.232   0.200   2.730  0.6970 -0.0217 -0.2716
18961TIP3    H178374   1.193   0.258   2.665  0.8185  0.0586 -0.2748
18961TIP3    H278375   1.182   0.119   2.724 -0.9645  0.8082  1.2968
18962TIP3   OH278376   6.413   0.361   3.014 -0.4458 -0.0717 -0.2626
18962TIP3    H178377   6.503   0.339   2.993 -0.3916  1.4933 -1.8306
18962TIP3    H278378   6.366   0.351   2.932 -1.3209  1.0187  0.0840
18963TIP3   OH278379   1.444   1.527  13.882  0.8074  0.5203 -0.1524
18963TIP3    H178380   1.477   1.468  13.815  0.8786 -1.4533  1.5195
18963TIP3    H278381   1.382   1.474  13.932  0.2350  2.1233  0.9335
18964TIP3   OH278382   2.294   0.238   1.928  0.1816  0.0007 -0.1462
18964TIP3    H178383   2.255   0.299   1.990 -2.3458 -0.9116 -0.7171
18964TIP3    H278384   2.263   0.268   1.842  1.6937 -0.1380 -0.7768
18965TIP3   OH278385   2.605   3.456   1.985 -0.2380 -0.3158 -0.7116
18965TIP3    H178386   2.668   3.523   1.956  0.1290  0.4445  1.5951
18965TIP3    H278387   2.616   3.453   2.080 -1.5164 -2.4298 -0.5708
18966TIP3   OH278388   4.615   1.994  14.690  0.0366 -0.7625 -0.0823
18966TIP3    H178389   4.532   2.035  14.715  0.6334  0.0438  0.6422
18966TIP3    H278390   4.594   1.940  14.614 -0.6004  1.6974 -1.7853
18967TIP3   OH278391   1.958   5.829   1.694  0.0733  0.1195 -0.0322
18967TIP3    H178392   1.900   5.901   1.719 -0.4157  0.1236 -1.1014
18967TIP3    H278393   1.975   5.843   1.600  1.2645 -0.2665  0.1107
18968TIP3   OH278394   1.389   2.302  11.062 -0.5220  0.1256 -0.1206
18968TIP3    H178395   1.415   2.248  10.987 -0.6590  1.8296 -1.4803
18968TIP3    H278396   1.392   2.392  11.028 -0.7189  0.9422  1.9111
18969TIP3   OH278397   5.266   3.868  15.747 -0.3908 -0.1045  0.0814
18969TIP3    H178398   5.270   3.871  15.652  3.5515 -0.3663  0.0787
18969TIP3    H278399   5.221   3.949  15.772 -1.3149  0.0615 -1.9578
18970TIP3   OH278400   4.301   4.824  15.542 -0.2213 -0.5604 -0.8221
18970TIP3    H178401   4.295   4.878  15.464  0.4734  0.1198 -0.4247
18970TIP3    H278402   4.389   4.840  15.576  0.1592 -2.2691 -0.9069
18971TIP3   OH278403   1.884   1.365   1.111  0.0901  0.6746  0.1029
18971TIP3    H178404   1.963   1.335   1.155  0.2444  0.8578 -0.0451
18971TIP3    H278405   1.897   1.341   1.020 -0.5240 -0.3015  0.2634
18972TIP3   OH278406   4.600   5.829  12.994  0.0902 -0.2468 -0.0251
18972TIP3    H178407   4.538   5.902  13.003  1.3322  1.0227 -1.2556
18972TIP3    H278408   4.545   5.752  12.980 -1.2860  0.3082  1.8931
18973TIP3   OH278409   6.284   4.515  16.013 -0.2041  0.4056  0.1634
18973TIP3    H178410   6.326   4.440  16.055 -0.4668  0.2714  0.1905
18973TIP3    H278411   6.301   4.589  16.071 -0.4237  0.2548  0.4171
18974TIP3   OH278412   2.951   6.673   2.938 -0.0090 -0.7064 -0.0272
18974TIP3    H178413   2.990   6.710   3.017  1.0769 -1.4990 -0.1635
18974TIP3    H278414   2.858   6.694   2.944  0.4753  1.6488  0.1044
18975TIP3   OH278415   3.612   4.782  13.777  0.0719 -0.0623 -0.0716
18975TIP3    H178416   3.589   4.704  13.726 -0.7586 -0.8378  1.3946
18975TIP3    H278417   3.544   4.846  13.754  0.2000 -0.1054 -0.5736
18976TIP3   OH278418   1.071   1.242  16.176 -0.2217  0.3865 -0.0787
18976TIP3    H178419   1.114   1.264  16.093 -1.4183 -1.7108 -1.3498
18976TIP3    H278420   0.979   1.263  16.162 -0.6455 -1.1300  0.2161
18977TIP3   OH278421   1.371   4.640   4.662  0.0823 -0.0933  0.1629
18977TIP3    H178422   1.299   4.599   4.710 -1.6994  1.5701 -0.9373
18977TIP3    H278423   1.408   4.703   4.724  1.5113 -1.8093  1.1627
18978TIP3   OH278424   4.906   6.290  16.629  0.0546  0.0046 -0.3827
18978TIP3    H178425   4.992   6.249  16.622  0.4229  0.8538 -1.1776
18978TIP3    H278426   4.904   6.327  16.717  1.1020  1.2114 -0.8343
18979TIP3   OH278427   3.723   2.314  14.800  0.7288  0.6200 -0.1355
18979TIP3    H178428   3.809   2.306  14.758  1.1302  2.4258  0.2516
18979TIP3    H278429   3.721   2.242  14.864  2.6729  1.4738  1.0029
18980TIP3   OH278430   5.030   5.215  16.997 -0.6979 -1.0048  0.5089
18980TIP3    H178431   5.035   5.167  16.914  1.2441 -0.3643  0.1950
18980TIP3    H278432   4.976   5.291  16.978  1.4021  0.2460 -0.8274
18981TIP3   OH278433   1.641   5.777   6.116 -0.0370  0.3951  0.1260
18981TIP3    H178434   1.693   5.711   6.162 -0.9661 -0.9643 -0.6984
18981TIP3    H278435   1.636   5.850   6.177  2.3063  0.3536  0.4745
18982TIP3   OH278436   4.346   2.214  15.450  0.0179  0.3979 -0.3781
18982TIP3    H178437   4.317   2.305  15.445  0.0248  0.4714  0.6602
18982TIP3    H278438   4.437   2.219  15.480  0.1829  0.0599 -0.7999
18983TIP3   OH278439   6.494   0.634  15.053 -0.3900  0.4418 -0.1635
18983TIP3    H178440   6.432   0.704  15.033  0.3548  0.8352 -1.1574
18983TIP3    H278441   6.563   0.644  14.988  1.4511  0.9088  1.7471
18984TIP3   OH278442   0.451   0.162  14.000 -0.2227  0.1433 -0.1422
18984TIP3    H178443   0.375   0.202  13.958 -0.3854 -1.6170 -1.6715
18984TIP3    H278444   0.526   0.202  13.956 -0.3269  0.2931 -0.1833
18985TIP3   OH278445   3.244   4.848   2.717  0.0248  0.0838  0.1500
18985TIP3    H178446   3.315   4.856   2.654 -1.9913  2.5217 -2.1080
18985TIP3    H278447   3.231   4.937   2.750 -1.7212 -0.3194  0.6969
18986TIP3   OH278448   4.649   3.397   1.880 -0.4146 -0.0659  0.8291
18986TIP3    H178449   4.653   3.306   1.850 -0.8600  0.1963 -0.0441
18986TIP3    H278450   4.558   3.422   1.869  0.4556  2.1023 -3.9525
18987TIP3   OH278451   6.671   5.876  15.251 -0.2132 -0.0031  0.0813
18987TIP3    H178452   6.718   5.793  15.242 -0.6727 -0.2695  0.1134
18987TIP3    H278453   6.737   5.943  15.236 -0.2350 -0.3846 -1.9077
18988TIP3   OH278454   2.392   3.622  13.253 -0.0750  0.0590  0.6026
18988TIP3    H178455   2.355   3.543  13.214  2.0236  0.2890 -2.1623
18988TIP3    H278456   2.483   3.598  13.273  0.0151  1.1954  1.6685
18989TIP3   OH278457   4.381   4.891   0.615 -0.6584  0.4513  0.2112
18989TIP3    H178458   4.393   4.955   0.545  2.9599 -2.2599 -2.0432
18989TIP3    H278459   4.459   4.900   0.670 -0.2448 -1.6610  0.0459
18990TIP3   OH278460   2.150   2.171  11.517 -0.5124 -0.4131  0.4398
18990TIP3    H178461   2.135   2.172  11.611  0.6216 -0.2084  0.6283
18990TIP3    H278462   2.150   2.078  11.493 -1.0540 -0.4539  0.5934
18991TIP3   OH278463   2.717   4.695   5.691  0.2155  0.2552  0.3601
18991TIP3    H178464   2.811   4.706   5.699  0.4014 -0.9522  0.1102
18991TIP3    H278465   2.688   4.666   5.778  0.6613 -2.8105 -0.3805
18992TIP3   OH278466   6.351   3.628  16.608 -0.7357  0.2158  0.6259
18992TIP3    H178467   6.256   3.640  16.603 -0.6591  1.4183  1.5960
18992TIP3    H278468   6.386   3.675  16.532 -0.9254 -0.6390 -0.0084
18993TIP3   OH278469   6.236   4.343   5.857 -0.6562 -0.6692  0.5790
18993TIP3    H178470   6.308   4.361   5.797 -1.6044 -0.3416 -0.4975
18993TIP3    H278471   6.253   4.255   5.890 -0.3323 -1.0159 -0.4810
18994TIP3   OH278472   5.536   2.250  11.571  0.1295 -0.2407 -0.1266
18994TIP3    H178473   5.562   2.342  11.572 -0.7102  0.0270  2.1014
18994TIP3    H278474   5.450   2.249  11.614 -0.1120 -2.0148 -0.5759
18995TIP3   OH278475   5.057   2.819   0.547  0.3029 -0.0395 -0.0035
18995TIP3    H178476   5.127   2.760   0.575 -0.9435 -2.1031 -1.0444
18995TIP3    H278477   5.097   2.906   0.551  2.3997 -0.9642  0.9965
18996TIP3   OH278478   1.124   0.546   4.253  0.2406 -0.0262  0.0091
18996TIP3    H178479   1.200   0.502   4.290  1.5502  1.8108 -0.3615
18996TIP3    H278480   1.128   0.635   4.289 -1.2562  0.3638 -0.6899
18997TIP3   OH278481   4.698   3.126  12.827 -0.0628  0.0715 -0.3472
18997TIP3    H178482   4.602   3.130  12.827 -0.0700  0.1514 -1.3877
18997TIP3    H278483   4.718   3.048  12.879 -0.6831  0.1896  0.0822
18998TIP3   OH278484   0.702   2.565   5.456 -0.3597 -0.6462 -0.2560
18998TIP3    H178485   0.755   2.644   5.446  0.2298 -1.1881 -1.6860
18998TIP3    H278486   0.749   2.512   5.520 -1.1789  0.4594  1.3348
18999TIP3   OH278487   5.344   6.117  11.229  0.5386 -0.5923 -0.6161
18999TIP3    H178488   5.345   6.040  11.173 -2.4671 -0.9199 -0.4024
18999TIP3    H278489   5.305   6.186  11.175  0.2560 -0.1305  0.1501
19000TIP3   OH278490   2.924   4.581  15.240 -0.1866  0.8836 -0.7104
19000TIP3    H178491   2.872   4.548  15.167  0.5174 -0.9334 -0.4523
19000TIP3    H278492   3.014   4.585  15.206 -0.1109  1.6482 -0.4351
19001TIP3   OH278493   6.321   6.726  11.249 -0.1721  0.2470  0.4067
19001TIP3    H178494   6.268   6.655  11.213 -0.4855 -0.4440  2.1522
19001TIP3    H278495   6.298   6.802  11.195  0.6205 -1.0494 -1.8919
19002TIP3   OH278496   3.940   6.776   5.705 -0.9677 -0.1142 -0.1061
19002TIP3    H178497   3.874   6.843   5.724 -1.0774 -0.1278 -0.4272
19002TIP3    H278498   4.020   6.809   5.746 -1.3425 -0.4463  0.9128
19003TIP3   OH278499   0.305   4.520   5.035 -0.3394  0.2947 -0.4782
19003TIP3    H178500   0.211   4.511   5.054  0.0283 -1.6337  0.6851
19003TIP3    H278501   0.333   4.432   5.011  1.3355  0.6793 -0.0480
19004TIP3   OH278502   3.973   5.960  12.468  0.0203  0.3122 -0.4178
19004TIP3    H178503   3.892   5.909  12.474  0.1016  0.1236 -0.9002
19004TIP3    H278504   3.948   6.043  12.428  0.5098 -0.8190 -3.3055
19005TIP3   OH278505   1.123   3.294  12.889  0.3383  0.1450  0.3696
19005TIP3    H178506   1.142   3.212  12.843  1.5523 -0.0352  1.1613
19005TIP3    H278507   1.065   3.268  12.961  1.3122 -0.1534  1.0624
19006TIP3   OH278508   4.707   5.078   4.826  0.8350  0.7522  0.6952
19006TIP3    H178509   4.612   5.075   4.812  0.6326  1.3673  1.7878
19006TIP3    H278510   4.743   5.098   4.740  0.1017 -0.9093 -0.0528
19007TIP3   OH278511   6.544   1.795  11.163  0.4370  0.3865  0.0227
19007TIP3    H178512   6.464   1.801  11.110  0.9784 -1.1919 -1.0641
19007TIP3    H278513   6.513   1.780  11.252 -0.4850  1.1699 -0.1488
19008TIP3   OH278514   3.696   3.926  10.304 -0.1416  0.2788 -0.1484
19008TIP3    H178515   3.758   3.995  10.329 -1.3853  0.9810  1.1151
19008TIP3    H278516   3.700   3.862  10.375  1.5944 -1.4544 -1.6878
19009TIP3   OH278517   5.029   2.538  16.324 -0.1860 -0.0506  0.2239
19009TIP3    H178518   5.064   2.462  16.372  0.4978 -0.9551 -1.6222
19009TIP3    H278519   4.965   2.576  16.384  1.3399 -0.5048  2.2592
19010TIP3   OH278520   2.948   6.601  11.622  0.3501 -0.0181  0.1066
19010TIP3    H178521   3.019   6.657  11.591  0.3896 -0.8489 -1.4177
19010TIP3    H278522   2.982   6.512  11.610 -0.5380 -0.4022  0.3808
19011TIP3   OH278523   5.953   2.321  11.511  0.4280  0.0899 -0.1680
19011TIP3    H178524   5.888   2.349  11.447 -1.6642 -2.8979  0.4422
19011TIP3    H278525   6.015   2.268  11.460 -0.2781 -0.8832 -0.0358
19012TIP3   OH278526   6.355   5.683   2.531  0.0434  0.8417  0.4023
19012TIP3    H178527   6.368   5.756   2.470 -0.1813  0.3613 -0.2406
19012TIP3    H278528   6.434   5.683   2.585  0.8633  0.4885 -0.7447
19013TIP3   OH278529   3.885   3.222   5.144 -0.2844 -0.4125 -0.2048
19013TIP3    H178530   3.796   3.216   5.109  0.2408 -2.0672 -1.3968
19013TIP3    H278531   3.909   3.314   5.134 -1.6916 -0.0308 -0.2605
19014TIP3   OH278532   2.923   4.326  15.731 -0.6302 -0.6637  0.1820
19014TIP3    H178533   2.847   4.379  15.704 -0.2239 -0.0770  0.1684
19014TIP3    H278534   2.999   4.379  15.706 -0.1233 -2.2312 -1.9177
19015TIP3   OH278535   5.550   4.239  16.400  0.4510  0.1888  0.3985
19015TIP3    H178536   5.547   4.209  16.491 -1.3062 -0.6401  0.0936
19015TIP3    H278537   5.537   4.160  16.348  2.9743  0.3733 -0.6943
19016TIP3   OH278538   1.524   5.982  14.122  0.0187  1.0378 -0.0346
19016TIP3    H178539   1.545   6.046  14.190  2.8072 -0.8490  1.0279
19016TIP3    H278540   1.544   6.028  14.040  2.5943  1.4353  0.7233
19017TIP3   OH278541   0.751   4.410   2.831  0.2767  0.4442  0.5818
19017TIP3    H178542   0.726   4.502   2.821 -0.4004  0.1837 -0.2421
19017TIP3    H278543   0.715   4.367   2.754 -0.4027 -0.7224  1.5225
19018TIP3   OH278544   4.945   4.001  13.225 -0.1041  0.1722  0.7614
19018TIP3    H178545   4.975   3.958  13.145 -0.8944 -0.9067  1.0290
19018TIP3    H278546   4.851   3.988  13.226 -0.1813  0.7115  1.5645
19019TIP3   OH278547   3.550   1.650   0.239 -0.1497  0.4445 -1.0804
19019TIP3    H178548   3.509   1.566   0.258 -0.1467  0.7257  0.3249
19019TIP3    H278549   3.632   1.648   0.288  1.3346  0.0833 -3.4646
19020TIP3   OH278550   1.345   2.451   4.874  0.0838 -0.0129  0.2046
19020TIP3    H178551   1.289   2.410   4.808  2.1650 -0.6686 -1.2521
19020TIP3    H278552   1.296   2.527   4.905 -1.7008 -0.7261 -0.7684
19021TIP3   OH278553   5.191   6.833   0.564  0.2746  0.5817  0.3776
19021TIP3    H178554   5.254   6.842   0.492  2.4320 -0.4675  2.0001
19021TIP3    H278555   5.178   6.922   0.597  0.7319  0.8359 -0.1169
19022TIP3   OH278556   5.790   3.135   2.722  0.1025  0.2800  0.8563
19022TIP3    H178557   5.713   3.108   2.672  1.1865  1.0852 -1.3970
19022TIP3    H278558   5.756   3.158   2.808 -1.7586 -1.9555  0.8108
19023TIP3   OH278559   3.554   4.990  12.098  0.5775 -0.2159 -0.1442
19023TIP3    H178560   3.644   5.013  12.120  0.1802  1.4560 -0.1320
19023TIP3    H278561   3.524   5.062  12.043 -0.3054 -1.4553 -1.3538
19024TIP3   OH278562   5.585   6.387  14.549  0.3929  0.5167 -0.2301
19024TIP3    H178563   5.490   6.392  14.557  0.4855  2.5312  0.0933
19024TIP3    H278564   5.607   6.454  14.484  1.6412  0.4561  0.1084
19025TIP3   OH278565   0.185   0.915   5.004 -0.1718  0.2178  0.4894
19025TIP3    H178566   0.100   0.931   5.044  0.3787 -1.0357  2.2814
19025TIP3    H278567   0.244   0.978   5.046  0.4585 -1.2615  1.9418
19026TIP3   OH278568   5.741   3.492   1.643  0.2736 -0.1397 -0.6532
19026TIP3    H178569   5.646   3.503   1.644  0.1692 -0.9277 -1.1183
19026TIP3    H278570   5.755   3.401   1.614  1.1896  0.3024 -1.7047
19027TIP3   OH278571   5.322   4.487  14.232 -0.6851 -0.0360 -0.2037
19027TIP3    H178572   5.348   4.484  14.324 -0.8385  0.4925 -0.1403
19027TIP3    H278573   5.256   4.418  14.223  0.5677 -1.2529 -0.3212
19028TIP3   OH278574   6.399   5.059   3.928 -0.3577 -0.1484  0.9135
19028TIP3    H178575   6.407   5.099   3.842  1.9626 -0.4366  0.9159
19028TIP3    H278576   6.339   5.116   3.976 -1.0537  0.4617 -0.6154
19029TIP3   OH278577   0.009   5.532   0.862  0.5562 -0.0351 -0.3569
19029TIP3    H178578  -0.029   5.605   0.911  1.5816  0.6916 -0.5945
19029TIP3    H278579   0.057   5.481   0.928  0.8664  0.2153 -0.3847
19030TIP3   OH278580   5.504   2.733   0.079  0.3304  0.2619 -0.4668
19030TIP3    H178581   5.500   2.772  -0.009  1.6740  2.7768  0.4757
19030TIP3    H278582   5.417   2.748   0.115  0.0403  0.0041 -1.0328
19031TIP3   OH278583   0.420   0.751   0.905 -0.0712 -0.2474  0.1617
19031TIP3    H178584   0.446   0.729   0.995 -1.9030 -0.4978  0.6906
19031TIP3    H278585   0.328   0.724   0.901 -0.9281  2.5310 -0.8196
19032TIP3   OH278586   6.401   1.636   3.635  0.0044  0.3972 -0.1672
19032TIP3    H178587   6.412   1.568   3.569 -0.3863  0.0095  0.1629
19032TIP3    H278588   6.308   1.635   3.656  0.3424 -0.4435  1.3931
19033TIP3   OH278589   6.667   2.323   1.248 -0.0502 -0.4262 -0.0176
19033TIP3    H178590   6.662   2.229   1.265 -1.4660 -0.3917 -0.1341
19033TIP3    H278591   6.644   2.364   1.331  1.8113 -0.1224  0.4089
19034TIP3   OH278592   2.779   6.438  12.979  0.3081 -0.0139 -0.1216
19034TIP3    H178593   2.735   6.523  12.980 -0.6025 -0.4292  2.2377
19034TIP3    H278594   2.838   6.440  13.053 -1.1741 -2.0689  1.2393
19035TIP3   OH278595   6.220   2.541   0.827 -0.2956 -0.4644 -0.4002
19035TIP3    H178596   6.127   2.539   0.849 -0.1738  0.6307  0.3027
19035TIP3    H278597   6.233   2.626   0.784  0.3965 -0.5499 -0.3820
19036TIP3   OH278598   6.127   6.422  13.445  0.6122 -0.2623  0.3693
19036TIP3    H178599   6.178   6.368  13.505 -0.4146 -1.3644  0.2857
19036TIP3    H278600   6.046   6.373  13.432  0.7393  0.0330 -1.8111
19037TIP3   OH278601   1.588   0.327  14.481 -0.7415  0.3740  0.1871
19037TIP3    H178602   1.534   0.359  14.553 -0.4798  0.4829  0.3342
19037TIP3    H278603   1.584   0.397  14.415 -0.2824  0.6553  0.4510
19038TIP3   OH278604   6.757   0.947   5.107  0.4406  0.8057 -0.1822
19038TIP3    H178605   6.737   0.940   5.201 -2.0204 -0.7585 -0.6994
19038TIP3    H278606   6.699   1.016   5.076 -0.6297 -0.3578 -0.8995
19039TIP3   OH278607   1.957   2.771  14.477 -0.6180 -0.1963 -0.0618
19039TIP3    H178608   1.885   2.712  14.454 -0.3187 -0.2581 -0.8678
19039TIP3    H278609   2.036   2.723  14.455 -0.2865 -0.3689  1.3843
19040TIP3   OH278610   5.013   1.720   5.356  0.0646  0.0341  0.3612
19040TIP3    H178611   4.998   1.765   5.439 -0.1692  1.6627 -0.5302
19040TIP3    H278612   4.940   1.658   5.349  0.5071 -0.6582  1.7070
19041TIP3   OH278613   0.188   3.788  11.296 -0.1594 -0.2364  0.0221
19041TIP3    H178614   0.150   3.842  11.365 -0.2306 -0.7552  0.3973
19041TIP3    H278615   0.146   3.819  11.216 -0.7575 -0.2409  0.3283
19042TIP3   OH278616   5.350   6.682   3.345  0.5268  0.3599 -0.0252
19042TIP3    H178617   5.412   6.755   3.349 -1.0662  1.7503  2.6349
19042TIP3    H278618   5.340   6.653   3.436 -1.9577 -0.3872 -0.4401
19043TIP3   OH278619   3.170   6.396   5.283  0.5561  0.0975  0.2168
19043TIP3    H178620   3.192   6.364   5.371  1.8065  1.3768  0.4121
19043TIP3    H278621   3.137   6.319   5.237  1.2713 -0.9338  1.3610
19044TIP3   OH278622   2.322   0.028  13.632  0.0813  0.1829 -0.0565
19044TIP3    H178623   2.295   0.028  13.724  0.1079  1.5820 -0.0206
19044TIP3    H278624   2.401   0.081  13.631 -0.2816  0.7291 -0.9696
19045TIP3   OH278625   3.209   6.203   1.162  0.1909 -0.1259  0.8714
19045TIP3    H178626   3.185   6.119   1.199 -0.6316  0.0757  0.7986
19045TIP3    H278627   3.302   6.213   1.184  0.0437 -0.6012  1.7185
19046TIP3   OH278628   1.516   5.283  12.970 -0.2117  0.0781  0.2622
19046TIP3    H178629   1.476   5.343  13.033 -0.4869 -1.0202  1.1836
19046TIP3    H278630   1.595   5.252  13.014  1.9135  2.4296 -1.6391
19047TIP3   OH278631   4.703   3.586   4.046 -0.0366  0.2261 -0.0737
19047TIP3    H178632   4.713   3.494   4.025  0.2767  0.4926 -1.1261
19047TIP3    H278633   4.618   3.591   4.090 -0.4841 -0.4283 -0.8383
19048TIP3   OH278634   0.915   5.936   0.508 -0.5032  0.0437  0.0236
19048TIP3    H178635   1.005   5.966   0.517 -1.3744  2.4872  1.7418
19048TIP3    H278636   0.876   5.995   0.443 -1.4069  0.5661  1.0023
19049TIP3   OH278637   3.045   3.962  14.149 -0.2430  0.2404  0.5150
19049TIP3    H178638   3.094   4.044  14.156 -0.2221  0.2552  0.2235
19049TIP3    H278639   2.955   3.990  14.132 -0.0607  0.2027 -0.6326
19050TIP3   OH278640   4.569   5.786   1.786 -0.3044 -0.0147  0.2748
19050TIP3    H178641   4.660   5.773   1.812  0.2251 -0.6390 -1.7358
19050TIP3    H278642   4.544   5.869   1.827  1.7343  1.0556 -0.5240
19051TIP3   OH278643   1.002   2.994   3.120 -0.0163  0.3022 -0.2559
19051TIP3    H178644   0.960   2.915   3.155 -0.5667  0.9657  0.6185
19051TIP3    H278645   1.092   2.987   3.150  0.7160 -1.3685 -2.5391
19052TIP3   OH278646   2.820   1.484  14.361  0.0367 -0.7348  0.2619
19052TIP3    H178647   2.725   1.500  14.362  0.3353  1.4645 -0.3624
19052TIP3    H278648   2.838   1.455  14.272 -0.0568 -1.3777  0.4448
19053TIP3   OH278649   3.231   2.757   2.682 -0.4044 -0.2215 -0.3388
19053TIP3    H178650   3.324   2.766   2.703 -0.0991 -1.2985 -1.1403
19053TIP3    H278651   3.206   2.843   2.649 -0.1428  0.5891  1.4983
19054TIP3   OH278652   4.786   0.796  16.728 -0.0294  0.1012 -0.6291
19054TIP3    H178653   4.813   0.887  16.737 -0.2202  0.0421  0.7517
19054TIP3    H278654   4.782   0.781  16.633 -1.2734  1.8998 -0.9018
19055TIP3   OH278655   5.567   6.610  14.846 -0.0135 -0.3807  0.1656
19055TIP3    H178656   5.531   6.522  14.843  1.4477 -1.0095  0.0621
19055TIP3    H278657   5.522   6.653  14.918 -1.8696 -0.6699 -0.7611
19056TIP3   OH278658   4.372   1.103   6.338  0.4562  0.0223 -0.5412
19056TIP3    H178659   4.402   1.053   6.415 -0.4701  1.0182  0.5042
19056TIP3    H278660   4.279   1.082   6.331  0.5919 -0.2537 -1.5619
19057TIP3   OH278661   3.399   1.813   5.706 -0.2693  0.2950  0.4381
19057TIP3    H178662   3.420   1.902   5.680 -0.7853  0.3864  0.3207
19057TIP3    H278663   3.441   1.758   5.640 -3.2583  0.5686 -1.9255
19058TIP3   OH278664   4.856   6.691  11.577  0.3305 -0.2691  0.4861
19058TIP3    H178665   4.936   6.685  11.630  1.1475 -0.8297 -0.7568
19058TIP3    H278666   4.880   6.651  11.493 -0.9064  0.6416 -0.3315
19059TIP3   OH278667   6.062   4.458  12.282 -0.1084  0.3981 -0.1288
19059TIP3    H178668   6.071   4.362  12.286 -0.1099  0.4227  0.9378
19059TIP3    H278669   6.152   4.490  12.275  0.1449  0.3770  2.2141
19060TIP3   OH278670   4.126   3.478   5.614  0.0092  0.4252 -0.4692
19060TIP3    H178671   4.203   3.534   5.617 -0.2524  0.8412 -1.1194
19060TIP3    H278672   4.057   3.530   5.655  0.6414 -0.9727  2.6419
19061TIP3   OH278673   5.200   2.905   5.385 -0.1612 -0.2451  0.0594
19061TIP3    H178674   5.116   2.933   5.422 -0.0286 -0.5181  0.5759
19061TIP3    H278675   5.265   2.958   5.431 -0.1343  1.3264 -1.6318
19062TIP3   OH278676   0.133   2.747   4.212  1.1878  0.2493 -0.2437
19062TIP3    H178677   0.176   2.665   4.189  1.7634  0.1091  1.1711
19062TIP3    H278678   0.202   2.813   4.206  0.8774  0.5329 -0.7825
19063TIP3   OH278679   2.486   2.079  14.815  0.4118  0.2750  0.0047
19063TIP3    H178680   2.489   2.070  14.720  0.8188  0.6088 -0.0181
19063TIP3    H278681   2.503   1.991  14.849  1.3731  0.3567 -0.2282
19064TIP3   OH278682   0.344   3.585   0.054  0.4332  0.3302  0.4744
19064TIP3    H178683   0.433   3.592   0.086  1.5344 -0.7288 -2.0523
19064TIP3    H278684   0.335   3.658  -0.008  0.4792 -0.9602 -1.1269
19065TIP3   OH278685   2.319   0.506   0.934  0.0393 -0.2151 -0.4668
19065TIP3    H178686   2.373   0.568   0.983  0.5606 -1.7101  0.9182
19065TIP3    H278687   2.230   0.539   0.944  0.4325  1.0553 -0.9316
19066TIP3   OH278688   2.824   6.151   2.417  0.0362 -0.1662 -0.2649
19066TIP3    H178689   2.919   6.141   2.418  0.4353  1.1176 -4.4211
19066TIP3    H278690   2.805   6.211   2.489  2.4796  0.3057  0.0725
19067TIP3   OH278691   3.301   3.719   0.773 -0.2104 -0.7862  0.2115
19067TIP3    H178692   3.212   3.734   0.740 -0.9693 -3.2174  0.9265
19067TIP3    H278693   3.349   3.689   0.696  0.2208  1.1039 -0.3133
19068TIP3   OH278694   3.226   3.432  15.960 -0.3837  0.8812  0.7710
19068TIP3    H178695   3.164   3.362  15.981  0.0830  0.8441  2.1535
19068TIP3    H278696   3.200   3.462  15.874  0.5654 -2.2965 -0.7872
19069TIP3   OH278697   2.077   5.643   4.038 -0.2497  0.4451 -0.6239
19069TIP3    H178698   1.982   5.653   4.029 -0.5056 -1.0000  0.1437
19069TIP3    H278699   2.113   5.681   3.957 -1.6169 -1.0004 -1.9756
19070TIP3   OH278700   5.725   2.811   2.892  0.5702 -0.7113 -0.2756
19070TIP3    H178701   5.821   2.815   2.894  0.5866 -1.1321 -0.2880
19070TIP3    H278702   5.702   2.749   2.961  0.1922  1.3354  1.5603
19071TIP3   OH278703   0.623   6.617   2.404 -0.2057  0.5128  0.0405
19071TIP3    H178704   0.669   6.700   2.410  2.4283 -0.9076  0.8361
19071TIP3    H278705   0.687   6.556   2.368 -1.0464 -1.8269  2.1656
19072TIP3   OH278706   1.641   1.199  11.594 -0.3736 -0.5537 -0.5133
19072TIP3    H178707   1.730   1.165  11.596 -0.9316 -2.0572  1.0050
19072TIP3    H278708   1.585   1.122  11.597 -1.7079  0.3894  0.4710
19073TIP3   OH278709   5.529   1.000  14.878  0.3577 -0.2482 -0.1725
19073TIP3    H178710   5.519   0.930  14.942 -2.1703  0.2634  0.0956
19073TIP3    H278711   5.440   1.023  14.853  1.0327  3.1431  0.0634
19074TIP3   OH278712   4.088   0.433   1.907  0.0271 -0.2666  0.2046
19074TIP3    H178713   4.038   0.507   1.872  0.7034  0.2252  0.2685
19074TIP3    H278714   4.128   0.392   1.831 -1.2890 -1.2957  0.0297
19075TIP3   OH278715   3.428   2.326   1.811  0.0311 -0.0223  0.3906
19075TIP3    H178716   3.431   2.411   1.857  0.5569 -0.8818  2.0412
19075TIP3    H278717   3.357   2.278   1.854 -2.1308  0.4773 -2.3319
19076TIP3   OH278718   6.647   4.168  13.134 -0.4878  0.7444  0.8529
19076TIP3    H178719   6.713   4.211  13.188 -1.9468  1.2333  2.3392
19076TIP3    H278720   6.602   4.241  13.090  0.3460  0.3797 -0.6379
19077TIP3   OH278721   5.900   6.295  11.142  0.6170  0.1758 -0.2119
19077TIP3    H178722   5.885   6.313  11.050 -0.7315 -0.4169 -0.1197
19077TIP3    H278723   5.842   6.355  11.189  2.1974  1.3731  0.3291
19078TIP3   OH278724   2.139   1.897  11.412  0.3008 -0.1888  0.1915
19078TIP3    H178725   2.116   1.885  11.320  0.3375 -2.4136  0.4349
19078TIP3    H278726   2.057   1.884  11.459  0.9873 -3.4071  0.7131
19079TIP3   OH278727   4.703   4.855  11.350 -0.0180 -0.0244  0.1754
19079TIP3    H178728   4.757   4.803  11.291 -0.3082 -1.0658  0.8010
19079TIP3    H278729   4.619   4.863  11.306  0.7460  2.1321 -1.0936
19080TIP3   OH278730   0.770   0.641  13.422  0.3155 -0.5162  0.4813
19080TIP3    H178731   0.736   0.722  13.460 -1.7856 -0.3055 -1.6290
19080TIP3    H278732   0.842   0.669  13.365  0.0879 -0.1994  0.3463
19081TIP3   OH278733   3.548   1.167   4.735  0.0341 -0.1996  0.0463
19081TIP3    H178734   3.615   1.101   4.753  0.2168 -0.0150  0.0418
19081TIP3    H278735   3.567   1.198   4.647 -0.3698 -0.5162 -0.1559
19082TIP3   OH278736   3.655   1.697   2.876  0.7394 -0.0793  0.0449
19082TIP3    H178737   3.565   1.709   2.905  1.0074  0.8982  0.5274
19082TIP3    H278738   3.665   1.603   2.864 -0.4901 -0.1577 -0.5054
19083TIP3   OH278739   6.473   0.638  11.118  0.1321 -0.0837 -0.2018
19083TIP3    H178740   6.446   0.720  11.160 -1.6477 -0.8223  0.1880
19083TIP3    H278741   6.431   0.639  11.033  1.5471  0.1729 -0.9305
19084TIP3   OH278742   3.109   3.905   0.201 -0.2981  0.5332 -0.9102
19084TIP3    H178743   3.192   3.859   0.188 -1.4099 -2.6995  1.9430
19084TIP3    H278744   3.069   3.908   0.114  1.3121 -0.9415 -1.7561
19085TIP3   OH278745   5.059   2.374  14.055 -0.1340  0.6052  0.6455
19085TIP3    H178746   5.111   2.422  13.990  3.3644 -2.7302  0.6069
19085TIP3    H278747   5.112   2.377  14.134 -0.4731 -1.8588  1.0251
19086TIP3   OH278748   5.781   5.233  13.466  0.3810  0.5137  0.5099
19086TIP3    H178749   5.825   5.226  13.551  0.1603  0.2599  0.6044
19086TIP3    H278750   5.774   5.143  13.435  0.8206  0.6397  0.0334
19087TIP3   OH278751   3.492   4.652   2.760 -0.2242 -0.2708 -0.3698
19087TIP3    H178752   3.432   4.587   2.796  1.5274 -1.9179 -0.2987
19087TIP3    H278753   3.476   4.650   2.666 -0.4677 -0.5103 -0.3240
19088TIP3   OH278754   2.362   1.707  13.646  0.2906  0.0154  0.7915
19088TIP3    H178755   2.377   1.800  13.630  3.6449 -0.2487  1.5855
19088TIP3    H278756   2.346   1.700  13.740  1.8237 -0.2854  1.0673
19089TIP3   OH278757   1.084   5.170  15.760  0.5832 -0.4048  0.3307
19089TIP3    H178758   1.121   5.256  15.742  0.8334 -0.1980  1.7904
19089TIP3    H278759   1.150   5.108  15.729  1.3715 -0.0519  1.2718
19090TIP3   OH278760   3.030   2.189  14.137 -0.1668 -0.6858 -0.4213
19090TIP3    H178761   2.953   2.237  14.168 -0.6812 -1.0245 -1.1356
19090TIP3    H278762   3.041   2.119  14.201  0.5425  0.3138  0.5865
19091TIP3   OH278763   3.891   3.766   3.704 -0.2972 -0.2710  0.3491
19091TIP3    H178764   3.853   3.854   3.701  0.2767  0.0011 -3.5761
19091TIP3    H278765   3.818   3.710   3.729 -1.0008  1.1256  1.6293
19092TIP3   OH278766   2.127   2.446   3.200  0.1514 -0.5596 -0.4493
19092TIP3    H178767   2.042   2.423   3.237  1.2327 -2.1667  1.1783
19092TIP3    H278768   2.113   2.443   3.105 -1.5878 -0.8049 -0.2211
19093TIP3   OH278769   0.881   6.153   0.277  0.2403  0.2145  0.0070
19093TIP3    H178770   0.914   6.130   0.190 -1.0143 -0.6476 -0.2674
19093TIP3    H278771   0.947   6.212   0.313  0.1132  1.7417 -2.0831
19094TIP3   OH278772   4.414   6.313   4.259 -0.4802  0.3721  0.6046
19094TIP3    H178773   4.371   6.305   4.344  1.2953  1.8981  1.7451
19094TIP3    H278774   4.413   6.224   4.223 -2.1480 -0.1171  1.7426
19095TIP3   OH278775   1.660   3.805  16.335 -0.8503 -0.0631 -0.0199
19095TIP3    H178776   1.751   3.789  16.359  0.3654  2.0553 -2.6890
19095TIP3    H278777   1.637   3.733  16.277 -0.8454 -0.4946  0.5054
19096TIP3   OH278778   4.990   0.774   4.811  0.1992  0.0587 -0.0713
19096TIP3    H178779   4.898   0.799   4.825  0.2170 -0.3632  0.8874
19096TIP3    H278780   5.025   0.762   4.899  0.8099 -1.0565 -0.4402
19097TIP3   OH278781   5.628   0.541   4.944  0.1679  0.3228  0.1612
19097TIP3    H178782   5.701   0.488   4.977  0.0407  1.0732  1.7277
19097TIP3    H278783   5.556   0.479   4.934  0.3398 -0.0000  0.8958
19098TIP3   OH278784   1.065   6.296   1.504 -0.2523 -0.1522 -0.0284
19098TIP3    H178785   1.042   6.288   1.411 -1.4188  2.3092 -0.0164
19098TIP3    H278786   1.030   6.216   1.544 -2.0393 -0.0545 -1.2935
19099TIP3   OH278787   3.973   5.397  13.455  0.2554  0.4386  0.4231
19099TIP3    H178788   3.946   5.319  13.504 -1.6381  1.1737  0.6300
19099TIP3    H278789   3.962   5.373  13.363  0.1105  0.3135  0.4736
19100TIP3   OH278790   2.213   3.461   2.314 -0.1209  0.3347  0.4149
19100TIP3    H178791   2.240   3.457   2.406 -1.7016  1.3102  0.9522
19100TIP3    H278792   2.160   3.382   2.302 -1.7120  1.2917  0.9733
19101TIP3   OH278793   6.649   2.523   5.417 -1.0012 -0.2884  0.6402
19101TIP3    H178794   6.632   2.507   5.510 -0.7993  0.3301  0.7876
19101TIP3    H278795   6.696   2.445   5.388 -0.4043 -0.1606  1.2441
19102TIP3   OH278796   0.858   4.571  10.513  0.0738 -0.0114 -0.4531
19102TIP3    H178797   0.935   4.628  10.508  0.6622 -0.8362 -1.2687
19102TIP3    H278798   0.846   4.555  10.606  1.1006 -0.1231 -0.3295
19103TIP3   OH278799   6.731   0.249  13.614 -0.0505 -0.4050 -0.4268
19103TIP3    H178800   6.779   0.211  13.541  0.3060 -0.7859 -0.0007
19103TIP3    H278801   6.734   0.182  13.682 -1.8548 -0.7693 -0.6451
19104TIP3   OH278802   5.194   0.424  17.195 -0.2282  0.2079 -0.2937
19104TIP3    H178803   5.274   0.390  17.236 -0.3569 -0.7900 -0.8327
19104TIP3    H278804   5.219   0.438  17.104 -0.1398  1.7446 -0.0546
19105TIP3   OH278805   1.798   4.654  10.668 -0.6790 -0.2538 -0.1566
19105TIP3    H178806   1.762   4.727  10.618  1.9692 -0.4737 -2.6546
19105TIP3    H278807   1.819   4.692  10.753 -1.0107  1.4360 -0.7931
19106TIP3   OH278808   4.460   5.333   5.784  0.2316  0.3199  0.4800
19106TIP3    H178809   4.377   5.310   5.741  0.9020 -1.1634 -0.0673
19106TIP3    H278810   4.450   5.303   5.874  0.7385 -1.3055  0.0151
19107TIP3   OH278811   2.896   5.177  16.399  0.6750 -0.2174  0.0660
19107TIP3    H178812   2.831   5.242  16.426  0.6395 -0.2459  0.0496
19107TIP3    H278813   2.979   5.225  16.398  0.9816 -0.6175  1.9615
19108TIP3   OH278814   1.351   6.793  13.358  0.1654 -0.3310 -0.6170
19108TIP3    H178815   1.260   6.766  13.370 -0.4335  1.2524 -1.3634
19108TIP3    H278816   1.353   6.837  13.273  1.6678 -0.4598 -0.6854
19109TIP3   OH278817   5.234   0.996  11.670 -0.0038 -0.2757 -0.1519
19109TIP3    H178818   5.294   0.968  11.739 -0.4754  0.2202  0.4827
19109TIP3    H278819   5.153   1.017  11.717  0.1141  1.4859 -0.6646
19110TIP3   OH278820   4.633   5.587  15.249 -0.1540  0.5017 -0.4315
19110TIP3    H178821   4.551   5.538  15.251 -0.0324  0.3032 -0.2650
19110TIP3    H278822   4.631   5.641  15.328  0.6560 -0.7848  0.4921
19111TIP3   OH278823   4.187   0.531  11.040  0.0790  0.9198 -0.5844
19111TIP3    H178824   4.226   0.453  11.001 -1.7846 -0.5039  0.2472
19111TIP3    H278825   4.127   0.564  10.973  0.0791  1.0356 -0.5283
19112TIP3   OH278826   4.818   3.491  15.128  0.2938 -0.2942  0.4817
19112TIP3    H178827   4.781   3.411  15.166 -0.9157 -0.8329 -1.6611
19112TIP3    H278828   4.883   3.459  15.065  0.2824  0.4269  0.0992
19113TIP3   OH278829   4.243   1.890  11.488 -0.6311  0.3523  0.1225
19113TIP3    H178830   4.206   1.924  11.406  0.6581  1.9915  0.1758
19113TIP3    H278831   4.278   1.804  11.465  0.2185  1.0269 -1.2132
19114TIP3   OH278832   3.479   2.279  15.704  0.2477  0.0690 -0.7742
19114TIP3    H178833   3.393   2.282  15.662  1.1659  0.3367 -2.7323
19114TIP3    H278834   3.504   2.370  15.715  0.0045  0.0052  0.4568
19115TIP3   OH278835   5.855   1.366   1.487 -0.1748  0.1348  0.0339
19115TIP3    H178836   5.807   1.436   1.530  0.1267  2.4061 -3.0263
19115TIP3    H278837   5.942   1.369   1.526 -0.1945  1.4148  0.0100
19116TIP3   OH278838   5.143   1.460   2.266  0.3800  0.5310  0.0767
19116TIP3    H178839   5.228   1.419   2.254  0.0812 -0.1305  0.1805
19116TIP3    H278840   5.138   1.525   2.195  1.0530  0.7224  0.2033
19117TIP3   OH278841   3.234   0.400  15.734  0.1311  0.1860 -0.6036
19117TIP3    H178842   3.147   0.419  15.770 -0.3591 -0.9488 -1.1307
19117TIP3    H278843   3.281   0.358  15.806  1.2226  3.1424  0.5701
19118TIP3   OH278844   5.217   3.133  12.427  0.2087 -0.2060  0.4462
19118TIP3    H178845   5.251   3.223  12.419 -2.4138  0.8963  0.7084
19118TIP3    H278846   5.215   3.117  12.522  0.5099 -0.4942  0.4066
19119TIP3   OH278847   1.554   0.842  14.486  0.1935  0.4447 -0.2385
19119TIP3    H178848   1.601   0.836  14.403  0.4840 -2.1088  0.0386
19119TIP3    H278849   1.465   0.867  14.461  0.4209  0.2937 -1.2605
19120TIP3   OH278850   5.939   0.611   4.992  0.3409  0.6145  0.1836
19120TIP3    H178851   5.965   0.522   4.968 -3.0472 -0.7379  0.9038
19120TIP3    H278852   5.914   0.652   4.909  1.1281  0.6293 -0.0530
19121TIP3   OH278853   6.087   1.857  11.305  0.1379 -0.1646  0.5670
19121TIP3    H178854   6.036   1.826  11.230  2.5854  0.7770 -1.6499
19121TIP3    H278855   6.134   1.779  11.335 -0.0024 -0.3198  0.3920
19122TIP3   OH278856   6.261   3.772   5.005 -0.3483  0.8130 -0.3540
19122TIP3    H178857   6.289   3.857   5.041 -1.0693  0.4093  1.2254
19122TIP3    H278858   6.197   3.795   4.937 -0.2258  1.5342 -0.2395
19123TIP3   OH278859   4.418   4.823  16.675  0.0661 -0.0436  0.2432
19123TIP3    H178860   4.491   4.866  16.631 -0.5656 -0.7249 -1.5565
19123TIP3    H278861   4.457   4.747  16.718  0.5978  0.2653  0.3206
19124TIP3   OH278862   3.884   4.480  14.502 -0.1333 -0.2441 -0.1189
19124TIP3    H178863   3.872   4.494  14.596  0.3902 -0.8706  0.0522
19124TIP3    H278864   3.871   4.386  14.490 -1.8778  0.0603 -0.9579
19125TIP3   OH278865   4.409   2.200   1.234 -0.5635 -0.1521  0.2865
19125TIP3    H178866   4.504   2.209   1.239 -0.6976  0.5761  2.7266
19125TIP3    H278867   4.394   2.157   1.150  1.9081 -0.3148 -0.1605
19126TIP3   OH278868   2.292   2.554  14.253  0.4416 -1.0017 -0.4209
19126TIP3    H178869   2.379   2.561  14.292  0.6964 -1.1117 -0.9526
19126TIP3    H278870   2.234   2.533  14.326  0.6911  0.1033  0.1142
19127TIP3   OH278871   2.347   6.720   5.950  0.2303  0.6261 -0.3899
19127TIP3    H178872   2.355   6.626   5.970  0.5013 -0.0277 -3.1305
19127TIP3    H278873   2.436   6.754   5.959  0.1561  0.6001  0.4819
19128TIP3   OH278874   6.329   2.426  12.661 -0.3167  0.4551 -0.6754
19128TIP3    H178875   6.250   2.479  12.657 -0.3786  0.4501  0.1487
19128TIP3    H278876   6.354   2.428  12.754  0.1234 -0.2973 -0.7646
19129TIP3   OH278877   1.678   0.172  12.008  0.4182 -0.0086 -0.2764
19129TIP3    H178878   1.602   0.114  12.016 -0.3680  0.6833 -2.1832
19129TIP3    H278879   1.685   0.191  11.914  2.1986  0.9563 -0.0067
19130TIP3   OH278880   1.523   3.538   0.683 -0.1133 -0.2752 -0.4368
19130TIP3    H178881   1.562   3.552   0.769  0.7783  0.1700 -0.8966
19130TIP3    H278882   1.532   3.622   0.639  0.8841 -0.9136 -1.5148
19131TIP3   OH278883   6.507   3.183   5.909  0.2999  0.1622 -0.1004
19131TIP3    H178884   6.583   3.145   5.953  0.8234 -0.2179 -1.2974
19131TIP3    H278885   6.456   3.224   5.979  2.0896  1.2746  0.6060
19132TIP3   OH278886   6.677   2.085   0.553  0.0795  0.2743  0.6518
19132TIP3    H178887   6.714   2.043   0.475  0.5494  0.2572  0.8772
19132TIP3    H278888   6.750   2.135   0.590 -0.6527  1.9228 -0.0244
19133TIP3   OH278889   2.440   3.095   1.571  0.2059 -0.0645 -0.2909
19133TIP3    H178890   2.414   3.107   1.479 -0.6349  0.2119 -0.0267
19133TIP3    H278891   2.427   3.181   1.611  0.7594 -0.1345  0.0456
19134TIP3   OH278892   6.816   0.464  14.626 -0.1610 -0.1145  0.0289
19134TIP3    H178893   6.775   0.410  14.559  0.4324 -1.3231  0.6158
19134TIP3    H278894   6.743   0.515  14.664 -1.7176 -3.8658  2.6575
19135TIP3   OH278895   5.413   3.765  11.339  0.3096 -0.3354  0.8756
19135TIP3    H178896   5.452   3.840  11.293  1.1738 -1.2048  0.1496
19135TIP3    H278897   5.393   3.799  11.426 -0.8291  1.1927  0.0710
19136TIP3   OH278898   2.987   5.264  12.542 -0.0268  0.1105  0.2310
19136TIP3    H178899   3.014   5.281  12.451 -0.9102 -0.1184 -0.0860
19136TIP3    H278900   2.891   5.273  12.540 -0.4162 -2.8677  0.4448
19137TIP3   OH278901   5.276   6.325   3.048 -0.1293  0.8296  0.2567
19137TIP3    H178902   5.296   6.411   3.012  0.2961  1.2173  1.4014
19137TIP3    H278903   5.309   6.264   2.982 -1.3290  1.5159 -1.0407
19138TIP3   OH278904   3.001   6.807   3.169 -0.1469  0.2972 -0.5670
19138TIP3    H178905   3.066   6.777   3.233  0.6116  1.7455 -0.6327
19138TIP3    H278906   2.931   6.846   3.222 -1.8510 -2.6932 -0.3835
19139TIP3   OH278907   3.914   6.158  15.955  0.1386 -0.1623  0.2565
19139TIP3    H178908   3.935   6.105  15.878  3.6447  0.6583  0.4604
19139TIP3    H278909   3.878   6.096  16.018  0.5431 -1.5556 -0.8390
19140TIP3   OH278910   4.021   0.536   4.043 -0.6032 -0.1030  0.0623
19140TIP3    H178911   4.000   0.566   3.954 -0.8039  0.1161  0.1806
19140TIP3    H278912   3.988   0.606   4.100 -1.0154 -0.5169  0.3436
19141TIP3   OH278913   6.776   1.772   2.116 -0.0478 -0.2153 -0.0633
19141TIP3    H178914   6.839   1.712   2.155  2.2488  1.5229 -0.8794
19141TIP3    H278915   6.723   1.803   2.189  2.6545  1.2558  1.3815
19142TIP3   OH278916   0.345   0.299  13.600  0.2496 -1.2431  0.0938
19142TIP3    H178917   0.354   0.208  13.573  0.6203 -0.6074 -2.1377
19142TIP3    H278918   0.383   0.349  13.528 -0.9935  0.7280  0.7283
19143TIP3   OH278919   4.890   6.323   0.604 -0.2923  0.2577  0.2416
19143TIP3    H178920   4.942   6.275   0.540  1.7894  1.8717  0.5811
19143TIP3    H278921   4.878   6.410   0.565 -0.1235  0.8457  1.4559
19144TIP3   OH278922   3.432   3.686   1.451  0.4870 -0.0894  0.5602
19144TIP3    H178923   3.456   3.714   1.363 -0.0505 -0.5419  0.2643
19144TIP3    H278924   3.475   3.601   1.461 -0.1830 -0.4592  0.3864
19145TIP3   OH278925   1.868   5.988  16.815  0.2267  0.4466  0.0083
19145TIP3    H178926   1.785   6.033  16.830 -0.7997 -1.4107  0.2068
19145TIP3    H278927   1.906   5.977  16.902 -0.9383 -1.5709  0.3153
19146TIP3   OH278928   6.807   4.144  11.390  0.2986 -0.2221  0.4443
19146TIP3    H178929   6.783   4.112  11.303 -1.3226  0.1252  0.7370
19146TIP3    H278930   6.768   4.232  11.395  1.7208  0.4137  0.9534
19147TIP3   OH278931   6.129   5.869  16.713  0.1070  0.3562  0.0935
19147TIP3    H178932   6.049   5.896  16.669  0.5521 -1.2708 -1.8410
19147TIP3    H278933   6.100   5.805  16.779 -0.1712 -0.6354 -0.9673
19148TIP3   OH278934   4.066   5.019  11.995  0.4320 -0.2112  0.5224
19148TIP3    H178935   4.077   5.112  12.012 -0.2128 -0.1492  0.6145
19148TIP3    H278936   4.139   4.996  11.937  0.0580  0.5499 -0.2608
19149TIP3   OH278937   5.953   5.456   4.412 -0.0530  0.3763 -0.0636
19149TIP3    H178938   5.979   5.548   4.408  0.5418  0.2186 -0.0146
19149TIP3    H278939   5.892   5.444   4.340 -0.5078  0.9235  0.2273
19150TIP3   OH278940   6.713   1.569  13.074  0.0790 -0.1387 -0.3110
19150TIP3    H178941   6.808   1.575  13.077  0.0431 -0.0047  0.6835
19150TIP3    H278942   6.681   1.653  13.106 -0.3682 -0.5563  0.3851
19151TIP3   OH278943   3.417   2.034  12.830 -0.0951 -0.1093 -0.3677
19151TIP3    H178944   3.505   2.000  12.846 -1.0319 -2.6611 -0.1521
19151TIP3    H278945   3.380   2.047  12.917 -0.6473 -1.2200 -0.4074
19152TIP3   OH278946   0.355   1.019   5.188 -0.3859  0.6738 -0.8861
19152TIP3    H178947   0.333   0.931   5.218 -0.3506  0.6098 -1.0494
19152TIP3    H278948   0.448   1.014   5.164 -0.3320  0.8051 -0.7123
19153TIP3   OH278949   5.454   3.015   2.945  0.1389 -0.0516  0.7067
19153TIP3    H178950   5.467   2.956   2.870  1.9358 -0.3446  1.2009
19153TIP3    H278951   5.382   3.072   2.918  0.7478 -0.1403 -1.2632
19154TIP3   OH278952   3.538   2.634   3.030 -0.0152 -0.4161 -0.6819
19154TIP3    H178953   3.606   2.688   3.071 -1.1983  0.1591  0.5901
19154TIP3    H278954   3.502   2.583   3.102 -1.4327 -0.1535 -1.1770
19155TIP3   OH278955   2.134   6.452  10.986 -0.0711 -0.2767  0.2938
19155TIP3    H178956   2.041   6.443  11.007 -0.9036  0.6799 -2.5967
19155TIP3    H278957   2.156   6.373  10.937  0.4059 -0.0644  0.1538
19156TIP3   OH278958   3.227   5.830  15.953 -0.1629 -0.1991  0.3489
19156TIP3    H178959   3.277   5.908  15.926 -3.7962  2.5660  0.8287
19156TIP3    H278960   3.205   5.847  16.045 -0.3755 -2.2505  0.7130
19157TIP3   OH278961   1.812   2.756   4.639  0.1519 -0.4734  0.4330
19157TIP3    H178962   1.776   2.703   4.568 -0.0819  0.1832  0.0548
19157TIP3    H278963   1.754   2.832   4.644  0.6749 -0.0891  0.7535
19158TIP3   OH278964   3.691   2.099  14.971  0.0780  0.1596  0.2332
19158TIP3    H178965   3.643   2.016  14.961  0.7260  0.0041 -1.9669
19158TIP3    H278966   3.740   2.088  15.053 -0.4198 -1.3238  0.3667
19159TIP3   OH278967   2.760   1.310  13.555 -0.4749 -0.0049 -0.2537
19159TIP3    H178968   2.822   1.373  13.591  0.9070 -1.7919  0.6796
19159TIP3    H278969   2.733   1.348  13.471  1.3122  1.1994 -0.3422
19160TIP3   OH278970   3.152   4.994   3.022  0.2314 -0.1926 -0.1932
19160TIP3    H178971   3.200   5.009   3.104  0.6041  0.7346 -0.5638
19160TIP3    H278972   3.207   5.034   2.954 -1.3164  1.4171 -0.5749
19161TIP3   OH278973   6.447   3.428   1.035 -0.6613  0.4542 -0.0722
19161TIP3    H178974   6.378   3.365   1.052 -1.8755  1.8070  0.2283
19161TIP3    H278975   6.406   3.513   1.051  0.7708  1.3501 -0.9315
19162TIP3   OH278976   0.059   4.214   4.901 -0.2318 -0.2715 -0.1495
19162TIP3    H178977  -0.020   4.238   4.853  0.2451  0.6502 -0.4949
19162TIP3    H278978   0.038   4.129   4.941 -1.8830  0.5730  0.8863
19163TIP3   OH278979   4.976   5.046  13.302  0.3536  0.1523 -0.0426
19163TIP3    H178980   5.060   5.008  13.325 -0.6934 -0.3332  3.5938
19163TIP3    H278981   4.914   4.973  13.310 -0.5638  0.6219 -2.1019
19164TIP3   OH278982   6.410   0.710   5.617  0.7278  0.5210 -0.1872
19164TIP3    H178983   6.487   0.751   5.578  0.4032  0.1010 -1.3314
19164TIP3    H278984   6.440   0.677   5.701  2.1673 -0.7584 -1.1467
19165TIP3   OH278985   4.074   5.255   3.070 -0.0765  0.1204 -0.1732
19165TIP3    H178986   4.128   5.193   3.021  0.5800  0.0471  0.6008
19165TIP3    H278987   3.998   5.204   3.098  0.3573 -0.2998  0.2799
19166TIP3   OH278988   4.853   5.582   5.754  0.1880  0.3731  0.3755
19166TIP3    H178989   4.858   5.581   5.850 -1.1674  0.5164  0.4679
19166TIP3    H278990   4.811   5.499   5.731  1.6559 -0.2340 -0.1978
19167TIP3   OH278991   4.409   0.688   6.234 -0.4471 -0.3003 -0.1676
19167TIP3    H178992   4.319   0.722   6.241 -0.0325  1.2664 -1.8065
19167TIP3    H278993   4.423   0.675   6.141  1.5634  1.0220 -0.1031
19168TIP3   OH278994   4.144   2.196   6.549  0.2550  0.2000  0.2116
19168TIP3    H178995   4.094   2.180   6.629  1.2753  1.4676  1.1482
19168TIP3    H278996   4.136   2.290   6.534 -0.0218 -0.0260 -1.2833
19169TIP3   OH278997   0.094   4.781  16.754 -0.4395 -0.0924 -0.2364
19169TIP3    H178998   0.090   4.849  16.686 -1.8213  1.6871  1.4995
19169TIP3    H278999   0.186   4.753  16.754  0.4285  2.4459 -0.4583
19170TIP3   OH279000   5.448   6.171   5.098  0.0876  0.0722  0.1252
19170TIP3    H179001   5.530   6.220   5.107  0.9560 -0.9705 -1.7017
19170TIP3    H279002   5.447   6.114   5.175  1.3495 -0.2453 -0.0606
19171TIP3   OH279003   0.056   6.593  11.502 -0.3649  0.0856 -0.0993
19171TIP3    H179004   0.032   6.682  11.527  1.9602  0.7719 -0.0717
19171TIP3    H279005   0.102   6.558  11.578  1.7904  0.1614 -1.2871
19172TIP3   OH279006   5.291   0.127  11.593 -0.1415  0.1486  0.9599
19172TIP3    H179007   5.359   0.175  11.546  0.2955 -1.6699 -0.3940
19172TIP3    H279008   5.316   0.132  11.685  2.8737 -1.8505  0.3978
19173TIP3   OH279009   0.062   4.081  11.818 -0.0229  0.7350  0.7989
19173TIP3    H179010   0.110   4.001  11.794 -0.6895  0.4331  0.4345
19173TIP3    H279011  -0.029   4.053  11.823 -0.0530  1.0417  2.6085
19174TIP3   OH279012   0.692   1.467   1.791  0.4851  0.0352  0.0504
19174TIP3    H179013   0.683   1.406   1.718  0.1963 -1.3951  1.2206
19174TIP3    H279014   0.602   1.486   1.818  0.5846  0.6789 -0.0605
19175TIP3   OH279015   4.694   4.713  16.479  0.3172 -0.3354 -0.4845
19175TIP3    H179016   4.747   4.725  16.557  1.4912 -3.5561 -0.6139
19175TIP3    H279017   4.636   4.639  16.500 -1.1097  0.3213 -1.8347
19176TIP3   OH279018   3.169   2.844  15.017 -0.1545  0.3322  0.0411
19176TIP3    H179019   3.152   2.750  15.010  0.2175  0.0864  1.9060
19176TIP3    H279020   3.258   2.854  14.982  0.4350 -0.2939  1.2948
19177TIP3   OH279021   3.696   0.630  12.222  0.1662 -0.1309  0.6653
19177TIP3    H179022   3.782   0.596  12.196 -0.1603 -0.5796  0.1887
19177TIP3    H279023   3.681   0.704  12.163 -0.8497 -1.5157 -0.8987
19178TIP3   OH279024   1.197   5.410  14.563 -0.3101  0.1983  0.0110
19178TIP3    H179025   1.263   5.454  14.510  1.2526 -2.1757 -0.1748
19178TIP3    H279026   1.247   5.346  14.614 -2.3972 -1.1119  0.5133
19179TIP3   OH279027   5.659   1.835  15.780  0.4162 -0.4647  0.0209
19179TIP3    H179028   5.682   1.744  15.765  0.3422 -0.4228 -0.3782
19179TIP3    H279029   5.639   1.841  15.873  1.3447 -0.6466  0.2375
19180TIP3   OH279030   5.988   3.946   2.807 -0.1412 -0.3763 -0.0799
19180TIP3    H179031   5.952   3.929   2.720 -0.2541 -1.2145  0.1214
19180TIP3    H279032   6.083   3.945   2.795 -0.1328  2.1493 -0.6713
19181TIP3   OH279033   4.467   3.512  14.289  0.0383  0.5741  0.4970
19181TIP3    H179034   4.504   3.515  14.377 -1.1348  0.8985  0.9971
19181TIP3    H279035   4.525   3.569  14.237  2.1980 -1.5273  0.4380
19182TIP3   OH279036   2.788   1.886   5.531  0.3977 -0.4056  1.0807
19182TIP3    H179037   2.799   1.800   5.492 -0.6661 -0.5180  0.9833
19182TIP3    H279038   2.718   1.874   5.596 -1.5043  0.8718 -0.6226
19183TIP3   OH279039   5.783   5.946   5.423 -0.3178 -0.5878  0.3136
19183TIP3    H179040   5.797   6.041   5.422 -0.5399 -0.5560  0.1795
19183TIP3    H279041   5.870   5.909   5.435 -0.3232 -0.3415  1.1435
19184TIP3   OH279042   1.418   1.581  13.506  0.5051 -1.1322  0.1075
19184TIP3    H179043   1.444   1.602  13.416  0.0921 -2.7275 -0.4283
19184TIP3    H279044   1.501   1.573  13.553  0.9445 -3.2441 -0.8858
19185TIP3   OH279045   0.579   0.578  13.699  0.4198 -0.1913  0.1431
19185TIP3    H179046   0.635   0.629  13.641  1.1870 -1.3877 -0.2116
19185TIP3    H279047   0.549   0.641  13.765  2.6983  0.3773  0.7129
19186TIP3   OH279048   6.360   4.477   4.328 -0.1679 -0.5154  0.2666
19186TIP3    H179049   6.440   4.441   4.367  0.6414 -0.0815 -0.9409
19186TIP3    H279050   6.325   4.405   4.275 -1.5213 -1.2622  2.0516
19187TIP3   OH279051   0.408   6.200  17.181  1.1799  0.4082  0.2269
19187TIP3    H179052   0.347   6.266  17.214  0.4146 -0.4326  0.5350
19187TIP3    H279053   0.445   6.160  17.260 -0.1619 -1.1571  0.0969
19188TIP3   OH279054   3.916   2.434  12.069  0.3208  0.0817  0.3517
19188TIP3    H179055   3.833   2.464  12.105  0.1243 -0.3675  0.2680
19188TIP3    H279056   3.918   2.471  11.981 -0.5136 -1.1954 -0.2313
19189TIP3   OH279057   2.569   5.476   4.220 -0.6792 -0.1562 -0.2745
19189TIP3    H179058   2.621   5.472   4.300  0.3922 -1.1199 -0.9929
19189TIP3    H279059   2.541   5.567   4.214 -0.0849  0.1084  0.7571
19190TIP3   OH279060   0.563   0.167  12.309  0.5454 -0.4457 -0.2993
19190TIP3    H179061   0.542   0.209  12.392  1.2829  0.9081 -0.7721
19190TIP3    H279062   0.617   0.092  12.333  1.2278  0.2593  0.4111
19191TIP3   OH279063   3.387   2.069   6.603 -0.1560 -0.0690 -0.9088
19191TIP3    H179064   3.428   2.094   6.686  2.7784  2.1679 -2.8272
19191TIP3    H279065   3.436   1.992   6.575 -1.5177 -1.1702 -0.3998
19192TIP3   OH279066   4.476   3.198   4.779 -0.2409  0.4096  0.1094
19192TIP3    H179067   4.419   3.164   4.711 -1.6134  2.7826 -0.0311
19192TIP3    H279068   4.458   3.144   4.856  0.1643 -1.2711 -0.9337
19193TIP3   OH279069   0.932   1.859  11.703  0.4957  0.4921 -0.0136
19193TIP3    H179070   0.842   1.882  11.724  0.3836 -0.1443  0.2180
19193TIP3    H279071   0.969   1.830  11.787  0.2349 -1.4643 -0.5351
19194TIP3   OH279072   1.851   4.484   0.632 -0.5199  0.0273 -0.1206
19194TIP3    H179073   1.784   4.506   0.567 -1.6886 -1.3895  0.5478
19194TIP3    H279074   1.924   4.450   0.580  0.5700  3.3259 -1.0271
19195TIP3   OH279075   5.169   2.861   1.443  0.2545  0.3391  0.4092
19195TIP3    H179076   5.079   2.856   1.478 -0.7234  0.3089 -1.9460
19195TIP3    H279077   5.176   2.951   1.410  1.2627  0.4684  0.9463
19196TIP3   OH279078   0.969   5.819  12.959 -0.1769 -0.5364 -0.1931
19196TIP3    H179079   0.964   5.914  12.956  0.0241 -0.4472  1.3152
19196TIP3    H279080   0.990   5.793  12.870 -0.5441  0.8083 -0.6957
19197TIP3   OH279081   1.975   5.415  14.828  0.5968  0.1877  0.0755
19197TIP3    H179082   2.056   5.434  14.780  0.8841  1.7391  1.1063
19197TIP3    H279083   1.924   5.495  14.821 -0.3253 -0.3508  0.4946
19198TIP3   OH279084   6.747   4.088   3.157  0.1284  0.1516  0.2408
19198TIP3    H179085   6.792   4.004   3.168 -0.4849 -0.4841 -1.6422
19198TIP3    H279086   6.799   4.150   3.207  1.0064 -1.2104  1.0949
19199TIP3   OH279087   3.464   5.867   3.248 -0.1421 -0.1028 -0.0601
19199TIP3    H179088   3.447   5.885   3.155 -1.7671  2.8258  0.6782
19199TIP3    H279089   3.411   5.790   3.267 -0.8919  0.0793 -1.2680
19200TIP3   OH279090   0.487   3.538  12.109 -0.3509 -0.5055  0.0703
19200TIP3    H179091   0.573   3.539  12.067 -0.0267  2.2616  0.6254
19200TIP3    H279092   0.489   3.461  12.166  2.1332 -0.0175  0.7547
19201TIP3   OH279093   4.442   6.768   2.087  0.8642  0.1041 -0.7230
19201TIP3    H179094   4.536   6.790   2.090  0.8689  0.2640 -1.7150
19201TIP3    H279095   4.401   6.848   2.054  0.4858 -0.2743 -1.1682
19202TIP3   OH279096   0.235   5.704  12.766  0.1777  0.2399 -0.1927
19202TIP3    H179097   0.311   5.660  12.728  0.8207  0.4312  0.8479
19202TIP3    H279098   0.198   5.754  12.693  1.1800  0.3269 -0.6596
19203TIP3   OH279099   0.060   5.042   3.708  0.4518 -0.2911 -0.1008
19203TIP3    H179100   0.024   5.084   3.630 -0.7204  0.3320  0.7462
19203TIP3    H279101   0.088   5.114   3.764 -0.7989 -0.6051  1.0039
19204TIP3   OH279102   2.306   3.893   1.173  0.1835 -0.2391 -0.5505
19204TIP3    H179103   2.281   3.828   1.238 -0.0321 -0.2218 -0.6145
19204TIP3    H279104   2.229   3.950   1.165  0.4279  0.1214 -0.3757
19205TIP3   OH279105   4.881   0.713   0.034 -0.4098 -0.3813  0.0513
19205TIP3    H179106   4.886   0.797   0.081 -0.4741  1.2739 -2.6786
19205TIP3    H279107   4.836   0.735  -0.048  1.9997 -2.4924 -1.9932
19206TIP3   OH279108   5.742   6.492  15.836 -0.2618  0.3067 -0.1653
19206TIP3    H179109   5.716   6.440  15.912 -2.4301 -0.1885 -1.1784
19206TIP3    H279110   5.751   6.581  15.870  0.2385 -0.1377  0.9298
19207TIP3   OH279111   4.889   4.403   2.318  0.3523  0.3929 -0.6822
19207TIP3    H179112   4.815   4.398   2.378  1.0764  1.2424  0.3082
19207TIP3    H279113   4.877   4.486   2.272 -0.9875 -0.8916 -2.8348
19208TIP3   OH279114   6.266   1.115  10.776 -0.6224 -0.4980 -0.5366
19208TIP3    H179115   6.289   1.159  10.694  1.1451 -0.0706  0.1460
19208TIP3    H279116   6.304   1.028  10.769 -0.5499 -0.4949 -0.2330
19209TIP3   OH279117   2.376   5.718  13.082 -0.0971 -0.2638  0.5604
19209TIP3    H179118   2.294   5.723  13.132  0.1286 -0.3294  0.9384
19209TIP3    H279119   2.387   5.625  13.063  0.1850 -0.3245  1.0072
19210TIP3   OH279120   1.235   3.238   4.447  0.2778  0.6575 -0.3248
19210TIP3    H179121   1.181   3.259   4.522 -1.8322  0.9464 -1.8286
19210TIP3    H279122   1.186   3.273   4.372  1.5580 -0.8932 -1.9675
19211TIP3   OH279123   5.101   6.381  15.187 -0.4340 -0.5493  0.5641
19211TIP3    H179124   5.116   6.314  15.254 -2.9051 -0.9768  0.7771
19211TIP3    H279125   5.189   6.409  15.161  0.6351 -1.3231  3.0243
19212TIP3   OH279126   3.657   4.175  16.641 -0.3018 -0.0479  0.0933
19212TIP3    H179127   3.685   4.178  16.549  2.2536  2.5566  0.8270
19212TIP3    H279128   3.592   4.245  16.649  0.3271  0.4932  0.5044
19213TIP3   OH279129   6.822   3.006  12.291 -0.0653  0.0058 -0.3990
19213TIP3    H179130   6.739   2.963  12.314 -1.3569  2.5140  0.0380
19213TIP3    H279131   6.871   2.940  12.243 -0.9424 -2.6524  2.0429
19214TIP3   OH279132   5.476   2.373  13.207  0.0576  0.2112 -0.5180
19214TIP3    H179133   5.496   2.338  13.293 -2.4542  1.1168  0.5109
19214TIP3    H279134   5.536   2.448  13.197  0.8044 -0.2939  0.1386
19215TIP3   OH279135   1.642   2.621  16.754  0.3314 -0.0520 -0.1476
19215TIP3    H179136   1.619   2.707  16.788  0.0899  0.3750 -1.3142
19215TIP3    H279137   1.587   2.560  16.802  3.0111 -0.0466  3.2975
19216TIP3   OH279138   4.146   4.866  16.692  0.3110  0.2040  0.2306
19216TIP3    H179139   4.125   4.782  16.732  1.7061 -0.2887 -0.0285
19216TIP3    H279140   4.241   4.871  16.694  0.2615  1.7783  0.2175
19217TIP3   OH279141   5.870   2.385  15.144  0.1625  0.1062  0.2235
19217TIP3    H179142   5.792   2.361  15.194  0.7758 -0.0669  1.1200
19217TIP3    H279143   5.845   2.373  15.053 -0.2377 -1.8621  0.5647
19218TIP3   OH279144   3.878   2.313   1.362 -0.5195  0.1626 -0.1732
19218TIP3    H179145   3.932   2.256   1.418 -1.4213  1.3555  2.0037
19218TIP3    H279146   3.934   2.330   1.286  0.4483 -2.1693 -0.0942
19219TIP3   OH279147   6.628   6.234  16.409 -0.7140  0.1781 -0.2021
19219TIP3    H179148   6.612   6.295  16.337  1.2461  1.8900  0.7120
19219TIP3    H279149   6.593   6.278  16.487 -2.1455 -1.3225  0.0536
19220TIP3   OH279150   3.895   2.272   0.546 -0.3212  0.4623 -0.9450
19220TIP3    H179151   3.936   2.358   0.552 -1.5388  1.0677 -1.1094
19220TIP3    H279152   3.932   2.223   0.620  0.5142  1.0556 -0.9603
19221TIP3   OH279153   1.168   2.626  12.002 -0.1576  0.2676 -0.0535
19221TIP3    H179154   1.116   2.547  12.019 -0.4138  0.3950 -0.2316
19221TIP3    H279155   1.125   2.666  11.926  0.1336  0.4358 -0.1280
19222TIP3   OH279156   5.399   1.362   3.588 -0.1730  0.2009  0.3813
19222TIP3    H179157   5.467   1.295   3.594 -0.2237  0.1227  0.1109
19222TIP3    H279158   5.364   1.370   3.677 -0.5447 -0.5279  0.3110
19223TIP3   OH279159   5.891   1.875   4.983  0.3440  0.6631 -0.1169
19223TIP3    H179160   5.803   1.884   5.021  0.3059  0.1183 -0.0709
19223TIP3    H279161   5.878   1.891   4.889  0.2211  0.7202 -0.0906
19224TIP3   OH279162   0.705   4.927  13.706  0.3812 -0.2734  0.2877
19224TIP3    H179163   0.703   4.847  13.654 -0.1186 -0.5844  0.7684
19224TIP3    H279164   0.797   4.953  13.708  0.4604 -0.5001 -0.3772
19225TIP3   OH279165   4.812   6.012  11.244  0.3829 -0.1496 -0.4585
19225TIP3    H179166   4.750   6.004  11.171 -2.2187  0.2321  1.5637
19225TIP3    H279167   4.886   6.059  11.207 -0.4383 -0.7318 -3.0635
19226TIP3   OH279168   4.894   2.159   4.072 -0.4173  0.5470  0.2888
19226TIP3    H179169   4.834   2.156   4.146  0.7952  0.1116  1.2932
19226TIP3    H279170   4.869   2.085   4.017 -0.2421 -0.1740  1.1616
19227TIP3   OH279171   4.913   4.482  15.445 -0.3187 -0.4039 -0.2859
19227TIP3    H179172   4.861   4.539  15.501  1.3414  0.4863  0.4190
19227TIP3    H279173   4.966   4.541  15.392 -1.5353 -1.2290 -2.5960
19228TIP3   OH279174   2.704   1.673  13.405 -0.3387 -0.1911 -0.3161
19228TIP3    H179175   2.666   1.676  13.493  1.0845 -0.1436  0.3323
19228TIP3    H279176   2.797   1.657  13.420  0.3548  2.0775 -1.6957
19229TIP3   OH279177   6.435   0.544   3.547 -0.2481  0.8782 -0.2085
19229TIP3    H179178   6.359   0.602   3.541 -1.0606 -0.2157 -0.8458
19229TIP3    H279179   6.496   0.578   3.481 -0.9380  0.7225 -0.9433
19230TIP3   OH279180   2.507   2.791   6.248  0.2053  0.7184  0.0082
19230TIP3    H179181   2.457   2.855   6.197 -2.2579  0.3848  1.7999
19230TIP3    H279182   2.595   2.795   6.212 -0.7929  2.2542 -2.5625
19231TIP3   OH279183   1.993   4.007   6.497 -0.3874  0.4902  0.0024
19231TIP3    H179184   1.932   3.989   6.568 -0.0523  2.1918  0.7721
19231TIP3    H279185   2.056   3.935   6.500 -1.9156 -0.9115 -0.3545
19232TIP3   OH279186   0.275   0.435   0.119  0.0351  0.1393 -0.0420
19232TIP3    H179187   0.204   0.479   0.165 -0.9974  1.1790 -2.4439
19232TIP3    H279188   0.234   0.400   0.040  1.6660 -1.7228 -0.1368
19233TIP3   OH279189   3.814   5.275  16.064 -0.1834  0.0938  0.1404
19233TIP3    H179190   3.883   5.244  16.123 -0.5249  0.5965  0.8254
19233TIP3    H279191   3.801   5.203  16.002 -0.5649 -0.9112  1.3393
19234TIP3   OH279192   5.874   0.679  11.001  0.3523  0.4003 -0.0475
19234TIP3    H179193   5.820   0.609  11.037  0.8152  0.5730  1.0046
19234TIP3    H279194   5.961   0.641  10.991  0.2006  0.3115 -1.1451
19235TIP3   OH279195   3.881   4.453   0.665 -0.4797 -0.4844  0.2704
19235TIP3    H179196   3.897   4.537   0.708 -0.4425  0.7566 -2.0176
19235TIP3    H279197   3.786   4.440   0.672 -0.2650 -1.3895  2.4801
19236TIP3   OH279198   4.948   0.590  16.640 -0.3735 -0.3793 -0.0251
19236TIP3    H179199   4.965   0.524  16.707  0.9441 -1.7446 -1.6037
19236TIP3    H279200   4.873   0.639  16.673 -2.2018 -3.4216  0.6957
19237TIP3   OH279201   5.003   6.336  13.353  0.4238  0.8353  0.6667
19237TIP3    H179202   5.046   6.380  13.426  1.0198 -1.0864  1.5511
19237TIP3    H279203   4.915   6.316  13.384  1.6715 -3.0017  2.3457
19238TIP3   OH279204   4.463   3.022  10.848 -0.4258  0.3070 -0.1522
19238TIP3    H179205   4.465   3.115  10.867  0.3228 -0.0075  1.5069
19238TIP3    H279206   4.394   2.987  10.904 -1.1956 -0.0544 -1.2924
19239TIP3   OH279207   5.526   5.287   3.528 -0.2559  0.4248 -0.4844
19239TIP3    H179208   5.482   5.210   3.567 -0.2871 -0.4805 -2.2001
19239TIP3    H279209   5.508   5.358   3.590  0.3973 -1.0696  1.5626
19240TIP3   OH279210   1.970   2.860   5.789 -0.2533 -0.4227 -0.3735
19240TIP3    H179211   2.021   2.901   5.719 -0.4319  3.5244  1.5393
19240TIP3    H279212   2.017   2.882   5.869 -1.3102 -2.7698  1.0148
19241TIP3   OH279213   0.241   3.725   2.267  0.0056  0.1546 -0.1660
19241TIP3    H179214   0.152   3.723   2.302  0.2186  3.2692  0.8534
19241TIP3    H279215   0.297   3.700   2.340  0.0993  0.5051 -0.1172
19242TIP3   OH279216   3.353   2.408  11.212 -0.0513  0.3518 -0.7594
19242TIP3    H179217   3.283   2.420  11.148 -1.1512  1.2546  0.5613
19242TIP3    H279218   3.428   2.454  11.174 -0.6482  0.7707 -1.4551
19243TIP3   OH279219   4.861   0.377  14.360 -0.0485 -0.4018  0.1926
19243TIP3    H179220   4.862   0.455  14.305  2.4364 -1.2594 -1.1729
19243TIP3    H279221   4.953   0.365  14.385 -0.2948 -2.9656  0.1637
19244TIP3   OH279222   4.835   2.104   0.801  0.1208 -0.5045 -0.1831
19244TIP3    H179223   4.866   2.193   0.819 -2.1408 -0.1225  2.3911
19244TIP3    H279224   4.897   2.047   0.847 -0.0226 -0.0706  0.5560
19245TIP3   OH279225   5.156   2.357   4.873  0.8254 -0.4414 -0.2470
19245TIP3    H179226   5.088   2.383   4.935  1.5197  1.0019 -0.0508
19245TIP3    H279227   5.214   2.433   4.867  2.0748 -1.4016 -0.8876
19246TIP3   OH279228   6.174   4.156   3.931 -0.4642 -0.4663  0.5641
19246TIP3    H179229   6.183   4.099   4.007 -0.6232 -1.5182 -0.1708
19246TIP3    H279230   6.091   4.128   3.891  0.1884 -0.7606 -0.6336
19247TIP3   OH279231   4.716   2.100   5.747 -0.1017  0.8354  0.6826
19247TIP3    H179232   4.646   2.164   5.757 -1.2124 -0.3137  0.5749
19247TIP3    H279233   4.757   2.096   5.834  0.2067  1.9069  0.6023
19248TIP3   OH279234   6.681   6.672  14.503 -0.0943  0.4440 -0.1163
19248TIP3    H179235   6.737   6.657  14.427 -1.3437 -1.3120 -0.7540
19248TIP3    H279236   6.596   6.697  14.466 -0.3252  1.0180  0.7670
19249TIP3   OH279237   4.447   1.274  16.493 -0.3832  0.4708  0.5545
19249TIP3    H179238   4.488   1.355  16.464 -1.0779  0.6349  0.0252
19249TIP3    H279239   4.492   1.205  16.443  0.7376  0.4382  1.5591
19250TIP3   OH279240   4.654   4.126   3.488  0.4942  0.5536  0.1252
19250TIP3    H179241   4.646   4.035   3.518  1.6716  0.5241  0.3919
19250TIP3    H279242   4.727   4.162   3.539  0.5629  1.4071 -0.5519
19251TIP3   OH279243   4.501   0.617   6.576  0.2602 -0.0212 -0.3039
19251TIP3    H179244   4.596   0.622   6.569  0.1925  0.2068 -1.3060
19251TIP3    H279245   4.483   0.534   6.619  0.8989 -0.2690 -0.5146
19252TIP3   OH279246   5.735   2.986   1.969  0.3482 -0.6762  0.4619
19252TIP3    H179247   5.765   2.902   1.935  2.0096 -0.2889  0.9144
19252TIP3    H279248   5.798   3.050   1.936 -0.6153  0.3502  0.5185
19253TIP3   OH279249   0.435   2.457   0.086  0.0729  0.6942  0.5051
19253TIP3    H179250   0.452   2.537   0.136  0.8911  1.2617 -0.6381
19253TIP3    H279251   0.459   2.386   0.146  1.2043  1.3654  0.8800
19254TIP3   OH279252   1.886   3.377   0.715 -0.6066  0.1539  0.6388
19254TIP3    H179253   1.825   3.321   0.668  0.2054  0.9681 -1.5221
19254TIP3    H279254   1.869   3.465   0.681  1.8799  0.3673 -0.2626
19255TIP3   OH279255   3.209   1.413  16.547 -0.3809 -0.4658 -0.2996
19255TIP3    H179256   3.224   1.484  16.485  1.6018  0.3276  0.9754
19255TIP3    H279257   3.178   1.340  16.493 -1.0681  0.9076 -1.8374
19256TIP3   OH279258   0.065   5.731   3.929 -0.1677 -0.5184  0.1966
19256TIP3    H179259  -0.022   5.724   3.890 -0.7434  1.8992  0.9212
19256TIP3    H279260   0.057   5.800   3.995  2.8048  1.4132 -1.2473
19257TIP3   OH279261   5.800   0.584   3.372  0.0845  0.3098 -0.0359
19257TIP3    H179262   5.793   0.631   3.455  1.0298 -0.1101  0.2890
19257TIP3    H279263   5.794   0.652   3.305 -0.2169  0.7002  0.3813
19258TIP3   OH279264   4.596   1.917   4.037 -0.3974  0.3017  0.5859
19258TIP3    H179265   4.647   1.839   4.060  0.8976  0.8969 -0.1485
19258TIP3    H279266   4.599   1.972   4.115 -1.0468 -0.2161  0.9951
19259TIP3   OH279267   0.349   6.046   4.645  0.0142 -0.0242  0.3019
19259TIP3    H179268   0.315   6.124   4.688  2.2229  1.0733  0.1439
19259TIP3    H279269   0.293   6.035   4.567 -1.3548  0.3858  1.1981
19260TIP3   OH279270   5.195   5.630  12.829  0.0359 -0.1435 -0.2382
19260TIP3    H179271   5.216   5.698  12.893  1.3107 -1.3177  0.6489
19260TIP3    H279272   5.249   5.652  12.752 -0.0757  0.2136 -0.2176
19261TIP3   OH279273   3.206   2.974   6.317  0.3207 -0.5934 -0.3753
19261TIP3    H179274   3.194   3.068   6.331  0.6314 -0.5387 -0.4464
19261TIP3    H279275   3.175   2.959   6.228  1.0336 -0.3982 -0.6714
19262TIP3   OH279276   4.262   1.366   3.376 -0.2917  0.7261  0.2168
19262TIP3    H179277   4.220   1.308   3.312 -1.9189  0.6383  1.3022
19262TIP3    H279278   4.232   1.454   3.351  0.0067  0.8195  0.1806
19263TIP3   OH279279   3.366   6.818   1.002 -0.4893 -0.0435 -0.4011
19263TIP3    H179280   3.298   6.860   0.949 -1.9212  0.9080  2.0157
19263TIP3    H279281   3.437   6.882   1.005 -1.8995  1.5668  1.7179
19264TIP3   OH279282   4.618   1.032  13.043  0.1458  0.3972 -0.3116
19264TIP3    H179283   4.601   1.018  12.950  1.4275  0.8614 -0.6293
19264TIP3    H279284   4.562   1.107  13.066  0.1841  0.5853 -0.8201
19265TIP3   OH279285   3.306   4.269  16.549 -0.9963  0.2965  0.0107
19265TIP3    H179286   3.315   4.244  16.641 -0.1416  1.6299  0.3216
19265TIP3    H279287   3.212   4.276  16.535 -1.2070 -1.3766  0.3451
19266TIP3   OH279288   0.525   2.529   1.741 -0.3291  0.7648  0.4579
19266TIP3    H179289   0.528   2.614   1.696 -0.6123 -0.0394 -1.1655
19266TIP3    H279290   0.444   2.532   1.791 -0.9725  1.0197 -0.5500
19267TIP3   OH279291   2.726   6.595   0.244  0.4492 -0.4368  0.1585
19267TIP3    H179292   2.734   6.605   0.339 -1.2219  1.8402  0.1637
19267TIP3    H279293   2.659   6.528   0.232  0.6151 -0.6803  0.5958
19268TIP3   OH279294   1.047   2.804   4.775  0.4549 -0.1979  0.3566
19268TIP3    H179295   1.051   2.893   4.741 -1.1122 -0.0312  0.5112
19268TIP3    H279296   1.018   2.814   4.866  0.0448 -0.8621  0.3097
19269TIP3   OH279297   6.436   1.387  11.411  0.3621  0.1839 -0.1854
19269TIP3    H179298   6.380   1.354  11.341 -0.7600  1.6094 -0.0255
19269TIP3    H279299   6.407   1.339  11.489 -0.0484  0.2811 -0.2725
19270TIP3   OH279300   2.376   2.966  11.229 -0.0977 -0.1155  0.8123
19270TIP3    H179301   2.464   2.944  11.199  0.3358  0.2163  1.7998
19270TIP3    H279302   2.349   3.038  11.172 -0.3208 -1.1517 -0.4397
19271TIP3   OH279303   6.535   3.672  14.827 -0.0699 -0.0881  0.7228
19271TIP3    H179304   6.626   3.698  14.814  0.0381 -0.3539  0.9339
19271TIP3    H279305   6.510   3.714  14.909  0.2712 -1.0644  1.3474
19272TIP3   OH279306   1.532   4.254  10.864 -0.2933  0.0894 -0.1658
19272TIP3    H179307   1.534   4.335  10.814  2.3145  1.1449  1.4275
19272TIP3    H279308   1.585   4.192  10.812 -1.8750 -0.5114 -1.1373
19273TIP3   OH279309   3.167   5.773  16.949 -0.7924  0.0294 -0.0106
19273TIP3    H179310   3.240   5.795  17.006 -1.4705  2.1368  0.1339
19273TIP3    H279311   3.095   5.750  17.008 -0.8821  0.1503 -0.0694
19274TIP3   OH279312   6.459   5.084   0.911 -0.1137 -0.6021 -0.2156
19274TIP3    H179313   6.444   5.178   0.902  1.2365 -0.2589  0.7836
19274TIP3    H279314   6.553   5.076   0.929  0.7598 -2.4562 -4.3238
19275TIP3   OH279315   0.566   1.543   3.510 -0.1296 -0.0850 -0.1397
19275TIP3    H179316   0.534   1.564   3.422  2.1249  1.6519 -0.6551
19275TIP3    H279317   0.598   1.627   3.544  1.1924 -1.1409  1.3890
19276TIP3   OH279318   3.572   0.006  16.215 -0.5796 -0.3650 -0.3394
19276TIP3    H179319   3.633   0.060  16.164 -1.1964 -0.2708 -0.9999
19276TIP3    H279320   3.493   0.059  16.220 -0.6829 -0.5778  0.3223
19277TIP3   OH279321   6.656   2.676  15.962 -0.8236  0.0087  0.0099
19277TIP3    H179322   6.706   2.679  16.044  0.4243 -0.1579 -0.7274
19277TIP3    H279323   6.598   2.751  15.968 -1.8842 -0.8613  1.7301
19278TIP3   OH279324   3.265   3.784  14.724 -0.0834 -0.0791  0.5780
19278TIP3    H179325   3.287   3.813  14.635 -0.2782  1.5601  1.0425
19278TIP3    H279326   3.173   3.757  14.717  0.0782 -0.5515  0.1598
19279TIP3   OH279327   2.076   4.671  12.037  0.6343 -0.5823  0.0469
19279TIP3    H179328   2.069   4.641  11.946  0.7377 -0.4920  0.0081
19279TIP3    H279329   2.122   4.601  12.083  0.7865 -0.5265 -0.0205
19280TIP3   OH279330   1.803   2.377   4.316  1.3784  0.0723  0.2111
19280TIP3    H179331   1.794   2.296   4.365  1.6299  0.5046  0.9970
19280TIP3    H279332   1.720   2.423   4.330  1.5292  0.2871  0.4153
19281TIP3   OH279333   5.598   0.749   0.593 -0.2171 -0.5935 -0.9502
19281TIP3    H179334   5.525   0.697   0.560 -0.0463  0.0488 -2.3749
19281TIP3    H279335   5.557   0.821   0.641 -0.4637 -1.5001  0.2526
19282TIP3   OH279336   4.942   1.771   1.653  0.1928  0.1630 -0.1885
19282TIP3    H179337   5.023   1.766   1.602  0.7686 -1.8085  0.8340
19282TIP3    H279338   4.947   1.697   1.714 -2.3662 -0.0131 -0.0794
19283TIP3   OH279339   0.070   5.907   6.206  0.0670 -0.3571  1.1795
19283TIP3    H179340   0.049   5.984   6.261 -0.3928  1.0271 -0.8167
19283TIP3    H279341   0.162   5.918   6.184 -0.2325  0.1943  0.1141
19284TIP3   OH279342   1.534   5.746  13.091 -0.1205 -0.0809  0.0255
19284TIP3    H179343   1.537   5.661  13.136  1.1748  0.6446  1.4252
19284TIP3    H279344   1.509   5.725  13.001 -1.0776 -1.7998  0.6519
19285TIP3   OH279345   0.639   5.408   1.856  0.2444 -0.1743 -0.3205
19285TIP3    H179346   0.590   5.373   1.931  0.0301 -1.4245 -1.0189
19285TIP3    H279347   0.586   5.480   1.824 -0.0617 -0.1455  0.2362
19286TIP3   OH279348   5.445   5.017   0.353 -0.3093  0.4582  0.3459
19286TIP3    H179349   5.484   5.103   0.336  0.0543  0.2323  0.0073
19286TIP3    H279350   5.501   4.956   0.305 -0.3974  0.0007  0.8187
19287TIP3   OH279351   5.106   1.313   1.740 -0.1212  0.3203 -0.2078
19287TIP3    H179352   5.049   1.363   1.799  0.3632 -0.2898  0.7989
19287TIP3    H279353   5.183   1.293   1.792  0.8827  0.8316 -1.4441
19288TIP3   OH279354   1.491   5.712   0.932  0.1548  0.4259  0.2105
19288TIP3    H179355   1.404   5.751   0.932 -0.0391 -0.0021  0.3548
19288TIP3    H279356   1.530   5.742   0.850 -0.2250  0.4114  0.0206
19289TIP3   OH279357   0.196   1.925   5.903  0.2600  0.1740 -0.2558
19289TIP3    H179358   0.150   2.008   5.890  0.3404  0.1544 -0.6576
19289TIP3    H279359   0.287   1.951   5.919  0.1541  0.2008  0.3277
19290TIP3   OH279360   6.157   3.559  15.449 -0.5794 -0.1288  0.4441
19290TIP3    H179361   6.070   3.520  15.464  0.4574 -2.3957  0.9905
19290TIP3    H279362   6.201   3.497  15.390  1.0767  0.3169  1.1572
19291TIP3   OH279363   2.528   2.640   3.065 -0.2213 -0.3997  0.0621
19291TIP3    H179364   2.538   2.655   3.159  0.4150 -1.4735  0.1901
19291TIP3    H279365   2.618   2.638   3.032 -0.4735  1.7868 -0.9048
19292TIP3   OH279366   5.086   4.492  11.456  0.3824  0.2385  0.0249
19292TIP3    H179367   5.060   4.581  11.482  0.8524  1.3800 -2.9362
19292TIP3    H279368   5.181   4.493  11.459  0.4099  0.0743 -0.6535
19293TIP3   OH279369   4.131   4.235   4.212 -0.4234  0.4286  0.1431
19293TIP3    H179370   4.129   4.145   4.181 -1.3445 -0.0385  1.4640
19293TIP3    H279371   4.127   4.288   4.133 -0.8330 -0.6982 -0.6133
19294TIP3   OH279372   3.654   6.096   3.298  0.0167 -0.0236  0.5118
19294TIP3    H179373   3.606   6.042   3.235  0.3501 -1.3671  1.3672
19294TIP3    H279374   3.697   6.163   3.244 -1.5355  0.2675 -0.4216
19295TIP3   OH279375   1.474   1.313   0.098  0.7081  0.1001  0.4488
19295TIP3    H179376   1.405   1.336   0.036  0.4213  0.1982  0.8015
19295TIP3    H279377   1.467   1.378   0.167  0.4784 -0.5032  1.0004
19296TIP3   OH279378   1.791   5.930  11.442 -0.7235 -0.5080  0.1721
19296TIP3    H179379   1.830   5.930  11.529  1.1180  2.7702 -0.4853
19296TIP3    H279380   1.705   5.970  11.454 -0.6739 -0.5116  0.5493
19297TIP3   OH279381   1.047   3.859  16.310 -0.1034  0.3372 -0.2081
19297TIP3    H179382   1.117   3.797  16.332 -0.3532  0.4088  0.8197
19297TIP3    H279383   1.087   3.918  16.247  0.1854 -0.7660 -1.0832
19298TIP3   OH279384   5.087   0.689   0.563  0.3232 -0.2202  0.3322
19298TIP3    H179385   5.092   0.645   0.648  0.1971  0.0610  0.4892
19298TIP3    H279386   5.025   0.637   0.512 -0.8067  0.4708  0.9530
19299TIP3   OH279387   4.873   4.452   6.081  0.4063 -0.4369  0.1078
19299TIP3    H179388   4.828   4.502   6.012 -1.0203  0.8952  1.9015
19299TIP3    H279389   4.840   4.363   6.071  0.1576 -0.2582 -0.8503
19300TIP3   OH279390   1.980   1.613  12.196  0.0436  0.1363  0.1212
19300TIP3    H179391   1.891   1.637  12.170  0.3777 -0.9636 -2.3003
19300TIP3    H279392   1.968   1.566  12.279 -1.4952  0.8484  0.3555
19301TIP3   OH279393   0.153   6.191   5.675  0.3635 -0.4078  0.5620
19301TIP3    H179394   0.169   6.284   5.658  0.4869 -0.6179 -0.5932
19301TIP3    H279395   0.237   6.149   5.656  0.4831 -0.6937  1.6805
19302TIP3   OH279396   4.147   2.896  16.548  0.1627 -0.1969  0.2637
19302TIP3    H179397   4.187   2.816  16.513 -0.6479 -0.1334 -0.8817
19302TIP3    H279398   4.074   2.914  16.488  0.2394  1.3147  0.5859
19303TIP3   OH279399   4.042   2.117   4.193 -0.3743 -0.2990  0.0071
19303TIP3    H179400   4.028   2.022   4.197 -0.0561 -0.3788 -0.6188
19303TIP3    H279401   4.136   2.126   4.180 -0.3659  0.1125  0.3541
19304TIP3   OH279402   5.157   3.889  12.108 -0.3451  0.3767  0.0745
19304TIP3    H179403   5.173   3.962  12.048  1.3414 -0.0445 -0.0375
19304TIP3    H279404   5.239   3.880  12.157 -1.0305 -0.5255  1.0961
19305TIP3   OH279405   5.339   3.465  11.398 -0.2358  0.4495  0.1993
19305TIP3    H179406   5.312   3.446  11.488 -1.2539  1.2914  0.0988
19305TIP3    H279407   5.345   3.561  11.394 -1.0561  0.4896 -0.8258
19306TIP3   OH279408   5.671   6.557   3.442  0.0193 -0.0957  0.3589
19306TIP3    H179409   5.679   6.505   3.522  1.8578  0.8349  0.8283
19306TIP3    H279410   5.646   6.493   3.375  0.2925 -1.2350  1.3046
19307TIP3   OH279411   6.456   4.550  13.385 -0.0236 -0.7130 -0.6008
19307TIP3    H179412   6.447   4.642  13.409  1.1081 -0.6689 -0.3079
19307TIP3    H279413   6.366   4.516  13.387 -0.4301  0.3220 -0.5048
19308TIP3   OH279414   4.298   4.963  16.023 -0.8545  0.3260 -0.6721
19308TIP3    H179415   4.278   4.872  16.047 -2.0849  0.9142  0.7097
19308TIP3    H279416   4.328   5.003  16.104  1.2995  0.7804 -1.6325
19309TIP3   OH279417   4.968   1.251  16.550 -0.0801 -0.3877 -0.1060
19309TIP3    H179418   4.944   1.328  16.602 -0.9862 -1.4454  1.1250
19309TIP3    H279419   4.942   1.273  16.461  0.6429  1.1183  0.0133
19310TIP3   OH279420   5.805   2.716   1.670  0.4943 -0.1437  0.3681
19310TIP3    H179421   5.885   2.730   1.618  1.1905 -1.1488  1.1424
19310TIP3    H279422   5.835   2.716   1.760 -0.4010 -0.5049  0.6740
19311TIP3   OH279423   0.728   0.903  15.910 -0.2040  0.2530 -0.5185
19311TIP3    H179424   0.822   0.907  15.928  0.1593  2.3686 -2.4302
19311TIP3    H279425   0.702   0.994  15.897 -2.8405 -0.1502  1.1992
19312TIP3   OH279426   6.054   6.191  13.182 -0.5790 -0.0278 -0.6333
19312TIP3    H179427   5.997   6.166  13.255 -1.7056  2.7161 -0.4276
19312TIP3    H279428   6.136   6.219  13.223 -0.9203  0.7355 -0.4451
19313TIP3   OH279429   1.237   0.541   3.356  0.0069 -0.5643  0.4773
19313TIP3    H179430   1.205   0.513   3.270 -1.6139  1.3171  0.4037
19313TIP3    H279431   1.293   0.616   3.337 -0.3617 -0.1376  1.0673
19314TIP3   OH279432   5.796   6.543   1.862  0.4270  0.2769 -0.4799
19314TIP3    H179433   5.824   6.631   1.887  3.2481 -0.5038 -0.5509
19314TIP3    H279434   5.838   6.486   1.926 -0.1295 -1.1149 -1.3220
19315TIP3   OH279435   3.087   0.987   4.454 -0.6750  0.5114 -0.5928
19315TIP3    H179436   3.010   0.938   4.482 -0.9736  0.1292 -1.9975
19315TIP3    H279437   3.052   1.055   4.396 -0.0145  0.7979 -0.6626
19316TIP3   OH279438   5.126   0.661  12.432 -0.2715 -0.4974 -0.8246
19316TIP3    H179439   5.115   0.737  12.375 -1.1077 -0.3338 -0.4495
19316TIP3    H279440   5.189   0.690  12.499 -0.0610 -0.3650 -1.0775
19317TIP3   OH279441   3.862   1.916  16.886 -1.1853 -0.6335  0.5329
19317TIP3    H179442   3.916   1.929  16.964 -0.0864 -2.0368  0.0620
19317TIP3    H279443   3.795   1.983  16.892 -0.8270 -0.3762  2.4152
19318TIP3   OH279444   0.835   5.467  10.615 -0.0364 -0.0455 -0.9969
19318TIP3    H179445   0.916   5.503  10.651 -1.5894  1.5618  1.1292
19318TIP3    H279446   0.854   5.375  10.600  1.6982 -0.0865  1.0183
19319TIP3   OH279447   4.355   0.311  11.012 -0.3772 -0.0212 -0.0525
19319TIP3    H179448   4.334   0.259  10.934 -2.5199 -0.8314  0.9995
19319TIP3    H279449   4.451   0.309  11.016 -0.2906 -3.3778 -0.4333
19320TIP3   OH279450   2.708   1.280  13.835  0.8437 -0.6205  0.6518
19320TIP3    H179451   2.665   1.335  13.770  0.5078  0.7643  1.9864
19320TIP3    H279452   2.654   1.202  13.840  0.7517 -0.6597 -0.5378
19321TIP3   OH279453   5.452   1.252  16.752 -0.1041  0.0315  0.2475
19321TIP3    H179454   5.487   1.260  16.664  0.0480 -1.1686  0.1858
19321TIP3    H279455   5.369   1.301  16.749  0.3956  0.8752 -0.2549
19322TIP3   OH279456   6.654   1.111   2.363  0.1170 -0.1930  0.0311
19322TIP3    H179457   6.659   1.143   2.272  0.7431  0.2625  0.2219
19322TIP3    H279458   6.580   1.051   2.362 -0.5995  0.6689 -0.5249
19323TIP3   OH279459   3.209   4.971  13.242 -0.2506  0.2221  0.0932
19323TIP3    H179460   3.282   5.033  13.244 -1.9819  2.3607  0.6280
19323TIP3    H279461   3.204   4.944  13.150 -0.5305  2.3262 -0.5786
19324TIP3   OH279462   1.589   4.016  15.985 -0.8762 -0.5377 -0.3982
19324TIP3    H179463   1.555   4.072  15.915 -0.2062  0.7243  0.2628
19324TIP3    H279464   1.596   4.074  16.061 -0.5873 -1.6355  0.4335
19325TIP3   OH279465   2.292   1.995   5.200  0.0206  0.0109  0.2425
19325TIP3    H179466   2.231   2.029   5.134 -0.9971  0.6557  1.4671
19325TIP3    H279467   2.261   1.906   5.217  0.8080 -0.4742 -0.7314
19326TIP3   OH279468   3.408   0.877  13.791 -0.5294  0.5683  0.2572
19326TIP3    H179469   3.457   0.886  13.709 -1.2920 -0.9039 -0.3921
19326TIP3    H279470   3.329   0.929  13.778 -0.7490  0.1661 -0.0350
19327TIP3   OH279471   6.053   2.416  13.601 -0.0028  0.5797  0.0148
19327TIP3    H179472   6.111   2.376  13.667  0.3773 -1.8219 -1.6475
19327TIP3    H279473   6.056   2.356  13.527 -0.8260  2.9048 -2.0453
19328TIP3   OH279474   3.707   1.392   2.346  0.2848  0.0345  0.1344
19328TIP3    H179475   3.764   1.316   2.360  1.7496  1.2104  0.7795
19328TIP3    H279476   3.675   1.414   2.434 -2.0356 -1.2035 -0.3206
19329TIP3   OH279477   3.998   5.694   0.599  0.5000 -0.2186  0.2018
19329TIP3    H179478   4.015   5.732   0.685  0.4783 -0.2852  0.2349
19329TIP3    H279479   4.025   5.603   0.607  1.8254  0.1146 -0.2627
19330TIP3   OH279480   0.696   2.574   4.210 -0.5015 -0.3738  0.1698
19330TIP3    H179481   0.789   2.599   4.203 -0.9234  2.0589  1.9626
19330TIP3    H279482   0.687   2.539   4.298 -1.3587 -0.3080  0.1128
19331TIP3   OH279483   0.461   6.317   1.910 -0.4677 -0.6296  0.5059
19331TIP3    H179484   0.480   6.343   2.000  1.4678 -3.5611  1.0576
19331TIP3    H279485   0.400   6.243   1.918 -1.7168  0.1927 -0.7405
19332TIP3   OH279486   1.035   4.970   1.391  0.6066  0.3257 -0.0596
19332TIP3    H179487   1.062   5.042   1.447 -0.4836 -1.0291  2.3341
19332TIP3    H279488   0.955   5.000   1.349  0.3068  0.6206  0.7149
19333TIP3   OH279489   2.366   0.050  17.008 -0.5214  0.1097  1.1645
19333TIP3    H179490   2.328   0.093  17.085  1.7952  0.4922  2.1797
19333TIP3    H279491   2.460   0.062  17.018  0.0791 -2.8565  0.0505
19334TIP3   OH279492   2.684   0.900   5.000  0.0515 -0.5193 -0.7435
19334TIP3    H179493   2.605   0.863   4.961 -0.0253  0.6383 -1.7433
19334TIP3    H279494   2.654   0.977   5.048  0.3541 -1.0797  0.3841
19335TIP3   OH279495   3.985   3.768   2.244 -0.1911 -0.1633 -0.0725
19335TIP3    H179496   4.030   3.834   2.297  0.2053 -0.9180  0.5427
19335TIP3    H279497   3.893   3.794   2.247  0.0896  0.9987 -0.7715
19336TIP3   OH279498   3.403   0.683  14.151 -0.4832 -0.2555 -0.0685
19336TIP3    H179499   3.400   0.662  14.058 -2.6385 -0.6932  0.0550
19336TIP3    H279500   3.318   0.723  14.170 -0.7714 -1.6775  2.0261
19337TIP3   OH279501   4.917   6.346  11.996  0.6396 -0.2552  0.4751
19337TIP3    H179502   4.947   6.425  11.950  1.1227 -0.1889  0.8876
19337TIP3    H279503   4.916   6.278  11.929 -0.2079  0.1997  0.0159
19338TIP3   OH279504   1.263   5.533   1.738  0.0555  0.2767 -0.5369
19338TIP3    H179505   1.327   5.563   1.802  0.1250 -0.8283 -0.0554
19338TIP3    H279506   1.312   5.477   1.678 -0.2764  0.1439 -0.6908
19339TIP3   OH279507   2.632   4.268   2.510 -0.1554  0.2640 -0.1233
19339TIP3    H179508   2.566   4.207   2.478  0.2695 -0.1097 -0.2860
19339TIP3    H279509   2.592   4.354   2.498 -0.1492  0.1172 -1.3437
19340TIP3   OH279510   4.933   1.215  16.062  0.1468  0.6794 -0.2423
19340TIP3    H179511   4.942   1.265  15.982  0.1817 -0.5107 -1.0102
19340TIP3    H279512   4.988   1.137  16.049 -0.4392  0.0960  0.6140
19341TIP3   OH279513   6.707   2.225  10.687  0.0054 -0.5223 -0.1555
19341TIP3    H179514   6.619   2.210  10.653 -1.3403  3.4061  1.0183
19341TIP3    H279515   6.755   2.262  10.614 -1.2210  2.7432  0.5251
19342TIP3   OH279516   2.994   1.087   2.248 -0.6230 -0.3219 -0.1549
19342TIP3    H179517   2.995   0.992   2.237  3.2474 -0.7309  2.0417
19342TIP3    H279518   3.045   1.121   2.174 -0.0861 -0.2135  0.2552
19343TIP3   OH279519   4.220   6.054  15.971 -0.2045  0.5232  0.1439
19343TIP3    H179520   4.176   5.972  15.994 -0.8586  0.8287  0.0099
19343TIP3    H279521   4.181   6.119  16.029 -0.4771  0.9409 -0.4940
19344TIP3   OH279522   6.833   4.788  12.463 -0.3440  0.5595 -0.2407
19344TIP3    H179523   6.826   4.852  12.534 -2.9273  1.5918 -1.3009
19344TIP3    H279524   6.753   4.736  12.469 -0.4691  0.4473 -2.1266
19345TIP3   OH279525   1.534   3.787   0.598  0.2957  0.5648 -0.0419
19345TIP3    H179526   1.548   3.769   0.505  2.0932  0.9444  0.1208
19345TIP3    H279527   1.480   3.866   0.599 -1.3282 -0.4759 -0.7264
19346TIP3   OH279528   0.089   3.869  15.090  0.3116 -0.4969  0.0935
19346TIP3    H179529   0.014   3.919  15.056  1.0616  0.9370  0.4726
19346TIP3    H279530   0.050   3.806  15.150 -0.7091 -0.6980 -0.7506
19347TIP3   OH279531   2.929   3.574  12.036  0.4360  0.5440  0.0083
19347TIP3    H179532   2.916   3.507  11.968  0.0345  0.7118 -0.0781
19347TIP3    H279533   2.925   3.657  11.989  0.4705  0.6485  0.1923
19348TIP3   OH279534   2.406   2.705  11.824  0.2996 -0.0380  0.5243
19348TIP3    H179535   2.358   2.663  11.895  0.3557 -2.0467 -0.5590
19348TIP3    H279536   2.370   2.794  11.821 -0.1805 -0.1034  2.5856
19349TIP3   OH279537   3.490   0.219  13.868 -0.1004 -0.1125 -0.9804
19349TIP3    H179538   3.400   0.251  13.870 -0.7792 -1.9236 -0.6959
19349TIP3    H279539   3.498   0.173  13.785  0.7219  0.4387 -1.2160
19350TIP3   OH279540   0.202   3.269  14.392  0.1597  1.0893  0.1580
19350TIP3    H179541   0.120   3.302  14.356 -0.7148 -0.5958  0.5402
19350TIP3    H279542   0.196   3.285  14.486 -0.3639 -0.2614  0.3779
19351TIP3   OH279543   0.155   2.879   0.800 -0.5221  0.0485 -0.0079
19351TIP3    H179544   0.161   2.963   0.846  0.6828  1.0329 -1.8531
19351TIP3    H279545   0.153   2.902   0.707  1.3606 -1.9859 -0.6506
19352TIP3   OH279546   0.850   1.245  16.965 -0.4206 -0.0655  0.6020
19352TIP3    H179547   0.911   1.261  17.037 -0.6027  0.0777  0.7279
19352TIP3    H279548   0.864   1.153  16.941 -0.3489 -0.1098  0.8112
19353TIP3   OH279549   3.500   6.530  14.977 -0.2632 -0.0047  0.3561
19353TIP3    H179550   3.466   6.551  15.064 -4.3490  0.7761 -1.1920
19353TIP3    H279551   3.422   6.518  14.923  2.0589 -0.5705 -3.2189
19354TIP3   OH279552   3.198   6.796   3.758 -0.4416 -0.2471  0.0810
19354TIP3    H179553   3.197   6.704   3.785  3.3557  0.0070  1.5828
19354TIP3    H279554   3.246   6.796   3.676 -0.0814  0.4511  0.2930
19355TIP3   OH279555   6.672   4.280  14.959 -0.4737  0.2527  0.3832
19355TIP3    H179556   6.591   4.271  15.009 -0.8481  0.0667 -0.2487
19355TIP3    H279557   6.711   4.362  14.991  1.0615 -1.4743  3.4792
19356TIP3   OH279558   5.925   5.620  10.941  0.2812  0.2413 -0.1944
19356TIP3    H179559   5.837   5.632  10.906 -0.3201 -0.0156  1.1415
19356TIP3    H279560   5.981   5.607  10.864 -0.9437 -0.1948 -1.0340
19357TIP3   OH279561   2.515   0.016   3.562 -0.2999  0.1736  0.0204
19357TIP3    H179562   2.472   0.077   3.502 -0.3860 -0.1587 -0.2597
19357TIP3    H279563   2.470  -0.067   3.548 -0.0903  0.0103  0.2977
19358TIP3   OH279564   5.278   4.628   4.654  0.0367 -0.2152 -0.3268
19358TIP3    H179565   5.277   4.646   4.748  0.4559 -1.9781  0.0514
19358TIP3    H279566   5.229   4.701   4.615  2.9568  2.6022  0.8140
19359TIP3   OH279567   5.448   4.558  16.445  0.4154  0.0265  0.3079
19359TIP3    H179568   5.426   4.606  16.525  2.5069  0.6478  0.5832
19359TIP3    H279569   5.530   4.513  16.467  0.5897 -0.4515 -1.2315
19360TIP3   OH279570   1.337   0.112   1.084 -0.2406 -0.2522 -0.3367
19360TIP3    H179571   1.373   0.110   1.173 -0.7016  0.1115 -0.1377
19360TIP3    H279572   1.341   0.021   1.055 -0.3288 -0.4184  0.1585
19361TIP3   OH279573   2.403   0.916   0.763 -0.2775  0.1265  0.4972
19361TIP3    H179574   2.397   0.821   0.777  1.5015 -0.0318  0.4698
19361TIP3    H279575   2.352   0.932   0.684 -3.1956 -0.2952  2.1823
19362TIP3   OH279576   0.119   2.326  10.904  0.8101  0.0877 -0.4247
19362TIP3    H179577   0.038   2.376  10.911  0.8492  0.5980 -2.8463
19362TIP3    H279578   0.184   2.390  10.875  1.7519 -0.6240  0.0591
19363TIP3   OH279579   1.763   3.668   3.705  0.0673  0.3322 -0.3296
19363TIP3    H179580   1.762   3.725   3.782 -1.5681  0.1114 -0.1617
19363TIP3    H279581   1.675   3.630   3.701 -0.1310  0.8813 -2.7373
19364TIP3   OH279582   6.384   3.722  11.106 -0.1732  0.0503  0.2451
19364TIP3    H179583   6.358   3.630  11.116 -0.7272  0.3231  1.5120
19364TIP3    H279584   6.318   3.759  11.048  2.0263 -1.1253 -3.3330
19365TIP3   OH279585   5.592   3.037   2.531  0.2464 -0.0722 -0.4263
19365TIP3    H179586   5.510   3.045   2.482 -0.3204 -1.7506  0.1762
19365TIP3    H279587   5.657   3.016   2.464 -0.5079 -2.2561 -0.5554
19366TIP3   OH279588   4.558   1.711  12.419 -0.1838  0.0731  0.7090
19366TIP3    H179589   4.511   1.777  12.368  0.1075  0.6496  1.1772
19366TIP3    H279590   4.648   1.743  12.423  0.3114 -1.0765 -0.2837
19367TIP3   OH279591   5.082   4.413  15.119  0.4010 -0.1429 -0.0599
19367TIP3    H179592   5.057   4.491  15.168 -0.3165 -1.3525  1.6087
19367TIP3    H279593   5.154   4.441  15.063  1.2054  1.3301  1.6440
19368TIP3   OH279594   5.700   0.359  15.859 -0.0237 -0.0872 -0.1947
19368TIP3    H179595   5.607   0.357  15.883 -0.1647  2.4595 -0.1757
19368TIP3    H279596   5.699   0.359  15.763  0.1653 -3.0018 -0.2591
19369TIP3   OH279597   5.360   0.341  12.096  0.2070  0.1815  1.0848
19369TIP3    H179598   5.300   0.395  12.147  1.5333  3.3242 -0.4095
19369TIP3    H279599   5.436   0.330  12.153  1.3162  2.9255  0.2938
19370TIP3   OH279600   0.017   1.513  13.840 -0.1447  0.0017 -0.3015
19370TIP3    H179601  -0.026   1.445  13.788 -0.5947  0.3872 -0.4476
19370TIP3    H279602   0.077   1.555  13.778 -1.8342  1.5240 -1.0211
19371TIP3   OH279603   3.398   4.026  13.138  0.4079  0.7033  0.3753
19371TIP3    H179604   3.461   3.973  13.186 -1.1024 -1.8396 -0.2164
19371TIP3    H279605   3.324   3.967  13.124 -1.9849  3.3890  0.7200
19372TIP3   OH279606   6.801   4.896   4.498  0.2512  0.2500 -0.7334
19372TIP3    H179607   6.890   4.899   4.532  0.2799  0.9716 -0.8539
19372TIP3    H279608   6.809   4.856   4.412  0.8181  2.4076 -1.7588
19373TIP3   OH279609   5.426   0.090  14.913 -0.0784 -0.7346  0.2587
19373TIP3    H179610   5.487   0.150  14.955 -0.1192 -0.7948  0.4056
19373TIP3    H279611   5.424   0.013  14.971 -2.5494  0.4325  1.8980
19374TIP3   OH279612   1.577   3.239   3.452  0.4585  0.1188 -0.0061
19374TIP3    H179613   1.483   3.221   3.441  0.4008  0.4009  0.0221
19374TIP3    H279614   1.618   3.202   3.374  0.4414 -0.9264  0.4726
19375TIP3   OH279615   6.047   2.818  16.211  0.2946  1.1457 -0.2758
19375TIP3    H179616   6.019   2.905  16.240 -0.3178  1.7130 -2.3286
19375TIP3    H279617   6.116   2.836  16.146  0.5785  0.0619 -0.2939
19376TIP3   OH279618   6.801   1.097  14.300  0.4711 -0.1733  0.2675
19376TIP3    H179619   6.780   1.081  14.392 -0.4403 -0.9088 -0.0544
19376TIP3    H279620   6.809   1.192  14.293  0.1071 -0.0849  1.0183
19377TIP3   OH279621   5.833   4.905   0.792 -0.1802  0.6758  0.4098
19377TIP3    H179622   5.867   4.926   0.705  0.5107  0.5235  0.6352
19377TIP3    H279623   5.751   4.859   0.775 -0.4209  1.2946 -0.1448
19378TIP3   OH279624   2.504   1.409   0.498  0.3494  0.6633  0.2200
19378TIP3    H179625   2.515   1.323   0.540 -1.4972  0.9208  1.3087
19378TIP3    H279626   2.448   1.392   0.422 -2.3787  1.2497  1.9911
19379TIP3   OH279627   0.576   1.949   3.845 -1.1527  0.2950 -0.8239
19379TIP3    H179628   0.508   1.986   3.902 -0.5987 -0.3748  0.3001
19379TIP3    H279629   0.616   2.025   3.803 -1.8706  0.7693 -0.6766
19380TIP3   OH279630   0.909   3.555  15.120  0.1510  0.2165  0.3524
19380TIP3    H179631   0.815   3.561  15.138  0.0804 -1.3189  0.5954
19380TIP3    H279632   0.940   3.484  15.176  1.2815  0.0790 -0.4076
19381TIP3   OH279633   2.895   6.335   4.573 -0.3566 -0.1406 -0.4268
19381TIP3    H179634   2.866   6.287   4.495 -2.0632  2.0054 -1.2140
19381TIP3    H279635   2.941   6.411   4.538 -0.2503  0.3290  0.7031
19382TIP3   OH279636   2.256   0.132  15.474  0.3453  0.3974  0.0967
19382TIP3    H179637   2.204   0.184  15.414  1.6583  0.4334 -1.0451
19382TIP3    H279638   2.199   0.058  15.498 -0.5755  0.9647 -0.3201
19383TIP3   OH279639   1.556   2.950   5.449 -0.2622  0.3525 -0.2616
19383TIP3    H179640   1.573   2.856   5.451 -2.4272 -0.0618  1.2017
19383TIP3    H279641   1.461   2.958   5.446 -0.1330  2.5202 -0.6263
19384TIP3   OH279642   4.662   4.876   5.772  0.1194 -0.0191  0.1019
19384TIP3    H179643   4.579   4.915   5.799 -1.0163 -1.9654 -0.4081
19384TIP3    H279644   4.690   4.824   5.847 -0.0286 -0.7382 -0.3273
19385TIP3   OH279645   0.377   5.575  16.699  0.4722 -0.1133 -0.5514
19385TIP3    H179646   0.341   5.659  16.727 -0.1165 -0.6881  0.4931
19385TIP3    H279647   0.438   5.597  16.629  0.6187  1.2149 -0.0363
19386TIP3   OH279648   4.056   6.522  13.016 -0.4579  0.5579  0.3905
19386TIP3    H179649   3.968   6.501  12.985 -0.5764  0.7103  0.6258
19386TIP3    H279650   4.043   6.576  13.093 -0.1526  1.1500  0.0334
19387TIP3   OH279651   6.406   4.844  13.149  0.5302 -0.6014 -0.2077
19387TIP3    H179652   6.383   4.925  13.103  0.9027 -1.5979 -2.2811
19387TIP3    H279653   6.379   4.859  13.239  0.4385  1.7606 -0.5637
19388TIP3   OH279654   3.421   5.154  17.074  0.3715  0.1970 -0.3489
19388TIP3    H179655   3.428   5.249  17.061  1.8748  0.1743  0.1412
19388TIP3    H279656   3.327   5.137  17.068 -0.0250  1.8535  0.3960
19389TIP3   OH279657   5.606   5.357   3.292 -0.1409  0.2774 -0.0638
19389TIP3    H179658   5.565   5.326   3.373  0.0757 -1.9489 -0.7270
19389TIP3    H279659   5.605   5.452   3.299 -0.1971  0.1525  2.5105
19390TIP3   OH279660   1.029   6.401  16.109 -0.3095 -0.5079  0.5456
19390TIP3    H179661   1.084   6.473  16.139  0.4964 -0.3113 -1.2848
19390TIP3    H279662   1.090   6.338  16.072 -1.1461 -1.3179  0.4986
19391TIP3   OH279663   0.844   0.031   5.915  0.0468  0.2693  0.2545
19391TIP3    H179664   0.810   0.041   5.827 -0.8187 -0.2089  0.5276
19391TIP3    H279665   0.921  -0.025   5.905  1.1102  1.7693 -0.4328
19392TIP3   OH279666   1.468   4.178  15.683  0.0258  0.3127 -0.0410
19392TIP3    H179667   1.469   4.085  15.663 -0.8540  0.8014 -2.8510
19392TIP3    H279668   1.552   4.210  15.651 -1.3300  1.0804 -3.2686
19393TIP3   OH279669   6.022   1.860   2.567  0.1763 -0.3834 -0.0193
19393TIP3    H179670   5.969   1.903   2.500  1.8270  0.7204 -0.6779
19393TIP3    H279671   6.099   1.916   2.577 -1.2400  1.2424  5.0178
19394TIP3   OH279672   0.447   3.942   3.559  0.4855  0.3347  0.0971
19394TIP3    H179673   0.481   3.987   3.636 -1.8299  2.3135  0.0575
19394TIP3    H279674   0.411   3.860   3.594  0.6588  0.5928  0.9016
19395TIP3   OH279675   4.037   4.275  12.633  0.0101 -0.1998  0.2179
19395TIP3    H179676   4.110   4.303  12.688  1.7474  0.4346 -2.2442
19395TIP3    H279677   3.985   4.354  12.619  0.2297 -0.0845  0.0351
19396TIP3   OH279678   2.170   6.563  11.270  0.0048  0.4678 -0.2225
19396TIP3    H179679   2.138   6.532  11.185 -2.3621  0.1173  0.7161
19396TIP3    H279680   2.202   6.485  11.313 -0.7814  0.2567 -0.0009
19397TIP3   OH279681   5.559   4.751   5.974  0.4806 -0.5032  0.0745
19397TIP3    H179682   5.622   4.774   6.042  1.5610  0.5422 -1.2247
19397TIP3    H279683   5.609   4.697   5.913 -0.1266 -0.4286 -0.4945
19398TIP3   OH279684   5.324   3.729  16.975 -0.1802 -0.6541  0.0627
19398TIP3    H179685   5.398   3.669  16.965  0.1669 -0.0061 -1.4471
19398TIP3    H279686   5.346   3.782  17.052 -0.2612 -2.1043  1.1189
19399TIP3   OH279687   5.758   2.191   0.652  0.3156  0.7034 -0.4677
19399TIP3    H179688   5.840   2.237   0.670  0.7345  0.0418 -0.6369
19399TIP3    H279689   5.699   2.219   0.721  0.3725  1.9245 -0.8832
19400TIP3   OH279690   5.664   4.746   0.413  0.3057  0.4571 -0.3405
19400TIP3    H179691   5.668   4.716   0.503 -1.2133 -1.5504 -0.8511
19400TIP3    H279692   5.749   4.725   0.376  0.3224 -0.4300  0.1694
19401TIP3   OH279693   2.580   0.612   3.255  0.2044  0.1976 -0.3878
19401TIP3    H179694   2.563   0.592   3.162 -0.1014  1.8499 -0.7191
19401TIP3    H279695   2.501   0.658   3.284  1.2149  1.6995  0.0511
19402TIP3   OH279696   0.227   2.836  15.539  0.5842  0.0960  0.2101
19402TIP3    H179697   0.316   2.843  15.573  0.5104 -0.6220  0.5901
19402TIP3    H279698   0.179   2.790  15.608  0.0926 -0.1596 -0.2914
19403TIP3   OH279699   0.913   2.123   2.032  0.3913 -0.2537 -0.1785
19403TIP3    H179700   0.845   2.182   2.000  0.2000 -0.2363  0.2545
19403TIP3    H279701   0.878   2.035   2.018 -0.1960 -0.2341  1.0438
19404TIP3   OH279702   4.196   0.270   4.773  0.0601  0.2768 -0.3749
19404TIP3    H179703   4.242   0.235   4.849  1.0891 -0.5393 -1.3320
19404TIP3    H279704   4.133   0.331   4.809  0.3041 -0.3293  1.1520
19405TIP3   OH279705   2.183   4.055  16.424  0.0753 -0.4993  0.1301
19405TIP3    H179706   2.090   4.061  16.407 -0.1891 -1.6797  0.9712
19405TIP3    H279707   2.224   4.052  16.338 -0.4224  2.3038 -0.3004
19406TIP3   OH279708   3.064   1.665   4.206 -0.3857 -0.4529 -0.4254
19406TIP3    H179709   3.133   1.690   4.144 -0.0694 -1.6629 -0.6026
19406TIP3    H279710   3.083   1.714   4.285  0.4480 -0.4670 -0.6075
19407TIP3   OH279711   0.410   2.147   3.355 -0.4540 -0.3924 -0.0032
19407TIP3    H179712   0.466   2.166   3.280 -0.1508 -1.0751  0.0431
19407TIP3    H279713   0.467   2.158   3.431 -1.5459  3.6875  0.4803
19408TIP3   OH279714   0.453   4.650   4.054 -0.6198  0.0960  0.3255
19408TIP3    H179715   0.492   4.727   4.095 -0.6794  0.4179 -0.2140
19408TIP3    H279716   0.463   4.665   3.960 -1.0622 -0.3336  0.2039
19409TIP3   OH279717   1.807   4.703  14.854 -0.3169 -0.0793 -0.3027
19409TIP3    H179718   1.869   4.727  14.785 -0.3564 -0.4466 -0.4676
19409TIP3    H279719   1.831   4.614  14.879 -1.0325 -0.3916 -0.6664
19410TIP3   OH279720   2.512   4.673  14.457 -0.5407 -0.5181 -0.6066
19410TIP3    H179721   2.465   4.730  14.396 -0.7414  0.1180  0.1225
19410TIP3    H279722   2.488   4.706  14.544  3.5619  1.8498 -0.1056
19411TIP3   OH279723   3.584   4.045  11.565  0.5016  0.1885 -0.1160
19411TIP3    H179724   3.678   4.040  11.547  0.9395  2.1454  1.3303
19411TIP3    H279725   3.566   4.138  11.573 -1.5228 -0.1676 -0.0208
19412TIP3   OH279726   1.953   5.287   1.420 -0.5029 -0.2018 -0.4179
19412TIP3    H179727   1.893   5.361   1.420 -0.8115 -0.4499 -0.8834
19412TIP3    H279728   2.005   5.298   1.340  1.1138  0.8417  0.7291
19413TIP3   OH279729   5.448   0.211  15.474 -0.5401 -0.3791  0.2737
19413TIP3    H179730   5.425   0.242  15.387  0.9945  0.8505  0.2445
19413TIP3    H279731   5.438   0.116  15.470  2.6120 -0.7999 -2.3498
19414TIP3   OH279732   4.643   5.258   0.036 -0.1071  0.1513 -0.3529
19414TIP3    H179733   4.698   5.293  -0.035  0.3592  0.7385  0.2816
19414TIP3    H279734   4.584   5.196  -0.008  0.5241  0.1072 -1.1706
19415TIP3   OH279735   0.409   4.834   2.883  0.2889  0.9106  0.5755
19415TIP3    H179736   0.317   4.856   2.866 -0.3326 -1.1875  0.8739
19415TIP3    H279737   0.417   4.836   2.979  0.3487  0.3888  0.5848
19416TIP3   OH279738   2.602   2.687   5.509 -0.3413  0.2352  0.3915
19416TIP3    H179739   2.653   2.625   5.561 -0.8843 -0.5153  0.0423
19416TIP3    H279740   2.562   2.634   5.440  1.5755  1.4222 -1.7549
19417TIP3   OH279741   1.321   6.339   5.114  0.2570  0.0967 -0.0154
19417TIP3    H179742   1.404   6.306   5.079  0.2693  0.7205 -0.6048
19417TIP3    H279743   1.347   6.389   5.192  0.5904  1.2330 -0.8179
19418TIP3   OH279744   4.668   1.745   2.056  0.0379  0.2871  0.7540
19418TIP3    H179745   4.664   1.665   2.003  0.4196  1.2903 -0.8480
19418TIP3    H279746   4.758   1.748   2.088  0.4239  0.7452 -0.3173
19419TIP3   OH279747   4.182   0.246   1.713 -0.1130  0.0734  0.2690
19419TIP3    H179748   4.164   0.153   1.698 -0.5254  0.1428  0.3152
19419TIP3    H279749   4.194   0.283   1.626  1.6280 -0.3173  0.3023
19420TIP3   OH279750   0.941   1.012   4.919  0.6383 -0.4258  0.6794
19420TIP3    H179751   0.854   1.050   4.934  0.9724  0.3981  0.5670
19420TIP3    H279752   0.969   1.049   4.835 -0.1079 -2.9563 -0.7915
19421TIP3   OH279753   5.817   3.677   5.477  0.0515 -0.0641  0.2554
19421TIP3    H179754   5.839   3.721   5.559 -0.6967 -0.0556  0.4669
19421TIP3    H279755   5.855   3.589   5.487  1.2613  0.4098 -0.0318
19422TIP3   OH279756   3.311   3.380  12.110  0.0684  0.0025 -0.0788
19422TIP3    H179757   3.362   3.436  12.052  2.3345 -2.5718 -0.7704
19422TIP3    H279758   3.251   3.332  12.052 -0.2224  0.0388  0.1888
19423TIP3   OH279759   2.345   0.266  11.900  0.5101 -0.5109  0.1167
19423TIP3    H179760   2.368   0.236  11.988  0.3240  0.3108  0.4525
19423TIP3    H279761   2.290   0.195  11.865  0.0794 -0.5815  0.8966
19424TIP3   OH279762   3.887   4.156  11.069 -0.0641 -0.0210  0.1269
19424TIP3    H179763   3.903   4.131  10.978 -1.3267 -0.7507  0.0791
19424TIP3    H279764   3.970   4.193  11.099 -0.2896  2.4888 -2.0169
19425TIP3   OH279765   0.164   4.799   1.333  0.1435  0.0616  0.6471
19425TIP3    H179766   0.134   4.804   1.423  0.5112 -1.3974  0.8826
19425TIP3    H279767   0.107   4.859   1.285 -2.5991 -1.8626  1.2239
19426TIP3   OH279768   3.450   4.975   1.345  0.0490  0.4883  0.0731
19426TIP3    H179769   3.426   4.966   1.252  0.2303  1.4562 -0.0786
19426TIP3    H279770   3.468   4.886   1.374  0.5975  0.2456 -0.9901
19427TIP3   OH279771   4.067   0.778   5.969  0.3125  0.8303 -0.4159
19427TIP3    H179772   4.000   0.821   6.023 -0.5929 -0.9158 -0.0674
19427TIP3    H279773   4.091   0.700   6.019  3.4283  1.8775 -0.0134
19428TIP3   OH279774   2.915   3.891  14.424 -0.0149  0.8836 -0.1835
19428TIP3    H179775   2.915   3.969  14.368 -3.9219  1.2226  0.0145
19428TIP3    H279776   2.896   3.924  14.512 -0.5927 -0.1640  0.1025
19429TIP3   OH279777   0.754   3.730   3.586 -0.0951 -0.3815  0.2766
19429TIP3    H179778   0.847   3.713   3.601 -0.1836 -1.4718 -0.3096
19429TIP3    H279779   0.709   3.660   3.633 -0.4832 -1.8340 -2.0786
19430TIP3   OH279780   1.085   2.697  11.533  0.7236  0.1792 -0.0799
19430TIP3    H179781   1.074   2.771  11.474  0.0485  0.1546  0.0109
19430TIP3    H279782   1.179   2.678  11.530  1.0749  1.6464  0.6206
19431TIP3   OH279783   6.176   5.352  16.727 -0.1206  0.3890  0.5036
19431TIP3    H179784   6.126   5.404  16.664 -0.8900  1.1031  1.6711
19431TIP3    H279785   6.258   5.331  16.681 -1.1624 -0.1885 -1.1825
19432TIP3   OH279786   5.662   2.378   1.540 -0.0494  0.2143 -0.7701
19432TIP3    H179787   5.667   2.434   1.462  1.4349  0.1879 -0.7233
19432TIP3    H279788   5.752   2.376   1.574 -0.2598 -1.4159 -0.2195
19433TIP3   OH279789   1.228   0.535  13.936  0.0650  0.4668  0.0842
19433TIP3    H179790   1.228   0.538  14.032  0.5805 -1.9300  0.2077
19433TIP3    H279791   1.142   0.499  13.913  0.5439 -0.4814 -0.2558
19434TIP3   OH279792   0.510   3.604   1.303  0.2019 -0.6369  0.3312
19434TIP3    H179793   0.556   3.572   1.226 -0.4695 -1.6189  0.3226
19434TIP3    H279794   0.577   3.607   1.372  0.3247 -1.9086  0.2847
19435TIP3   OH279795   6.435   2.204  10.603  0.2436 -0.3195 -0.1247
19435TIP3    H179796   6.394   2.158  10.530 -2.2062  0.2536  0.7774
19435TIP3    H279797   6.362   2.249  10.647  2.0836  2.1368  0.6775
19436TIP3   OH279798   3.783   6.325  12.090  0.2266 -0.8339 -0.3823
19436TIP3    H179799   3.862   6.287  12.052  1.3786 -1.3977  2.3697
19436TIP3    H279800   3.812   6.409  12.127 -0.7213 -0.5293 -0.2827
19437TIP3   OH279801   2.242   3.400  14.112 -0.6905  0.6315  0.0970
19437TIP3    H179802   2.319   3.345  14.126 -1.3034 -0.7427 -1.6318
19437TIP3    H279803   2.276   3.474  14.061 -0.8880 -1.4876 -3.4538
19438TIP3   OH279804   0.614   1.163   1.816 -0.2450 -0.0138  0.2349
19438TIP3    H179805   0.658   1.108   1.751  0.5343  2.1558 -1.1903
19438TIP3    H279806   0.675   1.165   1.890 -0.0237 -0.5567  0.0756
19439TIP3   OH279807   4.620   0.886  14.040  0.0499  0.0164  0.3455
19439TIP3    H179808   4.577   0.935  14.110  0.1820 -0.9316  1.0971
19439TIP3    H279809   4.713   0.909  14.047  0.0006  0.2903  0.1596
19440TIP3   OH279810   3.136   6.531   3.795  0.0676 -0.0256  0.1677
19440TIP3    H179811   3.057   6.512   3.744 -1.1409 -2.4870  2.6651
19440TIP3    H279812   3.174   6.445   3.813  1.4696  0.8780  1.8098
19441TIP3   OH279813   5.084   4.255   5.963 -0.2701  0.2281 -0.4028
19441TIP3    H179814   5.116   4.168   5.939  0.2294  0.5825 -1.0674
19441TIP3    H279815   4.990   4.253   5.945 -0.5249 -0.6148  0.9292
19442TIP3   OH279816   4.264   3.057   0.078  0.2446 -0.6029  0.0027
19442TIP3    H179817   4.270   3.090   0.168  1.8235  1.1874 -0.7011
19442TIP3    H279818   4.203   3.117   0.035 -0.0852 -1.1285 -0.2790
19443TIP3   OH279819   1.856   5.939  15.227 -0.8408 -0.0465 -0.6794
19443TIP3    H179820   1.781   5.920  15.172 -0.3069 -1.6673 -0.8957
19443TIP3    H279821   1.901   5.855  15.236  0.2089  0.6157  0.5386
19444TIP3   OH279822   6.202   5.008   4.274 -0.3086  0.6450  0.1791
19444TIP3    H179823   6.147   5.008   4.196  0.6800 -0.5378 -0.5611
19444TIP3    H279824   6.157   5.066   4.335 -1.2255  1.4189 -1.1806
19445TIP3   OH279825   1.615   1.316   1.840 -0.1340  0.1598 -0.1216
19445TIP3    H179826   1.529   1.312   1.800  0.1746  1.3187 -0.9437
19445TIP3    H279827   1.672   1.267   1.780 -0.1254 -0.2377  0.2018
19446TIP3   OH279828   2.593   0.756   2.306 -0.3771  0.2048  0.2006
19446TIP3    H179829   2.618   0.848   2.318  0.4636  0.0280 -0.1016
19446TIP3    H279830   2.620   0.736   2.216 -0.5547 -0.3381  0.2657
19447TIP3   OH279831   4.239   1.190  14.436  0.2787 -0.0157  0.2685
19447TIP3    H179832   4.186   1.132  14.382  0.3107 -0.0320  0.2553
19447TIP3    H279833   4.175   1.238  14.489 -0.0635  2.7358 -2.3835
19448TIP3   OH279834   4.175   1.771  14.846 -0.0693 -0.0751 -0.1252
19448TIP3    H179835   4.146   1.733  14.763 -0.2655  0.8644 -0.4988
19448TIP3    H279836   4.098   1.817  14.880 -0.3498 -1.4016  1.1756
19449TIP3   OH279837   0.878   2.003  12.712  0.6066  0.2897  0.2785
19449TIP3    H179838   0.912   1.924  12.671 -0.2923  0.4159 -0.7341
19449TIP3    H279839   0.851   1.974  12.800 -2.4704 -1.2953 -1.0196
19450TIP3   OH279840   0.161   3.298  15.984 -0.3966  0.5712  0.4605
19450TIP3    H179841   0.139   3.364  16.049 -0.4329 -1.4653  2.6546
19450TIP3    H279842   0.251   3.317  15.959 -0.1555  1.0000  1.6298
19451TIP3   OH279843   1.585   5.463   3.247  0.0274 -0.8043  0.0973
19451TIP3    H179844   1.615   5.519   3.176 -3.5757  0.8742 -0.3407
19451TIP3    H279845   1.640   5.486   3.322  1.6298 -0.0957 -1.2425
19452TIP3   OH279846   6.774   4.800  15.752  0.0856  0.3003 -0.6300
19452TIP3    H179847   6.859   4.766  15.781 -0.6942  0.8159  2.6606
19452TIP3    H279848   6.793   4.888  15.721  0.5963  1.3983  2.3999
19453TIP3   OH279849   5.963   2.592  12.394 -0.1734 -0.0574  0.0774
19453TIP3    H179850   5.969   2.519  12.457 -1.6676 -0.8799 -0.6960
19453TIP3    H279851   6.014   2.563  12.319  1.4614  0.8516  0.7890
19454TIP3   OH279852   3.317   1.080   2.312  0.5211  0.4642  0.3831
19454TIP3    H179853   3.228   1.087   2.277  0.7885  2.4239 -0.0428
19454TIP3    H279854   3.324   1.152   2.375  1.2127 -0.8514  1.8688
19455TIP3   OH279855   6.188   3.839  16.476  0.7663 -0.4967  0.1174
19455TIP3    H179856   6.124   3.846  16.405  1.8782  1.1264 -0.8018
19455TIP3    H279857   6.165   3.909  16.536  1.2717 -0.3276  0.1185
19456TIP3   OH279858   5.917   4.082  11.447 -1.1643  0.3205 -0.2744
19456TIP3    H179859   5.841   4.023  11.446  0.6211 -2.1206 -1.4007
19456TIP3    H279860   5.922   4.117  11.359 -1.4376  1.1751  0.0356
19457TIP3   OH279861   3.980   0.991  15.337  0.1649  0.5999 -0.0181
19457TIP3    H179862   4.030   1.028  15.409  1.3527  0.0263 -0.5239
19457TIP3    H279863   3.987   1.055  15.266  3.1594 -0.9150 -1.2843
19458TIP3   OH279864   2.840   3.170  13.547 -0.1561  0.5415  0.1517
19458TIP3    H179865   2.884   3.089  13.518 -1.8251 -0.4665  0.3109
19458TIP3    H279866   2.756   3.170  13.501 -1.6769  0.3795  2.7002
19459TIP3   OH279867   4.281   1.117  11.794 -0.2333 -0.1095 -0.0728
19459TIP3    H179868   4.309   1.174  11.723  1.0416  1.0170  1.2596
19459TIP3    H279869   4.359   1.067  11.818 -0.7859 -0.8748  0.1712
19460TIP3   OH279870   2.856   6.829  10.459 -1.1890  0.1652 -0.4275
19460TIP3    H179871   2.820   6.756  10.408 -1.5463 -0.0022  0.0534
19460TIP3    H279872   2.806   6.905  10.430 -0.9125  0.1977 -0.8283
19461TIP3   OH279873   4.601   0.306   0.593  0.0387  0.2658  0.4249
19461TIP3    H179874   4.537   0.236   0.579  0.5996  0.2229 -2.6243
19461TIP3    H279875   4.686   0.264   0.579  0.5764  0.9800  1.4180
19462TIP3   OH279876   0.308   2.353   1.467 -0.0840  0.1105 -0.4680
19462TIP3    H179877   0.258   2.378   1.544  0.7537 -2.2557  0.9638
19462TIP3    H279878   0.244   2.350   1.396 -0.8583  2.3934  0.0531
19463TIP3   OH279879   2.109   3.505   4.910  0.4652 -0.1254 -0.3668
19463TIP3    H179880   2.158   3.431   4.945  0.2534  1.0394  2.6597
19463TIP3    H279881   2.132   3.579   4.966 -3.6887  0.8039  0.4630
19464TIP3   OH279882   6.014   0.341   0.534 -0.0229 -0.1056 -0.3482
19464TIP3    H179883   6.105   0.312   0.536  0.1235  0.3188 -0.7835
19464TIP3    H279884   6.002   0.391   0.614  0.1173 -0.1809 -0.2807
19465TIP3   OH279885   5.498   1.307  11.608 -0.2273 -0.3206  0.1646
19465TIP3    H179886   5.466   1.220  11.632 -2.4314  0.1711 -0.7551
19465TIP3    H279887   5.461   1.323  11.521  2.2391  0.5381 -0.8295
19466TIP3   OH279888   6.679   2.995   1.047 -0.3341 -0.4431 -0.1747
19466TIP3    H179889   6.677   2.953   0.961 -0.2659  0.1435 -0.4700
19466TIP3    H279890   6.669   3.089   1.028  0.4776 -0.2295  0.4037
19467TIP3   OH279891   0.096   0.210  14.379  0.9876 -0.7208  0.3390
19467TIP3    H179892   0.174   0.235  14.429  0.9735 -1.4295  0.7228
19467TIP3    H279893   0.035   0.177  14.444 -0.4283  1.6162  0.3235
19468TIP3   OH279894   2.254   6.690  13.442 -0.3243  0.7529  0.2011
19468TIP3    H179895   2.342   6.652  13.440  0.0207  1.5500  0.0975
19468TIP3    H279896   2.254   6.747  13.519 -1.1196 -0.0810  0.8559
19469TIP3   OH279897   5.793   3.399  16.848  0.0463 -0.7074 -0.0180
19469TIP3    H179898   5.790   3.327  16.911  0.1603 -0.3510  0.3996
19469TIP3    H279899   5.884   3.402  16.819  0.3327  0.0480  0.8938
19470TIP3   OH279900   0.016   5.827   0.193  0.1145 -0.0898 -0.1530
19470TIP3    H179901  -0.027   5.752   0.234  1.0345 -0.5188  0.0626
19470TIP3    H279902  -0.021   5.904   0.237  0.3108 -0.4964  0.7348
19471TIP3   OH279903   3.544   1.573  15.555 -0.1841 -0.0148 -0.7545
19471TIP3    H179904   3.631   1.613  15.561 -0.1096 -0.3630  1.1181
19471TIP3    H279905   3.530   1.533  15.641 -1.7097 -0.9993 -1.4178
19472TIP3   OH279906   3.982   6.065   1.023 -0.2215 -0.5297 -0.1014
19472TIP3    H179907   3.917   6.135   1.021  0.0231 -0.2754  0.7855
19472TIP3    H279908   4.029   6.078   1.105 -0.6401 -2.1515  0.4308
19473TIP3   OH279909   1.368   2.215  15.313 -0.3948  0.7177 -0.4652
19473TIP3    H179910   1.410   2.149  15.256 -0.0478 -0.4085  1.0416
19473TIP3    H279911   1.275   2.212  15.288 -0.2384  0.2876 -1.0260
19474TIP3   OH279912   4.771   3.387  14.089  0.5893 -0.2633 -0.8185
19474TIP3    H179913   4.687   3.365  14.129  1.6075 -0.0050  1.6298
19474TIP3    H279914   4.768   3.482  14.075  0.0005 -0.4373 -2.0238
19475TIP3   OH279915   3.701   0.279   4.219 -0.6103 -0.5087  0.2790
19475TIP3    H179916   3.790   0.266   4.186 -1.0477 -3.4966  0.0668
19475TIP3    H279917   3.704   0.254   4.311 -0.9065  1.1659  0.7943
19476TIP3   OH279918   4.078   5.458   3.976  0.0807  0.1547  0.2506
19476TIP3    H179919   4.077   5.544   3.935  1.8637 -0.0932 -0.4115
19476TIP3    H279920   4.099   5.397   3.905  1.8732 -0.4504  1.2288
19477TIP3   OH279921   3.558   1.035  13.956  0.0320  0.2340 -0.3285
19477TIP3    H179922   3.644   1.033  13.914  0.7589 -1.6323  1.0915
19477TIP3    H279923   3.520   0.950  13.935 -0.1877 -0.1588  1.5017
19478TIP3   OH279924   4.235   5.122  14.750 -0.2680  0.2834 -0.2829
19478TIP3    H179925   4.245   5.217  14.755  1.8286  0.4272 -3.8529
19478TIP3    H279926   4.309   5.087  14.801 -1.4147  0.4502  1.5909
19479TIP3   OH279927   5.982   2.973   3.711  0.0538 -0.1307  0.4493
19479TIP3    H179928   6.008   3.058   3.674 -1.0823  0.8484  1.7653
19479TIP3    H279929   6.047   2.956   3.779 -0.6177  0.5118  1.2749
19480TIP3   OH279930   3.710   4.016  17.124 -0.3962 -0.1494  0.4461
19480TIP3    H179931   3.785   4.071  17.147  0.7836 -1.9435  1.0659
19480TIP3    H279932   3.705   4.020  17.029  1.3776 -1.0623  0.2743
19481TIP3   OH279933   3.478   0.495   5.310 -0.3135 -0.0066  0.1959
19481TIP3    H179934   3.439   0.528   5.390  0.0097  0.0850  0.3147
19481TIP3    H279935   3.572   0.509   5.321 -0.0100 -2.1543  0.8326
19482TIP3   OH279936   0.733   2.961   4.061 -0.1410 -0.3426 -0.2180
19482TIP3    H179937   0.658   3.020   4.056 -0.7840 -1.1628 -0.4337
19482TIP3    H279938   0.730   2.912   3.979  0.3770 -0.6808 -0.0389
19483TIP3   OH279939   0.262   0.086  15.401  0.7173  0.1136 -0.3494
19483TIP3    H179940   0.351   0.117  15.418 -0.0844  1.7344  1.2396
19483TIP3    H279941   0.213   0.112  15.478 -0.6668 -2.9521 -0.0743
19484TIP3   OH279942   6.620   3.804   0.838  0.1269 -0.2974 -0.4629
19484TIP3    H179943   6.548   3.783   0.778  0.3716 -1.3655 -0.4073
19484TIP3    H279944   6.577   3.826   0.921 -0.1349 -1.5234 -0.2534
19485TIP3   OH279945   1.132   4.033   2.062  0.3975 -0.1539  0.5367
19485TIP3    H179946   1.060   4.003   2.007  1.4669  1.4966 -1.9497
19485TIP3    H279947   1.144   4.125   2.039  1.8132  0.2588  2.5857
19486TIP3   OH279948   3.560   3.184  14.709  0.0402  0.3340 -0.1385
19486TIP3    H179949   3.485   3.244  14.709 -1.5258 -1.4849  1.1249
19486TIP3    H279950   3.629   3.231  14.661 -1.8937  2.0845 -1.3891
19487TIP3   OH279951   5.957   1.795   0.640 -0.4071  0.1636 -0.1739
19487TIP3    H179952   5.938   1.777   0.732 -0.5205 -0.6920 -0.3610
19487TIP3    H279953   5.872   1.806   0.599 -0.4494 -1.2687 -0.5270
19488TIP3   OH279954   5.204   0.111  15.839  0.2463  0.6104  0.0817
19488TIP3    H179955   5.182   0.087  15.749 -0.6574  0.3998  0.3568
19488TIP3    H279956   5.189   0.031  15.890 -0.0671  0.9644  0.5521
19489TIP3   OH279957   1.331   2.448  15.517 -0.3678  0.0039 -0.1027
19489TIP3    H179958   1.353   2.376  15.458  0.9262  0.2603  0.0306
19489TIP3    H279959   1.334   2.410  15.604  2.0020  0.5441  0.1071
19490TIP3   OH279960   6.719   3.080  16.042 -0.4900 -0.4618  0.4443
19490TIP3    H179961   6.717   3.133  15.961 -0.9900 -1.8470 -0.4890
19490TIP3    H279962   6.808   3.047  16.046 -0.4531 -0.3582  0.4851
19491TIP3   OH279963   1.355   2.295  14.942  0.6703 -0.6888  0.3759
19491TIP3    H179964   1.262   2.280  14.929  0.8824 -1.3026 -0.5189
19491TIP3    H279965   1.360   2.350  15.021 -0.6811  2.3090 -1.4302
19492TIP3   OH279966   0.098   5.790   4.612 -0.0324 -0.2004  0.3788
19492TIP3    H179967   0.012   5.831   4.623 -0.3981 -1.3008  2.0344
19492TIP3    H279968   0.158   5.863   4.600 -1.1779  0.5924 -0.8598
19493TIP3   OH279969   4.817   6.249  11.398  0.2393 -0.1781  0.3166
19493TIP3    H179970   4.861   6.254  11.313  1.5672  0.9341  1.0254
19493TIP3    H279971   4.777   6.162  11.400 -2.1121  0.6474 -2.5104
19494TIP3   OH279972   2.584   4.380  13.746  0.0058 -0.1204  0.2453
19494TIP3    H179973   2.592   4.420  13.833 -3.3127  1.3959 -0.0016
19494TIP3    H279974   2.572   4.454  13.687 -3.8953 -1.1623 -0.5668
19495TIP3   OH279975   4.455   5.090  13.006  0.1545  0.0378  0.4181
19495TIP3    H179976   4.525   5.150  12.986  0.3652 -0.1302  0.6401
19495TIP3    H279977   4.384   5.145  13.040 -0.2140  0.3227 -0.7722
19496TIP3   OH279978   2.130   2.185   3.458 -0.2305 -0.6977  0.1052
19496TIP3    H179979   2.109   2.095   3.482 -0.5725 -0.8851 -0.8318
19496TIP3    H279980   2.162   2.178   3.368 -1.5407  0.2557 -0.4745
19497TIP3   OH279981   1.745   4.102   0.850  0.2407  0.0886 -0.4639
19497TIP3    H179982   1.762   4.127   0.940  1.0735 -0.9539 -0.3146
19497TIP3    H279983   1.679   4.034   0.856 -0.1622  0.4546 -0.6902
19498TIP3   OH279984   3.504   6.570  12.226  0.4368  0.7218  0.0709
19498TIP3    H179985   3.489   6.567  12.321  2.2663  2.4992  0.4985
19498TIP3    H279986   3.417   6.582  12.188 -0.2247  1.0326  1.5995
19499TIP3   OH279987   2.140   2.763  10.520  0.1631 -0.3391  0.1774
19499TIP3    H179988   2.098   2.817  10.587 -0.4530  0.0638 -0.5306
19499TIP3    H279989   2.072   2.702  10.492  0.5388 -0.7731  0.1899
19500TIP3   OH279990   1.455   2.743  15.407  0.3837 -0.5760  0.0049
19500TIP3    H179991   1.500   2.796  15.474  1.9434 -0.1105 -1.3626
19500TIP3    H279992   1.367   2.731  15.442  0.6118  1.1931  1.3152
19501TIP3   OH279993   2.913   5.232   0.176  0.5677  0.0075 -0.5980
19501TIP3    H179994   2.861   5.167   0.127  0.6273 -0.3130 -0.2408
19501TIP3    H279995   2.968   5.179   0.234 -0.5249  0.3941  0.8537
19502TIP3   OH279996   0.491   4.087  12.833  0.5592  0.7078  0.3958
19502TIP3    H179997   0.532   4.164  12.794 -0.1857  1.3088  0.7727
19502TIP3    H279998   0.414   4.121  12.879  0.0070 -0.3066  0.2547
19503TIP3   OH279999   6.805   1.277  15.562  0.3627 -0.1103  0.2856
19503TIP3    H180000   6.875   1.294  15.624  0.4624  0.2452  0.0768
19503TIP3    H280001   6.767   1.194  15.591 -1.5381  1.4458  2.6036
19504TIP3   OH280002   5.665   2.358   3.723 -0.2504  0.0642 -0.0851
19504TIP3    H180003   5.597   2.335   3.660 -0.3240  0.3565 -0.1170
19504TIP3    H280004   5.673   2.453   3.714  0.7891 -0.0707 -0.7153
19505TIP3   OH280005   0.984   0.298  11.169  0.3147 -0.1490 -0.1172
19505TIP3    H180006   1.006   0.214  11.128  0.0020 -0.8360  1.0589
19505TIP3    H280007   1.062   0.321  11.219  1.4154  1.6177 -2.4217
19506TIP3   OH280008   4.116   1.834  16.763  0.0932 -0.0790 -1.2721
19506TIP3    H180009   4.042   1.867  16.814  2.7247  2.8100  1.1385
19506TIP3    H280010   4.116   1.740  16.779 -2.1666  0.0516 -0.1005
19507TIP3   OH280011   0.154   0.386  15.126  0.6169  0.3535  0.2043
19507TIP3    H180012   0.157   0.357  15.035 -0.0153 -0.7701  0.5130
19507TIP3    H280013   0.062   0.410  15.141  0.5808 -0.0595  0.7034
19508TIP3   OH280014   6.775   2.192  14.703 -0.4432  0.3814 -0.3582
19508TIP3    H180015   6.859   2.233  14.722 -0.3099  0.9371 -2.0212
19508TIP3    H280016   6.739   2.171  14.789  0.9840  0.9531  0.4115
19509TIP3   OH280017   1.191   5.603   0.652 -1.1337  0.0955 -0.7054
19509TIP3    H180018   1.119   5.641   0.601 -0.0974  1.6215 -1.1105
19509TIP3    H280019   1.231   5.679   0.695 -0.6089 -0.8984  0.6212
19510TIP3   OH280020   6.107   3.690   1.444 -0.3744 -0.4789  0.2649
19510TIP3    H180021   6.031   3.717   1.495 -1.2176 -0.3282 -1.0461
19510TIP3    H280022   6.089   3.599   1.420 -0.4648 -0.2268 -0.6346
19511TIP3   OH280023   4.345   4.881   3.151  0.1396  0.2332 -0.2213
19511TIP3    H180024   4.345   4.793   3.114  0.8394  0.3291 -0.4648
19511TIP3    H280025   4.378   4.870   3.240  1.1817  0.3709 -0.5799
19512TIP3   OH280026   0.481   2.584  11.324 -0.0155 -0.1727  0.2775
19512TIP3    H180027   0.392   2.547  11.325 -0.4372  0.8094  0.7880
19512TIP3    H280028   0.480   2.644  11.250  0.2340 -0.1904  0.2617
19513TIP3   OH280029   0.955   4.461  13.592 -0.0915  0.5127 -0.0298
19513TIP3    H180030   0.875   4.453  13.645 -0.6201  1.2872 -0.6894
19513TIP3    H280031   0.924   4.494  13.507  0.6304 -1.4673 -1.1187
19514TIP3   OH280032   4.110   3.589   6.418  0.0312 -0.4509  0.2170
19514TIP3    H180033   4.021   3.582   6.385 -0.1241  0.6069  0.3689
19514TIP3    H280034   4.100   3.599   6.513  0.2876 -0.0993  0.2116
19515TIP3   OH280035   3.815   4.850  17.161 -0.6710 -0.2660  0.9149
19515TIP3    H180036   3.766   4.932  17.172 -1.6928 -1.0300  2.3968
19515TIP3    H280037   3.869   4.843  17.239 -1.1573 -1.3435  1.1864
19516TIP3   OH280038   1.781   5.319   5.949 -0.3479 -0.2569 -0.2174
19516TIP3    H180039   1.808   5.398   5.995 -1.8452 -0.0293  0.3237
19516TIP3    H280040   1.710   5.282   6.002 -0.2830 -1.4755 -0.9237
19517TIP3   OH280041   5.695   6.678  12.907  0.4778  0.4763 -0.4055
19517TIP3    H180042   5.617   6.692  12.962  0.3191 -3.2409  0.5785
19517TIP3    H280043   5.662   6.680  12.818 -1.1074 -2.0154  0.0154
19518TIP3   OH280044   2.404   3.172   2.352 -0.2353 -0.5566  0.0399
19518TIP3    H180045   2.435   3.240   2.292 -1.2012 -0.3193 -0.2002
19518TIP3    H280046   2.377   3.221   2.430  1.0130 -0.8620  0.6898
19519TIP3   OH280047   3.239   6.640  16.752 -0.7368  0.0576 -0.8430
19519TIP3    H180048   3.145   6.646  16.733 -0.6354 -1.1058 -1.8115
19519TIP3    H280049   3.267   6.558  16.711  1.0831  1.2995 -2.2420
19520TIP3   OH280050   6.172   2.490  13.181  0.1229 -0.1381  0.1290
19520TIP3    H180051   6.128   2.535  13.253 -1.9146 -0.0232 -1.0941
19520TIP3    H280052   6.213   2.560  13.130 -0.8882  0.1027 -0.3778
19521TIP3   OH280053   1.362   5.282   4.301  0.1386 -0.1924  0.4452
19521TIP3    H180054   1.314   5.221   4.358 -1.6351  0.6255 -0.1271
19521TIP3    H280055   1.382   5.230   4.223  2.6574 -1.3490  1.7316
19522TIP3   OH280056   1.303   3.125  10.516  0.3779 -0.1863  0.0787
19522TIP3    H180057   1.266   3.137  10.603  1.9697 -0.2784  0.8078
19522TIP3    H280058   1.237   3.075  10.468 -0.5341 -0.0977  1.2106
19523TIP3   OH280059   3.379   2.267   5.476  0.3129  0.5133  0.1395
19523TIP3    H180060   3.380   2.341   5.415 -0.1045 -0.7304 -1.4472
19523TIP3    H280061   3.298   2.220   5.454  0.7603 -0.6217  0.8313
19524TIP3   OH280062   2.041   2.999  12.933  0.1781 -0.3820  0.2942
19524TIP3    H180063   2.003   2.968  12.851 -0.4462  0.9317  0.0554
19524TIP3    H280064   2.135   2.989  12.921  0.1139  0.1264 -0.7455
19525TIP3   OH280065   2.383   4.240  11.209  0.3543  0.1949 -0.0283
19525TIP3    H180066   2.420   4.274  11.127 -2.4234  0.4340 -1.3033
19525TIP3    H280067   2.419   4.152  11.216  1.6997  0.6516 -0.7551
19526TIP3   OH280068   5.915   5.661  14.120  0.6066 -0.4595  0.0320
19526TIP3    H180069   5.853   5.665  14.047  1.7223  0.0527 -0.9283
19526TIP3    H280070   5.956   5.575  14.112 -0.1107 -0.8883  0.8008
19527TIP3   OH280071   2.975   1.324  11.453 -0.2400 -0.3641 -0.8275
19527TIP3    H180072   2.921   1.349  11.378 -0.5039  0.2100 -0.4559
19527TIP3    H280073   3.023   1.247  11.424 -1.6744 -1.2445 -0.9809
19528TIP3   OH280074   6.695   5.724   2.863  0.1879 -0.3709 -1.0414
19528TIP3    H180075   6.630   5.746   2.930 -0.4293 -2.1905 -0.9810
19528TIP3    H280076   6.654   5.751   2.780 -0.6070 -1.3509 -0.9869
19529TIP3   OH280077   6.126   5.178  14.580  0.0000 -0.2872 -0.7202
19529TIP3    H180078   6.222   5.176  14.589 -0.0332 -1.0042 -0.4530
19529TIP3    H280079   6.106   5.269  14.561  0.8022 -0.2587 -1.5174
19530TIP3   OH280080   3.487   6.104  14.158 -0.1062  0.0614 -0.8173
19530TIP3    H180081   3.456   6.077  14.071  0.6095  1.5844 -1.5760
19530TIP3    H280082   3.575   6.139  14.143  0.6995 -1.1053  0.7859
19531TIP3   OH280083   3.200   5.800  11.628 -0.6546 -0.2565  0.1711
19531TIP3    H180084   3.131   5.748  11.669 -0.6667 -0.2805  0.1198
19531TIP3    H280085   3.204   5.769  11.538 -0.6879 -0.1420  0.1297
19532TIP3   OH280086   1.171   5.406   5.412  0.1284  0.2186 -0.3363
19532TIP3    H180087   1.126   5.461   5.348 -0.1491 -0.0201 -0.3526
19532TIP3    H280088   1.256   5.387   5.372 -0.9871 -2.0524 -1.8515
19533TIP3   OH280089   4.207   2.628   2.372 -0.5334  0.1123 -0.3296
19533TIP3    H180090   4.203   2.638   2.277  1.5343  0.8386 -0.3916
19533TIP3    H280091   4.243   2.711   2.403 -1.7255  0.1061  1.1691
19534TIP3   OH280092   0.578   1.046  10.441  0.2418  0.4018 -0.0401
19534TIP3    H180093   0.588   0.957  10.406 -0.2351  0.6145 -0.7294
19534TIP3    H280094   0.617   1.041  10.529  0.4335 -0.4258 -0.1601
19535TIP3   OH280095   1.395   6.179   0.032 -0.4947 -1.0403 -0.3368
19535TIP3    H180096   1.300   6.178   0.019 -0.4942 -0.8433 -0.3622
19535TIP3    H280097   1.419   6.271   0.024 -0.5735 -0.8076  1.5601
19536TIP3   OH280098   3.226   6.740  12.858 -0.3219 -0.2202  0.3329
19536TIP3    H180099   3.284   6.800  12.810 -1.6785  0.9728  0.1169
19536TIP3    H280100   3.160   6.797  12.897 -1.6045 -1.5802  0.2196
19537TIP3   OH280101   1.338   5.659   2.717 -0.1382  0.0579 -0.0956
19537TIP3    H180102   1.291   5.580   2.692  0.6092 -0.8247  1.2075
19537TIP3    H280103   1.294   5.729   2.669 -0.1004 -1.2690 -2.1987
19538TIP3   OH280104   3.255   1.982  13.387  0.1149  0.5474  0.4185
19538TIP3    H180105   3.211   2.051  13.437  0.6703  1.9303 -0.9260
19538TIP3    H280106   3.348   1.997  13.401  0.2731  0.7619 -0.7379
19539TIP3   OH280107   0.203   0.701  13.069 -0.3078 -0.0593  0.3047
19539TIP3    H180108   0.187   0.739  13.155  1.3706 -0.0016  0.6199
19539TIP3    H280109   0.290   0.732  13.045 -0.0322 -1.4779 -0.6488
19540TIP3   OH280110   4.603   1.414   5.057 -0.1553  0.0831 -0.0268
19540TIP3    H180111   4.602   1.385   4.966  0.3813 -0.7512  0.2225
19540TIP3    H280112   4.545   1.490   5.059  0.9731  1.0242 -1.3637
19541TIP3   OH280113   6.559   5.587  11.880  0.2625  0.0783  0.4511
19541TIP3    H180114   6.588   5.626  11.962 -0.9588  0.3493  0.7679
19541TIP3    H280115   6.504   5.513  11.907 -1.5278  1.1698 -0.0725
19542TIP3   OH280116   2.279   3.839  15.522 -0.1018 -0.5758  0.6594
19542TIP3    H180117   2.228   3.864  15.599  0.7766 -0.7964  1.3334
19542TIP3    H280118   2.354   3.791  15.557  0.4450 -0.4791 -0.3184
19543TIP3   OH280119   0.210   6.394   0.917 -0.0618 -0.5100 -0.4589
19543TIP3    H180120   0.155   6.411   0.840  0.6445 -1.2637 -1.1595
19543TIP3    H280121   0.192   6.303   0.939  1.1064 -0.8717 -0.8935
19544TIP3   OH280122   0.778   1.489  14.854 -0.2420  0.4970  0.2104
19544TIP3    H180123   0.836   1.513  14.926  0.3979  1.1094 -0.4916
19544TIP3    H280124   0.731   1.412  14.886  0.7831  0.1321  0.8847
19545TIP3   OH280125   1.211   4.114  14.375  0.4704 -0.0420  0.7476
19545TIP3    H180126   1.170   4.200  14.365  0.0187 -0.3150  0.1778
19545TIP3    H280127   1.305   4.132  14.376  0.4077  0.3997 -0.1136
19546TIP3   OH280128   4.905   5.675   0.890  0.3399  0.3971  0.1101
19546TIP3    H180129   4.863   5.646   0.971  1.4424  2.0511  1.3341
19546TIP3    H280130   4.882   5.768   0.883  0.8278  0.4423 -1.1371
19547TIP3   OH280131   5.670   3.500   0.447 -0.0848  1.0061  0.0871
19547TIP3    H180132   5.688   3.415   0.407 -0.9277  0.1863  1.3427
19547TIP3    H280133   5.576   3.512   0.436  0.3159  2.8112 -1.9263
19548TIP3   OH280134   1.662   0.107   4.750 -0.1117  0.1443 -0.1467
19548TIP3    H180135   1.607   0.181   4.777 -0.1751 -0.2302  0.7918
19548TIP3    H280136   1.698   0.073   4.832 -1.2560 -1.8005 -0.3866
19549TIP3   OH280137   2.804   4.722  16.941  0.2010  0.1494 -0.6277
19549TIP3    H180138   2.841   4.796  16.893  0.9210  0.2237  0.0159
19549TIP3    H280139   2.867   4.705  17.011 -1.2616  0.6341  0.8626
19550TIP3   OH280140   5.193   2.312   5.501  0.1052 -0.0581  0.2885
19550TIP3    H180141   5.114   2.286   5.549  0.4151  0.1459  0.9235
19550TIP3    H280142   5.164   2.322   5.411 -0.8546  1.1703  0.7072
19551TIP3   OH280143   1.096   4.588   5.571  0.0724 -0.3983 -0.4312
19551TIP3    H180144   1.032   4.528   5.609  0.4167 -0.6173 -0.1896
19551TIP3    H280145   1.128   4.542   5.494  0.4963 -0.6248 -0.1239
19552TIP3   OH280146   1.866   1.984   4.168 -0.4475  0.0171  0.2706
19552TIP3    H180147   1.918   1.968   4.247 -3.2833  1.1408  2.5457
19552TIP3    H280148   1.868   2.079   4.157 -1.8272  0.0646  0.3090
19553TIP3   OH280149   6.058   3.899   3.545 -0.1701  0.3035 -0.1826
19553TIP3    H180150   6.011   3.853   3.476  0.0313  1.6095 -1.2385
19553TIP3    H280151   6.045   3.846   3.623  0.0994 -1.5573 -1.3384
19554TIP3   OH280152   3.709   0.088  12.435 -0.1454  0.6526 -0.2164
19554TIP3    H180153   3.674   0.176  12.452  1.1336  0.9216  1.2398
19554TIP3    H280154   3.647   0.029  12.478 -0.0878  0.9665  0.3080
19555TIP3   OH280155   1.391   5.320  14.330  0.1099 -0.3408  0.0104
19555TIP3    H180156   1.328   5.249  14.345 -2.1853  1.8083  1.3428
19555TIP3    H280157   1.401   5.323  14.234 -2.6259 -0.1754 -0.3468
19556TIP3   OH280158   2.238   1.655  12.446 -0.2433 -0.4775 -0.3557
19556TIP3    H180159   2.195   1.725  12.398 -0.5413 -0.0724  0.4839
19556TIP3    H280160   2.289   1.608  12.380 -1.3135 -0.4550 -1.2168
19557TIP3   OH280161   2.642   5.707   2.290  0.1696 -0.3928  1.0547
19557TIP3    H180162   2.714   5.657   2.250  0.5935 -0.0313  1.3586
19557TIP3    H280163   2.586   5.640   2.328  0.6435 -0.6556  1.3059
19558TIP3   OH280164   0.591   2.172  12.428  0.0541  0.2420  0.4905
19558TIP3    H180165   0.521   2.134  12.375 -0.2806  0.2737  0.9128
19558TIP3    H280166   0.605   2.259  12.389  1.1271 -0.4461 -0.7595
19559TIP3   OH280167   4.971   1.483  14.292  0.0601 -0.3137  0.1281
19559TIP3    H180168   5.029   1.555  14.271 -1.9166  1.0327 -1.0636
19559TIP3    H280169   5.004   1.409  14.240 -0.3495  0.9292 -2.0126
19560TIP3   OH280170   2.637   6.706   0.483  0.0248 -0.4983  0.9173
19560TIP3    H180171   2.709   6.716   0.546 -0.9172  2.6889  1.7024
19560TIP3    H280172   2.623   6.795   0.450 -3.0023 -1.1653  0.1692
19561TIP3   OH280173   1.064   6.039   4.639 -0.1725 -0.3489 -0.2183
19561TIP3    H180174   1.006   6.099   4.591 -0.2917  1.0502  1.5520
19561TIP3    H280175   1.147   6.044   4.592 -0.1572  1.3210 -0.0824
19562TIP3   OH280176   1.775   6.637  16.643 -0.1364 -0.2023 -0.2956
19562TIP3    H180177   1.732   6.705  16.695 -3.2706 -0.5062 -2.1955
19562TIP3    H280178   1.831   6.685  16.582 -0.3223  0.4852  0.0625
19563TIP3   OH280179   6.332   4.591   3.874  0.3467  0.5529 -0.5955
19563TIP3    H180180   6.412   4.643   3.874 -0.8631  2.4854 -1.0894
19563TIP3    H280181   6.294   4.605   3.961  0.4784 -0.2890 -0.3914
19564TIP3   OH280182   3.084   4.406  12.304  0.1513 -0.1607 -0.6506
19564TIP3    H180183   3.002   4.449  12.328  0.5010 -0.6914  1.7482
19564TIP3    H280184   3.086   4.328  12.358  2.9736  0.6711  0.6093
19565TIP3   OH280185   4.518   1.834  11.644 -0.1617 -0.1260  0.1503
19565TIP3    H180186   4.434   1.879  11.633 -0.0425  0.4778  1.4862
19565TIP3    H280187   4.583   1.899  11.618 -0.0568 -0.1030  0.4667
19566TIP3   OH280188   6.612   4.728  10.950  0.1329  0.1419  0.0244
19566TIP3    H180189   6.526   4.766  10.930 -0.5106 -1.7670 -1.1161
19566TIP3    H280190   6.659   4.798  10.995 -2.4678  0.8594  1.8849
19567TIP3   OH280191   0.198   1.990  11.618  0.3344  0.0924 -0.1430
19567TIP3    H180192   0.127   2.006  11.680  1.2152  1.0558  0.6441
19567TIP3    H280193   0.273   2.038  11.653  0.8966  0.5870 -1.9004
19568TIP3   OH280194   5.388   6.460  13.296 -0.1351 -0.3265  0.3413
19568TIP3    H180195   5.364   6.369  13.312 -1.2287  0.2182  2.1244
19568TIP3    H280196   5.305   6.502  13.272 -0.1464  0.6507  1.9514
19569TIP3   OH280197   6.526   4.818  11.287 -0.2701  0.6238  0.4167
19569TIP3    H180198   6.541   4.857  11.373 -0.6839  1.4751  0.1146
19569TIP3    H280199   6.610   4.826  11.242  0.2449 -0.7358  1.0701
19570TIP3   OH280200   1.565   2.057  14.150 -0.1198  0.0631  0.4792
19570TIP3    H180201   1.593   2.036  14.239  2.3624  0.7047 -0.0729
19570TIP3    H280202   1.628   2.013  14.094 -0.3255  1.4447 -0.9026
19571TIP3   OH280203   6.472   0.133  15.462  0.4948 -0.0614  0.1400
19571TIP3    H180204   6.405   0.084  15.414  2.1179 -0.1197 -2.2807
19571TIP3    H280205   6.503   0.073  15.529 -2.4323  0.2977  2.0124
19572TIP3   OH280206   1.870   6.209  15.570  0.1084 -0.7384 -0.3527
19572TIP3    H180207   1.824   6.175  15.493  0.7009  0.7382 -1.4291
19572TIP3    H280208   1.803   6.255  15.620 -0.5045 -2.6057  0.6322
19573TIP3   OH280209   0.363   0.290  11.249 -0.1871  0.0275  0.0505
19573TIP3    H180210   0.398   0.255  11.167  1.7426  1.0869  0.3464
19573TIP3    H280211   0.287   0.342  11.224  0.4149  0.3868 -1.0836
19574TIP3   OH280212   1.084   4.119   4.410 -0.1856  0.1704  0.0283
19574TIP3    H180213   1.018   4.174   4.369 -0.3812 -0.1632 -0.1022
19574TIP3    H280214   1.036   4.065   4.473 -0.0483 -0.1217 -0.1163
19575TIP3   OH280215   0.590   4.159   4.715  0.1385  0.1469  0.2447
19575TIP3    H180216   0.675   4.116   4.713  0.6745  1.1705 -0.1446
19575TIP3    H280217   0.584   4.196   4.803  0.1296  0.1110  0.2590
19576TIP3   OH280218   4.252   4.915   6.121 -0.1198  0.4332  0.8550
19576TIP3    H180219   4.325   4.976   6.134  2.2819 -1.5786 -1.7620
19576TIP3    H280220   4.252   4.861   6.200  1.0788  0.6901  1.0593
19577TIP3   OH280221   5.214   0.068   0.978  0.0164  0.0960 -0.0980
19577TIP3    H180222   5.205   0.056   1.073  1.0484 -0.5597 -0.0678
19577TIP3    H280223   5.138   0.022   0.941  0.0808 -0.4023  0.3672
19578TIP3   OH280224   4.962   2.785  12.505  0.1671 -0.7002 -0.3040
19578TIP3    H180225   4.988   2.711  12.560  1.4269  0.4560  0.7266
19578TIP3    H280226   4.969   2.861  12.563  0.5527  0.4416 -1.7936
19579TIP3   OH280227   0.462   5.879   4.399  0.1029 -0.0317  0.2371
19579TIP3    H180228   0.459   5.851   4.490 -0.2406  1.8260  0.8445
19579TIP3    H280229   0.460   5.975   4.403 -0.2574  0.0930 -1.7349
19580TIP3   OH280230   1.294   6.632  11.004 -0.2550 -0.5850  0.5393
19580TIP3    H180231   1.339   6.553  10.976  0.2558 -1.3220  3.1581
19580TIP3    H280232   1.208   6.601  11.033  0.1566 -0.3418  2.1322
19581TIP3   OH280233   0.384   1.498   4.724 -0.1497  0.1403 -0.2997
19581TIP3    H180234   0.315   1.461   4.670  0.5219  0.6117 -1.5372
19581TIP3    H280235   0.426   1.563   4.667 -1.2516  2.8067  1.7472
19582TIP3   OH280236   3.555   5.374  11.982 -0.1007  0.4895  0.2690
19582TIP3    H180237   3.498   5.448  11.965 -1.6071 -0.5089  0.7935
19582TIP3    H280238   3.621   5.378  11.912 -1.9496  0.5775 -1.5445
19583TIP3   OH280239   0.983   0.886   1.495  0.1102  0.3153  0.0211
19583TIP3    H180240   1.011   0.959   1.440  0.6160  0.4596  0.4639
19583TIP3    H280241   0.899   0.860   1.459 -0.3276  1.4546  0.1789
19584TIP3   OH280242   6.151   2.824  15.311 -0.0737 -0.4434 -0.4721
19584TIP3    H180243   6.066   2.867  15.311 -0.1196 -0.4279  1.6192
19584TIP3    H280244   6.132   2.730  15.308 -0.0464 -0.4196 -2.5817
19585TIP3   OH280245   6.300   1.317  11.636 -0.0929  0.0244  0.2879
19585TIP3    H180246   6.217   1.314  11.684  0.5342  0.2029  1.4235
19585TIP3    H280247   6.350   1.387  11.679  0.2853  0.5614 -0.9953
19586TIP3   OH280248   1.116   2.107   1.699 -0.6037 -0.2193  0.3361
19586TIP3    H180249   1.165   2.067   1.771  0.9713  0.2385 -0.4363
19586TIP3    H280250   1.060   2.172   1.741 -1.7531 -1.8339  1.3986
19587TIP3   OH280251   3.251   4.952  12.367  0.4609 -0.0805  0.5715
19587TIP3    H180252   3.336   4.924  12.400  0.8769 -0.5672 -0.8651
19587TIP3    H280253   3.271   5.004  12.289 -0.5970 -1.4678 -0.6779
19588TIP3   OH280254   3.723   5.159   2.421 -0.2952 -0.0180 -0.0399
19588TIP3    H180255   3.672   5.124   2.348 -2.1625 -0.3314  1.3402
19588TIP3    H280256   3.683   5.244   2.439 -0.0975 -0.1027  0.8388
19589TIP3   OH280257   5.375   2.394  14.153  0.4126  0.7661  0.3879
19589TIP3    H180258   5.387   2.301  14.171 -0.5021  0.2927 -1.3381
19589TIP3    H280259   5.322   2.426  14.226 -0.2387 -0.3172  0.4040
19590TIP3   OH280260   4.762   1.316   1.463  0.4880 -0.1303  0.1806
19590TIP3    H180261   4.755   1.319   1.368 -1.2885  1.2831  0.3133
19590TIP3    H280262   4.798   1.402   1.487 -2.1043  0.8184  0.9405
19591TIP3   OH280263   4.807   0.004   5.591 -0.2241  0.3601  0.0102
19591TIP3    H180264   4.774  -0.083   5.612  0.4419  0.2119  0.5106
19591TIP3    H280265   4.790   0.055   5.670  0.2753  0.4078  0.0927
19592TIP3   OH280266   5.064   5.867   1.131  0.5084 -0.3700  0.3943
19592TIP3    H180267   5.037   5.908   1.050  1.4521 -0.2915  0.1045
19592TIP3    H280268   5.159   5.881   1.135  0.5127 -0.5923  1.3794
19593TIP3   OH280269   2.958   0.826  11.466 -0.2556  0.3175  0.1148
19593TIP3    H180270   2.947   0.731  11.459 -0.1985  0.3110  0.1100
19593TIP3    H280271   2.883   0.855  11.517 -0.0635  0.2201  0.4557
19594TIP3   OH280272   4.831   4.114   0.395  0.1094  0.2108 -0.3186
19594TIP3    H180273   4.796   4.065   0.321 -1.2898  1.6594 -0.6548
19594TIP3    H280274   4.766   4.102   0.465  1.6742 -1.6024  0.9247
19595TIP3   OH280275   4.877   1.871  15.879 -0.0466  0.0443  0.5970
19595TIP3    H180276   4.819   1.821  15.936 -0.7266 -2.5892 -2.1385
19595TIP3    H280277   4.915   1.806  15.820  2.3063  2.2732 -0.5722
19596TIP3   OH280278   2.027   1.560  12.786 -0.0317 -0.4787  0.3247
19596TIP3    H180279   2.016   1.467  12.766  0.6157 -1.0369  2.3533
19596TIP3    H280280   2.110   1.583  12.744  0.7351 -1.3225  1.3141
19597TIP3   OH280281   1.673   0.323  13.721  0.2488 -0.0428  0.4669
19597TIP3    H180282   1.689   0.358  13.633  0.8533  0.0718  0.6135
19597TIP3    H280283   1.657   0.400  13.775  3.4225  0.2806  1.1794
19598TIP3   OH280284   3.324   4.812   3.190  0.2933 -0.5006 -0.2060
19598TIP3    H180285   3.404   4.836   3.142  0.7067 -0.0375  0.6910
19598TIP3    H280286   3.342   4.837   3.281 -0.6395 -0.9672  0.1225
19599TIP3   OH280287   3.963   1.892   3.113  0.2998 -0.2509 -0.2368
19599TIP3    H180288   3.897   1.928   3.054  0.1052  1.1787  0.8060
19599TIP3    H280289   3.918   1.878   3.196  0.8040 -1.3391 -0.1156
19600TIP3   OH280290   2.721   5.628  12.234 -0.2453 -0.5747  0.3805
19600TIP3    H180291   2.673   5.620  12.316 -0.2950  1.4364  0.5984
19600TIP3    H280292   2.658   5.667  12.173  0.1064 -1.0753 -0.3136
19601TIP3   OH280293   2.218   3.778  11.736 -0.0571 -0.0380 -0.3701
19601TIP3    H180294   2.251   3.727  11.662 -0.0868  0.4507 -0.7230
19601TIP3    H280295   2.144   3.826  11.700 -1.8445 -1.8724  0.6302
19602TIP3   OH280296   5.904   3.906   0.118  0.0665 -0.0575  0.4641
19602TIP3    H180297   5.907   3.965   0.193  1.2901  0.2835  0.1729
19602TIP3    H280298   5.896   3.819   0.155 -2.6169  0.2874  0.8877
19603TIP3   OH280299   0.593   2.273   5.595 -0.3570  0.1652  0.2070
19603TIP3    H180300   0.676   2.307   5.627 -0.3689  0.1477  0.2567
19603TIP3    H280301   0.605   2.178   5.594 -0.6466  0.1160  0.9643
19604TIP3   OH280302   3.886   3.095   0.040  0.1691 -0.3485  0.1860
19604TIP3    H180303   3.890   3.185   0.072  3.3825 -0.0272 -0.7736
19604TIP3    H280304   3.827   3.050   0.102 -0.7648  2.1486  1.2302
19605TIP3   OH280305   6.397   6.654   4.948 -0.2271  0.5905 -0.1229
19605TIP3    H180306   6.331   6.644   4.880  2.8090  0.4154 -3.2953
19605TIP3    H280307   6.429   6.566   4.965  2.1616  1.0053 -1.9771
19606TIP3   OH280308   2.991   6.732  15.360 -0.1721 -0.2170 -0.0119
19606TIP3    H180309   2.958   6.801  15.302  0.2121  0.9408  1.0948
19606TIP3    H280310   3.062   6.774  15.409 -0.3233 -1.2230  1.1147
19607TIP3   OH280311   3.554   3.531  13.615  0.4569  0.2717 -0.0712
19607TIP3    H180312   3.641   3.494  13.602  0.2967 -1.0848  2.0961
19607TIP3    H280313   3.503   3.500  13.540  2.3492  3.3082 -2.8784
19608TIP3   OH280314   0.600   4.423   3.097 -0.2883 -0.1947  1.0612
19608TIP3    H180315   0.570   4.478   3.169  0.2216  0.5904  0.6925
19608TIP3    H280316   0.591   4.478   3.019 -0.0179 -0.7266  0.6439
19609TIP3   OH280317   1.967   2.568   0.956 -0.2967  0.6908  0.4483
19609TIP3    H180318   1.995   2.547   1.045  1.2616 -0.8223 -0.3387
19609TIP3    H280319   2.039   2.620   0.920 -1.0894  1.6258  0.1604
19610TIP3   OH280320   2.908   4.936  14.944 -0.0608  0.2771 -0.4450
19610TIP3    H180321   2.900   4.927  15.039  1.2084 -2.8724 -0.5081
19610TIP3    H280322   2.822   4.964  14.914 -0.9934 -0.3883  1.5000
19611TIP3   OH280323   0.147   6.632  10.955  0.5543  0.3112  0.5921
19611TIP3    H180324   0.174   6.718  10.987 -2.5579  0.7593  2.4224
19611TIP3    H280325   0.150   6.640  10.859 -1.2260  3.1219  0.6493
19612TIP3   OH280326   1.395   4.009   0.543 -0.1114  0.4947  0.3310
19612TIP3    H180327   1.405   3.992   0.449  3.1932  2.7990  0.0898
19612TIP3    H280328   1.301   4.023   0.555 -1.2724 -3.8360 -1.7356
19613TIP3   OH280329   4.324   3.541   5.301 -0.3681  0.4809  0.0340
19613TIP3    H180330   4.275   3.573   5.377 -0.6224 -0.8775  0.4654
19613TIP3    H280331   4.408   3.586   5.305 -0.1401 -0.0481  1.4897
19614TIP3   OH280332   1.984   4.565   4.901  0.1566  0.0367  0.3556
19614TIP3    H180333   1.994   4.635   4.837 -1.2834 -0.0916 -0.0491
19614TIP3    H280334   1.961   4.610   4.983  0.8546  0.1263  0.5088
19615TIP3   OH280335   3.234   1.797   4.751 -0.0707  0.2011  0.0814
19615TIP3    H180336   3.189   1.882   4.757  0.1808  0.4158 -0.9620
19615TIP3    H280337   3.199   1.747   4.824 -2.9425 -0.0863 -1.3487
19616TIP3   OH280338   5.783   5.658  15.356 -0.2466  0.3627  0.4094
19616TIP3    H180339   5.760   5.749  15.374 -0.4995  0.3878 -0.0323
19616TIP3    H280340   5.865   5.663  15.307 -0.7309  0.4019 -0.4170
19617TIP3   OH280341   0.169   6.355   1.714  0.7268 -0.5562  0.6169
19617TIP3    H180342   0.170   6.437   1.762  0.3502 -1.1696  1.7089
19617TIP3    H280343   0.119   6.295   1.769 -1.8742 -0.6517 -1.6084
19618TIP3   OH280344   3.369   0.680  13.433 -0.3867  0.0483 -0.5245
19618TIP3    H180345   3.301   0.730  13.388  0.7755  1.2220 -1.0532
19618TIP3    H280346   3.432   0.746  13.463  1.6058 -1.0863 -1.9137
19619TIP3   OH280347   1.055   6.335  14.416  0.3481  0.1698 -0.0826
19619TIP3    H180348   1.012   6.327  14.330 -1.2435  1.3500  0.5408
19619TIP3    H280349   1.009   6.272  14.471  0.9436 -0.1420  0.0611
19620TIP3   OH280350   3.026   5.337   1.714  0.2160 -0.0094 -0.1654
19620TIP3    H180351   3.008   5.305   1.626 -0.1876 -0.5637  0.1133
19620TIP3    H280352   3.037   5.431   1.704  0.6324 -0.1294 -0.8791
19621TIP3   OH280353   1.750   4.236  14.292 -0.1053  0.2070  0.0701
19621TIP3    H180354   1.800   4.159  14.319 -0.0552  0.5941  1.1285
19621TIP3    H280355   1.668   4.230  14.341  0.1116  1.0856  0.5690
19622TIP3   OH280356   2.522   5.859  13.834  0.2286 -0.4008  0.1419
19622TIP3    H180357   2.536   5.764  13.838 -1.1621 -0.6110  0.8268
19622TIP3    H280358   2.589   5.891  13.774  1.1150 -1.7361  0.3680
19623TIP3   OH280359   0.288   6.101  12.202  0.0923  0.1043  0.3887
19623TIP3    H180360   0.340   6.179  12.223  0.5387 -0.8094  3.0769
19623TIP3    H280361   0.351   6.042  12.160  0.3775  0.2373  0.6248
19624TIP3   OH280362   2.407   4.835   3.940 -0.4368  0.5769 -0.1500
19624TIP3    H180363   2.488   4.793   3.968 -0.9445 -1.4712 -1.5145
19624TIP3    H280364   2.404   4.917   3.989  1.6856  0.0047  1.0582
19625TIP3   OH280365   4.624   1.667   3.266  0.3951 -0.4795  0.3543
19625TIP3    H180366   4.607   1.670   3.172  2.4563 -2.1296 -0.1691
19625TIP3    H280367   4.632   1.758   3.292  1.5063  0.0097 -1.4683
19626TIP3   OH280368   1.429   3.417  12.488  0.4870 -0.5801  0.0728
19626TIP3    H180369   1.340   3.451  12.479  0.5850 -0.6231 -1.1569
19626TIP3    H280370   1.436   3.349  12.421  1.7504  0.0574 -0.4657
19627TIP3   OH280371   5.891   1.661  17.070 -0.0327 -1.0673 -0.7664
19627TIP3    H180372   5.926   1.672  16.981 -0.2568 -1.2265 -0.8764
19627TIP3    H280373   5.821   1.726  17.076  1.4217  0.4996  0.0788
19628TIP3   OH280374   2.695   6.006   0.680 -0.5019  0.5885  0.0981
19628TIP3    H180375   2.671   6.076   0.619 -2.0149 -0.7128 -0.8758
19628TIP3    H280376   2.790   6.014   0.690 -0.6342  2.7619  0.0395
19629TIP3   OH280377   5.939   3.979  13.090  0.0205  0.5277  0.2626
19629TIP3    H180378   5.945   4.048  13.156  0.0429  0.4224  0.3725
19629TIP3    H280379   5.921   3.899  13.141  1.6679  0.1475  0.2900
19630TIP3   OH280380   5.198   3.913   4.650  0.1141  0.3184  0.0918
19630TIP3    H180381   5.190   3.977   4.579  0.5693 -2.4077 -2.5743
19630TIP3    H280382   5.245   3.839   4.612 -0.3042 -1.6337  3.0334
19631TIP3   OH280383   6.802   5.267   2.811 -0.1959  0.8172  0.3129
19631TIP3    H180384   6.801   5.219   2.894 -0.3131  1.6562  0.8103
19631TIP3    H280385   6.842   5.206   2.748 -1.4814 -0.3937  0.6232
19632TIP3   OH280386   0.645   5.094  12.980 -0.2718  0.3232  0.4164
19632TIP3    H180387   0.586   5.156  13.024 -0.1038 -0.2632  1.5012
19632TIP3    H280388   0.733   5.124  13.002 -0.1837 -0.6367  1.4958
19633TIP3   OH280389   0.308   1.077   1.807  0.7278 -0.5287 -0.7406
19633TIP3    H180390   0.252   1.109   1.877  0.1756  1.2510 -1.9201
19633TIP3    H280391   0.394   1.067   1.848 -0.2968 -3.2019  1.0683
19634TIP3   OH280392   2.629   4.543   3.807  0.0870  0.8766  0.0143
19634TIP3    H180393   2.676   4.625   3.824  0.1481  1.0819 -1.0632
19634TIP3    H280394   2.588   4.557   3.722 -2.7795  1.0936  1.3275
19635TIP3   OH280395   0.292   3.586   3.220 -0.1592  0.5551 -0.3226
19635TIP3    H180396   0.282   3.530   3.143 -1.8505 -0.7341  0.7714
19635TIP3    H280397   0.332   3.530   3.286 -0.6871  0.9953  0.3912
19636TIP3   OH280398   5.316   1.045   2.968  0.2668 -0.1404 -0.5670
19636TIP3    H180399   5.240   1.011   3.016  0.4596  0.1292 -0.0524
19636TIP3    H280400   5.296   1.138   2.954 -0.2186 -0.4263 -1.8853
19637TIP3   OH280401   1.569   6.241   4.264 -0.5273 -0.0844 -0.3311
19637TIP3    H180402   1.635   6.278   4.323 -0.1211  0.1982 -0.9570
19637TIP3    H280403   1.602   6.258   4.176 -1.7500  0.6710 -0.6750
19638TIP3   OH280404   1.714   1.412   5.472 -0.2400  0.0886 -0.3494
19638TIP3    H180405   1.727   1.496   5.517  1.0742 -1.1883  1.8096
19638TIP3    H280406   1.801   1.389   5.438 -0.6116 -0.3840 -1.0245
19639TIP3   OH280407   2.077   1.167   5.064 -0.3478 -0.4803 -0.0676
19639TIP3    H180408   2.151   1.212   5.104 -1.1052 -1.2970  2.4077
19639TIP3    H280409   2.045   1.227   4.997  0.4713  1.3344  1.1100
19640TIP3   OH280410   1.846   3.387   4.907 -0.0365  0.0576  0.0845
19640TIP3    H180411   1.807   3.471   4.929  1.7077  0.5529  1.5130
19640TIP3    H280412   1.941   3.403   4.907  0.3010 -1.6578 -0.7022
19641TIP3   OH280413   5.008   0.264  12.353  0.2843  0.1515 -0.3959
19641TIP3    H180414   5.057   0.315  12.289 -0.8730  0.0550 -1.3973
19641TIP3    H280415   4.996   0.323  12.427  2.7098 -0.1365  0.2863
19642TIP3   OH280416   0.921   6.818   0.715 -0.3242  0.6228  0.0270
19642TIP3    H180417   1.001   6.847   0.760  0.5210 -0.0548 -0.9962
19642TIP3    H280418   0.871   6.772   0.782 -0.1097  1.5006  0.8114
19643TIP3   OH280419   5.003   6.644   2.857  0.0867 -0.3638  0.1907
19643TIP3    H180420   4.994   6.739   2.869  3.2912  0.1171 -0.3213
19643TIP3    H280421   4.921   6.618   2.816 -0.4357  2.4068 -0.7669
19644TIP3   OH280422   4.072   4.317   0.552 -0.1091  0.4301 -0.0640
19644TIP3    H180423   3.994   4.365   0.582  0.4531  0.9975  0.5431
19644TIP3    H280424   4.060   4.308   0.457 -1.0567  0.2281  0.0652
19645TIP3   OH280425   6.483   0.417  15.365  0.1505  0.4193 -0.2790
19645TIP3    H180426   6.466   0.323  15.376  1.6575  0.0728 -0.6114
19645TIP3    H280427   6.434   0.459  15.436  0.5849 -0.7552  0.7637
19646TIP3   OH280428   5.706   6.050   2.042 -0.4062  0.0427  0.0051
19646TIP3    H180429   5.736   6.141   2.053 -1.4261  0.1814  1.9458
19646TIP3    H280430   5.686   6.043   1.949  1.3774  1.2549 -0.5331
19647TIP3   OH280431   2.363   5.332  14.206  0.5174  0.4291 -0.0538
19647TIP3    H180432   2.432   5.392  14.176 -0.1988  1.6833  0.7146
19647TIP3    H280433   2.289   5.348  14.148  0.8758 -1.0055 -0.9559
19648TIP3   OH280434   1.187   3.703   3.779  0.8063  0.1020  0.3546
19648TIP3    H180435   1.264   3.708   3.835  1.3024 -0.1270 -0.2911
19648TIP3    H280436   1.134   3.633   3.818  0.6347  0.6597  1.1431
19649TIP3   OH280437   0.383   6.459   3.200  0.0328 -0.1285 -0.4690
19649TIP3    H180438   0.449   6.492   3.261 -2.9792  2.2832  1.8606
19649TIP3    H280439   0.334   6.394   3.250 -1.5078  0.7282 -0.7739
19650TIP3   OH280440   2.050   0.626   0.922  0.2932  0.2941  0.0680
19650TIP3    H180441   2.104   0.704   0.907  1.9015 -0.7501  0.1428
19650TIP3    H280442   2.004   0.612   0.839  2.0661 -0.1967 -0.8797
19651TIP3   OH280443   4.253   2.563  11.807  0.2005  0.1030 -0.0946
19651TIP3    H180444   4.160   2.584  11.809  0.7836  3.0171  1.3529
19651TIP3    H280445   4.280   2.585  11.718 -0.3160  0.0353 -0.2729
19652TIP3   OH280446   4.706   6.706   1.827  0.2073 -0.6586 -0.0684
19652TIP3    H180447   4.715   6.737   1.917 -1.0332 -1.0267  0.2057
19652TIP3    H280448   4.652   6.627   1.834  0.7083 -1.1209 -1.0682
19653TIP3   OH280449   4.271   1.405  16.227  0.6590 -0.2219  0.2941
19653TIP3    H180450   4.189   1.454  16.224  0.6174 -0.3165 -2.5641
19653TIP3    H280451   4.245   1.314  16.212  1.2008 -0.4055  0.4417
19654TIP3   OH280452   3.938   0.308   1.234 -0.1812  0.5428 -0.3914
19654TIP3    H180453   3.999   0.381   1.247 -0.8999  0.9302  1.1501
19654TIP3    H280454   3.938   0.262   1.318 -0.2862 -0.8153 -1.1219
19655TIP3   OH280455   1.494   0.003   3.026  0.3318  0.5370  0.3517
19655TIP3    H180456   1.476   0.071   2.962  0.9868 -0.6338 -1.1327
19655TIP3    H280457   1.581   0.023   3.060 -0.9584  2.5742  2.8272
19656TIP3   OH280458   4.536   3.669   0.225 -0.1228 -0.1685 -0.7487
19656TIP3    H180459   4.491   3.719   0.293 -1.1424  0.0910 -1.6024
19656TIP3    H280460   4.599   3.731   0.187 -0.4163  0.0530 -0.8730
19657TIP3   OH280461   3.520   1.383   6.563  0.0330 -0.0543  0.3221
19657TIP3    H180462   3.548   1.459   6.512 -0.9981 -0.1621 -0.4358
19657TIP3    H280463   3.569   1.390   6.645 -0.1967  1.5600  0.3594
19658TIP3   OH280464   2.829   0.309  12.516 -0.5419  0.3300 -0.3948
19658TIP3    H180465   2.824   0.297  12.610  0.3396  1.9090 -0.1158
19658TIP3    H280466   2.765   0.378  12.497 -1.4832 -0.6976 -1.1381
19659TIP3   OH280467   2.058   1.108  12.919 -0.3768  0.3413 -0.6484
19659TIP3    H180468   2.030   1.045  12.853 -1.0763  0.7869 -0.7869
19659TIP3    H280469   1.980   1.161  12.937 -0.3809 -0.1675  0.9859
19660TIP3   OH280470   6.569   4.008   5.363 -0.1852 -0.0857  0.3689
19660TIP3    H180471   6.607   3.920   5.357  0.2147  0.1915 -1.7626
19660TIP3    H280472   6.484   3.994   5.405 -0.4861 -1.6275 -0.6758
19661TIP3   OH280473   0.670   1.891  15.429  0.4130  0.4260 -0.3635
19661TIP3    H180474   0.651   1.829  15.358  0.0636 -0.2444  0.3024
19661TIP3    H280475   0.635   1.849  15.507 -0.4646  1.7867  0.0079
19662TIP3   OH280476   5.667   3.012  14.961 -0.6257  0.1590 -0.5810
19662TIP3    H180477   5.734   2.951  14.992 -0.9750  0.2724  0.4055
19662TIP3    H280478   5.716   3.084  14.922 -0.0955  0.9452  1.4152
19663TIP3   OH280479   0.099   2.829  12.820 -0.0018 -0.2356  0.0291
19663TIP3    H180480   0.055   2.768  12.761 -0.9509  0.9135 -0.5104
19663TIP3    H280481   0.082   2.796  12.908  1.3265 -1.9100 -0.3056
19664TIP3   OH280482   1.912   3.220   4.403 -0.0146 -0.6511  0.3789
19664TIP3    H180483   1.862   3.283   4.353  0.8295 -0.5332 -0.3432
19664TIP3    H280484   1.917   3.143   4.346  1.7680 -0.1773 -0.1731
19665TIP3   OH280485   2.166   4.957   2.329 -0.3462 -0.2035  0.0919
19665TIP3    H180486   2.149   4.865   2.349 -0.1752 -0.0791  0.8528
19665TIP3    H280487   2.169   5.000   2.415  0.9133  0.2745 -0.1646
19666TIP3   OH280488   1.103   2.074  13.215  0.0990  0.4821 -0.3957
19666TIP3    H180489   1.013   2.043  13.228  0.4993  0.2120  2.2621
19666TIP3    H280490   1.156   1.995  13.213  0.5250  0.7037  0.8436
19667TIP3   OH280491   5.891   1.382   5.043 -0.2568  0.6000  0.3822
19667TIP3    H180492   5.885   1.395   4.948  0.1018  0.1116  0.2886
19667TIP3    H280493   5.905   1.470   5.078 -0.7285  0.8259  0.0096
19668TIP3   OH280494   0.485   5.317  15.316 -0.4107 -0.3605 -0.2489
19668TIP3    H180495   0.503   5.406  15.284 -1.7678  0.0503  0.0560
19668TIP3    H280496   0.550   5.303  15.385 -0.6846  0.7089  0.2467
19669TIP3   OH280497   6.197   0.133   3.452  0.8351 -0.4505 -0.1115
19669TIP3    H180498   6.181   0.139   3.358 -1.2301  2.0923  0.3014
19669TIP3    H280499   6.271   0.192   3.468 -0.8100  1.6137  0.1942
19670TIP3   OH280500   5.244   6.171  15.289  0.2392 -0.7133  0.0757
19670TIP3    H180501   5.302   6.096  15.300 -0.6612 -1.4133  0.2051
19670TIP3    H280502   5.302   6.243  15.266  1.0689 -1.5944 -0.6881
19671TIP3   OH280503   4.734   5.599  17.180  0.8407  0.4094  0.3331
19671TIP3    H180504   4.799   5.661  17.212  0.2290  0.9976  0.4459
19671TIP3    H280505   4.650   5.643  17.190  0.3402 -0.6060  0.8427
19672TIP3   OH280506   6.481   1.637  12.855 -0.6364  0.0804 -0.8145
19672TIP3    H180507   6.388   1.645  12.874 -0.3951 -0.1673  0.6376
19672TIP3    H280508   6.521   1.715  12.894  0.3438 -2.2164  3.3656
19673TIP3   OH280509   3.741   1.720   6.198 -0.2123 -0.4573 -0.4587
19673TIP3    H180510   3.658   1.758   6.173  1.3962  2.8151 -1.3991
19673TIP3    H280511   3.738   1.716   6.294 -0.7294  1.5187 -0.3699
19674TIP3   OH280512   1.799   0.511  12.231  0.0612  0.3200  0.6067
19674TIP3    H180513   1.844   0.428  12.249  0.1649 -0.0771 -1.2989
19674TIP3    H280514   1.864   0.578  12.252  1.1270 -0.2106 -0.8224
19675TIP3   OH280515   4.400   0.570   3.917 -0.1716  0.1460  0.2246
19675TIP3    H180516   4.409   0.485   3.962  0.3617  0.4570  0.7235
19675TIP3    H280517   4.374   0.547   3.828  2.4041 -0.7204 -0.3998
19676TIP3   OH280518   0.980   3.971  11.673 -0.4047  0.1436  0.0619
19676TIP3    H180519   1.076   3.965  11.673 -0.4017  0.1761  0.6959
19676TIP3    H280520   0.958   4.018  11.753 -0.9165  0.8547 -0.4781
19677TIP3   OH280521   1.836   2.612  16.104  0.5906 -0.1271 -0.8513
19677TIP3    H180522   1.927   2.638  16.097  0.6557  0.1330  0.6877
19677TIP3    H280523   1.827   2.539  16.042  1.4777  0.6951 -1.9924
19678TIP3   OH280524   3.594   2.628   2.193 -0.1316  0.1939 -0.1615
19678TIP3    H180525   3.689   2.621   2.196 -0.2031 -1.1401  0.0060
19678TIP3    H280526   3.570   2.664   2.278  0.2166  0.3657 -0.1343
19679TIP3   OH280527   5.129   2.664   3.297  0.6709  0.0968 -0.9737
19679TIP3    H180528   5.193   2.688   3.364 -0.5988 -0.3729  0.4634
19679TIP3    H280529   5.148   2.572   3.278  0.8845  0.1663 -1.1075
19680TIP3   OH280530   2.766   2.346  14.793  0.2834 -0.4520 -0.5278
19680TIP3    H180531   2.728   2.357  14.880  1.0518  2.9466 -0.4702
19680TIP3    H280532   2.691   2.346  14.734 -0.1421 -0.6362  0.0056
19681TIP3   OH280533   2.726   5.148   1.303  0.2017  0.4025 -0.3007
19681TIP3    H180534   2.686   5.234   1.315  0.9561  0.6014  0.9603
19681TIP3    H280535   2.690   5.094   1.374  0.4058 -0.0661 -0.5489
19682TIP3   OH280536   4.567   0.223   1.149 -0.2766 -0.1144  0.1320
19682TIP3    H180537   4.635   0.279   1.183 -1.3144  0.7558  0.8287
19682TIP3    H280538   4.485   0.258   1.184 -1.3460  0.2867 -2.4609
19683TIP3   OH280539   1.473   4.209  17.167 -0.1967  0.2347 -0.8724
19683TIP3    H180540   1.557   4.248  17.144  0.9318 -0.8106  1.1864
19683TIP3    H280541   1.452   4.245  17.253 -1.1574 -0.5756 -0.7440
19684TIP3   OH280542   1.971   0.244  14.956 -0.3580  0.0197  0.6705
19684TIP3    H180543   1.948   0.152  14.944 -1.2335  0.3272 -0.1107
19684TIP3    H280544   1.941   0.265  15.045 -0.8832 -0.2358  0.5535
19685TIP3   OH280545   3.606   1.506   5.190  0.1425  0.0712  0.4105
19685TIP3    H180546   3.650   1.463   5.117  0.9421  0.2362  0.7770
19685TIP3    H280547   3.678   1.538   5.245 -0.4253  1.6531  0.2778
19686TIP3   OH280548   4.359   0.341  12.312  0.1167 -0.4015  0.4390
19686TIP3    H180549   4.317   0.310  12.232  0.8535 -3.0121  0.9434
19686TIP3    H280550   4.289   0.380  12.363 -0.6035  0.1479 -0.9308
19687TIP3   OH280551   0.573   3.849  16.934 -0.1033 -0.3289 -0.5856
19687TIP3    H180552   0.588   3.839  16.840  2.5576 -2.6864 -0.0585
19687TIP3    H280553   0.642   3.908  16.963 -0.8745  0.3398 -0.0652
19688TIP3   OH280554   2.775   1.062  13.236 -0.5518  0.5524 -0.3000
19688TIP3    H180555   2.813   0.974  13.228  1.2079  1.0783  1.5237
19688TIP3    H280556   2.697   1.050  13.289  0.0218  0.1437  0.4735
19689TIP3   OH280557   5.801   2.949   4.298 -0.0424  0.0230  0.1188
19689TIP3    H180558   5.715   2.913   4.280  0.0143 -0.7670  1.3043
19689TIP3    H280559   5.785   3.028   4.349 -0.0912  0.5577 -0.7047
19690TIP3   OH280560   6.695   1.702   3.206  0.0548 -0.1887  0.0546
19690TIP3    H180561   6.644   1.752   3.269  0.1012 -1.3981  1.0910
19690TIP3    H280562   6.632   1.676   3.139 -0.0355  0.9349 -0.3142
19691TIP3   OH280563   0.716   4.679   5.622  0.2796 -0.2656 -0.5657
19691TIP3    H180564   0.697   4.625   5.545  0.2152 -0.8705 -0.1334
19691TIP3    H280565   0.763   4.621   5.681  1.7951  0.6621 -0.8030
19692TIP3   OH280566   5.455   2.561   5.672  0.2229  0.0355 -0.2372
19692TIP3    H180567   5.432   2.633   5.731 -0.3290  0.4382 -0.9228
19692TIP3    H280568   5.533   2.591   5.627  0.5137 -0.1784  0.1152
19693TIP3   OH280569   0.684   0.769   4.981  0.8466 -0.7963 -0.1142
19693TIP3    H180570   0.745   0.839   4.956 -0.1554  0.7386  1.5177
19693TIP3    H280571   0.644   0.742   4.899  0.8096  1.0088 -0.7360
19694TIP3   OH280572   4.534   6.397   5.721 -0.3841  0.2348  0.0392
19694TIP3    H180573   4.471   6.327   5.700  0.1508  0.1474 -1.4355
19694TIP3    H280574   4.572   6.371   5.804 -2.7068  0.5942  1.2991
19695TIP3   OH280575   2.072   5.027  13.070  0.0568 -0.5517 -0.0336
19695TIP3    H180576   2.015   5.081  13.016 -0.1694  1.0080  1.6770
19695TIP3    H280577   2.161   5.055  13.047 -0.0154 -0.3356 -0.0438
19696TIP3   OH280578   5.838   0.309  10.596 -0.0943 -0.4581  0.8733
19696TIP3    H180579   5.869   0.220  10.618  1.0430 -0.3062 -0.0211
19696TIP3    H280580   5.904   0.367  10.633  0.2146 -0.0757 -0.2435
19697TIP3   OH280581   3.490   5.291  16.772  0.0316  0.3920  0.1918
19697TIP3    H180582   3.451   5.233  16.707  0.7467  1.0993 -0.9089
19697TIP3    H280583   3.417   5.316  16.829 -0.4320 -0.9637  0.2274
19698TIP3   OH280584   1.701   1.447   4.323 -0.2294  0.0245 -0.2940
19698TIP3    H180585   1.760   1.382   4.361 -0.2051  0.8787  1.2100
19698TIP3    H280586   1.679   1.505   4.396 -0.2029  1.7461 -1.5945
19699TIP3   OH280587   5.330   0.245   2.526 -0.5216 -0.1933  0.3258
19699TIP3    H180588   5.251   0.196   2.547 -1.9539  1.8286 -0.0361
19699TIP3    H280589   5.377   0.251   2.610 -1.0032 -0.9815  0.6623
19700TIP3   OH280590   3.210   5.970  13.662 -0.0111  0.1970 -0.1944
19700TIP3    H180591   3.116   5.986  13.652 -0.0683 -1.1649 -2.3289
19700TIP3    H280592   3.252   6.048  13.626 -0.2930  0.6895  0.5165
19701TIP3   OH280593   2.711   6.378  13.820  0.0877 -0.0649 -0.1971
19701TIP3    H180594   2.616   6.364  13.820  0.0201  0.3084  0.7598
19701TIP3    H280595   2.747   6.296  13.853  0.2586 -0.9753 -2.4946
19702TIP3   OH280596   3.499   1.672  11.918  0.2505 -0.4404 -0.1132
19702TIP3    H180597   3.450   1.590  11.914  0.5890 -0.7067  0.8386
19702TIP3    H280598   3.589   1.647  11.898  0.1135 -0.0524 -1.2535
19703TIP3   OH280599   6.330   1.956  14.404  0.1971  0.2801  0.5938
19703TIP3    H180600   6.319   2.013  14.328  0.3306  1.1647  1.2220
19703TIP3    H280601   6.425   1.946  14.413  0.2165  0.9377  1.1856
19704TIP3   OH280602   4.879   3.013  15.520  0.2521 -0.0179 -0.8286
19704TIP3    H180603   4.809   2.948  15.528 -0.8568  1.3471  1.7387
19704TIP3    H280604   4.949   2.978  15.575 -0.8065  1.4157  1.5488
19705TIP3   OH280605   5.960   6.082  12.648  0.0477 -0.1058  0.0428
19705TIP3    H180606   5.931   6.159  12.598  0.0511 -1.0666 -1.5080
19705TIP3    H280607   6.031   6.115  12.704 -1.4393  1.4793  1.1180
19706TIP3   OH280608   0.203   4.826   5.992 -0.2325  0.1853  0.1459
19706TIP3    H180609   0.172   4.743   5.954 -1.0203  0.6034 -0.1665
19706TIP3    H280610   0.292   4.808   6.020 -0.3839 -0.7659  0.0602
19707TIP3   OH280611   3.746   1.523   3.365 -0.3075 -0.2025  0.2493
19707TIP3    H180612   3.766   1.430   3.359 -2.6005 -0.6773 -1.2550
19707TIP3    H280613   3.786   1.561   3.286 -0.6760 -0.2006  0.0610
19708TIP3   OH280614   3.184   4.478   2.404 -0.0225 -0.3253 -0.5230
19708TIP3    H180615   3.099   4.444   2.374 -0.4421  0.5011 -0.3111
19708TIP3    H280616   3.171   4.495   2.498  0.8871 -1.7071 -0.1335
19709TIP3   OH280617   5.794   5.143   0.337  0.5233  0.2005 -0.9181
19709TIP3    H180618   5.861   5.208   0.315 -1.8618  1.5442 -5.4187
19709TIP3    H280619   5.711   5.190   0.330 -1.1465 -2.2439  0.6837
19710TIP3   OH280620   4.621   3.169   0.839 -0.3495 -0.3280 -0.2533
19710TIP3    H180621   4.710   3.133   0.840 -0.5684 -0.8876 -0.2360
19710TIP3    H280622   4.621   3.236   0.907  0.2163  0.0744 -0.6400
19711TIP3   OH280623   4.504   4.831   1.118  0.1110  0.6292 -0.1470
19711TIP3    H180624   4.589   4.826   1.162  0.2413 -1.1219 -0.5326
19711TIP3    H280625   4.524   4.859   1.029  0.2655  0.4818 -0.1591
19712TIP3   OH280626   5.979   4.175  11.181 -0.5263 -0.0066 -0.4823
19712TIP3    H180627   6.004   4.265  11.162  1.0541 -0.3481 -0.1448
19712TIP3    H280628   5.951   4.139  11.097  2.4376 -0.2860 -1.4761
19713TIP3   OH280629   3.324   0.492  16.574 -0.5000 -0.1332  0.1571
19713TIP3    H180630   3.328   0.559  16.642 -0.4110  0.6320 -0.5718
19713TIP3    H280631   3.326   0.409  16.621  0.7849  0.3589  1.0296
19714TIP3   OH280632   0.205   4.391   1.775  0.3292  0.4082  0.1972
19714TIP3    H180633   0.175   4.364   1.688  2.0753 -0.6033 -0.1591
19714TIP3    H280634   0.263   4.465   1.758  0.0404  0.7240  0.5844
19715TIP3   OH280635   3.907   2.397   5.178  0.2343 -0.3716  0.3237
19715TIP3    H180636   3.961   2.321   5.200  0.2395 -0.2359  0.8075
19715TIP3    H280637   3.825   2.360   5.146  0.4548 -0.5791 -0.0069
19716TIP3   OH280638   2.060   6.741  17.095  0.3295 -0.1982  0.0660
19716TIP3    H180639   2.132   6.780  17.144  0.3719  0.7568 -0.7281
19716TIP3    H280640   2.032   6.810  17.035  0.6019 -1.4709 -1.5829
19717TIP3   OH280641   6.829   2.931  15.742 -0.4811  0.6067  0.0131
19717TIP3    H180642   6.883   2.951  15.819 -1.1774 -1.3907  1.0954
19717TIP3    H280643   6.775   3.009  15.730  0.1867  1.2642  1.0575
19718TIP3   OH280644   6.235   1.751  16.026 -0.1093  0.1579 -0.5688
19718TIP3    H180645   6.267   1.791  16.107 -1.0997  0.6046 -0.3772
19718TIP3    H280646   6.313   1.714  15.985  0.1293 -2.2186  1.7280
19719TIP3   OH280647   0.876   2.057  14.696  0.6806 -0.0616  0.2490
19719TIP3    H180648   0.936   2.106  14.640  1.1906 -1.3117 -0.3532
19719TIP3    H280649   0.927   2.036  14.774  1.2331 -1.5192 -0.4584
19720TIP3   OH280650   2.572   3.002  13.497 -0.8996 -0.0411 -0.0966
19720TIP3    H180651   2.553   3.012  13.590 -1.5741 -2.1511  0.0284
19720TIP3    H280652   2.519   3.069  13.454 -1.2270  0.4021  0.9722
19721TIP3   OH280653   6.723   4.478   6.424  0.2645  0.2609 -0.6255
19721TIP3    H180654   6.705   4.536   6.350 -1.2548  1.9186  0.9401
19721TIP3    H280655   6.813   4.448   6.410  0.1653  0.8647 -2.8729
19722TIP3   OH280656   5.764   2.586  10.507  0.0325  0.2401 -0.3886
19722TIP3    H180657   5.795   2.676  10.514 -1.8522  1.1817 -2.7281
19722TIP3    H280658   5.674   2.589  10.540 -0.3745 -0.5235 -1.3546
19723TIP3   OH280659   6.772   1.073  11.311  0.5138 -0.0924  0.0657
19723TIP3    H180660   6.767   1.033  11.224  0.1396 -0.9808  0.4807
19723TIP3    H280661   6.762   1.167  11.295 -1.9893 -0.3996 -0.6625
19724TIP3   OH280662   6.430   0.390   4.023 -0.4830  0.4507 -0.5753
19724TIP3    H180663   6.479   0.389   3.941 -1.4512  1.1987 -1.1775
19724TIP3    H280664   6.454   0.473   4.064  0.4435 -0.1760  0.1976
19725TIP3   OH280665   4.441   3.490   4.845  0.8179 -0.1823  0.9811
19725TIP3    H180666   4.399   3.539   4.774  1.3610 -0.9247  0.1223
19725TIP3    H280667   4.427   3.398   4.822  1.8959 -0.4404  1.2894
19726TIP3   OH280668   3.612   3.710  11.440 -0.3640  0.4444 -0.1293
19726TIP3    H180669   3.602   3.804  11.451  1.0380  0.4785  1.1034
19726TIP3    H280670   3.535   3.672  11.484 -1.3369  1.0062 -1.3003
19727TIP3   OH280671   2.919   4.870  15.212 -0.2132 -0.1864 -0.4901
19727TIP3    H180672   2.827   4.893  15.227 -0.3521 -0.6905 -0.5670
19727TIP3    H280673   2.940   4.808  15.282 -0.3788 -1.2463 -1.3520
19728TIP3   OH280674   3.873   6.507   3.250 -0.4730 -0.2233 -0.9101
19728TIP3    H180675   3.899   6.498   3.341  0.4064 -0.5860 -1.1834
19728TIP3    H280676   3.869   6.602   3.235 -0.2802 -0.1616 -0.5831
19729TIP3   OH280677   3.535   1.981  13.686  0.1123  0.0391  0.0802
19729TIP3    H180678   3.621   1.939  13.690 -0.6847 -1.6854  0.0508
19729TIP3    H280679   3.547   2.066  13.729  1.5350 -0.7004  1.2119
19730TIP3   OH280680   3.176   1.739  14.308  0.2470 -0.0616  0.4571
19730TIP3    H180681   3.210   1.650  14.299 -1.6659 -0.7946  0.1344
19730TIP3    H280682   3.185   1.778  14.221 -0.1124 -0.3968  0.2670
19731TIP3   OH280683   5.550   6.175  15.062  0.3544 -0.2618 -0.0920
19731TIP3    H180684   5.540   6.081  15.075  0.7838 -0.4868 -1.2480
19731TIP3    H280685   5.614   6.183  14.991  0.4400  0.9064  0.0936
19732TIP3   OH280686   5.573   3.262   4.638 -0.3359 -0.0878  0.4375
19732TIP3    H180687   5.500   3.317   4.611  0.7602  1.5660  0.7382
19732TIP3    H280688   5.610   3.228   4.557 -0.2903  0.5862  0.1774
19733TIP3   OH280689   3.657   5.532  14.915  0.1706  0.1860 -0.3862
19733TIP3    H180690   3.582   5.484  14.952 -0.3493  0.7338 -0.7217
19733TIP3    H280691   3.660   5.504  14.824 -0.3802  1.0734 -0.6888
19734TIP3   OH280692   6.005   2.325  12.504 -0.5095 -0.3113  0.4568
19734TIP3    H180693   6.071   2.259  12.485 -0.6424 -0.3574  0.1555
19734TIP3    H280694   5.922   2.281  12.489 -0.6806 -0.7771  2.4524
19735TIP3   OH280695   0.702   6.531  16.461  0.1920 -0.0541 -0.0085
19735TIP3    H180696   0.725   6.438  16.450 -2.6527 -0.8868  0.1245
19735TIP3    H280697   0.732   6.573  16.380 -1.0016 -1.7283 -1.4162
19736TIP3   OH280698   3.720   6.698  12.944  0.1546  0.0594  0.3231
19736TIP3    H180699   3.805   6.732  12.970  0.1074 -0.2132  0.8561
19736TIP3    H280700   3.661   6.774  12.949  0.5377  0.4738 -0.9792
19737TIP3   OH280701   6.219   0.493  12.201  0.3695 -0.2092 -0.0419
19737TIP3    H180702   6.280   0.437  12.153 -0.2478  0.2993 -1.4672
19737TIP3    H280703   6.148   0.510  12.139 -0.0552  1.1531  0.7797
19738TIP3   OH280704   3.306   5.713   3.657  0.3917  0.3292  0.0656
19738TIP3    H180705   3.269   5.749   3.576  0.0641 -1.1791 -0.4874
19738TIP3    H280706   3.231   5.685   3.708  0.5827  1.6261  1.0931
19739TIP3   OH280707   0.806   6.551  16.148 -0.1407  0.4903  0.1417
19739TIP3    H180708   0.828   6.642  16.128  0.9314 -0.2073 -2.1507
19739TIP3    H280709   0.880   6.500  16.115 -1.5077 -1.3424 -0.2488
19740TIP3   OH280710   2.573   2.841   3.887 -0.9023  0.4371 -0.1519
19740TIP3    H180711   2.568   2.785   3.810 -0.9069  0.1232  0.0714
19740TIP3    H280712   2.486   2.879   3.896 -0.3226  2.2619 -1.6038
19741TIP3   OH280713   1.322   3.721   4.492 -0.4309  0.2560  0.0541
19741TIP3    H180714   1.248   3.770   4.529 -0.8056 -1.1900  1.3037
19741TIP3    H280715   1.292   3.696   4.405 -0.2884  2.0583 -0.5541
19742TIP3   OH280716   1.356   1.307  13.683 -0.6536  0.1271 -0.4448
19742TIP3    H180717   1.283   1.296  13.744 -1.0994 -0.2986 -1.0574
19742TIP3    H280718   1.336   1.249  13.610  0.3510 -0.0816 -0.5693
19743TIP3   OH280719   0.336   5.458  13.935  0.0778  0.2257 -0.0052
19743TIP3    H180720   0.300   5.389  13.991  0.2797  0.9554  1.0642
19743TIP3    H280721   0.268   5.525  13.934  0.9097  1.1448  1.1519
19744TIP3   OH280722   5.084   3.721  11.689 -0.0198  0.3185 -0.0649
19744TIP3    H180723   5.115   3.733  11.779  2.4454 -1.3830 -0.6141
19744TIP3    H280724   5.011   3.659  11.697  1.3472 -1.2599  0.6362
19745TIP3   OH280725   0.174   0.957   3.249 -0.6103 -0.8065 -0.0719
19745TIP3    H180726   0.132   0.986   3.330 -1.2339 -0.4674 -0.4995
19745TIP3    H280727   0.267   0.969   3.264 -0.8059  1.0822 -0.0601
19746TIP3   OH280728   1.702   2.205   1.809 -0.3136  0.5660 -0.2423
19746TIP3    H180729   1.657   2.138   1.757 -2.5327 -0.4782  2.7337
19746TIP3    H280730   1.634   2.270   1.827  1.0794  2.2192 -0.6721
19747TIP3   OH280731   3.493   0.023  16.552 -0.3297  0.5641 -0.9734
19747TIP3    H180732   3.578   0.066  16.542 -0.5410  1.0912 -0.5214
19747TIP3    H280733   3.454   0.063  16.629 -0.2015 -0.9759 -0.0507
19748TIP3   OH280734   6.025   6.123   0.406 -0.4398 -0.5476  0.2105
19748TIP3    H180735   5.959   6.063   0.372 -1.2260  1.5796 -2.3386
19748TIP3    H280736   5.990   6.151   0.491 -3.1108  0.7237 -1.1797
19749TIP3   OH280737   5.664   1.353  13.263 -0.1230  0.1028 -0.3563
19749TIP3    H180738   5.683   1.414  13.335  0.5524 -0.4494 -0.0512
19749TIP3    H280739   5.589   1.392  13.218  0.8198  1.6298 -0.6968
19750TIP3   OH280740   6.749   3.837   4.457  0.2505 -0.2235 -0.3679
19750TIP3    H180741   6.730   3.902   4.524 -1.4394 -1.0124 -0.0270
19750TIP3    H280742   6.826   3.871   4.411  0.8526  0.8101  1.3293
19751TIP3   OH280743   0.598   3.817   0.121  0.5127 -0.1777  0.1724
19751TIP3    H180744   0.634   3.789   0.205  2.4548  0.0747 -0.5088
19751TIP3    H280745   0.578   3.910   0.133 -0.7602 -0.5280  0.8219
19752TIP3   OH280746   1.331   6.042   0.699  0.3419  0.1682  0.3482
19752TIP3    H180747   1.410   6.007   0.658 -1.0464 -1.6069 -0.9658
19752TIP3    H280748   1.347   6.136   0.705  1.8553  0.0773 -1.4779
19753TIP3   OH280749   0.154   2.065   4.430  0.4566  0.0381 -0.4238
19753TIP3    H180750   0.075   2.099   4.473  0.6884 -0.9812  0.8572
19753TIP3    H280751   0.225   2.085   4.491  1.0569  0.0660 -1.1149
19754TIP3   OH280752   1.913   2.564  12.461 -0.1924  0.1729  0.2769
19754TIP3    H180753   1.886   2.557  12.552 -0.6504  0.8716  0.2056
19754TIP3    H280754   2.002   2.598  12.464  0.4349 -1.4545  0.5002
19755TIP3   OH280755   2.131   1.627   4.274 -0.0995 -0.2305  0.8379
19755TIP3    H180756   2.078   1.557   4.235 -0.2315  0.1494  0.3368
19755TIP3    H280757   2.145   1.689   4.203  0.7446 -0.1621  1.0577
19756TIP3   OH280758   1.852   6.664   5.147 -0.3824  0.8486  0.2357
19756TIP3    H180759   1.840   6.600   5.217 -0.1341  0.8187  0.2510
19756TIP3    H280760   1.941   6.696   5.159  0.3388 -0.4916 -1.1735
19757TIP3   OH280761   4.713   0.990   6.517 -0.7600 -0.5087 -0.4448
19757TIP3    H180762   4.690   0.900   6.497  0.0732 -1.3805  2.1301
19757TIP3    H280763   4.644   1.019   6.578 -0.3032  0.1163 -0.2119
19758TIP3   OH280764   4.365   1.288  11.604  0.3988 -0.2921 -0.1546
19758TIP3    H180765   4.453   1.260  11.578  1.2991  0.8245  1.5111
19758TIP3    H280766   4.377   1.376  11.639 -1.4781  0.0494 -0.2595
19759TIP3   OH280767   0.298   3.868   3.246  0.3855  0.7955  0.6435
19759TIP3    H180768   0.370   3.898   3.191 -0.4083 -1.9285 -2.2089
19759TIP3    H280769   0.323   3.779   3.272 -1.7102 -0.0780 -0.0942
19760TIP3   OH280770   2.976   4.302   0.023  0.1157 -0.2643  0.8059
19760TIP3    H180771   2.988   4.395   0.001 -0.9894  0.0591  1.4894
19760TIP3    H280772   3.055   4.260  -0.010  0.4414  0.8498  0.0752
19761TIP3   OH280773   5.786   3.260   2.262 -0.2432 -0.1448 -0.3455
19761TIP3    H180774   5.865   3.230   2.216 -0.5012 -1.6809  0.1452
19761TIP3    H280775   5.715   3.209   2.223 -0.6032 -0.7431  1.0196
19762TIP3   OH280776   3.900   5.382  16.651  0.4039 -0.3438  0.3797
19762TIP3    H180777   3.868   5.448  16.590  0.3033 -0.5228  0.2371
19762TIP3    H280778   3.943   5.317  16.595 -0.3414 -0.8850  0.4336
19763TIP3   OH280779   5.457   3.206  13.086  0.2933  0.0307 -0.1065
19763TIP3    H180780   5.433   3.235  12.998  2.6348 -0.7513 -1.0663
19763TIP3    H280781   5.529   3.264  13.111  1.2955 -1.3495  0.2576
19764TIP3   OH280782   2.515   1.563   3.674 -0.1626  0.3488 -0.0851
19764TIP3    H180783   2.504   1.473   3.644  2.2384  0.2217 -0.8129
19764TIP3    H280784   2.608   1.581   3.663 -0.8183  3.5152 -1.6088
19765TIP3   OH280785   0.158   3.378   0.033 -0.1297  0.2760 -1.0488
19765TIP3    H180786   0.222   3.448   0.049 -0.7258  0.4484  0.7489
19765TIP3    H280787   0.084   3.400   0.089 -0.8159 -1.1827 -1.3366
19766TIP3   OH280788   3.926   4.876   2.862 -0.1563  0.4521 -0.1104
19766TIP3    H180789   3.988   4.934   2.817  0.1726  1.3666  1.4308
19766TIP3    H280790   3.850   4.932   2.879 -0.3703  0.0592  0.2360
19767TIP3   OH280791   4.747   3.087   2.480  0.1432 -0.1916  0.4271
19767TIP3    H180792   4.837   3.089   2.449 -0.1086 -0.0948 -0.3269
19767TIP3    H280793   4.726   3.179   2.500  0.5304 -0.3388  1.5923
19768TIP3   OH280794   1.053   6.682   0.944 -0.3313 -0.3292  0.3953
19768TIP3    H180795   1.107   6.698   0.867 -0.2365  0.9781  0.7057
19768TIP3    H280796   0.990   6.616   0.916 -0.9639  0.8602 -1.1523
19769TIP3   OH280797   3.494   1.583   3.475 -0.5346  0.4858  0.1960
19769TIP3    H180798   3.579   1.565   3.434 -0.6209 -0.0427  0.2385
19769TIP3    H280799   3.464   1.497   3.507 -1.3298  0.5741 -0.2856
19770TIP3   OH280800   6.168   6.368  16.590  0.9115 -0.4539 -0.5254
19770TIP3    H180801   6.106   6.295  16.596 -0.3652  0.6654  0.5663
19770TIP3    H280802   6.178   6.384  16.496 -0.5628 -0.5939 -0.7297
19771TIP3   OH280803   6.298   6.578   6.279  0.4218 -0.0488 -0.2654
19771TIP3    H180804   6.242   6.644   6.238 -2.0070 -2.0215 -0.3780
19771TIP3    H280805   6.238   6.507   6.303  2.4252 -0.9916  2.5459
19772TIP3   OH280806   1.149   4.275   3.667 -0.2522 -0.0209  0.3754
19772TIP3    H180807   1.131   4.317   3.583  0.5482 -0.6919 -0.1573
19772TIP3    H280808   1.097   4.323   3.730  1.7958  2.8711  0.0762
19773TIP3   OH280809   6.821   6.395   5.014 -0.2915  0.2381  0.0494
19773TIP3    H180810   6.844   6.421   5.103 -1.7248 -0.8213  0.7762
19773TIP3    H280811   6.882   6.324   4.993 -1.2381 -0.9115  1.0204
19774TIP3   OH280812   1.687   2.303  14.212 -0.1280 -0.2057 -0.0144
19774TIP3    H180813   1.615   2.366  14.220 -0.4617 -0.4461 -1.0436
19774TIP3    H280814   1.663   2.247  14.139  0.6730 -0.8773  0.2179
19775TIP3   OH280815   0.119   2.330   1.689 -0.7668  0.0757 -0.3048
19775TIP3    H180816   0.083   2.274   1.620 -1.5382  0.5938 -0.3325
19775TIP3    H280817   0.050   2.394   1.707 -0.7967 -0.3625  1.3120
19776TIP3   OH280818   1.137   2.521   1.008  0.4424 -0.1442  0.1711
19776TIP3    H180819   1.202   2.592   1.000  0.6105 -0.2190  0.7740
19776TIP3    H280820   1.172   2.465   1.078  1.7377 -2.3541 -2.0773
19777TIP3   OH280821   1.252   5.873   4.878 -0.7061 -0.4585  0.5969
19777TIP3    H180822   1.296   5.819   4.812  0.2374  2.2283 -1.1651
19777TIP3    H280823   1.159   5.859   4.862 -0.5430  0.6890 -1.9885
19778TIP3   OH280824   0.512   3.951  14.602 -0.4004 -0.6729 -1.0511
19778TIP3    H180825   0.558   4.029  14.571 -1.1201 -0.3803 -1.4073
19778TIP3    H280826   0.509   3.960  14.697  0.5177 -0.8402 -0.9954
19779TIP3   OH280827   0.914   1.186  14.284  0.0708  0.1884  0.2304
19779TIP3    H180828   0.954   1.257  14.233 -2.1487  1.5721  0.3116
19779TIP3    H280829   0.851   1.146  14.224  0.1993 -0.7131  0.6810
19780TIP3   OH280830   3.606   5.209   3.764 -0.3681  0.2910  0.1825
19780TIP3    H180831   3.684   5.154   3.775 -0.9295 -0.2607  1.5993
19780TIP3    H280832   3.638   5.298   3.776  0.3836  0.2532 -1.2318
19781TIP3   OH280833   1.354   4.608   0.828 -0.2103  0.1575  0.2411
19781TIP3    H180834   1.407   4.571   0.899 -0.4628 -0.2188  0.2392
19781TIP3    H280835   1.276   4.552   0.826  0.1827 -0.3808 -0.9163
19782TIP3   OH280836   2.795   3.792  14.006 -0.0229 -0.2982  0.0220
19782TIP3    H180837   2.771   3.863  14.065 -1.9731 -0.4092 -0.5868
19782TIP3    H280838   2.819   3.836  13.924 -1.4246 -0.3039 -0.4196
19783TIP3   OH280839   5.905   2.763  12.875 -0.1876 -0.6856 -0.2973
19783TIP3    H180840   5.896   2.670  12.856  1.2833 -1.6427  3.0481
19783TIP3    H280841   5.882   2.772  12.967  0.8222  2.0850 -0.2122
19784TIP3   OH280842   6.097   0.154   4.315 -0.9322 -0.2130  0.1223
19784TIP3    H180843   6.062   0.239   4.341 -0.6325 -0.6514  2.0983
19784TIP3    H280844   6.030   0.091   4.342 -0.9711 -0.6498 -0.9508
19785TIP3   OH280845   1.773   1.004  11.873 -0.4355  0.0018  0.3555
19785TIP3    H180846   1.779   0.908  11.872  0.4104  0.0175 -1.3158
19785TIP3    H280847   1.688   1.023  11.911 -1.1875 -1.4867 -0.4924
19786TIP3   OH280848   4.791   4.983  12.390 -0.3753  0.5694  0.4936
19786TIP3    H180849   4.849   5.057  12.375  1.5959 -0.6761  1.6818
19786TIP3    H280850   4.728   5.015  12.455 -0.5942  1.6749 -0.2193
19787TIP3   OH280851   0.692   5.784  13.032 -0.1497  0.0292  0.0784
19787TIP3    H180852   0.774   5.834  13.028  0.9368 -1.7244 -1.4129
19787TIP3    H280853   0.642   5.816  12.957  0.2670 -0.6406 -0.4931
19788TIP3   OH280854   1.458   1.609  14.672 -0.1296 -0.5228  0.2106
19788TIP3    H180855   1.363   1.599  14.679 -0.1569  0.3517  1.3150
19788TIP3    H280856   1.470   1.679  14.608 -0.2114 -0.6914  0.0055
19789TIP3   OH280857   1.574   6.108  11.494  0.4381 -0.5957  0.6830
19789TIP3    H180858   1.497   6.101  11.549  1.4214  0.1309  2.2304
19789TIP3    H280859   1.608   6.196  11.511  2.9073 -1.6755  1.9177
19790TIP3   OH280860   3.418   2.136  14.183  0.0162 -0.0252 -0.0207
19790TIP3    H180861   3.358   2.167  14.250 -0.8668 -2.1037  0.2035
19790TIP3    H280862   3.497   2.190  14.195 -0.7396  0.7978  1.5419
19791TIP3   OH280863   5.351   0.822  12.894  0.3889  0.1652  0.3204
19791TIP3    H180864   5.328   0.804  12.803  2.2597 -1.1120  0.0573
19791TIP3    H280865   5.396   0.906  12.892 -0.0874  0.4189  0.1658
19792TIP3   OH280866   5.857   2.935  11.259  0.1442  0.3211  0.1163
19792TIP3    H180867   5.815   3.012  11.296  0.7995  1.1804 -0.8715
19792TIP3    H280868   5.790   2.893  11.206 -0.5396 -0.4298  1.5158
19793TIP3   OH280869   5.973   1.546   1.093 -0.1466  0.2702 -0.3493
19793TIP3    H180870   5.928   1.467   1.120  0.8997 -0.4881 -0.7744
19793TIP3    H280871   5.954   1.609   1.162 -0.1733 -0.6565  0.5074
19794TIP3   OH280872   0.182   4.492  14.895 -0.6847  0.2346 -0.5598
19794TIP3    H180873   0.276   4.477  14.886  0.1339  0.3987  4.8071
19794TIP3    H280874   0.175   4.586  14.916 -1.6109 -0.3349  1.9616
19795TIP3   OH280875   1.893   1.531   4.736 -0.0924  0.4144 -0.1036
19795TIP3    H180876   1.813   1.505   4.690 -0.5582 -0.2124  1.0092
19795TIP3    H280877   1.876   1.620   4.765  0.5599  1.1501 -1.8706
19796TIP3   OH280878   2.479   0.317  13.478  0.0485 -0.2957 -0.4729
19796TIP3    H180879   2.527   0.387  13.434  2.5337 -0.9582  0.9826
19796TIP3    H280880   2.485   0.337  13.571  0.0800 -1.9824 -0.0732
19797TIP3   OH280881   1.834   2.931   5.465 -0.0813 -0.3441  0.5490
19797TIP3    H180882   1.869   3.000   5.408  0.8326 -1.2882 -0.0507
19797TIP3    H280883   1.739   2.933   5.448 -0.0944  0.8276  0.6309
19798TIP3   OH280884   0.871   2.940  16.688 -0.5248 -0.4135 -0.0993
19798TIP3    H180885   0.869   2.972  16.778  0.3289 -0.2410 -0.1293
19798TIP3    H280886   0.895   2.848  16.695  1.0645 -0.0424 -0.2013
19799TIP3   OH280887   5.659   6.563  14.321 -0.0604  0.0846 -0.2001
19799TIP3    H180888   5.607   6.544  14.244 -0.3775 -1.1566  0.2939
19799TIP3    H280889   5.748   6.538  14.297  0.1257  1.1007 -0.6431
19800TIP3   OH280890   0.037   0.582  14.299 -0.0573 -0.0333 -0.6343
19800TIP3    H180891   0.054   0.621  14.213 -0.8625  0.6319 -0.5015
19800TIP3    H280892  -0.059   0.577  14.304 -0.0234  0.2202  0.3635
19801TIP3   OH280893   6.640   5.611   0.057  0.1178 -0.8573  0.9115
19801TIP3    H180894   6.723   5.657   0.044 -1.1104  0.8684 -1.4156
19801TIP3    H280895   6.639   5.544  -0.011 -0.0197 -1.5014  1.5378
19802TIP3   OH280896   0.356   6.476  11.132 -0.4022  0.2140  0.2107
19802TIP3    H180897   0.366   6.389  11.170  1.6413 -0.4736 -1.6570
19802TIP3    H280898   0.323   6.459  11.043  0.0938  1.3449 -0.2006
19803TIP3   OH280899   5.296   1.442  11.195 -0.1744  0.1116  0.5545
19803TIP3    H180900   5.254   1.524  11.168 -0.8149 -0.2781  0.3474
19803TIP3    H280901   5.308   1.393  11.114 -0.8605 -0.4832  0.7946
19804TIP3   OH280902   6.787   3.027  11.914  0.9113  0.2139  0.0504
19804TIP3    H180903   6.833   3.027  11.830  0.9322  2.1068  0.0344
19804TIP3    H280904   6.839   3.084  11.971  0.3047 -0.1712  1.0301
19805TIP3   OH280905   5.697   3.945  16.615 -0.7991  0.0899 -0.1770
19805TIP3    H180906   5.719   3.854  16.596 -0.1717  0.1851  0.0985
19805TIP3    H280907   5.605   3.953  16.587 -1.1094 -0.8342  0.5066
19806TIP3   OH280908   0.958   2.791  13.883  0.0704  0.6122 -0.4302
19806TIP3    H180909   0.908   2.855  13.833 -1.0318 -0.7026 -1.0787
19806TIP3    H280910   0.997   2.734  13.817  0.6060  0.2989  0.1444
19807TIP3   OH280911   1.374   1.104   3.744 -0.0522 -0.0325  0.1051
19807TIP3    H180912   1.344   1.102   3.654  0.5022 -1.2468 -0.0801
19807TIP3    H280913   1.316   1.166   3.788 -1.9033 -1.2234 -0.5412
19808TIP3   OH280914   0.254   6.580  16.311  0.1063 -0.2430  0.1055
19808TIP3    H180915   0.209   6.548  16.389 -1.3553  0.0271 -0.5946
19808TIP3    H280916   0.185   6.588  16.245  1.1799  0.2490 -0.9934
19809TIP3   OH280917   1.417   1.681  11.527  0.2675 -0.0608  0.3248
19809TIP3    H180918   1.433   1.758  11.473  1.7672  0.6195  1.6539
19809TIP3    H280919   1.331   1.696  11.566  1.6623  2.4310  2.7989
19810TIP3   OH280920   5.736   2.047  10.390 -0.3608 -0.1377  0.0852
19810TIP3    H180921   5.773   2.011  10.309  1.0457  0.3010  0.4925
19810TIP3    H280922   5.778   2.133  10.399 -1.2517  0.2378  0.7673
19811TIP3   OH280923   2.425   3.762  14.865  0.1478  0.1658 -0.4516
19811TIP3    H180924   2.429   3.670  14.894 -2.0984  0.8128  2.4005
19811TIP3    H280925   2.433   3.757  14.769 -2.5572 -3.3427 -0.7409
19812TIP3   OH280926   6.183   3.910  14.647 -0.0572  0.9553  0.2970
19812TIP3    H180927   6.249   3.867  14.592 -0.7923  0.1843  0.0035
19812TIP3    H280928   6.200   4.003  14.635 -0.6075  0.8345 -1.7826
19813TIP3   OH280929   1.438   1.683  16.259 -0.4880  0.2022  0.3151
19813TIP3    H180930   1.366   1.743  16.279  1.0189  1.8066  1.1308
19813TIP3    H280931   1.436   1.675  16.164 -0.3581  2.0554  0.1216
19814TIP3   OH280932   5.211   5.898   2.845 -0.7730  0.2621 -0.3187
19814TIP3    H180933   5.273   5.965   2.815 -0.1466  0.8481  2.0952
19814TIP3    H280934   5.207   5.836   2.772  2.4845  0.3366 -0.7223
19815TIP3   OH280935   0.726   3.582  11.459  0.1570 -0.1440  0.6195
19815TIP3    H180936   0.731   3.626  11.374  2.0668 -1.4379 -0.0042
19815TIP3    H280937   0.777   3.637  11.518 -2.0054  1.2988  1.2613
19816TIP3   OH280938   2.631   6.643   1.950  0.1137  0.1734 -0.2028
19816TIP3    H180939   2.669   6.684   1.872  0.3934  0.5531  0.1279
19816TIP3    H280940   2.604   6.716   2.005  0.9722 -0.0622  0.5635
19817TIP3   OH280941   3.441   3.534  11.923 -0.0227 -0.2228 -0.1144
19817TIP3    H180942   3.463   3.594  11.995  1.6108 -1.2981  0.3385
19817TIP3    H280943   3.514   3.543  11.861 -0.7763 -0.2654 -1.0346
19818TIP3   OH280944   4.792   6.316  13.939 -0.5114  0.1363 -0.0351
19818TIP3    H180945   4.788   6.254  13.866 -0.2628 -0.4794  0.4621
19818TIP3    H280946   4.702   6.350  13.946 -1.0087 -1.2563  0.6042
19819TIP3   OH280947   3.600   5.997  16.563 -0.5611  0.3440 -0.0688
19819TIP3    H180948   3.578   6.049  16.485 -0.7080 -0.7971 -0.8039
19819TIP3    H280949   3.677   5.947  16.538 -0.7235 -0.1773  0.4589
19820TIP3   OH280950   0.055   5.088   5.273  0.2637 -0.2820  0.0289
19820TIP3    H180951   0.036   5.179   5.298 -0.2634 -0.5238  0.5072
19820TIP3    H280952  -0.014   5.066   5.211  0.0234 -0.5650  0.3959
19821TIP3   OH280953   4.152   6.421  14.361  0.5662  0.5004 -0.0679
19821TIP3    H180954   4.218   6.473  14.405  0.7810  0.9611 -0.9190
19821TIP3    H280955   4.197   6.383  14.285  0.2106 -0.2923  0.1009
19822TIP3   OH280956   5.171   1.275   4.636 -0.8678  0.6589  0.3765
19822TIP3    H180957   5.092   1.291   4.686 -0.9439 -0.1708  0.5357
19822TIP3    H280958   5.221   1.212   4.688 -0.9406 -0.2110 -0.5513
19823TIP3   OH280959   6.501   3.685  10.208 -0.2730 -0.4101  0.0424
19823TIP3    H180960   6.585   3.651  10.237 -0.1333 -0.1416 -0.0553
19823TIP3    H280961   6.437   3.622  10.243 -0.2236  0.5947  2.0694
19824TIP3   OH280962   0.328   6.701   4.463 -0.7236 -0.6631 -0.1804
19824TIP3    H180963   0.262   6.760   4.426 -0.4604 -1.1236 -1.4024
19824TIP3    H280964   0.404   6.711   4.407  0.0232 -0.6857  0.7990
19825TIP3   OH280965   1.613   4.593  17.114  0.4824  0.2373  0.0944
19825TIP3    H180966   1.613   4.686  17.091 -1.0014  0.3064  0.2930
19825TIP3    H280967   1.647   4.549  17.036  0.0454  0.8538 -0.4521
19826TIP3   OH280968   5.688   3.529  13.092  0.3000 -0.3516 -0.0473
19826TIP3    H180969   5.593   3.538  13.093  0.3765  0.6743 -0.6269
19826TIP3    H280970   5.703   3.450  13.040 -0.2321 -0.5209  0.0441
19827TIP3   OH280971   2.766   4.863  14.420 -0.6954  0.0057  0.1951
19827TIP3    H180972   2.787   4.838  14.330 -1.8161  2.4522 -0.8102
19827TIP3    H280973   2.673   4.883  14.419 -1.0582 -1.2370  2.2800
19828TIP3   OH280974   5.383   6.828   0.344 -0.4436  0.3863 -0.4633
19828TIP3    H180975   5.457   6.794   0.294 -0.5951  1.4831 -1.4958
19828TIP3    H280976   5.322   6.861   0.277 -2.1850 -1.0683  0.3178
19829TIP3   OH280977   0.563   5.952  12.426 -0.0578 -0.5923  0.0856
19829TIP3    H180978   0.658   5.947  12.413 -0.1400 -0.5465 -0.5657
19829TIP3    H280979   0.546   6.044  12.447  0.0013 -0.5312 -0.1373
19830TIP3   OH280980   2.284   5.181   0.886 -0.0386 -0.2852 -0.3022
19830TIP3    H180981   2.277   5.125   0.964  2.0188 -0.4815 -0.1932
19830TIP3    H280982   2.368   5.156   0.847  0.4807  2.0514 -0.8028
19831TIP3   OH280983   2.512   1.822  15.452 -0.6201 -0.1958 -0.0494
19831TIP3    H180984   2.535   1.805  15.543 -0.1961  0.3434 -0.0501
19831TIP3    H280985   2.583   1.878  15.419  0.2681 -1.9482 -1.2820
19832TIP3   OH280986   4.606   2.849   0.950  0.0716  0.0066  0.2829
19832TIP3    H180987   4.570   2.833   0.862  2.1748  0.0217 -0.6539
19832TIP3    H280988   4.646   2.936   0.943  1.6013 -0.6211  0.7329
19833TIP3   OH280989   1.630   0.646   5.404 -0.6074 -0.0729  0.2583
19833TIP3    H180990   1.623   0.634   5.498  0.3736 -0.0368  0.3494
19833TIP3    H280991   1.705   0.593   5.378  1.0456  2.2093 -0.0019
19834TIP3   OH280992   5.556   3.865   3.843  0.0152  0.1451 -0.4718
19834TIP3    H180993   5.594   3.930   3.784  1.6834  1.8437  2.2188
19834TIP3    H280994   5.630   3.809   3.868 -1.0199 -1.6426 -1.2858
19835TIP3   OH280995   3.382   0.277   6.044 -0.0755 -0.2050  0.0223
19835TIP3    H180996   3.346   0.194   6.077 -0.3818  0.6040  1.8427
19835TIP3    H280997   3.474   0.257   6.026 -0.3245 -1.1216 -0.3280
19836TIP3   OH280998   3.960   5.022   2.416  0.5945 -0.9309  0.4368
19836TIP3    H180999   4.021   5.082   2.373 -0.8397  0.1594 -0.1611
19836TIP3    H281000   3.883   5.075   2.433  0.3292 -1.8904  2.5119
19837TIP3   OH281001   4.173   1.631   4.994  0.0772 -0.3614 -0.1931
19837TIP3    H181002   4.178   1.685   4.915  0.7041  0.7973  0.5981
19837TIP3    H281003   4.240   1.563   4.981  0.6859  0.2537 -0.3624
19838TIP3   OH281004   1.817   4.648  12.690  0.2627 -0.7567 -0.2920
19838TIP3    H181005   1.763   4.725  12.671  0.4061  0.0022  2.0312
19838TIP3    H281006   1.903   4.669  12.655  1.3031  1.7970  3.1534
19839TIP3   OH281007   1.114   6.422  13.035  0.1688 -0.3566  0.1216
19839TIP3    H181008   1.168   6.501  13.046  0.5228 -0.7930  1.9774
19839TIP3    H281009   1.152   6.378  12.959  0.0465  1.1738 -0.8739
19840TIP3   OH281010   6.126   0.587  16.650 -0.2979 -0.2865  0.6575
19840TIP3    H181011   6.064   0.638  16.598 -1.2754 -3.3790 -1.5430
19840TIP3    H281012   6.211   0.606  16.611 -0.2385  1.5252  1.5740
19841TIP3   OH281013   4.811   5.686   5.328  0.0472  0.1011  0.0214
19841TIP3    H181014   4.885   5.728   5.284  0.2527 -0.8682 -0.5938
19841TIP3    H281015   4.738   5.694   5.266  0.7488 -2.7364 -1.3490
19842TIP3   OH281016   5.902   0.044   1.646 -0.5364 -0.2487 -0.3422
19842TIP3    H181017   5.809   0.065   1.638 -1.0263 -1.9709  0.3717
19842TIP3    H281018   5.929   0.026   1.556 -0.3570  2.1232 -0.8318
19843TIP3   OH281019   6.120   5.713   4.147 -0.4874  0.8342  0.1966
19843TIP3    H181020   6.061   5.768   4.095 -0.7536  0.1846 -0.2079
19843TIP3    H281021   6.155   5.772   4.213 -1.0784  1.3965  0.0271
19844TIP3   OH281022   4.592   4.851  16.069  0.5823 -0.0491  0.3974
19844TIP3    H181023   4.638   4.928  16.035 -0.1069  0.0188 -0.4086
19844TIP3    H281024   4.499   4.876  16.068  0.4339 -0.5529  1.0239
19845TIP3   OH281025   0.395   6.168  16.916  0.5052  0.0374  0.7365
19845TIP3    H181026   0.490   6.165  16.907  0.5525 -1.3140  1.4686
19845TIP3    H281027   0.379   6.173  17.010 -0.1047 -5.1310  1.2106
19846TIP3   OH281028   4.157   0.549   1.087 -0.5591  0.0841 -0.5574
19846TIP3    H181029   4.202   0.617   1.138  0.7421 -2.8519  2.6180
19846TIP3    H281030   4.215   0.534   1.012  1.9737 -0.9154  1.4200
19847TIP3   OH281031   3.959   5.963   3.890 -0.0535  0.2365 -0.4290
19847TIP3    H181032   4.011   6.042   3.902  0.3566 -0.1794  0.6324
19847TIP3    H281033   3.875   5.995   3.856 -0.3357  1.2639  1.1313
19848TIP3   OH281034   2.993   2.282  17.115 -0.3327  0.2036  0.1144
19848TIP3    H181035   2.995   2.199  17.067 -2.6497 -1.0777  2.0051
19848TIP3    H281036   3.054   2.269  17.187 -0.0089  0.5146 -0.1000
19849TIP3   OH281037   1.692   5.280  14.181 -0.2136 -0.4758  0.6026
19849TIP3    H181038   1.728   5.232  14.256 -1.0663 -1.1299  0.6029
19849TIP3    H281039   1.646   5.354  14.220  0.0749 -0.3297  0.6708
19850TIP3   OH281040   6.827   5.516   4.720  0.4384 -0.1519 -0.3642
19850TIP3    H181041   6.850   5.609   4.716  0.4555 -0.1627 -0.5556
19850TIP3    H281042   6.909   5.471   4.700  0.9354 -0.2686  1.7353
19851TIP3   OH281043   1.654   6.330  16.151 -0.4801  0.0464 -0.0159
19851TIP3    H181044   1.687   6.420  16.145  0.6441 -0.3485 -0.0052
19851TIP3    H281045   1.580   6.328  16.090 -0.3344  0.9024 -0.2359
19852TIP3   OH281046   3.269   2.021  11.081 -0.6692  0.2739  0.1195
19852TIP3    H181047   3.203   2.079  11.043 -1.6300  0.5667  2.1129
19852TIP3    H281048   3.224   1.976  11.152  1.0572 -0.1291  1.0300
19853TIP3   OH281049   6.753   3.684  15.909 -0.1425 -0.3800  0.6932
19853TIP3    H181050   6.659   3.698  15.899  0.0241  1.0127  0.8270
19853TIP3    H281051   6.765   3.590  15.894 -1.3518 -0.3251 -0.9193
19854TIP3   OH281052   2.257   0.137  12.819 -0.7988 -0.0304 -0.1696
19854TIP3    H181053   2.217   0.203  12.875 -0.9046  0.2952 -0.6177
19854TIP3    H281054   2.329   0.183  12.776  1.2966 -1.0786  2.0134
19855TIP3   OH281055   3.477   3.751   0.554 -0.3009 -0.2328  0.1044
19855TIP3    H181056   3.449   3.839   0.527  1.7402  0.6985  0.8266
19855TIP3    H281057   3.437   3.693   0.489 -2.5507  1.0922  0.2030
19856TIP3   OH281058   2.268   6.673  12.331  0.2222  0.3708  0.5427
19856TIP3    H181059   2.214   6.623  12.270 -0.1872  0.7203  0.6159
19856TIP3    H281060   2.224   6.757  12.339  1.5233  1.1813 -0.4750
19857TIP3   OH281061   0.556   1.656  14.976  0.2618 -0.4312 -0.2241
19857TIP3    H181062   0.577   1.562  14.969 -0.8235 -0.8493  1.4600
19857TIP3    H281063   0.489   1.670  14.909 -0.0491 -1.0383 -0.0551
19858TIP3   OH281064   3.564   0.906  14.208  0.0398  0.7954  0.0793
19858TIP3    H181065   3.486   0.852  14.217 -1.1369  2.5884  1.1463
19858TIP3    H281066   3.540   0.973  14.144  1.2592  0.5010 -0.7400
19859TIP3   OH281067   5.953   4.137   0.257 -0.3986 -0.6594  0.5412
19859TIP3    H181068   5.860   4.152   0.240 -0.3630  0.8211  1.4979
19859TIP3    H281069   5.997   4.163   0.176 -0.7221 -0.2551  0.4956
19860TIP3   OH281070   4.075   1.574  14.595 -0.0039 -0.0027  0.9492
19860TIP3    H181071   4.092   1.611  14.508 -0.5756  0.3034  0.9690
19860TIP3    H281072   4.071   1.480  14.580  0.5613 -0.0049  0.7565
19861TIP3   OH281073   0.739   6.715   3.956 -0.0000  0.4634 -0.0723
19861TIP3    H181074   0.730   6.807   3.934  2.0575  0.5789 -0.6655
19861TIP3    H281075   0.701   6.668   3.882 -2.3123  0.7640  0.8411
19862TIP3   OH281076   5.127   0.362  14.578  0.1838 -0.5577  0.6477
19862TIP3    H181077   5.087   0.447  14.598  0.0809 -0.7637  1.3218
19862TIP3    H281078   5.177   0.378  14.497  0.4299  0.2310  0.9458
19863TIP3   OH281079   2.414   6.331  13.805 -0.3320  0.0431  0.0416
19863TIP3    H181080   2.353   6.345  13.733 -0.0125  0.5369 -0.1343
19863TIP3    H281081   2.382   6.388  13.875  0.6576  1.2879 -0.4909
19864TIP3   OH281082   4.831   2.369  16.868 -0.3821 -0.1632 -0.6607
19864TIP3    H181083   4.925   2.366  16.850 -0.0934 -1.3082  0.8109
19864TIP3    H281084   4.806   2.460  16.854  1.6491  0.9599  2.1009
19865TIP3   OH281085   1.500   4.183   5.752  0.2092  0.1925 -0.3376
19865TIP3    H181086   1.429   4.246   5.739 -0.8861 -0.7310  0.9104
19865TIP3    H281087   1.531   4.164   5.663 -0.8586  0.8789 -0.8838
19866TIP3   OH281088   1.465   5.667  17.004  0.1869 -0.3888  0.4050
19866TIP3    H181089   1.541   5.693  16.952  0.0137 -2.4898 -0.9939
19866TIP3    H281090   1.393   5.663  16.941 -0.1643 -2.4215  0.8729
19867TIP3   OH281091   0.567   5.638   2.147  0.1089  0.1490  0.2126
19867TIP3    H181092   0.486   5.688   2.159  0.3291  0.6783 -0.4399
19867TIP3    H281093   0.539   5.549   2.130 -0.3122  0.1716  0.7644
19868TIP3   OH281094   4.543   0.899  11.467  0.0705 -0.3996 -0.1671
19868TIP3    H181095   4.597   0.963  11.513  1.0430 -0.9361 -0.5220
19868TIP3    H281096   4.584   0.891  11.380 -1.1828 -0.0811 -0.8129
19869TIP3   OH281097   3.332   0.210   1.919 -0.1379 -0.0869  0.4623
19869TIP3    H181098   3.321   0.285   1.978 -1.3353 -0.0255  0.1940
19869TIP3    H281099   3.270   0.145   1.952  0.4613 -0.7237  0.3314
19870TIP3   OH281100   1.594   5.819  16.081  0.2816  0.5235 -0.6057
19870TIP3    H181101   1.634   5.862  16.157  0.2674 -0.3466 -0.0936
19870TIP3    H281102   1.667   5.775  16.038  0.2457  0.8089 -0.9657
19871TIP3   OH281103   6.579   4.883  12.068  0.5141  0.4012  0.9164
19871TIP3    H181104   6.632   4.960  12.087 -0.6399  1.1890  1.0037
19871TIP3    H281105   6.637   4.809  12.087  1.8588  1.2268  0.1863
19872TIP3   OH281106   1.821   4.416  14.908  0.0839  0.2760 -0.1987
19872TIP3    H181107   1.878   4.380  14.840 -0.3482  1.1128 -1.0338
19872TIP3    H281108   1.761   4.345  14.929  0.2719 -0.0170 -0.6449
19873TIP3   OH281109   6.832   2.402   6.038 -0.0740 -0.1303 -0.2629
19873TIP3    H181110   6.885   2.425   6.114 -0.6705 -1.0082  0.4374
19873TIP3    H281111   6.855   2.468   5.972  1.1526  0.0909  0.3457
19874TIP3   OH281112   0.512   6.174  16.489 -0.6708  0.1976 -0.3925
19874TIP3    H181113   0.578   6.110  16.515 -2.2901 -1.3852 -0.0092
19874TIP3    H281114   0.554   6.259  16.506  0.1701 -0.7248  2.7661
19875TIP3   OH281115   0.905   2.789  12.814  0.0473  0.1480  0.1804
19875TIP3    H181116   0.852   2.851  12.764 -1.6191 -0.7811  0.7195
19875TIP3    H281117   0.935   2.725  12.749  1.3497  1.1731 -0.2854
19876TIP3   OH281118   3.189   6.751   1.378 -0.1895 -0.1640 -0.6148
19876TIP3    H181119   3.096   6.726   1.378 -0.2518  0.0176  0.5459
19876TIP3    H281120   3.201   6.799   1.460  0.8072  0.3129 -1.0232
19877TIP3   OH281121   4.629   0.469   4.354 -0.4919 -0.3891  0.3571
19877TIP3    H181122   4.704   0.467   4.294  1.0399  0.5271  2.1427
19877TIP3    H281123   4.665   0.446   4.439 -2.3921 -0.5727  1.1651
19878TIP3   OH281124   4.876   2.551   4.798  0.0485 -0.7811 -0.0412
19878TIP3    H181125   4.781   2.558   4.793  0.1970  0.7260 -1.4531
19878TIP3    H281126   4.907   2.641   4.789  1.6562 -1.3995 -0.9909
19879TIP3   OH281127   4.760   2.629  16.843  0.4315  0.0205  0.1981
19879TIP3    H181128   4.702   2.704  16.858  0.1852  0.0139 -0.6674
19879TIP3    H281129   4.832   2.665  16.791  1.0639 -0.0374  1.0143
19880TIP3   OH281130   0.043   1.674   3.834  0.5481  0.2376 -0.3874
19880TIP3    H181131   0.020   1.592   3.877 -0.4529  0.1163 -1.1164
19880TIP3    H281132  -0.033   1.695   3.781  2.6170 -1.0910 -4.3217
19881TIP3   OH281133   0.133   5.468  16.065 -0.2996  0.2141  0.4087
19881TIP3    H181134   0.047   5.436  16.040  0.0964 -0.3580 -0.2390
19881TIP3    H281135   0.163   5.519  15.990  0.1108  0.0407  0.4522
19882TIP3   OH281136   3.320   3.029   4.534 -0.4494  0.0615 -0.0656
19882TIP3    H181137   3.393   3.079   4.571  0.2612 -0.6575 -0.4756
19882TIP3    H281138   3.308   2.956   4.595 -1.2882  0.5320  0.3663
19883TIP3   OH281139   5.769   6.258  12.991 -0.3856 -0.0963  1.0238
19883TIP3    H181140   5.699   6.315  12.959 -0.0055 -0.4874 -0.6024
19883TIP3    H281141   5.816   6.312  13.055  0.4753  1.8032 -1.0519
19884TIP3   OH281142   1.819   4.688  13.174 -0.2261 -0.4381  0.3379
19884TIP3    H181143   1.836   4.687  13.079 -2.3001  1.9309 -0.1475
19884TIP3    H281144   1.793   4.778  13.193 -5.0329 -1.9219  2.1255
19885TIP3   OH281145   1.499   5.379   0.291 -0.0658 -0.6581  0.2499
19885TIP3    H181146   1.421   5.401   0.341  0.6829  0.9008  0.7905
19885TIP3    H281147   1.569   5.430   0.332  0.9049 -0.6948 -1.2931
19886TIP3   OH281148   5.913   4.394  13.442  0.5107  0.3259 -0.0100
19886TIP3    H181149   5.915   4.391  13.538 -1.3110  0.9943  0.1033
19886TIP3    H281150   5.928   4.486  13.421  0.1730  0.3146 -0.3116
19887TIP3   OH281151   0.701   6.479   3.730 -0.5786  0.0713 -0.7059
19887TIP3    H181152   0.654   6.413   3.781 -0.1110  1.0666  1.0733
19887TIP3    H281153   0.783   6.435   3.704 -1.3853 -0.8692 -1.7750
19888TIP3   OH281154   4.322   3.750  12.836  0.9047  0.4638  0.4350
19888TIP3    H181155   4.271   3.690  12.782  1.5170 -0.6154  1.0239
19888TIP3    H281156   4.412   3.719  12.829  1.0717  0.6293  1.6257
19889TIP3   OH281157   3.957   0.690  14.422 -0.3951  0.4750 -0.2675
19889TIP3    H181158   3.923   0.610  14.382  2.4314 -0.7702 -0.4259
19889TIP3    H281159   3.924   0.688  14.511 -0.4182 -0.8858 -0.2781
19890TIP3   OH281160   6.690   4.365   4.157  0.1469  0.5934 -0.1938
19890TIP3    H181161   6.730   4.441   4.114 -0.3493  0.5125 -0.8086
19890TIP3    H281162   6.677   4.302   4.087 -1.0064  0.5962 -0.0047
19891TIP3   OH281163   2.742   4.030   0.056 -0.0446  0.1484  0.0023
19891TIP3    H181164   2.790   4.041   0.138 -0.4781 -0.6323  0.3642
19891TIP3    H281165   2.705   3.943   0.061  0.5301 -0.2065 -1.3463
19892TIP3   OH281166   5.114   4.300   3.358  0.1207 -0.1131  0.3778
19892TIP3    H181167   5.072   4.354   3.425  0.5834 -2.1906  2.4671
19892TIP3    H281168   5.056   4.307   3.282 -1.3122  1.0385  1.5198
19893TIP3   OH281169   0.986   1.877   4.752 -0.4326 -0.2865 -0.8066
19893TIP3    H181170   1.050   1.816   4.714  0.6946  0.3946 -0.0772
19893TIP3    H281171   0.986   1.952   4.692  2.1626  1.2739  0.9319
19894TIP3   OH281172   3.160   6.197  16.185 -0.5195  0.3107  0.2293
19894TIP3    H181173   3.211   6.262  16.233  0.8559 -0.8876  0.4407
19894TIP3    H281174   3.075   6.240  16.171  0.9158  2.9127 -1.3910
19895TIP3   OH281175   6.139   5.774  16.016 -0.0030 -0.2005 -0.2111
19895TIP3    H181176   6.120   5.704  16.077 -0.0988 -0.8119 -0.9269
19895TIP3    H281177   6.059   5.826  16.013 -1.6585 -2.6048 -3.0152
19896TIP3   OH281178   4.290   4.476   1.580 -0.6577 -0.4310 -0.0760
19896TIP3    H181179   4.212   4.525   1.557  0.7591  0.6197 -3.1661
19896TIP3    H281180   4.261   4.386   1.590 -2.3678  0.0858 -0.1974
19897TIP3   OH281181   1.094   5.851  17.073  0.3951  0.3274  0.2828
19897TIP3    H181182   1.103   5.848  16.977  0.4676  0.1654  0.2956
19897TIP3    H281183   1.009   5.811  17.091  1.3094 -1.6392  0.4392
19898TIP3   OH281184   5.414   0.299   4.344 -0.0065 -0.4677  0.4706
19898TIP3    H181185   5.486   0.288   4.407 -1.1759 -0.7717  1.7901
19898TIP3    H281186   5.381   0.387   4.362 -1.4144 -1.1621  1.4760
19899TIP3   OH281187   1.286   3.055  16.637  0.6857 -0.2067 -0.0516
19899TIP3    H181188   1.270   2.961  16.626 -2.5431 -0.2023  2.8684
19899TIP3    H281189   1.208   3.097  16.602 -0.6078  0.8630  3.6779
19900TIP3   OH281190   0.744   0.481  13.062  0.0436  0.0853  0.4216
19900TIP3    H181191   0.782   0.569  13.067 -0.3652  0.3184 -0.2641
19900TIP3    H281192   0.667   0.493  13.005 -0.6126 -0.5133  1.1733
19901TIP3   OH281193   0.896   1.904   1.111  0.0019 -0.2857 -0.0644
19901TIP3    H181194   0.867   1.922   1.022  2.2237 -2.0571 -1.2506
19901TIP3    H281195   0.818   1.873   1.156 -1.2479  0.9994 -1.2570
19902TIP3   OH281196   5.989   6.431   5.157  0.0601 -0.3035 -0.4789
19902TIP3    H181197   6.009   6.473   5.241 -1.7393 -0.3762  0.0462
19902TIP3    H281198   5.966   6.504   5.099  0.1322 -0.3282 -0.5375
19903TIP3   OH281199   0.445   2.575  14.939  0.2542 -0.0368  1.0552
19903TIP3    H181200   0.514   2.587  14.874 -0.8070  0.6327  0.0172
19903TIP3    H281201   0.492   2.551  15.020  1.4955 -2.8756 -0.3580
19904TIP3   OH281202   4.427   0.294   5.259  0.2618 -0.3074 -0.0457
19904TIP3    H181203   4.460   0.207   5.281 -0.5562 -0.3699  1.0068
19904TIP3    H281204   4.427   0.342   5.342  1.5661  1.0249 -0.7543
19905TIP3   OH281205   5.741   2.582  15.523  0.1614  0.4733 -0.0462
19905TIP3    H181206   5.695   2.590  15.439 -1.3619  0.0355  0.7054
19905TIP3    H281207   5.680   2.618  15.587  0.8082 -0.2905  1.0313
19906TIP3   OH281208   1.011   5.223  14.826 -0.2893  0.3004 -0.3760
19906TIP3    H181209   0.969   5.306  14.803 -0.6985  0.0221 -0.6657
19906TIP3    H281210   0.947   5.178  14.882 -0.5583 -0.2894 -1.1328
19907TIP3   OH281211   1.190   6.502  14.616 -0.3960 -0.1685 -0.5534
19907TIP3    H181212   1.243   6.423  14.631  1.0151  0.2876 -2.6274
19907TIP3    H281213   1.115   6.471  14.565 -1.4782 -0.6049  1.2406
19908TIP3   OH281214   1.504   5.916   5.017  0.1235 -0.0633 -0.0649
19908TIP3    H181215   1.468   5.973   4.950  1.1189 -0.5168 -1.0307
19908TIP3    H281216   1.522   5.973   5.091 -1.3515  0.3791 -0.0267
19909TIP3   OH281217   4.937   5.587  12.869  0.6243 -0.0050 -0.2550
19909TIP3    H181218   5.032   5.586  12.859  0.8100 -3.9838  0.2745
19909TIP3    H281219   4.923   5.576  12.963 -0.4147  1.4039 -0.2212
19910TIP3   OH281220   6.616   4.839   5.865 -0.0966 -0.1544  0.2013
19910TIP3    H181221   6.635   4.901   5.936 -2.1062  0.6328  0.1427
19910TIP3    H281222   6.674   4.865   5.794 -0.5161  1.3369  0.3738
19911TIP3   OH281223   4.911   3.052  12.632  1.1444 -0.7910  0.1520
19911TIP3    H181224   4.869   3.136  12.613  0.0980 -1.3774 -0.2269
19911TIP3    H281225   4.940   3.059  12.722  2.0616  0.3743 -0.2063
19912TIP3   OH281226   0.546   4.890  16.421 -0.3382  0.2449  0.0932
19912TIP3    H181227   0.584   4.871  16.336  0.5586  1.9552  0.0537
19912TIP3    H281228   0.459   4.923  16.402 -0.6431 -0.6276 -0.0526
19913TIP3   OH281229   2.541   5.788  13.416 -0.7990  0.3151  0.2982
19913TIP3    H181230   2.510   5.827  13.334 -0.8779 -1.3696 -0.5184
19913TIP3    H281231   2.620   5.837  13.437 -0.7036  0.6983 -0.8664
19914TIP3   OH281232   4.084   4.920  12.687  0.2394  0.0025 -0.3375
19914TIP3    H181233   4.038   5.001  12.664  2.3981  1.4880  0.2899
19914TIP3    H281234   4.096   4.925  12.782  1.4070 -0.4494 -0.4396
19915TIP3   OH281235   2.202   4.102   0.159  0.3418  0.2022 -0.1974
19915TIP3    H181236   2.267   4.172   0.163 -0.2072  0.7562 -0.8532
19915TIP3    H281237   2.128   4.135   0.208  0.3509 -0.2210  0.1082
19916TIP3   OH281238   4.583   3.600  14.973  0.1048  0.0452  0.0731
19916TIP3    H181239   4.546   3.639  14.894  0.0694  0.8181  0.4624
19916TIP3    H281240   4.673   3.576  14.948 -0.4000 -1.1546 -0.6528
19917TIP3   OH281241   4.504   4.232   0.884 -0.5073  0.3086  0.5494
19917TIP3    H181242   4.409   4.239   0.874 -0.5952 -2.3001 -1.2014
19917TIP3    H281243   4.516   4.161   0.947  0.2352 -0.7597 -0.7428
19918TIP3   OH281244   3.650   1.091  12.089 -0.3751 -0.1134  0.2899
19918TIP3    H181245   3.732   1.098  12.137 -0.1536 -0.7488  0.0102
19918TIP3    H281246   3.645   1.172  12.038 -1.4893  1.4567  2.6982
19919TIP3   OH281247   1.961   1.365  12.071 -0.0243 -0.4475 -0.0967
19919TIP3    H181248   1.978   1.454  12.101  2.6798 -1.0813  0.5551
19919TIP3    H281249   1.991   1.309  12.143 -2.5053 -1.9460 -0.0847
19920TIP3   OH281250   2.036   6.170  10.532  0.3164 -0.1827 -0.6572
19920TIP3    H181251   2.086   6.089  10.521 -1.6954 -1.4550 -1.0267
19920TIP3    H281252   2.046   6.216  10.449 -2.3059 -2.3761 -2.3524
19921TIP3   OH281253   1.191   3.479   5.389  0.1412  0.1862 -0.0438
19921TIP3    H181254   1.205   3.564   5.346  0.4787  0.5775  0.8323
19921TIP3    H281255   1.116   3.493   5.446  0.4072 -0.0020  0.3595
19922TIP3   OH281256   5.991   6.120  13.808 -0.9423  1.0661  0.2722
19922TIP3    H181257   5.917   6.181  13.811 -2.1429 -0.3112 -0.2193
19922TIP3    H281258   5.953   6.035  13.829  0.7256  0.4808  1.1169
19923TIP3   OH281259   5.060   6.468   3.433 -0.2262  0.0549 -0.0866
19923TIP3    H181260   4.997   6.453   3.503 -0.2860 -3.1066 -0.6315
19923TIP3    H281261   5.145   6.464   3.477 -0.3108  1.4181  0.2344
19924TIP3   OH281262   3.546   6.198  11.201 -0.4655 -0.8178 -0.6764
19924TIP3    H181263   3.489   6.216  11.276  0.4653 -3.0968  0.7107
19924TIP3    H281264   3.530   6.105  11.181  2.7246 -1.5757 -0.1648
19925TIP3   OH281265   1.425   4.076  14.960 -0.2328  0.0602 -0.0907
19925TIP3    H181266   1.416   3.981  14.963 -1.3718  0.1654  0.2978
19925TIP3    H281267   1.350   4.109  15.010  1.0117  1.1379  1.1632
19926TIP3   OH281268   3.859   0.896   1.280 -0.2648 -0.3936 -0.0995
19926TIP3    H181269   3.785   0.925   1.333  0.2419  0.6061  0.0797
19926TIP3    H281270   3.836   0.921   1.190  0.1485  0.5447  0.0478
19927TIP3   OH281271   2.958   0.109  17.147 -0.0958 -0.0194  0.6335
19927TIP3    H181272   3.037   0.059  17.167 -0.2325 -0.1819  0.7757
19927TIP3    H281273   2.984   0.171  17.079  0.8712  1.8043  2.5632
19928TIP3   OH281274   1.493   4.723  16.622 -0.1698 -0.0676 -0.3142
19928TIP3    H181275   1.578   4.767  16.621 -0.2828  0.1779  0.3162
19928TIP3    H281276   1.434   4.783  16.577  0.3144 -0.9654 -2.2628
19929TIP3   OH281277   1.069   5.543  12.445 -0.2129 -0.8293  0.8479
19929TIP3    H181278   1.140   5.479  12.443  0.3255 -0.2248  0.0228
19929TIP3    H281279   0.993   5.496  12.411  0.1494 -1.0696  0.3618
19930TIP3   OH281280   5.890   3.624  14.593 -0.2409 -0.3055  0.9218
19930TIP3    H181281   5.904   3.626  14.688 -1.5366  0.9070  1.1340
19930TIP3    H281282   5.797   3.604  14.584 -0.5605  1.4438 -0.0108
19931TIP3   OH281283   0.848   5.852  15.604  0.3354  0.3093 -0.2859
19931TIP3    H181284   0.858   5.941  15.571  1.8093  0.7380  1.1734
19931TIP3    H281285   0.938   5.823  15.621 -0.1765 -1.1284  0.1017
19932TIP3   OH281286   5.531   1.265  16.472  0.3592 -1.2790  0.6322
19932TIP3    H181287   5.449   1.222  16.452 -0.1011 -0.1167 -0.0785
19932TIP3    H281288   5.517   1.357  16.447  1.0655 -0.5555  2.6893
19933TIP3   OH281289   1.450   2.008  16.635 -0.7227  0.3439 -0.3019
19933TIP3    H181290   1.495   2.017  16.551  0.9175  0.6925  0.5685
19933TIP3    H281291   1.387   1.937  16.620  1.1406 -1.2194 -1.1911
19934TIP3   OH281292   4.918   0.713   2.431 -0.1982 -0.8067  0.4218
19934TIP3    H181293   4.898   0.625   2.464  0.5129 -1.1640 -0.0588
19934TIP3    H281294   4.861   0.771   2.480  0.0274 -1.4383  1.4584
19935TIP3   OH281295   6.641   5.700   3.861  0.2799  0.3981 -0.3553
19935TIP3    H181296   6.595   5.773   3.821 -0.2516 -0.2744 -0.9859
19935TIP3    H281297   6.574   5.633   3.875  1.0375 -0.5916 -1.2763
19936TIP3   OH281298   1.083   6.719   1.828 -0.5665 -0.6832  0.2199
19936TIP3    H181299   1.006   6.708   1.884 -0.5830  1.3976  0.6903
19936TIP3    H281300   1.060   6.673   1.747 -1.7017 -1.3341  0.8851
19937TIP3   OH281301   5.452   4.001  13.395 -0.2911  0.2602  0.4039
19937TIP3    H181302   5.440   4.087  13.436 -0.3414 -0.3364  1.6998
19937TIP3    H281303   5.387   3.998  13.325 -0.8182  0.9819  0.8506
19938TIP3   OH281304   6.548   6.811   1.013  0.2772  0.0409 -0.3859
19938TIP3    H181305   6.532   6.829   1.106 -2.2017 -1.0706 -0.5206
19938TIP3    H281306   6.561   6.898   0.974 -2.5252  0.9640  0.4310
19939TIP3   OH281307   5.726   5.926  14.393 -0.4530  0.5951  0.4128
19939TIP3    H181308   5.713   5.831  14.399  0.4637  0.4745  0.7543
19939TIP3    H281309   5.776   5.939  14.313 -1.5638  0.9224 -0.2528
19940TIP3   OH281310   6.568   5.998   4.911 -0.2496  0.4588  0.0932
19940TIP3    H181311   6.515   6.070   4.875 -0.7279  0.3383  0.5542
19940TIP3    H281312   6.625   6.040   4.975 -0.5088  0.4345  0.3411
19941TIP3   OH281313   1.706   2.952   3.094  0.0247 -0.6470  0.3019
19941TIP3    H181314   1.802   2.947   3.086  0.2237 -1.9525  2.7805
19941TIP3    H281315   1.687   3.046   3.097  1.5024 -0.3531  2.1205
19942TIP3   OH281316   4.081   0.918  12.730  0.3197  0.0996 -0.4275
19942TIP3    H181317   4.007   0.948  12.783  0.5088 -1.6439  0.9044
19942TIP3    H281318   4.135   0.996  12.718 -0.0247  0.6721  1.4597
19943TIP3   OH281319   0.851   4.531   3.458  0.3696  0.7520 -0.0617
19943TIP3    H181320   0.919   4.465   3.452 -0.4768 -0.2282  0.8848
19943TIP3    H281321   0.815   4.537   3.369 -0.5198 -1.1351  0.1324
19944TIP3   OH281322   5.670   4.704  12.131  0.3301  0.3946  0.0487
19944TIP3    H181323   5.742   4.656  12.090  0.8872  1.4346 -0.2499
19944TIP3    H281324   5.610   4.637  12.162  0.7884 -0.4664 -0.8799
19945TIP3   OH281325   1.869   3.310  13.451 -0.3366 -0.5058  0.2906
19945TIP3    H181326   1.835   3.315  13.540 -0.0433  0.3158  0.3611
19945TIP3    H281327   1.794   3.335  13.396 -0.5024 -0.9618  0.3044
19946TIP3   OH281328   6.653   1.773  16.387 -0.5190  0.1879 -0.0007
19946TIP3    H181329   6.702   1.807  16.311  2.5569 -0.2299  1.6338
19946TIP3    H281330   6.626   1.685  16.360  1.9592 -0.6181 -0.1857
19947TIP3   OH281331   3.611   4.785   2.428  0.2695  0.3791 -0.1160
19947TIP3    H181332   3.599   4.790   2.333  1.5322  0.2768 -0.3060
19947TIP3    H281333   3.555   4.712   2.455 -0.0970  0.4033 -0.7866
19948TIP3   OH281334   5.462   6.144  12.053 -0.1348  0.2566  0.2591
19948TIP3    H181335   5.508   6.136  11.969 -0.7882 -1.7810  0.0541
19948TIP3    H281336   5.396   6.211  12.038  0.8858  1.1748 -0.3015
19949TIP3   OH281337   2.353   3.125   6.521  0.0649  0.0501 -0.0608
19949TIP3    H181338   2.407   3.049   6.545 -0.6073 -0.4340 -0.0476
19949TIP3    H281339   2.274   3.087   6.482 -1.0223  0.6640  1.4083
19950TIP3   OH281340   3.396   3.398   5.566 -0.7771  0.5794  0.4040
19950TIP3    H181341   3.303   3.412   5.552 -0.6773  0.1941 -0.7577
19950TIP3    H281342   3.401   3.333   5.637 -1.4293 -0.4875 -0.5064
19951TIP3   OH281343   5.126   4.296  12.663  0.2114 -0.0451 -0.0464
19951TIP3    H181344   5.038   4.326  12.643  0.2665  0.4530  0.4294
19951TIP3    H281345   5.135   4.310  12.758  0.6047 -0.6037  0.0043
19952TIP3   OH281346   1.844   5.869   5.151 -0.0725  0.2841 -0.0471
19952TIP3    H181347   1.775   5.803   5.154 -2.1911  2.3557 -0.2642
19952TIP3    H281348   1.894   5.855   5.232 -0.7401 -1.2541  0.1314
19953TIP3   OH281349   5.303   1.318   2.926  0.0352  0.0471  0.0664
19953TIP3    H181350   5.345   1.304   2.841 -0.0598  0.5683 -0.0695
19953TIP3    H281351   5.212   1.337   2.905 -0.0029  0.1122  0.2909
19954TIP3   OH281352   4.495   0.958  14.265 -0.1244 -0.8469  0.0235
19954TIP3    H181353   4.518   0.940  14.356 -1.8904  0.6430  0.8314
19954TIP3    H281354   4.410   0.914  14.253 -0.7610  0.4451 -0.3396
19955TIP3   OH281355   0.948   4.151   1.821 -0.1357  0.5359  0.3825
19955TIP3    H181356   1.033   4.146   1.778 -0.2048 -1.2981  0.3895
19955TIP3    H281357   0.895   4.085   1.778 -1.7221  1.8951  0.1198
19956TIP3   OH281358   4.466   4.269   3.951  1.0574  0.5245  0.0668
19956TIP3    H181359   4.485   4.177   3.935  0.1802  0.5946 -1.5920
19956TIP3    H281360   4.545   4.315   3.921 -0.0341  0.5467 -3.1609
19957TIP3   OH281361   5.713   3.832   6.115  0.2572  0.2955 -0.7542
19957TIP3    H181362   5.766   3.763   6.078 -0.0694 -0.8556  0.8071
19957TIP3    H281363   5.769   3.872   6.182 -0.8095 -1.0509  1.0365
19958TIP3   OH281364   0.444   6.093   2.255 -0.0226  0.0993  0.2422
19958TIP3    H181365   0.464   6.100   2.348  1.5027  0.9318 -0.1186
19958TIP3    H281366   0.523   6.056   2.216 -0.0914  1.1187 -0.9079
19959TIP3   OH281367   3.304   0.792   2.270 -0.1327 -0.3737 -0.4360
19959TIP3    H181368   3.352   0.871   2.293  0.4889 -0.9535  0.3503
19959TIP3    H281369   3.221   0.800   2.318  0.7007 -1.0494  1.2237
19960TIP3   OH281370   5.191   6.734  16.641  0.1442 -0.1339 -0.1140
19960TIP3    H181371   5.210   6.697  16.555  0.8293  0.2870 -0.1474
19960TIP3    H281372   5.098   6.714  16.655 -0.2954  0.8418 -1.4809
19961TIP3   OH281373   6.810   2.269   5.371  0.1419  0.1735 -0.1431
19961TIP3    H181374   6.824   2.290   5.464  1.3998 -1.0981 -0.0153
19961TIP3    H281375   6.860   2.189   5.357 -0.0890  0.3122 -1.9163
19962TIP3   OH281376   1.375   0.120  16.913 -0.0520 -0.0016  0.1593
19962TIP3    H181377   1.380   0.131  16.818 -1.6361  1.6624  0.2028
19962TIP3    H281378   1.441   0.179  16.947 -0.3472  0.3660  0.1042
19963TIP3   OH281379   5.011   1.369  12.573 -0.6532  0.1025  0.2647
19963TIP3    H181380   4.992   1.449  12.622  1.1519  0.7817 -0.0961
19963TIP3    H281381   5.040   1.307  12.640 -0.2510  0.3520  0.3254
19964TIP3   OH281382   0.100   3.912   2.880  0.9462 -0.0161  0.1097
19964TIP3    H181383   0.019   3.908   2.830  1.6254  0.7042 -1.1123
19964TIP3    H281384   0.166   3.873   2.822  1.7006  0.5723  0.5510
19965TIP3   OH281385   3.962   6.302   3.970 -0.5180 -0.0564 -0.0899
19965TIP3    H181386   4.054   6.283   3.952 -0.6017 -0.9042  0.3310
19965TIP3    H281387   3.948   6.270   4.060 -0.8239  1.4916  0.4514
19966TIP3   OH281388   5.324   3.777   1.760 -0.3335 -0.3356 -0.9095
19966TIP3    H181389   5.306   3.692   1.719 -1.4106  0.0096 -1.1647
19966TIP3    H281390   5.414   3.797   1.734 -0.1419 -1.2943 -1.0208
19967TIP3   OH281391   4.750   6.099  12.864  0.7517  0.5751  0.2516
19967TIP3    H181392   4.835   6.131  12.891  1.2616 -1.0693  0.7149
19967TIP3    H281393   4.748   6.008  12.893  0.6928 -0.8975 -3.6435
19968TIP3   OH281394   2.191   2.810  14.727  0.2213 -0.1361 -0.2232
19968TIP3    H181395   2.228   2.813  14.639 -1.8964 -1.0781 -1.2234
19968TIP3    H281396   2.216   2.724  14.761  0.9390  0.1810  0.0723
19969TIP3   OH281397   2.311   3.632  11.485  0.4375  0.5850 -0.0701
19969TIP3    H181398   2.220   3.604  11.480  0.9334 -1.0448 -0.6002
19969TIP3    H281399   2.360   3.551  11.501  1.8256  1.3867 -0.1243
19970TIP3   OH281400   0.984   1.467  16.375 -0.2046 -0.3232 -0.4820
19970TIP3    H181401   0.931   1.431  16.304  0.2588 -0.7096 -0.6399
19970TIP3    H281402   1.011   1.390  16.426  0.2738 -0.1417 -0.4572
19971TIP3   OH281403   4.437   0.506  14.939  0.6198  0.3442 -0.4799
19971TIP3    H181404   4.361   0.505  14.998  0.1442 -0.3691 -1.0840
19971TIP3    H281405   4.510   0.532  14.995  0.0680  0.2851  0.2909
19972TIP3   OH281406   3.188   2.420  11.782 -0.1879  0.5898  0.0126
19972TIP3    H181407   3.255   2.447  11.720  0.3435 -0.2248  0.2147
19972TIP3    H281408   3.111   2.400  11.728  0.8039 -1.8365 -0.6258
19973TIP3   OH281409   2.619   3.080   5.097  0.4487 -0.1231 -0.2065
19973TIP3    H181410   2.624   3.173   5.077  2.2650 -0.1888 -0.2677
19973TIP3    H281411   2.532   3.068   5.135 -0.4433  1.2700 -1.6934
19974TIP3   OH281412   5.958   1.648   5.111 -0.6575  0.0367  0.1223
19974TIP3    H181413   5.942   1.727   5.060  1.1058  0.5288  0.2793
19974TIP3    H281414   5.893   1.652   5.181 -0.7927  1.1931 -0.0455
19975TIP3   OH281415   4.907   6.241  14.310 -0.3710 -0.3293  0.3063
19975TIP3    H181416   4.823   6.276  14.281  0.5603  0.6661 -1.3773
19975TIP3    H281417   4.885   6.160  14.356 -2.3593  0.9117  1.6429
19976TIP3   OH281418   2.292   6.100   3.811 -0.1412  0.0669  0.0995
19976TIP3    H181419   2.284   6.053   3.894 -0.5196 -0.6237 -0.3216
19976TIP3    H281420   2.382   6.083   3.782 -0.9868 -2.5958 -1.3115
19977TIP3   OH281421   5.812   6.393   3.128 -0.4037 -0.6318  0.3441
19977TIP3    H181422   5.737   6.450   3.109 -0.2597  0.4774  2.7616
19977TIP3    H281423   5.856   6.383   3.044 -2.5858 -0.3660 -0.9177
19978TIP3   OH281424   0.826   6.186  15.294 -0.0568  0.0635  0.0929
19978TIP3    H181425   0.829   6.228  15.209  0.7374  1.6307  0.8487
19978TIP3    H281426   0.770   6.110  15.282  0.8613 -0.3332 -2.0674
19979TIP3   OH281427   4.384   1.751   4.304 -0.3179  0.2444 -0.7722
19979TIP3    H181428   4.433   1.804   4.367 -1.5612  0.9246 -0.3342
19979TIP3    H281429   4.448   1.729   4.237  0.7910  0.3733  0.1997
19980TIP3   OH281430   4.060   4.342  15.120  0.4812  0.0343 -0.8980
19980TIP3    H181431   4.086   4.307  15.035 -1.9849 -2.5573 -0.7508
19980TIP3    H281432   3.970   4.311  15.132  0.1059  1.8316  1.8901
19981TIP3   OH281433   2.967   4.985   5.008  0.3118  0.5881  0.1110
19981TIP3    H181434   3.016   5.066   4.990 -1.7888  2.1259  0.9524
19981TIP3    H281435   2.993   4.960   5.096 -0.1326  1.2052  0.4234
19982TIP3   OH281436   5.645   4.996  14.829 -0.2782 -0.1757 -0.4482
19982TIP3    H181437   5.665   4.933  14.898  1.3943 -0.7421 -1.3708
19982TIP3    H281438   5.699   5.073  14.849 -0.3447 -0.0597 -0.7043
19983TIP3   OH281439   0.530   6.784  14.657 -0.5686 -0.2202  0.2924
19983TIP3    H181440   0.575   6.863  14.628  0.0428 -1.0049 -0.9899
19983TIP3    H281441   0.513   6.735  14.577 -0.0648 -1.8495  1.1240
19984TIP3   OH281442   5.307   5.248   0.124 -0.1396 -0.3317  0.2629
19984TIP3    H181443   5.367   5.217   0.192 -0.9558 -1.1367  0.6383
19984TIP3    H281444   5.327   5.341   0.115  2.3986 -0.8966 -0.9125
19985TIP3   OH281445   2.551   2.270  16.579 -0.8113  0.2193  0.2669
19985TIP3    H181446   2.514   2.352  16.547 -0.4850  0.8973  1.5393
19985TIP3    H281447   2.506   2.201  16.530  1.0365  1.1765 -3.1242
19986TIP3   OH281448   4.045   4.735  10.264 -0.1635  0.5608 -0.1210
19986TIP3    H181449   4.119   4.769  10.316 -0.0267 -0.2453  0.2282
19986TIP3    H281450   3.983   4.807  10.261  0.4728  1.1173 -0.0751
19987TIP3   OH281451   4.217   6.577   4.254  0.3526 -0.1977 -0.2084
19987TIP3    H181452   4.291   6.564   4.194 -0.2788 -0.0305 -1.0401
19987TIP3    H281453   4.205   6.672   4.257  2.7345  0.1842  3.1277
19988TIP3   OH281454   2.261   0.240   1.646 -0.0111 -0.2077 -0.6722
19988TIP3    H181455   2.209   0.315   1.618 -1.0279 -0.4817  0.4332
19988TIP3    H281456   2.282   0.194   1.564 -0.4901  0.5559 -1.2361
19989TIP3   OH281457   2.405   4.470   1.367 -0.1765  0.1805 -0.1591
19989TIP3    H181458   2.448   4.513   1.293  0.7373 -0.0827  0.2084
19989TIP3    H281459   2.408   4.377   1.344 -2.2649  0.2817 -1.0165
19990TIP3   OH281460   4.555   3.566  16.326 -0.4728 -0.6997  0.3086
19990TIP3    H181461   4.620   3.607  16.383 -0.1723 -0.8778  0.0944
19990TIP3    H281462   4.525   3.490  16.376 -2.6451  0.9395  1.6822
19991TIP3   OH281463   5.425   6.749   0.835 -0.2344 -0.1877  0.1656
19991TIP3    H181464   5.441   6.789   0.749  1.1633  0.1752  0.5700
19991TIP3    H281465   5.401   6.822   0.892 -0.7442 -0.3702  0.1890
19992TIP3   OH281466   1.817   5.662   3.938 -0.0220  0.2258  0.4780
19992TIP3    H181467   1.766   5.681   3.859 -0.5404 -0.5749  0.6064
19992TIP3    H281468   1.761   5.691   4.010  0.7092  1.5361  0.5483
19993TIP3   OH281469   4.712   4.925  10.873  0.3140  0.4896  0.6989
19993TIP3    H181470   4.773   4.863  10.911 -0.2769 -1.7700 -1.7443
19993TIP3    H281471   4.767   4.998  10.843  1.5279 -0.4941  0.4732
19994TIP3   OH281472   0.612   3.970   3.793  0.0238  0.4616 -0.2141
19994TIP3    H181473   0.700   3.968   3.755  0.5854  1.4459  0.9784
19994TIP3    H281474   0.589   4.063   3.794 -1.0656  0.2089 -0.5420
19995TIP3   OH281475   1.282   4.319   4.570 -0.2244  0.5544  0.1596
19995TIP3    H181476   1.327   4.234   4.570 -3.0762 -1.0953  0.5575
19995TIP3    H281477   1.277   4.343   4.478  3.0344  1.8027  0.1928
19996TIP3   OH281478   4.548   1.352  11.926  0.3938  0.0008  0.0435
19996TIP3    H181479   4.529   1.420  11.861 -0.3838  0.3188  0.5927
19996TIP3    H281480   4.530   1.393  12.010  1.2874 -0.4490  0.4612
19997TIP3   OH281481   2.148   3.886   4.249 -0.2936  0.4274 -0.2339
19997TIP3    H181482   2.130   3.799   4.284  0.5678  1.0964  2.0187
19997TIP3    H281483   2.095   3.945   4.302 -1.5456  1.2682 -2.3015
19998TIP3   OH281484   4.236   0.715  12.332 -0.8880  0.3462  0.1312
19998TIP3    H181485   4.146   0.682  12.333 -0.9720  0.5130 -0.9383
19998TIP3    H281486   4.285   0.650  12.282 -1.0069  1.6503 -1.7900
19999TIP3   OH281487   5.333   1.841   0.954 -0.4847  0.4966 -0.5465
19999TIP3    H181488   5.420   1.827   0.992 -0.5504  0.3528 -0.4526
19999TIP3    H281489   5.310   1.930   0.980 -0.5796  0.3598 -0.1567
20000TIP3   OH281490   3.237   5.149   2.384 -0.2517 -0.4074 -0.1754
20000TIP3    H181491   3.230   5.053   2.378 -1.6346 -0.2340 -2.1758
20000TIP3    H281492   3.168   5.182   2.327 -0.5786  1.8272  1.3813
20001TIP3   OH281493   6.126   1.817   0.343  0.1301 -0.3316  0.0365
20001TIP3    H181494   6.084   1.852   0.421  0.4906  0.4886 -0.1216
20001TIP3    H281495   6.071   1.847   0.270  0.1172 -0.5922 -0.0615
20002TIP3   OH281496   4.689   2.199   1.234 -0.9854 -0.2257 -0.3092
20002TIP3    H181497   4.758   2.143   1.268 -2.3001 -1.7289 -0.0107
20002TIP3    H281498   4.735   2.271   1.192  0.7335 -0.0706  1.6854
20003TIP3   OH281499   2.621   0.629   2.036  0.2236  0.1634  0.4480
20003TIP3    H181500   2.540   0.585   2.061  0.4796 -2.2013 -2.2836
20003TIP3    H281501   2.595   0.687   1.964  0.7507  0.4255  0.4662
20004TIP3   OH281502   4.710   5.967  15.604  0.8405 -0.3109 -0.3323
20004TIP3    H181503   4.631   5.954  15.655  0.8379 -1.4428 -0.5994
20004TIP3    H281504   4.722   5.886  15.555  3.1743 -0.9364  1.1054
20005TIP3   OH281505   3.544   6.219   0.088  0.1097  0.2916 -0.6306
20005TIP3    H181506   3.465   6.273   0.082  1.6740  2.6016 -1.7791
20005TIP3    H281507   3.602   6.268   0.147  0.4662 -1.7605  0.8378
20006TIP3   OH281508   3.444   1.143  15.708  0.0610  0.1678 -0.1753
20006TIP3    H181509   3.420   1.235  15.718  0.0918  0.3162 -1.2994
20006TIP3    H281510   3.538   1.140  15.722 -0.2850 -0.1354  2.4944
20007TIP3   OH281511   1.089   5.022   3.785 -0.7472 -0.2051  0.0434
20007TIP3    H181512   1.170   5.041   3.738 -0.5651 -0.3355  0.3002
20007TIP3    H281513   1.052   4.946   3.740 -0.8247 -0.0267 -0.1929
20008TIP3   OH281514   0.257   4.652  15.288 -0.1450  0.6247  0.7627
20008TIP3    H181515   0.174   4.616  15.256  1.2537 -2.4240  0.1977
20008TIP3    H281516   0.261   4.625  15.380  1.1950 -1.4697  0.1763
20009TIP3   OH281517   0.538   5.405   3.999  0.1872 -0.4427  0.0304
20009TIP3    H181518   0.572   5.316   3.999 -1.4294 -1.1342 -1.5618
20009TIP3    H281519   0.479   5.408   3.923  0.0619  1.9300  0.1427
20010TIP3   OH281520   4.706   2.428   1.062  0.3988  0.0531 -0.5724
20010TIP3    H181521   4.623   2.391   1.031 -0.0916 -0.2251  1.0223
20010TIP3    H281522   4.681   2.509   1.107  0.8905 -0.4330  0.6071
20011TIP3   OH281523   1.957   2.351   6.715 -0.1867  0.0869  0.0350
20011TIP3    H181524   2.000   2.266   6.722  0.5185  0.1690 -2.2352
20011TIP3    H281525   1.869   2.330   6.684 -0.5487  0.1209  1.0164
20012TIP3   OH281526   1.491   5.714  15.707  0.2097 -0.1707 -0.8948
20012TIP3    H181527   1.548   5.647  15.671 -0.1593 -0.8301 -0.2657
20012TIP3    H281528   1.448   5.753  15.630 -0.8770 -1.8223 -1.1774
20013TIP3   OH281529   1.043   6.288   5.043 -0.1971 -0.7945  0.3530
20013TIP3    H181530   1.033   6.204   5.086 -0.8803 -0.2414  1.3102
20013TIP3    H281531   1.137   6.299   5.032 -0.1496 -2.4610 -1.4254
20014TIP3   OH281532   5.132   1.691   4.562 -0.8173 -0.8756  0.2586
20014TIP3    H181533   5.042   1.680   4.533 -1.5146 -0.1689  2.0263
20014TIP3    H281534   5.170   1.753   4.499 -1.8388 -0.4388  0.0611
20015TIP3   OH281535   6.263   3.233  14.488 -0.5245  0.0693 -0.7578
20015TIP3    H181536   6.168   3.229  14.480 -0.5196 -0.5795 -0.5472
20015TIP3    H281537   6.279   3.235  14.583 -0.3881  2.1653 -0.7827
20016TIP3   OH281538   2.104   4.178   2.242 -0.3250 -0.1818 -0.4545
20016TIP3    H181539   2.145   4.097   2.212  2.0655  0.9786 -0.6023
20016TIP3    H281540   2.059   4.213   2.165 -0.0192 -0.5973 -0.8231
20017TIP3   OH281541   6.679   4.880  13.584  0.0239 -0.2578 -0.1430
20017TIP3    H181542   6.652   4.789  13.575  3.2412 -1.5325  1.4199
20017TIP3    H281543   6.747   4.891  13.517  1.0507  0.3330  0.9628
20018TIP3   OH281544   6.186   6.023   0.702 -0.2996 -0.1625 -0.3061
20018TIP3    H181545   6.263   6.068   0.668 -0.1199  0.1743  0.5176
20018TIP3    H281546   6.119   6.091   0.709 -0.4417 -0.2991 -0.3277
20019TIP3   OH281547   1.360   2.754  12.370  0.5366  0.5434  0.6549
20019TIP3    H181548   1.346   2.672  12.417 -2.0845  0.4568 -0.1291
20019TIP3    H281549   1.292   2.813  12.403  0.8808  1.6264 -0.4827
20020TIP3   OH281550   0.726   0.320   0.603  0.8207  0.0707  0.4989
20020TIP3    H181551   0.675   0.400   0.585 -0.0027 -0.4334  0.5458
20020TIP3    H281552   0.806   0.352   0.644  0.8745  0.9414 -0.2426
20021TIP3   OH281553   1.891   0.477   0.198  0.5175 -0.1339  0.6733
20021TIP3    H181554   1.979   0.442   0.211  0.7033  0.7141  1.9409
20021TIP3    H281555   1.866   0.511   0.285  1.0199  4.2632 -0.6212
20022TIP3   OH281556   2.686   0.220   6.561  0.1425 -0.0692 -0.2019
20022TIP3    H181557   2.716   0.266   6.639  1.4471 -0.2978 -0.5445
20022TIP3    H281558   2.643   0.288   6.509 -1.5132 -0.0930  1.0746
20023TIP3   OH281559   4.954   5.305   2.384  0.4901  0.3242  0.0196
20023TIP3    H181560   4.885   5.262   2.334  1.0773  0.8943 -1.3010
20023TIP3    H281561   4.949   5.264   2.471 -1.4824  0.3432 -0.0414
20024TIP3   OH281562   1.862   5.143  15.736 -0.2583  0.8419  0.3320
20024TIP3    H181563   1.870   5.237  15.753  0.9796  0.7367  0.4274
20024TIP3    H281564   1.814   5.109  15.812  0.0704  1.2579  0.7346
20025TIP3   OH281565   6.389   4.540  13.776  0.2033  0.0936  0.4178
20025TIP3    H181566   6.322   4.593  13.732 -0.3183  0.8169  2.0337
20025TIP3    H281567   6.340   4.467  13.815  0.4911  0.0921  0.7799
20026TIP3   OH281568   4.424   0.551   4.915  0.1146  0.2750  0.2931
20026TIP3    H181569   4.468   0.528   4.997 -0.0261  0.9200  0.5560
20026TIP3    H281570   4.460   0.491   4.850 -0.2178 -0.6550  0.9487
20027TIP3   OH281571   0.154   6.571   0.316 -0.3119 -0.2618 -0.2698
20027TIP3    H181572   0.160   6.618   0.233 -1.0074 -0.3518 -0.3751
20027TIP3    H281573   0.227   6.604   0.368 -0.9563  1.1696 -0.2273
20028TIP3   OH281574   3.535   5.003  14.282  0.3382  0.2264  0.1494
20028TIP3    H181575   3.482   4.976  14.207 -2.4029  1.5800  1.4260
20028TIP3    H281576   3.481   4.982  14.358  2.4505  0.1035  1.6901
20029TIP3   OH281577   1.153   5.940  16.427 -0.3988 -0.2902 -0.2421
20029TIP3    H181578   1.113   5.891  16.499 -0.7617  0.7036  0.2612
20029TIP3    H281579   1.210   5.877  16.383  0.6641 -0.6638  1.5682
20030TIP3   OH281580   0.019   0.069  17.113 -0.2838  0.5533  0.1495
20030TIP3    H181581  -0.040   0.074  17.188 -0.8653 -0.6412 -0.2014
20030TIP3    H281582  -0.039   0.053  17.038  0.5196 -1.8303 -0.0464
20031TIP3   OH281583   1.103   0.193   1.906 -0.3276  0.2677  0.7507
20031TIP3    H181584   1.156   0.194   1.985  0.9957  0.1710 -0.1185
20031TIP3    H281585   1.036   0.127   1.924 -0.0388  0.2232  1.7617
20032TIP3   OH281586   5.553   2.389   4.837  0.2862 -0.3076  0.0803
20032TIP3    H181587   5.562   2.307   4.884  0.2666 -0.2959  0.1048
20032TIP3    H281588   5.525   2.364   4.749 -0.5150 -0.2807  0.3194
20033TIP3   OH281589   1.646   5.535  15.574 -0.3978 -0.3904  0.1048
20033TIP3    H181590   1.663   5.447  15.606 -1.3731 -0.5143  0.2922
20033TIP3    H281591   1.711   5.547  15.504 -0.1435 -1.1833  0.1922
20034TIP3   OH281592   3.384   4.153   2.143 -0.6128 -0.2236  0.0877
20034TIP3    H181593   3.303   4.150   2.194 -0.0526 -0.1495  0.9858
20034TIP3    H281594   3.378   4.078   2.085 -0.9073 -0.7505  0.7903
20035TIP3   OH281595   3.130   5.973   5.434 -0.1292 -0.7804 -0.2438
20035TIP3    H181596   3.069   5.913   5.391 -0.1851 -0.8169 -0.1119
20035TIP3    H281597   3.127   5.949   5.526  0.0653 -0.7643 -0.2333
20036TIP3   OH281598   0.594   4.278   5.645  0.2049  0.0103 -0.1700
20036TIP3    H181599   0.563   4.188   5.632  2.0949 -0.6514 -0.4987
20036TIP3    H281600   0.549   4.308   5.723  0.3111 -1.6382  0.5765
20037TIP3   OH281601   3.275   6.621   4.078  0.4595  0.2915  0.2794
20037TIP3    H181602   3.308   6.571   4.004  0.3708  0.3160  0.2232
20037TIP3    H281603   3.245   6.556   4.141 -1.9136  0.2488 -0.7808
20038TIP3   OH281604   2.894   1.353   7.168 -0.1048  0.2640 -0.2661
20038TIP3    H181605   2.939   1.269   7.169  1.0791  0.7941 -2.2381
20038TIP3    H281606   2.900   1.382   7.076 -0.0302  2.7244  0.4434
20039TIP3   OH281607   0.836   5.277  15.278  0.3415  0.5582 -0.3949
20039TIP3    H181608   0.882   5.351  15.317  1.6570 -0.7059  0.5501
20039TIP3    H281609   0.853   5.204  15.338 -0.1166 -0.7245 -1.7754
20040TIP3   OH281610   0.444   2.002   5.961  0.0263  0.5363 -0.0040
20040TIP3    H181611   0.525   1.979   6.005  0.2358 -1.0186 -1.1116
20040TIP3    H281612   0.426   2.092   5.989  1.3160  0.3889  1.4276
20041TIP3   OH281613   5.802   0.706   2.481  0.6237  0.1765 -0.5856
20041TIP3    H181614   5.709   0.691   2.492  0.6970 -0.5361 -0.9077
20041TIP3    H281615   5.816   0.796   2.512 -0.0688  0.0890 -0.0045
20042TIP3   OH281616   0.161   3.034  13.292 -0.0343 -0.4375 -0.2204
20042TIP3    H181617   0.187   2.952  13.334  1.5367 -0.1545 -0.5655
20042TIP3    H281618   0.109   3.080  13.358  0.9632 -0.7268  0.7958
20043TIP3   OH281619   0.792   1.055   5.845 -0.2236  0.1029  1.0082
20043TIP3    H181620   0.764   1.087   5.931  2.7075  4.0068  0.8015
20043TIP3    H281621   0.758   1.121   5.783 -0.9273 -1.7620 -0.6935
20044TIP3   OH281622   5.880   5.919  10.333 -0.3799 -0.3204  0.0147
20044TIP3    H181623   5.938   5.864  10.386 -0.1351 -0.1326 -0.0521
20044TIP3    H281624   5.938   5.985  10.295 -0.4365 -0.8266 -0.9996
20045TIP3   OH281625   3.708   5.468  14.313  0.6249 -0.1121  0.3501
20045TIP3    H181626   3.730   5.470  14.405  1.5862  0.9072  0.1113
20045TIP3    H281627   3.789   5.443  14.269  0.3884  0.2039 -0.2770
20046TIP3   OH281628   1.735   5.729  12.354  0.0197 -0.0561  0.2010
20046TIP3    H181629   1.756   5.639  12.382  0.3035 -0.1690 -0.3620
20046TIP3    H281630   1.651   5.748  12.396 -0.9748 -1.2709 -1.0928
20047TIP3   OH281631   5.964   0.841  16.982 -0.1659  0.6221 -0.7346
20047TIP3    H181632   5.935   0.914  16.926  1.0695  0.5714 -1.4729
20047TIP3    H281633   5.970   0.878  17.069 -3.2195  0.4386 -0.3252
20048TIP3   OH281634   5.286   3.590  15.577 -0.5590  0.4113  0.4263
20048TIP3    H181635   5.271   3.684  15.573 -1.0349  0.3462  0.5721
20048TIP3    H281636   5.198   3.552  15.581 -0.4254 -0.1258 -1.2585
20049TIP3   OH281637   0.512   5.104  13.573  0.0548 -0.4050  0.8552
20049TIP3    H181638   0.521   5.194  13.606 -0.4549  0.3070 -0.8639
20049TIP3    H281639   0.592   5.060  13.603  0.7500  0.8758  0.9469
20050TIP3   OH281640   3.085   4.562  11.358 -0.2062  0.1387  0.4946
20050TIP3    H181641   3.101   4.605  11.274 -2.2520  0.6984  0.3257
20050TIP3    H281642   3.040   4.480  11.335 -2.1726  1.0055  1.0466
20051TIP3   OH281643   3.451   3.496   2.288  0.0466 -0.1661  0.9065
20051TIP3    H181644   3.494   3.414   2.264  1.8069  1.2741 -1.3436
20051TIP3    H281645   3.366   3.470   2.322  0.4340 -2.8942  0.0265
20052TIP3   OH281646   0.269   4.176  13.698 -0.1238  0.2108 -0.3045
20052TIP3    H181647   0.234   4.245  13.642  0.4379 -1.2276 -2.5930
20052TIP3    H281648   0.363   4.192  13.701  0.1263 -0.7763 -1.4917
20053TIP3   OH281649   0.477   0.249   1.381  0.2036  0.4047 -0.1493
20053TIP3    H181650   0.444   0.162   1.404 -1.8490  1.0209 -0.5613
20053TIP3    H281651   0.541   0.233   1.312  0.7316 -0.8405  0.5755
20054TIP3   OH281652   3.464   2.915   3.247  0.2083 -0.3051 -0.2655
20054TIP3    H181653   3.452   2.967   3.167  3.4690  0.1078 -0.6336
20054TIP3    H281654   3.474   2.980   3.316 -1.1370 -0.6351  0.2690
20055TIP3   OH281655   6.116   0.282   4.035  0.5914 -0.4284  0.0270
20055TIP3    H181656   6.105   0.212   3.971  0.2138  0.4586 -0.9299
20055TIP3    H281657   6.167   0.243   4.106  0.1111 -1.7410 -0.3259
20056TIP3   OH281658   4.318   3.698  17.127  0.0837  0.7544  0.1581
20056TIP3    H181659   4.298   3.687  17.034  1.7231  1.2198 -0.2802
20056TIP3    H281660   4.326   3.792  17.139  0.2081  0.6760  0.7134
20057TIP3   OH281661   2.135   2.006  13.727  0.8105 -0.2266 -0.0444
20057TIP3    H181662   2.105   1.960  13.805  0.8347 -1.5632 -0.7999
20057TIP3    H281663   2.225   1.975  13.714  1.4209  1.2845  0.3480
20058TIP3   OH281664   3.991   4.068   1.488  0.2493 -0.3912 -0.5923
20058TIP3    H181665   3.950   4.038   1.569 -0.6260 -0.0816 -0.9107
20058TIP3    H281666   4.038   4.148   1.512  0.6437 -0.7253 -0.2354
20059TIP3   OH281667   3.522   0.956   0.676  0.0747 -0.1666  0.5710
20059TIP3    H181668   3.519   0.863   0.700 -0.6825 -0.1509  0.5325
20059TIP3    H281669   3.525   1.002   0.759  0.9934 -0.2363  0.5884
20060TIP3   OH281670   1.459   4.904  13.480 -0.1748 -0.3175 -0.1519
20060TIP3    H181671   1.517   4.928  13.553  0.3934 -2.0960  0.0369
20060TIP3    H281672   1.503   4.938  13.402 -0.5650  1.2144  0.2557
20061TIP3   OH281673   5.480   2.671   1.982 -0.2783  0.1168 -0.1099
20061TIP3    H181674   5.433   2.747   1.949  0.0528  0.9460  1.2603
20061TIP3    H281675   5.435   2.596   1.944 -0.1536  0.9863 -2.0897
20062TIP3   OH281676   5.155   3.302  12.842 -0.3405  0.2276  0.8669
20062TIP3    H181677   5.134   3.345  12.925 -2.4924 -0.8396  0.9588
20062TIP3    H281678   5.130   3.366  12.775 -2.2960 -0.2733  1.0317
20063TIP3   OH281679   4.466   2.276   5.284 -0.0891 -0.0663  0.1151
20063TIP3    H181680   4.370   2.271   5.277 -0.0584  0.1880 -0.5586
20063TIP3    H281681   4.486   2.237   5.369 -0.8878  0.9067  0.7731
20064TIP3   OH281682   0.649   0.828  12.681 -0.5168  0.1773  0.3800
20064TIP3    H181683   0.658   0.766  12.609  1.5351 -2.9240  3.0317
20064TIP3    H281684   0.708   0.900  12.659  3.4045 -2.6631  0.6627
20065TIP3   OH281685   4.908   5.964   0.872  0.6029  0.1122  0.2866
20065TIP3    H181686   4.989   5.967   0.822  0.4797  0.7826  0.1196
20065TIP3    H281687   4.842   6.001   0.813  0.3690  0.4935  0.7823
20066TIP3   OH281688   4.824   1.824   3.587  0.3420 -0.3083  0.3209
20066TIP3    H181689   4.758   1.880   3.546  1.3419  2.2972  1.9865
20066TIP3    H281690   4.773   1.759   3.636 -0.9740  0.7745  0.4515
20067TIP3   OH281691   1.856   3.697  15.073 -0.0834 -0.1289 -0.3874
20067TIP3    H181692   1.917   3.765  15.100 -1.1419  0.2905  1.0682
20067TIP3    H281693   1.886   3.671  14.986  0.8831  1.5561 -0.5981
20068TIP3   OH281694   3.094   0.253  12.644  0.2470  0.0263 -0.8005
20068TIP3    H181695   3.029   0.238  12.575 -0.6676  0.7059 -0.1192
20068TIP3    H281696   3.070   0.338  12.681  3.3857  1.8289 -2.5100
20069TIP3   OH281697   5.024   3.397  13.049  0.4734 -0.6963 -0.1387
20069TIP3    H181698   5.014   3.369  13.140 -2.3867 -0.9728 -0.4685
20069TIP3    H281699   5.026   3.493  13.053  0.4576 -0.7086  0.2084
20070TIP3   OH281700   6.564   4.563  10.571 -0.0352  0.0101  0.0949
20070TIP3    H181701   6.482   4.602  10.542  0.3983  1.2401  0.4743
20070TIP3    H281702   6.594   4.512  10.496 -1.4368 -0.9850  0.1592
20071TIP3   OH281703   3.917   5.670   3.145 -0.2378  0.2252 -0.0016
20071TIP3    H181704   3.840   5.701   3.097  0.1465  0.5964 -0.3952
20071TIP3    H281705   3.988   5.726   3.114  0.3680 -0.7088 -0.3321
20072TIP3   OH281706   3.247   5.134   1.711 -0.0145 -0.1354  0.0563
20072TIP3    H181707   3.153   5.149   1.711 -0.2970 -1.6025  1.5880
20072TIP3    H281708   3.286   5.222   1.702 -1.5214  0.8294  2.1310
20073TIP3   OH281709   3.967   5.785  14.200 -0.1052  0.0721 -0.3355
20073TIP3    H181710   3.874   5.776  14.176  0.0621 -1.2587 -0.5689
20073TIP3    H281711   4.014   5.779  14.117  0.2891 -1.2668 -0.0366
20074TIP3   OH281712   2.097   5.287  11.897 -0.0864 -0.0849  0.1366
20074TIP3    H181713   2.049   5.219  11.851  0.5239 -1.1013  0.9517
20074TIP3    H281714   2.033   5.328  11.954  0.1135 -1.9538  1.8058
20075TIP3   OH281715   4.683   6.595  10.994 -0.3675 -0.2836  0.5683
20075TIP3    H181716   4.773   6.629  10.997 -0.1362 -0.7888 -0.3800
20075TIP3    H281717   4.628   6.673  10.996  0.1488  0.1426 -0.9678
20076TIP3   OH281718   5.880   2.846   0.753 -0.5019 -0.0940 -0.0392
20076TIP3    H181719   5.884   2.766   0.805 -1.7675 -0.4358 -0.4388
20076TIP3    H281720   5.789   2.852   0.724 -0.5980  1.8346  0.5143
20077TIP3   OH281721   0.739   1.563  10.869 -0.4991  0.4956  0.5871
20077TIP3    H181722   0.808   1.628  10.865 -0.7440  0.7660  0.7315
20077TIP3    H281723   0.704   1.570  10.958  1.0737 -1.4980  1.4476
20078TIP3   OH281724   4.865   3.291   6.306  0.1319 -0.6186 -0.3982
20078TIP3    H181725   4.820   3.219   6.263  0.7575 -2.0261  1.1820
20078TIP3    H281726   4.801   3.362   6.309 -1.1396 -1.7369 -0.3673
20079TIP3   OH281727   3.257   2.306   1.537 -0.2339 -0.3131  0.4104
20079TIP3    H181728   3.341   2.262   1.548 -0.1009  0.1496  1.4020
20079TIP3    H281729   3.278   2.399   1.533 -0.6458 -0.2319  0.0644
20080TIP3   OH281730   2.699   1.740   2.954  0.8388 -0.7058  0.0982
20080TIP3    H181731   2.671   1.815   3.005  0.1300 -0.8636 -0.0492
20080TIP3    H281732   2.644   1.742   2.875  1.2435 -1.0175 -0.1984
20081TIP3   OH281733   4.351   1.804   3.574 -0.6401  0.3250  0.5360
20081TIP3    H181734   4.348   1.886   3.525 -2.7043 -0.2939 -0.5178
20081TIP3    H281735   4.376   1.830   3.663 -3.4607  2.4829  0.8399
20082TIP3   OH281736   6.213   6.417   0.727 -0.6441  0.1405 -0.1166
20082TIP3    H181737   6.150   6.383   0.664 -0.0303  0.4748 -0.9215
20082TIP3    H281738   6.159   6.457   0.795 -1.3067  1.2403 -1.2514
20083TIP3   OH281739   3.101   3.198   4.349 -0.4371 -0.0911 -0.1845
20083TIP3    H181740   3.060   3.236   4.426 -0.6607  0.9151 -0.7854
20083TIP3    H281741   3.158   3.130   4.383 -2.1376 -1.1329  0.7225
20084TIP3   OH281742   4.533   5.277  16.610 -0.3397  0.0339 -0.1323
20084TIP3    H181743   4.451   5.268  16.659 -0.1239 -0.8437  0.0898
20084TIP3    H281744   4.527   5.210  16.542  0.2851 -0.1810  0.0238
20085TIP3   OH281745   0.779   5.880  11.792 -0.0679 -0.0995  0.5579
20085TIP3    H181746   0.855   5.832  11.760 -0.9324 -0.9788 -0.2477
20085TIP3    H281747   0.712   5.867  11.725 -2.3356 -2.9348  3.0481
20086TIP3   OH281748   5.155   1.245   3.403  0.6623 -0.4204  0.2996
20086TIP3    H181749   5.108   1.237   3.486 -0.7445 -2.1904 -0.5977
20086TIP3    H281750   5.232   1.188   3.414  0.1857 -1.0889  0.2118
20087TIP3   OH281751   5.705   4.430   0.277 -0.0334 -0.2268 -0.4396
20087TIP3    H181752   5.618   4.470   0.276 -0.5338 -1.2883 -1.5143
20087TIP3    H281753   5.698   4.360   0.342  0.1197 -0.1187 -0.3052
20088TIP3   OH281754   1.335   0.456   3.068 -0.5006  0.0912 -0.0810
20088TIP3    H181755   1.386   0.519   3.119  0.3082 -0.6687  0.0780
20088TIP3    H281756   1.283   0.510   3.008  1.7496  0.8848 -1.4566
20089TIP3   OH281757   1.268   4.456   1.683  0.1250  0.1852  0.3153
20089TIP3    H181758   1.353   4.415   1.704  1.7081  2.4351 -1.2474
20089TIP3    H281759   1.224   4.463   1.768  2.0072 -0.0221  1.3698
20090TIP3   OH281760   6.741   5.032   5.659 -0.2629  0.0081 -0.3586
20090TIP3    H181761   6.744   5.080   5.577  0.8200  4.1206  1.7754
20090TIP3    H281762   6.770   5.095   5.725 -2.7624 -2.3911  3.5020
20091TIP3   OH281763   6.245   6.747   4.153 -0.2302 -0.1616 -0.0604
20091TIP3    H181764   6.290   6.831   4.165 -0.4834 -0.3475  3.0403
20091TIP3    H281765   6.170   6.752   4.212 -0.5115 -2.4066 -0.1607
20092TIP3   OH281766   2.891   2.928  14.285 -0.0260  0.1140 -0.1083
20092TIP3    H181767   2.955   2.962  14.222  1.1383  0.9253  1.4283
20092TIP3    H281768   2.811   2.977  14.266 -0.0242 -0.4202 -1.6208
20093TIP3   OH281769   6.359   6.622   2.639 -0.0496 -0.0331  0.3004
20093TIP3    H181770   6.263   6.621   2.636 -0.0855  0.9286  0.9175
20093TIP3    H281771   6.383   6.530   2.649 -0.9559 -0.1938  1.1443
20094TIP3   OH281772   0.492   5.571  17.065  0.4922 -0.1067  0.2331
20094TIP3    H181773   0.513   5.660  17.036 -1.8124 -0.1620 -2.0075
20094TIP3    H281774   0.574   5.522  17.055  1.7009  1.6281  1.1619
20095TIP3   OH281775   0.465   1.258  12.911 -0.0598 -0.3501  0.0269
20095TIP3    H181776   0.470   1.174  12.865 -1.3465 -0.6916  0.4748
20095TIP3    H281777   0.535   1.310  12.872 -0.9292 -0.7025 -2.1770
20096TIP3   OH281778   2.809   2.438  16.973 -0.0015 -0.3550  0.0001
20096TIP3    H181779   2.878   2.388  17.016  1.7480  2.1392  0.3028
20096TIP3    H281780   2.743   2.451  17.041  0.5352 -0.4671  0.5554
20097TIP3   OH281781   5.652   0.885  12.804 -0.8961  0.4817  0.0268
20097TIP3    H181782   5.741   0.897  12.772 -0.6876  0.8867  0.7256
20097TIP3    H281783   5.602   0.860  12.727 -0.3774  1.2721 -0.5841
20098TIP3   OH281784   3.356   4.062  11.211  0.0827  0.6137  0.4080
20098TIP3    H181785   3.334   4.055  11.118 -0.0746  0.2044  0.4737
20098TIP3    H281786   3.440   4.108  11.212  0.7249 -0.5084 -0.0087
20099TIP3   OH281787   2.932   3.780  15.655  0.3989  0.1325  0.4501
20099TIP3    H181788   2.876   3.769  15.732 -0.6641 -1.2782 -0.4829
20099TIP3    H281789   2.880   3.835  15.596  0.9373  0.6578  0.4595
20100TIP3   OH281790   0.998   2.795  16.443  0.1908  0.6549  0.0744
20100TIP3    H181791   1.072   2.812  16.384 -0.6467 -1.0944 -1.5829
20100TIP3    H281792   0.921   2.828  16.396 -0.5161 -0.9426  0.0308
20101TIP3   OH281793   0.129   4.183   2.962 -0.2410 -0.0321  0.4170
20101TIP3    H181794   0.043   4.216   2.938 -1.3193 -2.6637  0.2377
20101TIP3    H281795   0.119   4.087   2.958  1.9645 -0.4845  2.8755
20102TIP3   OH281796   4.591   0.893   5.679  0.1516 -0.0676  0.5116
20102TIP3    H181797   4.496   0.896   5.674 -0.0418  2.3426  3.0163
20102TIP3    H281798   4.610   0.844   5.759  0.7014  2.8940  2.3667
20103TIP3   OH281799   3.240   5.225  13.797 -0.1811  0.0464 -0.0268
20103TIP3    H181800   3.223   5.310  13.839 -3.4057 -0.3483 -0.2833
20103TIP3    H281801   3.246   5.246  13.703 -0.6861  0.0102 -0.0650
20104TIP3   OH281802   3.938   3.134  14.932  0.3104 -0.0343 -0.1228
20104TIP3    H181803   3.976   3.200  14.990  2.1278 -1.6784  0.6574
20104TIP3    H281804   3.883   3.185  14.872  0.6081  2.0310  1.2380
20105TIP3   OH281805   4.805   3.242  15.283  0.2430  0.4823 -0.0250
20105TIP3    H181806   4.770   3.155  15.261 -1.1633  0.7087  1.1211
20105TIP3    H281807   4.895   3.225  15.311 -0.0582 -0.6496  0.3229
20106TIP3   OH281808   5.648   6.820   1.246 -0.5828  0.1606  0.5567
20106TIP3    H181809   5.714   6.759   1.278  0.1193  1.0323  0.7981
20106TIP3    H281810   5.565   6.774   1.260 -0.0375 -0.9763  0.1851
20107TIP3   OH281811   0.484   0.972  12.843  0.5592 -0.3191  0.3202
20107TIP3    H181812   0.557   0.928  12.798  0.4763 -0.1506  0.0218
20107TIP3    H281813   0.416   0.980  12.777 -0.1145 -1.3680  0.8652
20108TIP3   OH281814   0.947   5.362   3.040  0.1944 -0.1786  0.1376
20108TIP3    H181815   0.888   5.359   3.115 -2.5807  0.2747 -1.8507
20108TIP3    H281816   0.955   5.456   3.020 -1.3390 -0.3670 -1.6458
20109TIP3   OH281817   1.639   1.518   0.729 -0.0079  0.1060 -0.5804
20109TIP3    H181818   1.725   1.561   0.732  0.9602 -1.6758 -1.1239
20109TIP3    H281819   1.596   1.544   0.810  1.8441 -0.5061  0.6809
20110TIP3   OH281820   1.993   1.932   3.488  0.3130 -0.3234 -0.0121
20110TIP3    H181821   1.992   1.855   3.545  0.2685 -0.1449  0.2310
20110TIP3    H281822   1.945   1.905   3.410  0.7334 -0.7011 -0.1405
20111TIP3   OH281823   6.301   2.485  15.351 -0.1625 -0.2698 -0.3869
20111TIP3    H181824   6.220   2.522  15.319 -0.8157  0.6846  2.1090
20111TIP3    H281825   6.274   2.426  15.422  1.2894 -0.2651  0.2095
20112TIP3   OH281826   3.793   6.101   5.636  1.0319 -0.6315 -0.2711
20112TIP3    H181827   3.884   6.127   5.621  1.1401 -1.3778 -1.0092
20112TIP3    H281828   3.741   6.158   5.579  1.3017 -2.2412 -2.2256
20113TIP3   OH281829   1.431   6.247   1.531 -0.1310  0.0643 -0.1329
20113TIP3    H181830   1.422   6.205   1.445  1.7824 -1.5894  0.4056
20113TIP3    H281831   1.461   6.177   1.589 -2.8191  0.7580  2.3100
20114TIP3   OH281832   6.630   1.447  10.727 -0.1589  0.4068 -0.2476
20114TIP3    H181833   6.644   1.504  10.652  0.8465 -2.5122 -2.4270
20114TIP3    H281834   6.714   1.447  10.774  0.8021 -1.3395 -1.8436
20115TIP3   OH281835   0.287   2.638   5.930  0.0928 -0.1205 -0.2920
20115TIP3    H181836   0.243   2.698   5.990 -0.2202 -1.3159  0.7021
20115TIP3    H281837   0.344   2.584   5.986  1.9183  0.5496 -1.3865
20116TIP3   OH281838   6.046   4.807  10.665 -0.8171  0.0551 -0.0034
20116TIP3    H181839   6.052   4.902  10.676  2.1577 -0.0856  0.6208
20116TIP3    H281840   6.092   4.789  10.583 -1.7367 -0.8278 -0.3461
20117TIP3   OH281841   2.225   3.596  16.159 -0.3050 -0.3796  0.3761
20117TIP3    H181842   2.265   3.609  16.245  0.4745  0.0422 -0.0410
20117TIP3    H281843   2.225   3.501  16.146  1.3801 -0.3554  0.0138
20118TIP3   OH281844   4.249   4.800   2.286  0.4122  0.0223 -0.1252
20118TIP3    H181845   4.333   4.820   2.328 -0.0177 -2.5912  2.2731
20118TIP3    H281846   4.184   4.826   2.352 -0.4686 -1.1065 -0.5235
20119TIP3   OH281847   1.367   3.456   3.376  0.0144  0.1001 -0.1125
20119TIP3    H181848   1.341   3.541   3.412  0.4244 -0.2905  1.1518
20119TIP3    H281849   1.433   3.477   3.310 -0.6855  0.8307 -0.5968
20120TIP3   OH281850   0.848   0.589   6.488  0.1113 -0.5770 -0.3138
20120TIP3    H181851   0.918   0.646   6.518 -0.2758 -0.5267  0.4986
20120TIP3    H281852   0.893   0.511   6.455  0.5544 -0.4752  0.0542
20121TIP3   OH281853   5.255   1.007  15.217  0.0592 -0.6077 -0.0759
20121TIP3    H181854   5.183   0.986  15.157 -0.6796  1.0587  0.1724
20121TIP3    H281855   5.268   1.101  15.207  2.1065 -0.8284  0.0327
20122TIP3   OH281856   5.650   5.883   3.373 -0.3233 -0.4960  0.1672
20122TIP3    H181857   5.688   5.965   3.405  1.1865 -0.9954 -0.2307
20122TIP3    H281858   5.700   5.864   3.293  0.0285 -2.2799  0.7686
20123TIP3   OH281859   4.319   2.794   4.668 -0.2163  0.1334 -0.2607
20123TIP3    H181860   4.414   2.782   4.670 -0.3315 -0.7341  1.1910
20123TIP3    H281861   4.307   2.873   4.615  1.2876  0.0645 -0.7614
20124TIP3   OH281862   5.924   6.144   1.775 -0.6158  0.0368  0.2527
20124TIP3    H181863   5.930   6.182   1.863 -0.5289  0.7672 -0.0599
20124TIP3    H281864   5.841   6.177   1.740 -0.1969  0.5352 -0.2919
20125TIP3   OH281865   5.920   2.646  16.667 -0.2778 -0.4378  0.2647
20125TIP3    H181866   5.850   2.600  16.712 -0.9459 -0.3265 -0.6321
20125TIP3    H281867   5.902   2.739  16.684  0.4194 -0.4522  1.1302
20126TIP3   OH281868   2.607   0.983   0.248 -0.1576 -0.0675  0.3515
20126TIP3    H181869   2.644   0.895   0.243  0.5826  0.2714 -0.2749
20126TIP3    H281870   2.682   1.041   0.256 -0.6251  0.5416  0.4359
20127TIP3   OH281871   3.832   4.034  14.275  0.6766 -0.1449  0.1503
20127TIP3    H181872   3.812   3.941  14.277  1.8791 -0.4171  0.5753
20127TIP3    H281873   3.917   4.039  14.231  0.4864  0.7831 -0.1326
20128TIP3   OH281874   5.234   0.581   3.390 -0.0284  0.7933  0.1862
20128TIP3    H181875   5.236   0.623   3.476  0.7534 -0.1136  0.6296
20128TIP3    H281876   5.314   0.529   3.386 -0.2708  0.4609 -0.9156
20129TIP3   OH281877   4.379   3.834  10.788 -0.0579 -0.2549 -0.0139
20129TIP3    H181878   4.414   3.766  10.730  1.3204  1.8434 -1.8338
20129TIP3    H281879   4.395   3.916  10.741 -1.1713  1.4039  2.2819
20130TIP3   OH281880   0.965   1.601   1.032 -0.7928 -0.5404 -0.2724
20130TIP3    H181881   0.939   1.688   1.063 -0.1299 -0.5274  0.2604
20130TIP3    H281882   0.909   1.585   0.955  0.3340  1.1496 -1.5193
20131TIP3   OH281883   1.556   1.211  15.231  0.9423  0.7255 -0.0909
20131TIP3    H181884   1.536   1.242  15.142  0.7206 -0.1120 -0.3377
20131TIP3    H281885   1.596   1.287  15.274  3.3280  0.4862 -1.6566
20132TIP3   OH281886   6.336   2.145  15.349  0.5634 -0.3779 -0.3581
20132TIP3    H181887   6.350   2.087  15.424 -0.1680 -0.1934 -0.0678
20132TIP3    H281888   6.267   2.205  15.377 -0.7321 -1.1906 -1.6560
20133TIP3   OH281889   1.483   6.783  14.007  0.0444  0.2230  0.1160
20133TIP3    H181890   1.564   6.752  13.968  1.8805  2.0916  2.1589
20133TIP3    H281891   1.489   6.759  14.099 -0.9857  1.6904  0.6178
20134TIP3   OH281892   1.223   1.843  16.587  0.5317 -0.0076 -0.0836
20134TIP3    H181893   1.156   1.841  16.655  0.6337  0.6540  0.0436
20134TIP3    H281894   1.241   1.750  16.568  0.8236 -0.2080  1.1088
20135TIP3   OH281895   4.922   0.472   0.103 -0.0203 -0.0322 -0.2672
20135TIP3    H181896   4.996   0.439   0.051 -0.9463 -0.9835 -1.0384
20135TIP3    H281897   4.909   0.562   0.072  1.7224  0.6787  0.9342
20136TIP3   OH281898   0.022   1.847   4.984  0.0512 -0.6020  0.4768
20136TIP3    H181899   0.115   1.834   4.963  0.0996 -0.3556  0.5421
20136TIP3    H281900   0.020   1.852   5.080 -0.1607 -1.6553  0.5402
20137TIP3   OH281901   3.225   6.487  13.107  0.1188 -0.0226  0.1370
20137TIP3    H181902   3.134   6.488  13.137  0.0649 -0.6186  0.0095
20137TIP3    H281903   3.257   6.400  13.132  0.6280  0.1574  0.1083
20138TIP3   OH281904   3.729   5.988  14.974  0.0999  0.7754 -0.5121
20138TIP3    H181905   3.816   5.950  14.966  0.6716  1.6738  1.0362
20138TIP3    H281906   3.743   6.083  14.973 -0.6053  0.9662  1.4812
20139TIP3   OH281907   3.715   3.490  13.992 -0.4077 -0.0253 -0.2997
20139TIP3    H181908   3.670   3.574  13.995 -1.7007 -0.6344 -1.2697
20139TIP3    H281909   3.654   3.432  13.946  0.9537 -1.1810 -0.7304
20140TIP3   OH281910   6.584   2.945  11.639 -0.5715  0.2683 -0.7368
20140TIP3    H181911   6.576   2.938  11.734 -1.1967  0.3674 -0.7772
20140TIP3    H281912   6.666   2.993  11.625  0.4627 -1.3099 -0.2962
20141TIP3   OH281913   3.076   2.130  13.555  0.1243 -0.0277 -0.1399
20141TIP3    H181914   3.083   2.118  13.649  1.4978 -1.1338 -0.3615
20141TIP3    H281915   3.095   2.223  13.541  0.6230 -0.0134  0.6138
20142TIP3   OH281916   4.829   4.688   5.584  0.4270  0.3780  0.0574
20142TIP3    H181917   4.788   4.722   5.664 -3.7110 -1.0552 -1.1513
20142TIP3    H281918   4.833   4.593   5.599  0.1692  0.1616 -1.1608
20143TIP3   OH281919   1.329   1.443  17.067 -0.7125  0.0682  0.8571
20143TIP3    H181920   1.293   1.438  16.978  0.4713  1.5374  0.2500
20143TIP3    H281921   1.263   1.491  17.117 -0.0895  1.9624 -0.0333
20144TIP3   OH281922   4.532   6.772  14.101 -0.0354 -0.5760 -0.4422
20144TIP3    H181923   4.604   6.713  14.123 -0.1188 -0.5686 -0.1471
20144TIP3    H281924   4.547   6.795  14.010  1.5998  1.1540  0.1849
20145TIP3   OH281925   0.665   5.385   0.682 -0.3269 -0.2086 -0.2038
20145TIP3    H181926   0.572   5.399   0.665  0.0572  0.6229 -1.8479
20145TIP3    H281927   0.706   5.392   0.596  1.0163 -2.8095  0.1285
20146TIP3   OH281928   3.954   1.628   2.333  0.1942 -0.4802  0.7076
20146TIP3    H181929   3.936   1.721   2.321 -1.3916 -0.8782 -0.3836
20146TIP3    H281930   4.039   1.625   2.376  0.2388  1.4668  0.8441
20147TIP3   OH281931   4.801   5.828   4.705 -0.2801  0.8583  0.2145
20147TIP3    H181932   4.778   5.875   4.786  1.0825  2.3491 -0.2050
20147TIP3    H281933   4.842   5.747   4.735 -3.2746 -0.5006  0.9656
20148TIP3   OH281934   1.075   1.848   5.234 -0.3024  0.0682  0.3609
20148TIP3    H181935   1.120   1.880   5.155 -2.0269  1.3102 -0.1727
20148TIP3    H281936   1.050   1.758   5.212 -2.0566  0.8608 -1.1504
20149TIP3   OH281937   6.114   3.541  12.106  0.1206  0.2952  0.3021
20149TIP3    H181938   6.144   3.466  12.156 -1.1711  0.9593  2.1838
20149TIP3    H281939   6.185   3.606  12.114 -1.6694  2.1311  5.3047
20150TIP3   OH281940   2.837   3.546  15.032 -0.3590  0.3717  0.2513
20150TIP3    H181941   2.877   3.461  15.014  0.8756  1.0121 -0.1175
20150TIP3    H281942   2.821   3.584  14.946  1.9956  1.8090  0.3605
20151TIP3   OH281943   2.428   5.460  15.223  0.2084 -0.4915 -0.4996
20151TIP3    H181944   2.411   5.374  15.184  2.2590 -0.9904 -0.3854
20151TIP3    H281945   2.491   5.443  15.293  1.1601  1.1761 -0.9032
20152TIP3   OH281946   2.856   2.214   2.338  0.0885  0.2881  0.2175
20152TIP3    H181947   2.807   2.269   2.399  0.3801  0.7196  0.0678
20152TIP3    H281948   2.891   2.275   2.273  1.1758  0.0473  0.5563
20153TIP3   OH281949   6.688   0.352  11.026  0.6372  0.0245  0.0609
20153TIP3    H181950   6.602   0.319  11.001  1.1262 -1.4113  0.1783
20153TIP3    H281951   6.670   0.433  11.073 -0.6431 -0.2482  0.0729
20154TIP3   OH281952   1.062   4.482   2.363  0.7568  0.7053  0.0628
20154TIP3    H181953   1.067   4.556   2.302 -0.6778  1.2285  0.5342
20154TIP3    H281954   1.122   4.417   2.327  1.3781  1.7471 -0.8532
20155TIP3   OH281955   0.070   0.623   0.332 -0.4321  0.1784  0.2842
20155TIP3    H181956   0.006   0.551   0.342  1.0937 -1.7894 -2.6032
20155TIP3    H281957   0.131   0.611   0.404 -0.0325 -1.7424 -0.3063
20156TIP3   OH281958   6.737   6.646   3.016 -0.6552 -0.1069 -0.0605
20156TIP3    H181959   6.774   6.725   2.975  0.5584 -0.9788 -0.7114
20156TIP3    H281960   6.725   6.586   2.943 -1.2675 -0.6391  0.4772
20157TIP3   OH281961   0.665   6.261  12.985  0.0898  0.5390 -0.0309
20157TIP3    H181962   0.614   6.233  12.909 -3.8617  0.7585  2.2974
20157TIP3    H281963   0.638   6.351  13.000  2.0602  1.0442  0.7269
20158TIP3   OH281964   3.886   3.613   1.201  0.1729  0.1469 -0.3411
20158TIP3    H181965   3.922   3.680   1.142 -0.1677  0.1554 -0.5418
20158TIP3    H281966   3.791   3.619   1.189  0.1883 -1.4321 -1.5566
20159TIP3   OH281967   5.248   2.001  10.900 -0.0151  0.2568 -0.3200
20159TIP3    H181968   5.171   1.960  10.860  0.3932 -0.1995 -0.6426
20159TIP3    H281969   5.322   1.950  10.868  0.3702  0.2355  0.5666
20160TIP3   OH281970   5.709   2.103  11.754  0.6458 -0.0332 -0.5873
20160TIP3    H181971   5.681   2.118  11.664  2.4140 -1.5699 -1.4446
20160TIP3    H281972   5.772   2.173  11.772  0.4743  0.1273 -0.5961
20161TIP3   OH281973   4.395   2.292  10.466 -0.1773 -0.0253  0.6797
20161TIP3    H181974   4.444   2.257  10.540 -0.3274  0.0174  0.7997
20161TIP3    H281975   4.455   2.355  10.426 -0.5259  0.8419  1.4756
20162TIP3   OH281976   0.408   0.935  11.381  1.0215  0.2603  0.2609
20162TIP3    H181977   0.453   0.909  11.461  1.0694  0.0444  0.1642
20162TIP3    H281978   0.315   0.921  11.400  1.0094  0.5048  0.3866
20163TIP3   OH281979   4.457   0.272  13.154 -0.6244  0.2975 -0.3951
20163TIP3    H181980   4.549   0.271  13.126  0.1583  2.4615  1.6808
20163TIP3    H281981   4.407   0.264  13.073  1.3901 -0.2677 -1.6721
20164TIP3   OH281982   4.041   4.582  11.876  0.8083  0.0273 -0.0862
20164TIP3    H181983   4.047   4.630  11.959  1.4715  0.0616 -0.1468
20164TIP3    H281984   4.062   4.647  11.809  0.1897  0.0199 -0.2921
20165TIP3   OH281985   4.848   2.874   1.744  0.7866  0.1262  0.0160
20165TIP3    H181986   4.909   2.937   1.707  0.1636 -0.0892 -1.4468
20165TIP3    H281987   4.797   2.925   1.808  1.3092  0.7311 -0.0428
20166TIP3   OH281988   1.325   6.317  14.419 -0.2100  0.9477 -0.3344
20166TIP3    H181989   1.230   6.311  14.409  0.0294  0.6986 -3.1955
20166TIP3    H281990   1.345   6.408  14.401  0.2712  0.5184 -2.1203
20167TIP3   OH281991   2.071   5.883  11.946 -0.0229  0.4880  0.0148
20167TIP3    H181992   2.102   5.898  12.035 -0.7612  0.8805  0.2134
20167TIP3    H281993   1.995   5.826  11.956 -1.4821  2.3114 -0.1515
20168TIP3   OH281994   5.586   2.087  17.137  0.0194  0.5661 -0.0687
20168TIP3    H181995   5.630   2.017  17.089  0.5419  2.0691 -1.8872
20168TIP3    H281996   5.493   2.073  17.120  0.1702  0.7867 -1.1377
20169TIP3   OH281997   3.480   6.036   0.347  0.1642  0.2146 -0.1767
20169TIP3    H181998   3.558   5.983   0.361  1.2000  2.1217  1.8929
20169TIP3    H281999   3.498   6.085   0.267  0.6011 -0.1386 -0.2990
20170TIP3   OH282000   5.896   5.865  13.873  0.0332  0.7180 -0.6833
20170TIP3    H182001   5.967   5.805  13.854 -0.1362  0.9882 -2.3685
20170TIP3    H282002   5.817   5.811  13.873  0.2701  0.2317  2.2480
20171TIP3   OH282003   5.230   5.928  14.508 -0.1841 -0.3550  0.2355
20171TIP3    H182004   5.280   5.997  14.550  1.3271 -0.2797 -1.5354
20171TIP3    H282005   5.146   5.969  14.485  0.7804  1.0349 -1.0290
20172TIP3   OH282006   0.601   0.589  15.717  0.2268 -0.3782 -0.0245
20172TIP3    H182007   0.609   0.602  15.812  2.7730  0.4174 -0.2776
20172TIP3    H282008   0.551   0.508  15.708  0.5577 -0.8632  2.0168
20173TIP3   OH282009   4.636   0.760   5.973  0.0117  0.1284  0.3749
20173TIP3    H182010   4.698   0.750   6.045  0.0383  1.1366  0.4952
20173TIP3    H282011   4.568   0.817   6.007 -0.6213 -0.3791  0.0004
20174TIP3   OH282012   0.038   5.509   2.999  0.3564  0.0529  0.2512
20174TIP3    H182013   0.127   5.542   2.983  0.4790  0.1107  1.0385
20174TIP3    H282014   0.040   5.419   2.966  0.8296 -0.0856  0.6521
20175TIP3   OH282015   6.160   0.354  13.031  0.6386  0.4042  0.0740
20175TIP3    H182016   6.181   0.287  12.966 -0.7419  0.6302 -0.6303
20175TIP3    H282017   6.186   0.436  12.989 -2.3476  0.7880 -1.2042
20176TIP3   OH282018   6.662   2.925   5.601 -0.3365 -0.0675  0.4854
20176TIP3    H182019   6.650   3.017   5.580 -0.7330 -0.1278  0.4484
20176TIP3    H282020   6.684   2.884   5.518  1.2628  0.2278  0.7367
20177TIP3   OH282021   3.917   4.180   0.321 -0.0105  0.3833  0.3866
20177TIP3    H182022   3.829   4.179   0.359 -1.3740  0.1827 -2.5427
20177TIP3    H282023   3.959   4.102   0.358 -1.2349  0.1952  1.4597
20178TIP3   OH282024   4.473   2.559  12.540 -0.0679 -0.0876  0.4225
20178TIP3    H182025   4.451   2.578  12.631  0.6380  1.0103  0.3844
20178TIP3    H282026   4.434   2.632  12.491 -0.4088 -0.6513 -0.1528
20179TIP3   OH282027   1.361   0.466   5.078 -0.0384 -0.4666  0.2986
20179TIP3    H182028   1.347   0.499   5.167 -3.4602  0.9508 -0.6023
20179TIP3    H282029   1.308   0.387   5.073 -0.9710  0.1940 -0.8057
20180TIP3   OH282030   6.447   6.227  14.199  0.2607 -0.0497 -0.1334
20180TIP3    H182031   6.380   6.159  14.191 -0.6032  0.8644 -1.0565
20180TIP3    H282032   6.406   6.294  14.255  1.0515 -0.2175  0.6638
20181TIP3   OH282033   3.940   3.471  16.577 -0.1054  0.2687 -0.4101
20181TIP3    H182034   3.883   3.548  16.581  0.0224  0.3471 -0.1274
20181TIP3    H282035   4.016   3.493  16.631  0.2697  0.2234 -0.9098
20182TIP3   OH282036   5.772   1.975  15.572  0.0229  0.3868  0.3940
20182TIP3    H182037   5.782   1.899  15.514 -2.6100  1.8183 -2.2014
20182TIP3    H282038   5.729   1.939  15.650 -0.5583 -0.9423 -0.4864
20183TIP3   OH282039   5.038   2.056  14.371 -0.6534  0.0737 -0.0234
20183TIP3    H182040   4.981   2.005  14.314 -0.7838 -0.0156  0.1864
20183TIP3    H282041   5.121   2.007  14.373 -0.8889 -0.3153  0.4540
20184TIP3   OH282042   4.188   6.158  11.756 -0.8178 -0.1207  0.1387
20184TIP3    H182043   4.225   6.210  11.685  1.0827 -1.0724  0.3808
20184TIP3    H282044   4.093   6.168  11.745 -0.5896  3.7622  0.5139
20185TIP3   OH282045   5.663   5.059  15.348  0.6802  0.2432  0.2486
20185TIP3    H182046   5.682   5.106  15.429  0.8049  0.7262 -0.0593
20185TIP3    H282047   5.745   5.013  15.327  1.1583  1.3892 -0.4495
20186TIP3   OH282048   0.266   4.757  14.566  0.1703 -0.6241 -0.5576
20186TIP3    H182049   0.301   4.691  14.626  0.3323 -0.5586 -0.5828
20186TIP3    H282050   0.338   4.778  14.507 -0.0745 -0.8940 -0.9561
20187TIP3   OH282051   3.941   3.282   3.576  0.1825 -0.3176 -0.3706
20187TIP3    H182052   4.002   3.210   3.559  1.0820  0.4339 -0.4141
20187TIP3    H282053   3.921   3.318   3.490  0.9292  0.4281 -0.2436
20188TIP3   OH282054   1.438   3.956   0.278  0.4904 -0.0826  0.6821
20188TIP3    H182055   1.470   4.044   0.258 -1.2364  0.0136 -2.1331
20188TIP3    H282056   1.445   3.909   0.195 -1.3225 -1.7025  1.3790
20189TIP3   OH282057   4.021   4.895  15.589 -0.0125 -0.0065  0.0885
20189TIP3    H182058   4.052   4.907  15.679  1.6150  0.6379 -0.5129
20189TIP3    H282059   4.099   4.871  15.540 -0.8530 -0.2242 -1.1901
20190TIP3   OH282060   5.006   1.659  15.707  0.0702 -0.3560 -0.3379
20190TIP3    H182061   5.050   1.611  15.777 -1.9124  0.3931  1.5053
20190TIP3    H282062   4.970   1.591  15.650  1.1495 -0.9722 -0.3218
20191TIP3   OH282063   5.921   4.231  14.510 -0.2040 -0.1782  0.2652
20191TIP3    H182064   5.947   4.317  14.544 -0.8444 -1.2702  3.8859
20191TIP3    H282065   6.000   4.177  14.520 -0.3707 -0.5077 -0.1746
20192TIP3   OH282066   3.638   1.364  12.140 -0.4171  0.0228  0.0412
20192TIP3    H182067   3.696   1.320  12.202  1.4299  0.8184 -1.0459
20192TIP3    H282068   3.674   1.452  12.132 -2.1021  0.7124 -0.3092
20193TIP3   OH282069   6.556   6.577   4.598  0.1408 -0.0696  0.1879
20193TIP3    H182070   6.602   6.531   4.668  0.2315  0.4295  0.4628
20193TIP3    H282071   6.511   6.649   4.642 -3.3257 -2.1598  0.4083
20194TIP3   OH282072   2.789   4.521  11.157 -0.4427 -0.3351 -0.5581
20194TIP3    H182073   2.838   4.594  11.195 -2.4372  0.8897 -0.2215
20194TIP3    H282074   2.826   4.510  11.069  0.3064  0.6585 -0.3762
20195TIP3   OH282075   6.526   5.904   1.665 -0.4336 -0.5170  0.0815
20195TIP3    H182076   6.604   5.908   1.719 -0.9395 -0.8927  0.8526
20195TIP3    H282077   6.559   5.893   1.576  0.4092  0.3764  0.2727
20196TIP3   OH282078   1.449   3.846   3.559  0.3606  0.0356  0.6753
20196TIP3    H182079   1.428   3.940   3.555 -3.1564 -0.6846 -1.1055
20196TIP3    H282080   1.365   3.803   3.573  1.7133 -2.9704  0.2485
20197TIP3   OH282081   3.985   2.671   5.165 -0.5334 -0.5313  0.1450
20197TIP3    H182082   3.970   2.581   5.193  0.1813 -0.5144  0.6190
20197TIP3    H282083   3.935   2.680   5.084 -1.1020 -1.1670  0.4149
20198TIP3   OH282084   3.306   2.528  12.306  0.2408 -0.3629  0.4474
20198TIP3    H182085   3.329   2.503  12.217  0.0826  0.6944  0.0955
20198TIP3    H282086   3.359   2.606  12.324 -3.8653  3.1672 -0.9570
20199TIP3   OH282087   1.392   5.689   1.935  0.1996  0.1742 -0.0406
20199TIP3    H182088   1.314   5.694   1.991 -0.6345  1.5537 -1.2658
20199TIP3    H282089   1.460   5.653   1.992 -0.9859  0.1727  1.4348
20200TIP3   OH282090   0.068   3.871   3.136 -0.2768 -0.0947 -0.0285
20200TIP3    H182091   0.154   3.870   3.178  0.5280 -0.2791 -1.6387
20200TIP3    H282092   0.086   3.874   3.043 -1.9863 -2.2825 -0.5173
20201TIP3   OH282093   1.471   5.480  14.091 -0.4806  0.2562 -0.3361
20201TIP3    H182094   1.528   5.500  14.016 -0.7240  2.3540 -0.0307
20201TIP3    H282095   1.520   5.512  14.167 -0.5073 -1.2985  0.3657
20202TIP3   OH282096   2.364   4.613  15.127 -0.5116  0.5180 -0.0956
20202TIP3    H182097   2.356   4.701  15.089  1.7272  0.5923 -0.5609
20202TIP3    H282098   2.416   4.626  15.206  0.5887 -0.4573 -0.6222
20203TIP3   OH282099   2.313   5.672  14.279 -0.2347 -0.2338  0.4102
20203TIP3    H182100   2.310   5.643  14.188  0.1016 -0.7670  0.5622
20203TIP3    H282101   2.229   5.645  14.316 -0.7273  0.7590  0.0362
20204TIP3   OH282102   2.579   3.528   0.047 -0.5401  0.4610  0.1389
20204TIP3    H182103   2.523   3.468   0.096 -2.0053  0.6323 -1.2363
20204TIP3    H282104   2.557   3.511  -0.045 -1.7008  3.7097 -0.2792
20205TIP3   OH282105   0.499   3.989   3.109 -0.0983  0.1756  0.0514
20205TIP3    H182106   0.453   4.071   3.093 -0.6889 -0.0021  0.7573
20205TIP3    H282107   0.537   4.001   3.197 -0.8063 -0.5754  0.4672
20206TIP3   OH282108   1.605   3.366  13.319  0.0261  0.5293  0.3763
20206TIP3    H182109   1.584   3.357  13.226  0.7790  0.6987  0.1835
20206TIP3    H282110   1.547   3.305  13.363  1.2888 -1.3403 -0.4188
20207TIP3   OH282111   3.331   4.416  12.182 -0.6423 -0.0928  0.4772
20207TIP3    H182112   3.251   4.397  12.231 -1.5340 -0.1504 -0.9408
20207TIP3    H282113   3.314   4.500  12.140  0.6352  0.6105  1.2943
20208TIP3   OH282114   5.278   3.075  13.864  0.7178 -0.1509  0.2349
20208TIP3    H182115   5.196   3.053  13.818  0.5132 -2.7676  1.6538
20208TIP3    H282116   5.333   3.114  13.797 -0.6142 -1.1347 -1.5265
20209TIP3   OH282117   4.684   1.959  10.837  0.6269 -0.0517 -0.3577
20209TIP3    H182118   4.750   2.028  10.835 -0.0112  0.6515  1.1105
20209TIP3    H282119   4.733   1.879  10.859  0.9585  0.5318  1.1092
20210TIP3   OH282120   4.752   1.991  12.206 -0.9561  0.2026  0.2009
20210TIP3    H182121   4.739   2.062  12.270 -1.5991 -1.2530  1.7536
20210TIP3    H282122   4.671   1.991  12.154 -0.2931  1.6119 -0.9182
20211TIP3   OH282123   5.557   1.107  13.923 -0.8414 -0.8479 -0.0820
20211TIP3    H182124   5.651   1.092  13.923 -1.0475 -2.5600  1.9167
20211TIP3    H282125   5.526   1.065  13.842  0.1409  0.1678 -1.0054
20212TIP3   OH282126   4.623   3.480   3.481  0.3033 -0.0802 -0.0923
20212TIP3    H182127   4.615   3.393   3.520 -0.7571  0.2109  0.3627
20212TIP3    H282128   4.541   3.524   3.502  1.1948  1.3626  0.4868
20213TIP3   OH282129   1.562   3.853  11.453 -0.5733  0.0463  0.4182
20213TIP3    H182130   1.480   3.850  11.503 -1.2119 -1.8837 -0.6274
20213TIP3    H282131   1.534   3.864  11.362  0.2757 -1.0652  0.0011
20214TIP3   OH282132   5.815   6.049  11.416  0.1979  0.0607  0.1689
20214TIP3    H182133   5.723   6.047  11.442 -0.0705  2.4619 -0.3031
20214TIP3    H282134   5.816   6.018  11.326 -0.7462  3.0711 -1.0046
20215TIP3   OH282135   1.983   4.793   4.685 -0.6035 -0.1874  0.0347
20215TIP3    H182136   2.042   4.864   4.661 -0.4199  0.1140  1.2982
20215TIP3    H282137   1.899   4.836   4.702 -0.2814 -0.1333  1.6151
20216TIP3   OH282138   0.850   1.868  12.357  0.0801  0.3867  0.4481
20216TIP3    H182139   0.873   1.959  12.340  1.3840 -0.1999 -1.0855
20216TIP3    H282140   0.872   1.855  12.449  1.4052  1.1901  0.2728
20217TIP3   OH282141   1.300   1.443  14.117  0.3863  0.4538  0.0759
20217TIP3    H182142   1.370   1.478  14.171  1.6197 -2.2803  0.4009
20217TIP3    H282143   1.263   1.371  14.168 -0.3954 -0.3287 -1.5015
20218TIP3   OH282144   5.059   5.974  15.955  0.1195 -0.1214  0.1256
20218TIP3    H182145   5.024   6.008  15.873  1.0635 -0.9941 -0.6618
20218TIP3    H282146   4.998   5.906  15.982 -0.8923  1.0435  0.8463
20219TIP3   OH282147   1.749   3.185   1.820  0.8029 -0.6123  0.2279
20219TIP3    H182148   1.705   3.106   1.851  1.8752 -0.4864  2.2410
20219TIP3    H282149   1.693   3.257   1.850 -0.3592 -0.5356 -1.9053
20220TIP3   OH282150   2.488   1.237  12.494 -0.4318  0.1535  0.3206
20220TIP3    H182151   2.547   1.167  12.467  0.4452  1.0102 -0.0705
20220TIP3    H282152   2.448   1.205  12.574  0.8909 -0.2885  0.8370
20221TIP3   OH282153   6.113   3.033  11.206  0.2998 -0.1331  0.3252
20221TIP3    H182154   6.028   2.989  11.215 -0.3682  1.2628  1.1440
20221TIP3    H282155   6.110   3.074  11.120 -0.0457  0.2824  0.5312
20222TIP3   OH282156   4.346   4.699  14.109 -0.3969  0.0334  0.1260
20222TIP3    H182157   4.267   4.751  14.123 -0.2521  0.3109 -0.0651
20222TIP3    H282158   4.335   4.622  14.164 -0.3951  0.5058  0.8046
20223TIP3   OH282159   3.104   6.677   1.845  0.3568  0.0481  0.3591
20223TIP3    H182160   3.068   6.617   1.780  0.4140  0.3879  0.0024
20223TIP3    H282161   3.152   6.622   1.906  0.5950 -0.2403 -0.0886
20224TIP3   OH282162   2.755   6.670  16.396  0.0971  0.3973  0.4830
20224TIP3    H182163   2.796   6.756  16.386  0.3757  0.1812 -0.3960
20224TIP3    H282164   2.705   6.658  16.315 -1.5918  0.5712  1.4432
20225TIP3   OH282165   0.453   5.014   1.367 -0.1412  0.0385  0.1735
20225TIP3    H182166   0.399   5.039   1.291  1.8685  1.8139 -0.7746
20225TIP3    H282167   0.461   4.919   1.360  0.2881  0.1869 -2.0848
20226TIP3   OH282168   6.588   5.712  16.067 -0.1299 -0.4499  0.0136
20226TIP3    H182169   6.617   5.657  15.994  0.8024  0.9921 -0.7814
20226TIP3    H282170   6.508   5.671  16.099 -0.4018 -1.3041 -1.6427
20227TIP3   OH282171   4.001   0.424   4.899 -0.1007  0.5814  0.2281
20227TIP3    H182172   3.927   0.365   4.888  0.2812 -0.0525  0.9920
20227TIP3    H282173   3.995   0.453   4.991  0.9768 -0.0053  0.4980
20228TIP3   OH282174   4.753   3.241  11.425 -0.4626  0.5309 -0.5099
20228TIP3    H182175   4.849   3.243  11.429 -0.3825 -0.9352 -1.0641
20228TIP3    H282176   4.734   3.219  11.334 -1.2975 -0.0755 -0.1937
20229TIP3   OH282177   5.733   6.179   0.944  0.3572 -0.1990 -0.1538
20229TIP3    H182178   5.791   6.184   0.868  1.8323 -3.9595  0.4964
20229TIP3    H282179   5.660   6.125   0.914 -1.8105  2.5110 -0.2297
20230TIP3   OH282180   3.985   3.485   5.136  0.0904  0.2892 -0.1518
20230TIP3    H182181   3.968   3.575   5.162  0.8621 -0.1162  1.9879
20230TIP3    H282182   4.041   3.492   5.059  1.5238  1.6738  0.9612
20231TIP3   OH282183   3.868   5.730  12.102  0.0114 -0.1248 -0.7513
20231TIP3    H182184   3.862   5.635  12.097 -0.4109 -0.2006  0.7133
20231TIP3    H282185   3.807   5.762  12.035 -0.5321 -0.8843 -0.6219
20232TIP3   OH282186   6.447   6.507  10.996  0.3532 -0.3338 -1.1473
20232TIP3    H182187   6.467   6.562  10.920  2.4024 -0.7591 -0.9962
20232TIP3    H282188   6.408   6.566  11.060  1.0527  0.6254 -1.5786
20233TIP3   OH282189   3.953   6.826  16.390 -0.5457 -0.1727 -0.3575
20233TIP3    H182190   3.976   6.733  16.379  4.3201  0.1883  3.4055
20233TIP3    H282191   3.908   6.830  16.474  1.6420  0.9849  0.8384
20234TIP3   OH282192   0.605   0.758  11.556 -0.3632 -0.0824  0.4496
20234TIP3    H182193   0.697   0.752  11.584  0.4449 -2.1655 -2.2339
20234TIP3    H282194   0.569   0.672  11.574 -0.6119 -0.5597 -2.0011
20235TIP3   OH282195   3.286   0.666   5.162  0.3487  0.0046  0.8839
20235TIP3    H182196   3.209   0.625   5.203 -0.4755 -0.4613 -1.0092
20235TIP3    H282197   3.359   0.640   5.217 -0.6054 -1.2099  1.6426
20236TIP3   OH282198   4.482   5.584  14.932 -0.0633  0.2953  0.0878
20236TIP3    H182199   4.568   5.576  14.973  0.1425 -1.2420 -0.5420
20236TIP3    H282200   4.493   5.651  14.864  0.9109 -0.5162 -0.5885
20237TIP3   OH282201   3.688   5.863  16.071 -0.4465 -0.4237 -0.1333
20237TIP3    H182202   3.626   5.916  16.020 -3.1716 -2.8090  0.3823
20237TIP3    H282203   3.749   5.829  16.005 -0.8795  0.4828 -1.0296
20238TIP3   OH282204   2.471   4.645  15.377  0.6655  0.6457 -0.6314
20238TIP3    H182205   2.472   4.712  15.446 -1.1655 -0.9396  1.0775
20238TIP3    H282206   2.478   4.562  15.425  0.6435 -0.4689 -2.4756
20239TIP3   OH282207   2.707   3.507   5.234  0.1029  0.5021  0.0909
20239TIP3    H182208   2.749   3.578   5.185  2.0723 -1.8372 -1.8307
20239TIP3    H282209   2.768   3.487   5.305 -1.4388  1.9927  1.9789
20240TIP3   OH282210   3.534   4.055   3.776  0.3979 -0.0458 -0.7795
20240TIP3    H182211   3.568   4.114   3.844  0.7888 -0.3995 -0.6611
20240TIP3    H282212   3.441   4.044   3.798  0.7438 -0.9614  0.3072
20241TIP3   OH282213   4.001   1.768  15.555  0.3836  0.1195 -0.1801
20241TIP3    H182214   3.987   1.863  15.555 -0.4622  0.0172  1.0958
20241TIP3    H282215   3.920   1.732  15.590  1.2155 -0.9820  0.6883
20242TIP3   OH282216   1.433   2.688  13.642 -0.5461 -0.1758  0.3381
20242TIP3    H182217   1.365   2.726  13.699  0.5413  2.2547  0.1495
20242TIP3    H282218   1.505   2.666  13.702  0.2017  1.4384  0.0789
20243TIP3   OH282219   5.368   1.315   4.137  0.1793 -0.2446  0.4174
20243TIP3    H182220   5.316   1.293   4.215 -1.6150 -0.5542 -0.8163
20243TIP3    H282221   5.364   1.411   4.132 -0.7601 -0.2968  0.0289
20244TIP3   OH282222   0.506   3.227   0.277 -0.3690 -0.5314 -0.3710
20244TIP3    H182223   0.550   3.311   0.266 -0.0138 -0.7727 -0.7774
20244TIP3    H282224   0.525   3.179   0.197  0.8746 -1.6724  0.5819
20245TIP3   OH282225   4.283   1.355   0.837  0.2749 -0.6854 -0.4514
20245TIP3    H182226   4.300   1.268   0.802 -1.3711 -0.4951 -1.8650
20245TIP3    H282227   4.198   1.380   0.799 -0.3859  0.6104  1.6827
20246TIP3   OH282228   0.493   6.708   5.023 -0.2682  0.2751 -0.4217
20246TIP3    H182229   0.588   6.703   5.010 -0.0299 -1.3663  1.4474
20246TIP3    H282230   0.457   6.649   4.957  0.2171 -0.7392  0.1758
20247TIP3   OH282231   4.984   0.532  13.250 -0.2939  1.0501 -0.1627
20247TIP3    H182232   4.923   0.487  13.309  0.4399  0.7424  0.3679
20247TIP3    H282233   5.064   0.480  13.254 -0.7075  0.0449 -2.6747
20248TIP3   OH282234   5.794   3.788  13.236 -0.2073  0.1141  0.5212
20248TIP3    H182235   5.709   3.800  13.278 -0.4995 -0.1122  0.0082
20248TIP3    H282236   5.788   3.701  13.195 -0.3312  0.7592 -0.8882
20249TIP3   OH282237   0.142   0.860   1.773  0.1447  0.3760  0.1007
20249TIP3    H182238   0.200   0.934   1.753  1.7665 -0.8611 -0.0420
20249TIP3    H282239   0.195   0.804   1.831 -1.9653  0.5658  2.3554
20250TIP3   OH282240   3.146   0.988  13.168  0.5502 -0.5075  0.1959
20250TIP3    H182241   3.062   0.960  13.203 -0.0040  1.6976  0.8186
20250TIP3    H282242   3.128   1.011  13.077 -0.8194  4.2240  1.3553
20251TIP3   OH282243   3.215   1.770   2.249 -0.4910 -0.5505  0.1280
20251TIP3    H182244   3.133   1.809   2.220  0.1796  1.7578  1.1080
20251TIP3    H282245   3.258   1.839   2.299  2.1244 -1.6274 -0.4588
20252TIP3   OH282246   3.000   6.565  14.031  0.6010  0.0595 -0.1951
20252TIP3    H182247   3.049   6.645  14.011  2.2387 -0.8419 -0.0068
20252TIP3    H282248   2.934   6.593  14.094  1.5772  1.1618  0.3833
20253TIP3   OH282249   2.510   3.337   3.278 -0.1884  0.1824  0.0361
20253TIP3    H182250   2.501   3.273   3.207  1.2466 -2.2496  1.8807
20253TIP3    H282251   2.586   3.389   3.253 -0.8795  0.6793 -1.1116
20254TIP3   OH282252   6.432   5.483   1.449  0.5323 -0.3215 -0.3503
20254TIP3    H182253   6.446   5.547   1.379 -0.2631 -0.3679 -0.5644
20254TIP3    H282254   6.341   5.496   1.475  0.3600 -1.3535 -0.3938
20255TIP3   OH282255   2.331   5.156   3.689 -0.1622 -0.0211  0.2852
20255TIP3    H182256   2.409   5.189   3.645  0.7123 -0.7893  1.2103
20255TIP3    H282257   2.275   5.233   3.701  0.4283  0.5311 -0.4202
20256TIP3   OH282258   3.625   1.778  11.308 -0.3795  0.2209 -0.3777
20256TIP3    H182259   3.650   1.758  11.218  0.5759  1.3939 -0.4019
20256TIP3    H282260   3.631   1.874  11.314  3.7009  0.0919  1.9902
20257TIP3   OH282261   4.838   4.589  10.411  0.0496 -0.8211  0.7333
20257TIP3    H182262   4.782   4.663  10.435  0.1784 -0.6787  0.5954
20257TIP3    H282263   4.827   4.526  10.482  0.1809 -0.5364  1.0050
20258TIP3   OH282264   0.685   1.437  16.459 -0.3146  0.5053  0.2196
20258TIP3    H182265   0.606   1.435  16.406  0.2656  0.7910 -0.6687
20258TIP3    H282266   0.715   1.347  16.462  0.3742  0.6683 -1.0652
20259TIP3   OH282267   5.652   5.689  16.103 -0.0306 -0.1220  0.1295
20259TIP3    H182268   5.697   5.677  16.187  1.9769  0.6692 -0.7637
20259TIP3    H282269   5.718   5.729  16.046 -1.8955  1.0954 -1.2956
20260TIP3   OH282270   6.536   3.879  11.306 -0.4861 -0.2381  0.2685
20260TIP3    H182271   6.526   3.973  11.318 -3.5815 -0.6828  2.5178
20260TIP3    H282272   6.495   3.861  11.221  0.5090  0.4693 -0.3726
20261TIP3   OH282273   3.409   6.367   0.305  0.1340  0.2163  0.2487
20261TIP3    H182274   3.493   6.414   0.301 -0.3135  1.2748  2.1194
20261TIP3    H282275   3.359   6.413   0.372 -1.7445 -0.7575 -0.4095
20262TIP3   OH282276   5.591   0.461  10.448  0.1534  0.1794 -0.8093
20262TIP3    H182277   5.679   0.425  10.458  0.6131  1.1597 -1.2196
20262TIP3    H282278   5.546   0.438  10.529  0.5994 -0.8277 -0.8348
20263TIP3   OH282279   3.077   1.461  15.682  0.5099 -0.3475  0.4324
20263TIP3    H182280   3.052   1.385  15.630 -1.7544 -0.1361  1.1012
20263TIP3    H282281   3.060   1.434  15.773 -0.2025  0.9049  0.6866
20264TIP3   OH282282   3.577   1.935   0.515  0.2287  0.4678 -0.3119
20264TIP3    H182283   3.484   1.921   0.500  0.0034  0.4822  0.9375
20264TIP3    H282284   3.611   1.848   0.538  0.1943  0.7375  0.7944
20265TIP3   OH282285   5.343   6.506   0.947 -0.0752 -0.9452 -0.1160
20265TIP3    H182286   5.363   6.593   0.912 -1.4310 -0.3395  0.5475
20265TIP3    H282287   5.426   6.476   0.984 -0.5115  2.2904  4.3699
20266TIP3   OH282288   3.084   4.738   4.892 -0.2112  0.2778  0.0896
20266TIP3    H182289   3.118   4.813   4.940 -0.4562  0.0468  0.6398
20266TIP3    H282290   3.142   4.729   4.816  0.1480  0.6859  0.3141
20267TIP3   OH282291   0.471   4.740  11.659 -0.1513  0.0794 -0.0695
20267TIP3    H182292   0.534   4.691  11.712  0.5997  2.2458  1.1547
20267TIP3    H282293   0.403   4.766  11.720  0.9324  2.9744  0.0400
20268TIP3   OH282294   5.395   1.010   1.137 -0.3393 -0.1167  0.3125
20268TIP3    H182295   5.383   0.975   1.226  0.1653  1.0729  0.8630
20268TIP3    H282296   5.333   0.960   1.084 -1.3751 -0.1586  1.5124
20269TIP3   OH282297   0.192   1.967  16.080  0.3993 -0.3399  0.2161
20269TIP3    H182298   0.148   1.917  16.148  0.2004 -1.1137 -0.4510
20269TIP3    H282299   0.188   2.058  16.108 -0.3725 -0.5650  0.8401
20270TIP3   OH282300   0.653   1.346   0.013  0.3329  0.7937  0.4609
20270TIP3    H182301   0.694   1.288  -0.050 -0.8863  0.8716 -0.4499
20270TIP3    H282302   0.651   1.431  -0.030 -1.3691  0.6419  0.1724
20271TIP3   OH282303   5.681   3.716   2.777 -0.1222 -0.4615  0.3274
20271TIP3    H182304   5.706   3.770   2.852 -0.1661 -0.3776  0.2807
20271TIP3    H282305   5.585   3.718   2.776 -0.1771 -1.5340  1.0640
20272TIP3   OH282306   1.108   4.794   1.184  0.8620 -0.2478 -0.6561
20272TIP3    H182307   1.071   4.707   1.198  2.4354 -0.8399  0.1147
20272TIP3    H282308   1.083   4.844   1.262 -1.7079  0.6601 -1.9693
20273TIP3   OH282309   2.695   4.140  13.373  0.2015  0.7081 -0.0185
20273TIP3    H182310   2.681   4.047  13.388  2.8692  0.4412  1.4922
20273TIP3    H282311   2.655   4.182  13.449  0.8511  0.5685  0.4169
20274TIP3   OH282312   1.340   5.183   1.288  0.4032  0.0363  0.1133
20274TIP3    H182313   1.334   5.177   1.383 -0.7315  1.2971  0.1416
20274TIP3    H282314   1.374   5.098   1.261  0.5197 -0.4227  1.6193
20275TIP3   OH282315   3.192   2.500  13.063 -0.5055  0.1257  0.0212
20275TIP3    H182316   3.169   2.407  13.065 -0.0575  0.0181  0.6023
20275TIP3    H282317   3.146   2.538  13.138 -1.0352  0.4604 -0.4687
20276TIP3   OH282318   2.686   4.351   4.402  0.2531 -0.2134  0.3687
20276TIP3    H182319   2.592   4.333   4.406  0.0056  0.5544 -1.1378
20276TIP3    H282320   2.702   4.413   4.473 -0.8186  1.2983 -0.6560
20277TIP3   OH282321   5.052   0.289   4.609 -0.2786  0.9963  0.5671
20277TIP3    H182322   4.990   0.305   4.680 -2.1663 -1.4306 -0.4131
20277TIP3    H282323   5.105   0.216   4.640 -1.5868 -0.5621 -0.6946
20278TIP3   OH282324   0.240   5.030   2.357 -0.5618 -0.4746  0.1097
20278TIP3    H182325   0.148   5.046   2.374 -0.7038 -1.3184  0.1860
20278TIP3    H282326   0.280   5.021   2.443 -0.5074 -0.6547  0.0659
20279TIP3   OH282327   5.999   1.481   2.744 -0.2110 -0.2394  0.4489
20279TIP3    H182328   5.982   1.418   2.674 -1.9546  0.0931  0.5284
20279TIP3    H282329   6.059   1.435   2.803  1.5918 -0.3963 -1.3999
20280LIG      O82330   3.689   3.413   0.618 -0.2914 -0.5706 -0.3178
20280LIG     C182331   3.563   3.391   0.682 -0.7004  0.1396 -0.5365
20280LIG     C282332   3.554   3.480   0.804 -0.5655 -0.3560  0.0568
20280LIG     C382333   3.449   3.415   0.580  0.0254  0.1758  0.0149
20280LIG     H182334   3.570   3.289   0.726  2.4896  0.1909 -0.6669
20280LIG     H282335   3.581   3.583   0.773  0.3125 -1.0467 -1.6026
20280LIG     H382336   3.624   3.434   0.878 -0.5177  0.0626  0.2768
20280LIG     H482337   3.458   3.482   0.861 -0.7612 -0.0275 -0.2849
20280LIG     H582338   3.433   3.523   0.564 -1.6537 -0.0445  0.0747
20280LIG     H682339   3.356   3.373   0.623  0.2489 -0.4346 -0.0854
20280LIG     H782340   3.472   3.361   0.485  0.8504  0.2291  0.1759
20280LIG     H882341   3.743   3.434   0.694  0.6364 -0.9335 -0.8428
   6.83316   6.83316  17.20549
