Title
43125
    1CHL1    C3    1   4.707   5.173   6.416  0.5326  0.6488 -0.2073
    1CHL1    H3    2   4.718   5.063   6.426  0.6256  0.8044  1.6756
    1CHL1    O3    3   4.678   5.227   6.546 -0.0516  0.7930  0.0861
    1CHL1   H3'    4   4.699   5.151   6.601  2.5540  0.3613 -1.3112
    1CHL1    C4    5   4.839   5.220   6.346  0.3509  0.4437 -0.4391
    1CHL1   H4A    6   4.855   5.330   6.348  1.2019  0.3474 -1.3660
    1CHL1   H4B    7   4.917   5.182   6.416 -0.5128 -1.5835 -0.5202
    1CHL1    C5    8   4.858   5.173   6.210 -0.1207 -0.3569  0.5227
    1CHL1    C6    9   4.977   5.120   6.171  0.6282  0.4320  0.2208
    1CHL1    H6   10   5.058   5.113   6.245 -1.0483  0.6674  2.1727
    1CHL1    C7   11   5.001   5.063   6.035 -0.5343 -0.8725 -0.0527
    1CHL1   H7A   12   5.100   5.096   5.998 -1.4665  0.8946 -1.1116
    1CHL1   H7B   13   5.000   4.952   6.037 -1.4445 -0.9717 -2.6311
    1CHL1    C8   14   4.895   5.105   5.929  0.3845 -0.7553 -0.5402
    1CHL1    H8   15   4.907   5.213   5.904  0.6959 -0.0326  2.3517
    1CHL1   C14   16   4.909   5.026   5.800  0.2674  0.5422  0.0575
    1CHL1   H14   17   4.899   4.919   5.830 -0.7342  0.5668 -0.1389
    1CHL1   C15   18   5.038   5.031   5.729 -0.1680  0.5154  0.0369
    1CHL1  H15A   19   5.059   5.139   5.713  0.9198  0.1390 -1.2888
    1CHL1  H15B   20   5.115   4.979   5.790  0.6520 -1.5770 -2.6127
    1CHL1   C16   21   5.024   4.958   5.596 -0.0114 -0.2596  0.4172
    1CHL1  H16A   22   5.062   5.023   5.514 -0.9995  1.3983  1.2262
    1CHL1  H16B   23   5.070   4.856   5.597 -0.5057 -0.4922 -0.0275
    1CHL1   C17   24   4.872   4.939   5.579  0.4979 -0.5000 -0.1129
    1CHL1   H17   25   4.841   4.841   5.620  0.7573 -0.2043  0.8422
    1CHL1   C13   26   4.809   5.043   5.686  0.3252 -0.8637  0.2388
    1CHL1   C18   27   4.813   5.176   5.623  0.5219  0.3698  0.2751
    1CHL1  H18A   28   4.905   5.201   5.567  0.0015  1.2473 -0.2242
    1CHL1  H18B   29   4.725   5.197   5.558  1.3014  0.6164 -0.7158
    1CHL1  H18C   30   4.784   5.250   5.701 -0.5842  1.2623 -0.9428
    1CHL1   C12   31   4.674   5.008   5.755  0.2002 -0.8110  0.0184
    1CHL1  H12A   32   4.584   5.019   5.690 -0.0749 -1.2784  0.3127
    1CHL1  H12B   33   4.678   4.910   5.807 -0.0993  0.1640  1.9683
    1CHL1   C11   34   4.636   5.082   5.888 -0.4248  0.4550 -0.0857
    1CHL1  H11A   35   4.609   5.187   5.863 -3.9477 -0.3824 -0.3478
    1CHL1  H11B   36   4.542   5.044   5.934 -0.0127  0.5828  0.8651
    1CHL1    C9   37   4.752   5.074   5.987 -0.5591 -0.1912  0.5180
    1CHL1    H9   38   4.745   4.969   6.022 -1.2650  0.3302  2.0424
    1CHL1   C10   39   4.731   5.169   6.114  0.3289 -0.7328 -0.6494
    1CHL1   C19   40   4.704   5.313   6.063  0.4097 -0.2714 -0.1807
    1CHL1  H19A   41   4.768   5.343   5.977  1.9737 -3.2281 -0.1611
    1CHL1  H19B   42   4.601   5.336   6.027  0.4483 -0.2601 -0.2840
    1CHL1  H19C   43   4.721   5.390   6.142  3.6789 -1.5044  0.4667
    1CHL1    C1   44   4.605   5.125   6.190  0.2163 -0.5647 -0.7039
    1CHL1   H1A   45   4.512   5.143   6.132  0.1365 -1.1897 -0.7834
    1CHL1   H1B   46   4.599   5.015   6.204 -4.1262 -0.1619  2.5239
    1CHL1    C2   47   4.587   5.192   6.331  0.4395 -0.4399  0.1670
    1CHL1   H2A   48   4.498   5.147   6.379 -0.0908 -0.4401 -0.7936
    1CHL1   H2B   49   4.569   5.301   6.322 -1.8875 -0.6530  1.5695
    1CHL1   C20   50   4.819   4.940   5.432 -0.8234 -0.6077  0.0467
    1CHL1   H20   51   4.840   5.045   5.401  1.7419 -0.3446  2.3601
    1CHL1   C21   52   4.666   4.934   5.429 -0.3684  0.2258  0.3158
    1CHL1  H21A   53   4.625   4.849   5.487 -1.7932 -0.3923 -1.5048
    1CHL1  H21B   54   4.623   4.916   5.328 -2.9745 -1.7093  1.6540
    1CHL1  H21C   55   4.630   5.031   5.471  0.2661  0.6348 -0.0620
    1CHL1   C22   56   4.883   4.842   5.335 -0.1359 -0.4202  0.3927
    1CHL1  H22A   57   4.846   4.859   5.231  1.2973  0.0328 -0.0618
    1CHL1  H22B   58   4.992   4.859   5.330 -0.0339 -1.3943 -1.7892
    1CHL1   C23   59   4.864   4.695   5.367 -0.0247  0.3988  0.4226
    1CHL1  H23A   60   4.913   4.674   5.464  3.8888 -0.3090 -1.4884
    1CHL1  H23B   61   4.759   4.665   5.389 -0.0996  1.0446  0.9553
    1CHL1   C24   62   4.926   4.603   5.252 -0.3092  0.0203 -0.3194
    1CHL1  H24A   63   5.037   4.609   5.264 -0.0991 -1.2376 -1.4284
    1CHL1  H24B   64   4.913   4.498   5.285  0.2918  0.1523  0.3685
    1CHL1   C25   65   4.871   4.628   5.110  0.4597  0.8387 -0.3652
    1CHL1   H25   66   4.885   4.736   5.088 -0.9312  0.5295 -3.3104
    1CHL1   C26   67   4.963   4.546   5.018  0.0274 -0.5723 -0.1901
    1CHL1  H26A   68   4.943   4.439   5.043  0.0715 -0.4748  0.2736
    1CHL1  H26B   69   4.939   4.569   4.912  2.2038 -0.3326 -0.6620
    1CHL1  H26C   70   5.067   4.577   5.041 -0.4293  0.5121  0.5292
    1CHL1   C27   71   4.719   4.594   5.091 -0.1815 -0.0972  0.4165
    1CHL1  H27A   72   4.679   4.636   4.996  0.9939 -2.6075 -1.3116
    1CHL1  H27B   73   4.698   4.486   5.075 -0.5072 -0.1010  0.8520
    1CHL1  H27C   74   4.654   4.632   5.173  0.6246  0.0654  0.9912
    2CHL1    C3   75   5.429   5.121   5.917  0.1106  0.2310  0.3925
    2CHL1    H3   76   5.330   5.167   5.937  0.5150  1.0402  0.5658
    2CHL1    O3   77   5.430   5.011   6.004  0.3296 -0.1678  0.2991
    2CHL1   H3'   78   5.451   5.046   6.091  0.6587  0.8449 -0.1701
    2CHL1    C4   79   5.429   5.076   5.772 -0.1073  0.1781 -0.1593
    2CHL1   H4A   80   5.511   5.001   5.761  0.4527  0.5603  1.1325
    2CHL1   H4B   81   5.333   5.024   5.756  0.4509 -1.2276  0.8123
    2CHL1    C5   82   5.438   5.189   5.669 -0.1373  0.9094 -0.5148
    2CHL1    C6   83   5.349   5.203   5.575  0.0262 -0.2700 -0.1553
    2CHL1    H6   84   5.262   5.136   5.569 -0.5404  0.4181  0.2057
    2CHL1    C7   85   5.352   5.322   5.483  0.9573  0.5464 -0.3353
    2CHL1   H7A   86   5.322   5.288   5.382  0.9054 -1.3213  0.2717
    2CHL1   H7B   87   5.276   5.396   5.515 -1.1318 -1.0034 -1.4986
    2CHL1    C8   88   5.484   5.391   5.471  0.1142 -0.3410 -0.0140
    2CHL1    H8   89   5.546   5.320   5.413 -1.0735  1.1531 -3.3911
    2CHL1   C14   90   5.472   5.527   5.394  0.2253 -0.2585 -0.2873
    2CHL1   H14   91   5.414   5.585   5.468  1.0153 -0.7564  0.7570
    2CHL1   C15   92   5.393   5.527   5.259 -0.0870  0.6056 -0.8052
    2CHL1  H15A   93   5.420   5.441   5.194  1.7967  1.1939 -0.8411
    2CHL1  H15B   94   5.285   5.538   5.283  0.2131  1.3051  0.2973
    2CHL1   C16   95   5.421   5.660   5.197 -0.5272 -0.4387 -0.6326
    2CHL1  H16A   96   5.441   5.650   5.089 -1.3395 -0.2359 -0.8104
    2CHL1  H16B   97   5.327   5.719   5.198 -0.4878 -0.3469 -1.7336
    2CHL1   C17   98   5.535   5.724   5.294 -0.0268  0.2492  0.5074
    2CHL1   H17   99   5.482   5.790   5.366  0.6684 -0.0640  1.3180
    2CHL1   C13  100   5.591   5.611   5.378 -0.4219 -0.2506 -0.6549
    2CHL1   C18  101   5.691   5.535   5.298 -0.1640  0.4781 -0.1408
    2CHL1  H18A  102   5.793   5.579   5.289  0.3516 -0.5648  0.3890
    2CHL1  H18B  103   5.712   5.434   5.339  1.3356  0.8520  0.0762
    2CHL1  H18C  104   5.652   5.508   5.198 -0.5489  0.3428  0.0461
    2CHL1   C12  105   5.643   5.641   5.527 -0.0181 -0.0481  0.2001
    2CHL1  H12A  106   5.741   5.691   5.510  1.7427 -3.0212  0.9331
    2CHL1  H12B  107   5.577   5.710   5.584 -0.6838 -2.3514  2.3991
    2CHL1   C11  108   5.661   5.513   5.599  0.1196  0.1594  0.1233
    2CHL1  H11A  109   5.747   5.462   5.552  1.7898  2.0541  1.0145
    2CHL1  H11B  110   5.697   5.538   5.702 -0.5564  0.9208  0.1848
    2CHL1    C9  111   5.542   5.418   5.606  0.4600  0.2020 -0.9189
    2CHL1    H9  112   5.466   5.481   5.657 -0.0724 -1.2931  0.2446
    2CHL1   C10  113   5.561   5.288   5.692  0.7419 -0.8928  0.3003
    2CHL1   C19  114   5.687   5.215   5.652  0.2874 -0.9822 -0.0217
    2CHL1  H19A  115   5.782   5.259   5.689 -0.3965  0.4207  0.1346
    2CHL1  H19B  116   5.689   5.123   5.714  0.7702  0.2971  1.9457
    2CHL1  H19C  117   5.689   5.205   5.541  1.3075  2.8322 -0.4962
    2CHL1    C1  118   5.566   5.328   5.842  0.2360  0.0414 -0.8250
    2CHL1   H1A  119   5.663   5.380   5.856 -0.9282  1.9072  0.9504
    2CHL1   H1B  120   5.480   5.398   5.849 -0.8437 -1.3588  0.9158
    2CHL1    C2  121   5.543   5.223   5.950  0.1297  0.7008 -0.7128
    2CHL1   H2A  122   5.514   5.262   6.049 -1.5899 -1.4462 -0.3026
    2CHL1   H2B  123   5.637   5.165   5.962 -0.0382  0.6400  0.4356
    2CHL1   C20  124   5.631   5.818   5.215 -0.2018  0.4183 -0.0942
    2CHL1   H20  125   5.732   5.804   5.259 -0.3760  1.8364  0.8082
    2CHL1   C21  126   5.584   5.960   5.243  0.3868  0.4913  0.6172
    2CHL1  H21A  127   5.637   6.036   5.182 -1.9213  1.2978 -0.5116
    2CHL1  H21B  128   5.589   5.992   5.349 -1.1884  1.6904  0.3722
    2CHL1  H21C  129   5.474   5.960   5.224  0.2484 -0.3688  1.3334
    2CHL1   C22  130   5.647   5.789   5.063 -0.2667 -0.0240 -0.0515
    2CHL1  H22A  131   5.660   5.679   5.048  0.1514 -0.0201  0.2649
    2CHL1  H22B  132   5.550   5.814   5.014  0.5672  1.4649 -0.9996
    2CHL1   C23  133   5.757   5.850   4.976  0.4783 -0.5089 -0.2373
    2CHL1  H23A  134   5.760   5.960   4.993  1.0305 -0.4502 -0.6844
    2CHL1  H23B  135   5.855   5.807   5.007  1.5357  0.0653 -2.5760
    2CHL1   C24  136   5.732   5.823   4.825 -0.0525  0.1478  0.1183
    2CHL1  H24A  137   5.700   5.718   4.812  0.9157 -0.1458  0.0188
    2CHL1  H24B  138   5.653   5.896   4.798  0.0218  0.8201  1.6469
    2CHL1   C25  139   5.847   5.849   4.734 -0.3390  0.0166 -0.0262
    2CHL1   H25  140   5.934   5.784   4.757  0.5951  1.0869 -0.4478
    2CHL1   C26  141   5.820   5.818   4.582 -0.0229  0.1386 -0.4279
    2CHL1  H26A  142   5.748   5.733   4.578  0.5930 -0.4426  0.3312
    2CHL1  H26B  143   5.761   5.902   4.540  1.2896  1.2198 -0.1795
    2CHL1  H26C  144   5.917   5.803   4.529 -0.0695  2.1205 -1.1399
    2CHL1   C27  145   5.895   5.992   4.762 -0.3873 -0.3343  0.5937
    2CHL1  H27A  146   5.942   6.012   4.861  1.5358  0.9987 -0.5097
    2CHL1  H27B  147   5.965   6.013   4.679 -0.5428 -0.5741  0.3987
    2CHL1  H27C  148   5.818   6.071   4.747 -1.5018 -1.2261  1.4511
    3CHL1    C3  149   6.312   3.491   6.163 -0.0999 -0.4832  0.2178
    3CHL1    H3  150   6.398   3.421   6.173 -0.9267 -1.5647 -0.1485
    3CHL1    O3  151   6.265   3.521   6.291 -0.4029  0.4662  0.1397
    3CHL1   H3'  152   6.346   3.533   6.340  0.8396  2.0687 -2.1216
    3CHL1    C4  153   6.360   3.616   6.091 -0.4576 -0.2055 -0.5173
    3CHL1   H4A  154   6.281   3.693   6.090  0.6176  0.9354 -0.2308
    3CHL1   H4B  155   6.438   3.675   6.144  0.1749 -0.7818 -0.7867
    3CHL1    C5  156   6.413   3.568   5.956 -0.1928  0.1373  0.4409
    3CHL1    C6  157   6.530   3.607   5.916 -0.4061  0.4446 -0.1857
    3CHL1    H6  158   6.591   3.658   5.992  1.2657 -1.4546 -0.1919
    3CHL1    C7  159   6.588   3.566   5.782 -0.9110 -0.0410  0.6259
    3CHL1   H7A  160   6.649   3.644   5.732 -0.4902 -1.0936 -0.5618
    3CHL1   H7B  161   6.671   3.493   5.795 -0.6111 -0.2111 -1.7703
    3CHL1    C8  162   6.481   3.512   5.688  0.2946 -0.0829 -0.0094
    3CHL1    H8  163   6.428   3.604   5.656  1.6035  0.8317  0.3658
    3CHL1   C14  164   6.540   3.447   5.556  0.0806  0.2030  0.2702
    3CHL1   H14  165   6.594   3.361   5.602  0.7840  0.1492 -0.6212
    3CHL1   C15  166   6.650   3.522   5.475 -0.4154 -0.2946  0.8813
    3CHL1  H15A  167   6.615   3.628   5.478 -1.5883 -0.6704  1.1369
    3CHL1  H15B  168   6.747   3.517   5.528 -1.4687 -2.1244  2.8322
    3CHL1   C16  169   6.646   3.459   5.332  0.5964  0.1427 -0.8650
    3CHL1  H16A  170   6.639   3.547   5.265  2.7356  2.5423  1.8243
    3CHL1  H16B  171   6.728   3.389   5.305  0.4326 -0.3049 -0.2298
    3CHL1   C17  172   6.514   3.362   5.333 -0.5178  0.6253 -0.3596
    3CHL1   H17  173   6.559   3.263   5.358  1.5318  1.9641  1.6942
    3CHL1   C13  174   6.434   3.402   5.452  0.1330 -0.0587  0.0506
    3CHL1   C18  175   6.347   3.514   5.408 -0.0811 -0.0347  0.2903
    3CHL1  H18A  176   6.257   3.487   5.349  0.3589  1.2427 -1.0364
    3CHL1  H18B  177   6.310   3.579   5.490  0.3189  1.2888 -0.5401
    3CHL1  H18C  178   6.395   3.594   5.347 -1.3510  0.0246 -0.6601
    3CHL1   C12  179   6.343   3.301   5.515  0.8460  0.8201 -0.5951
    3CHL1  H12A  180   6.257   3.270   5.451  0.3283 -1.9605  1.2395
    3CHL1  H12B  181   6.413   3.215   5.525 -1.8419 -1.3460  1.2691
    3CHL1   C11  182   6.284   3.335   5.655 -0.8353 -0.6067  0.0033
    3CHL1  H11A  183   6.192   3.394   5.634 -0.7936 -1.4640 -3.0675
    3CHL1  H11B  184   6.251   3.241   5.703 -0.9356 -2.5941 -3.5561
    3CHL1    C9  185   6.383   3.417   5.754 -0.4324  0.2135 -0.0079
    3CHL1    H9  186   6.441   3.329   5.788 -2.1623 -1.4058 -1.0458
    3CHL1   C10  187   6.316   3.476   5.874  0.9492 -0.1573  0.3091
    3CHL1   C19  188   6.209   3.577   5.831 -0.0873  0.2372 -0.0579
    3CHL1  H19A  189   6.165   3.637   5.913  1.2355  1.0998  0.0519
    3CHL1  H19B  190   6.254   3.653   5.764 -1.2158 -0.3250 -1.5098
    3CHL1  H19C  191   6.123   3.534   5.776 -0.5295  2.0637 -0.8594
    3CHL1    C1  192   6.259   3.358   5.953  0.2177  0.4406  0.2731
    3CHL1   H1A  193   6.174   3.308   5.900 -1.6426  1.7402  1.8850
    3CHL1   H1B  194   6.333   3.275   5.963 -0.9066 -0.8637 -1.4844
    3CHL1    C2  195   6.205   3.416   6.083 -0.0840  0.7487  0.2865
    3CHL1   H2A  196   6.162   3.333   6.142 -0.2227  0.1549 -0.6312
    3CHL1   H2B  197   6.116   3.477   6.057  0.0895  0.1274 -2.0033
    3CHL1   C20  198   6.448   3.345   5.197 -0.4990 -0.0360 -0.1425
    3CHL1   H20  199   6.400   3.442   5.174 -0.2123  0.3335  0.7691
    3CHL1   C21  200   6.348   3.230   5.200  0.1888  0.0520 -0.2812
    3CHL1  H21A  201   6.254   3.263   5.250  0.3403  2.6922 -1.5751
    3CHL1  H21B  202   6.380   3.132   5.241  0.9247 -0.8959 -2.9530
    3CHL1  H21C  203   6.314   3.201   5.099  2.1605  1.7770 -1.5055
    3CHL1   C22  204   6.550   3.316   5.083 -0.6614 -0.4018 -0.0972
    3CHL1  H22A  205   6.500   3.317   4.984  0.2158  0.6457 -0.5590
    3CHL1  H22B  206   6.613   3.408   5.078  1.0540 -1.5172  0.0515
    3CHL1   C23  207   6.638   3.189   5.086 -0.3642 -0.6091 -0.0123
    3CHL1  H23A  208   6.688   3.176   5.184  0.2759  0.8202 -0.1180
    3CHL1  H23B  209   6.573   3.103   5.059  0.5533 -1.1616 -0.5256
    3CHL1   C24  210   6.743   3.193   4.968  0.1646  0.2838  0.4783
    3CHL1  H24A  211   6.696   3.206   4.868  0.9349  3.0499  0.3968
    3CHL1  H24B  212   6.812   3.279   4.980  0.8892 -0.1017 -0.8150
    3CHL1   C25  213   6.837   3.074   4.956 -0.1719 -0.2267  0.0120
    3CHL1   H25  214   6.776   2.984   4.934  1.6500 -1.3124 -0.8045
    3CHL1   C26  215   6.937   3.097   4.846 -0.5582  0.2391  0.3332
    3CHL1  H26A  216   6.884   3.118   4.750  0.9838  1.0724 -0.3778
    3CHL1  H26B  217   7.004   3.180   4.877  3.5038 -2.3546 -0.7177
    3CHL1  H26C  218   7.003   3.008   4.836 -0.8778 -0.0517  0.7926
    3CHL1   C27  219   6.916   3.052   5.090 -0.3176 -0.0710  0.6003
    3CHL1  H27A  220   7.002   2.982   5.077 -1.2480 -0.9781 -1.0799
    3CHL1  H27B  221   6.945   3.156   5.116 -1.3895  0.9150 -1.8250
    3CHL1  H27C  222   6.855   3.013   5.174  0.5082 -0.5754  0.9721
    4CHL1    C3  223   5.331   4.704   6.069 -0.0699  0.1674  0.9379
    4CHL1    H3  224   5.279   4.626   6.129 -0.7224  0.8550  1.2788
    4CHL1    O3  225   5.378   4.801   6.160  0.2239  0.5460  0.2763
    4CHL1   H3'  226   5.402   4.871   6.099  0.3103  0.3887  0.1280
    4CHL1    C4  227   5.455   4.647   5.996  0.4320  0.4240  0.2732
    4CHL1   H4A  228   5.504   4.734   5.947  0.3734  0.7348  0.7658
    4CHL1   H4B  229   5.535   4.610   6.062 -1.5368 -0.8070  2.0941
    4CHL1    C5  230   5.428   4.545   5.884  0.0816  0.4724 -0.7436
    4CHL1    C6  231   5.494   4.429   5.874 -0.2295 -0.6456 -0.0580
    4CHL1    H6  232   5.573   4.416   5.950 -0.4315  0.5264  0.3639
    4CHL1    C7  233   5.489   4.321   5.772  0.3170  0.1935 -0.0312
    4CHL1   H7A  234   5.592   4.296   5.736  0.2298 -2.2796  1.2531
    4CHL1   H7B  235   5.443   4.232   5.819  1.6284  0.8427  2.6420
    4CHL1    C8  236   5.401   4.364   5.650  0.0634  0.5418 -0.1705
    4CHL1    H8  237   5.474   4.421   5.588 -0.1276  0.5804 -0.3572
    4CHL1   C14  238   5.364   4.247   5.561 -0.2260  0.2872  0.6087
    4CHL1   H14  239   5.285   4.187   5.611  0.2945 -1.3157 -0.3901
    4CHL1   C15  240   5.473   4.149   5.523  0.1887 -0.2859  0.2942
    4CHL1  H15A  241   5.573   4.196   5.516 -0.9572  2.7376  2.0119
    4CHL1  H15B  242   5.476   4.071   5.602 -1.0959  0.9682  1.6533
    4CHL1   C16  243   5.416   4.079   5.396 -0.6195 -0.3110  0.5132
    4CHL1  H16A  244   5.486   4.104   5.313 -1.3668 -1.4153 -0.4729
    4CHL1  H16B  245   5.411   3.968   5.402  1.6738 -0.5326 -0.6276
    4CHL1   C17  246   5.281   4.152   5.361 -0.4559 -1.0794 -0.0240
    4CHL1   H17  247   5.205   4.095   5.418  0.7891 -1.1193  1.6574
    4CHL1   C13  248   5.298   4.295   5.429 -0.1403  0.1745 -0.3860
    4CHL1   C18  249   5.387   4.379   5.337 -0.4571  0.3149 -0.1745
    4CHL1  H18A  250   5.459   4.318   5.277 -2.2333 -0.6521 -1.4351
    4CHL1  H18B  251   5.325   4.446   5.273 -1.4018  0.4087  0.8240
    4CHL1  H18C  252   5.447   4.457   5.390 -2.2778  1.8907 -0.3222
    4CHL1   C12  253   5.163   4.370   5.471 -0.8132 -0.0367 -0.3604
    4CHL1  H12A  254   5.116   4.408   5.378  0.1874 -0.0596 -0.9014
    4CHL1  H12B  255   5.093   4.297   5.515 -0.7367 -1.1887 -2.0565
    4CHL1   C11  256   5.196   4.494   5.565 -0.2560  0.6473  0.8835
    4CHL1  H11A  257   5.261   4.561   5.505 -0.7393  0.0312 -0.3670
    4CHL1  H11B  258   5.110   4.559   5.589  1.6447  2.4854  3.3044
    4CHL1    C9  259   5.277   4.455   5.693 -0.4462  0.3908  0.3776
    4CHL1    H9  260   5.216   4.382   5.750 -0.0843 -0.5305 -0.4032
    4CHL1   C10  261   5.313   4.582   5.780  0.2843  0.5842 -0.8506
    4CHL1   C19  262   5.376   4.689   5.691 -0.4927 -0.0423  0.6020
    4CHL1  H19A  263   5.306   4.747   5.626 -0.3771  0.1857  0.6779
    4CHL1  H19B  264   5.422   4.773   5.748 -1.7299  0.3564  1.0460
    4CHL1  H19C  265   5.462   4.645   5.636 -0.6151  0.1988  0.2126
    4CHL1    C1  266   5.191   4.653   5.854  0.1917 -0.5202  0.3844
    4CHL1   H1A  267   5.119   4.694   5.781  1.3569 -1.9289 -1.6412
    4CHL1   H1B  268   5.130   4.577   5.907  1.5020 -1.0009  1.2881
    4CHL1    C2  269   5.230   4.757   5.963 -1.4151 -0.1947 -0.5805
    4CHL1   H2A  270   5.139   4.793   6.016  0.1614  1.4298  1.1458
    4CHL1   H2B  271   5.267   4.846   5.908 -0.5074 -1.0009 -1.3304
    4CHL1   C20  272   5.243   4.142   5.214 -0.0251  0.9813  1.2167
    4CHL1   H20  273   5.327   4.190   5.159  0.4569 -1.4150 -0.2896
    4CHL1   C21  274   5.114   4.223   5.173 -0.0591  0.2231 -0.6614
    4CHL1  H21A  275   5.030   4.202   5.242  1.8561  1.6393  2.3076
    4CHL1  H21B  276   5.099   4.193   5.068  1.8626 -0.4638 -0.7859
    4CHL1  H21C  277   5.125   4.334   5.181 -0.5137  0.2839 -0.8900
    4CHL1   C22  278   5.229   3.995   5.166 -0.1238 -0.5706  0.1797
    4CHL1  H22A  279   5.295   3.925   5.221  1.4643  1.4673  0.9666
    4CHL1  H22B  280   5.126   3.961   5.191 -0.5365 -1.0316 -1.8972
    4CHL1   C23  281   5.249   3.979   5.016 -0.2530  0.6944  0.4624
    4CHL1  H23A  282   5.194   4.044   4.945 -1.2810 -2.2897 -1.6823
    4CHL1  H23B  283   5.355   3.996   4.988 -0.2097 -0.4505 -0.1595
    4CHL1   C24  284   5.227   3.830   4.968  0.0277  0.2649  0.2109
    4CHL1  H24A  285   5.305   3.767   5.016  0.0587 -0.5290 -0.8491
    4CHL1  H24B  286   5.126   3.795   4.999  0.1463 -1.1113 -0.8744
    4CHL1   C25  287   5.238   3.801   4.815  0.0445 -0.8067 -0.1664
    4CHL1   H25  288   5.315   3.873   4.779 -2.5080  1.3278 -1.6958
    4CHL1   C26  289   5.288   3.663   4.786 -0.1264 -0.3250 -0.0626
    4CHL1  H26A  290   5.222   3.594   4.843  1.7724 -0.9133  1.5487
    4CHL1  H26B  291   5.281   3.644   4.677  0.9951 -0.8346 -0.0569
    4CHL1  H26C  292   5.385   3.634   4.831 -0.6053  1.2565  2.1233
    4CHL1   C27  293   5.100   3.843   4.749 -0.0890  0.6476 -0.7841
    4CHL1  H27A  294   5.043   3.759   4.703 -0.8609  0.1901  0.9100
    4CHL1  H27B  295   5.040   3.877   4.836 -0.6521 -1.4312 -0.3045
    4CHL1  H27C  296   5.112   3.928   4.680 -2.3218  0.1155 -1.9164
    5CHL1    C3  297   5.302   6.006   6.386 -0.2266  0.3025  0.4465
    5CHL1    H3  298   5.406   5.999   6.347  0.6699  0.3711  2.6352
    5CHL1    O3  299   5.301   5.919   6.497 -0.1988  0.4586  0.2795
    5CHL1   H3'  300   5.354   5.966   6.562 -0.7465  0.8899  0.4204
    5CHL1    C4  301   5.265   6.148   6.419  0.2301  0.3609  0.6206
    5CHL1   H4A  302   5.161   6.133   6.455 -0.4813  0.8783 -1.1510
    5CHL1   H4B  303   5.327   6.190   6.502  1.9766  0.6433 -0.7791
    5CHL1    C5  304   5.264   6.241   6.290 -0.5125 -0.0862  0.2615
    5CHL1    C6  305   5.340   6.350   6.285  0.2217 -0.0538 -0.0070
    5CHL1    H6  306   5.405   6.376   6.370 -3.5587 -0.7805  3.3884
    5CHL1    C7  307   5.344   6.444   6.167  0.1440 -0.2790 -0.6938
    5CHL1   H7A  308   5.359   6.546   6.207  1.8559 -0.1080 -1.6682
    5CHL1   H7B  309   5.439   6.431   6.111 -1.3292  1.3402 -3.8300
    5CHL1    C8  310   5.227   6.434   6.079  0.6370 -0.2235  0.4480
    5CHL1    H8  311   5.144   6.477   6.139  1.8452  1.1141  1.2187
    5CHL1   C14  312   5.242   6.512   5.944  0.0227  0.7020 -0.4753
    5CHL1   H14  313   5.314   6.451   5.885 -0.9938  0.8724 -1.9792
    5CHL1   C15  314   5.301   6.655   5.948 -0.0769 -0.4786 -0.4438
    5CHL1  H15A  315   5.265   6.707   6.039  2.8162  0.1755  0.4341
    5CHL1  H15B  316   5.411   6.643   5.959 -0.1176 -0.1108  0.4670
    5CHL1   C16  317   5.254   6.720   5.820  0.5426  1.2451  0.7678
    5CHL1  H16A  318   5.206   6.818   5.838 -1.9402  0.1671  0.3308
    5CHL1  H16B  319   5.347   6.730   5.759  0.2900 -0.5393  0.0388
    5CHL1   C17  320   5.172   6.610   5.740  0.6542 -0.2899 -0.3785
    5CHL1   H17  321   5.245   6.563   5.670  1.1336  1.3553 -1.0122
    5CHL1   C13  322   5.118   6.520   5.858 -0.1856  0.1769  0.3326
    5CHL1   C18  323   4.999   6.581   5.918  0.6654 -0.3075  0.5402
    5CHL1  H18A  324   4.912   6.600   5.851  0.0794 -0.9043  1.1176
    5CHL1  H18B  325   4.965   6.518   6.004 -3.9349  0.9763 -0.0579
    5CHL1  H18C  326   5.040   6.679   5.950 -0.7767  0.4888  0.0221
    5CHL1   C12  327   5.087   6.370   5.812  0.1991  0.7259  0.7250
    5CHL1  H12A  328   4.995   6.358   5.750  0.3709 -1.1639  0.7819
    5CHL1  H12B  329   5.171   6.331   5.751 -2.3164 -0.8804 -1.9795
    5CHL1   C11  330   5.084   6.270   5.933  0.2452  0.6205  0.2350
    5CHL1  H11A  331   4.986   6.289   5.982 -1.0181 -2.5553 -0.7835
    5CHL1  H11B  332   5.087   6.164   5.902  0.5039  0.7351 -0.1382
    5CHL1    C9  333   5.189   6.288   6.052  0.5309 -0.1283  1.1247
    5CHL1    H9  334   5.280   6.248   6.003  1.0419  1.0505  1.0801
    5CHL1   C10  335   5.172   6.191   6.174  0.2124  0.0381 -0.0899
    5CHL1   C19  336   5.023   6.205   6.224  0.2951  0.0103  0.3249
    5CHL1  H19A  337   5.000   6.161   6.323  1.1492 -2.1422 -0.3862
    5CHL1  H19B  338   4.984   6.309   6.229  1.0233  0.2479  3.7083
    5CHL1  H19C  339   4.950   6.153   6.159  0.6183  0.5586 -0.4983
    5CHL1    C1  340   5.203   6.043   6.146  0.5017 -0.2832 -0.0544
    5CHL1   H1A  341   5.120   6.000   6.085 -0.0916 -0.0712  0.5867
    5CHL1   H1B  342   5.292   6.023   6.083 -0.2583 -1.6527 -0.7441
    5CHL1    C2  343   5.208   5.952   6.272 -0.3506 -0.4874  0.0459
    5CHL1   H2A  344   5.238   5.849   6.246 -0.2665 -1.0624  2.2665
    5CHL1   H2B  345   5.108   5.956   6.320 -0.3549 -0.1740  0.0173
    5CHL1   C20  346   5.068   6.668   5.640 -0.1975  0.2245 -0.0002
    5CHL1   H20  347   4.998   6.728   5.702 -0.4130  0.7845 -0.7675
    5CHL1   C21  348   4.989   6.556   5.567  0.1632 -0.3024  0.0744
    5CHL1  H21A  349   4.931   6.598   5.482  1.2405 -0.4226 -0.7402
    5CHL1  H21B  350   4.922   6.497   5.633 -0.4920 -1.1249 -1.2896
    5CHL1  H21C  351   5.064   6.483   5.530 -0.0730 -1.6705  2.1290
    5CHL1   C22  352   5.135   6.766   5.540 -0.4326  1.0810 -0.2631
    5CHL1  H22A  353   5.048   6.807   5.484  0.1505  0.4721 -1.6774
    5CHL1  H22B  354   5.180   6.850   5.596  0.9821  0.6922 -0.7612
    5CHL1   C23  355   5.230   6.703   5.430 -0.2345  0.4246  0.1935
    5CHL1  H23A  356   5.317   6.654   5.478 -0.7512 -0.8169 -0.1131
    5CHL1  H23B  357   5.165   6.627   5.382  2.0493 -1.5323  0.0342
    5CHL1   C24  358   5.262   6.816   5.324 -0.0202 -0.9537  0.7006
    5CHL1  H24A  359   5.168   6.845   5.272  0.2026  1.8930  1.7556
    5CHL1  H24B  360   5.293   6.904   5.383 -2.2830 -0.3255  1.0245
    5CHL1   C25  361   5.380   6.780   5.226  0.4022 -0.0827  0.2851
    5CHL1   H25  362   5.347   6.683   5.184  1.3173 -0.9523  1.5077
    5CHL1   C26  363   5.393   6.887   5.112  0.2385  0.3983 -0.3689
    5CHL1  H26A  364   5.331   6.848   5.029  2.1201 -1.0601 -1.1678
    5CHL1  H26B  365   5.375   6.991   5.146  2.1152  0.7363 -0.2604
    5CHL1  H26C  366   5.501   6.885   5.085  0.7622 -1.2742  1.6276
    5CHL1   C27  367   5.509   6.747   5.299 -0.3264  0.3563  0.4249
    5CHL1  H27A  368   5.562   6.831   5.348  2.0766 -1.1284  0.5669
    5CHL1  H27B  369   5.505   6.668   5.377  1.3659  0.6309  0.8351
    5CHL1  H27C  370   5.568   6.698   5.219  0.2780  0.9091  0.5243
    6CHL1    C3  371   6.545   3.069   6.374  0.3459  0.0268 -0.2938
    6CHL1    H3  372   6.652   3.040   6.376  0.5546  0.7615  1.6526
    6CHL1    O3  373   6.510   3.122   6.502  0.2720  0.2399  0.6852
    6CHL1   H3'  374   6.431   3.174   6.490 -1.0149 -2.0749 -2.0777
    6CHL1    C4  375   6.524   3.179   6.259 -0.5681 -0.0786 -0.5128
    6CHL1   H4A  376   6.417   3.210   6.265 -0.8975 -1.3285  0.5759
    6CHL1   H4B  377   6.585   3.268   6.286 -1.4381  0.6362 -0.8228
    6CHL1    C5  378   6.553   3.120   6.122 -0.1665  0.2663  0.3181
    6CHL1    C6  379   6.639   3.186   6.047  0.0443  0.4683  0.1676
    6CHL1    H6  380   6.672   3.288   6.074  1.3764  0.2935 -0.6856
    6CHL1    C7  381   6.677   3.135   5.914  0.0806 -0.1301 -0.0937
    6CHL1   H7A  382   6.689   3.216   5.839 -2.5959 -0.7079 -1.2646
    6CHL1   H7B  383   6.777   3.089   5.933 -1.1041 -1.7936  2.6156
    6CHL1    C8  384   6.581   3.025   5.856  0.3366  0.1815 -0.4711
    6CHL1    H8  385   6.481   3.069   5.832  0.0352  0.9218  1.8420
    6CHL1   C14  386   6.629   2.963   5.726  0.0003  0.1825  0.8749
    6CHL1   H14  387   6.721   2.914   5.762 -0.2682  0.1226  1.4859
    6CHL1   C15  388   6.655   3.057   5.609 -0.2455  0.9832 -0.4049
    6CHL1  H15A  389   6.571   3.128   5.604  0.5886  2.1018  0.8635
    6CHL1  H15B  390   6.752   3.108   5.628  0.6135 -0.1073 -1.6358
    6CHL1   C16  391   6.656   2.971   5.490  0.0333 -0.3852  0.6893
    6CHL1  H16A  392   6.580   3.015   5.422  0.8532  1.0623  0.6811
    6CHL1  H16B  393   6.757   2.967   5.445 -0.8383 -0.6271 -1.3629
    6CHL1   C17  394   6.622   2.827   5.535  0.6294 -0.0015 -0.2115
    6CHL1   H17  395   6.715   2.773   5.565  1.2397  0.7454 -0.7443
    6CHL1   C13  396   6.541   2.840   5.669  0.1375 -0.0690 -0.2923
    6CHL1   C18  397   6.395   2.888   5.626  0.2930 -0.4048 -0.5566
    6CHL1  H18A  398   6.335   2.819   5.563  0.0427 -1.8617  1.1884
    6CHL1  H18B  399   6.339   2.919   5.717  1.3556  1.1993 -0.4043
    6CHL1  H18C  400   6.394   2.983   5.568 -1.9846  1.1566  1.8221
    6CHL1   C12  401   6.537   2.731   5.776 -0.4591 -0.3354 -0.5520
    6CHL1  H12A  402   6.479   2.642   5.745  0.5775 -1.2451  0.0641
    6CHL1  H12B  403   6.642   2.700   5.792 -0.3771  0.9622  1.8796
    6CHL1   C11  404   6.478   2.793   5.911 -0.7194 -0.6145  0.0558
    6CHL1  H11A  405   6.370   2.813   5.894 -0.3944  2.1497  0.7937
    6CHL1  H11B  406   6.488   2.709   5.984  0.5862 -1.7532 -1.3698
    6CHL1    C9  407   6.560   2.919   5.964  0.9858 -0.2468 -1.2128
    6CHL1    H9  408   6.660   2.880   5.993  0.7774  0.7911  1.1624
    6CHL1   C10  409   6.492   2.980   6.091 -0.5099  0.1078  0.3130
    6CHL1   C19  410   6.336   2.991   6.064 -0.3587  0.3197  0.6531
    6CHL1  H19A  411   6.280   2.895   6.063 -2.1736  1.3146  1.5879
    6CHL1  H19B  412   6.295   3.058   6.143  0.2312  2.2144 -0.5655
    6CHL1  H19C  413   6.318   3.040   5.966 -0.4101  1.8462  1.3992
    6CHL1    C1  414   6.510   2.884   6.213 -0.3125 -0.3788 -0.9592
    6CHL1   H1A  415   6.474   2.779   6.207 -1.5223 -0.4737  3.8243
    6CHL1   H1B  416   6.620   2.875   6.219 -0.4041 -0.4568  1.8545
    6CHL1    C2  417   6.459   2.940   6.345 -0.4905 -0.6979 -0.4171
    6CHL1   H2A  418   6.473   2.872   6.432 -0.6428  1.6365  1.5285
    6CHL1   H2B  419   6.354   2.977   6.346  0.5365  2.4996 -0.7919
    6CHL1   C20  420   6.571   2.736   5.425 -0.5547 -0.2156  0.4610
    6CHL1   H20  421   6.474   2.782   5.394 -0.6679  0.0992  1.2489
    6CHL1   C21  422   6.538   2.594   5.470 -0.4306  0.2415 -0.7372
    6CHL1  H21A  423   6.527   2.527   5.382 -0.6750  1.3287 -1.5586
    6CHL1  H21B  424   6.447   2.593   5.533  0.8626 -1.9683  1.2691
    6CHL1  H21C  425   6.606   2.550   5.546 -2.8471 -1.0614  0.7712
    6CHL1   C22  426   6.653   2.737   5.294 -0.2913 -0.5085 -0.8562
    6CHL1  H22A  427   6.592   2.690   5.214 -2.0948  0.0653  0.1228
    6CHL1  H22B  428   6.654   2.841   5.254 -1.3312 -0.0656  0.2199
    6CHL1   C23  429   6.804   2.690   5.311  0.2984 -0.0460  0.0915
    6CHL1  H23A  430   6.864   2.764   5.368  2.4225 -0.2506 -1.7199
    6CHL1  H23B  431   6.808   2.588   5.354  1.3733 -1.3026 -2.6975
    6CHL1   C24  432   6.874   2.671   5.178  0.2937 -0.2931 -0.6030
    6CHL1  H24A  433   6.821   2.598   5.113  2.4747  1.7971 -5.2327
    6CHL1  H24B  434   6.882   2.767   5.123 -0.9343  1.3887  1.9503
    6CHL1   C25  435   7.026   2.640   5.188 -0.2528 -0.0622  0.1783
    6CHL1   H25  436   7.077   2.725   5.238  1.3252 -0.9646  0.1687
    6CHL1   C26  437   7.057   2.511   5.269  0.1383  1.4651 -0.5940
    6CHL1  H26A  438   7.027   2.416   5.218  0.4763  0.0210  1.7339
    6CHL1  H26B  439   7.168   2.509   5.277  0.1544  0.2036 -0.8789
    6CHL1  H26C  440   7.017   2.518   5.373 -0.1519  1.0637 -0.6753
    6CHL1   C27  441   7.099   2.642   5.050 -0.8141  0.0474 -0.5341
    6CHL1  H27A  442   7.065   2.547   5.002 -0.2010 -0.1956 -0.5026
    6CHL1  H27B  443   7.067   2.729   4.990  0.0814 -0.0445 -1.1664
    6CHL1  H27C  444   7.207   2.658   5.071 -0.9808  2.7401 -1.4101
    7CHL1    C3  445   5.727   2.250   6.957 -0.4976  0.3643 -0.5890
    7CHL1    H3  446   5.634   2.309   6.942  0.3668  1.3008 -2.7904
    7CHL1    O3  447   5.771   2.264   7.097  0.4212  0.0118  0.1940
    7CHL1   H3'  448   5.710   2.204   7.141  1.5482 -1.1692  0.2228
    7CHL1    C4  449   5.711   2.102   6.906 -0.6400  0.1380 -0.8323
    7CHL1   H4A  450   5.801   2.046   6.941 -1.1861 -1.0018 -1.2020
    7CHL1   H4B  451   5.626   2.058   6.964 -2.2102  0.8941 -2.4644
    7CHL1    C5  452   5.688   2.093   6.760  0.2963  0.5057 -0.1833
    7CHL1    C6  453   5.585   2.020   6.706  0.1817  1.2771 -0.6607
    7CHL1    H6  454   5.533   1.963   6.784  3.9490 -2.3686 -0.4745
    7CHL1    C7  455   5.563   2.002   6.557 -0.0431  0.6785 -0.6210
    7CHL1   H7A  456   5.554   1.893   6.537 -2.1465  0.2069  2.1935
    7CHL1   H7B  457   5.470   2.057   6.531 -1.8068 -1.4850  0.7398
    7CHL1    C8  458   5.674   2.060   6.468 -0.0123  0.3388 -0.3545
    7CHL1    H8  459   5.762   1.993   6.465 -0.7442 -0.6414 -0.4231
    7CHL1   C14  460   5.618   2.085   6.324  0.2294 -0.4396 -0.2464
    7CHL1   H14  461   5.540   2.163   6.333 -0.6898 -1.4286  0.7888
    7CHL1   C15  462   5.554   1.966   6.260  0.5655 -0.1766 -0.9389
    7CHL1  H15A  463   5.600   1.867   6.283 -1.3006 -0.3733  2.7876
    7CHL1  H15B  464   5.453   1.964   6.306  1.1777  0.9428  0.5252
    7CHL1   C16  465   5.558   1.994   6.112 -0.4660  0.0875  0.6833
    7CHL1  H16A  466   5.620   1.920   6.057  0.5875  1.1633  0.3684
    7CHL1  H16B  467   5.460   1.997   6.059 -0.3585 -1.7743  0.2989
    7CHL1   C17  468   5.635   2.131   6.095 -0.1273  0.7297  0.6418
    7CHL1   H17  469   5.551   2.204   6.103  0.9066  1.9708  0.5684
    7CHL1   C13  470   5.719   2.147   6.224  0.5068 -0.0038 -0.3493
    7CHL1   C18  471   5.840   2.051   6.220  0.1256 -0.5041 -0.1406
    7CHL1  H18A  472   5.804   1.949   6.197 -2.2033  0.2265 -0.0455
    7CHL1  H18B  473   5.911   2.083   6.142  0.3119  0.8267  0.5434
    7CHL1  H18C  474   5.900   2.056   6.314  0.5307 -1.7544 -0.3231
    7CHL1   C12  475   5.757   2.281   6.281  0.4679 -0.6229 -0.2157
    7CHL1  H12A  476   5.840   2.334   6.231  0.8475 -1.3969 -0.4211
    7CHL1  H12B  477   5.666   2.345   6.284  0.3079 -0.8364  2.4719
    7CHL1   C11  478   5.812   2.273   6.424  0.0289 -0.1217 -0.7768
    7CHL1  H11A  479   5.909   2.218   6.423 -0.7899 -1.6096 -1.7410
    7CHL1  H11B  480   5.826   2.376   6.463  0.5141 -0.2995 -0.4770
    7CHL1    C9  481   5.722   2.196   6.528  0.7033  0.1543 -0.0695
    7CHL1    H9  482   5.636   2.265   6.542 -0.4868 -1.1734 -0.5730
    7CHL1   C10  483   5.781   2.182   6.669  0.4237 -0.2450  0.8278
    7CHL1   C19  484   5.922   2.117   6.653 -0.3085 -0.2243  0.8300
    7CHL1  H19A  485   5.931   2.027   6.589 -0.2246  1.8576 -2.3088
    7CHL1  H19B  486   6.004   2.189   6.636 -2.5860  3.2173  3.1563
    7CHL1  H19C  487   5.947   2.080   6.755  0.1358  0.1251  0.8498
    7CHL1    C1  488   5.796   2.327   6.724 -0.1692  0.0255  0.4072
    7CHL1   H1A  489   5.876   2.376   6.665 -0.3425  0.6929  0.7154
    7CHL1   H1B  490   5.705   2.391   6.717  0.0879  0.3938  0.3573
    7CHL1    C2  491   5.834   2.326   6.872 -1.0103  0.2628 -0.2253
    7CHL1   H2A  492   5.852   2.424   6.920  2.6776 -0.7828  0.8816
    7CHL1   H2B  493   5.931   2.275   6.890  0.0983  2.0964 -0.7569
    7CHL1   C20  494   5.708   2.150   5.956 -0.1246 -0.0281 -0.2468
    7CHL1   H20  495   5.802   2.093   5.970  0.7600  1.6619  1.1167
    7CHL1   C21  496   5.742   2.301   5.938  0.0019  0.8098 -0.2573
    7CHL1  H21A  497   5.807   2.334   6.022  3.9613  0.7997 -3.0386
    7CHL1  H21B  498   5.647   2.358   5.936 -0.8806 -0.6191 -0.3265
    7CHL1  H21C  499   5.792   2.323   5.841  2.4538  1.0127  0.9758
    7CHL1   C22  500   5.636   2.103   5.828 -0.3270 -0.3287 -0.4561
    7CHL1  H22A  501   5.635   1.993   5.843 -0.9958 -0.3027 -0.2458
    7CHL1  H22B  502   5.541   2.161   5.819 -1.4819 -2.2097 -0.7766
    7CHL1   C23  503   5.717   2.116   5.695 -0.0201  0.1641  0.4628
    7CHL1  H23A  504   5.710   2.220   5.655 -0.8403  0.5275  1.5044
    7CHL1  H23B  505   5.819   2.077   5.714 -0.1391  0.5711  2.0469
    7CHL1   C24  506   5.661   2.019   5.591  0.2648  0.8142 -0.2638
    7CHL1  H24A  507   5.664   1.913   5.626 -0.2120  0.1959 -1.9723
    7CHL1  H24B  508   5.556   2.045   5.567  0.3178  1.4060  0.1214
    7CHL1   C25  509   5.731   2.004   5.457  0.6750 -0.2470 -0.2499
    7CHL1   H25  510   5.740   2.110   5.424  1.5401  0.2063  1.3384
    7CHL1   C26  511   5.867   1.931   5.467 -0.4689  0.7057  0.6639
    7CHL1  H26A  512   5.853   1.834   5.518  0.0288  0.1727 -0.1992
    7CHL1  H26B  513   5.914   1.912   5.368 -0.3360  0.0007  0.8588
    7CHL1  H26C  514   5.935   1.999   5.522  0.4610 -0.4869  1.0172
    7CHL1   C27  515   5.641   1.926   5.364 -0.0007  0.3262  0.7545
    7CHL1  H27A  516   5.702   1.911   5.272  0.5703 -0.6309  1.2704
    7CHL1  H27B  517   5.625   1.821   5.396 -1.9807  1.0355  2.2630
    7CHL1  H27C  518   5.543   1.971   5.338  0.3260 -0.9526 -3.4465
    8CHL1    C3  519   3.768   4.272   6.310 -0.3194 -0.0436 -0.5853
    8CHL1    H3  520   3.867   4.235   6.276  0.0296 -0.6117  0.9713
    8CHL1    O3  521   3.739   4.227   6.433 -0.2855  0.4613  0.1753
    8CHL1   H3'  522   3.652   4.264   6.449 -1.7467 -1.9821 -1.5228
    8CHL1    C4  523   3.775   4.422   6.313  0.6806 -0.0156  0.3981
    8CHL1   H4A  524   3.678   4.462   6.350  0.6742  1.9176 -1.5149
    8CHL1   H4B  525   3.856   4.455   6.382  1.2076 -2.3178  0.9904
    8CHL1    C5  526   3.787   4.479   6.174 -1.1177  0.8110 -0.0734
    8CHL1    C6  527   3.893   4.552   6.150  0.0422 -0.2677  0.6094
    8CHL1    H6  528   3.971   4.572   6.225  1.6905  2.4548 -1.6363
    8CHL1    C7  529   3.927   4.605   6.013 -0.1057 -0.1376 -0.0987
    8CHL1   H7A  530   3.976   4.705   6.017 -0.0315 -0.0486 -2.1524
    8CHL1   H7B  531   3.995   4.532   5.964 -1.8099 -1.2591 -0.8793
    8CHL1    C8  532   3.802   4.610   5.927  0.3445  0.3858 -0.2412
    8CHL1    H8  533   3.744   4.692   5.975 -0.4059 -0.9895  1.3206
    8CHL1   C14  534   3.839   4.634   5.782  1.0620  0.0859  0.0100
    8CHL1   H14  535   3.903   4.552   5.742  2.5343  0.7861  0.8630
    8CHL1   C15  536   3.927   4.756   5.751 -0.2512  0.0496  0.3140
    8CHL1  H15A  537   3.880   4.847   5.794 -4.5894 -1.7497 -0.1403
    8CHL1  H15B  538   4.032   4.742   5.784  0.4283  2.1967 -0.7241
    8CHL1   C16  539   3.918   4.765   5.595  0.6602 -0.0113 -0.2819
    8CHL1  H16A  540   3.926   4.874   5.575 -0.6306  0.8073  3.0468
    8CHL1  H16B  541   4.010   4.718   5.554  1.2239  1.8504 -1.2790
    8CHL1   C17  542   3.803   4.676   5.549 -0.5284  0.3604  0.1398
    8CHL1   H17  543   3.852   4.588   5.503  1.6552  0.6561  1.7153
    8CHL1   C13  544   3.726   4.636   5.675 -0.3543  0.0526  0.1896
    8CHL1   C18  545   3.634   4.754   5.721  0.0343  0.3896 -0.5434
    8CHL1  H18A  546   3.587   4.725   5.818  1.0634 -0.8766 -0.3960
    8CHL1  H18B  547   3.693   4.848   5.729  0.5746 -0.0670  1.6138
    8CHL1  H18C  548   3.546   4.762   5.654 -0.6969 -2.2799 -0.0083
    8CHL1   C12  549   3.658   4.500   5.683  0.3785  0.4643  0.1978
    8CHL1  H12A  550   3.571   4.512   5.615 -0.7320  1.3040  1.7078
    8CHL1  H12B  551   3.723   4.423   5.637 -0.7938 -1.6186  1.8815
    8CHL1   C11  552   3.615   4.469   5.828  0.3615 -0.6793  0.4308
    8CHL1  H11A  553   3.531   4.536   5.856 -0.9041 -2.2762  0.6170
    8CHL1  H11B  554   3.571   4.367   5.835  1.6914 -1.2567  0.7495
    8CHL1    C9  555   3.727   4.479   5.932 -0.3522  0.3694 -0.0024
    8CHL1    H9  556   3.802   4.406   5.894  0.3326 -0.2186  2.2729
    8CHL1   C10  557   3.684   4.437   6.077  0.3214  0.9836  0.3341
    8CHL1   C19  558   3.543   4.504   6.110 -0.0902 -0.8851 -0.2377
    8CHL1  H19A  559   3.514   4.487   6.216 -0.2423 -0.5249 -0.2194
    8CHL1  H19B  560   3.542   4.614   6.099 -2.0952 -0.6872  1.2885
    8CHL1  H19C  561   3.463   4.462   6.044 -1.1224  0.7935 -0.1136
    8CHL1    C1  562   3.679   4.281   6.077 -0.1417  0.4793  0.0739
    8CHL1   H1A  563   3.593   4.247   6.016  0.8635  0.8164 -1.5882
    8CHL1   H1B  564   3.765   4.231   6.027  1.7175  0.5496  2.9601
    8CHL1    C2  565   3.660   4.220   6.216 -0.6110  0.3451  0.0454
    8CHL1   H2A  566   3.657   4.109   6.216 -0.5857  0.2737  2.5154
    8CHL1   H2B  567   3.563   4.262   6.250 -1.6533 -1.6917 -0.2132
    8CHL1   C20  568   3.729   4.745   5.431 -0.7117 -0.3794  0.0810
    8CHL1   H20  569   3.695   4.842   5.473  1.2301 -1.0400  3.5445
    8CHL1   C21  570   3.612   4.653   5.382 -0.3850 -0.7081 -0.2989
    8CHL1  H21A  571   3.564   4.686   5.287  0.0203 -1.7617 -0.8811
    8CHL1  H21B  572   3.530   4.650   5.457 -0.9844 -0.2375 -0.9241
    8CHL1  H21C  573   3.653   4.551   5.371  0.8930 -0.3441  0.7333
    8CHL1   C22  574   3.825   4.773   5.314 -0.1539 -0.2805  0.4069
    8CHL1  H22A  575   3.913   4.827   5.356 -0.8761  0.6672  0.7308
    8CHL1  H22B  576   3.860   4.682   5.262  1.1457  0.6035 -0.3232
    8CHL1   C23  577   3.753   4.873   5.211 -0.8266 -0.0989 -0.2135
    8CHL1  H23A  578   3.650   4.839   5.187 -0.2045 -1.1594 -1.4883
    8CHL1  H23B  579   3.741   4.969   5.266 -0.5348  0.6090 -1.3619
    8CHL1   C24  580   3.832   4.910   5.085  0.4778 -0.4167  0.6888
    8CHL1  H24A  581   3.919   4.972   5.116  0.7490 -0.5656  0.2295
    8CHL1  H24B  582   3.888   4.823   5.046  0.2821  0.2725 -1.2342
    8CHL1   C25  583   3.752   4.982   4.977 -1.1705 -0.7489 -0.5900
    8CHL1   H25  584   3.719   5.086   5.001 -0.9386 -0.0061 -3.1739
    8CHL1   C26  585   3.848   5.007   4.860 -0.0708 -0.1930 -0.3969
    8CHL1  H26A  586   3.883   4.911   4.815 -1.5483  0.0557 -2.2228
    8CHL1  H26B  587   3.814   5.079   4.783  0.3398 -1.1521 -1.5083
    8CHL1  H26C  588   3.938   5.060   4.896 -0.3580  1.0519 -1.4407
    8CHL1   C27  589   3.632   4.904   4.947 -0.3831  0.9431 -0.2324
    8CHL1  H27A  590   3.659   4.800   4.920  1.3050  1.8552 -2.3398
    8CHL1  H27B  591   3.554   4.900   5.027 -0.5891  0.3291 -0.4572
    8CHL1  H27C  592   3.574   4.935   4.857 -1.5541 -1.3358 -0.3437
    9CHL1    C3  593   6.802   2.762   6.512 -0.0384 -0.7958 -0.3336
    9CHL1    H3  594   6.707   2.792   6.462  0.4494 -0.4952 -1.1115
    9CHL1    O3  595   6.780   2.746   6.648 -0.0513 -0.1439 -0.0177
    9CHL1   H3'  596   6.866   2.737   6.690  0.1421 -2.2743 -0.7506
    9CHL1    C4  597   6.846   2.639   6.438 -0.1991  0.0479 -0.2751
    9CHL1   H4A  598   6.929   2.587   6.491  0.1937 -1.3210 -2.1386
    9CHL1   H4B  599   6.758   2.572   6.445  1.5858 -2.3849  0.1499
    9CHL1    C5  600   6.888   2.669   6.292 -0.2326 -0.3586 -0.7912
    9CHL1    C6  601   6.832   2.608   6.192  0.3631 -0.0828 -0.6633
    9CHL1    H6  602   6.756   2.531   6.213 -0.3676  0.1264 -2.3377
    9CHL1    C7  603   6.868   2.615   6.051  0.2435  0.3840 -0.8745
    9CHL1   H7A  604   6.899   2.520   6.002 -1.0843 -0.7474  0.3775
    9CHL1   H7B  605   6.776   2.641   5.995 -0.2297 -2.5770 -1.6432
    9CHL1    C8  606   6.998   2.707   6.026 -0.2975  0.1325  0.0344
    9CHL1    H8  607   7.082   2.638   6.047  0.9071  1.3758 -0.5772
    9CHL1   C14  608   7.010   2.756   5.886 -0.0973 -0.2484 -0.0327
    9CHL1   H14  609   6.923   2.824   5.880  1.2927  1.6750  0.6990
    9CHL1   C15  610   6.999   2.658   5.770  0.0871 -0.2229 -0.2269
    9CHL1  H15A  611   7.059   2.567   5.790 -1.0511 -0.8200  0.5733
    9CHL1  H15B  612   6.896   2.623   5.749 -1.3044  3.7150 -0.8626
    9CHL1   C16  613   7.049   2.739   5.645 -0.2424 -0.3066 -0.4078
    9CHL1  H16A  614   7.118   2.679   5.582  3.1114  1.7908  0.9549
    9CHL1  H16B  615   6.956   2.779   5.599 -0.4339  1.5959  1.4555
    9CHL1   C17  616   7.115   2.866   5.707  0.0950 -0.7653 -0.3906
    9CHL1   H17  617   7.038   2.946   5.711  0.8680 -0.0571  2.1644
    9CHL1   C13  618   7.140   2.841   5.853  0.4020 -0.6064  0.3410
    9CHL1   C18  619   7.271   2.764   5.873 -0.8263  0.3856  0.1035
    9CHL1  H18A  620   7.283   2.716   5.972 -0.5516 -2.1371 -1.0617
    9CHL1  H18B  621   7.270   2.677   5.803  2.2115 -1.1826  1.8334
    9CHL1  H18C  622   7.363   2.820   5.847  0.5766 -2.0408 -0.4437
    9CHL1   C12  623   7.130   2.963   5.947 -0.1234  0.6673 -0.3179
    9CHL1  H12A  624   7.197   3.048   5.922 -0.9939  0.8836 -2.1306
    9CHL1  H12B  625   7.032   3.005   5.913 -2.2424 -2.7079  1.0903
    9CHL1   C11  626   7.116   2.931   6.095  0.0763 -0.1327  0.1427
    9CHL1  H11A  627   7.217   2.891   6.117  0.2017 -0.6936 -1.3856
    9CHL1  H11B  628   7.096   3.019   6.160  0.0148 -0.9546  1.2577
    9CHL1    C9  629   7.004   2.827   6.119  0.8297 -0.4044  0.1072
    9CHL1    H9  630   6.909   2.881   6.100  1.0074 -0.1609 -0.1078
    9CHL1   C10  631   6.998   2.779   6.269  0.6224  0.0228 -0.1435
    9CHL1   C19  632   7.141   2.734   6.315  0.0617  0.2064 -0.7153
    9CHL1  H19A  633   7.137   2.677   6.410  0.5957 -1.1205 -1.4684
    9CHL1  H19B  634   7.201   2.677   6.240  2.3159 -1.1756  1.9634
    9CHL1  H19C  635   7.200   2.820   6.353  1.9236 -1.3428  0.0811
    9CHL1    C1  636   6.949   2.902   6.355 -0.1229 -0.2898  0.1433
    9CHL1   H1A  637   7.026   2.982   6.354  0.4318 -0.8216  0.0049
    9CHL1   H1B  638   6.860   2.939   6.300  0.0770  0.1833  0.1297
    9CHL1    C2  639   6.906   2.875   6.496  0.0653  0.4983 -0.1028
    9CHL1   H2A  640   6.876   2.973   6.539 -0.3092  0.2956  0.1078
    9CHL1   H2B  641   6.995   2.847   6.556 -1.8407  1.9165  3.7412
    9CHL1   C20  642   7.229   2.931   5.619  0.4068  0.0483 -0.6543
    9CHL1   H20  643   7.307   2.853   5.603  1.0251  0.4247  0.4200
    9CHL1   C21  644   7.294   3.052   5.680 -0.7734 -0.4681  0.4456
    9CHL1  H21A  645   7.383   3.083   5.621 -0.6743  0.1884  0.9261
    9CHL1  H21B  646   7.340   3.029   5.778 -0.1884 -1.6949 -0.0978
    9CHL1  H21C  647   7.225   3.139   5.685 -0.4540 -0.1767 -0.1734
    9CHL1   C22  648   7.177   2.960   5.478  0.2576  0.7508 -0.9425
    9CHL1  H22A  649   7.132   2.865   5.441  1.8467 -1.0462  1.4300
    9CHL1  H22B  650   7.096   3.035   5.483  0.1066  0.5094  0.9177
    9CHL1   C23  651   7.275   3.010   5.375 -0.3802  0.0528 -0.1825
    9CHL1  H23A  652   7.218   3.039   5.284  0.5290  1.9177 -0.2068
    9CHL1  H23B  653   7.312   3.105   5.420  1.3074 -0.0481 -1.2480
    9CHL1   C24  654   7.388   2.911   5.330  0.4727 -0.2642 -0.5863
    9CHL1  H24A  655   7.442   2.866   5.415 -1.1771 -2.0173 -0.4090
    9CHL1  H24B  656   7.335   2.827   5.280  0.5042  0.4501 -1.8950
    9CHL1   C25  657   7.493   2.976   5.235  0.7267  0.8013  0.9001
    9CHL1   H25  658   7.553   3.058   5.281  1.0008  2.0809 -1.6035
    9CHL1   C26  659   7.576   2.857   5.182 -0.1154 -0.0835 -0.5452
    9CHL1  H26A  660   7.652   2.815   5.252  0.7585 -0.6482 -1.7898
    9CHL1  H26B  661   7.514   2.767   5.163 -0.4312 -0.4636  1.9041
    9CHL1  H26C  662   7.633   2.881   5.090  0.1905 -0.2631 -0.4032
    9CHL1   C27  663   7.422   3.053   5.117  0.4712  0.2682  0.1060
    9CHL1  H27A  664   7.375   3.147   5.152 -0.0725  0.9657 -2.2642
    9CHL1  H27B  665   7.496   3.082   5.039  2.6753 -1.6604  1.3747
    9CHL1  H27C  666   7.339   2.985   5.087 -2.4589  1.8630  3.8820
   10CHL1    C3  667   6.266   5.329   6.290  0.9393  0.4487 -0.2626
   10CHL1    H3  668   6.203   5.408   6.243  0.0884  0.9969  1.7161
   10CHL1    O3  669   6.264   5.351   6.427  0.3114  0.0319 -0.4553
   10CHL1   H3'  670   6.301   5.438   6.438 -3.6750  2.0078 -1.0357
   10CHL1    C4  671   6.209   5.190   6.265 -0.0941  0.3471  0.6629
   10CHL1   H4A  672   6.280   5.126   6.322 -0.1162 -0.0159  0.2842
   10CHL1   H4B  673   6.112   5.185   6.318 -0.2835  2.6723  0.6495
   10CHL1    C5  674   6.216   5.144   6.123  0.5782  0.1679 -0.1535
   10CHL1    C6  675   6.105   5.095   6.058 -0.3088 -0.5571 -0.1605
   10CHL1    H6  676   6.008   5.094   6.109  0.2005 -1.2972  0.8163
   10CHL1    C7  677   6.105   5.049   5.913  0.0286 -0.4740  0.2056
   10CHL1   H7A  678   6.063   4.946   5.914 -0.1225 -0.4346 -1.0609
   10CHL1   H7B  679   6.040   5.113   5.850 -0.0887 -0.6491  0.1493
   10CHL1    C8  680   6.246   5.029   5.857  0.7479  0.9919  0.1309
   10CHL1    H8  681   6.281   4.929   5.891 -1.7465  0.4202  1.2648
   10CHL1   C14  682   6.241   5.023   5.704 -0.7248 -0.3022  0.2797
   10CHL1   H14  683   6.204   5.124   5.676  1.6562  1.0941  1.8139
   10CHL1   C15  684   6.150   4.915   5.649 -0.2597  0.8903 -0.2450
   10CHL1  H15A  685   6.153   4.814   5.694 -1.3484  0.3112 -1.4286
   10CHL1  H15B  686   6.046   4.953   5.646 -0.7432 -0.3514  0.3129
   10CHL1   C16  687   6.199   4.900   5.504  0.8589  0.4465  0.3746
   10CHL1  H16A  688   6.222   4.792   5.494  0.9247  0.6108 -1.7307
   10CHL1  H16B  689   6.110   4.919   5.441  1.2361 -1.7782 -0.9373
   10CHL1   C17  690   6.315   4.989   5.481 -0.0239  0.3996  0.5458
   10CHL1   H17  691   6.284   5.088   5.441 -4.1894 -1.4799 -1.5100
   10CHL1   C13  692   6.371   5.006   5.629 -0.4009  1.0352 -0.1971
   10CHL1   C18  693   6.447   4.871   5.668 -0.0367 -0.2338  0.2550
   10CHL1  H18A  694   6.551   4.868   5.629 -0.2268  0.4364 -0.3174
   10CHL1  H18B  695   6.472   4.880   5.776 -1.3744  0.2805  0.5504
   10CHL1  H18C  696   6.395   4.776   5.642  1.3989 -0.8183 -0.5659
   10CHL1   C12  697   6.456   5.129   5.658  0.3210 -0.0190 -0.0602
   10CHL1  H12A  698   6.559   5.118   5.619 -0.0633  0.2265 -1.1586
   10CHL1  H12B  699   6.416   5.223   5.616  1.5683  1.9458  2.8044
   10CHL1   C11  700   6.471   5.154   5.808  0.5907 -0.1325 -0.9150
   10CHL1  H11A  701   6.557   5.102   5.854 -0.3289 -1.6968 -0.9006
   10CHL1  H11B  702   6.505   5.259   5.826  0.8098 -0.0462 -1.7801
   10CHL1    C9  703   6.342   5.140   5.901  0.1232  0.3831  0.1980
   10CHL1    H9  704   6.290   5.232   5.866  2.7812  1.4702 -1.1934
   10CHL1   C10  705   6.355   5.152   6.050 -0.6192 -0.4219  0.0175
   10CHL1   C19  706   6.442   5.034   6.095 -0.0901 -0.8347 -0.0341
   10CHL1  H19A  707   6.539   5.028   6.041  0.1996 -1.2533  0.5234
   10CHL1  H19B  708   6.474   5.044   6.201 -2.3668 -1.7889  0.8220
   10CHL1  H19C  709   6.381   4.943   6.076  0.2230 -0.7596 -1.5279
   10CHL1    C1  710   6.407   5.294   6.084 -1.0352 -0.4246  0.0546
   10CHL1   H1A  711   6.512   5.300   6.048 -0.1407 -2.1369  2.2039
   10CHL1   H1B  712   6.346   5.371   6.031  0.3682  0.5482 -0.2160
   10CHL1    C2  713   6.411   5.328   6.238  0.2424 -0.3375  0.2716
   10CHL1   H2A  714   6.467   5.420   6.266  1.0818 -0.5011 -0.7680
   10CHL1   H2B  715   6.450   5.244   6.299 -0.1962 -0.9907 -0.3304
   10CHL1   C20  716   6.412   4.925   5.375 -0.1249 -0.2527 -1.0835
   10CHL1   H20  717   6.453   4.832   5.421 -0.2173  1.5187  3.0877
   10CHL1   C21  718   6.520   5.034   5.340  0.5556  0.1732  0.5964
   10CHL1  H21A  719   6.600   4.975   5.290 -0.4597 -0.3172 -0.5040
   10CHL1  H21B  720   6.563   5.102   5.417 -2.1499  2.0254  0.5924
   10CHL1  H21C  721   6.481   5.099   5.260  0.0055  0.2684  0.9381
   10CHL1   C22  722   6.346   4.878   5.251  0.5903 -0.4166 -0.1133
   10CHL1  H22A  723   6.271   4.800   5.277 -1.8989  0.9678 -2.6027
   10CHL1  H22B  724   6.285   4.964   5.214  1.4382  0.4884  0.5435
   10CHL1   C23  725   6.433   4.823   5.145  0.0869 -0.3504  0.5058
   10CHL1  H23A  726   6.470   4.897   5.071  3.2944  0.5908  2.8158
   10CHL1  H23B  727   6.523   4.759   5.161 -0.1866 -0.9754 -0.3724
   10CHL1   C24  728   6.340   4.739   5.054 -0.2759  0.3292 -0.2572
   10CHL1  H24A  729   6.285   4.668   5.119 -0.7167  1.5241  0.7104
   10CHL1  H24B  730   6.266   4.810   5.013  0.2039  1.0883  0.1735
   10CHL1   C25  731   6.407   4.667   4.941  0.2383 -1.2377 -0.4903
   10CHL1   H25  732   6.454   4.739   4.870 -0.0928  0.3824  0.8680
   10CHL1   C26  733   6.516   4.571   4.984 -0.7487 -0.6768 -0.1485
   10CHL1  H26A  734   6.548   4.520   4.890 -1.2619  1.5261 -1.5958
   10CHL1  H26B  735   6.602   4.633   5.018 -2.1144  0.2212  1.8816
   10CHL1  H26C  736   6.490   4.504   5.069  0.7729 -0.2282  0.7153
   10CHL1   C27  737   6.306   4.582   4.869 -0.2477  0.1255  0.3758
   10CHL1  H27A  738   6.291   4.492   4.932 -1.6460  0.1091  0.0354
   10CHL1  H27B  739   6.214   4.635   4.838  0.3641  0.0271 -1.8470
   10CHL1  H27C  740   6.350   4.541   4.775 -2.1522 -2.3077  0.4560
   11CHL1    C3  741   4.507   3.149   6.230  0.5057 -0.5292  0.2027
   11CHL1    H3  742   4.448   3.238   6.201 -0.9850 -1.6090 -0.1896
   11CHL1    O3  743   4.523   3.140   6.371 -0.0647 -0.2576  0.2606
   11CHL1   H3'  744   4.435   3.169   6.397  0.1403  0.2976  0.3431
   11CHL1    C4  745   4.439   3.021   6.179  0.3226  0.0418  0.1531
   11CHL1   H4A  746   4.494   2.940   6.231  2.7783  0.5806 -1.4354
   11CHL1   H4B  747   4.335   3.015   6.216 -0.4843 -0.1632 -2.0158
   11CHL1    C5  748   4.432   3.013   6.027 -0.1691 -0.3363  0.0217
   11CHL1    C6  749   4.313   2.994   5.965 -0.0402  0.0889  0.3232
   11CHL1    H6  750   4.223   2.971   6.024 -1.1533 -1.3775 -1.8181
   11CHL1    C7  751   4.301   2.982   5.818 -0.4954 -0.2566 -0.4234
   11CHL1   H7A  752   4.248   2.888   5.789  0.0507 -0.6569 -0.1556
   11CHL1   H7B  753   4.249   3.071   5.778 -0.0356 -0.6765 -2.0416
   11CHL1    C8  754   4.440   2.980   5.735 -0.4173 -0.0581 -0.5811
   11CHL1    H8  755   4.473   2.874   5.732 -3.0635 -0.9774  0.1047
   11CHL1   C14  756   4.416   3.020   5.587  0.0908 -0.0543 -0.0381
   11CHL1   H14  757   4.391   3.128   5.587  0.0381 -0.0636 -0.5907
   11CHL1   C15  758   4.303   2.953   5.516  0.4537 -0.5717 -0.2620
   11CHL1  H15A  759   4.296   2.843   5.529 -0.3748 -0.4237  0.7123
   11CHL1  H15B  760   4.202   2.991   5.546  1.1080  2.9372 -1.9666
   11CHL1   C16  761   4.337   2.977   5.371 -0.7190 -0.1134 -0.6198
   11CHL1  H16A  762   4.353   2.881   5.319 -2.5571 -0.8597  0.1283
   11CHL1  H16B  763   4.269   3.053   5.326 -2.2008  1.4713  3.7516
   11CHL1   C17  764   4.482   3.043   5.366  0.8032 -0.2926 -0.3288
   11CHL1   H17  765   4.481   3.154   5.361  0.9113 -0.3230 -1.0291
   11CHL1   C13  766   4.543   3.008   5.502 -0.0879  0.3464  0.2356
   11CHL1   C18  767   4.598   2.867   5.504  0.2135 -1.1596 -0.2169
   11CHL1  H18A  768   4.687   2.869   5.437  0.3110  0.9771 -0.0845
   11CHL1  H18B  769   4.630   2.839   5.606  1.1012 -0.2701 -0.2364
   11CHL1  H18C  770   4.519   2.794   5.477 -2.6296  1.4279  0.6457
   11CHL1   C12  771   4.639   3.113   5.556  0.3212 -0.0479  0.2176
   11CHL1  H12A  772   4.740   3.096   5.514  0.6974  1.0291  0.6601
   11CHL1  H12B  773   4.610   3.215   5.523 -0.0557 -0.3676 -0.4575
   11CHL1   C11  774   4.665   3.094   5.711  0.4915  0.0133  1.2141
   11CHL1  H11A  775   4.725   3.000   5.717  1.2380  0.2980 -0.9548
   11CHL1  H11B  776   4.716   3.186   5.745 -0.0031  0.7138  0.1060
   11CHL1    C9  777   4.534   3.078   5.796  0.3723 -0.4869 -0.4981
   11CHL1    H9  778   4.486   3.178   5.800  1.9503  0.2691  0.8244
   11CHL1   C10  779   4.560   3.056   5.945 -0.1767  0.4123 -0.2783
   11CHL1   C19  780   4.657   2.930   5.956 -0.4707  0.0176 -0.0304
   11CHL1  H19A  781   4.658   2.906   6.064 -1.8300  1.1888  0.2697
   11CHL1  H19B  782   4.615   2.843   5.902  2.4304 -1.8041  0.4590
   11CHL1  H19C  783   4.762   2.956   5.930  0.4127 -4.4145 -1.7776
   11CHL1    C1  784   4.624   3.179   6.012  0.6143 -0.3221 -0.9314
   11CHL1   H1A  785   4.725   3.196   5.970  1.3350 -2.2301 -0.0919
   11CHL1   H1B  786   4.565   3.272   5.997  2.7419  1.6167  1.5894
   11CHL1    C2  787   4.648   3.179   6.162  0.7122 -0.4074  0.7929
   11CHL1   H2A  788   4.683   3.278   6.199 -0.7831  0.7195 -0.6511
   11CHL1   H2B  789   4.712   3.090   6.180 -0.0007 -1.2304 -0.6054
   11CHL1   C20  790   4.556   3.006   5.241 -0.0323 -0.3423  0.5238
   11CHL1   H20  791   4.599   2.904   5.251  2.4005  0.6708  1.0220
   11CHL1   C21  792   4.679   3.087   5.213 -0.2196  0.0563 -0.1322
   11CHL1  H21A  793   4.654   3.195   5.224  2.7184  0.6975  1.6094
   11CHL1  H21B  794   4.724   3.064   5.114 -2.0958 -1.9799 -0.5900
   11CHL1  H21C  795   4.764   3.067   5.282  1.0165  2.6866 -0.7417
   11CHL1   C22  796   4.469   3.007   5.115 -0.3288  0.3832 -0.7726
   11CHL1  H22A  797   4.533   2.984   5.027  0.9402  0.3614  0.1249
   11CHL1  H22B  798   4.392   2.928   5.121  0.8111 -0.8139 -1.3760
   11CHL1   C23  799   4.410   3.141   5.076  0.1335  0.6059 -0.2456
   11CHL1  H23A  800   4.338   3.176   5.153 -1.7466 -0.2949 -1.5260
   11CHL1  H23B  801   4.491   3.217   5.070  1.0685 -0.1638  1.7446
   11CHL1   C24  802   4.326   3.140   4.942  0.0978 -0.2298 -1.0860
   11CHL1  H24A  803   4.327   3.034   4.908 -2.1044 -1.9239  3.3551
   11CHL1  H24B  804   4.221   3.171   4.961 -0.0220 -0.6734 -1.0215
   11CHL1   C25  805   4.375   3.231   4.830 -0.2052 -0.0529  0.9561
   11CHL1   H25  806   4.365   3.336   4.864  1.1177 -0.0953  1.5499
   11CHL1   C26  807   4.524   3.223   4.799 -0.6411  0.3694  1.3196
   11CHL1  H26A  808   4.556   3.285   4.713  0.2033  0.7836  1.9250
   11CHL1  H26B  809   4.591   3.260   4.878  2.4573  1.1205 -1.4499
   11CHL1  H26C  810   4.551   3.119   4.770 -0.9505  1.1960 -2.4110
   11CHL1   C27  811   4.292   3.204   4.707  0.0477 -0.3738  0.7163
   11CHL1  H27A  812   4.310   3.104   4.662 -1.9826 -0.0299 -1.0148
   11CHL1  H27B  813   4.185   3.221   4.728 -0.4182  0.9219 -2.1699
   11CHL1  H27C  814   4.317   3.275   4.625 -1.2334 -1.0633 -0.3023
   12CHL1    C3  815   4.715   2.212   6.468  0.4333 -0.5908  0.1287
   12CHL1    H3  816   4.825   2.205   6.461  0.4991 -1.0033  1.3175
   12CHL1    O3  817   4.675   2.246   6.602 -0.6743 -1.1895  0.2218
   12CHL1   H3'  818   4.606   2.308   6.581 -0.6166 -0.7164  1.3490
   12CHL1    C4  819   4.659   2.319   6.368  0.3050  1.1906  0.0231
   12CHL1   H4A  820   4.548   2.322   6.380  0.4656  1.5552  1.6777
   12CHL1   H4B  821   4.690   2.420   6.402  2.4120  0.3879  0.6629
   12CHL1    C5  822   4.701   2.285   6.229 -0.0509 -0.4377 -0.0333
   12CHL1    C6  823   4.769   2.363   6.148 -0.7412 -0.3745  0.5283
   12CHL1    H6  824   4.811   2.456   6.189 -0.4648 -1.2570  2.3918
   12CHL1    C7  825   4.801   2.341   6.002  0.8568  0.2331 -0.0151
   12CHL1   H7A  826   4.763   2.432   5.950 -0.4840 -1.5107 -2.2483
   12CHL1   H7B  827   4.907   2.323   5.975  1.1065  1.5229  0.0281
   12CHL1    C8  828   4.710   2.224   5.941 -0.5504 -0.0172 -0.0579
   12CHL1    H8  829   4.605   2.253   5.919 -0.4658 -0.4746 -1.0991
   12CHL1   C14  830   4.768   2.174   5.808  0.1153 -0.6441 -0.5931
   12CHL1   H14  831   4.859   2.120   5.842  0.5201  0.3736 -0.0133
   12CHL1   C15  832   4.792   2.277   5.692 -0.2756  1.0619 -0.5139
   12CHL1  H15A  833   4.710   2.349   5.710  0.5789  1.5571  1.8457
   12CHL1  H15B  834   4.889   2.330   5.689 -0.5045  1.4374 -1.9301
   12CHL1   C16  835   4.774   2.193   5.568  0.1538 -0.3058  0.1209
   12CHL1  H16A  836   4.681   2.228   5.519 -0.4649 -1.3717  0.5006
   12CHL1  H16B  837   4.862   2.204   5.501  0.3608  0.6000  0.5230
   12CHL1   C17  838   4.746   2.046   5.613  0.3594 -0.1845 -0.2205
   12CHL1   H17  839   4.843   1.999   5.641  0.8370  0.6193 -0.4732
   12CHL1   C13  840   4.680   2.064   5.746 -0.2971 -0.1864 -0.8249
   12CHL1   C18  841   4.528   2.117   5.732 -0.2226  0.4936  0.5490
   12CHL1  H18A  842   4.472   2.035   5.681 -0.1278  0.2663  0.8059
   12CHL1  H18B  843   4.478   2.121   5.831 -0.1038  2.7651  0.5556
   12CHL1  H18C  844   4.526   2.205   5.664  4.9259 -0.1191 -0.8758
   12CHL1   C12  845   4.692   1.941   5.838  0.4472  0.2127 -0.0029
   12CHL1  H12A  846   4.620   1.862   5.808  0.8885 -0.1593 -0.0913
   12CHL1  H12B  847   4.796   1.900   5.835  1.1849  1.9978 -0.1095
   12CHL1   C11  848   4.659   1.972   5.986 -0.3687  0.5661  0.0991
   12CHL1  H11A  849   4.548   1.976   5.981 -0.2578  2.2261 -2.9877
   12CHL1  H11B  850   4.693   1.891   6.055 -1.5951 -0.9642 -1.0346
   12CHL1    C9  851   4.712   2.109   6.046  0.5762 -0.1656 -0.0981
   12CHL1    H9  852   4.820   2.090   6.066  0.2478 -1.3341  0.6274
   12CHL1   C10  853   4.651   2.150   6.185 -0.4811 -0.2813  0.6935
   12CHL1   C19  854   4.499   2.146   6.156 -0.3630 -0.0076 -0.2027
   12CHL1  H19A  855   4.479   2.213   6.070  0.9173  0.5050 -0.1254
   12CHL1  H19B  856   4.467   2.042   6.136  1.7944 -0.6377 -0.7184
   12CHL1  H19C  857   4.435   2.185   6.238  2.1205  1.6878  1.0499
   12CHL1    C1  858   4.686   2.032   6.291  0.9781 -1.0251  0.9598
   12CHL1   H1A  859   4.639   1.935   6.263  0.2254 -0.5474  0.5251
   12CHL1   H1B  860   4.793   2.012   6.271  0.4950 -1.8826 -0.9955
   12CHL1    C2  861   4.659   2.068   6.434  0.0132 -0.3153 -0.4320
   12CHL1   H2A  862   4.696   1.998   6.513  0.7815  1.1048  0.5004
   12CHL1   H2B  863   4.549   2.072   6.452  0.2667 -0.7279  1.4691
   12CHL1   C20  864   4.677   1.947   5.511 -0.0784 -0.8359  0.3324
   12CHL1   H20  865   4.567   1.954   5.528 -0.2395 -0.5461 -0.7704
   12CHL1   C21  866   4.721   1.806   5.536  0.2243  0.5121  0.0376
   12CHL1  H21A  867   4.654   1.726   5.499  3.5409 -1.7972 -1.4625
   12CHL1  H21B  868   4.735   1.780   5.643  0.3105 -0.8050 -0.2717
   12CHL1  H21C  869   4.818   1.779   5.489 -0.1248 -1.7846  0.4875
   12CHL1   C22  870   4.699   1.989   5.369 -0.5103  0.1088  0.2103
   12CHL1  H22A  871   4.663   2.091   5.342 -1.3517 -1.0274 -3.7020
   12CHL1  H22B  872   4.805   1.978   5.337 -0.3116  0.2152  0.8281
   12CHL1   C23  873   4.613   1.905   5.267  0.1158 -0.5752  0.0495
   12CHL1  H23A  874   4.640   1.798   5.276  0.3810 -0.4497  0.8882
   12CHL1  H23B  875   4.508   1.911   5.303  0.0638 -2.3167  0.2949
   12CHL1   C24  876   4.614   1.950   5.118 -0.5671  0.3619 -0.2333
   12CHL1  H24A  877   4.542   2.033   5.106 -1.4200 -0.0536  1.6340
   12CHL1  H24B  878   4.720   1.967   5.088 -0.3846  1.2817  0.8839
   12CHL1   C25  879   4.560   1.842   5.025  0.3860 -0.3935  0.4161
   12CHL1   H25  880   4.628   1.755   5.018 -0.3700 -1.1298  1.7139
   12CHL1   C26  881   4.421   1.792   5.074 -1.0330 -0.5027 -0.4337
   12CHL1  H26A  882   4.359   1.884   5.085  2.3477  2.0529 -1.0134
   12CHL1  H26B  883   4.378   1.730   4.993 -0.5198  1.5161 -2.3414
   12CHL1  H26C  884   4.423   1.741   5.173 -1.1190 -0.5501 -0.4559
   12CHL1   C27  885   4.528   1.900   4.882 -0.1570 -0.5439  0.3253
   12CHL1  H27A  886   4.624   1.939   4.843  1.0567 -0.8935  2.7627
   12CHL1  H27B  887   4.503   1.815   4.815  2.5859  1.5396 -3.8122
   12CHL1  H27C  888   4.457   1.985   4.891 -1.1669 -1.3905  0.4666
   13CHL1    C3  889   4.904   1.672   6.824 -0.0065  0.8080  0.3258
   13CHL1    H3  890   4.953   1.770   6.803 -1.2018  1.3561  0.0176
   13CHL1    O3  891   4.876   1.669   6.961 -0.7085 -0.0865 -0.2502
   13CHL1   H3'  892   4.830   1.587   6.977  1.7855 -1.1053  2.8618
   13CHL1    C4  893   4.776   1.651   6.750  0.3703  0.0121 -0.1890
   13CHL1   H4A  894   4.732   1.554   6.779 -0.8986  0.3984 -0.7403
   13CHL1   H4B  895   4.708   1.731   6.785  1.5916  1.5752 -1.2386
   13CHL1    C5  896   4.793   1.640   6.599 -0.4282  0.4007 -0.5880
   13CHL1    C6  897   4.707   1.708   6.518 -0.4164 -0.2144 -0.0078
   13CHL1    H6  898   4.621   1.758   6.563  0.6121  2.0803 -0.4713
   13CHL1    C7  899   4.709   1.685   6.364 -0.0857  0.3599  0.0970
   13CHL1   H7A  900   4.608   1.670   6.320 -0.3052 -0.1862  0.7723
   13CHL1   H7B  901   4.748   1.779   6.321  0.9126 -0.3354 -0.5767
   13CHL1    C8  902   4.806   1.574   6.313  0.0878 -0.3931  0.0626
   13CHL1    H8  903   4.744   1.485   6.342  0.9166 -0.1476  2.9333
   13CHL1   C14  904   4.836   1.578   6.165  0.7084 -0.2084  0.8174
   13CHL1   H14  905   4.881   1.674   6.131 -0.8403  0.8146  1.5328
   13CHL1   C15  906   4.708   1.568   6.075  0.4508  0.5136 -0.4155
   13CHL1  H15A  907   4.636   1.504   6.129  2.5026 -0.8755  0.7961
   13CHL1  H15B  908   4.660   1.668   6.068 -1.5868 -0.4848 -1.7089
   13CHL1   C16  909   4.757   1.508   5.945 -0.9647  0.2343  0.1610
   13CHL1  H16A  910   4.710   1.408   5.932  1.5235 -1.2390  1.6662
   13CHL1  H16B  911   4.732   1.573   5.859  0.5421  2.6695  1.4431
   13CHL1   C17  912   4.911   1.476   5.962  1.6729  0.3867 -0.5471
   13CHL1   H17  913   4.963   1.572   5.942 -1.1119  1.7116 -1.9948
   13CHL1   C13  914   4.923   1.462   6.118 -0.0906 -0.0772 -0.4683
   13CHL1   C18  915   4.868   1.324   6.160 -0.2461  1.0169  0.8108
   13CHL1  H18A  916   4.940   1.244   6.131  1.3598  1.8610  2.2631
   13CHL1  H18B  917   4.849   1.310   6.269 -0.8542 -0.9792  0.4815
   13CHL1  H18C  918   4.771   1.303   6.112  0.6273  0.4413 -0.7788
   13CHL1   C12  919   5.060   1.481   6.180 -0.4997 -0.1753 -0.4339
   13CHL1  H12A  920   5.135   1.401   6.162 -0.5756 -0.1314 -0.9876
   13CHL1  H12B  921   5.112   1.570   6.138  3.1198 -1.8524  0.1542
   13CHL1   C11  922   5.049   1.483   6.337  0.5200 -0.1089 -0.0689
   13CHL1  H11A  923   5.028   1.378   6.367 -2.2111 -0.1378 -1.8072
   13CHL1  H11B  924   5.141   1.533   6.375  1.3395  1.2692 -3.5350
   13CHL1    C9  925   4.933   1.571   6.397  0.0319  0.5649  0.0377
   13CHL1    H9  926   4.973   1.672   6.377  2.1609 -0.2544 -0.1139
   13CHL1   C10  927   4.908   1.553   6.548 -0.3157 -0.0549 -0.6685
   13CHL1   C19  928   4.864   1.399   6.573 -0.5320 -0.5413  0.7126
   13CHL1  H19A  929   4.771   1.373   6.518 -0.2841 -1.2443  0.6101
   13CHL1  H19B  930   4.940   1.327   6.533 -2.9744 -2.8105 -0.1577
   13CHL1  H19C  931   4.851   1.376   6.681 -1.6230 -1.9769  0.3163
   13CHL1    C1  932   5.038   1.563   6.639 -0.1149  0.7908 -0.5515
   13CHL1   H1A  933   5.095   1.470   6.619 -1.2775 -0.4810  1.7203
   13CHL1   H1B  934   5.088   1.655   6.599 -1.2245  1.2042 -1.0256
   13CHL1    C2  935   5.008   1.564   6.792 -0.7482  0.5860  0.8187
   13CHL1   H2A  936   5.106   1.583   6.841  0.8452  0.5237 -2.0915
   13CHL1   H2B  937   4.955   1.471   6.819  0.2841 -0.4934 -0.6813
   13CHL1   C20  938   4.969   1.365   5.871  0.1677  0.1033  0.1985
   13CHL1   H20  939   4.917   1.270   5.898  0.8025 -0.2923  0.0551
   13CHL1   C21  940   5.120   1.342   5.881  0.2361 -0.3110  0.3099
   13CHL1  H21A  941   5.142   1.271   5.798 -1.0953  0.8095 -1.0788
   13CHL1  H21B  942   5.139   1.300   5.982 -0.1261  1.6175  1.2349
   13CHL1  H21C  943   5.165   1.442   5.862  1.0146 -1.0200 -1.9133
   13CHL1   C22  944   4.922   1.394   5.727 -0.0655  0.0388 -0.0982
   13CHL1  H22A  945   4.812   1.403   5.715 -0.0846  1.1001  0.6510
   13CHL1  H22B  946   4.960   1.496   5.704 -0.6826  0.2344 -0.2694
   13CHL1   C23  947   4.976   1.296   5.618  0.5794 -0.1236 -0.7215
   13CHL1  H23A  948   5.083   1.324   5.606  1.6252 -2.5216  1.9372
   13CHL1  H23B  949   4.971   1.196   5.666  1.4825 -0.0172 -0.3835
   13CHL1   C24  950   4.911   1.299   5.479  0.0388  0.7268  0.2401
   13CHL1  H24A  951   4.801   1.280   5.484  0.0964  0.2852 -0.1485
   13CHL1  H24B  952   4.943   1.400   5.446 -0.6432  0.8703  0.0091
   13CHL1   C25  953   4.954   1.190   5.381 -0.0609 -0.0547 -0.8962
   13CHL1   H25  954   5.062   1.180   5.404 -0.1767  2.0840  0.9289
   13CHL1   C26  955   4.884   1.063   5.405 -0.3847  0.3803 -0.1826
   13CHL1  H26A  956   4.920   0.992   5.328  1.0332  0.6420  0.2071
   13CHL1  H26B  957   4.898   1.013   5.503 -2.9017 -1.0004 -0.4214
   13CHL1  H26C  958   4.775   1.081   5.389 -0.1742  2.0106  0.0627
   13CHL1   C27  959   4.932   1.243   5.237 -0.0286 -0.3918  0.4162
   13CHL1  H27A  960   4.951   1.352   5.229 -2.4205 -0.0641 -4.1943
   13CHL1  H27B  961   4.989   1.192   5.156 -1.1540 -0.0218 -0.6436
   13CHL1  H27C  962   4.827   1.212   5.214 -0.1320  0.1908  0.0824
   14CHL1    C3  963   3.491   6.596   6.396 -0.3592 -0.5795  0.1620
   14CHL1    H3  964   3.549   6.686   6.366 -1.9696  0.5375  0.2867
   14CHL1    O3  965   3.474   6.586   6.535 -0.4510  0.2617  0.3312
   14CHL1   H3'  966   3.386   6.550   6.545 -0.7690  0.4894 -1.3630
   14CHL1    C4  967   3.351   6.606   6.332  0.0527  0.7166 -0.4621
   14CHL1   H4A  968   3.289   6.518   6.360  2.1921 -0.7859 -0.1420
   14CHL1   H4B  969   3.301   6.692   6.380  2.8862  1.6148  1.0721
   14CHL1    C5  970   3.373   6.614   6.180 -0.0615  0.5025 -0.0814
   14CHL1    C6  971   3.318   6.718   6.115 -0.4250  0.9329  0.5224
   14CHL1    H6  972   3.239   6.766   6.174 -2.1736 -1.8652  0.6549
   14CHL1    C7  973   3.335   6.741   5.971  0.1382  0.3868 -0.3183
   14CHL1   H7A  974   3.237   6.775   5.933 -0.3067 -0.2428  0.2386
   14CHL1   H7B  975   3.408   6.825   5.961 -0.2040  0.6799 -0.3759
   14CHL1    C8  976   3.373   6.612   5.896  0.5815  0.4743 -0.2507
   14CHL1    H8  977   3.289   6.541   5.907 -0.7166  1.9507 -0.3000
   14CHL1   C14  978   3.421   6.644   5.754  0.2639  0.3218  0.1240
   14CHL1   H14  979   3.508   6.709   5.777 -0.1624  0.4864  1.3349
   14CHL1   C15  980   3.322   6.730   5.675  0.5012 -0.2588 -0.3227
   14CHL1  H15A  981   3.222   6.681   5.675  1.3833 -2.1770  0.1920
   14CHL1  H15B  982   3.309   6.833   5.713 -1.9899 -0.2425 -1.0628
   14CHL1   C16  983   3.369   6.721   5.524  0.4067 -0.3993  0.0648
   14CHL1  H16A  984   3.284   6.707   5.454 -0.9864  0.4156  1.5162
   14CHL1  H16B  985   3.413   6.820   5.500  0.5515  0.1317  2.3250
   14CHL1   C17  986   3.472   6.605   5.524  0.8454 -0.7437  0.5495
   14CHL1   H17  987   3.574   6.650   5.521 -0.1643  1.7284  0.7548
   14CHL1   C13  988   3.465   6.537   5.667  0.0921 -0.4807 -0.2183
   14CHL1   C18  989   3.341   6.434   5.668 -0.1577  0.8247 -0.1708
   14CHL1  H18A  990   3.249   6.487   5.635  0.5256  0.9526 -1.9815
   14CHL1  H18B  991   3.367   6.362   5.587  1.1844  0.5651  0.4649
   14CHL1  H18C  992   3.340   6.379   5.765  1.3253  1.1270  0.0426
   14CHL1   C12  993   3.590   6.469   5.729  0.0671 -0.0694 -0.5388
   14CHL1  H12A  994   3.611   6.373   5.678  0.6875  0.6737 -1.7037
   14CHL1  H12B  995   3.672   6.544   5.727 -0.9368  1.0364 -1.0960
   14CHL1   C11  996   3.566   6.437   5.887  0.5954  0.2981  0.5227
   14CHL1  H11A  997   3.505   6.345   5.882 -1.1393  1.3867  0.9458
   14CHL1  H11B  998   3.663   6.409   5.933 -0.2282 -4.1188 -0.0091
   14CHL1    C9  999   3.491   6.543   5.970  0.1962 -0.9176  0.5752
   14CHL1    H9 1000   3.570   6.621   5.971  1.4241 -1.9403 -2.7066
   14CHL1   C10 1001   3.462   6.498   6.116  0.6014 -0.0528 -0.6553
   14CHL1   C19 1002   3.374   6.370   6.122  0.7439 -0.0048  0.1260
   14CHL1  H19A 1003   3.367   6.326   6.224 -2.1937 -0.5049 -0.1993
   14CHL1  H19B 1004   3.273   6.392   6.083  0.2289  0.6467  1.7244
   14CHL1  H19C 1005   3.410   6.294   6.050 -0.6200 -0.7634  0.2065
   14CHL1    C1 1006   3.593   6.475   6.195 -0.2431  0.3555  0.1000
   14CHL1   H1A 1007   3.654   6.385   6.170  1.0239  0.5459  2.2377
   14CHL1   H1B 1008   3.643   6.573   6.180  1.0722 -0.1979  0.6268
   14CHL1    C2 1009   3.568   6.477   6.349  0.2882  0.4838 -0.5442
   14CHL1   H2A 1010   3.657   6.461   6.414  0.7181 -0.8363 -1.4201
   14CHL1   H2B 1011   3.497   6.393   6.364  0.3934  0.5332  0.2450
   14CHL1   C20 1012   3.467   6.525   5.388  0.1540 -0.0165  0.0678
   14CHL1   H20 1013   3.360   6.500   5.372 -0.0036  1.7578 -2.0803
   14CHL1   C21 1014   3.552   6.397   5.406  0.5979 -0.1361  0.3832
   14CHL1  H21A 1015   3.655   6.421   5.439  0.0392  1.2627  1.2306
   14CHL1  H21B 1016   3.549   6.355   5.303 -2.1886 -0.0566  0.3508
   14CHL1  H21C 1017   3.508   6.321   5.475  0.3816 -0.5304 -0.1783
   14CHL1   C22 1018   3.508   6.611   5.264  0.3598 -0.0787 -0.2524
   14CHL1  H22A 1019   3.488   6.719   5.281  0.5752  0.0704 -0.9266
   14CHL1  H22B 1020   3.619   6.611   5.256  0.3501 -0.1369 -0.3883
   14CHL1   C23 1021   3.435   6.578   5.135  0.2340  0.4507  0.1034
   14CHL1  H23A 1022   3.454   6.474   5.103  0.4507  1.0208 -1.7149
   14CHL1  H23B 1023   3.326   6.593   5.150 -0.2419 -2.4104 -0.0306
   14CHL1   C24 1024   3.490   6.671   5.019 -0.6122 -0.3154  0.5556
   14CHL1  H24A 1025   3.495   6.775   5.058  0.8074 -0.4366  0.7292
   14CHL1  H24B 1026   3.591   6.636   4.990 -0.8515 -0.9267  0.4379
   14CHL1   C25 1027   3.403   6.656   4.891 -0.1461 -0.3997 -0.2757
   14CHL1   H25 1028   3.297   6.672   4.921  0.3343  0.8550  0.8884
   14CHL1   C26 1029   3.431   6.775   4.798  0.0527 -0.1112  0.5845
   14CHL1  H26A 1030   3.426   6.876   4.844  1.0740  0.4023 -0.3767
   14CHL1  H26B 1031   3.536   6.763   4.764  0.7265  0.2028  2.4553
   14CHL1  H26C 1032   3.362   6.775   4.711  2.1364 -1.3326 -1.1623
   14CHL1   C27 1033   3.426   6.525   4.819 -0.3307 -1.0691 -0.0378
   14CHL1  H27A 1034   3.534   6.505   4.799  0.3710  2.3724 -0.3847
   14CHL1  H27B 1035   3.390   6.431   4.866 -4.8860 -0.5881 -2.1132
   14CHL1  H27C 1036   3.396   6.527   4.712  2.1476  1.3158 -0.8124
   15CHL1    C3 1037   3.339   5.941   6.307  0.2950  0.2662 -0.1992
   15CHL1    H3 1038   3.403   6.028   6.281  0.6105  0.2655  0.5702
   15CHL1    O3 1039   3.291   5.962   6.438  0.8532 -0.6241 -0.2660
   15CHL1   H3' 1040   3.239   5.886   6.463  1.0766 -0.6126  0.2549
   15CHL1    C4 1041   3.222   5.957   6.211 -0.2609  0.2765 -0.2855
   15CHL1   H4A 1042   3.149   5.878   6.239 -1.4043  2.3674  3.3150
   15CHL1   H4B 1043   3.185   6.060   6.230  1.2806  0.9458 -0.7456
   15CHL1    C5 1044   3.275   5.944   6.068  0.4174  0.0814 -0.2228
   15CHL1    C6 1045   3.265   6.046   5.983  0.2051 -0.1003 -0.4156
   15CHL1    H6 1046   3.241   6.144   6.027  0.9428 -0.1394  0.0758
   15CHL1    C7 1047   3.305   6.049   5.838 -0.4395 -0.4731  0.3075
   15CHL1   H7A 1048   3.221   6.104   5.790  0.5889  1.2546  0.4002
   15CHL1   H7B 1049   3.397   6.107   5.818 -2.2530  1.4955 -3.3079
   15CHL1    C8 1050   3.325   5.897   5.793  0.0530 -0.0756 -0.0959
   15CHL1    H8 1051   3.224   5.851   5.790  0.5122 -1.1617  0.4805
   15CHL1   C14 1052   3.396   5.889   5.657  0.0570 -0.1512 -0.0221
   15CHL1   H14 1053   3.496   5.935   5.670  0.0542 -0.1365 -0.0530
   15CHL1   C15 1054   3.330   5.966   5.550 -0.5758  0.3625  0.9098
   15CHL1  H15A 1055   3.221   5.953   5.564 -0.2467 -2.8305  1.3349
   15CHL1  H15B 1056   3.350   6.075   5.544  1.5455  0.0809  1.7735
   15CHL1   C16 1057   3.386   5.899   5.418 -0.3157  0.0290 -0.2439
   15CHL1  H16A 1058   3.296   5.860   5.365  0.2846 -2.1983  0.2858
   15CHL1  H16B 1059   3.428   5.972   5.346 -0.6289 -1.9009 -2.5169
   15CHL1   C17 1060   3.471   5.772   5.463  0.3907  0.4387  0.0079
   15CHL1   H17 1061   3.575   5.800   5.490 -0.4356  1.7930  2.0271
   15CHL1   C13 1062   3.408   5.746   5.606  0.2371  0.4109  0.1448
   15CHL1   C18 1063   3.264   5.681   5.592 -0.4528  0.1443  1.0429
   15CHL1  H18A 1064   3.215   5.729   5.504  0.6923  2.0093  1.3537
   15CHL1  H18B 1065   3.283   5.573   5.572 -1.5939  0.0329  0.4794
   15CHL1  H18C 1066   3.191   5.699   5.673 -2.1022 -0.3295 -0.2737
   15CHL1   C12 1067   3.498   5.667   5.699  0.5500  0.7252  0.2410
   15CHL1  H12A 1068   3.520   5.564   5.661 -1.0685 -0.2865  1.8583
   15CHL1  H12B 1069   3.592   5.725   5.699  1.1734 -0.1601 -1.9301
   15CHL1   C11 1070   3.438   5.672   5.841 -0.3555  0.7733 -0.2370
   15CHL1  H11A 1071   3.350   5.604   5.839 -1.8220  2.5893 -0.8257
   15CHL1  H11B 1072   3.512   5.624   5.909  0.6343  1.6451 -0.6747
   15CHL1    C9 1073   3.408   5.812   5.897 -0.4818  0.1078 -0.1863
   15CHL1    H9 1074   3.501   5.873   5.894  0.3734 -1.0512  1.1990
   15CHL1   C10 1075   3.340   5.816   6.039 -1.1308 -0.3556 -0.4147
   15CHL1   C19 1076   3.226   5.710   6.039  0.4467  0.7373  0.2613
   15CHL1  H19A 1077   3.157   5.708   6.126  0.1051 -3.0959  0.0703
   15CHL1  H19B 1078   3.168   5.725   5.945 -0.0565 -0.5522  0.3536
   15CHL1  H19C 1079   3.279   5.614   6.025 -1.5410 -0.1285 -2.1313
   15CHL1    C1 1080   3.449   5.792   6.145 -0.8239 -0.2779 -0.1098
   15CHL1   H1A 1081   3.484   5.687   6.132 -1.9633 -0.5370 -1.3945
   15CHL1   H1B 1082   3.535   5.860   6.125 -1.0308  0.3428  1.0351
   15CHL1    C2 1083   3.411   5.812   6.292 -0.0536  0.1366  0.1972
   15CHL1   H2A 1084   3.504   5.820   6.353  1.3352  1.6510 -1.9823
   15CHL1   H2B 1085   3.349   5.728   6.330 -1.2819  0.7869 -0.3042
   15CHL1   C20 1086   3.450   5.668   5.349 -0.0614  0.2674 -0.5913
   15CHL1   H20 1087   3.341   5.656   5.331 -0.1329  1.1477 -0.7926
   15CHL1   C21 1088   3.506   5.531   5.398  0.1620 -0.0431  0.7349
   15CHL1  H21A 1089   3.452   5.477   5.479 -0.5837  1.5277  1.3095
   15CHL1  H21B 1090   3.613   5.534   5.426  0.3289 -0.2952  0.1399
   15CHL1  H21C 1091   3.500   5.466   5.308  0.5490  2.3206 -1.0763
   15CHL1   C22 1092   3.517   5.708   5.220 -0.2404  0.0408  0.0668
   15CHL1  H22A 1093   3.509   5.816   5.195  1.0898  0.2146  0.3303
   15CHL1  H22B 1094   3.624   5.682   5.238 -1.2369 -4.3309  0.8602
   15CHL1   C23 1095   3.485   5.624   5.098  0.4764 -0.5251 -0.1012
   15CHL1  H23A 1096   3.495   5.514   5.111 -0.7195 -0.9154 -2.2206
   15CHL1  H23B 1097   3.377   5.643   5.082  0.0946  1.2610  3.3777
   15CHL1   C24 1098   3.555   5.654   4.958  0.5663  0.3315 -0.2858
   15CHL1  H24A 1099   3.539   5.761   4.933  3.0002  0.5870 -0.9821
   15CHL1  H24B 1100   3.659   5.636   4.993  0.1835 -0.5560  0.4033
   15CHL1   C25 1101   3.530   5.564   4.837 -0.6331  0.2612  0.5663
   15CHL1   H25 1102   3.420   5.554   4.822 -0.8655 -0.2060  2.3731
   15CHL1   C26 1103   3.591   5.626   4.705 -0.4360 -0.5670 -0.6158
   15CHL1  H26A 1104   3.574   5.735   4.709  1.3027 -0.3001  0.6034
   15CHL1  H26B 1105   3.700   5.608   4.715 -0.1421  1.3959 -0.0040
   15CHL1  H26C 1106   3.551   5.580   4.611  1.2722  0.2532 -1.8060
   15CHL1   C27 1107   3.590   5.427   4.851  0.4888  0.1705 -0.4578
   15CHL1  H27A 1108   3.550   5.379   4.943 -0.5513  2.2249  0.2254
   15CHL1  H27B 1109   3.579   5.369   4.757  1.8544  0.4271 -0.7902
   15CHL1  H27C 1110   3.700   5.436   4.864  0.4427 -0.6375  0.6862
   16CHL1    C3 1111   2.511   3.636   6.072  0.7721  0.4067  0.1283
   16CHL1    H3 1112   2.525   3.745   6.056 -1.9141  1.0402  1.5125
   16CHL1    O3 1113   2.437   3.625   6.195 -0.3350 -0.4193  0.3397
   16CHL1   H3' 1114   2.478   3.691   6.252  0.8912 -0.2271 -0.7094
   16CHL1    C4 1115   2.419   3.604   5.961 -0.1863 -0.0069 -0.2816
   16CHL1   H4A 1116   2.378   3.501   5.966  0.1932 -0.1212  0.6878
   16CHL1   H4B 1117   2.331   3.671   5.972  0.9245  1.2001  1.7200
   16CHL1    C5 1118   2.492   3.625   5.832  0.0123 -0.6738  0.0503
   16CHL1    C6 1119   2.431   3.703   5.739  0.1722  0.1573 -1.3359
   16CHL1    H6 1120   2.341   3.759   5.767 -0.7529 -1.1543 -1.6232
   16CHL1    C7 1121   2.487   3.741   5.608  0.2036  0.6841 -0.5447
   16CHL1   H7A 1122   2.414   3.756   5.526  1.6987  0.9153 -1.8956
   16CHL1   H7B 1123   2.541   3.836   5.630 -0.6523  0.7182  1.6270
   16CHL1    C8 1124   2.583   3.638   5.565  0.3500  0.2519 -0.5676
   16CHL1    H8 1125   2.521   3.547   5.547 -1.1097  1.2116 -0.6370
   16CHL1   C14 1126   2.656   3.696   5.444  0.0996 -0.0987 -0.3767
   16CHL1   H14 1127   2.710   3.788   5.472 -2.5007  0.9756  1.5355
   16CHL1   C15 1128   2.566   3.749   5.329  0.1679 -0.7671  0.0895
   16CHL1  H15A 1129   2.482   3.678   5.310  0.4677 -0.7202 -1.5582
   16CHL1  H15B 1130   2.518   3.844   5.360 -0.7048 -0.9936 -0.5128
   16CHL1   C16 1131   2.664   3.753   5.209 -0.3648  0.8173 -0.2835
   16CHL1  H16A 1132   2.620   3.702   5.121  1.9214 -1.1222 -0.3872
   16CHL1  H16B 1133   2.700   3.851   5.169 -1.0304  0.9661 -0.5329
   16CHL1   C17 1134   2.791   3.677   5.262 -0.5701 -0.2195  0.6028
   16CHL1   H17 1135   2.859   3.756   5.301 -1.5937  2.5415 -2.6737
   16CHL1   C13 1136   2.753   3.600   5.386  0.0747 -0.2918  0.0511
   16CHL1   C18 1137   2.687   3.464   5.341  0.1553 -0.6335  0.4284
   16CHL1  H18A 1138   2.654   3.413   5.434 -1.7680 -0.3658 -0.0579
   16CHL1  H18B 1139   2.591   3.489   5.290  1.8575  3.2154 -1.3403
   16CHL1  H18C 1140   2.754   3.395   5.287  2.5560  2.3721 -0.7556
   16CHL1   C12 1141   2.861   3.575   5.489  0.4690  0.3871  0.8572
   16CHL1  H12A 1142   2.941   3.509   5.448  0.3915  1.7662 -1.6745
   16CHL1  H12B 1143   2.899   3.679   5.497  0.4539  0.6462 -1.7046
   16CHL1   C11 1144   2.808   3.509   5.619 -0.2275  0.4058 -0.1878
   16CHL1  H11A 1145   2.779   3.403   5.599 -1.3297  0.4718  0.8574
   16CHL1  H11B 1146   2.884   3.511   5.700  0.4346  1.5091 -0.8052
   16CHL1    C9 1147   2.687   3.594   5.675  0.4964 -0.7317 -0.0149
   16CHL1    H9 1148   2.737   3.689   5.707  0.0520  0.0422 -1.5133
   16CHL1   C10 1149   2.624   3.545   5.811 -0.3749  0.1385  0.6243
   16CHL1   C19 1150   2.589   3.394   5.796  0.0207  1.1662  0.6980
   16CHL1  H19A 1151   2.519   3.377   5.712  0.9548 -2.6359  0.5371
   16CHL1  H19B 1152   2.682   3.333   5.794 -0.3248  0.5733  2.1574
   16CHL1  H19C 1153   2.535   3.352   5.883  0.8058 -2.1361 -0.2729
   16CHL1    C1 1154   2.711   3.568   5.935 -0.5453 -0.3159 -0.1709
   16CHL1   H1A 1155   2.798   3.499   5.935 -0.0327  0.3304 -0.4674
   16CHL1   H1B 1156   2.753   3.670   5.934  0.2543 -0.6411 -1.3591
   16CHL1    C2 1157   2.637   3.547   6.067  0.7315  0.2252 -0.0974
   16CHL1   H2A 1158   2.698   3.576   6.155 -1.4481  0.0343  1.5664
   16CHL1   H2B 1159   2.612   3.440   6.083  1.6528  0.0916  0.5056
   16CHL1   C20 1160   2.867   3.615   5.141 -0.2045  0.2128 -0.1768
   16CHL1   H20 1161   2.797   3.542   5.097 -1.1334 -0.4509  2.2420
   16CHL1   C21 1162   2.988   3.537   5.196 -0.0669  0.2719  0.1114
   16CHL1  H21A 1163   3.063   3.605   5.243 -0.9416  0.3656  1.4318
   16CHL1  H21B 1164   3.053   3.508   5.110 -1.0835 -0.7807 -0.3205
   16CHL1  H21C 1165   2.971   3.448   5.260 -0.3724 -0.4658 -0.9725
   16CHL1   C22 1166   2.916   3.722   5.043  0.7314 -0.9127 -0.3652
   16CHL1  H22A 1167   2.823   3.766   5.001 -0.2889  0.3276  2.8878
   16CHL1  H22B 1168   2.983   3.792   5.098  0.6166 -1.5600  0.6402
   16CHL1   C23 1169   2.998   3.674   4.924  0.0466  0.1744  0.7352
   16CHL1  H23A 1170   3.094   3.630   4.959  0.6096  1.7556  1.2746
   16CHL1  H23B 1171   2.934   3.604   4.866 -0.5645  0.8252  0.6111
   16CHL1   C24 1172   3.027   3.797   4.831 -0.1449 -0.3429 -0.6539
   16CHL1  H24A 1173   2.928   3.839   4.803  0.4124  2.2564  0.9265
   16CHL1  H24B 1174   3.069   3.880   4.892 -1.2205  0.3527 -0.8258
   16CHL1   C25 1175   3.126   3.764   4.722 -0.5289  0.1911  0.3716
   16CHL1   H25 1176   3.217   3.720   4.768 -0.0235  1.3375  0.4954
   16CHL1   C26 1177   3.063   3.669   4.629 -0.3071  0.5912  0.5114
   16CHL1  H26A 1178   3.113   3.667   4.530  0.2192  0.5720  0.7751
   16CHL1  H26B 1179   3.076   3.566   4.669  3.9199  1.2859  1.4326
   16CHL1  H26C 1180   2.956   3.699   4.626 -0.1774  1.1106  0.8596
   16CHL1   C27 1181   3.159   3.893   4.643 -0.5436 -0.3916  0.0009
   16CHL1  H27A 1182   3.187   3.980   4.705  0.4744  0.0193 -1.0078
   16CHL1  H27B 1183   3.246   3.887   4.575  0.7115 -0.0910  1.5317
   16CHL1  H27C 1184   3.072   3.919   4.578  0.5549 -0.4245 -1.5358
   17CHL1    C3 1185   3.580   0.185   6.487  0.2400  0.6634  0.1677
   17CHL1    H3 1186   3.497   0.120   6.451  0.0396 -0.9489  3.1926
   17CHL1    O3 1187   3.576   0.163   6.626  0.3168 -0.4050  0.6370
   17CHL1   H3' 1188   3.658   0.124   6.657  0.5095 -1.8066 -1.4381
   17CHL1    C4 1189   3.723   0.145   6.429  0.8339 -0.6585  0.4096
   17CHL1   H4A 1190   3.797   0.218   6.469  1.3880  0.1013 -1.8000
   17CHL1   H4B 1191   3.768   0.049   6.462 -0.2372 -0.8359  1.4064
   17CHL1    C5 1192   3.730   0.159   6.278  0.3056  0.8213 -0.0835
   17CHL1    C6 1193   3.781   0.053   6.212 -0.7723  0.5762  0.3667
   17CHL1    H6 1194   3.826  -0.027   6.273  0.4143  0.8319 -0.1656
   17CHL1    C7 1195   3.805   0.052   6.070 -0.2477 -0.1086 -0.2438
   17CHL1   H7A 1196   3.912   0.028   6.052 -0.3565 -0.8476  0.0594
   17CHL1   H7B 1197   3.749  -0.028   6.018 -0.3897  0.4895 -1.0160
   17CHL1    C8 1198   3.772   0.186   6.000 -0.1363  0.2675 -0.0405
   17CHL1    H8 1199   3.860   0.252   6.014  0.6646 -0.8712  0.5211
   17CHL1   C14 1200   3.731   0.155   5.856  0.0664  0.0130 -0.4130
   17CHL1   H14 1201   3.640   0.093   5.871  0.5024 -0.9073 -1.4794
   17CHL1   C15 1202   3.821   0.072   5.767 -0.7269 -0.5345  0.6664
   17CHL1  H15A 1203   3.924   0.115   5.774 -0.9062  0.0628 -0.1967
   17CHL1  H15B 1204   3.830  -0.037   5.785  2.2991 -0.2532  1.5307
   17CHL1   C16 1205   3.779   0.097   5.624  0.5022  0.1786 -0.4384
   17CHL1  H16A 1206   3.857   0.119   5.547 -1.4439  0.2148 -2.4894
   17CHL1  H16B 1207   3.734   0.002   5.587  1.8895 -1.4394  1.6952
   17CHL1   C17 1208   3.671   0.205   5.635 -0.5633  0.0920  0.6460
   17CHL1   H17 1209   3.569   0.164   5.652 -0.0487 -1.7248 -0.4007
   17CHL1   C13 1210   3.697   0.273   5.771  0.6362  0.1887  0.2625
   17CHL1   C18 1211   3.823   0.364   5.762  0.0520 -0.3484  0.2109
   17CHL1  H18A 1212   3.914   0.308   5.732 -0.0326 -2.3084  3.1140
   17CHL1  H18B 1213   3.798   0.441   5.687  0.2615 -1.2753 -0.8335
   17CHL1  H18C 1214   3.843   0.422   5.855  2.5487  2.1621 -1.7319
   17CHL1   C12 1215   3.575   0.341   5.836  0.1725  0.1466 -0.7156
   17CHL1  H12A 1216   3.553   0.438   5.786  3.0185  1.1745 -0.2119
   17CHL1  H12B 1217   3.490   0.271   5.837  1.2237 -1.2064  1.2716
   17CHL1   C11 1218   3.606   0.373   5.988  0.0479 -0.4621  0.0837
   17CHL1  H11A 1219   3.685   0.450   5.989 -1.3060  0.9877 -0.0461
   17CHL1  H11B 1220   3.513   0.422   6.025 -0.8494 -0.1783 -2.3384
   17CHL1    C9 1221   3.651   0.250   6.068  0.7929 -0.6364  0.3480
   17CHL1    H9 1222   3.567   0.177   6.062 -1.0795  1.4787 -1.4614
   17CHL1   C10 1223   3.670   0.284   6.216 -0.0981  0.4353  0.5119
   17CHL1   C19 1224   3.777   0.389   6.237  0.1801 -0.8356  0.7046
   17CHL1  H19A 1225   3.810   0.401   6.343 -0.0836  1.2980  0.5858
   17CHL1  H19B 1226   3.871   0.368   6.181 -0.6023  0.7881 -1.3522
   17CHL1  H19C 1227   3.743   0.482   6.187  1.7969 -1.1484 -1.0786
   17CHL1    C1 1228   3.540   0.328   6.287  0.1162  0.2792 -0.1906
   17CHL1   H1A 1229   3.513   0.429   6.248 -1.2451  0.4478  1.1168
   17CHL1   H1B 1230   3.464   0.255   6.255  1.1857 -1.9253  1.9622
   17CHL1    C2 1231   3.533   0.332   6.446 -0.6314  0.4308  0.2530
   17CHL1   H2A 1232   3.430   0.340   6.485 -1.4823 -1.6481 -1.3635
   17CHL1   H2B 1233   3.602   0.405   6.494 -1.1081  0.7994  0.3868
   17CHL1   C20 1234   3.669   0.285   5.498  0.0701 -0.3051  0.0776
   17CHL1   H20 1235   3.763   0.343   5.493 -1.0610  1.6041  0.0377
   17CHL1   C21 1236   3.558   0.385   5.511 -0.7461  0.5042  0.6748
   17CHL1  H21A 1237   3.464   0.338   5.547  0.6073 -1.2524  2.1467
   17CHL1  H21B 1238   3.544   0.440   5.415 -0.7991  0.3273  0.5816
   17CHL1  H21C 1239   3.590   0.461   5.586 -1.0104 -0.2912  1.6112
   17CHL1   C22 1240   3.651   0.202   5.367 -0.0799 -0.3069 -0.2335
   17CHL1  H22A 1241   3.719   0.116   5.377  2.7232  1.9373  1.5174
   17CHL1  H22B 1242   3.547   0.163   5.361  0.1686 -1.0025 -0.0109
   17CHL1   C23 1243   3.700   0.271   5.241 -0.3437  0.7942  0.3422
   17CHL1  H23A 1244   3.651   0.370   5.229  0.0503  1.0452  0.7384
   17CHL1  H23B 1245   3.809   0.292   5.251 -0.2624  0.1178  0.9810
   17CHL1   C24 1246   3.675   0.191   5.110  1.3709 -0.4375 -0.2267
   17CHL1  H24A 1247   3.708   0.085   5.118  0.3779 -0.7126  0.3975
   17CHL1  H24B 1248   3.566   0.203   5.091  1.3622  0.1680  0.1938
   17CHL1   C25 1249   3.742   0.243   4.990  0.3591  0.8512 -0.1559
   17CHL1   H25 1250   3.846   0.228   5.024  0.8432 -1.6137 -2.3809
   17CHL1   C26 1251   3.733   0.159   4.864 -0.3605  0.3207 -0.1015
   17CHL1  H26A 1252   3.820   0.161   4.796  0.6311  0.6387  1.1258
   17CHL1  H26B 1253   3.733   0.053   4.895 -2.4195  0.2045 -0.4056
   17CHL1  H26C 1254   3.641   0.185   4.808 -0.8778 -0.8990  0.1603
   17CHL1   C27 1255   3.730   0.394   4.962 -0.0551  0.5305 -0.0463
   17CHL1  H27A 1256   3.621   0.413   4.975 -0.3607 -0.5149 -0.8663
   17CHL1  H27B 1257   3.786   0.468   5.023  0.4191 -0.4302  0.7190
   17CHL1  H27C 1258   3.758   0.416   4.857 -3.9957 -0.1154 -1.4137
   18CHL1    C3 1259   4.097   2.169   6.143 -0.1591 -0.2453  0.5170
   18CHL1    H3 1260   4.192   2.197   6.092  0.5352 -2.2870  0.6136
   18CHL1    O3 1261   4.116   2.131   6.274 -0.0870 -0.0742  0.9314
   18CHL1   H3' 1262   4.032   2.099   6.307 -0.1087  0.5952  1.5330
   18CHL1    C4 1263   4.002   2.283   6.127 -0.0528  0.0139  0.3703
   18CHL1   H4A 1264   3.913   2.258   6.188  0.0526 -0.0193  0.5125
   18CHL1   H4B 1265   4.049   2.362   6.189  1.6033 -1.2741  0.8158
   18CHL1    C5 1266   3.957   2.317   5.986 -0.7689 -0.4286  0.0614
   18CHL1    C6 1267   3.979   2.439   5.929 -0.3103 -0.3959 -0.0680
   18CHL1    H6 1268   4.005   2.528   5.988 -2.4741 -0.4119  1.0009
   18CHL1    C7 1269   3.929   2.466   5.789 -0.1252 -0.8044 -0.7104
   18CHL1   H7A 1270   3.872   2.561   5.781  1.5751  0.2745 -0.6733
   18CHL1   H7B 1271   4.023   2.476   5.731  1.5963 -3.1064  1.4154
   18CHL1    C8 1272   3.844   2.353   5.715 -0.3827 -0.0123 -0.5302
   18CHL1    H8 1273   3.735   2.370   5.731 -0.6181  0.3695 -2.3870
   18CHL1   C14 1274   3.865   2.366   5.562  0.0872  0.5528 -0.4608
   18CHL1   H14 1275   3.967   2.340   5.525  0.4240  2.0558 -0.6651
   18CHL1   C15 1276   3.842   2.503   5.486 -0.4954  0.3333 -0.5577
   18CHL1  H15A 1277   3.755   2.563   5.519  0.3364  2.0739 -1.4098
   18CHL1  H15B 1278   3.931   2.566   5.508  0.5567 -1.2625 -0.0355
   18CHL1   C16 1279   3.835   2.471   5.342  0.7254  0.2799 -0.3215
   18CHL1  H16A 1280   3.753   2.521   5.286  1.3725 -0.2946 -1.8546
   18CHL1  H16B 1281   3.924   2.493   5.280  0.8139 -0.2872 -0.4019
   18CHL1   C17 1282   3.819   2.314   5.337 -0.1768 -0.5440  0.0363
   18CHL1   H17 1283   3.922   2.274   5.318  0.5078  0.8750  0.6094
   18CHL1   C13 1284   3.790   2.269   5.478  0.4452 -0.1624 -0.0097
   18CHL1   C18 1285   3.638   2.303   5.492 -0.3443  0.2601 -0.3825
   18CHL1  H18A 1286   3.606   2.404   5.461  1.6295  1.2931  0.7151
   18CHL1  H18B 1287   3.587   2.233   5.423  1.2466 -0.3186 -1.0203
   18CHL1  H18C 1288   3.613   2.269   5.595  2.7529 -1.2079  0.0113
   18CHL1   C12 1289   3.826   2.117   5.520 -0.4054 -0.0055 -0.2448
   18CHL1  H12A 1290   3.761   2.044   5.468 -0.4153 -0.2621  0.1266
   18CHL1  H12B 1291   3.928   2.090   5.487 -0.4886 -0.4443 -0.1477
   18CHL1   C11 1292   3.823   2.108   5.675 -0.5268  0.4729 -0.1517
   18CHL1  H11A 1293   3.719   2.105   5.713 -0.3055  0.1540  0.4435
   18CHL1  H11B 1294   3.858   2.003   5.687 -1.0370 -0.1100 -3.1456
   18CHL1    C9 1295   3.898   2.216   5.754 -0.0334 -0.3195  0.9826
   18CHL1    H9 1296   3.997   2.219   5.704 -0.6340  4.0977 -0.3614
   18CHL1   C10 1297   3.911   2.195   5.902  0.0128 -0.4837 -0.1330
   18CHL1   C19 1298   3.768   2.151   5.955  0.4779 -0.1522  0.1857
   18CHL1  H19A 1299   3.755   2.122   6.062 -3.0149  0.9692  0.2005
   18CHL1  H19B 1300   3.693   2.229   5.930 -1.6127 -1.6558  1.4950
   18CHL1  H19C 1301   3.727   2.064   5.900  0.7319  0.9503 -1.8539
   18CHL1    C1 1302   4.007   2.074   5.928 -0.6463  0.4668  0.0223
   18CHL1   H1A 1303   3.980   1.973   5.892  0.8391 -0.5858  1.6887
   18CHL1   H1B 1304   4.105   2.091   5.877 -0.6278  0.8346  0.1784
   18CHL1    C2 1305   4.041   2.042   6.074 -0.5441  0.9306  0.0412
   18CHL1   H2A 1306   4.117   1.961   6.076 -1.9726 -0.5926 -2.1885
   18CHL1   H2B 1307   3.953   2.013   6.135  1.5034 -1.7254  1.9303
   18CHL1   C20 1308   3.736   2.270   5.215  0.6868  0.2898 -0.6155
   18CHL1   H20 1309   3.635   2.317   5.212  0.6665  0.2656 -3.7666
   18CHL1   C21 1310   3.708   2.120   5.214  0.3749 -0.0233 -0.5294
   18CHL1  H21A 1311   3.638   2.076   5.287  1.4342 -2.3476 -0.8029
   18CHL1  H21B 1312   3.802   2.062   5.206  0.5065 -0.2434  1.9058
   18CHL1  H21C 1313   3.655   2.098   5.119 -2.1912  1.4660  0.4643
   18CHL1   C22 1314   3.802   2.306   5.080 -0.2717  0.1071 -0.7554
   18CHL1  H22A 1315   3.734   2.277   4.997  1.5310 -1.7334 -1.6784
   18CHL1  H22B 1316   3.814   2.416   5.088 -0.5743  0.0575  0.8781
   18CHL1   C23 1317   3.938   2.239   5.064  0.3317  0.4375  0.1925
   18CHL1  H23A 1318   4.012   2.281   5.135  0.5914 -3.0809  2.2038
   18CHL1  H23B 1319   3.939   2.129   5.075 -0.6839  0.3511 -0.3859
   18CHL1   C24 1320   3.993   2.282   4.930 -0.2139 -0.1819  1.7121
   18CHL1  H24A 1321   3.921   2.264   4.847  0.4275  0.2348  1.0561
   18CHL1  H24B 1322   4.029   2.387   4.928  0.4763 -0.3694 -1.2726
   18CHL1   C25 1323   4.096   2.175   4.883 -0.7016 -0.2069 -0.1098
   18CHL1   H25 1324   4.043   2.077   4.884 -0.6386 -0.2381  0.2929
   18CHL1   C26 1325   4.131   2.213   4.738  0.5298 -0.1130  0.1659
   18CHL1  H26A 1326   4.045   2.221   4.668 -0.4489 -0.1520  1.3499
   18CHL1  H26B 1327   4.187   2.308   4.726 -2.4920  1.6653 -0.8794
   18CHL1  H26C 1328   4.210   2.145   4.698 -0.1901 -0.8261 -0.0839
   18CHL1   C27 1329   4.221   2.164   4.968  0.0702  0.6294  0.4936
   18CHL1  H27A 1330   4.193   2.141   5.073 -1.9144 -0.2170 -0.1741
   18CHL1  H27B 1331   4.291   2.084   4.935  2.0311  2.3359  0.2766
   18CHL1  H27C 1332   4.287   2.253   4.958  0.3593  0.3662 -0.0104
   19CHL1    C3 1333   2.284   1.782   6.563  0.1815 -0.0970 -0.0885
   19CHL1    H3 1334   2.369   1.853   6.559  1.5402 -1.5904  0.7669
   19CHL1    O3 1335   2.230   1.768   6.694 -0.1997 -0.2063  0.3934
   19CHL1   H3' 1336   2.212   1.675   6.711 -1.4742 -0.1727 -0.5943
   19CHL1    C4 1337   2.171   1.835   6.474  0.1725 -0.1330  0.4100
   19CHL1   H4A 1338   2.079   1.774   6.463  1.3906 -1.6133 -3.0673
   19CHL1   H4B 1339   2.140   1.932   6.518 -0.5893 -0.9298  1.6750
   19CHL1    C5 1340   2.211   1.853   6.326  0.0374 -0.0949  0.4913
   19CHL1    C6 1341   2.197   1.964   6.255 -0.1609  0.3281 -0.3950
   19CHL1    H6 1342   2.164   2.050   6.315 -0.4638 -0.6683  0.9055
   19CHL1    C7 1343   2.224   1.974   6.104 -0.5298 -0.2709 -0.7487
   19CHL1   H7A 1344   2.142   2.024   6.048 -0.8992  1.5828  1.3207
   19CHL1   H7B 1345   2.319   2.031   6.097 -0.0158 -1.0942 -0.5480
   19CHL1    C8 1346   2.239   1.836   6.039 -0.0533  0.4510  0.6672
   19CHL1    H8 1347   2.143   1.782   6.022  0.3253 -0.3460  1.0035
   19CHL1   C14 1348   2.307   1.855   5.909  0.4216 -0.2918  0.5717
   19CHL1   H14 1349   2.407   1.897   5.933  0.7329 -1.1623  0.8534
   19CHL1   C15 1350   2.259   1.974   5.816 -0.3287  0.5233  0.4417
   19CHL1  H15A 1351   2.150   1.994   5.817 -0.1326  1.9952 -1.5390
   19CHL1  H15B 1352   2.302   2.070   5.853 -0.1375  0.7769 -0.4141
   19CHL1   C16 1353   2.294   1.923   5.676  0.2792  0.3417  0.9657
   19CHL1  H16A 1354   2.199   1.890   5.628 -0.9813  2.1883  2.0557
   19CHL1  H16B 1355   2.336   2.007   5.616  1.4311 -0.2538  0.9123
   19CHL1   C17 1356   2.381   1.800   5.690  0.1676  0.1315  0.3390
   19CHL1   H17 1357   2.489   1.819   5.709  0.7985 -3.1070  0.6478
   19CHL1   C13 1358   2.335   1.736   5.825 -0.1235  0.5647 -0.3863
   19CHL1   C18 1359   2.198   1.667   5.802 -0.2278 -0.1351  0.2218
   19CHL1  H18A 1360   2.118   1.737   5.769 -0.0501  0.0034  0.0850
   19CHL1  H18B 1361   2.217   1.588   5.726 -0.2414 -1.4239  1.5090
   19CHL1  H18C 1362   2.163   1.616   5.895 -1.2148  1.3830  0.7162
   19CHL1   C12 1363   2.440   1.656   5.906  0.0994 -0.2418 -0.0352
   19CHL1  H12A 1364   2.456   1.557   5.858 -1.9356 -1.5510  1.7719
   19CHL1  H12B 1365   2.531   1.718   5.918  0.5161 -1.0380  1.1567
   19CHL1   C11 1366   2.388   1.615   6.052  0.7165  0.1536  0.3849
   19CHL1  H11A 1367   2.311   1.537   6.035  2.0774 -1.2512  0.5523
   19CHL1  H11B 1368   2.473   1.564   6.102 -0.2550 -1.2391  0.6601
   19CHL1    C9 1369   2.329   1.744   6.120 -0.0864  0.6325 -0.0435
   19CHL1    H9 1370   2.419   1.807   6.132 -0.6905  1.4964  0.0528
   19CHL1   C10 1371   2.264   1.727   6.260  0.0457  0.3779  0.9714
   19CHL1   C19 1372   2.146   1.631   6.242 -1.0156  0.9622  0.5969
   19CHL1  H19A 1373   2.065   1.670   6.177 -0.2018  1.3748 -0.1887
   19CHL1  H19B 1374   2.166   1.531   6.196  1.2201 -0.7843  4.7933
   19CHL1  H19C 1375   2.107   1.605   6.343  0.5283  0.3354  1.0545
   19CHL1    C1 1376   2.364   1.655   6.354 -0.1331 -0.5388  0.4257
   19CHL1   H1A 1377   2.368   1.547   6.330 -1.6500 -0.3661 -0.7086
   19CHL1   H1B 1378   2.465   1.701   6.346 -0.1110 -0.6542  0.0306
   19CHL1    C2 1379   2.331   1.650   6.504 -0.0603  0.4850  0.0514
   19CHL1   H2A 1380   2.422   1.619   6.560  0.8941  0.0699 -1.6549
   19CHL1   H2B 1381   2.243   1.585   6.520 -0.9070  1.8591  1.2751
   19CHL1   C20 1382   2.383   1.718   5.561  0.1386  0.3170  0.3149
   19CHL1   H20 1383   2.285   1.667   5.546 -0.1279  1.3964 -2.0794
   19CHL1   C21 1384   2.499   1.613   5.592 -0.0731  0.6528  0.2943
   19CHL1  H21A 1385   2.471   1.530   5.659 -0.2061 -0.6265 -1.2993
   19CHL1  H21B 1386   2.592   1.660   5.631  0.1135  2.3708 -1.9687
   19CHL1  H21C 1387   2.520   1.563   5.495 -1.0794  0.4337  0.1812
   19CHL1   C22 1388   2.415   1.794   5.430  0.0357 -0.1510  0.3975
   19CHL1  H22A 1389   2.372   1.896   5.431 -0.5186 -0.1572 -3.6921
   19CHL1  H22B 1390   2.523   1.795   5.405  0.2919 -0.3553  1.4440
   19CHL1   C23 1391   2.333   1.732   5.319 -0.9181  0.1375  0.7852
   19CHL1  H23A 1392   2.366   1.626   5.306  0.5178  0.7442 -1.0624
   19CHL1  H23B 1393   2.231   1.720   5.362 -0.3019  0.8426  2.5062
   19CHL1   C24 1394   2.351   1.808   5.194 -0.1263  0.2138 -0.3693
   19CHL1  H24A 1395   2.322   1.912   5.222 -1.6798 -0.8215  2.2409
   19CHL1  H24B 1396   2.461   1.812   5.182 -0.0367 -0.6936  0.0755
   19CHL1   C25 1397   2.282   1.744   5.081 -0.5391 -0.0223  0.4433
   19CHL1   H25 1398   2.176   1.718   5.100 -1.3038 -0.5795 -3.7219
   19CHL1   C26 1399   2.261   1.837   4.959 -0.5947  0.1945  0.5331
   19CHL1  H26A 1400   2.212   1.790   4.871 -1.2284  0.9120  0.4925
   19CHL1  H26B 1401   2.200   1.923   4.993  0.8276  1.1875  0.6599
   19CHL1  H26C 1402   2.356   1.882   4.922 -0.7681  0.9523  0.9933
   19CHL1   C27 1403   2.344   1.609   5.042 -0.3876  0.1454 -0.0801
   19CHL1  H27A 1404   2.401   1.558   5.122 -0.5836 -1.5736 -0.9669
   19CHL1  H27B 1405   2.271   1.546   4.986 -0.0569 -1.0537  0.8040
   19CHL1  H27C 1406   2.432   1.617   4.975 -0.5872 -2.9484 -0.8748
   20CHL1    C3 1407   2.103   1.244   6.630 -0.1270  0.0158  0.3945
   20CHL1    H3 1408   2.033   1.329   6.638 -0.8859 -0.6593  1.1464
   20CHL1    O3 1409   2.155   1.210   6.764 -0.2661  0.1292 -0.3101
   20CHL1   H3' 1410   2.222   1.145   6.742 -1.2265 -0.7463 -0.7460
   20CHL1    C4 1411   2.031   1.125   6.558  0.1925 -0.0485  1.0556
   20CHL1   H4A 1412   2.096   1.038   6.578  0.8034 -0.1616 -1.1364
   20CHL1   H4B 1413   1.933   1.110   6.609  0.2896  1.0171  1.5862
   20CHL1    C5 1414   2.020   1.134   6.411 -0.1563 -0.1382  0.0455
   20CHL1    C6 1415   1.906   1.118   6.343 -0.2477  0.2137  0.2429
   20CHL1    H6 1416   1.809   1.099   6.391  0.8726 -0.9754  2.2033
   20CHL1    C7 1417   1.895   1.113   6.196 -0.1961  0.6039  0.7857
   20CHL1   H7A 1418   1.851   1.014   6.171  0.3721  0.6330 -0.3946
   20CHL1   H7B 1419   1.820   1.190   6.166 -1.6623 -0.0164  2.6744
   20CHL1    C8 1420   2.023   1.128   6.116 -0.4511 -0.4365  0.4350
   20CHL1    H8 1421   2.066   1.026   6.106  1.1523  0.2531 -0.1331
   20CHL1   C14 1422   1.998   1.183   5.974 -0.2344  0.2509  0.0317
   20CHL1   H14 1423   1.960   1.287   5.983  0.2248  0.3419  0.9999
   20CHL1   C15 1424   1.898   1.117   5.879  0.0916 -0.0197  0.1992
   20CHL1  H15A 1425   1.914   1.007   5.883 -0.8116 -0.1333  1.2990
   20CHL1  H15B 1426   1.792   1.143   5.901 -0.5230 -0.1465 -2.2833
   20CHL1   C16 1427   1.935   1.165   5.741  0.8174 -0.8108 -0.5447
   20CHL1  H16A 1428   1.941   1.078   5.672  2.5180 -0.3707 -1.0070
   20CHL1  H16B 1429   1.857   1.236   5.706 -0.5706 -0.6967  2.5101
   20CHL1   C17 1430   2.077   1.230   5.751  0.6238 -0.2046  0.4720
   20CHL1   H17 1431   2.052   1.338   5.762  1.3260 -0.3060  4.1428
   20CHL1   C13 1432   2.130   1.193   5.889  0.0201 -0.3235 -0.1196
   20CHL1   C18 1433   2.199   1.058   5.875  0.3897  0.6004 -0.2931
   20CHL1  H18A 1434   2.222   1.011   5.973 -0.6195 -0.2179 -0.4318
   20CHL1  H18B 1435   2.142   0.982   5.817  1.2560  1.1771 -1.9920
   20CHL1  H18C 1436   2.297   1.076   5.826  1.1073  1.0863  1.2597
   20CHL1   C12 1437   2.213   1.302   5.965 -0.6971  0.7180  0.3269
   20CHL1  H12A 1438   2.303   1.316   5.901 -0.6347  0.2085  0.3027
   20CHL1  H12B 1439   2.158   1.399   5.959  2.2980  2.9104  3.7822
   20CHL1   C11 1440   2.255   1.257   6.105 -0.4829  0.1386 -0.2077
   20CHL1  H11A 1441   2.325   1.171   6.101  0.7750  0.9373  2.5347
   20CHL1  H11B 1442   2.302   1.345   6.153  1.2412 -0.9181  0.1162
   20CHL1    C9 1443   2.123   1.220   6.187 -0.7902  0.1716  0.5965
   20CHL1    H9 1444   2.061   1.311   6.205 -0.3369  1.0071 -1.7376
   20CHL1   C10 1445   2.149   1.176   6.333  0.1440 -0.4355  0.6342
   20CHL1   C19 1446   2.248   1.060   6.337  0.9916 -0.7578  0.3010
   20CHL1  H19A 1447   2.254   1.006   6.435 -0.4799 -1.7908 -0.1389
   20CHL1  H19B 1448   2.214   0.975   6.273  1.4761 -0.1808 -0.7445
   20CHL1  H19C 1449   2.353   1.088   6.313  1.7490 -2.9494  0.8056
   20CHL1    C1 1450   2.218   1.302   6.405 -0.0662 -0.0684 -0.3648
   20CHL1   H1A 1451   2.313   1.323   6.352 -1.7481 -0.2446 -3.7081
   20CHL1   H1B 1452   2.145   1.385   6.396 -0.0504  0.0751  0.7308
   20CHL1    C2 1453   2.232   1.274   6.554  0.0722 -0.4536 -0.3212
   20CHL1   H2A 1454   2.261   1.374   6.592 -0.7880  0.1486 -1.1904
   20CHL1   H2B 1455   2.316   1.206   6.580 -0.6185 -1.7906 -1.4581
   20CHL1   C20 1456   2.153   1.207   5.620  0.2986  0.3933  0.3807
   20CHL1   H20 1457   2.171   1.099   5.602 -1.4947  0.2292 -0.5793
   20CHL1   C21 1458   2.292   1.265   5.634 -0.4209 -0.0576 -0.6445
   20CHL1  H21A 1459   2.339   1.268   5.533 -1.4306  1.8123 -1.1069
   20CHL1  H21B 1460   2.361   1.206   5.698 -0.6662  1.5181  1.1401
   20CHL1  H21C 1461   2.283   1.370   5.669  0.9538 -0.4125  0.9234
   20CHL1   C22 1462   2.071   1.252   5.493 -0.2080 -0.0442 -0.5855
   20CHL1  H22A 1463   1.967   1.214   5.484 -0.5679  1.0154 -1.0522
   20CHL1  H22B 1464   2.040   1.358   5.506 -1.0985 -0.4135  0.4547
   20CHL1   C23 1465   2.147   1.236   5.360 -0.0602  0.4655  0.0536
   20CHL1  H23A 1466   2.232   1.308   5.357  2.9196 -2.7682 -0.9733
   20CHL1  H23B 1467   2.194   1.135   5.351 -2.3314 -0.5650 -1.0651
   20CHL1   C24 1468   2.055   1.266   5.238 -1.0808  0.1236 -0.3694
   20CHL1  H24A 1469   1.984   1.182   5.231 -0.6737 -0.4566  1.6477
   20CHL1  H24B 1470   2.001   1.357   5.271  0.1349  0.3025  1.2697
   20CHL1   C25 1471   2.131   1.294   5.109  0.4229 -0.2581  0.4631
   20CHL1   H25 1472   2.194   1.385   5.116 -1.6734  1.2124  1.2161
   20CHL1   C26 1473   2.228   1.178   5.064 -0.1219 -0.3552  0.2493
   20CHL1  H26A 1474   2.291   1.204   4.976 -2.0049 -0.7740 -1.2843
   20CHL1  H26B 1475   2.291   1.150   5.152  1.3000 -1.4094 -1.0561
   20CHL1  H26C 1476   2.173   1.087   5.032 -0.0622 -0.0164 -0.8443
   20CHL1   C27 1477   2.030   1.324   4.993 -0.3224 -0.3808  0.1658
   20CHL1  H27A 1478   2.084   1.336   4.897 -1.2796  0.9956 -0.2259
   20CHL1  H27B 1479   1.957   1.240   4.988 -2.8703  1.7842 -1.6266
   20CHL1  H27C 1480   1.977   1.420   5.010 -4.0266 -2.0972 -0.6686
   21CHL1    C3 1481   0.744   3.250   7.079  0.1748 -0.7266  1.7527
   21CHL1    H3 1482   0.791   3.350   7.074  0.7901 -1.0267  1.3061
   21CHL1    O3 1483   0.746   3.236   7.216 -0.5773 -0.2663  0.3001
   21CHL1   H3' 1484   0.819   3.176   7.234  1.2308  1.9424  0.6280
   21CHL1    C4 1485   0.603   3.241   7.017 -0.2402  1.2875  0.4771
   21CHL1   H4A 1486   0.579   3.134   7.034  1.9317  0.5253 -0.8621
   21CHL1   H4B 1487   0.538   3.310   7.075  1.2077  1.9117  1.4100
   21CHL1    C5 1488   0.595   3.274   6.867  0.1986  0.1742 -0.4194
   21CHL1    C6 1489   0.520   3.373   6.814 -0.4120 -0.2348 -1.0844
   21CHL1    H6 1490   0.462   3.436   6.883 -1.7414 -2.0390 -0.5028
   21CHL1    C7 1491   0.518   3.410   6.667  0.3330  0.2714 -0.0065
   21CHL1   H7A 1492   0.421   3.453   6.634 -0.5933 -2.6323 -1.5149
   21CHL1   H7B 1493   0.590   3.492   6.650 -0.5575  0.6796 -2.1971
   21CHL1    C8 1494   0.570   3.289   6.580  0.6176  0.9448  0.3320
   21CHL1    H8 1495   0.485   3.218   6.574  0.6324  0.5127  3.7636
   21CHL1   C14 1496   0.607   3.339   6.442 -0.1144  0.4267 -0.0960
   21CHL1   H14 1497   0.701   3.393   6.465  1.6492 -2.6633  0.4567
   21CHL1   C15 1498   0.519   3.443   6.370 -0.2251  0.0256 -0.0278
   21CHL1  H15A 1499   0.415   3.415   6.398  0.0879 -1.0265  0.1216
   21CHL1  H15B 1500   0.537   3.544   6.414 -0.3681 -1.2568  3.2220
   21CHL1   C16 1501   0.550   3.423   6.224 -0.1133  0.0692  0.4311
   21CHL1  H16A 1502   0.464   3.383   6.166  0.9435 -0.7276 -0.6261
   21CHL1  H16B 1503   0.592   3.511   6.172 -1.9697  1.9329  1.9097
   21CHL1   C17 1504   0.659   3.310   6.216 -0.1958 -0.2759 -0.3390
   21CHL1   H17 1505   0.745   3.380   6.227 -1.9084  1.7554  0.8735
   21CHL1   C13 1506   0.643   3.230   6.344 -0.4764 -0.4714 -0.1113
   21CHL1   C18 1507   0.526   3.128   6.321  0.2884  0.7466 -0.3577
   21CHL1  H18A 1508   0.494   3.086   6.419  2.5528  0.4477  0.3059
   21CHL1  H18B 1509   0.436   3.186   6.292  0.0695  1.3622  1.4494
   21CHL1  H18C 1510   0.560   3.043   6.257  1.7358 -0.3877  1.7870
   21CHL1   C12 1511   0.773   3.169   6.394  0.2233  0.6416  0.5012
   21CHL1  H12A 1512   0.800   3.083   6.330  1.1148  0.3404  1.2668
   21CHL1  H12B 1513   0.858   3.241   6.398 -0.2629  1.2091  1.0050
   21CHL1   C11 1514   0.751   3.119   6.536 -0.3517  0.2199  0.8422
   21CHL1  H11A 1515   0.683   3.031   6.540  1.0238 -1.0344 -1.1886
   21CHL1  H11B 1516   0.848   3.080   6.572  0.2563  1.3948  0.5094
   21CHL1    C9 1517   0.701   3.227   6.640  0.0591  0.3224  0.8755
   21CHL1    H9 1518   0.774   3.310   6.629 -1.9238  2.3988  2.4892
   21CHL1   C10 1519   0.692   3.185   6.790  0.2267  0.3583 -0.7241
   21CHL1   C19 1520   0.617   3.052   6.788  0.6122  0.3329 -0.5050
   21CHL1  H19A 1521   0.584   3.007   6.884 -1.3476 -5.0320 -3.2508
   21CHL1  H19B 1522   0.535   3.058   6.714  0.5407 -3.4634 -0.9456
   21CHL1  H19C 1523   0.696   2.977   6.766 -1.0368 -2.4264  2.1434
   21CHL1    C1 1524   0.830   3.175   6.855  0.1008  0.5315 -0.3709
   21CHL1   H1A 1525   0.897   3.109   6.796  0.7687 -0.3547  1.3110
   21CHL1   H1B 1526   0.872   3.276   6.833 -1.7966  0.7481 -3.6735
   21CHL1    C2 1527   0.831   3.149   7.004  0.1876  0.0723  0.4671
   21CHL1   H2A 1528   0.934   3.153   7.044 -0.1654  1.7607  1.3007
   21CHL1   H2B 1529   0.810   3.041   7.019 -0.1086  0.0343 -0.1734
   21CHL1   C20 1530   0.667   3.240   6.075 -0.0960  0.1835 -0.3296
   21CHL1   H20 1531   0.597   3.154   6.072  0.1606 -0.0298 -0.1439
   21CHL1   C21 1532   0.806   3.191   6.047  0.4281  0.3908 -0.4983
   21CHL1  H21A 1533   0.881   3.270   6.068 -0.0567  0.7826 -0.2094
   21CHL1  H21B 1534   0.823   3.135   5.953  1.1385 -2.5705  1.2599
   21CHL1  H21C 1535   0.826   3.116   6.127 -1.2374 -0.1585 -0.5659
   21CHL1   C22 1536   0.634   3.339   5.957  0.4022  0.1883 -0.0810
   21CHL1  H22A 1537   0.615   3.276   5.868 -3.6578  1.5126 -0.3558
   21CHL1  H22B 1538   0.537   3.390   5.971  0.2820  0.5617 -1.9243
   21CHL1   C23 1539   0.751   3.437   5.925 -0.0201 -0.5701  0.1226
   21CHL1  H23A 1540   0.775   3.499   6.014  2.2695 -3.0323  1.3353
   21CHL1  H23B 1541   0.849   3.392   5.900  0.4270 -0.8550  2.2588
   21CHL1   C24 1542   0.710   3.536   5.813  0.0613  0.0322 -0.3750
   21CHL1  H24A 1543   0.630   3.601   5.856  0.7725  0.5379  0.2006
   21CHL1  H24B 1544   0.801   3.599   5.810  1.4704 -1.8787  0.0627
   21CHL1   C25 1545   0.661   3.476   5.683 -0.9150 -0.5686 -0.0445
   21CHL1   H25 1546   0.581   3.402   5.703  0.8350 -2.6272 -0.3086
   21CHL1   C26 1547   0.597   3.593   5.601  0.4326 -0.1291  0.6206
   21CHL1  H26A 1548   0.598   3.580   5.491  1.1385  2.3156  0.2811
   21CHL1  H26B 1549   0.496   3.615   5.641  0.8173  2.5091  0.3408
   21CHL1  H26C 1550   0.665   3.679   5.620  0.2640  0.4765 -1.3119
   21CHL1   C27 1551   0.775   3.409   5.609  0.3268  0.7647  0.3841
   21CHL1  H27A 1552   0.829   3.337   5.673 -2.3821 -0.6619  1.2166
   21CHL1  H27B 1553   0.739   3.349   5.522  2.9742 -0.2972 -0.0785
   21CHL1  H27C 1554   0.852   3.468   5.555  0.3166 -0.4021 -0.9640
   22CHL1    C3 1555   1.809   5.405   6.480 -0.0594 -0.0043 -0.4503
   22CHL1    H3 1556   1.713   5.446   6.517 -1.4930 -1.7399 -2.0697
   22CHL1    O3 1557   1.891   5.402   6.596  0.4454 -0.2736 -1.1432
   22CHL1   H3' 1558   1.913   5.494   6.614 -1.0956 -0.0729 -0.1188
   22CHL1    C4 1559   1.785   5.260   6.429 -0.0372  0.3956 -0.0088
   22CHL1   H4A 1560   1.880   5.208   6.404 -0.3146 -0.8063  1.2996
   22CHL1   H4B 1561   1.742   5.198   6.510  1.2801 -0.7490 -0.1512
   22CHL1    C5 1562   1.699   5.263   6.297  0.0927 -0.5278  0.0298
   22CHL1    C6 1563   1.594   5.179   6.284 -0.6370 -0.7566 -0.0609
   22CHL1    H6 1564   1.566   5.104   6.360 -1.1497 -1.8808 -1.3116
   22CHL1    C7 1565   1.514   5.175   6.160  0.4634  0.0404 -0.2717
   22CHL1   H7A 1566   1.490   5.069   6.138  0.3697  0.2119 -1.0355
   22CHL1   H7B 1567   1.417   5.225   6.181  0.8487  0.8692 -0.4146
   22CHL1    C8 1568   1.574   5.243   6.037 -0.5414  0.3494 -0.7260
   22CHL1    H8 1569   1.657   5.174   6.009 -0.7801 -0.0215 -0.5366
   22CHL1   C14 1570   1.469   5.261   5.933  0.0835 -0.0107 -0.5133
   22CHL1   H14 1571   1.396   5.331   5.980  0.1398 -0.3504  0.0812
   22CHL1   C15 1572   1.381   5.137   5.900  0.3256  0.2674  0.0653
   22CHL1  H15A 1573   1.437   5.043   5.916  2.0922  1.2081 -0.2562
   22CHL1  H15B 1574   1.290   5.140   5.963 -0.0490  1.0231 -0.4987
   22CHL1   C16 1575   1.338   5.169   5.749  0.2897  0.5704 -0.2952
   22CHL1  H16A 1576   1.372   5.095   5.674  3.0785  0.2295  1.1369
   22CHL1  H16B 1577   1.228   5.174   5.745  0.2757  0.1468 -0.4091
   22CHL1   C17 1578   1.391   5.312   5.716 -0.0559  0.6143  0.5428
   22CHL1   H17 1579   1.314   5.386   5.746 -0.2946  0.1102  1.1928
   22CHL1   C13 1580   1.520   5.323   5.802  0.5519  0.0545  0.2755
   22CHL1   C18 1581   1.627   5.226   5.750  0.4946 -0.0836  0.3535
   22CHL1  H18A 1582   1.649   5.242   5.642 -0.6177  1.1638  0.2793
   22CHL1  H18B 1583   1.718   5.216   5.812  1.6086  0.0519 -1.1943
   22CHL1  H18C 1584   1.587   5.125   5.772 -0.9067  0.2098 -0.7011
   22CHL1   C12 1585   1.583   5.457   5.829 -0.2859  0.1245 -0.5331
   22CHL1  H12A 1586   1.641   5.496   5.743 -0.0797 -0.6189 -0.7350
   22CHL1  H12B 1587   1.495   5.520   5.856 -1.3820 -1.5694  0.0106
   22CHL1   C11 1588   1.683   5.446   5.944 -0.8963 -0.0710 -0.2476
   22CHL1  H11A 1589   1.781   5.408   5.907 -0.4322  0.0510  0.8352
   22CHL1  H11B 1590   1.703   5.549   5.980 -3.0713  0.4408 -0.3395
   22CHL1    C9 1591   1.637   5.375   6.078  0.6454 -0.1433 -0.1859
   22CHL1    H9 1592   1.551   5.434   6.117  0.4886  0.0942 -0.8630
   22CHL1   C10 1593   1.743   5.361   6.191 -0.1276 -0.0105  0.1069
   22CHL1   C19 1594   1.874   5.309   6.137 -0.2945 -1.2128 -0.1387
   22CHL1  H19A 1595   1.856   5.220   6.074 -0.7894  0.1342 -1.9910
   22CHL1  H19B 1596   1.916   5.382   6.064 -3.7670  0.3504 -0.7912
   22CHL1  H19C 1597   1.954   5.293   6.212 -0.6807 -1.8281  0.1467
   22CHL1    C1 1598   1.760   5.500   6.258  0.2263 -0.3919  0.3915
   22CHL1   H1A 1599   1.795   5.574   6.183 -1.5349 -0.7273 -0.8408
   22CHL1   H1B 1600   1.660   5.530   6.294 -0.0904 -1.2656  0.2563
   22CHL1    C2 1601   1.861   5.501   6.374 -0.5278  0.1423 -0.6108
   22CHL1   H2A 1602   1.877   5.607   6.402  2.0850  0.1269 -1.7529
   22CHL1   H2B 1603   1.958   5.469   6.331 -0.5591 -1.5439  0.4925
   22CHL1   C20 1604   1.399   5.330   5.557 -0.3757  0.0564 -0.3104
   22CHL1   H20 1605   1.477   5.263   5.514  0.5636 -0.1452  1.5785
   22CHL1   C21 1606   1.453   5.470   5.538  0.1486 -0.5199  0.4564
   22CHL1  H21A 1607   1.406   5.507   5.444  0.0820 -0.0392  0.6752
   22CHL1  H21B 1608   1.563   5.460   5.532  0.2388  0.4186  0.3750
   22CHL1  H21C 1609   1.420   5.544   5.614 -0.3308 -1.2563  0.9800
   22CHL1   C22 1610   1.263   5.309   5.479 -0.3085  0.5403 -0.1854
   22CHL1  H22A 1611   1.196   5.244   5.538  0.7957 -0.6945 -0.2370
   22CHL1  H22B 1612   1.208   5.406   5.474 -1.5136  0.0882  2.4512
   22CHL1   C23 1613   1.275   5.264   5.331 -0.3665 -0.0707  0.0963
   22CHL1  H23A 1614   1.345   5.326   5.272 -0.9921 -1.0898 -1.7920
   22CHL1  H23B 1615   1.315   5.161   5.332  0.1995  0.1265  2.2503
   22CHL1   C24 1616   1.141   5.258   5.255 -0.6773 -0.2945 -0.0689
   22CHL1  H24A 1617   1.068   5.196   5.311 -0.3078  0.9236  1.8604
   22CHL1  H24B 1618   1.111   5.365   5.252  0.1360 -0.0721 -0.7594
   22CHL1   C25 1619   1.152   5.213   5.107  1.4940 -0.0488  0.7118
   22CHL1   H25 1620   1.177   5.105   5.106 -0.4538 -0.5798  2.6146
   22CHL1   C26 1621   1.007   5.227   5.047  0.2272 -0.2144  0.2404
   22CHL1  H26A 1622   0.947   5.147   5.095  2.1857 -1.4083  0.8355
   22CHL1  H26B 1623   0.969   5.328   5.071  0.9362  0.0058  0.4800
   22CHL1  H26C 1624   1.001   5.204   4.939  0.0757 -0.1065  0.2260
   22CHL1   C27 1625   1.248   5.295   5.020 -0.5153  0.7237 -0.2715
   22CHL1  H27A 1626   1.343   5.319   5.072 -1.8292  1.1607  2.1044
   22CHL1  H27B 1627   1.262   5.264   4.914  1.8597  0.8352 -0.0456
   22CHL1  H27C 1628   1.198   5.393   5.004 -1.9652  0.5288  2.3616
   23CHL1    C3 1629   1.898   3.358   6.293  0.1827  1.0578 -0.8949
   23CHL1    H3 1630   1.807   3.419   6.276 -0.2522  0.7595  0.2889
   23CHL1    O3 1631   1.909   3.326   6.432 -0.0107 -0.4188  0.9843
   23CHL1   H3' 1632   2.000   3.297   6.437  0.2614  0.2610  0.1949
   23CHL1    C4 1633   1.883   3.228   6.210 -0.1754 -0.4186 -0.9028
   23CHL1   H4A 1634   1.960   3.152   6.236 -1.4689 -1.0609  1.3009
   23CHL1   H4B 1635   1.780   3.194   6.234 -1.2262  3.0038  0.0423
   23CHL1    C5 1636   1.910   3.249   6.062  0.5521 -1.0964 -0.4804
   23CHL1    C6 1637   1.812   3.209   5.980  0.2721  0.0317  0.3875
   23CHL1    H6 1638   1.726   3.155   6.022  0.1232 -0.3843 -0.4393
   23CHL1    C7 1639   1.817   3.227   5.830  0.5266 -0.7602  0.4859
   23CHL1   H7A 1640   1.801   3.130   5.777  0.4383 -0.9288  0.8198
   23CHL1   H7B 1641   1.754   3.307   5.787 -0.2184 -2.0408 -0.9070
   23CHL1    C8 1642   1.964   3.257   5.789  0.0127  0.2540  0.2039
   23CHL1    H8 1643   2.024   3.168   5.816 -0.6682 -0.4315 -0.5096
   23CHL1   C14 1644   1.972   3.285   5.641 -0.4035  1.1701 -0.3082
   23CHL1   H14 1645   1.893   3.361   5.621 -2.9654 -1.4238 -0.7294
   23CHL1   C15 1646   1.923   3.172   5.546  0.3819 -0.2352  0.5340
   23CHL1  H15A 1647   1.980   3.082   5.579 -0.2906 -0.1804  1.9298
   23CHL1  H15B 1648   1.818   3.136   5.547  0.0018  0.8353  1.3716
   23CHL1   C16 1649   1.973   3.224   5.411  0.5408  0.3733  1.1218
   23CHL1  H16A 1650   2.017   3.139   5.355  0.7137  0.3744  1.2538
   23CHL1  H16B 1651   1.887   3.263   5.353 -0.4195 -1.4571  1.2567
   23CHL1   C17 1652   2.080   3.328   5.433 -0.1105  0.0551 -0.6277
   23CHL1   H17 1653   2.020   3.420   5.416  0.3955  0.3947 -0.6264
   23CHL1   C13 1654   2.109   3.328   5.586  0.4889 -1.3138 -0.3556
   23CHL1   C18 1655   2.212   3.211   5.609  0.0747  0.3090 -0.2566
   23CHL1  H18A 1656   2.191   3.124   5.544 -2.6658 -0.2606  1.2486
   23CHL1  H18B 1657   2.312   3.240   5.570  1.5143 -0.6187  2.4667
   23CHL1  H18C 1658   2.220   3.182   5.716 -1.3698 -1.5628 -0.6067
   23CHL1   C12 1659   2.148   3.461   5.660  0.2553 -0.1272 -0.0714
   23CHL1  H12A 1660   2.254   3.489   5.637  0.3470 -1.1773 -1.0239
   23CHL1  H12B 1661   2.074   3.542   5.646 -0.4718 -0.6822  0.4959
   23CHL1   C11 1662   2.155   3.432   5.810 -0.6883 -0.1528  0.6463
   23CHL1  H11A 1663   2.253   3.380   5.818 -0.5148  0.2774  1.4372
   23CHL1  H11B 1664   2.168   3.532   5.856  0.2751 -0.4843  1.1194
   23CHL1    C9 1665   2.030   3.366   5.871  0.3798  0.1313  0.2434
   23CHL1    H9 1666   1.955   3.448   5.866  0.7187  0.4047 -0.5375
   23CHL1   C10 1667   2.037   3.327   6.021  0.4343  0.0904  0.3613
   23CHL1   C19 1668   2.158   3.238   6.051 -0.5781 -0.0444  0.3910
   23CHL1  H19A 1669   2.140   3.199   6.153  0.1026 -0.3564  0.3928
   23CHL1  H19B 1670   2.165   3.155   5.977  1.0673 -0.4836  1.0090
   23CHL1  H19C 1671   2.255   3.293   6.049  0.6514 -2.1234 -0.7706
   23CHL1    C1 1672   2.036   3.454   6.100  0.9696  0.2921 -0.3913
   23CHL1   H1A 1673   2.128   3.508   6.071  1.5112 -0.3824  0.0412
   23CHL1   H1B 1674   1.952   3.522   6.074 -1.2512 -1.8844  0.6886
   23CHL1    C2 1675   2.031   3.426   6.255 -0.4167 -0.4465 -0.0437
   23CHL1   H2A 1676   2.037   3.528   6.299  1.0115 -0.3945 -0.3254
   23CHL1   H2B 1677   2.128   3.376   6.276 -1.0704 -1.2432  1.2655
   23CHL1   C20 1678   2.192   3.330   5.327  0.2459 -0.7099  0.8083
   23CHL1   H20 1679   2.241   3.231   5.326 -0.5411 -1.1690 -1.9451
   23CHL1   C21 1680   2.277   3.444   5.360  0.0858  0.2742  0.2216
   23CHL1  H21A 1681   2.360   3.453   5.286  0.4926  1.5779  0.8111
   23CHL1  H21B 1682   2.328   3.436   5.459 -0.1547  1.6500  0.4818
   23CHL1  H21C 1683   2.223   3.541   5.354  0.2218  0.2766 -1.2462
   23CHL1   C22 1684   2.137   3.352   5.180  0.4230 -0.3430 -0.2900
   23CHL1  H22A 1685   2.072   3.262   5.176  0.4799 -0.3825 -0.3210
   23CHL1  H22B 1686   2.077   3.446   5.174  1.7982  0.6159  0.2349
   23CHL1   C23 1687   2.243   3.353   5.066  0.5623 -0.2140 -0.1793
   23CHL1  H23A 1688   2.201   3.335   4.964 -0.4106 -0.0735  0.1844
   23CHL1  H23B 1689   2.299   3.448   5.064 -1.2169  0.9091  0.7142
   23CHL1   C24 1690   2.337   3.227   5.071  0.6636 -0.2410  0.1576
   23CHL1  H24A 1691   2.406   3.224   5.157  1.7321  0.2530 -0.6532
   23CHL1  H24B 1692   2.272   3.137   5.075  3.0223 -1.9992  0.5629
   23CHL1   C25 1693   2.438   3.213   4.952 -0.2509 -0.3722 -0.0421
   23CHL1   H25 1694   2.371   3.223   4.864  0.2306  3.3297 -0.1452
   23CHL1   C26 1695   2.542   3.326   4.952 -0.1495  0.7118  0.0772
   23CHL1  H26A 1696   2.568   3.357   5.055  1.2989  0.7764 -0.2906
   23CHL1  H26B 1697   2.630   3.314   4.886 -1.0783 -1.6820 -0.8460
   23CHL1  H26C 1698   2.484   3.410   4.907  0.0242  0.3195 -0.9027
   23CHL1   C27 1699   2.490   3.067   4.958 -0.5058 -0.2416 -0.1843
   23CHL1  H27A 1700   2.537   3.048   5.056 -0.9817  0.2264  0.1398
   23CHL1  H27B 1701   2.397   3.009   4.943 -0.0092 -1.5779  1.6311
   23CHL1  H27C 1702   2.565   3.034   4.882 -0.6972  0.1242 -0.5388
   24CHL1    C3 1703   3.008   0.024   6.509  0.0256 -0.0280 -0.2142
   24CHL1    H3 1704   3.110  -0.020   6.512  0.2762  0.6247  2.1341
   24CHL1    O3 1705   2.959   0.004   6.638 -0.1500  1.2918 -0.3562
   24CHL1   H3' 1706   2.887  -0.058   6.628 -1.1815  1.0341  5.3582
   24CHL1    C4 1707   3.016   0.176   6.475 -0.0261  0.2555  0.2763
   24CHL1   H4A 1708   2.916   0.222   6.485  0.4894  2.8517 -3.9545
   24CHL1   H4B 1709   3.088   0.222   6.547  0.5366 -1.1601  0.6474
   24CHL1    C5 1710   3.052   0.204   6.329  0.4881  0.5938  0.1550
   24CHL1    C6 1711   3.145   0.283   6.286  0.2004 -0.2282 -0.9776
   24CHL1    H6 1712   3.191   0.351   6.360  0.6475 -1.5631 -0.0008
   24CHL1    C7 1713   3.167   0.315   6.143  0.0250 -0.3593  0.5248
   24CHL1   H7A 1714   3.174   0.426   6.143  0.2451 -0.3743  0.6842
   24CHL1   H7B 1715   3.263   0.267   6.114  0.9361  1.9196 -0.4944
   24CHL1    C8 1716   3.049   0.278   6.049  0.3410 -0.1431 -0.0916
   24CHL1    H8 1717   2.975   0.361   6.061  0.6575  0.3552 -1.4345
   24CHL1   C14 1718   3.098   0.281   5.900 -0.2384  0.2161  0.5169
   24CHL1   H14 1719   3.180   0.206   5.893 -1.0242 -0.5410 -1.4414
   24CHL1   C15 1720   3.165   0.413   5.860 -0.1344  0.5430 -0.0271
   24CHL1  H15A 1721   3.097   0.489   5.904 -1.2342 -0.4217 -0.0122
   24CHL1  H15B 1722   3.271   0.431   5.891 -0.3587  2.1337 -0.0558
   24CHL1   C16 1723   3.166   0.401   5.712 -0.2898  0.7354  0.7750
   24CHL1  H16A 1724   3.112   0.487   5.667 -0.8881 -0.5296 -1.0561
   24CHL1  H16B 1725   3.271   0.392   5.674  0.4717  0.3158  2.8572
   24CHL1   C17 1726   3.084   0.276   5.674  0.1889 -0.3271 -0.8155
   24CHL1   H17 1727   3.165   0.200   5.673 -1.8540 -2.6609 -0.9829
   24CHL1   C13 1728   2.992   0.243   5.795  0.3639 -0.1274  0.1868
   24CHL1   C18 1729   2.873   0.347   5.804 -0.1866  0.0221  0.4752
   24CHL1  H18A 1730   2.840   0.360   5.909 -1.1005 -1.1180  0.3558
   24CHL1  H18B 1731   2.896   0.449   5.767  0.0551 -0.0391  0.4562
   24CHL1  H18C 1732   2.793   0.303   5.741 -1.6906 -0.0327  2.3446
   24CHL1   C12 1733   2.937   0.106   5.830 -0.6955  0.8384 -0.3546
   24CHL1  H12A 1734   2.844   0.087   5.772 -0.7267 -3.4456  0.7102
   24CHL1  H12B 1735   3.012   0.028   5.805  1.1219  1.9648  1.2949
   24CHL1   C11 1736   2.897   0.083   5.973 -0.2406  0.1860  0.2925
   24CHL1  H11A 1737   2.809   0.151   5.984 -0.5779 -0.6308  3.3501
   24CHL1  H11B 1738   2.862  -0.019   5.996 -0.4698  0.2507  0.2356
   24CHL1    C9 1739   3.003   0.136   6.079  0.0740  0.3284  0.2866
   24CHL1    H9 1740   3.090   0.069   6.063  1.2409  1.5936  1.0469
   24CHL1   C10 1741   2.953   0.123   6.235 -0.2212  0.2072  0.8646
   24CHL1   C19 1742   2.803   0.172   6.246 -0.2081 -0.9464  0.6995
   24CHL1  H19A 1743   2.732   0.128   6.173 -0.9192 -0.8848  1.3385
   24CHL1  H19B 1744   2.758   0.170   6.348 -0.4238  1.6591  0.7257
   24CHL1  H19C 1745   2.809   0.278   6.215 -0.8138 -0.7411  1.2694
   24CHL1    C1 1746   2.952  -0.028   6.273 -0.3309 -0.9583 -0.1976
   24CHL1   H1A 1747   2.874  -0.069   6.206 -1.2799 -0.6580  0.7037
   24CHL1   H1B 1748   3.045  -0.074   6.233  0.4240  3.3027 -4.2481
   24CHL1    C2 1749   2.928  -0.066   6.414 -0.3396 -0.5497 -0.7498
   24CHL1   H2A 1750   2.939  -0.173   6.442  0.5553 -0.6733 -1.5202
   24CHL1   H2B 1751   2.823  -0.039   6.440  0.0457 -0.0012  0.2857
   24CHL1   C20 1752   3.015   0.278   5.537  0.2384  0.5137  0.3410
   24CHL1   H20 1753   2.939   0.359   5.543 -1.4577 -0.7052 -2.4955
   24CHL1   C21 1754   2.951   0.145   5.504 -0.4651 -0.4837 -0.3645
   24CHL1  H21A 1755   2.863   0.139   5.571  0.9576  3.8738  2.2885
   24CHL1  H21B 1756   3.025   0.062   5.517  1.4723  1.2757  0.5205
   24CHL1  H21C 1757   2.916   0.129   5.400  1.9703 -1.2473 -1.1611
   24CHL1   C22 1758   3.105   0.334   5.415  0.5616 -0.2051 -0.3918
   24CHL1  H22A 1759   3.032   0.333   5.332  1.6363 -1.8633 -1.3947
   24CHL1  H22B 1760   3.135   0.436   5.445 -0.2401 -0.5960  1.9610
   24CHL1   C23 1761   3.223   0.243   5.365 -0.4942  0.5433  0.6418
   24CHL1  H23A 1762   3.293   0.242   5.451  0.3725 -1.5829 -0.0396
   24CHL1  H23B 1763   3.194   0.136   5.362  1.9626 -0.2053 -2.9397
   24CHL1   C24 1764   3.298   0.286   5.233 -0.2943  0.1595 -0.5338
   24CHL1  H24A 1765   3.339   0.388   5.249 -1.6235  0.3557  2.3731
   24CHL1  H24B 1766   3.382   0.215   5.223  0.1526  0.6360 -0.1837
   24CHL1   C25 1767   3.206   0.298   5.106 -0.5360  1.0840 -0.2541
   24CHL1   H25 1768   3.126   0.369   5.135 -0.0862  0.9467  1.4129
   24CHL1   C26 1769   3.287   0.349   4.995 -0.1811  0.6867 -0.7141
   24CHL1  H26A 1770   3.377   0.289   4.971 -0.0858 -0.1739  1.5256
   24CHL1  H26B 1771   3.233   0.334   4.899 -0.3561 -1.2969 -0.3613
   24CHL1  H26C 1772   3.312   0.455   5.014  1.5570 -0.1973  2.7999
   24CHL1   C27 1773   3.139   0.173   5.060 -0.4911  0.5157 -0.0697
   24CHL1  H27A 1774   3.076   0.129   5.140 -0.7096  1.1351  0.1062
   24CHL1  H27B 1775   3.081   0.192   4.968 -0.4152 -3.0598 -1.0218
   24CHL1  H27C 1776   3.222   0.104   5.032  0.0759  0.4411  1.6949
   25CHL1    C3 1777   5.607   3.157   6.407  0.0937 -0.4163  0.7536
   25CHL1    H3 1778   5.584   3.051   6.383 -3.2839  0.3297  0.1340
   25CHL1    O3 1779   5.580   3.195   6.536 -0.5151 -0.3122 -0.5507
   25CHL1   H3' 1780   5.609   3.285   6.553  1.5362 -1.1635  0.9660
   25CHL1    C4 1781   5.756   3.190   6.388 -0.0941  0.0353  0.0568
   25CHL1   H4A 1782   5.770   3.298   6.406 -2.4143  0.7608 -1.9506
   25CHL1   H4B 1783   5.827   3.129   6.448  0.9067 -1.0760 -2.1367
   25CHL1    C5 1784   5.814   3.160   6.249 -1.0952 -0.4891  0.9140
   25CHL1    C6 1785   5.928   3.092   6.221  0.3715 -0.0450 -0.1963
   25CHL1    H6 1786   5.989   3.051   6.303 -0.6104 -0.0796  0.5274
   25CHL1    C7 1787   5.976   3.070   6.078 -0.7017 -0.0543  0.1467
   25CHL1   H7A 1788   6.086   3.088   6.069 -0.7095  1.2330  1.9648
   25CHL1   H7B 1789   5.956   2.967   6.043  0.4830  0.1740 -1.3284
   25CHL1    C8 1790   5.902   3.156   5.970  0.1071 -0.1662 -0.0767
   25CHL1    H8 1791   5.950   3.256   5.969  1.4588 -0.7896 -1.7478
   25CHL1   C14 1792   5.932   3.087   5.829 -1.0007 -0.2221 -0.4169
   25CHL1   H14 1793   5.879   2.989   5.831 -1.1865 -0.1412 -1.0824
   25CHL1   C15 1794   6.079   3.044   5.786  0.1306  0.0308  0.3563
   25CHL1  H15A 1795   6.161   3.114   5.813  2.2327 -2.3930  0.6484
   25CHL1  H15B 1796   6.100   2.945   5.831  0.2422 -0.0674  0.0880
   25CHL1   C16 1797   6.068   3.044   5.629  0.4875  0.5071  0.6949
   25CHL1  H16A 1798   6.138   3.121   5.591  2.2887 -0.2138  2.3860
   25CHL1  H16B 1799   6.088   2.945   5.582  0.9333  0.8460  0.1510
   25CHL1   C17 1800   5.920   3.098   5.597 -0.0103  0.2898  0.1405
   25CHL1   H17 1801   5.862   3.003   5.592 -0.7113  0.7250 -0.1292
   25CHL1   C13 1802   5.869   3.173   5.718  0.2501 -0.0426 -0.1801
   25CHL1   C18 1803   5.926   3.312   5.723 -0.2478 -0.2674 -0.4886
   25CHL1  H18A 1804   5.888   3.362   5.814  1.9799  1.2523 -0.3197
   25CHL1  H18B 1805   6.037   3.312   5.727 -0.2792 -0.8021  0.7430
   25CHL1  H18C 1806   5.872   3.370   5.645  0.0235 -0.7622 -1.0576
   25CHL1   C12 1807   5.711   3.169   5.740  1.1147  0.8191  0.6400
   25CHL1  H12A 1808   5.645   3.211   5.661 -0.0824 -2.3081 -0.1737
   25CHL1  H12B 1809   5.681   3.062   5.747 -2.6215  1.5925 -1.0717
   25CHL1   C11 1810   5.672   3.221   5.875  0.1736 -0.4586  0.2268
   25CHL1  H11A 1811   5.684   3.331   5.871  0.3517 -0.3542  2.5897
   25CHL1  H11B 1812   5.563   3.209   5.894 -0.5695  2.2455 -1.6804
   25CHL1    C9 1813   5.747   3.155   5.999  0.4579  0.1921  0.0698
   25CHL1    H9 1814   5.713   3.049   5.992 -0.6376  0.5024  0.4723
   25CHL1   C10 1815   5.722   3.223   6.139 -0.0568 -0.0931  0.8832
   25CHL1   C19 1816   5.758   3.369   6.142  0.2096 -0.6003  0.7400
   25CHL1  H19A 1817   5.866   3.381   6.120 -0.0031  0.6687  0.3315
   25CHL1  H19B 1818   5.695   3.422   6.067  0.4622 -1.0338  0.2059
   25CHL1  H19C 1819   5.742   3.412   6.243  3.0804 -1.1466  1.5003
   25CHL1    C1 1820   5.571   3.207   6.170  0.4581  0.5120  0.8617
   25CHL1   H1A 1821   5.504   3.271   6.109  1.9051  1.0501 -0.2332
   25CHL1   H1B 1822   5.549   3.099   6.156  2.1164  0.2838 -0.4215
   25CHL1    C2 1823   5.527   3.242   6.315  0.0088 -0.2974  0.5901
   25CHL1   H2A 1824   5.417   3.241   6.325  0.0636  1.5758  2.0078
   25CHL1   H2B 1825   5.547   3.351   6.328 -1.0960 -0.2183  1.8098
   25CHL1   C20 1826   5.914   3.164   5.459  0.9366 -0.2458  0.1177
   25CHL1   H20 1827   5.981   3.253   5.454 -1.2189  1.4849  0.0633
   25CHL1   C21 1828   5.770   3.225   5.421 -0.1122 -0.1168 -0.0979
   25CHL1  H21A 1829   5.755   3.319   5.480  1.7326  0.0671  0.1515
   25CHL1  H21B 1830   5.693   3.146   5.432  0.7849 -0.7474  2.3682
   25CHL1  H21C 1831   5.776   3.244   5.312  1.0150 -3.0022 -0.6288
   25CHL1   C22 1832   5.964   3.069   5.339 -0.8307  0.0671 -0.2716
   25CHL1  H22A 1833   5.958   3.133   5.249  0.9083  2.2484  1.0324
   25CHL1  H22B 1834   6.074   3.057   5.346 -0.7551  0.8111 -0.0896
   25CHL1   C23 1835   5.888   2.939   5.325 -0.1530  0.1523  0.4650
   25CHL1  H23A 1836   5.877   2.876   5.415 -0.6853  1.6437  1.4913
   25CHL1  H23B 1837   5.781   2.968   5.312 -0.1983 -0.7449 -1.6068
   25CHL1   C24 1838   5.927   2.859   5.199 -0.1044  0.3379 -0.1118
   25CHL1  H24A 1839   5.850   2.780   5.185  0.2416 -0.4258  1.8778
   25CHL1  H24B 1840   5.929   2.919   5.106 -0.8314 -1.7316 -1.5321
   25CHL1   C25 1841   6.071   2.806   5.214  0.1183  0.4948  0.4117
   25CHL1   H25 1842   6.142   2.891   5.218 -1.2186  1.7524 -1.1815
   25CHL1   C26 1843   6.083   2.713   5.341  0.5874 -0.4744  0.8263
   25CHL1  H26A 1844   6.078   2.778   5.430  0.1946 -0.1802  0.5947
   25CHL1  H26B 1845   6.019   2.623   5.330  0.1904  0.0655 -2.4174
   25CHL1  H26C 1846   6.189   2.680   5.342  0.9831  0.6612 -0.3419
   25CHL1   C27 1847   6.122   2.708   5.098 -0.0311 -0.0441 -0.5526
   25CHL1  H27A 1848   6.072   2.738   5.004 -2.0613 -0.2958  0.3729
   25CHL1  H27B 1849   6.231   2.688   5.103  0.2970  1.7860  2.1935
   25CHL1  H27C 1850   6.076   2.611   5.125 -0.1169  0.3653  0.8701
   26CHL1    C3 1851   3.531   1.174   6.590 -0.1682  0.1580  0.5453
   26CHL1    H3 1852   3.519   1.068   6.559 -0.8046 -0.0932  1.6112
   26CHL1    O3 1853   3.569   1.186   6.726  0.6785  0.0308 -0.3593
   26CHL1   H3' 1854   3.577   1.276   6.760 -0.8076 -0.0460  0.2491
   26CHL1    C4 1855   3.636   1.245   6.503  0.8150  0.5266  0.4279
   26CHL1   H4A 1856   3.644   1.346   6.550  1.9339  0.3276  0.7079
   26CHL1   H4B 1857   3.732   1.194   6.527 -0.3385 -1.3564  1.2370
   26CHL1    C5 1858   3.598   1.242   6.363  0.7930  0.2903  0.9734
   26CHL1    C6 1859   3.687   1.189   6.272 -0.1287  0.1056 -0.1225
   26CHL1    H6 1860   3.783   1.151   6.310  0.6044  0.2032 -1.7843
   26CHL1    C7 1861   3.662   1.181   6.123 -0.0197 -0.0664  1.0463
   26CHL1   H7A 1862   3.753   1.208   6.065  1.0034  1.0127  3.0629
   26CHL1   H7B 1863   3.623   1.082   6.090  0.7145  0.7106 -2.5895
   26CHL1    C8 1864   3.539   1.270   6.085 -0.3959 -0.2650  0.1129
   26CHL1    H8 1865   3.579   1.373   6.100  0.6652 -0.9994  2.8784
   26CHL1   C14 1866   3.503   1.248   5.947  0.4531  0.5257  0.5850
   26CHL1   H14 1867   3.478   1.140   5.933  0.5425  0.0430  3.5210
   26CHL1   C15 1868   3.619   1.267   5.841 -0.2727 -0.6509  0.0090
   26CHL1  H15A 1869   3.659   1.370   5.855  1.0138 -1.0754 -0.4124
   26CHL1  H15B 1870   3.698   1.190   5.853 -1.3538 -1.9238 -0.7855
   26CHL1   C16 1871   3.533   1.265   5.713  0.1236  0.7033  0.6071
   26CHL1  H16A 1872   3.546   1.359   5.656 -1.5982  1.1755  0.9317
   26CHL1  H16B 1873   3.556   1.178   5.648 -0.6280  0.5800  0.5030
   26CHL1   C17 1874   3.386   1.282   5.747 -0.1299 -0.0380  0.3334
   26CHL1   H17 1875   3.341   1.181   5.759  2.1561 -1.3192 -1.2118
   26CHL1   C13 1876   3.384   1.328   5.892  0.0835 -0.5154  0.3419
   26CHL1   C18 1877   3.408   1.478   5.896  1.0828 -0.3491 -0.2826
   26CHL1  H18A 1878   3.314   1.532   5.874  2.0817  0.9208 -1.5929
   26CHL1  H18B 1879   3.439   1.506   5.999  0.7547 -1.5671  0.1749
   26CHL1  H18C 1880   3.477   1.509   5.815 -0.5117  1.7770 -0.8954
   26CHL1   C12 1881   3.265   1.279   5.973  0.0609  0.0942 -0.4980
   26CHL1  H12A 1882   3.169   1.328   5.946 -0.0640 -1.0032 -2.2015
   26CHL1  H12B 1883   3.250   1.170   5.961  0.1078  0.3159 -3.4296
   26CHL1   C11 1884   3.282   1.302   6.126  0.1792  0.0810 -0.3877
   26CHL1  H11A 1885   3.277   1.412   6.137  0.0111 -0.1135  2.1098
   26CHL1  H11B 1886   3.198   1.257   6.183  0.9259  1.3618  1.8603
   26CHL1    C9 1887   3.420   1.247   6.179  0.1455  0.2632 -0.1795
   26CHL1    H9 1888   3.408   1.137   6.190 -0.8674  0.3610 -0.2363
   26CHL1   C10 1889   3.459   1.293   6.322 -0.4702 -0.3702  0.0516
   26CHL1   C19 1890   3.476   1.448   6.333 -0.4936  0.2651 -0.1960
   26CHL1  H19A 1891   3.480   1.494   6.434 -0.7650  2.5258 -1.1517
   26CHL1  H19B 1892   3.567   1.496   6.292 -0.5995  0.8346  0.2133
   26CHL1  H19C 1893   3.387   1.496   6.288 -2.1681 -2.6403 -0.2819
   26CHL1    C1 1894   3.348   1.244   6.417  0.0177  0.6653  0.0616
   26CHL1   H1A 1895   3.258   1.310   6.408 -1.9756 -1.5916  2.1380
   26CHL1   H1B 1896   3.316   1.147   6.375  1.1520  1.5100 -3.0365
   26CHL1    C2 1897   3.388   1.242   6.567  0.7369  0.3002  0.1258
   26CHL1   H2A 1898   3.315   1.194   6.636  1.3130 -0.3514  0.3026
   26CHL1   H2B 1899   3.415   1.342   6.607  0.9620  0.7813 -1.1801
   26CHL1   C20 1900   3.300   1.364   5.645 -0.2225  0.4027 -0.8887
   26CHL1   H20 1901   3.341   1.467   5.638 -1.0119  0.7572 -0.3241
   26CHL1   C21 1902   3.148   1.373   5.681  0.0505 -0.1658 -0.0122
   26CHL1  H21A 1903   3.112   1.269   5.693 -1.6109  0.5650  2.0124
   26CHL1  H21B 1904   3.084   1.428   5.609 -0.7517 -0.1420  0.7073
   26CHL1  H21C 1905   3.123   1.419   5.779 -0.9959 -2.3510  0.7960
   26CHL1   C22 1906   3.306   1.294   5.506  0.0947  0.3846  0.5195
   26CHL1  H22A 1907   3.410   1.287   5.470 -1.4210 -0.4724 -4.3951
   26CHL1  H22B 1908   3.266   1.191   5.517  0.0063  0.6293  3.1713
   26CHL1   C23 1909   3.219   1.364   5.395  0.3656 -0.1058  0.1947
   26CHL1  H23A 1910   3.113   1.363   5.426  0.6993 -0.1005  1.4029
   26CHL1  H23B 1911   3.242   1.473   5.401 -2.2175  0.5705 -1.0510
   26CHL1   C24 1912   3.227   1.300   5.257  0.1667  0.4865 -0.1976
   26CHL1  H24A 1913   3.331   1.280   5.223  1.1187 -3.0399  3.9302
   26CHL1  H24B 1914   3.172   1.206   5.278 -3.4465  2.6343  0.7289
   26CHL1   C25 1915   3.144   1.361   5.136 -0.5421  0.2346 -0.6118
   26CHL1   H25 1916   3.057   1.423   5.166  0.5771  1.7351 -0.3054
   26CHL1   C26 1917   3.241   1.473   5.082 -0.1476  0.5430  0.0296
   26CHL1  H26A 1918   3.208   1.509   4.982  2.9127 -0.6053 -1.4981
   26CHL1  H26B 1919   3.246   1.555   5.157  0.7660  0.2192  0.3353
   26CHL1  H26C 1920   3.341   1.427   5.067  0.0931  0.6093  1.3046
   26CHL1   C27 1921   3.121   1.261   5.026 -0.1614 -0.6928 -0.6227
   26CHL1  H27A 1922   3.070   1.300   4.936  0.9022 -1.3750 -1.5628
   26CHL1  H27B 1923   3.214   1.215   4.986 -0.9623 -1.2701 -1.8978
   26CHL1  H27C 1924   3.063   1.174   5.065 -0.4767  0.0032  0.4966
   27CHL1    C3 1925   1.512   0.263   6.382  0.0707 -0.1416  0.4140
   27CHL1    H3 1926   1.573   0.354   6.369 -2.2933  1.9980  3.1265
   27CHL1    O3 1927   1.492   0.246   6.524  0.0566 -0.1270  0.5954
   27CHL1   H3' 1928   1.564   0.186   6.544  0.0858 -0.1571  0.4029
   27CHL1    C4 1929   1.377   0.292   6.301  0.2003  0.3324  0.4727
   27CHL1   H4A 1930   1.294   0.223   6.326 -1.0764  1.6547  0.0114
   27CHL1   H4B 1931   1.349   0.395   6.332  1.8138  1.1851 -0.7078
   27CHL1    C5 1932   1.399   0.289   6.153  0.6992 -0.4303 -0.1238
   27CHL1    C6 1933   1.364   0.393   6.071  0.8254 -1.0434  0.0204
   27CHL1    H6 1934   1.321   0.484   6.116  1.9023 -0.4802 -0.0743
   27CHL1    C7 1935   1.378   0.401   5.919 -1.3230  0.0317  0.0660
   27CHL1   H7A 1936   1.288   0.434   5.864 -0.0216 -0.9211 -2.8073
   27CHL1   H7B 1937   1.458   0.474   5.895 -3.1341  1.7719 -0.9691
   27CHL1    C8 1938   1.414   0.262   5.853 -0.0906  0.2634 -0.1553
   27CHL1    H8 1939   1.325   0.196   5.843  0.4914 -0.2896 -2.2737
   27CHL1   C14 1940   1.470   0.269   5.715 -0.1946 -0.0766 -1.1874
   27CHL1   H14 1941   1.562   0.317   5.755 -3.1038  2.1861  3.6821
   27CHL1   C15 1942   1.405   0.360   5.613 -1.3937 -0.0221 -0.3709
   27CHL1  H15A 1943   1.305   0.317   5.597 -0.4527 -2.0677 -1.0174
   27CHL1  H15B 1944   1.416   0.463   5.654  0.6154 -0.7048  0.9603
   27CHL1   C16 1945   1.491   0.328   5.489 -0.3206  0.3020  0.2305
   27CHL1  H16A 1946   1.415   0.286   5.419  1.7807 -0.5831 -1.6781
   27CHL1  H16B 1947   1.540   0.419   5.450 -1.7729  0.3816 -1.5944
   27CHL1   C17 1948   1.581   0.206   5.517 -0.7035 -0.0589  0.4064
   27CHL1   H17 1949   1.672   0.260   5.551 -1.5592  1.0955  0.9353
   27CHL1   C13 1950   1.515   0.149   5.640  0.0443  0.4609 -0.3393
   27CHL1   C18 1951   1.397   0.059   5.611  0.2972 -0.0086  0.2571
   27CHL1  H18A 1952   1.329   0.099   5.533  0.4007  0.8427  0.5939
   27CHL1  H18B 1953   1.434  -0.029   5.555 -1.6570  0.3516 -1.7163
   27CHL1  H18C 1954   1.339   0.021   5.698 -1.4322 -5.4616 -2.7800
   27CHL1   C12 1955   1.618   0.073   5.730 -0.8450 -0.3140 -0.3290
   27CHL1  H12A 1956   1.667  -0.019   5.691  2.2574  1.0450  0.0853
   27CHL1  H12B 1957   1.704   0.143   5.733 -1.5302  0.5949 -1.2058
   27CHL1   C11 1958   1.566   0.049   5.872  1.1688 -0.2180 -0.4460
   27CHL1  H11A 1959   1.488  -0.030   5.871  2.6369 -1.7051 -1.2125
   27CHL1  H11B 1960   1.658   0.014   5.922 -0.2317  0.7577  3.1406
   27CHL1    C9 1961   1.508   0.180   5.942  0.0487 -0.5232 -0.0859
   27CHL1    H9 1962   1.595   0.248   5.954 -0.6116  0.1545  0.8743
   27CHL1   C10 1963   1.467   0.161   6.088  0.4927 -0.6739 -0.0039
   27CHL1   C19 1964   1.368   0.044   6.096 -0.1419  0.1359 -0.8608
   27CHL1  H19A 1965   1.275   0.074   6.045 -1.0237 -0.9044  0.0874
   27CHL1  H19B 1966   1.407  -0.054   6.060 -0.3901  0.1760 -1.2355
   27CHL1  H19C 1967   1.338   0.026   6.202 -0.1519  2.7269 -0.3626
   27CHL1    C1 1968   1.586   0.130   6.176 -0.3000  0.5080  0.3354
   27CHL1   H1A 1969   1.619   0.030   6.139 -1.4659  0.6176 -1.0827
   27CHL1   H1B 1970   1.672   0.195   6.147  1.3015 -1.3021  0.7579
   27CHL1    C2 1971   1.572   0.131   6.328  0.9005  0.0933  0.1575
   27CHL1   H2A 1972   1.669   0.118   6.380  1.5804  1.2043 -0.7885
   27CHL1   H2B 1973   1.493   0.057   6.353 -0.7879  2.4893  2.5913
   27CHL1   C20 1974   1.616   0.119   5.394 -0.6059 -0.3904 -0.2793
   27CHL1   H20 1975   1.518   0.083   5.356  0.0753 -0.7058 -1.7958
   27CHL1   C21 1976   1.705  -0.002   5.433  0.1112  0.1458  0.0951
   27CHL1  H21A 1977   1.640  -0.075   5.486  0.7229 -0.1984  0.3811
   27CHL1  H21B 1978   1.786   0.012   5.508  1.1089 -2.8464 -0.2887
   27CHL1  H21C 1979   1.738  -0.060   5.344 -1.7266  1.6726 -1.7050
   27CHL1   C22 1980   1.692   0.201   5.281  0.0781 -0.3365  0.0785
   27CHL1  H22A 1981   1.733   0.292   5.329  0.6362  0.0345 -1.0539
   27CHL1  H22B 1982   1.777   0.148   5.233 -0.0502  0.1143 -0.6665
   27CHL1   C23 1983   1.599   0.238   5.166  0.0614 -0.8461  0.6135
   27CHL1  H23A 1984   1.499   0.264   5.206  0.3851 -2.1776  2.4378
   27CHL1  H23B 1985   1.641   0.322   5.107 -0.4367 -1.4776 -0.6893
   27CHL1   C24 1986   1.588   0.120   5.068  0.2453  0.0423  0.4809
   27CHL1  H24A 1987   1.687   0.091   5.028 -0.1831 -0.4864 -0.2244
   27CHL1  H24B 1988   1.552   0.024   5.112 -0.5789 -0.5643 -1.4093
   27CHL1   C25 1989   1.504   0.148   4.944  0.4657 -0.9509 -0.0053
   27CHL1   H25 1990   1.531   0.243   4.892 -0.7557 -1.4576 -1.6352
   27CHL1   C26 1991   1.547   0.040   4.841 -0.0344 -0.3579  0.2702
   27CHL1  H26A 1992   1.537  -0.062   4.883 -0.7117 -0.1250  0.6986
   27CHL1  H26B 1993   1.483   0.057   4.751  0.3225  2.3424  0.4275
   27CHL1  H26C 1994   1.651   0.061   4.806 -0.7045 -0.1119 -1.7510
   27CHL1   C27 1995   1.361   0.154   4.980  0.1597 -0.1871 -0.0245
   27CHL1  H27A 1996   1.323   0.230   5.051 -1.2785 -0.7197 -0.1880
   27CHL1  H27B 1997   1.302   0.166   4.886  1.7826  1.0162 -0.9258
   27CHL1  H27C 1998   1.341   0.053   5.022  1.5538 -0.2437  0.5314
   28CHL1    C3 1999   1.732   0.756   6.434  0.0224 -0.4247 -0.0225
   28CHL1    H3 2000   1.738   0.866   6.420 -0.5506 -0.5470 -1.3079
   28CHL1    O3 2001   1.703   0.734   6.573 -0.6007  0.2048 -0.0389
   28CHL1   H3' 2002   1.673   0.643   6.560 -2.3651  0.7401  0.0037
   28CHL1    C4 2003   1.619   0.697   6.345 -0.2316  0.5220  0.2353
   28CHL1   H4A 2004   1.609   0.590   6.373  2.1389 -0.1363 -1.1612
   28CHL1   H4B 2005   1.525   0.746   6.380  1.5052  1.5451  4.0245
   28CHL1    C5 2006   1.649   0.714   6.199  0.1510  0.3111  0.2939
   28CHL1    C6 2007   1.567   0.787   6.122  0.3254  0.5235 -1.4142
   28CHL1    H6 2008   1.467   0.808   6.163  0.6057 -1.8743  0.7793
   28CHL1    C7 2009   1.585   0.811   5.979 -0.4051 -0.3833 -0.3477
   28CHL1   H7A 2010   1.493   0.795   5.918 -1.2603 -0.6307  0.9418
   28CHL1   H7B 2011   1.619   0.917   5.977 -0.8888 -0.1907  0.7072
   28CHL1    C8 2012   1.696   0.718   5.919 -0.6690  0.2219  0.1018
   28CHL1    H8 2013   1.662   0.613   5.910 -4.2331  1.3259 -0.8735
   28CHL1   C14 2014   1.736   0.770   5.781 -0.0221  0.8492 -0.2472
   28CHL1   H14 2015   1.790   0.865   5.802  1.7904 -0.5245  1.6745
   28CHL1   C15 2016   1.628   0.802   5.680 -0.2625  0.5505  0.4451
   28CHL1  H15A 2017   1.556   0.717   5.678  0.4951 -0.1326  1.3139
   28CHL1  H15B 2018   1.572   0.897   5.690  1.7429  1.8846 -0.4294
   28CHL1   C16 2019   1.711   0.817   5.552 -0.3812  0.6917  0.0404
   28CHL1  H16A 2020   1.671   0.751   5.472  0.3102 -1.8554  1.6856
   28CHL1  H16B 2021   1.703   0.921   5.512 -0.5317  0.4005 -0.7157
   28CHL1   C17 2022   1.861   0.759   5.578  0.1417  0.9833 -0.0142
   28CHL1   H17 2023   1.928   0.843   5.606  1.5061  0.3718 -1.2883
   28CHL1   C13 2024   1.840   0.680   5.707 -1.1979 -0.9761 -0.5145
   28CHL1   C18 2025   1.782   0.539   5.665 -0.6426 -0.2265  0.2470
   28CHL1  H18A 2026   1.698   0.548   5.593 -0.4120  1.0015  0.1177
   28CHL1  H18B 2027   1.859   0.480   5.612 -0.4929  1.5233 -1.5586
   28CHL1  H18C 2028   1.744   0.474   5.748  2.5493 -3.6418 -0.7075
   28CHL1   C12 2029   1.965   0.678   5.796 -0.1981 -0.4675 -0.4448
   28CHL1  H12A 2030   2.049   0.622   5.750 -0.8536 -0.4643 -1.6905
   28CHL1  H12B 2031   1.993   0.785   5.798 -1.8918  0.0087 -0.1516
   28CHL1   C11 2032   1.938   0.630   5.937 -0.2182 -0.3344  0.2082
   28CHL1  H11A 2033   1.907   0.524   5.922  0.8470 -0.3888 -2.1549
   28CHL1  H11B 2034   2.032   0.631   5.997 -0.1841  0.2873  0.1527
   28CHL1    C9 2035   1.821   0.708   6.014  0.0338  0.4984  0.5552
   28CHL1    H9 2036   1.870   0.807   6.005 -0.6359  0.7966  0.0513
   28CHL1   C10 2037   1.789   0.662   6.157 -0.6448 -0.1485 -0.6724
   28CHL1   C19 2038   1.789   0.509   6.151 -0.0242 -0.6396  0.2470
   28CHL1  H19A 2039   1.746   0.464   6.243 -0.1761 -2.4029 -0.6462
   28CHL1  H19B 2040   1.710   0.462   6.088 -0.9156  0.7832  0.2680
   28CHL1  H19C 2041   1.886   0.456   6.137 -1.3538 -4.0289  2.5253
   28CHL1    C1 2042   1.903   0.711   6.253 -0.0964 -0.6440 -0.0230
   28CHL1   H1A 2043   1.997   0.660   6.222  0.0209  0.0281 -0.8033
   28CHL1   H1B 2044   1.925   0.819   6.241 -2.4937 -0.0403  0.5525
   28CHL1    C2 2045   1.870   0.691   6.399 -0.2895 -0.3867 -0.0659
   28CHL1   H2A 2046   1.952   0.726   6.465  0.1656 -1.7520  0.1279
   28CHL1   H2B 2047   1.861   0.585   6.433 -0.1038 -0.7766 -1.1729
   28CHL1   C20 2048   1.931   0.704   5.451  0.2862 -1.3053 -0.4757
   28CHL1   H20 2049   1.883   0.607   5.425 -1.6768 -0.8773  1.2677
   28CHL1   C21 2050   2.083   0.696   5.494  0.4121  0.1872 -0.1015
   28CHL1  H21A 2051   2.093   0.602   5.553  1.7175 -0.1091 -0.7658
   28CHL1  H21B 2052   2.114   0.787   5.549 -1.0370  1.2014 -0.9021
   28CHL1  H21C 2053   2.148   0.685   5.404  3.1988  1.5494  1.5951
   28CHL1   C22 2054   1.913   0.800   5.328  0.2874 -0.1583 -1.0029
   28CHL1  H22A 2055   1.812   0.841   5.307  0.1037 -0.3402 -0.4869
   28CHL1  H22B 2056   1.960   0.898   5.353  0.0078 -0.9694  3.4572
   28CHL1   C23 2057   1.964   0.736   5.201  0.5432  0.3500 -0.1021
   28CHL1  H23A 2058   2.069   0.701   5.214  0.2143 -0.0009  1.8289
   28CHL1  H23B 2059   1.903   0.648   5.173 -0.6839  0.4868  1.9859
   28CHL1   C24 2060   1.967   0.835   5.079 -0.7729  0.1335  0.2937
   28CHL1  H24A 2061   1.868   0.886   5.081 -1.3266 -0.9212  0.6060
   28CHL1  H24B 2062   2.043   0.916   5.086  0.1743 -0.7314  0.1937
   28CHL1   C25 2063   1.969   0.759   4.945 -0.2820  0.2051  0.2318
   28CHL1   H25 2064   1.886   0.686   4.937 -0.8207  0.6222  1.6730
   28CHL1   C26 2065   1.975   0.859   4.824  0.4545 -0.0459  0.1465
   28CHL1  H26A 2066   2.069   0.915   4.843  1.0583 -1.6317  2.2383
   28CHL1  H26B 2067   1.983   0.799   4.731  0.0816 -1.7657  1.1880
   28CHL1  H26C 2068   1.886   0.925   4.815 -0.3990 -1.3459 -1.3601
   28CHL1   C27 2069   2.092   0.668   4.932 -0.6598  0.0851  0.5157
   28CHL1  H27A 2070   2.097   0.626   4.829 -2.5744 -0.4649  0.6182
   28CHL1  H27B 2071   2.185   0.721   4.963 -1.3382  1.1207  0.8058
   28CHL1  H27C 2072   2.084   0.581   5.000 -1.1182  1.1583  1.8622
   29CHL1    C3 2073   4.624   5.269   3.113 -0.0552 -0.0123 -0.3006
   29CHL1    H3 2074   4.635   5.379   3.122  2.2368 -0.1751 -0.4609
   29CHL1    O3 2075   4.632   5.232   2.973  0.1250 -0.4702 -0.0786
   29CHL1   H3' 2076   4.727   5.219   2.968  0.0071 -1.2535 -0.4134
   29CHL1    C4 2077   4.720   5.187   3.199  0.2831 -0.9695 -0.4125
   29CHL1   H4A 2078   4.712   5.084   3.159  0.0116 -1.4100  0.7453
   29CHL1   H4B 2079   4.823   5.217   3.171 -0.3271 -0.5104 -2.3288
   29CHL1    C5 2080   4.699   5.194   3.353 -0.6809  0.1421  0.1746
   29CHL1    C6 2081   4.802   5.218   3.434  0.0373  0.0980  0.3186
   29CHL1    H6 2082   4.904   5.239   3.398  0.3247  1.6217  1.9153
   29CHL1    C7 2083   4.796   5.224   3.583 -0.5865  0.1411 -0.5257
   29CHL1   H7A 2084   4.867   5.147   3.622  0.9072  1.4158 -0.6095
   29CHL1   H7B 2085   4.825   5.325   3.618  1.1109 -0.5133  0.0906
   29CHL1    C8 2086   4.655   5.192   3.634  0.4405 -0.2697  0.0722
   29CHL1    H8 2087   4.646   5.081   3.638 -1.9286 -0.0954  1.4434
   29CHL1   C14 2088   4.638   5.244   3.775 -0.3579 -0.1392  0.0244
   29CHL1   H14 2089   4.628   5.355   3.765 -1.7451 -0.4070 -1.8782
   29CHL1   C15 2090   4.760   5.231   3.871  0.1745 -0.1441  0.1545
   29CHL1  H15A 2091   4.786   5.124   3.858  0.0566 -0.3929  1.7062
   29CHL1  H15B 2092   4.832   5.311   3.845 -0.0059  1.1227  3.1626
   29CHL1   C16 2093   4.686   5.250   4.012  0.7621  0.0478  0.7193
   29CHL1  H16A 2094   4.711   5.156   4.066  2.3612 -0.4275 -0.7461
   29CHL1  H16B 2095   4.721   5.340   4.067 -0.0375  0.1381  1.0955
   29CHL1   C17 2096   4.533   5.265   3.986 -0.4478  0.1886 -0.6755
   29CHL1   H17 2097   4.517   5.374   3.970 -0.5390  0.7283  2.3342
   29CHL1   C13 2098   4.509   5.199   3.847 -0.1370  0.3465 -0.6095
   29CHL1   C18 2099   4.516   5.042   3.863 -0.1796  0.3775  0.4634
   29CHL1  H18A 2100   4.613   5.022   3.912  0.0389  0.9918  0.2855
   29CHL1  H18B 2101   4.436   5.003   3.929  0.7637  1.5529  2.3927
   29CHL1  H18C 2102   4.505   4.995   3.762 -1.4558  0.7862  0.3971
   29CHL1   C12 2103   4.383   5.244   3.770 -0.3336 -0.2747 -0.0115
   29CHL1  H12A 2104   4.290   5.206   3.818  1.2460 -2.3703  1.5493
   29CHL1  H12B 2105   4.381   5.355   3.773 -1.2679 -0.3003  0.7354
   29CHL1   C11 2106   4.399   5.211   3.619 -0.0227 -0.2622  0.3495
   29CHL1  H11A 2107   4.381   5.101   3.613  0.7093 -0.3165 -1.4503
   29CHL1  H11B 2108   4.322   5.258   3.555 -0.7197  0.4519  1.6847
   29CHL1    C9 2109   4.538   5.243   3.551  0.7125  0.3831 -0.5835
   29CHL1    H9 2110   4.541   5.354   3.549 -0.4820  0.5540  1.9911
   29CHL1   C10 2111   4.552   5.188   3.398 -0.2650  0.0897 -0.4432
   29CHL1   C19 2112   4.497   5.041   3.396  0.1928 -0.1063 -0.1302
   29CHL1  H19A 2113   4.387   5.032   3.406  0.4161 -0.2182  3.6986
   29CHL1  H19B 2114   4.518   5.005   3.293 -1.7252  2.7304 -1.6540
   29CHL1  H19C 2115   4.550   4.975   3.467  1.3930  1.1144  0.1608
   29CHL1    C1 2116   4.462   5.270   3.307 -0.1050  0.8711 -0.6783
   29CHL1   H1A 2117   4.356   5.257   3.338  0.9021  0.0586  2.7750
   29CHL1   H1B 2118   4.491   5.377   3.320  2.7679 -0.0700  1.6066
   29CHL1    C2 2119   4.480   5.241   3.159 -0.2766 -0.3258 -0.0867
   29CHL1   H2A 2120   4.408   5.300   3.098 -0.6661 -0.6147  0.0896
   29CHL1   H2B 2121   4.454   5.134   3.141  2.0201 -0.9180 -0.1761
   29CHL1   C20 2122   4.459   5.220   4.114  0.6402 -0.0878  0.4505
   29CHL1   H20 2123   4.477   5.112   4.127  1.6591  0.1745  1.3845
   29CHL1   C21 2124   4.307   5.248   4.087  0.1369 -0.1299  0.2221
   29CHL1  H21A 2125   4.261   5.160   4.037  0.6086 -2.1619  3.0837
   29CHL1  H21B 2126   4.299   5.348   4.039 -0.5763 -0.2694  0.0338
   29CHL1  H21C 2127   4.263   5.260   4.189 -0.4783  1.8670 -0.2302
   29CHL1   C22 2128   4.508   5.296   4.242  0.4326  0.5083 -0.0892
   29CHL1  H22A 2129   4.618   5.312   4.246  0.8815 -2.2590  2.1902
   29CHL1  H22B 2130   4.455   5.393   4.246 -0.8792 -0.2042  0.8714
   29CHL1   C23 2131   4.481   5.216   4.367  0.2034 -0.9755 -0.3131
   29CHL1  H23A 2132   4.378   5.176   4.374  0.0978 -0.4343  1.7379
   29CHL1  H23B 2133   4.547   5.126   4.363  0.3038 -0.8723 -1.4185
   29CHL1   C24 2134   4.506   5.285   4.497 -0.6266 -1.0536 -0.0444
   29CHL1  H24A 2135   4.600   5.342   4.484 -0.6690 -1.2176 -1.2446
   29CHL1  H24B 2136   4.433   5.367   4.508 -0.6673 -0.7968 -1.8150
   29CHL1   C25 2137   4.508   5.208   4.632  0.0477 -0.5943  0.1011
   29CHL1   H25 2138   4.577   5.125   4.607  1.2099  0.3459  0.1051
   29CHL1   C26 2139   4.574   5.293   4.746 -0.3667  0.1256 -0.4668
   29CHL1  H26A 2140   4.577   5.231   4.838 -0.7005  0.5636 -0.1530
   29CHL1  H26B 2141   4.682   5.314   4.730 -0.5310  3.0621  1.5338
   29CHL1  H26C 2142   4.514   5.383   4.770 -2.6965 -2.1158  3.0179
   29CHL1   C27 2143   4.373   5.161   4.696 -0.6217 -0.3551  0.2110
   29CHL1  H27A 2144   4.390   5.097   4.785 -0.8172  0.3973  0.7928
   29CHL1  H27B 2145   4.312   5.246   4.732  0.2014  0.6595 -0.7276
   29CHL1  H27C 2146   4.312   5.103   4.622 -2.2062  1.5449 -0.0435
   30CHL1    C3 2147   5.959   5.058   3.088  0.2132  0.2300  0.6923
   30CHL1    H3 2148   6.043   4.987   3.074  0.4788  0.9819 -2.0255
   30CHL1    O3 2149   5.916   5.106   2.956 -0.4099 -0.3253 -0.3837
   30CHL1   H3' 2150   5.944   5.198   2.959 -2.2729  0.2359  1.6380
   30CHL1    C4 2151   5.835   4.987   3.147 -0.3188  0.0035 -0.2956
   30CHL1   H4A 2152   5.748   5.057   3.141 -0.0759  0.2033 -1.9675
   30CHL1   H4B 2153   5.813   4.915   3.065 -0.7795  0.9559 -1.0325
   30CHL1    C5 2154   5.836   4.934   3.290  0.3500 -0.1775 -0.8907
   30CHL1    C6 2155   5.816   4.812   3.329 -0.2469  0.3354  1.1873
   30CHL1    H6 2156   5.789   4.747   3.244  1.0719  0.5787  0.5612
   30CHL1    C7 2157   5.829   4.751   3.465 -0.1283 -0.5848 -0.1136
   30CHL1   H7A 2158   5.748   4.676   3.475 -0.2202 -0.5322 -0.4769
   30CHL1   H7B 2159   5.930   4.703   3.467  0.3917  0.4891  0.4742
   30CHL1    C8 2160   5.827   4.865   3.566 -0.1286 -0.3804 -0.8567
   30CHL1    H8 2161   5.719   4.889   3.578  0.2146  0.1488  1.6697
   30CHL1   C14 2162   5.877   4.818   3.702 -0.1196  0.2400 -0.0476
   30CHL1   H14 2163   5.984   4.790   3.691 -0.1204  0.4926 -0.7999
   30CHL1   C15 2164   5.815   4.691   3.764 -0.0783 -0.5496  0.8364
   30CHL1  H15A 2165   5.705   4.682   3.763 -0.0166 -1.2655  0.0083
   30CHL1  H15B 2166   5.859   4.598   3.724 -0.9370 -0.1688 -1.1357
   30CHL1   C16 2167   5.845   4.698   3.916 -0.2995  0.4205  0.0320
   30CHL1  H16A 2168   5.754   4.697   3.979 -1.7261  0.7086 -1.9252
   30CHL1  H16B 2169   5.919   4.624   3.954 -0.2733  0.3519 -0.1506
   30CHL1   C17 2170   5.913   4.842   3.942 -0.1183 -0.1923  0.2025
   30CHL1   H17 2171   6.024   4.831   3.939 -0.1188 -1.8554  2.7998
   30CHL1   C13 2172   5.860   4.917   3.816  0.2568 -0.2482  0.0552
   30CHL1   C18 2173   5.715   4.955   3.849  0.2966 -0.5104 -0.6630
   30CHL1  H18A 2174   5.697   5.015   3.941 -2.9781 -2.5332  0.1965
   30CHL1  H18B 2175   5.676   5.008   3.760 -0.7063 -3.4326 -2.0927
   30CHL1  H18C 2176   5.656   4.861   3.860 -0.5110 -0.1282 -1.5905
   30CHL1   C12 2177   5.946   5.041   3.779 -0.1832  0.8368 -0.1076
   30CHL1  H12A 2178   5.934   5.124   3.852 -1.4779  0.8527 -0.3071
   30CHL1  H12B 2179   6.050   5.006   3.763 -0.1768  0.0303  1.5692
   30CHL1   C11 2180   5.907   5.097   3.643 -0.1375 -0.5163  0.1030
   30CHL1  H11A 2181   5.808   5.143   3.664  0.4491  0.8944 -0.0644
   30CHL1  H11B 2182   5.979   5.178   3.619  0.2769 -0.0145  2.7195
   30CHL1    C9 2183   5.910   4.991   3.530  0.0183  1.1887  1.0109
   30CHL1    H9 2184   6.016   4.959   3.524 -0.1573  0.3708  2.1396
   30CHL1   C10 2185   5.879   5.043   3.387  0.0267 -0.5304 -0.0605
   30CHL1   C19 2186   5.753   5.132   3.393 -0.1274 -0.6788 -0.3241
   30CHL1  H19A 2187   5.658   5.082   3.423 -1.3788  2.8861  2.3961
   30CHL1  H19B 2188   5.771   5.211   3.469 -1.7999 -0.9128  0.3568
   30CHL1  H19C 2189   5.722   5.189   3.303 -1.1897  0.6074  0.8174
   30CHL1    C1 2190   6.002   5.119   3.343 -0.1682 -1.0028  1.3026
   30CHL1   H1A 2191   6.022   5.208   3.407  2.6771  1.2706 -2.3626
   30CHL1   H1B 2192   6.096   5.061   3.344  0.9533  0.6562 -0.1222
   30CHL1    C2 2193   5.991   5.170   3.191 -0.3564  0.7516 -0.1098
   30CHL1   H2A 2194   6.082   5.225   3.159 -0.6449  0.4406 -1.5374
   30CHL1   H2B 2195   5.911   5.247   3.199 -0.6717  0.5478 -1.2020
   30CHL1   C20 2196   5.878   4.885   4.086  0.3088 -0.1185  0.0416
   30CHL1   H20 2197   5.767   4.882   4.089  0.2199 -2.5059 -2.1296
   30CHL1   C21 2198   5.942   5.022   4.104 -0.2625 -0.1614 -0.8053
   30CHL1  H21A 2199   5.867   5.089   4.056 -1.3121 -1.7938 -1.5704
   30CHL1  H21B 2200   6.042   5.037   4.058  0.3715  2.7474  1.2565
   30CHL1  H21C 2201   5.958   5.048   4.211 -0.1950 -0.7052 -0.6809
   30CHL1   C22 2202   5.927   4.796   4.205 -0.0264 -1.0126 -0.2851
   30CHL1  H22A 2203   5.912   4.688   4.188  0.3280 -0.9439 -1.0451
   30CHL1  H22B 2204   6.036   4.817   4.209 -0.6276  3.1806 -0.8339
   30CHL1   C23 2205   5.861   4.818   4.342 -0.1600 -0.4513 -0.0652
   30CHL1  H23A 2206   5.858   4.927   4.364 -1.4980 -0.4107 -0.3944
   30CHL1  H23B 2207   5.755   4.794   4.321 -0.8996  2.0712  0.4074
   30CHL1   C24 2208   5.932   4.737   4.462  0.1369 -0.2793  0.5023
   30CHL1  H24A 2209   5.951   4.635   4.423  0.3438  0.7269 -2.2266
   30CHL1  H24B 2210   6.036   4.774   4.481  0.3958 -1.0793  0.6849
   30CHL1   C25 2211   5.846   4.740   4.592  0.3684 -0.7573 -0.5462
   30CHL1   H25 2212   5.740   4.710   4.577 -0.9542  2.6349  1.0141
   30CHL1   C26 2213   5.922   4.662   4.696 -0.0323  0.2675 -0.1428
   30CHL1  H26A 2214   5.949   4.558   4.669 -1.1526 -0.3695  1.0591
   30CHL1  H26B 2215   6.007   4.725   4.729  0.3816 -0.2664 -0.1916
   30CHL1  H26C 2216   5.845   4.645   4.774 -0.4955  2.9757  0.0786
   30CHL1   C27 2217   5.801   4.875   4.654 -0.5018 -0.3698  0.5457
   30CHL1  H27A 2218   5.884   4.926   4.707 -2.6475  0.7519  3.0324
   30CHL1  H27B 2219   5.754   4.942   4.578  1.2231 -0.6552 -0.8507
   30CHL1  H27C 2220   5.727   4.851   4.733  0.0804  0.0415  1.2290
   31CHL1    C3 2221   6.765   5.759   3.178 -0.4661 -0.7578  0.1077
   31CHL1    H3 2222   6.702   5.840   3.220  0.6537  0.4422 -0.4489
   31CHL1    O3 2223   6.754   5.770   3.037 -1.0771 -0.2453 -0.0590
   31CHL1   H3' 2224   6.795   5.857   3.026 -3.7673  1.2484  0.7235
   31CHL1    C4 2225   6.903   5.790   3.219 -0.1132  0.3215  0.1525
   31CHL1   H4A 2226   6.970   5.707   3.187 -0.6789  0.1362 -0.5801
   31CHL1   H4B 2227   6.941   5.885   3.176  0.1779 -0.5196 -1.5390
   31CHL1    C5 2228   6.907   5.782   3.375 -0.0109  0.7387  0.5633
   31CHL1    C6 2229   6.942   5.887   3.449 -0.4024  0.4267 -0.3344
   31CHL1    H6 2230   6.979   5.980   3.403 -2.0859  1.4494  0.2846
   31CHL1    C7 2231   6.946   5.895   3.600  0.2116  0.3947 -0.4834
   31CHL1   H7A 2232   7.039   5.949   3.627 -0.1827  0.4111  0.8808
   31CHL1   H7B 2233   6.861   5.964   3.620 -0.4061 -0.4049 -0.2742
   31CHL1    C8 2234   6.927   5.756   3.659 -0.1398 -0.0965 -0.4897
   31CHL1    H8 2235   7.021   5.697   3.654 -0.7032 -1.5346  2.8607
   31CHL1   C14 2236   6.894   5.764   3.808  0.7613  0.0725 -0.5275
   31CHL1   H14 2237   6.796   5.816   3.811  0.3896 -0.6251 -0.4219
   31CHL1   C15 2238   6.990   5.846   3.892 -0.3065 -0.2191 -0.1466
   31CHL1  H15A 2239   7.093   5.811   3.868 -1.0488 -1.1417 -2.1547
   31CHL1  H15B 2240   6.978   5.956   3.885  1.1837 -0.1400 -3.4720
   31CHL1   C16 2241   6.957   5.802   4.036 -0.8722 -0.3455  0.1402
   31CHL1  H16A 2242   7.053   5.774   4.083 -0.2763  1.2991 -0.0140
   31CHL1  H16B 2243   6.914   5.886   4.095 -2.1370 -1.3166  0.6409
   31CHL1   C17 2244   6.847   5.693   4.020  0.3473  0.1669 -0.2332
   31CHL1   H17 2245   6.759   5.759   4.005  0.3528  0.3452  0.5114
   31CHL1   C13 2246   6.874   5.634   3.879  0.2497  0.8091 -0.0593
   31CHL1   C18 2247   7.011   5.542   3.879 -0.1757 -0.0559 -0.4828
   31CHL1  H18A 2248   7.040   5.528   3.772 -2.0731  0.2321 -1.0807
   31CHL1  H18B 2249   7.096   5.596   3.926  1.3479 -2.6754 -0.0306
   31CHL1  H18C 2250   6.990   5.450   3.938 -3.3212  0.8997  0.1136
   31CHL1   C12 2251   6.766   5.558   3.806 -0.2389 -0.7621  0.0182
   31CHL1  H12A 2252   6.742   5.469   3.867  0.1429  1.8802  4.5090
   31CHL1  H12B 2253   6.673   5.620   3.802  1.0687  1.2551 -2.1908
   31CHL1   C11 2254   6.802   5.529   3.662  0.3129 -0.5182  0.0619
   31CHL1  H11A 2255   6.893   5.465   3.659 -0.9922 -2.4660 -3.5891
   31CHL1  H11B 2256   6.726   5.465   3.613  2.1151 -1.9426 -1.0399
   31CHL1    C9 2257   6.824   5.663   3.582  0.6127 -0.2425  0.0687
   31CHL1    H9 2258   6.729   5.719   3.598  0.6927 -0.6180  2.1362
   31CHL1   C10 2259   6.854   5.653   3.433 -0.4963  1.0343 -0.1567
   31CHL1   C19 2260   6.968   5.543   3.425  0.2868  0.0273 -0.4462
   31CHL1  H19A 2261   7.061   5.575   3.475 -0.2557  1.2735 -0.2000
   31CHL1  H19B 2262   6.930   5.450   3.472 -0.4487  0.4020 -0.2849
   31CHL1  H19C 2263   6.989   5.524   3.317  1.8777 -2.1460  0.1652
   31CHL1    C1 2264   6.727   5.598   3.363  0.2002  0.2468  0.6584
   31CHL1   H1A 2265   6.718   5.491   3.390 -1.5592  0.0330 -0.5478
   31CHL1   H1B 2266   6.643   5.651   3.415  0.0326 -0.6749  1.3559
   31CHL1    C2 2267   6.723   5.615   3.212  0.3830 -0.2028 -0.1762
   31CHL1   H2A 2268   6.624   5.601   3.166  1.2715  0.2421 -2.3241
   31CHL1   H2B 2269   6.787   5.546   3.153  1.2622  0.4750 -0.0496
   31CHL1   C20 2270   6.834   5.608   4.143 -0.0053 -0.1158  0.0757
   31CHL1   H20 2271   6.923   5.544   4.158  0.1470  0.0917  0.0707
   31CHL1   C21 2272   6.711   5.511   4.131 -0.5194 -0.2219  0.2470
   31CHL1  H21A 2273   6.731   5.432   4.056  1.4474  2.5732 -2.4622
   31CHL1  H21B 2274   6.610   5.555   4.117 -1.7754 -2.1996  2.4621
   31CHL1  H21C 2275   6.721   5.466   4.232  4.4355  1.6844  0.9116
   31CHL1   C22 2276   6.826   5.691   4.284 -0.7483  0.2376 -0.0764
   31CHL1  H22A 2277   6.774   5.788   4.266 -1.6750 -0.0101  1.0997
   31CHL1  H22B 2278   6.770   5.627   4.355  1.2040  1.3420  2.6127
   31CHL1   C23 2279   6.965   5.704   4.353 -0.9052  0.4783 -1.5078
   31CHL1  H23A 2280   6.996   5.602   4.383 -2.9082  0.1547 -0.3500
   31CHL1  H23B 2281   7.031   5.736   4.270 -0.0696  0.6541 -0.7885
   31CHL1   C24 2282   6.967   5.809   4.465  0.1057  0.6015 -0.0858
   31CHL1  H24A 2283   6.929   5.909   4.436 -3.1749 -0.4140  0.3343
   31CHL1  H24B 2284   6.898   5.781   4.548 -1.9105  1.3996 -1.4078
   31CHL1   C25 2285   7.109   5.835   4.538 -0.1673 -0.7722 -0.1781
   31CHL1   H25 2286   7.123   5.738   4.590 -2.4508 -0.3471  1.3778
   31CHL1   C26 2287   7.210   5.866   4.427  0.3355  0.3954  0.2643
   31CHL1  H26A 2288   7.176   5.955   4.370 -1.2690  1.0354  2.1372
   31CHL1  H26B 2289   7.311   5.894   4.463 -0.2845  1.4094  1.2433
   31CHL1  H26C 2290   7.216   5.770   4.371 -2.7102 -0.7343  1.6775
   31CHL1   C27 2291   7.100   5.955   4.646  0.1183  0.6156  0.2076
   31CHL1  H27A 2292   7.196   5.963   4.701  0.2749 -0.9091  0.2107
   31CHL1  H27B 2293   7.082   6.049   4.590 -2.4801  0.5883  0.8362
   31CHL1  H27C 2294   7.014   5.924   4.709  0.0730 -3.1302 -1.4122
   32CHL1    C3 2295   3.985   5.184   2.879 -0.0217 -0.3066 -0.4955
   32CHL1    H3 2296   3.967   5.074   2.888  1.1251 -0.4544  0.0921
   32CHL1    O3 2297   4.016   5.239   2.753  0.0353  0.5709  0.7287
   32CHL1   H3' 2298   4.002   5.332   2.770  1.3529  1.0725 -0.7551
   32CHL1    C4 2299   3.858   5.254   2.934  0.0335 -0.5021  0.3066
   32CHL1   H4A 2300   3.866   5.363   2.919  1.9955 -0.2279  2.6907
   32CHL1   H4B 2301   3.766   5.234   2.874  0.7093  0.0344 -0.9464
   32CHL1    C5 2302   3.834   5.222   3.082 -0.9887 -0.1667  0.1648
   32CHL1    C6 2303   3.734   5.144   3.121  0.5441  0.7209  0.1962
   32CHL1    H6 2304   3.657   5.109   3.051  1.1087 -0.1914  0.0085
   32CHL1    C7 2305   3.710   5.090   3.258 -0.0661 -0.5366 -0.2535
   32CHL1   H7A 2306   3.601   5.111   3.269 -0.2471  0.9154 -3.6381
   32CHL1   H7B 2307   3.724   4.980   3.261  0.0110 -0.5588 -1.2916
   32CHL1    C8 2308   3.788   5.181   3.362  0.7732  1.2734  0.0070
   32CHL1    H8 2309   3.747   5.284   3.359  0.4153  1.1277 -0.1475
   32CHL1   C14 2310   3.774   5.120   3.498  0.0151  0.2713 -0.5037
   32CHL1   H14 2311   3.814   5.018   3.481 -0.7875  0.0997 -1.5304
   32CHL1   C15 2312   3.630   5.104   3.551 -0.7532 -0.3335  0.6132
   32CHL1  H15A 2313   3.575   5.200   3.538 -1.4460 -0.6982  0.7724
   32CHL1  H15B 2314   3.575   5.023   3.499 -2.2244  0.0424  1.5017
   32CHL1   C16 2315   3.656   5.078   3.700 -0.0265 -0.0155  0.1912
   32CHL1  H16A 2316   3.589   5.145   3.758 -0.8553  1.0476 -1.8517
   32CHL1  H16B 2317   3.643   4.970   3.722 -2.2728 -0.0534 -1.0314
   32CHL1   C17 2318   3.804   5.113   3.735 -0.3768  0.0973  0.5800
   32CHL1   H17 2319   3.863   5.019   3.731 -0.7988 -0.2011  1.1910
   32CHL1   C13 2320   3.854   5.183   3.609  0.6273 -0.1331 -0.1637
   32CHL1   C18 2321   3.801   5.329   3.626 -0.5415 -0.2833 -0.7953
   32CHL1  H18A 2322   3.883   5.384   3.677 -1.6138 -0.1906  0.9004
   32CHL1  H18B 2323   3.790   5.375   3.526 -0.6922 -0.0125 -0.6548
   32CHL1  H18C 2324   3.711   5.337   3.691 -1.3070 -0.2098 -1.8485
   32CHL1   C12 2325   4.000   5.174   3.570  0.0163  0.8349 -0.1412
   32CHL1  H12A 2326   4.073   5.221   3.639  0.2336  0.4172 -0.0845
   32CHL1  H12B 2327   4.045   5.073   3.554 -0.8066  0.1463  1.6732
   32CHL1   C11 2328   4.027   5.242   3.431 -0.5964 -0.8046 -0.5445
   32CHL1  H11A 2329   4.003   5.350   3.441 -0.6736 -0.9084  0.5010
   32CHL1  H11B 2330   4.134   5.238   3.401 -0.5210 -1.0312 -0.2435
   32CHL1    C9 2331   3.936   5.193   3.321 -0.5423 -0.3078 -0.0498
   32CHL1    H9 2332   3.968   5.088   3.306 -2.3609 -0.8782 -0.2155
   32CHL1   C10 2333   3.957   5.254   3.175 -0.4406  0.0944 -0.1067
   32CHL1   C19 2334   3.984   5.397   3.189 -0.3237 -0.2723 -0.1286
   32CHL1  H19A 2335   3.975   5.448   3.091 -0.3874  1.6114  0.7959
   32CHL1  H19B 2336   3.914   5.448   3.258  1.3580  2.2103 -0.1119
   32CHL1  H19C 2337   4.089   5.421   3.216 -0.5795  3.2510 -1.7386
   32CHL1    C1 2338   4.084   5.182   3.115 -0.6337 -0.5711 -0.8285
   32CHL1   H1A 2339   4.166   5.205   3.186 -1.5757 -0.4525  0.2568
   32CHL1   H1B 2340   4.084   5.072   3.122  0.9297 -0.4959  2.0213
   32CHL1    C2 2341   4.107   5.210   2.974 -0.3289  0.0263  0.0468
   32CHL1   H2A 2342   4.199   5.160   2.938  0.3521  1.4082 -0.2110
   32CHL1   H2B 2343   4.127   5.319   2.966 -0.7758  0.0693 -0.6471
   32CHL1   C20 2344   3.825   5.176   3.877  0.7056  0.4184 -0.0545
   32CHL1   H20 2345   3.775   5.275   3.880  2.0528  1.1127  0.3438
   32CHL1   C21 2346   3.971   5.218   3.910 -0.8776  0.0621 -0.5770
   32CHL1  H21A 2347   4.046   5.137   3.912 -1.1727 -0.2683  2.6219
   32CHL1  H21B 2348   3.963   5.263   4.012 -1.1678  0.0646 -0.6006
   32CHL1  H21C 2349   4.004   5.299   3.842 -0.5820  0.8053  0.4174
   32CHL1   C22 2350   3.760   5.086   3.984  0.4758  0.1364 -0.6402
   32CHL1  H22A 2351   3.650   5.090   3.973  0.1908  1.5398  1.9566
   32CHL1  H22B 2352   3.796   4.980   3.986 -2.0352 -0.7773  1.2002
   32CHL1   C23 2353   3.774   5.139   4.130 -0.4212 -0.0843 -0.1159
   32CHL1  H23A 2354   3.879   5.131   4.166 -0.3589  1.8654  0.2667
   32CHL1  H23B 2355   3.750   5.248   4.129 -0.5599 -0.1194 -0.8225
   32CHL1   C24 2356   3.691   5.075   4.239 -0.3650 -0.5024  0.1335
   32CHL1  H24A 2357   3.584   5.099   4.217 -0.2708 -0.8795 -0.8057
   32CHL1  H24B 2358   3.710   4.966   4.235  1.6220 -0.1750 -0.1399
   32CHL1   C25 2359   3.720   5.123   4.382  0.2713  0.1230 -0.1299
   32CHL1   H25 2360   3.824   5.092   4.404  0.2394  0.9678  1.3006
   32CHL1   C26 2361   3.710   5.277   4.393 -0.4572 -0.2338 -0.3170
   32CHL1  H26A 2362   3.768   5.333   4.317  1.5619 -1.7547  0.0052
   32CHL1  H26B 2363   3.608   5.318   4.379 -0.1126  0.9474  0.4779
   32CHL1  H26C 2364   3.738   5.302   4.498 -1.5914  1.6162 -0.4071
   32CHL1   C27 2365   3.623   5.061   4.483 -0.3665  0.3923  0.3184
   32CHL1  H27A 2366   3.632   4.951   4.488 -1.0547  0.2642 -0.7937
   32CHL1  H27B 2367   3.656   5.106   4.579 -1.3834  0.1189  0.8100
   32CHL1  H27C 2368   3.518   5.088   4.458 -0.0240  0.1885 -1.4418
   33CHL1    C3 2369   1.591   4.706   3.181 -0.3433  0.4949  0.0644
   33CHL1    H3 2370   1.673   4.779   3.195  1.0868 -1.1375  0.5750
   33CHL1    O3 2371   1.572   4.675   3.042  0.1198 -0.3689 -0.3511
   33CHL1   H3' 2372   1.476   4.675   3.034  0.1961 -0.5565 -1.3905
   33CHL1    C4 2373   1.632   4.576   3.259  0.1330 -0.1000 -0.4796
   33CHL1   H4A 2374   1.568   4.487   3.240  0.8279 -0.9622  1.0288
   33CHL1   H4B 2375   1.728   4.542   3.215 -0.2105 -1.7218 -0.0480
   33CHL1    C5 2376   1.646   4.596   3.407  0.4664 -0.5004 -0.1561
   33CHL1    C6 2377   1.774   4.601   3.451  0.6216  0.6022 -0.5711
   33CHL1    H6 2378   1.862   4.558   3.402  1.1350  2.2884 -1.1767
   33CHL1    C7 2379   1.805   4.636   3.591  0.1745  0.1925 -0.1581
   33CHL1   H7A 2380   1.870   4.561   3.640 -1.8186 -1.7377 -0.2867
   33CHL1   H7B 2381   1.859   4.732   3.578 -0.3989  0.3517 -1.5997
   33CHL1    C8 2382   1.685   4.651   3.692  0.3417  0.0689  0.8974
   33CHL1    H8 2383   1.653   4.550   3.724 -1.3673 -0.0788 -1.0018
   33CHL1   C14 2384   1.719   4.744   3.814  0.0504  0.0925 -0.0694
   33CHL1   H14 2385   1.732   4.843   3.766 -1.0046  0.0392 -0.5033
   33CHL1   C15 2386   1.845   4.702   3.892  0.6040 -0.1487  1.2710
   33CHL1  H15A 2387   1.856   4.593   3.908  1.8693  0.1814  3.0120
   33CHL1  H15B 2388   1.933   4.734   3.832  0.0420 -0.7938  0.0815
   33CHL1   C16 2389   1.827   4.788   4.015  0.4390 -0.2445  0.1458
   33CHL1  H16A 2390   1.838   4.729   4.108  1.9507  1.0272  0.8086
   33CHL1  H16B 2391   1.897   4.873   4.025  0.3464 -0.1868  0.3040
   33CHL1   C17 2392   1.679   4.842   4.022 -0.3539 -0.0296  0.1986
   33CHL1   H17 2393   1.690   4.949   3.991  1.2999 -0.7051 -1.8128
   33CHL1   C13 2394   1.603   4.755   3.916 -0.1705  0.2876 -0.0594
   33CHL1   C18 2395   1.566   4.610   3.976  0.9829  0.6699  0.2101
   33CHL1  H18A 2396   1.538   4.549   3.888 -2.0820  2.0914  0.0965
   33CHL1  H18B 2397   1.652   4.563   4.030 -0.1724 -1.2352  0.4861
   33CHL1  H18C 2398   1.481   4.611   4.048  1.4405 -0.9554  0.8293
   33CHL1   C12 2399   1.483   4.812   3.846  0.6214 -0.5204  0.1525
   33CHL1  H12A 2400   1.391   4.817   3.908  1.1311 -0.1518  0.8975
   33CHL1  H12B 2401   1.525   4.912   3.824  2.8701 -1.4530 -0.1477
   33CHL1   C11 2402   1.442   4.729   3.724  0.3166 -0.6057 -0.0518
   33CHL1  H11A 2403   1.390   4.637   3.757 -0.1687 -0.0594  0.7370
   33CHL1  H11B 2404   1.365   4.784   3.666 -0.1775 -0.6047  0.5934
   33CHL1    C9 2405   1.561   4.709   3.622  0.3335  0.3534  0.0765
   33CHL1    H9 2406   1.601   4.810   3.597  1.3926 -0.8488 -3.7259
   33CHL1   C10 2407   1.521   4.660   3.480 -0.6471 -0.4879 -0.0110
   33CHL1   C19 2408   1.425   4.540   3.495  0.4492 -0.3741 -0.1076
   33CHL1  H19A 2409   1.327   4.584   3.523  0.7571  1.5865 -1.8686
   33CHL1  H19B 2410   1.403   4.487   3.400 -0.9685  1.0181 -0.5949
   33CHL1  H19C 2411   1.458   4.472   3.577 -0.7604  2.1455  2.6606
   33CHL1    C1 2412   1.466   4.771   3.389 -0.2669 -0.0121  0.1854
   33CHL1   H1A 2413   1.363   4.791   3.425  0.1707 -0.8164  1.9950
   33CHL1   H1B 2414   1.521   4.864   3.415 -1.7030  0.3277  2.1749
   33CHL1    C2 2415   1.463   4.747   3.236  0.4342  0.9839  0.2533
   33CHL1   H2A 2416   1.415   4.831   3.183 -0.9895  0.2511  0.3279
   33CHL1   H2B 2417   1.388   4.667   3.215  1.3096  0.0694  0.4864
   33CHL1   C20 2418   1.629   4.843   4.160  0.6224  0.3387  1.1789
   33CHL1   H20 2419   1.626   4.738   4.195 -1.2370 -0.4227 -1.0344
   33CHL1   C21 2420   1.473   4.872   4.165 -0.0397  0.0733 -0.2759
   33CHL1  H21A 2421   1.444   4.961   4.104  0.7687  0.2284 -0.4510
   33CHL1  H21B 2422   1.433   4.883   4.268 -1.9825  0.8394 -1.0522
   33CHL1  H21C 2423   1.414   4.783   4.133  0.0669 -1.1285  2.5602
   33CHL1   C22 2424   1.705   4.928   4.258  0.0578 -0.8429 -0.2005
   33CHL1  H22A 2425   1.806   4.885   4.242  0.2363 -1.3937  2.1283
   33CHL1  H22B 2426   1.703   5.036   4.236  1.4047 -0.2905  2.0965
   33CHL1   C23 2427   1.669   4.908   4.405  0.6730  0.5725  0.1248
   33CHL1  H23A 2428   1.564   4.939   4.421  0.7842  3.0126 -2.9139
   33CHL1  H23B 2429   1.684   4.799   4.425  1.3702  0.5319 -0.5765
   33CHL1   C24 2430   1.775   4.969   4.497  0.5824  0.1374  0.1658
   33CHL1  H24A 2431   1.875   4.924   4.482  0.3973 -0.2132 -0.0364
   33CHL1  H24B 2432   1.777   5.079   4.482 -1.5442  0.0419 -1.1760
   33CHL1   C25 2433   1.746   4.949   4.641  0.1243 -0.5472  0.2082
   33CHL1   H25 2434   1.713   4.845   4.661 -1.4455  0.0415  0.8139
   33CHL1   C26 2435   1.873   4.969   4.719 -1.3245 -0.3961  0.3613
   33CHL1  H26A 2436   1.956   4.904   4.682 -0.8542 -0.6469  1.7880
   33CHL1  H26B 2437   1.904   5.075   4.717 -2.5941 -0.0086  0.5942
   33CHL1  H26C 2438   1.854   4.939   4.824  2.2844 -1.9893  0.7228
   33CHL1   C27 2439   1.635   5.050   4.694 -0.4071  0.3341  0.3025
   33CHL1  H27A 2440   1.559   5.080   4.619  0.5335 -0.8510 -1.1942
   33CHL1  H27B 2441   1.592   5.000   4.783 -0.9004 -2.6307 -1.4587
   33CHL1  H27C 2442   1.683   5.144   4.728 -1.4205  1.2425 -0.7075
   34CHL1    C3 2443   6.267   0.355   3.192 -0.9281 -0.8683  0.3930
   34CHL1    H3 2444   6.160   0.385   3.200 -0.5291  1.0328 -0.8548
   34CHL1    O3 2445   6.300   0.337   3.057 -0.3004 -0.2901 -0.0859
   34CHL1   H3' 2446   6.250   0.405   3.012  1.1688  1.6374  1.0326
   34CHL1    C4 2447   6.361   0.460   3.256 -0.2303 -0.0765  0.3144
   34CHL1   H4A 2448   6.467   0.436   3.236  0.2914  0.6761  2.0025
   34CHL1   H4B 2449   6.350   0.561   3.212  2.7205  0.4573  0.6470
   34CHL1    C5 2450   6.338   0.479   3.408  0.2187 -0.7639 -0.4840
   34CHL1    C6 2451   6.302   0.600   3.468 -0.0674 -0.3243 -0.4817
   34CHL1    H6 2452   6.285   0.683   3.398 -1.0056 -1.9194 -2.1979
   34CHL1    C7 2453   6.265   0.613   3.610 -0.1560 -0.3059 -0.5862
   34CHL1   H7A 2454   6.289   0.710   3.658  1.4152 -1.1727  0.4635
   34CHL1   H7B 2455   6.154   0.623   3.610 -0.2823 -1.3304 -2.6089
   34CHL1    C8 2456   6.321   0.501   3.693  0.0408 -0.3463  0.0877
   34CHL1    H8 2457   6.432   0.505   3.700  0.0460  0.6262 -0.4420
   34CHL1   C14 2458   6.264   0.502   3.835 -0.4218 -0.3559 -0.7241
   34CHL1   H14 2459   6.154   0.505   3.825 -0.5029 -0.2340  0.1229
   34CHL1   C15 2460   6.280   0.632   3.922 -0.1708 -0.6453  0.7085
   34CHL1  H15A 2461   6.385   0.662   3.904 -0.5759 -0.3042 -1.2786
   34CHL1  H15B 2462   6.227   0.720   3.882  1.8218  1.0337  1.5599
   34CHL1   C16 2463   6.260   0.581   4.059  0.0564 -0.2806 -0.2282
   34CHL1  H16A 2464   6.354   0.588   4.119 -1.1530 -0.0324  1.6976
   34CHL1  H16B 2465   6.183   0.635   4.118  1.7924  1.7727  0.3260
   34CHL1   C17 2466   6.228   0.435   4.053  0.1222  0.3780 -0.2488
   34CHL1   H17 2467   6.120   0.424   4.030  0.3515  0.1644 -1.2636
   34CHL1   C13 2468   6.299   0.386   3.924 -0.2044 -0.6046 -0.0603
   34CHL1   C18 2469   6.449   0.382   3.954  0.2866  0.3193  1.0329
   34CHL1  H18A 2470   6.493   0.474   3.998  1.4148  0.0980  0.4144
   34CHL1  H18B 2471   6.479   0.292   4.012  0.5799  0.3668  0.9596
   34CHL1  H18C 2472   6.499   0.375   3.855 -1.5682 -3.1020  0.1812
   34CHL1   C12 2473   6.247   0.255   3.863 -0.4658  0.3216  0.1794
   34CHL1  H12A 2474   6.276   0.166   3.924  0.4698 -0.3322 -1.1678
   34CHL1  H12B 2475   6.138   0.271   3.867 -0.3765  1.0221 -0.1596
   34CHL1   C11 2476   6.289   0.238   3.718  0.0907  0.3244 -0.2917
   34CHL1  H11A 2477   6.393   0.199   3.715  0.1596 -0.2465  3.9278
   34CHL1  H11B 2478   6.217   0.162   3.682 -1.1129  2.0333 -1.6853
   34CHL1    C9 2479   6.277   0.371   3.628  0.1761  0.7313 -0.4062
   34CHL1    H9 2480   6.167   0.380   3.612 -0.5314 -2.7633  1.5387
   34CHL1   C10 2481   6.337   0.344   3.491  1.3227  1.0909 -0.4433
   34CHL1   C19 2482   6.481   0.291   3.503  0.6875  0.3967 -0.5673
   34CHL1  H19A 2483   6.490   0.190   3.547  2.0678  0.8259  0.2231
   34CHL1  H19B 2484   6.532   0.285   3.404  0.0481  1.1304 -0.9554
   34CHL1  H19C 2485   6.537   0.358   3.572  0.5325 -1.4313  1.4145
   34CHL1    C1 2486   6.251   0.242   3.417  0.0126 -0.4154  0.6410
   34CHL1   H1A 2487   6.253   0.149   3.478  1.0733 -1.1432 -0.4534
   34CHL1   H1B 2488   6.150   0.287   3.417  0.3094  0.3350 -1.1709
   34CHL1    C2 2489   6.289   0.223   3.272  0.2509  0.7220 -0.3260
   34CHL1   H2A 2490   6.228   0.147   3.219 -0.4541 -0.0678  1.5137
   34CHL1   H2B 2491   6.392   0.183   3.273 -0.2080 -0.5588  1.6619
   34CHL1   C20 2492   6.240   0.359   4.189 -0.1694 -0.4277 -0.1722
   34CHL1   H20 2493   6.350   0.352   4.205 -0.0078 -0.0147 -1.0486
   34CHL1   C21 2494   6.164   0.228   4.184 -0.1580 -0.1680 -0.5473
   34CHL1  H21A 2495   6.055   0.248   4.174 -0.5709 -1.9553  0.0377
   34CHL1  H21B 2496   6.179   0.169   4.277 -0.8033  0.7933  0.1865
   34CHL1  H21C 2497   6.194   0.159   4.102 -1.1704  1.1193 -2.0662
   34CHL1   C22 2498   6.191   0.443   4.312  0.5907 -0.1437  0.0626
   34CHL1  H22A 2499   6.242   0.541   4.309  0.0614  0.1260 -0.2655
   34CHL1  H22B 2500   6.084   0.469   4.297  0.8684 -0.0310 -1.9426
   34CHL1   C23 2501   6.221   0.393   4.455  0.2846 -0.1753 -0.0627
   34CHL1  H23A 2502   6.161   0.302   4.476 -1.3774  0.7894 -0.4101
   34CHL1  H23B 2503   6.327   0.361   4.447  0.2242 -0.2697 -0.5717
   34CHL1   C24 2504   6.191   0.499   4.558 -0.4520 -0.4409 -0.1265
   34CHL1  H24A 2505   6.269   0.573   4.528  1.1563 -1.7954  0.5668
   34CHL1  H24B 2506   6.093   0.549   4.549 -0.0348  0.3787 -0.2151
   34CHL1   C25 2507   6.224   0.464   4.700 -0.2894  0.9362  0.7197
   34CHL1   H25 2508   6.329   0.428   4.695 -1.6625 -3.5901 -1.6730
   34CHL1   C26 2509   6.220   0.595   4.784 -0.2934  0.5020  0.3442
   34CHL1  H26A 2510   6.115   0.627   4.804 -0.0316  1.4990  0.1752
   34CHL1  H26B 2511   6.255   0.573   4.887 -0.8434  0.8818  0.6194
   34CHL1  H26C 2512   6.279   0.675   4.734 -0.4632  2.4614  3.0346
   34CHL1   C27 2513   6.149   0.352   4.758  0.8818 -0.4973 -0.1319
   34CHL1  H27A 2514   6.041   0.379   4.766  1.0462  0.4652 -1.0068
   34CHL1  H27B 2515   6.164   0.246   4.726  2.9556 -0.6089  1.0547
   34CHL1  H27C 2516   6.169   0.343   4.867 -0.0860 -3.9224 -0.1129
   35CHL1    C3 2517   2.548   0.439   3.129  0.7693  0.0183  0.2619
   35CHL1    H3 2518   2.579   0.545   3.145  1.2422 -0.0484 -0.1841
   35CHL1    O3 2519   2.550   0.422   2.988  0.7599 -0.3628 -0.5055
   35CHL1   H3' 2520   2.474   0.369   2.961  2.5838 -3.0608 -0.7401
   35CHL1    C4 2521   2.656   0.350   3.206 -0.4532 -0.2292  0.9713
   35CHL1   H4A 2522   2.645   0.250   3.160  2.1063 -0.1009 -0.0563
   35CHL1   H4B 2523   2.761   0.367   3.175 -1.0011  0.3623 -0.6696
   35CHL1    C5 2524   2.639   0.343   3.355 -0.6516 -0.1223  0.9209
   35CHL1    C6 2525   2.743   0.360   3.437  0.3325  0.0607 -0.1262
   35CHL1    H6 2526   2.841   0.385   3.394 -0.5070  3.3087 -0.4535
   35CHL1    C7 2527   2.729   0.346   3.589 -0.2140  0.0902  0.1542
   35CHL1   H7A 2528   2.819   0.298   3.632 -1.4345 -2.0200  0.5018
   35CHL1   H7B 2529   2.730   0.448   3.631  1.3619 -0.1378  0.7335
   35CHL1    C8 2530   2.598   0.279   3.642 -0.4843  0.2228 -0.1508
   35CHL1    H8 2531   2.606   0.169   3.628  0.0198  0.0999  0.9824
   35CHL1   C14 2532   2.580   0.317   3.792  1.2810  0.1813 -0.9825
   35CHL1   H14 2533   2.573   0.428   3.797  3.6502  0.3436  1.3611
   35CHL1   C15 2534   2.707   0.305   3.879 -0.1002 -0.0741 -0.4047
   35CHL1  H15A 2535   2.762   0.209   3.866  2.7327  0.9698  2.5658
   35CHL1  H15B 2536   2.781   0.387   3.867  1.1092 -0.5291  2.8512
   35CHL1   C16 2537   2.647   0.307   4.017 -0.2760 -0.1350 -0.6619
   35CHL1  H16A 2538   2.680   0.224   4.083  1.2606  1.0106  0.0660
   35CHL1  H16B 2539   2.664   0.402   4.073 -0.2268 -1.2922  1.4053
   35CHL1   C17 2540   2.486   0.310   3.998  0.6500 -0.6187 -0.1985
   35CHL1   H17 2541   2.451   0.415   3.996  3.6131  0.4802 -0.7895
   35CHL1   C13 2542   2.457   0.254   3.858 -0.8067  1.0325  0.8029
   35CHL1   C18 2543   2.476   0.099   3.863  0.1636  0.2798  0.2498
   35CHL1  H18A 2544   2.392   0.050   3.917  0.6352  2.3615  3.1167
   35CHL1  H18B 2545   2.463   0.064   3.759 -0.8599  0.2841  0.3672
   35CHL1  H18C 2546   2.575   0.070   3.905  0.1958 -1.3880 -0.8847
   35CHL1   C12 2547   2.340   0.289   3.776  0.5670 -0.0657  0.3950
   35CHL1  H12A 2548   2.240   0.246   3.798  0.1412  0.4543 -0.4911
   35CHL1  H12B 2549   2.325   0.398   3.792 -0.7992 -0.6239  4.0662
   35CHL1   C11 2550   2.357   0.267   3.624  0.8662 -0.4713  0.0419
   35CHL1  H11A 2551   2.350   0.157   3.608 -0.5540  0.0377 -4.2801
   35CHL1  H11B 2552   2.269   0.308   3.569  2.4296  1.6893 -0.9740
   35CHL1    C9 2553   2.487   0.329   3.561  0.1435 -0.7674 -0.4128
   35CHL1    H9 2554   2.481   0.436   3.588  0.1878 -1.1542  1.2524
   35CHL1   C10 2555   2.497   0.313   3.410 -0.2056 -0.2425 -0.3069
   35CHL1   C19 2556   2.451   0.166   3.361  0.6501  0.1725  0.8231
   35CHL1  H19A 2557   2.342   0.148   3.365  0.7479 -0.3381  1.3281
   35CHL1  H19B 2558   2.491   0.145   3.260  0.0881 -1.5467  0.9273
   35CHL1  H19C 2559   2.492   0.082   3.421  2.2891 -1.3695 -2.2425
   35CHL1    C1 2560   2.404   0.420   3.339 -0.8200  0.1791 -0.5518
   35CHL1   H1A 2561   2.302   0.411   3.381 -1.2180  1.8819 -1.0998
   35CHL1   H1B 2562   2.438   0.517   3.381  0.7259 -0.1827 -0.8970
   35CHL1    C2 2563   2.403   0.424   3.189  0.8328 -0.3483  0.1542
   35CHL1   H2A 2564   2.337   0.499   3.140 -0.9468 -2.7235 -1.3466
   35CHL1   H2B 2565   2.359   0.325   3.162  0.6421 -1.3152  3.5430
   35CHL1   C20 2566   2.416   0.244   4.124  0.8992 -0.8273  0.0972
   35CHL1   H20 2567   2.462   0.148   4.158  2.2895  0.6121  2.5704
   35CHL1   C21 2568   2.264   0.221   4.103  0.3186  0.0173  0.4527
   35CHL1  H21A 2569   2.231   0.141   4.033 -0.2689  2.4102 -2.1373
   35CHL1  H21B 2570   2.232   0.308   4.042  1.8479  0.3336  0.0430
   35CHL1  H21C 2571   2.203   0.221   4.196 -0.8273 -0.1520 -0.2746
   35CHL1   C22 2572   2.428   0.344   4.245  0.0718  0.0817 -0.8024
   35CHL1  H22A 2573   2.385   0.285   4.328  0.1355  0.3611 -0.5699
   35CHL1  H22B 2574   2.536   0.360   4.264 -0.0154  1.2247 -1.1805
   35CHL1   C23 2575   2.347   0.474   4.251 -0.1290 -0.1616  0.9038
   35CHL1  H23A 2576   2.377   0.547   4.173  0.9918 -0.1160  1.3538
   35CHL1  H23B 2577   2.241   0.450   4.232 -0.6794  2.2338  0.6313
   35CHL1   C24 2578   2.369   0.542   4.393  0.4708 -0.2367  0.3963
   35CHL1  H24A 2579   2.476   0.571   4.390  0.5076 -0.4255 -0.0647
   35CHL1  H24B 2580   2.309   0.635   4.400  1.0239  0.0428  2.2026
   35CHL1   C25 2581   2.346   0.474   4.525  0.3366  1.1748  0.2038
   35CHL1   H25 2582   2.401   0.377   4.522 -1.4527  0.1276 -1.2423
   35CHL1   C26 2583   2.399   0.554   4.638  0.4890  0.4359 -0.3049
   35CHL1  H26A 2584   2.509   0.539   4.649  0.8720  2.2097 -1.3035
   35CHL1  H26B 2585   2.380   0.662   4.619 -0.3764  0.0960 -1.4463
   35CHL1  H26C 2586   2.353   0.519   4.733  1.2428  1.6479  0.5400
   35CHL1   C27 2587   2.191   0.442   4.541 -0.7249 -0.2833 -0.5688
   35CHL1  H27A 2588   2.146   0.544   4.543 -0.4229 -0.1497 -0.4940
   35CHL1  H27B 2589   2.159   0.396   4.445  0.9056  0.9473 -1.7673
   35CHL1  H27C 2590   2.173   0.372   4.625  1.2392 -0.6904 -0.4460
   36CHL1    C3 2591   5.731   2.322   3.401 -0.1108  0.7628  0.2383
   36CHL1    H3 2592   5.751   2.213   3.404 -2.6140  0.1666 -1.7987
   36CHL1    O3 2593   5.713   2.382   3.275  0.0085  0.1107 -0.2525
   36CHL1   H3' 2594   5.784   2.443   3.257  0.4499 -0.5804 -0.9044
   36CHL1    C4 2595   5.595   2.334   3.471 -0.0539 -0.3752 -0.1282
   36CHL1   H4A 2596   5.565   2.441   3.468  0.7892 -0.0890  0.7946
   36CHL1   H4B 2597   5.514   2.277   3.421 -0.5851 -0.4659  0.8119
   36CHL1    C5 2598   5.600   2.299   3.623  0.3882  0.5625  1.1335
   36CHL1    C6 2599   5.507   2.220   3.681 -0.4143  0.5304  0.1710
   36CHL1    H6 2600   5.428   2.181   3.615  0.6884 -0.6289 -0.5042
   36CHL1    C7 2601   5.510   2.188   3.823  0.5088  0.0299 -0.1938
   36CHL1   H7A 2602   5.406   2.192   3.862 -0.2913  0.8040 -2.2531
   36CHL1   H7B 2603   5.559   2.089   3.827  2.8972  1.0493 -2.0777
   36CHL1    C8 2604   5.592   2.288   3.903 -0.0502 -0.4637 -0.2813
   36CHL1    H8 2605   5.534   2.382   3.909  1.9925  0.7959  4.3554
   36CHL1   C14 2606   5.602   2.236   4.042 -0.2982 -0.1724  0.0802
   36CHL1   H14 2607   5.656   2.139   4.041  0.3360  0.0981  2.0435
   36CHL1   C15 2608   5.475   2.209   4.128 -0.1277 -0.0783 -0.3582
   36CHL1  H15A 2609   5.404   2.294   4.115  0.3553  0.7964  2.1993
   36CHL1  H15B 2610   5.436   2.109   4.100 -2.1459  0.4053  0.5630
   36CHL1   C16 2611   5.531   2.192   4.273  0.3383 -0.4198  0.6948
   36CHL1  H16A 2612   5.462   2.237   4.348 -0.9080  0.7145 -1.0695
   36CHL1  H16B 2613   5.538   2.083   4.290 -1.4108 -0.6060  0.3443
   36CHL1   C17 2614   5.676   2.254   4.267  0.2441  0.6397  0.3561
   36CHL1   H17 2615   5.741   2.166   4.249  1.8882  2.0595 -1.0390
   36CHL1   C13 2616   5.690   2.326   4.126 -0.7887 -0.5060 -0.4275
   36CHL1   C18 2617   5.637   2.472   4.133 -0.0348 -0.3187 -0.0837
   36CHL1  H18A 2618   5.707   2.513   4.208  0.0242 -1.5599  0.5517
   36CHL1  H18B 2619   5.654   2.525   4.036  1.3625  1.5951  1.1406
   36CHL1  H18C 2620   5.532   2.487   4.167  0.4289  1.1986  0.7811
   36CHL1   C12 2621   5.834   2.324   4.070 -0.1466  0.0660  0.7666
   36CHL1  H12A 2622   5.893   2.382   4.144 -0.8770  0.4573  1.0491
   36CHL1  H12B 2623   5.873   2.220   4.080 -2.0067 -0.6510  0.9870
   36CHL1   C11 2624   5.833   2.386   3.930  0.3549  0.3783 -0.2018
   36CHL1  H11A 2625   5.815   2.496   3.926  1.8888  0.7005  0.9230
   36CHL1  H11B 2626   5.936   2.375   3.890  1.2292  3.2881  0.9837
   36CHL1    C9 2627   5.731   2.307   3.835 -0.5008 -0.2095 -0.0840
   36CHL1    H9 2628   5.764   2.202   3.823  1.1199  0.0477  1.5544
   36CHL1   C10 2629   5.714   2.372   3.695  0.2841 -0.0773  0.2997
   36CHL1   C19 2630   5.652   2.518   3.702  0.2129  0.6199  0.4185
   36CHL1  H19A 2631   5.712   2.580   3.773 -0.3475  1.3323  0.2888
   36CHL1  H19B 2632   5.649   2.574   3.606 -3.9288 -1.7357 -1.1133
   36CHL1  H19C 2633   5.552   2.536   3.749  0.4687  0.4568  1.0438
   36CHL1    C1 2634   5.849   2.372   3.625 -0.5139  0.1612 -0.0172
   36CHL1   H1A 2635   5.910   2.457   3.662  0.3596 -0.6061  0.3281
   36CHL1   H1B 2636   5.912   2.287   3.658  2.5701  2.0216 -0.6598
   36CHL1    C2 2637   5.842   2.397   3.477  0.0377 -0.8125  0.8299
   36CHL1   H2A 2638   5.939   2.374   3.427 -1.0034 -1.7691 -0.8445
   36CHL1   H2B 2639   5.836   2.507   3.462 -2.4934 -1.2302 -2.1909
   36CHL1   C20 2640   5.733   2.319   4.391 -0.1629  0.4588 -0.3346
   36CHL1   H20 2641   5.827   2.368   4.360  0.2857  0.0309  0.3254
   36CHL1   C21 2642   5.776   2.208   4.487  0.1770 -0.9023 -0.4139
   36CHL1  H21A 2643   5.799   2.259   4.583 -2.7128 -0.7393  0.3129
   36CHL1  H21B 2644   5.870   2.161   4.454  0.7185  0.8586 -1.5547
   36CHL1  H21C 2645   5.687   2.143   4.501 -0.8782  0.5290 -0.2358
   36CHL1   C22 2646   5.645   2.429   4.461  0.0034 -0.0407  0.3753
   36CHL1  H22A 2647   5.606   2.492   4.378 -0.7707 -0.5183  0.3597
   36CHL1  H22B 2648   5.553   2.381   4.501  0.0307  0.4051  0.9770
   36CHL1   C23 2649   5.713   2.505   4.576 -0.2617 -0.7822  0.2453
   36CHL1  H23A 2650   5.736   2.446   4.667  1.1947 -0.1000  0.3603
   36CHL1  H23B 2651   5.811   2.550   4.550 -1.3509  1.2399 -0.5835
   36CHL1   C24 2652   5.629   2.629   4.615  0.2766 -0.0240  0.3648
   36CHL1  H24A 2653   5.650   2.715   4.549  1.5973  1.2464  2.3234
   36CHL1  H24B 2654   5.524   2.600   4.598  0.1455  1.3536 -1.3149
   36CHL1   C25 2655   5.657   2.683   4.752 -0.7932 -0.0400 -0.1786
   36CHL1   H25 2656   5.654   2.599   4.824  2.3887 -0.3954 -0.2873
   36CHL1   C26 2657   5.795   2.759   4.758  0.3283  0.1453  0.0104
   36CHL1  H26A 2658   5.880   2.688   4.763  0.6164  0.5697  2.6180
   36CHL1  H26B 2659   5.794   2.819   4.664  1.3331 -2.1550 -1.5597
   36CHL1  H26C 2660   5.813   2.825   4.846 -0.9820  1.1821 -0.4734
   36CHL1   C27 2661   5.537   2.776   4.783  0.4906  0.2880  0.4150
   36CHL1  H27A 2662   5.558   2.849   4.863  0.6348  2.1149 -1.2260
   36CHL1  H27B 2663   5.509   2.831   4.691 -0.7037 -0.3337  0.3849
   36CHL1  H27C 2664   5.453   2.719   4.828  2.3358 -1.4623  1.8386
   37CHL1    C3 2665   0.887   6.091   3.099  0.4469 -0.6590  0.6686
   37CHL1    H3 2666   0.835   5.998   3.065 -0.4452  0.1472 -0.2280
   37CHL1    O3 2667   0.947   6.144   2.984 -0.7226 -0.1111  0.3027
   37CHL1   H3' 2668   0.949   6.240   2.994  0.0568  0.3056 -2.7089
   37CHL1    C4 2669   0.808   6.200   3.163  0.1528 -0.2398  0.6747
   37CHL1   H4A 2670   0.865   6.295   3.157  0.4936 -0.5077 -3.9913
   37CHL1   H4B 2671   0.720   6.212   3.096 -0.1555  2.5142  1.4284
   37CHL1    C5 2672   0.770   6.178   3.307  0.0605  0.5173  0.7544
   37CHL1    C6 2673   0.645   6.213   3.342  0.3617  0.3118 -0.3398
   37CHL1    H6 2674   0.576   6.249   3.264  0.8020 -0.1976 -0.9740
   37CHL1    C7 2675   0.596   6.221   3.485 -0.0819 -0.6847  0.6522
   37CHL1   H7A 2676   0.561   6.324   3.509 -0.0595 -0.2341 -1.0903
   37CHL1   H7B 2677   0.517   6.146   3.506  0.6189 -0.9041  2.6919
   37CHL1    C8 2678   0.709   6.183   3.588  0.2377 -0.4265  0.1039
   37CHL1    H8 2679   0.761   6.280   3.604  0.3559 -0.0787 -2.0964
   37CHL1   C14 2680   0.644   6.123   3.702  0.0449 -0.4909  0.3276
   37CHL1   H14 2681   0.591   6.035   3.659 -0.9692  0.4136 -0.3134
   37CHL1   C15 2682   0.534   6.210   3.779  0.6211  1.1320  0.2250
   37CHL1  H15A 2683   0.580   6.311   3.793  0.7014  0.6914  4.4630
   37CHL1  H15B 2684   0.436   6.216   3.728 -0.1232 -0.7556  1.3626
   37CHL1   C16 2685   0.526   6.136   3.917 -0.2440  0.0408  0.0711
   37CHL1  H16A 2686   0.534   6.215   3.994  0.6853 -0.5253  0.5743
   37CHL1  H16B 2687   0.435   6.072   3.918  0.1261 -0.5648 -1.3618
   37CHL1   C17 2688   0.635   6.030   3.923 -0.2777  0.3490  1.0793
   37CHL1   H17 2689   0.588   5.935   3.887  2.4949 -0.9286  0.5179
   37CHL1   C13 2690   0.733   6.066   3.815 -0.1038 -0.3956  0.5148
   37CHL1   C18 2691   0.818   6.185   3.864  0.3246  0.5125 -0.7145
   37CHL1  H18A 2692   0.892   6.147   3.937 -0.3444 -0.9491 -0.7775
   37CHL1  H18B 2693   0.873   6.232   3.779  2.0223 -0.0897  0.0148
   37CHL1  H18C 2694   0.751   6.265   3.902 -0.6694  0.4311 -2.2093
   37CHL1   C12 2695   0.827   5.961   3.753 -0.4451  0.0543 -0.1370
   37CHL1  H12A 2696   0.880   5.903   3.831  1.2079  3.4408  1.4737
   37CHL1  H12B 2697   0.757   5.887   3.708  1.1229 -0.4109 -1.8935
   37CHL1   C11 2698   0.906   6.014   3.641 -0.2121  0.0580  0.5594
   37CHL1  H11A 2699   0.981   6.087   3.678 -0.5808  1.2968 -1.0210
   37CHL1  H11B 2700   0.946   5.922   3.593 -0.2849  0.6889 -0.7481
   37CHL1    C9 2701   0.805   6.074   3.533  0.2314 -0.4767  0.0995
   37CHL1    H9 2702   0.746   5.985   3.500 -1.1702  0.5299 -0.2029
   37CHL1   C10 2703   0.873   6.120   3.401 -0.8602  0.2767  0.1404
   37CHL1   C19 2704   0.981   6.228   3.439 -0.2309  0.2824  0.0305
   37CHL1  H19A 2705   1.028   6.274   3.350  1.7166 -2.0777 -0.2712
   37CHL1  H19B 2706   0.942   6.313   3.499 -1.2369 -0.9909  1.2462
   37CHL1  H19C 2707   1.065   6.183   3.497  0.3814  1.3848  0.0165
   37CHL1    C1 2708   0.937   5.999   3.332  0.7475  0.2022  0.0690
   37CHL1   H1A 2709   1.014   5.979   3.410  1.7827  3.0534 -0.1218
   37CHL1   H1B 2710   0.863   5.917   3.317 -0.9434  1.2700  2.0439
   37CHL1    C2 2711   0.993   6.042   3.197 -0.1144 -1.0680  0.1292
   37CHL1   H2A 2712   1.044   5.953   3.155  1.0165 -1.2889  1.8861
   37CHL1   H2B 2713   1.062   6.125   3.222 -2.2646  0.3818  1.6176
   37CHL1   C20 2714   0.693   5.988   4.059  0.0725 -0.8023 -0.9727
   37CHL1   H20 2715   0.797   5.953   4.045  1.1539  1.8507 -0.2218
   37CHL1   C21 2716   0.620   5.861   4.100  0.3317  0.7318  0.6591
   37CHL1  H21A 2717   0.512   5.860   4.073  0.3503 -2.1418  0.4009
   37CHL1  H21B 2718   0.635   5.815   4.200 -2.7707 -0.8104  0.5254
   37CHL1  H21C 2719   0.666   5.784   4.035  1.0062 -0.9115  2.9642
   37CHL1   C22 2720   0.680   6.087   4.176 -0.1131  0.3576 -0.2281
   37CHL1  H22A 2721   0.676   6.196   4.152  0.3247  1.2097  3.0678
   37CHL1  H22B 2722   0.573   6.075   4.205 -0.0869  0.8353  0.0952
   37CHL1   C23 2723   0.772   6.053   4.297  0.1907  0.0218 -0.2979
   37CHL1  H23A 2724   0.786   5.943   4.300  2.5818  0.3024  1.2890
   37CHL1  H23B 2725   0.866   6.109   4.282  0.3436  1.1459  3.7249
   37CHL1   C24 2726   0.728   6.111   4.432  0.5203  0.4100 -0.3334
   37CHL1  H24A 2727   0.738   6.221   4.430  3.2093  0.2951  1.9503
   37CHL1  H24B 2728   0.624   6.075   4.447  1.4211 -1.2007  2.6857
   37CHL1   C25 2729   0.811   6.065   4.551  0.0687 -0.1711 -0.5028
   37CHL1   H25 2730   0.920   6.085   4.543  0.0878 -0.0932 -0.0626
   37CHL1   C26 2731   0.766   6.129   4.684  0.2786  0.0335  0.8698
   37CHL1  H26A 2732   0.833   6.103   4.769  0.4668  1.8379  1.3147
   37CHL1  H26B 2733   0.752   6.237   4.665  0.9675 -0.0347 -0.1242
   37CHL1  H26C 2734   0.666   6.089   4.711 -0.2956  0.8092 -0.0511
   37CHL1   C27 2735   0.808   5.915   4.563  0.9759  0.2480 -0.1738
   37CHL1  H27A 2736   0.845   5.859   4.475 -2.0938 -2.0972 -0.1311
   37CHL1  H27B 2737   0.876   5.895   4.649  0.8270 -1.4684 -0.4230
   37CHL1  H27C 2738   0.707   5.878   4.590  0.3731 -0.4686 -3.0760
   38CHL1    C3 2739   2.850   5.801   3.596  0.3283  0.1112 -0.9954
   38CHL1    H3 2740   2.919   5.881   3.562  2.2059 -1.1786 -0.4119
   38CHL1    O3 2741   2.818   5.721   3.486  0.3673  0.4214 -0.5383
   38CHL1   H3' 2742   2.832   5.784   3.416 -2.9121  1.8186 -0.1375
   38CHL1    C4 2743   2.918   5.716   3.706  0.1423  0.8595  0.0279
   38CHL1   H4A 2744   2.845   5.639   3.741  2.0281  0.2271  2.9424
   38CHL1   H4B 2745   2.998   5.654   3.661 -1.9332 -2.0500  0.0160
   38CHL1    C5 2746   2.946   5.793   3.830 -0.3246  0.0992 -0.2384
   38CHL1    C6 2747   3.069   5.806   3.875 -0.4324 -1.0652  0.0411
   38CHL1    H6 2748   3.148   5.752   3.820 -1.0523  0.4238 -2.5032
   38CHL1    C7 2749   3.110   5.878   3.997  0.3478 -0.7901  0.4867
   38CHL1   H7A 2750   3.180   5.820   4.061  0.3480 -1.8125 -0.4006
   38CHL1   H7B 2751   3.167   5.967   3.966 -2.2058  0.9369  0.4503
   38CHL1    C8 2752   2.985   5.913   4.079 -0.5275  0.0648  0.4560
   38CHL1    H8 2753   2.960   5.818   4.132 -0.7362  0.1194  0.4560
   38CHL1   C14 2754   3.032   6.022   4.180  0.3089 -0.6870  0.6427
   38CHL1   H14 2755   3.048   6.103   4.105 -1.4461  1.0944  2.0761
   38CHL1   C15 2756   3.154   6.004   4.260 -0.4051  0.0587 -0.2259
   38CHL1  H15A 2757   3.156   5.901   4.302 -0.1191 -0.6820 -1.9442
   38CHL1  H15B 2758   3.240   6.010   4.190 -0.1377 -1.0020  0.0001
   38CHL1   C16 2759   3.150   6.105   4.373  0.3054 -0.1920 -0.2406
   38CHL1  H16A 2760   3.143   6.045   4.467  0.8532  0.6812  0.3727
   38CHL1  H16B 2761   3.242   6.167   4.368  1.8109 -2.2984 -0.3282
   38CHL1   C17 2762   3.020   6.179   4.356  0.6585  0.3820  0.5380
   38CHL1   H17 2763   3.039   6.262   4.284  1.3762  0.1768  0.4787
   38CHL1   C13 2764   2.931   6.074   4.280 -0.5175 -0.2894 -0.0851
   38CHL1   C18 2765   2.892   5.951   4.373 -0.0207 -0.3988  0.4942
   38CHL1  H18A 2766   2.983   5.924   4.432 -0.7163  0.2065  1.8965
   38CHL1  H18B 2767   2.827   5.987   4.455 -0.0132 -2.0577  1.2796
   38CHL1  H18C 2768   2.839   5.864   4.329 -1.6592  0.6646  0.2863
   38CHL1   C12 2769   2.807   6.136   4.198 -0.4962  0.5575 -0.6147
   38CHL1  H12A 2770   2.741   6.147   4.287 -0.5152  0.3193 -0.5988
   38CHL1  H12B 2771   2.838   6.238   4.167  1.3110  0.0407 -0.5869
   38CHL1   C11 2772   2.758   6.039   4.087  0.1343 -0.1290  0.0518
   38CHL1  H11A 2773   2.703   5.957   4.139  1.3609 -1.4498 -0.6572
   38CHL1  H11B 2774   2.683   6.091   4.024  1.6057  3.6928  1.1827
   38CHL1    C9 2775   2.871   5.972   3.992 -0.4138  0.0449  0.3745
   38CHL1    H9 2776   2.918   6.054   3.933 -1.5321  1.2765  1.1363
   38CHL1   C10 2777   2.827   5.872   3.887  0.0164  0.2173 -0.3308
   38CHL1   C19 2778   2.719   5.772   3.951 -0.3346 -0.0536 -0.1892
   38CHL1  H19A 2779   2.728   5.673   3.900 -0.1122 -0.2817  0.2930
   38CHL1  H19B 2780   2.743   5.761   4.059 -1.9865  0.2618  0.2335
   38CHL1  H19C 2781   2.616   5.813   3.940 -0.8705 -0.5456  2.4398
   38CHL1    C1 2782   2.757   5.951   3.778 -0.1160  0.2607 -0.1804
   38CHL1   H1A 2783   2.666   5.998   3.821  1.9908  4.1408  0.4815
   38CHL1   H1B 2784   2.818   6.040   3.753 -1.3043  0.5766 -2.1348
   38CHL1    C2 2785   2.721   5.870   3.657 -0.8964 -0.2280  0.5809
   38CHL1   H2A 2786   2.675   5.935   3.578 -2.2477 -0.7852  0.8720
   38CHL1   H2B 2787   2.656   5.784   3.683 -0.2433 -0.5948  0.9943
   38CHL1   C20 2788   2.974   6.249   4.483  0.5014  0.1387 -0.7374
   38CHL1   H20 2789   2.956   6.177   4.567 -0.9346  1.7763  0.4345
   38CHL1   C21 2790   2.841   6.321   4.469  0.6361 -0.2331 -0.2806
   38CHL1  H21A 2791   2.812   6.381   4.558  1.5324  1.5393 -1.1338
   38CHL1  H21B 2792   2.757   6.250   4.459  0.1291  0.1349  1.1278
   38CHL1  H21C 2793   2.829   6.392   4.385 -3.4651 -0.3525 -0.0042
   38CHL1   C22 2794   3.075   6.350   4.531  0.0670 -0.9889 -0.8909
   38CHL1  H22A 2795   3.048   6.403   4.626  1.5396  0.9203 -1.4845
   38CHL1  H22B 2796   3.173   6.304   4.553  2.8881  4.5862 -0.1139
   38CHL1   C23 2797   3.121   6.463   4.432  0.4013  0.4368 -0.1948
   38CHL1  H23A 2798   3.198   6.421   4.364  1.1960 -0.4079  1.1761
   38CHL1  H23B 2799   3.044   6.496   4.358  0.8447 -0.4839 -1.0895
   38CHL1   C24 2800   3.171   6.600   4.489 -0.9463  0.7244 -0.0569
   38CHL1  H24A 2801   3.117   6.617   4.585 -0.0426  0.0606  0.5997
   38CHL1  H24B 2802   3.277   6.587   4.519 -1.5409 -1.2682  1.4410
   38CHL1   C25 2803   3.154   6.720   4.395  0.4744  0.1118 -0.2902
   38CHL1   H25 2804   3.049   6.741   4.366  0.4577  1.3910  0.6587
   38CHL1   C26 2805   3.204   6.845   4.459 -0.2022 -0.3885 -0.2020
   38CHL1  H26A 2806   3.135   6.866   4.544  1.3883 -0.7089  1.2414
   38CHL1  H26B 2807   3.303   6.813   4.498  0.1011 -0.7258 -1.2318
   38CHL1  H26C 2808   3.218   6.935   4.395  3.3917 -1.0355 -0.5537
   38CHL1   C27 2809   3.215   6.693   4.253  0.1356 -0.1487 -0.3589
   38CHL1  H27A 2810   3.227   6.774   4.177 -1.2817 -0.4334 -0.9132
   38CHL1  H27B 2811   3.314   6.644   4.265 -1.2704 -2.8845  0.7053
   38CHL1  H27C 2812   3.149   6.613   4.215 -0.7529 -1.5676  3.7158
   39CHL1    C3 2813   1.988   6.119   3.287 -0.2344  0.3689  0.4714
   39CHL1    H3 2814   2.045   6.026   3.310  0.4105  0.5072 -0.4769
   39CHL1    O3 2815   2.014   6.121   3.144 -0.1553 -0.0500 -0.7862
   39CHL1   H3' 2816   1.992   6.213   3.127 -5.2126 -0.4993  1.5560
   39CHL1    C4 2817   1.839   6.114   3.321  0.1452 -0.1372  0.4317
   39CHL1   H4A 2818   1.793   6.210   3.289  0.1973 -0.2239  0.0991
   39CHL1   H4B 2819   1.789   6.033   3.264 -2.7568  1.1403  0.9507
   39CHL1    C5 2820   1.819   6.098   3.472 -0.1271  0.2613  0.6379
   39CHL1    C6 2821   1.749   5.998   3.523  0.6772  0.0722 -0.6672
   39CHL1    H6 2822   1.694   5.922   3.466 -3.0363  1.1388  1.1606
   39CHL1    C7 2823   1.723   5.996   3.675 -0.1397  0.1323  0.3394
   39CHL1   H7A 2824   1.617   5.976   3.701 -0.6556 -0.0031 -1.6767
   39CHL1   H7B 2825   1.786   5.914   3.715  1.7041  1.0772 -0.5492
   39CHL1    C8 2826   1.744   6.125   3.760 -0.2055  0.0167  0.3347
   39CHL1    H8 2827   1.662   6.196   3.736  0.1467 -0.1393 -1.4387
   39CHL1   C14 2828   1.763   6.097   3.911  0.1352  0.0345 -0.1407
   39CHL1   H14 2829   1.855   6.036   3.916  0.2151  0.0842 -0.9045
   39CHL1   C15 2830   1.651   6.026   3.988  0.0218  0.7753  0.0434
   39CHL1  H15A 2831   1.552   6.075   3.978 -0.2399  0.8443  2.3355
   39CHL1  H15B 2832   1.634   5.921   3.955 -0.5059  0.2973  1.7148
   39CHL1   C16 2833   1.690   6.044   4.138  0.6478  0.5553 -1.2012
   39CHL1  H16A 2834   1.597   6.074   4.191  0.6481  0.4036 -1.1160
   39CHL1  H16B 2835   1.708   5.945   4.183  1.8073  1.3720  0.1828
   39CHL1   C17 2836   1.802   6.149   4.137 -0.1907  0.0108 -0.6622
   39CHL1   H17 2837   1.898   6.094   4.123 -0.1826 -0.3680  0.7151
   39CHL1   C13 2838   1.788   6.216   4.000 -0.9836 -0.0325 -0.0913
   39CHL1   C18 2839   1.676   6.320   3.992 -0.2490  0.1939 -0.8765
   39CHL1  H18A 2840   1.718   6.419   4.022 -1.5692  0.8243 -1.0084
   39CHL1  H18B 2841   1.642   6.328   3.887 -0.9475 -0.6943 -0.7279
   39CHL1  H18C 2842   1.593   6.299   4.064  1.9217  0.6979  1.9474
   39CHL1   C12 2843   1.927   6.280   3.942  0.3524  0.0418 -0.0165
   39CHL1  H12A 2844   1.942   6.379   3.991  0.4296 -1.0352  2.2388
   39CHL1  H12B 2845   2.015   6.216   3.962 -0.1132 -0.9075 -0.9182
   39CHL1   C11 2846   1.925   6.295   3.798  0.2519 -0.2151 -0.0333
   39CHL1  H11A 2847   1.855   6.381   3.782 -0.5918 -0.8389  0.2250
   39CHL1  H11B 2848   2.021   6.338   3.762 -0.7790  3.3307  1.0275
   39CHL1    C9 2849   1.879   6.176   3.705 -0.6117  0.2277  0.2963
   39CHL1    H9 2850   1.948   6.093   3.727  0.0903  1.0495  1.3015
   39CHL1   C10 2851   1.883   6.212   3.555 -0.6244 -0.1925  0.1478
   39CHL1   C19 2852   1.811   6.337   3.526 -0.3099  0.0882  0.2213
   39CHL1  H19A 2853   1.837   6.423   3.591 -3.3265  0.6813  0.7782
   39CHL1  H19B 2854   1.800   6.379   3.424  0.9461 -0.5074 -0.1877
   39CHL1  H19C 2855   1.706   6.324   3.560 -0.3955  0.5915  0.1523
   39CHL1    C1 2856   2.032   6.234   3.507  0.3586 -0.2240  0.2819
   39CHL1   H1A 2857   2.075   6.321   3.562  3.8587 -2.1902  0.9286
   39CHL1   H1B 2858   2.075   6.138   3.543  0.5731 -0.5029 -0.7010
   39CHL1    C2 2859   2.056   6.236   3.351  0.0153 -0.1523 -0.5932
   39CHL1   H2A 2860   2.165   6.242   3.331 -0.4063  0.4362 -2.9496
   39CHL1   H2B 2861   2.015   6.324   3.298  1.6345  0.9062 -0.1798
   39CHL1   C20 2862   1.808   6.241   4.265 -0.0324 -0.1042  0.1665
   39CHL1   H20 2863   1.720   6.309   4.273 -0.4613 -0.5571 -0.5506
   39CHL1   C21 2864   1.938   6.329   4.273  0.5494 -0.2039 -0.0237
   39CHL1  H21A 2865   1.930   6.397   4.360 -2.1531 -2.0892  1.3369
   39CHL1  H21B 2866   1.946   6.398   4.187 -0.5692 -1.9464 -1.6064
   39CHL1  H21C 2867   2.029   6.268   4.292  2.0217  1.3836 -1.6770
   39CHL1   C22 2868   1.796   6.153   4.399  0.3447 -0.3112 -0.2164
   39CHL1  H22A 2869   1.711   6.082   4.396 -0.5137  0.7127 -0.8992
   39CHL1  H22B 2870   1.887   6.092   4.414 -0.6693 -1.8768 -0.2709
   39CHL1   C23 2871   1.765   6.234   4.522 -0.0570 -0.0856  1.1686
   39CHL1  H23A 2872   1.851   6.300   4.542 -0.2088  0.5818 -0.2608
   39CHL1  H23B 2873   1.670   6.292   4.521  0.5481  0.9429 -0.3632
   39CHL1   C24 2874   1.740   6.153   4.646 -0.5560 -0.0978 -0.0757
   39CHL1  H24A 2875   1.827   6.087   4.667  1.6637  1.1127 -4.3133
   39CHL1  H24B 2876   1.734   6.227   4.728 -0.7777  1.6764 -1.6318
   39CHL1   C25 2877   1.617   6.063   4.652 -0.0331  0.2933  0.9799
   39CHL1   H25 2878   1.611   5.994   4.564 -1.3943 -1.4456  2.3600
   39CHL1   C26 2879   1.609   5.985   4.784  0.0006 -0.4010 -0.2886
   39CHL1  H26A 2880   1.549   5.893   4.768 -0.8322  0.1387 -0.3672
   39CHL1  H26B 2881   1.715   5.967   4.812  0.4368 -2.4002 -2.8501
   39CHL1  H26C 2882   1.555   6.048   4.858  0.5233  1.6983 -1.5975
   39CHL1   C27 2883   1.486   6.146   4.647  0.5079 -0.2309  0.3143
   39CHL1  H27A 2884   1.399   6.077   4.648 -0.9089  1.4638  0.5305
   39CHL1  H27B 2885   1.482   6.214   4.735  1.4732 -0.2173  0.3616
   39CHL1  H27C 2886   1.467   6.220   4.566 -0.1948  0.8904  1.4727
   40CHL1    C3 2887   0.648   3.558   3.171 -0.9694 -0.4173 -0.1710
   40CHL1    H3 2888   0.745   3.580   3.220 -0.6428  0.1697 -1.0618
   40CHL1    O3 2889   0.639   3.612   3.032 -0.4423  0.1552  0.3526
   40CHL1   H3' 2890   0.604   3.533   2.990 -0.5502 -0.2964  1.2652
   40CHL1    C4 2891   0.633   3.407   3.154  1.8143  0.3275 -0.4874
   40CHL1   H4A 2892   0.543   3.384   3.093 -0.6139  1.1765  2.5127
   40CHL1   H4B 2893   0.723   3.367   3.103  0.8163 -1.6990 -0.7615
   40CHL1    C5 2894   0.617   3.331   3.288 -0.0521  0.5994 -0.0025
   40CHL1    C6 2895   0.706   3.237   3.323 -0.3752 -0.1510 -1.4236
   40CHL1    H6 2896   0.788   3.211   3.255  0.5234 -0.1920 -0.3458
   40CHL1    C7 2897   0.697   3.165   3.454  0.1750 -0.5732  0.5220
   40CHL1   H7A 2898   0.699   3.056   3.432 -1.5458 -0.2418 -1.5622
   40CHL1   H7B 2899   0.782   3.198   3.519  0.3034  2.6590 -1.0887
   40CHL1    C8 2900   0.556   3.189   3.520 -0.3521 -0.0029 -0.6051
   40CHL1    H8 2901   0.485   3.117   3.473 -1.4345  0.5961  0.0801
   40CHL1   C14 2902   0.566   3.138   3.665 -0.3154 -0.4440 -0.2412
   40CHL1   H14 2903   0.651   3.194   3.709 -0.0094  0.0214 -1.3766
   40CHL1   C15 2904   0.605   2.996   3.681  0.1334  0.1326  0.0110
   40CHL1  H15A 2905   0.534   2.940   3.618  0.0250 -1.3493  1.3774
   40CHL1  H15B 2906   0.713   2.971   3.669 -0.1593 -1.6813  0.8027
   40CHL1   C16 2907   0.580   2.976   3.832 -0.6195  0.1208  0.3430
   40CHL1  H16A 2908   0.529   2.878   3.839  0.7531 -0.4965  2.6052
   40CHL1  H16B 2909   0.671   2.978   3.895 -1.9069 -0.8717  2.3489
   40CHL1   C17 2910   0.476   3.092   3.879  0.1975 -0.8562 -0.5137
   40CHL1   H17 2911   0.547   3.163   3.927  0.9212 -2.2121  0.5076
   40CHL1   C13 2912   0.442   3.161   3.761 -0.2327  0.6624  0.1440
   40CHL1   C18 2913   0.320   3.089   3.697  0.1948  0.1069 -0.5372
   40CHL1  H18A 2914   0.323   3.109   3.588 -0.1561  2.7764 -0.1339
   40CHL1  H18B 2915   0.322   2.984   3.731  0.2552  1.0565  2.7321
   40CHL1  H18C 2916   0.228   3.138   3.736  1.2097  1.7535 -0.1046
   40CHL1   C12 2917   0.425   3.310   3.760 -0.1136 -0.0795  0.2508
   40CHL1  H12A 2918   0.328   3.336   3.809  0.1568  0.7589  0.3572
   40CHL1  H12B 2919   0.503   3.363   3.819 -1.0083  1.8600 -0.2334
   40CHL1   C11 2920   0.402   3.369   3.616 -0.6464  0.8007 -0.9354
   40CHL1  H11A 2921   0.304   3.328   3.585 -0.1777 -1.5420  0.4341
   40CHL1  H11B 2922   0.392   3.480   3.619 -2.0845  0.6759  0.3449
   40CHL1    C9 2923   0.519   3.329   3.517  0.1662 -0.2287 -0.1151
   40CHL1    H9 2924   0.606   3.377   3.566 -0.2839  0.6646 -0.1782
   40CHL1   C10 2925   0.502   3.385   3.377 -0.6098 -0.0542 -0.2995
   40CHL1   C19 2926   0.361   3.357   3.326  0.1108 -0.5439  0.1879
   40CHL1  H19A 2927   0.348   3.383   3.219  0.6781 -2.0732 -0.2801
   40CHL1  H19B 2928   0.347   3.246   3.327  0.5673 -0.6113 -0.2866
   40CHL1  H19C 2929   0.288   3.407   3.393  0.1721 -0.4090  0.1536
   40CHL1    C1 2930   0.515   3.546   3.384 -0.1232  0.0765 -0.5501
   40CHL1   H1A 2931   0.432   3.589   3.444  2.3143  0.7215  2.6317
   40CHL1   H1B 2932   0.605   3.566   3.446 -1.2123  0.9543  0.8056
   40CHL1    C2 2933   0.535   3.610   3.246  0.3923 -0.2291  0.3074
   40CHL1   H2A 2934   0.545   3.719   3.266 -1.6567 -0.1495  1.1457
   40CHL1   H2B 2935   0.447   3.611   3.178  0.5737 -1.1210  0.0474
   40CHL1   C20 2936   0.369   3.046   3.985 -0.6387 -0.4176 -0.4155
   40CHL1   H20 2937   0.278   3.007   3.935 -1.2454  0.9134 -0.3962
   40CHL1   C21 2938   0.309   3.170   4.047  0.2158  0.5311 -0.2204
   40CHL1  H21A 2939   0.236   3.142   4.126 -0.8468 -0.6500 -1.5628
   40CHL1  H21B 2940   0.261   3.228   3.965 -0.5575 -0.0506 -0.1881
   40CHL1  H21C 2941   0.393   3.230   4.089  1.3212 -1.3821  0.4268
   40CHL1   C22 2942   0.425   2.953   4.095  0.2203 -0.1778 -0.1834
   40CHL1  H22A 2943   0.333   2.909   4.139 -1.1965  1.4505 -1.4160
   40CHL1  H22B 2944   0.479   2.878   4.033 -1.5446 -0.2842 -1.6581
   40CHL1   C23 2945   0.518   3.004   4.190  0.1464  0.0159  0.7307
   40CHL1  H23A 2946   0.607   3.043   4.136 -0.5681  0.1515 -0.3700
   40CHL1  H23B 2947   0.482   3.091   4.249 -0.3351 -0.2258  0.7903
   40CHL1   C24 2948   0.561   2.902   4.295 -0.1176 -0.7252  1.0178
   40CHL1  H24A 2949   0.477   2.862   4.356  1.0318 -1.4839  2.1450
   40CHL1  H24B 2950   0.607   2.826   4.228 -1.4434  1.6765 -2.9640
   40CHL1   C25 2951   0.652   2.969   4.395 -0.0057  0.0078 -0.0357
   40CHL1   H25 2952   0.723   3.025   4.330 -0.2868 -1.1069 -1.3465
   40CHL1   C26 2953   0.573   3.051   4.493 -0.7867  0.1457  0.0278
   40CHL1  H26A 2954   0.511   2.981   4.552  0.7405 -1.3172 -0.0246
   40CHL1  H26B 2955   0.641   3.104   4.563 -2.2815  1.1258  0.7903
   40CHL1  H26C 2956   0.513   3.133   4.448 -0.2657  0.4995 -0.0371
   40CHL1   C27 2957   0.720   2.847   4.465  0.2793 -0.7709  0.2206
   40CHL1  H27A 2958   0.771   2.776   4.397 -0.0144 -1.9725  1.2064
   40CHL1  H27B 2959   0.794   2.882   4.540 -0.1450 -0.8981  0.7063
   40CHL1  H27C 2960   0.637   2.785   4.506 -1.3825  0.3181 -1.3401
   41CHL1    C3 2961   4.636   6.623   3.251 -1.2754 -0.4275  0.0087
   41CHL1    H3 2962   4.610   6.731   3.245 -0.4016 -0.2612 -1.1351
   41CHL1    O3 2963   4.636   6.578   3.116  0.7117  0.0075 -0.5253
   41CHL1   H3' 2964   4.656   6.486   3.131  1.1690  0.1732 -0.0904
   41CHL1    C4 2965   4.784   6.608   3.304 -0.1291 -0.4065 -0.0267
   41CHL1   H4A 2966   4.812   6.501   3.300 -0.4688 -0.4697 -1.4270
   41CHL1   H4B 2967   4.850   6.664   3.234  0.3070 -0.8550  0.0268
   41CHL1    C5 2968   4.787   6.665   3.443 -0.2460 -0.3717 -0.1083
   41CHL1    C6 2969   4.875   6.763   3.481  0.5187 -0.3650  0.2643
   41CHL1    H6 2970   4.947   6.805   3.409 -2.0427  0.5035 -1.9609
   41CHL1    C7 2971   4.891   6.818   3.617 -0.1207  0.6629 -0.1567
   41CHL1   H7A 2972   4.998   6.820   3.647 -0.0455 -0.3587 -0.3228
   41CHL1   H7B 2973   4.851   6.921   3.625 -0.2181  0.5210  1.5378
   41CHL1    C8 2974   4.816   6.735   3.720 -0.4496 -0.3503 -0.3861
   41CHL1    H8 2975   4.884   6.648   3.732  1.2080  0.9954  0.3704
   41CHL1   C14 2976   4.800   6.811   3.847 -0.6124  0.0913 -0.3870
   41CHL1   H14 2977   4.736   6.898   3.821 -0.6745  0.0169 -0.4840
   41CHL1   C15 2978   4.924   6.875   3.921 -0.1055  0.4030 -0.6368
   41CHL1  H15A 2979   5.003   6.798   3.935 -2.0652 -1.6461 -0.1200
   41CHL1  H15B 2980   4.970   6.958   3.864 -1.6542  1.6129 -0.1911
   41CHL1   C16 2981   4.870   6.916   4.058  0.0967  1.0126 -0.0549
   41CHL1  H16A 2982   4.947   6.884   4.131  0.6749  1.2740 -0.5437
   41CHL1  H16B 2983   4.852   7.026   4.056 -0.4256  0.9616 -2.6421
   41CHL1   C17 2984   4.745   6.836   4.087 -0.3354 -0.2323 -0.3794
   41CHL1   H17 2985   4.659   6.903   4.070  0.1573  0.3229 -0.7470
   41CHL1   C13 2986   4.734   6.732   3.967  0.4271 -0.2462  0.3625
   41CHL1   C18 2987   4.811   6.606   4.006  0.2344 -0.0974  0.7747
   41CHL1  H18A 2988   4.908   6.643   4.046 -0.1361  0.5620  1.0800
   41CHL1  H18B 2989   4.754   6.552   4.086 -2.6873  1.7284  0.0947
   41CHL1  H18C 2990   4.820   6.530   3.926 -0.3526 -1.0653  1.5908
   41CHL1   C12 2991   4.597   6.706   3.922 -0.0694  0.0131 -0.1760
   41CHL1  H12A 2992   4.531   6.657   3.997  1.0853 -0.9288  0.2684
   41CHL1  H12B 2993   4.550   6.802   3.895 -4.1920 -1.5365  0.7740
   41CHL1   C11 2994   4.593   6.623   3.793  0.3399 -0.4623  0.3427
   41CHL1  H11A 2995   4.625   6.520   3.820  0.6650 -0.4396  0.0560
   41CHL1  H11B 2996   4.489   6.617   3.756  0.3244 -2.0021  0.5801
   41CHL1    C9 2997   4.677   6.686   3.679 -0.0548 -0.2579 -0.7284
   41CHL1    H9 2998   4.631   6.786   3.662  0.3949  0.0002 -0.4198
   41CHL1   C10 2999   4.685   6.602   3.540  0.6934 -0.4636  0.3004
   41CHL1   C19 3000   4.726   6.459   3.578 -0.3525  0.2914 -0.2916
   41CHL1  H19A 3001   4.816   6.461   3.644 -0.1264 -0.1779 -0.5763
   41CHL1  H19B 3002   4.651   6.410   3.644 -3.4215  3.4605 -1.1600
   41CHL1  H19C 3003   4.748   6.382   3.501  1.1560  0.2310  0.1667
   41CHL1    C1 3004   4.543   6.604   3.474 -0.4630  0.3282  0.3317
   41CHL1   H1A 3005   4.471   6.542   3.531 -1.8856 -0.5700 -2.2777
   41CHL1   H1B 3006   4.509   6.709   3.469 -0.7605  0.2511  0.7621
   41CHL1    C2 3007   4.546   6.545   3.331  0.7939  0.3529 -0.8958
   41CHL1   H2A 3008   4.444   6.532   3.289  0.6250 -1.9100  0.0907
   41CHL1   H2B 3009   4.591   6.444   3.326  2.1165  0.9466 -1.5515
   41CHL1   C20 3010   4.730   6.794   4.236 -0.5877  0.2597  0.2234
   41CHL1   H20 3011   4.807   6.715   4.246 -1.1179 -0.5787 -1.8492
   41CHL1   C21 3012   4.596   6.723   4.263 -0.3291  0.6276  0.2966
   41CHL1  H21A 3013   4.581   6.626   4.212 -3.2123  0.6906  0.8551
   41CHL1  H21B 3014   4.509   6.791   4.253  0.0243  1.1013  0.3697
   41CHL1  H21C 3015   4.594   6.700   4.372 -2.1928 -1.7560 -0.1593
   41CHL1   C22 3016   4.755   6.906   4.340  1.2229  0.3803 -0.0485
   41CHL1  H22A 3017   4.799   6.868   4.435  0.4106  1.1225  0.6422
   41CHL1  H22B 3018   4.845   6.967   4.319  1.5948 -0.4875 -1.0625
   41CHL1   C23 3019   4.632   6.993   4.367 -0.6695  0.6427 -0.5164
   41CHL1  H23A 3020   4.575   7.016   4.275 -3.6225  0.8985  1.2319
   41CHL1  H23B 3021   4.559   6.943   4.434 -1.3992  0.4073 -1.4756
   41CHL1   C24 3022   4.662   7.131   4.443  0.3294 -0.1805  0.2394
   41CHL1  H24A 3023   4.751   7.172   4.390 -0.5065  0.9936 -0.2721
   41CHL1  H24B 3024   4.572   7.191   4.419  0.1831  0.6228  2.6377
   41CHL1   C25 3025   4.703   7.128   4.592  0.2631 -0.1536  0.3747
   41CHL1   H25 3026   4.775   7.046   4.615 -0.7932 -1.2776 -0.2108
   41CHL1   C26 3027   4.775   7.253   4.634 -0.1098 -0.0748  0.9161
   41CHL1  H26A 3028   4.735   7.346   4.588  1.1004  0.1791  0.3224
   41CHL1  H26B 3029   4.780   7.268   4.744  5.4241 -0.3495  0.9992
   41CHL1  H26C 3030   4.882   7.242   4.606 -0.1705  0.8612  0.2691
   41CHL1   C27 3031   4.585   7.103   4.672 -0.0427  0.6609 -0.0541
   41CHL1  H27A 3032   4.587   7.140   4.777 -4.0718  3.6946 -0.7879
   41CHL1  H27B 3033   4.496   7.153   4.629 -1.1274 -0.9943  0.1498
   41CHL1  H27C 3034   4.560   6.995   4.664  0.2802  0.3338  2.3710
   42CHL1    C3 3035   1.076   4.900   3.078 -0.9612  0.4326 -0.1854
   42CHL1    H3 3036   1.183   4.903   3.109 -1.3154 -2.7686  1.8222
   42CHL1    O3 3037   1.059   4.891   2.936 -0.1635 -0.3308 -0.4307
   42CHL1   H3' 3038   1.102   4.811   2.905 -0.6653 -0.9529  0.4354
   42CHL1    C4 3039   0.989   4.796   3.151 -0.0680 -0.4433 -0.2820
   42CHL1   H4A 3040   0.883   4.804   3.116  0.6860  0.8047 -2.4729
   42CHL1   H4B 3041   1.011   4.695   3.112 -2.9666 -1.1196 -0.4375
   42CHL1    C5 3042   0.987   4.805   3.301 -0.1388  0.0697  0.5011
   42CHL1    C6 3043   1.006   4.697   3.378 -0.1675 -0.4793 -0.3792
   42CHL1    H6 3044   1.029   4.603   3.326 -1.5189  0.5677 -2.9950
   42CHL1    C7 3045   1.014   4.704   3.530 -0.5746  0.0315 -0.0706
   42CHL1   H7A 3046   0.990   4.604   3.572 -0.9203 -0.1886 -0.7707
   42CHL1   H7B 3047   1.121   4.718   3.559 -1.0480  2.9722  0.5553
   42CHL1    C8 3048   0.949   4.835   3.591 -0.1165 -0.7618  0.2237
   42CHL1    H8 3049   0.838   4.842   3.587 -0.0253  1.8506  0.4185
   42CHL1   C14 3050   1.007   4.849   3.729  0.3437  0.0817 -0.1407
   42CHL1   H14 3051   1.115   4.866   3.709  0.1435 -1.6237 -3.1818
   42CHL1   C15 3052   0.995   4.737   3.832  0.5182 -0.1189  0.3247
   42CHL1  H15A 3053   0.885   4.724   3.830  0.5302 -0.7528  1.9435
   42CHL1  H15B 3054   1.054   4.644   3.817  1.1599  0.1629  1.0270
   42CHL1   C16 3055   1.040   4.803   3.958  0.7821 -0.1300 -0.1733
   42CHL1  H16A 3056   0.977   4.766   4.041  0.8217  0.1326 -0.0279
   42CHL1  H16B 3057   1.143   4.779   3.991  0.0673 -0.5235  1.9191
   42CHL1   C17 3058   1.032   4.963   3.940 -0.2631 -0.5653  0.0850
   42CHL1   H17 3059   1.138   4.990   3.917 -0.3118  0.2332  0.7962
   42CHL1   C13 3060   0.963   4.975   3.801  0.3319  0.4219  0.1887
   42CHL1   C18 3061   0.805   4.991   3.830 -0.0391 -0.5355  0.0592
   42CHL1  H18A 3062   0.782   5.060   3.913 -0.8420 -1.9847  1.0850
   42CHL1  H18B 3063   0.747   5.011   3.737 -0.4698  2.5573  0.8697
   42CHL1  H18C 3064   0.764   4.893   3.862 -0.9386 -1.7302 -4.0964
   42CHL1   C12 3065   1.005   5.100   3.715  0.6546 -0.0960  0.1873
   42CHL1  H12A 3066   0.962   5.192   3.760 -1.2016 -0.5774 -0.4888
   42CHL1  H12B 3067   1.116   5.108   3.712  0.7699 -0.4134  2.1312
   42CHL1   C11 3068   0.950   5.085   3.574  0.2588  0.3588  0.4213
   42CHL1  H11A 3069   0.840   5.083   3.564  0.1524 -0.8167  1.6399
   42CHL1  H11B 3070   0.982   5.174   3.515  1.9741 -0.2022  0.4548
   42CHL1    C9 3071   0.999   4.954   3.508 -0.1192  0.3442 -0.0678
   42CHL1    H9 3072   1.108   4.931   3.509 -0.3224 -0.6622 -0.1826
   42CHL1   C10 3073   0.955   4.942   3.356 -0.3842  0.7021 -0.2124
   42CHL1   C19 3074   0.797   4.970   3.349  0.1820 -0.4265  0.3200
   42CHL1  H19A 3075   0.768   5.068   3.392 -0.7896 -1.2150  1.5490
   42CHL1  H19B 3076   0.761   4.967   3.244  1.0194 -0.7048  0.0324
   42CHL1  H19C 3077   0.732   4.893   3.396 -0.6667 -0.1669 -0.4002
   42CHL1    C1 3078   1.039   5.047   3.273  0.3374  0.6001 -0.2539
   42CHL1   H1A 3079   0.984   5.142   3.291 -0.2345  0.5249 -1.4685
   42CHL1   H1B 3080   1.144   5.033   3.305 -0.3446 -1.0208  1.4949
   42CHL1    C2 3081   1.032   5.036   3.121  0.6866  0.4327 -0.2103
   42CHL1   H2A 3082   1.078   5.118   3.062  0.3393  2.0895  1.7237
   42CHL1   H2B 3083   0.921   5.044   3.112  0.7219  0.5823 -0.5399
   42CHL1   C20 3084   0.997   5.044   4.067  0.0742  0.7806 -0.7323
   42CHL1   H20 3085   0.897   5.008   4.100  0.7017 -0.3754 -0.0476
   42CHL1   C21 3086   0.999   5.198   4.045  0.3722  0.2940 -0.3829
   42CHL1  H21A 3087   1.090   5.235   3.991 -0.1488  1.3932 -0.5376
   42CHL1  H21B 3088   0.987   5.248   4.144 -0.2173 -2.1149  0.8327
   42CHL1  H21C 3089   0.913   5.222   3.978  0.3593 -1.4332 -1.0188
   42CHL1   C22 3090   1.104   5.013   4.169  0.1372 -0.1553  0.1587
   42CHL1  H22A 3091   1.115   4.902   4.177  0.0806 -0.1315  0.6223
   42CHL1  H22B 3092   1.202   5.052   4.135  0.8243 -0.4392  1.6975
   42CHL1   C23 3093   1.074   5.047   4.319  0.3443  0.1123 -0.1087
   42CHL1  H23A 3094   1.065   5.157   4.330  1.5854  0.4000 -1.5218
   42CHL1  H23B 3095   0.977   4.998   4.341 -0.1019  0.6207 -0.8947
   42CHL1   C24 3096   1.178   4.990   4.424 -0.6081  0.3978  0.1636
   42CHL1  H24A 3097   1.186   4.881   4.405  1.9155  0.6024 -0.2043
   42CHL1  H24B 3098   1.273   5.038   4.394 -1.2207  1.8625  0.4869
   42CHL1   C25 3099   1.152   5.023   4.570  0.3994 -0.7856 -0.5149
   42CHL1   H25 3100   1.063   4.960   4.592  0.2154 -0.4940 -0.4165
   42CHL1   C26 3101   1.249   4.972   4.670 -0.2777 -0.4583  0.4844
   42CHL1  H26A 3102   1.243   4.861   4.671 -2.0806 -0.3959  0.0239
   42CHL1  H26B 3103   1.355   5.005   4.658 -0.1544 -0.3463  1.7182
   42CHL1  H26C 3104   1.218   4.992   4.775  1.1456 -0.0091  0.8476
   42CHL1   C27 3105   1.134   5.172   4.600 -0.2219 -0.3179  0.1812
   42CHL1  H27A 3106   1.121   5.201   4.707 -1.4660  1.1517 -0.3200
   42CHL1  H27B 3107   1.224   5.222   4.559  0.5998 -2.3465 -0.5975
   42CHL1  H27C 3108   1.049   5.229   4.555 -0.5377  0.3217  1.5183
   43CHL1    C3 3109   2.755   6.113   6.742  0.2995  0.3223 -0.2174
   43CHL1    H3 3110   2.787   6.207   6.691 -0.3721  0.2032 -0.8822
   43CHL1    O3 3111   2.744   6.125   6.882 -0.1844 -0.1759 -0.0703
   43CHL1   H3' 3112   2.741   6.032   6.905  1.7784 -0.6100 -1.3067
   43CHL1    C4 3113   2.620   6.080   6.675 -0.7741  0.0516 -0.1035
   43CHL1   H4A 3114   2.593   5.985   6.727 -1.6686  0.1442 -0.3703
   43CHL1   H4B 3115   2.549   6.162   6.700  0.1351  0.8713 -0.1416
   43CHL1    C5 3116   2.623   6.055   6.527  0.6841 -0.5902 -0.5680
   43CHL1    C6 3117   2.560   6.134   6.447 -0.2615  0.1894  0.0476
   43CHL1    H6 3118   2.501   6.219   6.485 -3.6181 -1.4593 -1.0729
   43CHL1    C7 3119   2.558   6.118   6.295 -0.0330  0.7635  0.0407
   43CHL1   H7A 3120   2.455   6.123   6.254  0.3730  0.0983 -1.1298
   43CHL1   H7B 3121   2.615   6.201   6.248 -1.3775  0.1070 -2.9970
   43CHL1    C8 3122   2.625   5.988   6.248  0.0385 -0.7767  0.4678
   43CHL1    H8 3123   2.546   5.911   6.257 -0.5601 -0.1575  0.6128
   43CHL1   C14 3124   2.667   5.995   6.096 -0.4458 -0.2853 -1.0608
   43CHL1   H14 3125   2.747   6.071   6.094 -1.8361  1.4691  2.5206
   43CHL1   C15 3126   2.559   6.040   5.993 -0.3087  0.3207 -0.9361
   43CHL1  H15A 3127   2.462   5.986   5.995 -0.3586  0.1770 -3.6339
   43CHL1  H15B 3128   2.532   6.148   5.998  0.4654  0.4545  1.5909
   43CHL1   C16 3129   2.625   6.006   5.865  0.8135 -0.9809 -0.3312
   43CHL1  H16A 3130   2.549   5.961   5.798 -0.2450 -0.0990  0.2552
   43CHL1  H16B 3131   2.661   6.089   5.801 -0.7245 -0.5758 -0.7148
   43CHL1   C17 3132   2.758   5.927   5.891  0.1787 -0.3299  0.0761
   43CHL1   H17 3133   2.846   5.992   5.910  0.2094 -0.1507 -0.6471
   43CHL1   C13 3134   2.735   5.879   6.040  0.4437 -0.0150 -0.3990
   43CHL1   C18 3135   2.636   5.763   6.035  0.0967  0.0652  0.2646
   43CHL1  H18A 3136   2.695   5.669   6.026 -0.6616 -0.3632 -0.3720
   43CHL1  H18B 3137   2.560   5.754   6.116  2.0584 -3.5623  1.9657
   43CHL1  H18C 3138   2.573   5.764   5.944  0.7624 -1.9688 -0.2720
   43CHL1   C12 3139   2.857   5.854   6.118  0.2983  0.2683 -0.2303
   43CHL1  H12A 3140   2.909   5.765   6.077 -0.5014  0.8407 -2.6499
   43CHL1  H12B 3141   2.935   5.933   6.113  2.1835 -1.5769 -1.3177
   43CHL1   C11 3142   2.824   5.831   6.269  0.2907 -0.1180  0.7246
   43CHL1  H11A 3143   2.766   5.737   6.280 -1.5099  1.2045  4.2866
   43CHL1  H11B 3144   2.913   5.816   6.335  1.2294  2.6864  0.2353
   43CHL1    C9 3145   2.754   5.956   6.327 -0.0773 -0.1031  0.0754
   43CHL1    H9 3146   2.814   6.046   6.300 -1.8716  0.9251 -0.6725
   43CHL1   C10 3147   2.733   5.951   6.482 -0.3251  0.7666  0.6256
   43CHL1   C19 3148   2.690   5.803   6.513  0.5145  0.3801  0.1802
   43CHL1  H19A 3149   2.650   5.798   6.617  0.3833  2.9724  0.3231
   43CHL1  H19B 3150   2.609   5.767   6.446  1.7529  1.3390 -1.9290
   43CHL1  H19C 3151   2.779   5.737   6.507  1.5925  1.8701 -1.0032
   43CHL1    C1 3152   2.868   5.991   6.555  0.4124  0.6039  0.5583
   43CHL1   H1A 3153   2.942   5.919   6.515 -2.0944 -0.1477 -3.2235
   43CHL1   H1B 3154   2.901   6.091   6.519 -1.1363  0.6197 -0.9546
   43CHL1    C2 3155   2.856   6.001   6.708  0.0441  0.4879  0.0913
   43CHL1   H2A 3156   2.957   6.024   6.750  0.6156 -0.0982 -0.9351
   43CHL1   H2B 3157   2.836   5.897   6.740  2.2024 -0.0784 -0.2673
   43CHL1   C20 3158   2.797   5.836   5.774 -0.1317  0.1279 -0.0938
   43CHL1   H20 3159   2.707   5.774   5.754 -0.8349  0.2329  2.4135
   43CHL1   C21 3160   2.912   5.742   5.819  0.4108  0.5775  0.1159
   43CHL1  H21A 3161   3.004   5.797   5.849 -0.2533  0.6434  2.1856
   43CHL1  H21B 3162   2.936   5.682   5.729  0.0101  0.7165 -0.0893
   43CHL1  H21C 3163   2.874   5.680   5.903 -1.9647  2.9321  0.9420
   43CHL1   C22 3164   2.818   5.911   5.638 -0.5191 -0.8582  0.1693
   43CHL1  H22A 3165   2.713   5.944   5.623 -0.1166  0.9510  1.0517
   43CHL1  H22B 3166   2.896   5.990   5.649  0.4625 -1.8736  0.5723
   43CHL1   C23 3167   2.872   5.834   5.518  0.8674 -0.1741  1.0124
   43CHL1  H23A 3168   2.965   5.786   5.556 -0.0012 -0.3334  3.0888
   43CHL1  H23B 3169   2.797   5.756   5.493  0.2043  0.9248 -0.6136
   43CHL1   C24 3170   2.891   5.924   5.396  0.1975  0.1950  0.5860
   43CHL1  H24A 3171   2.791   5.970   5.380  0.5632  1.2630  1.2588
   43CHL1  H24B 3172   2.969   5.998   5.422  1.0660 -1.4232  2.8254
   43CHL1   C25 3173   2.904   5.839   5.266  0.3470  0.7360  0.0057
   43CHL1   H25 3174   2.974   5.758   5.295  0.2027  1.1136  1.5018
   43CHL1   C26 3175   2.771   5.771   5.215  0.7984 -0.4209 -0.6224
   43CHL1  H26A 3176   2.792   5.719   5.119 -0.9456 -2.0369 -0.2060
   43CHL1  H26B 3177   2.736   5.691   5.284  0.8699 -2.2935 -2.6425
   43CHL1  H26C 3178   2.691   5.846   5.200  1.8444  0.6976 -0.7584
   43CHL1   C27 3179   2.958   5.913   5.149  0.4254  0.6202 -1.2133
   43CHL1  H27A 3180   3.057   5.962   5.157  0.0650  1.5791 -2.3209
   43CHL1  H27B 3181   2.971   5.852   5.058 -2.0874  2.4709 -2.9737
   43CHL1  H27C 3182   2.882   5.989   5.121  0.3431  0.9584 -0.1427
   44CHL1    C3 3183   0.902   6.719   3.122  0.2848  0.6682  0.4721
   44CHL1    H3 3184   0.792   6.736   3.124  0.1620 -0.0716  0.3908
   44CHL1    O3 3185   0.931   6.702   2.983  0.4835 -0.1762 -0.0644
   44CHL1   H3' 3186   1.024   6.677   2.985  0.2747 -0.9426  1.2158
   44CHL1    C4 3187   0.987   6.832   3.180  0.4750  0.6793 -0.7059
   44CHL1   H4A 3188   1.095   6.805   3.181  0.2339 -0.3222 -0.6426
   44CHL1   H4B 3189   0.980   6.918   3.110  2.3488  1.7188  0.3046
   44CHL1    C5 3190   0.930   6.859   3.320 -0.1651  0.0808  0.2238
   44CHL1    C6 3191   0.890   6.980   3.360 -0.5649 -0.1626  0.2146
   44CHL1    H6 3192   0.885   7.064   3.290 -0.7113 -0.8788 -0.6505
   44CHL1    C7 3193   0.850   7.006   3.506 -0.4044 -0.5253  1.0795
   44CHL1   H7A 3194   0.899   7.097   3.548 -0.7596 -0.0261  0.4279
   44CHL1   H7B 3195   0.741   7.029   3.505 -0.9895 -2.8813 -1.3015
   44CHL1    C8 3196   0.894   6.886   3.598  0.5766 -0.6509 -0.0755
   44CHL1    H8 3197   1.003   6.899   3.615  0.8904 -1.4428 -1.3370
   44CHL1   C14 3198   0.816   6.898   3.735 -0.1362  0.2022  0.6313
   44CHL1   H14 3199   0.711   6.877   3.706 -0.2909  0.4530  0.9973
   44CHL1   C15 3200   0.833   7.036   3.807 -0.5877 -0.7480 -0.5289
   44CHL1  H15A 3201   0.931   7.087   3.814 -1.5433  1.1542 -0.2716
   44CHL1  H15B 3202   0.768   7.113   3.760 -0.0580 -0.1457 -0.3020
   44CHL1   C16 3203   0.781   7.011   3.949  0.4447 -0.0466 -0.0286
   44CHL1  H16A 3204   0.857   7.056   4.017  0.0430  1.4924 -0.5667
   44CHL1  H16B 3205   0.683   7.055   3.977 -0.2249 -1.6265  0.2246
   44CHL1   C17 3206   0.760   6.854   3.956 -0.4293 -0.3360 -0.6568
   44CHL1   H17 3207   0.657   6.826   3.928 -0.4424 -0.2710 -0.6730
   44CHL1   C13 3208   0.855   6.796   3.844 -0.7592  0.6220 -0.6113
   44CHL1   C18 3209   1.003   6.806   3.886  0.6761 -0.2331  0.0776
   44CHL1  H18A 3210   1.019   6.725   3.960 -1.8951 -0.1644  0.7675
   44CHL1  H18B 3211   1.073   6.788   3.801 -0.0115 -1.4242 -0.2667
   44CHL1  H18C 3212   1.035   6.899   3.937  0.8143 -0.8977  1.2476
   44CHL1   C12 3213   0.819   6.659   3.787 -0.5411 -0.1958  0.7315
   44CHL1  H12A 3214   0.834   6.565   3.845 -0.1327 -1.8098 -1.8458
   44CHL1  H12B 3215   0.711   6.656   3.762 -0.5919  0.5932  0.8212
   44CHL1   C11 3216   0.889   6.640   3.645  0.1363  0.3958 -0.5284
   44CHL1  H11A 3217   0.998   6.633   3.660  0.4367  2.0206 -1.6222
   44CHL1  H11B 3218   0.833   6.553   3.605 -1.6438  0.5999  1.3482
   44CHL1    C9 3219   0.870   6.751   3.540 -0.3271  0.5994  0.4183
   44CHL1    H9 3220   0.763   6.745   3.509 -0.0716  0.7200 -0.5144
   44CHL1   C10 3221   0.940   6.728   3.403  0.0732  0.1832 -0.1075
   44CHL1   C19 3222   1.091   6.687   3.422  0.1250  1.2883 -1.0686
   44CHL1  H19A 3223   1.097   6.594   3.482 -2.1674  1.8522  0.1556
   44CHL1  H19B 3224   1.134   6.655   3.326 -2.0224  0.7682 -1.9271
   44CHL1  H19C 3225   1.147   6.776   3.458 -0.0427  2.4621 -3.5616
   44CHL1    C1 3226   0.878   6.603   3.332  0.1588  0.0284 -0.2124
   44CHL1   H1A 3227   0.899   6.508   3.386  1.1635 -0.3112 -1.1481
   44CHL1   H1B 3228   0.767   6.610   3.334  0.1117 -0.2186 -1.1780
   44CHL1    C2 3229   0.924   6.584   3.184 -0.2108  0.0859  0.1291
   44CHL1   H2A 3230   0.876   6.498   3.132 -2.2316 -0.1357  2.1459
   44CHL1   H2B 3231   1.030   6.553   3.185  0.0698  1.0118 -0.3371
   44CHL1   C20 3232   0.788   6.799   4.098  0.5360  0.5577  0.9603
   44CHL1   H20 3233   0.896   6.813   4.119  1.4455 -1.2410 -1.8448
   44CHL1   C21 3234   0.765   6.650   4.102 -0.0773 -0.2642 -0.1895
   44CHL1  H21A 3235   0.838   6.593   4.041 -1.8007 -2.6039 -0.2134
   44CHL1  H21B 3236   0.668   6.615   4.060 -0.3354  0.2760 -0.0578
   44CHL1  H21C 3237   0.769   6.610   4.206  1.1930  1.4493  0.4682
   44CHL1   C22 3238   0.689   6.870   4.208 -0.6296 -0.3463 -0.0538
   44CHL1  H22A 3239   0.692   6.977   4.182  1.1997 -0.4161 -0.2613
   44CHL1  H22B 3240   0.585   6.833   4.194 -2.2576  2.9915  1.8943
   44CHL1   C23 3241   0.742   6.851   4.351  0.6162 -0.5892 -0.2939
   44CHL1  H23A 3242   0.771   6.744   4.366  0.2665 -0.7177 -0.5114
   44CHL1  H23B 3243   0.831   6.910   4.379  0.1590 -0.3791  0.7704
   44CHL1   C24 3244   0.634   6.877   4.465 -0.1441  0.0749  0.2175
   44CHL1  H24A 3245   0.593   6.979   4.451 -1.0943 -0.0973  1.4973
   44CHL1  H24B 3246   0.553   6.807   4.435  0.3661 -0.3396 -0.1971
   44CHL1   C25 3247   0.687   6.867   4.612 -0.1597 -0.6571  0.4637
   44CHL1   H25 3248   0.776   6.933   4.618 -1.6347  1.7808 -1.7623
   44CHL1   C26 3249   0.593   6.929   4.712 -0.2206 -0.4059 -0.4057
   44CHL1  H26A 3250   0.642   6.941   4.811 -1.2100  0.4596 -0.0017
   44CHL1  H26B 3251   0.564   7.030   4.677  0.6497 -0.7390 -2.1581
   44CHL1  H26C 3252   0.505   6.861   4.716 -0.0789 -0.5309  1.4862
   44CHL1   C27 3253   0.728   6.729   4.646  0.4436 -0.2482  0.3181
   44CHL1  H27A 3254   0.743   6.704   4.753  0.5289  0.6618  0.5262
   44CHL1  H27B 3255   0.654   6.655   4.609 -4.5791  2.0182  4.5259
   44CHL1  H27C 3256   0.824   6.707   4.594 -1.1018 -2.7664 -1.7448
   45CHL1    C3 3257   1.821   0.862   3.156  0.4387  0.1838  0.7342
   45CHL1    H3 3258   1.906   0.861   3.084  1.7448 -2.2140  2.1827
   45CHL1    O3 3259   1.698   0.847   3.081 -0.5244  0.2214  0.5240
   45CHL1   H3' 3260   1.689   0.930   3.034 -1.7201  0.0346  0.3798
   45CHL1    C4 3261   1.830   0.750   3.255 -0.5141  0.1264 -0.0697
   45CHL1   H4A 3262   1.729   0.729   3.297 -1.3753  1.8158 -1.1761
   45CHL1   H4B 3263   1.845   0.657   3.195  0.3323  1.5865 -2.2551
   45CHL1    C5 3264   1.937   0.761   3.361 -0.1215  0.0790 -0.1019
   45CHL1    C6 3265   2.021   0.663   3.380 -0.8035 -0.2363 -0.2347
   45CHL1    H6 3266   2.008   0.577   3.314 -2.1243  1.0560 -1.7445
   45CHL1    C7 3267   2.137   0.670   3.481  0.2533 -0.1596  0.3196
   45CHL1   H7A 3268   2.150   0.568   3.521  1.6589  0.0462  0.4105
   45CHL1   H7B 3269   2.232   0.700   3.433  0.0158 -0.3566 -0.2898
   45CHL1    C8 3270   2.101   0.772   3.586 -0.6397  0.7138 -0.1879
   45CHL1    H8 3271   2.011   0.737   3.642 -1.6459  2.2363 -0.8147
   45CHL1   C14 3272   2.221   0.794   3.678 -0.0723  0.1320 -0.1155
   45CHL1   H14 3273   2.308   0.815   3.612 -0.1018 -2.1411 -0.9800
   45CHL1   C15 3274   2.279   0.664   3.749 -0.1801 -0.6325  0.1481
   45CHL1  H15A 3275   2.197   0.606   3.797 -0.3397  0.5092  1.3294
   45CHL1  H15B 3276   2.333   0.600   3.676  1.6293  0.3636  0.5538
   45CHL1   C16 3277   2.362   0.720   3.859  0.1745 -0.5742 -0.0777
   45CHL1  H16A 3278   2.313   0.683   3.952  1.7165  0.2497  1.0966
   45CHL1  H16B 3279   2.469   0.690   3.861 -0.0723 -1.5890 -1.3275
   45CHL1   C17 3280   2.352   0.875   3.862 -0.4783  0.5780 -0.0300
   45CHL1   H17 3281   2.434   0.918   3.801 -1.4939  0.2230 -1.6795
   45CHL1   C13 3282   2.214   0.900   3.792  0.6821 -0.1163  0.0428
   45CHL1   C18 3283   2.100   0.863   3.896  0.2882  1.2368 -0.3968
   45CHL1  H18A 3284   2.005   0.831   3.848 -1.1521  1.5247  2.0580
   45CHL1  H18B 3285   2.132   0.774   3.954 -0.6489  2.1369  1.6021
   45CHL1  H18C 3286   2.080   0.946   3.967  2.5728  0.1484  1.6933
   45CHL1   C12 3287   2.190   1.039   3.723  0.4965  0.3325 -0.1348
   45CHL1  H12A 3288   2.198   1.125   3.793  3.4357  0.3239 -0.3762
   45CHL1  H12B 3289   2.276   1.045   3.653 -0.6467 -2.1564 -1.8951
   45CHL1   C11 3290   2.063   1.032   3.630 -0.1085 -0.5554  0.4939
   45CHL1  H11A 3291   1.968   1.027   3.687 -1.1011  1.3906 -0.8575
   45CHL1  H11B 3292   2.053   1.128   3.574 -2.1368  0.2757  2.1811
   45CHL1    C9 3293   2.068   0.909   3.527 -0.3811 -0.7703  0.2113
   45CHL1    H9 3294   2.150   0.927   3.454 -0.5210  2.4955  0.7095
   45CHL1   C10 3295   1.946   0.893   3.431  0.3661 -0.0187 -0.2015
   45CHL1   C19 3296   1.818   0.900   3.524 -0.0707  0.1030  0.1043
   45CHL1  H19A 3297   1.811   0.999   3.574 -0.0715  0.5208 -0.7210
   45CHL1  H19B 3298   1.725   0.885   3.466  0.6633  2.0467 -1.6833
   45CHL1  H19C 3299   1.832   0.821   3.602  2.4206 -1.4891 -1.8220
   45CHL1    C1 3300   1.937   1.005   3.323  0.0717  0.0594  0.0754
   45CHL1   H1A 3301   1.941   1.103   3.375  1.0872  0.6906 -1.1295
   45CHL1   H1B 3302   2.022   1.003   3.252 -0.2155  1.6046 -0.3492
   45CHL1    C2 3303   1.815   0.994   3.229 -0.5855  0.0305 -0.5317
   45CHL1   H2A 3304   1.800   1.079   3.158 -2.3821  0.4374  0.2845
   45CHL1   H2B 3305   1.722   0.994   3.290 -0.2953  0.3546 -0.0869
   45CHL1   C20 3306   2.372   0.938   3.999 -0.1247 -0.4296 -0.3665
   45CHL1   H20 3307   2.298   0.908   4.075  1.0377  1.3257  1.5891
   45CHL1   C21 3308   2.369   1.093   3.994 -0.8271  0.1995 -0.0477
   45CHL1  H21A 3309   2.404   1.134   4.092 -2.6269 -1.1806  1.2481
   45CHL1  H21B 3310   2.262   1.124   3.986 -1.1987 -0.9367  0.3439
   45CHL1  H21C 3311   2.431   1.130   3.910 -0.6899 -3.4506 -1.7011
   45CHL1   C22 3312   2.503   0.892   4.064  0.4549  0.2093  0.1246
   45CHL1  H22A 3313   2.488   0.782   4.056 -1.2782  0.5355 -2.2328
   45CHL1  H22B 3314   2.591   0.923   4.003 -0.5729 -0.2005 -1.6356
   45CHL1   C23 3315   2.531   0.934   4.208  0.6572  0.1239  1.1176
   45CHL1  H23A 3316   2.623   0.880   4.241 -0.0966 -1.8034  0.2164
   45CHL1  H23B 3317   2.536   1.045   4.211 -0.1664  0.1786  0.7968
   45CHL1   C24 3318   2.418   0.900   4.309 -0.0240  0.3191  0.1285
   45CHL1  H24A 3319   2.328   0.950   4.265 -1.0121 -0.2922  1.3889
   45CHL1  H24B 3320   2.408   0.790   4.313 -0.2575  0.2345 -1.7430
   45CHL1   C25 3321   2.441   0.963   4.446 -0.3799  0.2928  0.0647
   45CHL1   H25 3322   2.483   1.065   4.429  1.7927 -0.4691  0.4709
   45CHL1   C26 3323   2.306   0.970   4.519 -0.2684  0.1071 -0.8312
   45CHL1  H26A 3324   2.273   0.865   4.528  0.8959 -0.1018  1.7109
   45CHL1  H26B 3325   2.307   1.003   4.625 -1.5158 -0.7594 -0.5386
   45CHL1  H26C 3326   2.233   1.030   4.461 -0.7888 -0.0277 -0.3206
   45CHL1   C27 3327   2.554   0.902   4.528  0.1172  0.0975  0.4108
   45CHL1  H27A 3328   2.545   0.940   4.632 -0.1057 -2.1374  1.2620
   45CHL1  H27B 3329   2.545   0.792   4.525  0.1175  0.0867  0.7723
   45CHL1  H27C 3330   2.655   0.929   4.492  0.2494 -1.5098 -0.5095
   46CHL1    C3 3331   4.676   2.512   3.203 -0.2522 -0.0576  0.3226
   46CHL1    H3 3332   4.571   2.473   3.208 -0.1086 -0.3806  1.0367
   46CHL1    O3 3333   4.700   2.572   3.076  0.8434  0.0361  0.0479
   46CHL1   H3' 3334   4.626   2.632   3.067 -1.5797 -2.4765  1.4391
   46CHL1    C4 3335   4.684   2.622   3.298 -0.1013 -0.1417 -0.4628
   46CHL1   H4A 3336   4.781   2.674   3.286  0.6996 -1.5321 -0.2890
   46CHL1   H4B 3337   4.612   2.702   3.271 -0.9581 -0.8650 -0.3592
   46CHL1    C5 3338   4.664   2.582   3.444 -0.7615 -0.5771  0.0553
   46CHL1    C6 3339   4.574   2.641   3.520  0.1134 -0.2323 -0.1944
   46CHL1    H6 3340   4.505   2.718   3.483  0.0073  0.6138  1.6896
   46CHL1    C7 3341   4.553   2.618   3.666 -0.4329  0.3572  0.1203
   46CHL1   H7A 3342   4.544   2.709   3.729  0.9514  0.8805 -0.4029
   46CHL1   H7B 3343   4.453   2.569   3.673 -0.4953  0.6072  1.3492
   46CHL1    C8 3344   4.656   2.521   3.720  0.4500  0.3089 -0.7100
   46CHL1    H8 3345   4.743   2.585   3.747  0.4229  0.1595 -0.2573
   46CHL1   C14 3346   4.603   2.468   3.853 -0.8410 -0.3293 -0.0913
   46CHL1   H14 3347   4.519   2.401   3.824 -2.5143  0.8996  1.6312
   46CHL1   C15 3348   4.529   2.573   3.948 -0.1272  0.4367  0.0195
   46CHL1  H15A 3349   4.599   2.659   3.939  1.0750 -0.1007  2.9744
   46CHL1  H15B 3350   4.425   2.603   3.923 -1.2346 -2.7144  0.4532
   46CHL1   C16 3351   4.552   2.519   4.092  0.4973 -0.1669  0.3746
   46CHL1  H16A 3352   4.624   2.586   4.144  1.5588 -0.0872 -1.1241
   46CHL1  H16B 3353   4.451   2.520   4.138  0.2187  0.2006 -0.2315
   46CHL1   C17 3354   4.614   2.384   4.070 -0.0100 -0.5184  0.5952
   46CHL1   H17 3355   4.539   2.304   4.053  0.2474 -0.9186  1.3093
   46CHL1   C13 3356   4.696   2.392   3.937  0.3787  0.6155  0.0209
   46CHL1   C18 3357   4.825   2.466   3.962  0.2844  0.0271  0.2173
   46CHL1  H18A 3358   4.815   2.574   3.984 -0.7361  0.3782 -1.7309
   46CHL1  H18B 3359   4.873   2.405   4.042  0.1866 -0.0382  0.2261
   46CHL1  H18C 3360   4.887   2.476   3.870  0.9384 -1.0013  0.5234
   46CHL1   C12 3361   4.716   2.267   3.849  0.1744 -0.7961  0.1505
   46CHL1  H12A 3362   4.788   2.202   3.903  0.2183 -0.8973 -0.0280
   46CHL1  H12B 3363   4.623   2.209   3.828  1.2466 -1.8166 -2.1457
   46CHL1   C11 3364   4.780   2.305   3.709  0.2180  0.8514  0.1959
   46CHL1  H11A 3365   4.886   2.336   3.722  0.4038  2.2857 -3.4351
   46CHL1  H11B 3366   4.783   2.211   3.651  1.5082  1.5594 -0.9610
   46CHL1    C9 3367   4.696   2.408   3.626  0.4559 -0.3891  0.0748
   46CHL1    H9 3368   4.601   2.353   3.610  1.4123 -2.2132  0.4290
   46CHL1   C10 3369   4.748   2.460   3.490 -0.1141  0.3138 -0.1420
   46CHL1   C19 3370   4.900   2.496   3.492 -0.2541  0.4907  0.1607
   46CHL1  H19A 3371   4.923   2.572   3.569 -1.1789  2.1662 -1.1419
   46CHL1  H19B 3372   4.963   2.408   3.514 -0.3858 -0.1737 -1.8878
   46CHL1  H19C 3373   4.947   2.533   3.399  0.0135 -0.2257  0.0035
   46CHL1    C1 3374   4.727   2.349   3.374  0.1561  0.4897  0.2185
   46CHL1   H1A 3375   4.795   2.267   3.405  0.3292  0.9690  1.1401
   46CHL1   H1B 3376   4.627   2.301   3.378  0.2260  0.3130 -0.1396
   46CHL1    C2 3377   4.763   2.393   3.230  0.3097 -0.3098 -0.1465
   46CHL1   H2A 3378   4.748   2.309   3.160  1.1786 -2.0155  1.6238
   46CHL1   H2B 3379   4.865   2.436   3.222  0.2857 -0.4624 -1.2993
   46CHL1   C20 3380   4.688   2.328   4.196 -1.2134 -0.2658  0.1666
   46CHL1   H20 3381   4.783   2.382   4.217  0.0219 -2.5770  0.8392
   46CHL1   C21 3382   4.727   2.186   4.167 -0.8725  0.0440 -1.1095
   46CHL1  H21A 3383   4.777   2.135   4.252  0.1000  1.4933 -0.7597
   46CHL1  H21B 3384   4.808   2.183   4.091  0.7388 -3.2319  0.5340
   46CHL1  H21C 3385   4.643   2.128   4.124 -1.3700 -0.5681  0.5863
   46CHL1   C22 3386   4.607   2.337   4.325  0.0512 -0.2346  0.5451
   46CHL1  H22A 3387   4.596   2.445   4.351  0.5622  0.3726 -1.5256
   46CHL1  H22B 3388   4.510   2.285   4.311 -0.1797  0.8415 -2.6465
   46CHL1   C23 3389   4.681   2.270   4.442  0.3362  0.2795  0.1674
   46CHL1  H23A 3390   4.673   2.160   4.455  1.1316  0.4401  2.4162
   46CHL1  H23B 3391   4.789   2.292   4.425  0.6625 -1.1705  0.2470
   46CHL1   C24 3392   4.644   2.328   4.581  0.7982 -0.4079 -0.0186
   46CHL1  H24A 3393   4.709   2.416   4.599  0.8867 -0.5894  0.5683
   46CHL1  H24B 3394   4.541   2.367   4.567  1.7644  1.6449 -1.8886
   46CHL1   C25 3395   4.651   2.222   4.699  0.4213 -0.3035 -0.8227
   46CHL1   H25 3396   4.589   2.136   4.666 -1.3002  1.0144 -1.1356
   46CHL1   C26 3397   4.791   2.175   4.731  0.0614  0.6412 -0.4907
   46CHL1  H26A 3398   4.849   2.268   4.746  1.3856  0.0776 -1.8784
   46CHL1  H26B 3399   4.779   2.103   4.815 -1.3277 -1.9559 -2.7655
   46CHL1  H26C 3400   4.837   2.131   4.640 -0.5422  1.2083 -1.0814
   46CHL1   C27 3401   4.595   2.279   4.825 -0.1620 -0.4748  0.1138
   46CHL1  H27A 3402   4.656   2.364   4.863 -0.7323 -0.8275  1.9206
   46CHL1  H27B 3403   4.489   2.308   4.808  0.0604  1.8410  2.0595
   46CHL1  H27C 3404   4.602   2.193   4.894  1.9759 -0.6241 -0.2326
   47CHL1    C3 3405   3.615   2.562   3.296 -0.3495  1.0104 -0.5412
   47CHL1    H3 3406   3.717   2.606   3.294 -0.0308  0.4055 -4.1212
   47CHL1    O3 3407   3.592   2.546   3.154 -0.4971 -0.5354  0.2477
   47CHL1   H3' 3408   3.512   2.492   3.152  0.0724 -1.3976 -1.7059
   47CHL1    C4 3409   3.610   2.429   3.368  0.1779  0.4498 -0.0887
   47CHL1   H4A 3410   3.515   2.376   3.347  1.4665 -1.3410 -1.7565
   47CHL1   H4B 3411   3.683   2.359   3.322 -0.2006 -0.8115  1.1618
   47CHL1    C5 3412   3.635   2.444   3.517  0.8697 -0.1049  0.1204
   47CHL1    C6 3413   3.721   2.376   3.580 -0.3118 -0.6844  0.0067
   47CHL1    H6 3414   3.767   2.290   3.529  0.8997  0.9216 -1.7484
   47CHL1    C7 3415   3.736   2.378   3.727 -0.1676 -0.0963  0.1091
   47CHL1   H7A 3416   3.731   2.270   3.755 -0.5435 -0.0491  0.2372
   47CHL1   H7B 3417   3.834   2.420   3.758  0.0559  1.0472 -1.9904
   47CHL1    C8 3418   3.621   2.456   3.809 -0.0683  0.1906  0.0597
   47CHL1    H8 3419   3.529   2.393   3.814 -0.0935 -0.0314 -2.0459
   47CHL1   C14 3420   3.667   2.489   3.952  0.5057  0.1653 -0.1839
   47CHL1   H14 3421   3.761   2.547   3.942  0.1002  0.9441  0.3825
   47CHL1   C15 3422   3.718   2.370   4.036  0.2991  0.4712  0.5138
   47CHL1  H15A 3423   3.646   2.285   4.033  0.8279  0.0414 -0.8764
   47CHL1  H15B 3424   3.818   2.331   4.008 -0.0549 -0.3024  0.2833
   47CHL1   C16 3425   3.714   2.427   4.179 -0.1476  0.4645  0.0362
   47CHL1  H16A 3426   3.649   2.365   4.243  1.5828  0.4654  1.8833
   47CHL1  H16B 3427   3.817   2.422   4.222  0.8658 -0.7566 -2.3328
   47CHL1   C17 3428   3.653   2.566   4.170 -0.1617 -0.3021 -1.1160
   47CHL1   H17 3429   3.741   2.630   4.149  0.0548 -0.7709 -1.6668
   47CHL1   C13 3430   3.565   2.561   4.043 -0.0055  0.1297  0.4603
   47CHL1   C18 3431   3.445   2.479   4.074  0.7627 -0.6017  0.0970
   47CHL1  H18A 3432   3.465   2.381   4.123 -1.7807  0.5631  3.9692
   47CHL1  H18B 3433   3.383   2.537   4.146  1.8439  0.4713  0.2014
   47CHL1  H18C 3434   3.370   2.458   3.995 -0.7001  0.1107  1.2482
   47CHL1   C12 3435   3.543   2.693   3.972 -0.2869  0.1251  0.3989
   47CHL1  H12A 3436   3.472   2.744   4.041 -1.2476 -3.2128  2.1124
   47CHL1  H12B 3437   3.632   2.759   3.970  0.1293 -0.4358 -1.6379
   47CHL1   C11 3438   3.489   2.680   3.828  0.3271  0.3455  0.0540
   47CHL1  H11A 3439   3.394   2.622   3.833  0.5935 -0.0011  1.8898
   47CHL1  H11B 3440   3.484   2.783   3.786  1.2606  0.4881  0.2643
   47CHL1    C9 3441   3.576   2.581   3.734  0.6753  0.7078 -0.7695
   47CHL1    H9 3442   3.667   2.646   3.734  0.3630  1.1765 -2.1659
   47CHL1   C10 3443   3.536   2.553   3.589 -0.0612 -0.1421  0.2364
   47CHL1   C19 3444   3.391   2.498   3.590  0.7049  0.8102  0.8306
   47CHL1  H19A 3445   3.352   2.466   3.491  0.2564  2.2617  0.5077
   47CHL1  H19B 3446   3.395   2.416   3.665  1.9170  0.6609  0.6093
   47CHL1  H19C 3447   3.325   2.576   3.634 -0.5121  0.0675  0.3927
   47CHL1    C1 3448   3.537   2.686   3.508  0.1107 -0.5026 -0.3490
   47CHL1   H1A 3449   3.460   2.757   3.546  2.1090  2.0050 -0.6643
   47CHL1   H1B 3450   3.635   2.735   3.523  0.3285 -1.1775  0.4953
   47CHL1    C2 3451   3.522   2.666   3.358 -0.6432 -1.0359  0.2570
   47CHL1   H2A 3452   3.536   2.758   3.298  0.5895 -1.2074  0.2705
   47CHL1   H2B 3453   3.416   2.635   3.342 -0.1720 -2.2572 -0.6633
   47CHL1   C20 3454   3.591   2.612   4.305  0.1366  1.1556  0.3645
   47CHL1   H20 3455   3.505   2.543   4.318  1.5223 -1.2029 -1.8550
   47CHL1   C21 3456   3.557   2.755   4.302  0.2023  0.3151  1.1702
   47CHL1  H21A 3457   3.624   2.802   4.227 -0.1383  0.2982  0.8525
   47CHL1  H21B 3458   3.545   2.810   4.398 -2.1012  0.0551  1.0855
   47CHL1  H21C 3459   3.455   2.762   4.258  1.3802  0.0735 -1.7704
   47CHL1   C22 3460   3.680   2.578   4.430 -0.3335  0.1057  0.0578
   47CHL1  H22A 3461   3.717   2.474   4.427  1.6247  0.7837 -2.0114
   47CHL1  H22B 3462   3.764   2.650   4.429  0.7881 -1.1635 -1.1340
   47CHL1   C23 3463   3.609   2.597   4.569 -0.8176  0.4257  0.3199
   47CHL1  H23A 3464   3.551   2.692   4.566  0.0501  0.9532 -1.6439
   47CHL1  H23B 3465   3.537   2.512   4.572 -2.6924  1.8605 -1.3737
   47CHL1   C24 3466   3.708   2.594   4.685 -0.2600  0.1621 -0.0399
   47CHL1  H24A 3467   3.748   2.491   4.690 -0.8059 -0.0013  1.1617
   47CHL1  H24B 3468   3.774   2.680   4.659 -0.3014  0.3125  0.3551
   47CHL1   C25 3469   3.652   2.622   4.820  0.7143 -0.9691 -0.0044
   47CHL1   H25 3470   3.585   2.711   4.828  0.4435 -1.2582  1.0422
   47CHL1   C26 3471   3.566   2.504   4.860  0.0568  0.6708 -0.6307
   47CHL1  H26A 3472   3.615   2.411   4.823 -1.1309 -0.4172  0.4575
   47CHL1  H26B 3473   3.553   2.503   4.970 -0.6671  0.3029 -0.7155
   47CHL1  H26C 3474   3.468   2.509   4.809 -0.6970 -0.9720  0.5951
   47CHL1   C27 3475   3.762   2.657   4.917 -1.0457 -0.1414 -0.9106
   47CHL1  H27A 3476   3.847   2.587   4.923  0.1672  1.3973  1.0639
   47CHL1  H27B 3477   3.821   2.749   4.898  2.3548 -1.3908  2.3709
   47CHL1  H27C 3478   3.726   2.654   5.022  0.3058 -0.6599 -0.4402
   48CHL1    C3 3479   5.858   3.422   3.460  0.1373  0.1496 -0.0023
   48CHL1    H3 3480   5.952   3.363   3.469  0.0533 -0.3338 -1.9302
   48CHL1    O3 3481   5.807   3.391   3.332  0.1557  0.1084 -0.2068
   48CHL1   H3' 3482   5.734   3.452   3.317 -1.0700 -1.5667 -1.4480
   48CHL1    C4 3483   5.745   3.387   3.556 -0.4993  0.3300 -0.6841
   48CHL1   H4A 3484   5.650   3.443   3.544 -0.6020  0.8448  1.8495
   48CHL1   H4B 3485   5.712   3.281   3.546 -1.2079  0.2810  1.5261
   48CHL1    C5 3486   5.791   3.410   3.700 -0.2993  0.4608 -0.7357
   48CHL1    C6 3487   5.790   3.317   3.798 -0.0080  0.0838  0.1977
   48CHL1    H6 3488   5.737   3.222   3.778  0.3344 -0.2287  0.7492
   48CHL1    C7 3489   5.834   3.339   3.941 -0.5365  0.7862  0.3140
   48CHL1   H7A 3490   5.763   3.295   4.015  0.4598  0.0218  0.8296
   48CHL1   H7B 3491   5.922   3.278   3.969 -1.4851 -0.8021 -0.0222
   48CHL1    C8 3492   5.851   3.496   3.978 -0.8777  0.1293  0.8340
   48CHL1    H8 3493   5.749   3.538   3.992 -1.5405 -1.3946  0.7402
   48CHL1   C14 3494   5.940   3.507   4.105  0.7558  0.1858 -0.2177
   48CHL1   H14 3495   6.038   3.459   4.086  1.4522  0.6905  1.8287
   48CHL1   C15 3496   5.895   3.417   4.224  0.2932 -0.4157  0.2184
   48CHL1  H15A 3497   5.784   3.409   4.225  0.2360  0.1789 -0.3691
   48CHL1  H15B 3498   5.936   3.318   4.196  0.9764 -0.2717  0.6881
   48CHL1   C16 3499   5.966   3.488   4.342 -0.2745  0.0429  1.0976
   48CHL1  H16A 3500   5.896   3.524   4.421 -0.1172 -2.5285  2.5089
   48CHL1  H16B 3501   6.032   3.422   4.402  1.6379  0.9495  0.0792
   48CHL1   C17 3502   6.049   3.607   4.288  0.5657  0.6693 -0.1094
   48CHL1   H17 3503   6.146   3.564   4.253  0.0224  0.6569 -1.6671
   48CHL1   C13 3504   5.967   3.649   4.155  0.8711 -0.7984  0.1844
   48CHL1   C18 3505   5.836   3.722   4.203 -0.0521 -0.9903 -0.2075
   48CHL1  H18A 3506   5.833   3.823   4.158  0.0034 -1.2717 -0.8643
   48CHL1  H18B 3507   5.746   3.671   4.163 -0.5543  0.8268 -1.5238
   48CHL1  H18C 3508   5.828   3.733   4.313 -2.3854  0.1016 -0.4357
   48CHL1   C12 3509   6.036   3.720   4.035  0.6603  0.4278  0.2957
   48CHL1  H12A 3510   6.045   3.830   4.047 -0.0044  0.4026  1.1694
   48CHL1  H12B 3511   6.131   3.665   4.021 -0.2859 -1.5228  1.1244
   48CHL1   C11 3512   5.961   3.708   3.898 -0.2353  0.3282  0.1525
   48CHL1  H11A 3513   5.886   3.791   3.894  2.0107  2.4258 -2.1836
   48CHL1  H11B 3514   6.033   3.745   3.823 -0.5253  0.9374  0.1628
   48CHL1    C9 3515   5.919   3.563   3.865 -0.0444 -0.2702 -0.7051
   48CHL1    H9 3516   6.016   3.509   3.864 -0.7902 -1.6414 -0.4206
   48CHL1   C10 3517   5.847   3.550   3.727 -0.1706 -0.2834 -0.0138
   48CHL1   C19 3518   5.717   3.636   3.736 -0.1688 -0.2511 -0.4969
   48CHL1  H19A 3519   5.650   3.610   3.821 -0.1234 -2.0336 -0.9820
   48CHL1  H19B 3520   5.746   3.743   3.736  0.0183 -0.3033 -0.2969
   48CHL1  H19C 3521   5.653   3.623   3.646  1.4396 -1.2563 -1.5404
   48CHL1    C1 3522   5.946   3.601   3.618  0.6698  0.5854 -0.4201
   48CHL1   H1A 3523   5.963   3.711   3.628 -0.9189  0.7962  0.1771
   48CHL1   H1B 3524   6.037   3.537   3.626 -0.4388 -0.8996  0.8727
   48CHL1    C2 3525   5.891   3.571   3.480  0.5860  0.2576  0.0868
   48CHL1   H2A 3526   5.975   3.599   3.413  0.8375  0.3666  0.4469
   48CHL1   H2B 3527   5.800   3.630   3.454  1.3040  0.3067 -2.7167
   48CHL1   C20 3528   6.082   3.713   4.392  0.0491  0.2465 -0.1980
   48CHL1   H20 3529   5.998   3.786   4.398 -0.3421 -0.2509  0.4978
   48CHL1   C21 3530   6.192   3.815   4.342  0.0087  0.3806 -0.6147
   48CHL1  H21A 3531   6.202   3.902   4.410 -2.0152  0.6795 -0.6363
   48CHL1  H21B 3532   6.172   3.844   4.236 -0.4312 -0.9649 -0.9258
   48CHL1  H21C 3533   6.281   3.749   4.335 -0.6075 -0.3309 -2.2713
   48CHL1   C22 3534   6.112   3.654   4.530  0.0028  0.3057 -1.1892
   48CHL1  H22A 3535   6.029   3.587   4.562  3.2747 -3.3490  0.5262
   48CHL1  H22B 3536   6.210   3.600   4.525  1.0413  2.2268 -3.7655
   48CHL1   C23 3537   6.131   3.757   4.648  0.4760 -0.3139 -0.2872
   48CHL1  H23A 3538   6.200   3.842   4.629 -1.4318  1.2634 -0.4702
   48CHL1  H23B 3539   6.029   3.801   4.640 -0.0136 -1.4581 -0.5329
   48CHL1   C24 3540   6.167   3.709   4.784 -0.3048 -0.6201 -0.4221
   48CHL1  H24A 3541   6.164   3.787   4.864 -0.1035 -1.8596  0.8310
   48CHL1  H24B 3542   6.098   3.632   4.824  2.7241 -1.7899  3.1952
   48CHL1   C25 3543   6.311   3.653   4.787 -0.5277 -0.4469 -0.5802
   48CHL1   H25 3544   6.315   3.578   4.705  0.3628 -1.2445  0.1816
   48CHL1   C26 3545   6.410   3.774   4.772 -0.5536  1.0946  0.1807
   48CHL1  H26A 3546   6.514   3.735   4.771 -0.5602  1.0767  0.3466
   48CHL1  H26B 3547   6.397   3.828   4.675 -3.1226 -0.0829 -0.2274
   48CHL1  H26C 3548   6.402   3.842   4.860 -0.4461  0.9213  0.3235
   48CHL1   C27 3549   6.339   3.593   4.929  0.1714  0.5760 -0.5780
   48CHL1  H27A 3550   6.328   3.660   5.016 -2.5462  0.8741 -1.0616
   48CHL1  H27B 3551   6.276   3.504   4.950  1.3935 -0.2796 -0.4756
   48CHL1  H27C 3552   6.441   3.551   4.924 -0.9533 -2.5545  0.5332
   49CHL1    C3 3553   1.258   1.825   3.173  0.2863  0.2912 -0.3662
   49CHL1    H3 3554   1.337   1.899   3.148  0.3690  1.2980  2.4863
   49CHL1    O3 3555   1.190   1.806   3.049  1.1715  0.2095 -0.4656
   49CHL1   H3' 3556   1.168   1.892   3.011  1.6053  1.0067  1.0016
   49CHL1    C4 3557   1.311   1.688   3.213 -0.5049  0.0916 -0.1409
   49CHL1   H4A 3558   1.217   1.629   3.221 -0.3384 -0.0539  0.9497
   49CHL1   H4B 3559   1.373   1.652   3.129 -2.5674  1.8937 -2.5836
   49CHL1    C5 3560   1.389   1.703   3.344  0.4069  0.6651  0.6211
   49CHL1    C6 3561   1.519   1.668   3.360 -0.3106 -0.7567 -0.1119
   49CHL1    H6 3562   1.565   1.619   3.273  0.0174 -2.5808  1.0370
   49CHL1    C7 3563   1.597   1.679   3.489  0.1784 -0.0220  0.9306
   49CHL1   H7A 3564   1.670   1.596   3.500 -0.0220 -0.2611  0.5248
   49CHL1   H7B 3565   1.649   1.776   3.495 -0.5418  0.6521 -2.0583
   49CHL1    C8 3566   1.497   1.672   3.605  0.6591  0.3159  0.0703
   49CHL1    H8 3567   1.463   1.567   3.616 -0.6464  0.6423 -0.6474
   49CHL1   C14 3568   1.570   1.712   3.738  0.1224  1.0609  0.3194
   49CHL1   H14 3569   1.623   1.809   3.732  0.5213  1.2585  4.4096
   49CHL1   C15 3570   1.685   1.620   3.775  0.3404 -0.0809 -0.0681
   49CHL1  H15A 3571   1.648   1.516   3.768  0.7590 -0.1564 -1.2743
   49CHL1  H15B 3572   1.775   1.630   3.710  1.9583  2.0090  2.2528
   49CHL1   C16 3573   1.710   1.653   3.919 -0.2928 -0.2144  0.3156
   49CHL1  H16A 3574   1.717   1.557   3.973  0.4533 -0.1686  0.3128
   49CHL1  H16B 3575   1.805   1.708   3.936  0.8471 -1.5683 -1.3631
   49CHL1   C17 3576   1.592   1.746   3.967 -0.4586  1.0234 -0.6548
   49CHL1   H17 3577   1.618   1.851   3.941  0.5163  1.3706  1.5334
   49CHL1   C13 3578   1.480   1.725   3.859 -0.3890 -0.1894  0.7363
   49CHL1   C18 3579   1.396   1.596   3.880 -0.6234 -0.1151 -0.1201
   49CHL1  H18A 3580   1.335   1.625   3.969  2.4166  0.4018  1.9367
   49CHL1  H18B 3581   1.329   1.581   3.793  0.2817 -0.7242 -0.7295
   49CHL1  H18C 3582   1.449   1.506   3.917  1.3985  0.8998 -0.3928
   49CHL1   C12 3583   1.387   1.845   3.849 -0.7644  0.5410  0.7803
   49CHL1  H12A 3584   1.321   1.851   3.938 -2.0670 -2.8440  0.1951
   49CHL1  H12B 3585   1.443   1.941   3.839  0.5043 -0.0715  1.6264
   49CHL1   C11 3586   1.302   1.824   3.723 -0.0989 -0.8489  0.0981
   49CHL1  H11A 3587   1.221   1.749   3.741 -1.0026  0.1103  0.1586
   49CHL1  H11B 3588   1.244   1.917   3.704  1.2432  0.1447  0.7200
   49CHL1    C9 3589   1.391   1.781   3.592  0.6148  1.0517  0.0952
   49CHL1    H9 3590   1.444   1.876   3.568  0.0670  1.0577 -1.1953
   49CHL1   C10 3591   1.308   1.756   3.464  0.2949  0.3686  0.4258
   49CHL1   C19 3592   1.187   1.664   3.501  0.1400  0.5633 -0.3174
   49CHL1  H19A 3593   1.122   1.649   3.412 -3.7359  2.1950  1.9894
   49CHL1  H19B 3594   1.222   1.565   3.539  1.2266  1.5818  1.4909
   49CHL1  H19C 3595   1.115   1.716   3.568 -0.2639 -1.1945  0.6902
   49CHL1    C1 3596   1.250   1.891   3.416 -0.5774  0.4720 -0.4611
   49CHL1   H1A 3597   1.192   1.936   3.498 -0.0397  0.2375  0.0541
   49CHL1   H1B 3598   1.330   1.962   3.383 -0.8092  1.0512  0.2208
   49CHL1    C2 3599   1.172   1.881   3.281  0.0256  0.0225 -0.1234
   49CHL1   H2A 3600   1.135   1.981   3.248  1.8846 -0.3103 -3.7113
   49CHL1   H2B 3601   1.083   1.818   3.301 -1.3195  1.7440 -0.3601
   49CHL1   C20 3602   1.549   1.746   4.111 -0.9477  0.3981  0.5073
   49CHL1   H20 3603   1.439   1.754   4.122 -1.0109  0.9751 -0.4203
   49CHL1   C21 3604   1.617   1.863   4.184 -0.4938 -1.0178  0.1124
   49CHL1  H21A 3605   1.595   1.960   4.134 -1.0660 -1.7010 -0.9994
   49CHL1  H21B 3606   1.728   1.860   4.181 -0.2877  2.3686  0.1383
   49CHL1  H21C 3607   1.576   1.867   4.287 -0.2053 -0.6211  0.2146
   49CHL1   C22 3608   1.589   1.610   4.184  0.4230  0.0734  0.2111
   49CHL1  H22A 3609   1.566   1.527   4.112 -1.5180 -0.8211  1.7483
   49CHL1  H22B 3610   1.699   1.596   4.191  0.5566  0.4928 -0.8187
   49CHL1   C23 3611   1.508   1.581   4.315  0.4666  0.5580  0.1052
   49CHL1  H23A 3612   1.560   1.639   4.394 -0.2607  0.1901  0.8638
   49CHL1  H23B 3613   1.403   1.615   4.311 -0.2232 -1.0281  2.4251
   49CHL1   C24 3614   1.511   1.430   4.347 -0.5160  0.3758 -0.6172
   49CHL1  H24A 3615   1.480   1.373   4.257 -1.9103  0.2359 -0.0729
   49CHL1  H24B 3616   1.616   1.402   4.369 -0.2789 -1.0996 -3.2297
   49CHL1   C25 3617   1.413   1.367   4.460  0.1821  0.0075  0.3137
   49CHL1   H25 3618   1.317   1.387   4.408  1.2533  1.7862 -1.1324
   49CHL1   C26 3619   1.426   1.216   4.488 -0.5017  0.4821  0.1577
   49CHL1  H26A 3620   1.519   1.192   4.543 -1.3167  1.2086  1.9227
   49CHL1  H26B 3621   1.342   1.179   4.549  0.1746 -3.3660 -0.9914
   49CHL1  H26C 3622   1.395   1.159   4.398 -1.2255  1.6622 -0.3613
   49CHL1   C27 3623   1.407   1.438   4.599 -0.4095  0.6495  0.0824
   49CHL1  H27A 3624   1.375   1.542   4.579 -1.4723  0.1174 -1.1299
   49CHL1  H27B 3625   1.334   1.392   4.669  0.9506 -2.2119 -0.2103
   49CHL1  H27C 3626   1.508   1.440   4.644 -1.4359 -0.6349  2.5998
   50CHL1    C3 3627   5.618   0.407   3.324  0.2275 -0.6091  0.0208
   50CHL1    H3 3628   5.521   0.368   3.363 -0.6260  1.7102  0.3725
   50CHL1    O3 3629   5.627   0.397   3.183  0.1053 -0.6448  0.1874
   50CHL1   H3' 3630   5.712   0.442   3.175 -1.0483  1.6156 -0.2339
   50CHL1    C4 3631   5.649   0.549   3.366 -0.0282  0.1460 -0.9988
   50CHL1   H4A 3632   5.741   0.590   3.319 -0.0079  1.5447  0.1964
   50CHL1   H4B 3633   5.572   0.614   3.322  1.7445  1.1483 -2.7605
   50CHL1    C5 3634   5.651   0.569   3.517 -0.5517  0.2229 -0.6836
   50CHL1    C6 3635   5.588   0.664   3.582 -0.5399 -0.1258 -0.7554
   50CHL1    H6 3636   5.521   0.733   3.528 -0.7444 -0.8961 -1.4987
   50CHL1    C7 3637   5.597   0.688   3.733  0.4852 -0.1084 -0.4054
   50CHL1   H7A 3638   5.626   0.792   3.759  1.6295 -0.6638  0.6650
   50CHL1   H7B 3639   5.493   0.671   3.768  0.6998 -0.2987  0.1653
   50CHL1    C8 3640   5.691   0.600   3.812  0.4620 -0.7608  0.4703
   50CHL1    H8 3641   5.788   0.652   3.802 -0.0100 -0.2484 -2.4035
   50CHL1   C14 3642   5.650   0.587   3.954  0.4410  0.2621 -0.4034
   50CHL1   H14 3643   5.548   0.541   3.953  1.4211 -2.0577  0.0302
   50CHL1   C15 3644   5.628   0.723   4.026 -0.5389 -0.0827  0.5925
   50CHL1  H15A 3645   5.709   0.794   3.997 -0.7770 -0.2020 -0.4134
   50CHL1  H15B 3646   5.534   0.770   3.989 -0.6592  0.1261  1.1587
   50CHL1   C16 3647   5.623   0.682   4.173  0.0677  0.8759 -0.2397
   50CHL1  H16A 3648   5.697   0.751   4.221  0.2765  0.1752  0.4656
   50CHL1  H16B 3649   5.521   0.683   4.217 -0.4298  1.1751 -1.3788
   50CHL1   C17 3650   5.678   0.535   4.180 -0.7363  0.2141 -0.2229
   50CHL1   H17 3651   5.583   0.476   4.183  0.9326 -2.9597 -3.0179
   50CHL1   C13 3652   5.743   0.510   4.042 -0.6336  0.0327 -0.6194
   50CHL1   C18 3653   5.885   0.578   4.053 -0.3045 -0.1845  0.7258
   50CHL1  H18A 3654   5.892   0.682   4.091  0.6846  0.0202  0.0353
   50CHL1  H18B 3655   5.953   0.517   4.116 -1.8503  0.8693  3.6252
   50CHL1  H18C 3656   5.930   0.574   3.951  0.5443 -1.3528  1.1300
   50CHL1   C12 3657   5.757   0.372   3.990  0.6105 -0.3846  0.0207
   50CHL1  H12A 3658   5.826   0.304   4.044 -0.7332 -1.9944 -0.2092
   50CHL1  H12B 3659   5.659   0.321   4.002  1.1913 -1.5854 -0.2337
   50CHL1   C11 3660   5.799   0.369   3.846  0.1728 -0.1580 -0.2911
   50CHL1  H11A 3661   5.903   0.409   3.848 -0.0087  0.4040 -1.3769
   50CHL1  H11B 3662   5.806   0.266   3.807 -0.4154  0.6429 -2.7056
   50CHL1    C9 3663   5.712   0.457   3.754  0.2171 -0.0119 -0.4511
   50CHL1    H9 3664   5.611   0.413   3.761 -0.0260  0.6707  0.5639
   50CHL1   C10 3665   5.744   0.466   3.599 -0.2116 -0.2955  0.7447
   50CHL1   C19 3666   5.893   0.516   3.582  0.3029 -0.2800 -0.3354
   50CHL1  H19A 3667   5.956   0.435   3.626 -0.4311 -0.8326 -0.2730
   50CHL1  H19B 3668   5.927   0.535   3.478 -0.6945 -0.8247 -0.7761
   50CHL1  H19C 3669   5.915   0.613   3.631 -0.2440 -0.6353  0.6230
   50CHL1    C1 3670   5.727   0.325   3.540 -1.1305  0.4515  0.3820
   50CHL1   H1A 3671   5.804   0.257   3.582 -0.8021 -0.2160 -1.2259
   50CHL1   H1B 3672   5.625   0.291   3.571 -1.2161  1.7719  1.6366
   50CHL1    C2 3673   5.726   0.314   3.386 -0.0058  0.3925 -0.3336
   50CHL1   H2A 3674   5.694   0.210   3.367 -0.3560  0.5146 -0.4238
   50CHL1   H2B 3675   5.826   0.337   3.343  0.5458  0.2345  0.8237
   50CHL1   C20 3676   5.759   0.496   4.306 -0.1623  0.1414  0.4037
   50CHL1   H20 3677   5.867   0.521   4.308  0.0286 -0.5386 -0.4741
   50CHL1   C21 3678   5.761   0.345   4.324  0.0241  0.0942  0.0148
   50CHL1  H21A 3679   5.801   0.294   4.234 -1.5903 -0.9544 -0.1372
   50CHL1  H21B 3680   5.661   0.303   4.348  0.9515 -1.9808  0.4683
   50CHL1  H21C 3681   5.824   0.322   4.413  2.3916 -0.7513 -1.7808
   50CHL1   C22 3682   5.692   0.557   4.435  0.2436  0.2950  0.0120
   50CHL1  H22A 3683   5.707   0.667   4.436 -1.0292  0.4792  1.3449
   50CHL1  H22B 3684   5.582   0.547   4.434  0.3559 -1.2931 -1.4235
   50CHL1   C23 3685   5.737   0.506   4.572  0.3930  0.2078  0.5926
   50CHL1  H23A 3686   5.725   0.396   4.578 -0.2234  0.2327 -0.0667
   50CHL1  H23B 3687   5.846   0.528   4.571  1.1326 -2.9832 -0.1072
   50CHL1   C24 3688   5.665   0.577   4.687 -0.0702  0.2414  0.3896
   50CHL1  H24A 3689   5.675   0.688   4.686 -2.7890  0.5977 -1.7882
   50CHL1  H24B 3690   5.557   0.567   4.662  0.3061  0.2047 -1.3414
   50CHL1   C25 3691   5.685   0.518   4.828  0.1635  0.0357 -0.4072
   50CHL1   H25 3692   5.793   0.531   4.849 -0.2362  1.8956  0.7351
   50CHL1   C26 3693   5.631   0.609   4.939  0.4177  0.0091 -0.8354
   50CHL1  H26A 3694   5.521   0.623   4.933  0.1496 -0.4370  1.7402
   50CHL1  H26B 3695   5.650   0.565   5.040 -0.8185 -2.0284 -1.4286
   50CHL1  H26C 3696   5.677   0.710   4.939  0.7899 -0.1499 -0.0188
   50CHL1   C27 3697   5.650   0.372   4.841 -0.0083 -0.5153  0.0123
   50CHL1  H27A 3698   5.726   0.313   4.786  2.4130  1.4735  1.0457
   50CHL1  H27B 3699   5.643   0.340   4.947 -0.5398 -0.3016  0.0466
   50CHL1  H27C 3700   5.546   0.361   4.802 -0.4345  0.9104  0.6784
   51CHL1    C3 3701   1.957   1.508   3.141 -0.3590  0.3106  0.4870
   51CHL1    H3 3702   1.994   1.403   3.140  2.2762  1.1486 -0.6530
   51CHL1    O3 3703   1.885   1.530   3.024  0.1384 -0.6449 -0.1135
   51CHL1   H3' 3704   1.878   1.625   3.029  2.7256 -0.3518 -0.4254
   51CHL1    C4 3705   1.866   1.526   3.257 -0.1315  0.2414  0.2269
   51CHL1   H4A 3706   1.810   1.621   3.249 -0.2192  0.5609  3.3331
   51CHL1   H4B 3707   1.793   1.445   3.238  2.4678 -2.2397  0.1503
   51CHL1    C5 3708   1.941   1.524   3.392  0.4026  0.2892  0.0146
   51CHL1    C6 3709   1.897   1.445   3.490 -0.3539  0.0644  0.0954
   51CHL1    H6 3710   1.815   1.376   3.468  0.3551 -0.2550 -1.7104
   51CHL1    C7 3711   1.967   1.424   3.618 -0.5057 -0.5756  0.0264
   51CHL1   H7A 3712   1.886   1.427   3.695 -1.2497  2.5612 -0.7214
   51CHL1   H7B 3713   2.023   1.328   3.627  2.3875  0.7567 -2.2139
   51CHL1    C8 3714   2.067   1.538   3.655 -0.9237 -0.5402  0.6261
   51CHL1    H8 3715   2.013   1.631   3.684  0.8441  1.0022 -0.7883
   51CHL1   C14 3716   2.159   1.486   3.760  0.1280 -0.5579 -0.2229
   51CHL1   H14 3717   2.208   1.398   3.713 -0.9876 -0.9296 -0.7443
   51CHL1   C15 3718   2.088   1.426   3.880 -0.3995 -0.1576 -0.1205
   51CHL1  H15A 3719   2.015   1.501   3.917  1.2240  1.5328 -0.1860
   51CHL1  H15B 3720   2.035   1.329   3.872 -1.6595  0.4550  0.4353
   51CHL1   C16 3721   2.203   1.419   3.988  0.2386  0.0303  0.4685
   51CHL1  H16A 3722   2.164   1.488   4.066 -0.5298  1.3342 -1.0153
   51CHL1  H16B 3723   2.215   1.324   4.044 -0.2904 -0.5063 -0.2972
   51CHL1   C17 3724   2.328   1.494   3.921 -0.3276  0.9941 -0.6606
   51CHL1   H17 3725   2.382   1.413   3.868 -1.8206  0.3927 -1.3416
   51CHL1   C13 3726   2.262   1.582   3.813  0.2350 -1.2485 -0.4867
   51CHL1   C18 3727   2.185   1.699   3.876 -0.6252  0.3117 -0.6934
   51CHL1  H18A 3728   2.264   1.776   3.890 -0.5760 -0.1752  2.6684
   51CHL1  H18B 3729   2.101   1.735   3.813 -1.0185 -0.0732 -0.3902
   51CHL1  H18C 3730   2.151   1.670   3.978 -0.1889  0.3243 -0.5405
   51CHL1   C12 3731   2.352   1.626   3.690  0.3681  0.6334 -0.5250
   51CHL1  H12A 3732   2.421   1.707   3.721  2.5706 -0.9514 -1.0042
   51CHL1  H12B 3733   2.408   1.537   3.654 -2.6007 -1.2880 -0.7789
   51CHL1   C11 3734   2.261   1.678   3.568  0.2022  0.3381 -0.4850
   51CHL1  H11A 3735   2.205   1.771   3.594  0.4800 -0.0806  1.8503
   51CHL1  H11B 3736   2.328   1.699   3.482  0.7614  2.8163  0.4690
   51CHL1    C9 3737   2.154   1.573   3.534 -0.3986  0.6658 -0.2277
   51CHL1    H9 3738   2.204   1.476   3.510 -1.7978 -0.1020 -0.1841
   51CHL1   C10 3739   2.062   1.608   3.404 -0.6459 -0.5322 -0.3405
   51CHL1   C19 3740   2.023   1.761   3.401 -0.4086 -0.0170  0.2983
   51CHL1  H19A 3741   1.960   1.786   3.313  0.7312  0.3861 -0.4310
   51CHL1  H19B 3742   1.968   1.790   3.493  0.6645  0.7735  0.7040
   51CHL1  H19C 3743   2.110   1.829   3.398 -0.3748 -0.0846 -0.3842
   51CHL1    C1 3744   2.152   1.583   3.278 -0.0120 -0.2062  0.7249
   51CHL1   H1A 3745   2.238   1.653   3.277  0.2857 -0.5664  0.0715
   51CHL1   H1B 3746   2.198   1.482   3.270  0.0098 -0.1185 -0.3929
   51CHL1    C2 3747   2.079   1.609   3.148  0.0237 -0.4252  0.3633
   51CHL1   H2A 3748   2.142   1.600   3.057 -0.4664  2.7900 -0.4210
   51CHL1   H2B 3749   2.038   1.712   3.148 -0.2104 -0.3997  3.9765
   51CHL1   C20 3750   2.432   1.557   4.023  0.9933 -0.2808  0.3558
   51CHL1   H20 3751   2.393   1.641   4.084  2.0598 -0.2067  0.9493
   51CHL1   C21 3752   2.557   1.604   3.941  0.0601 -0.1397 -0.2141
   51CHL1  H21A 3753   2.526   1.696   3.887  2.0919  0.1454 -0.9809
   51CHL1  H21B 3754   2.595   1.526   3.871 -1.6383 -1.5110  0.2995
   51CHL1  H21C 3755   2.636   1.634   4.013 -0.9595 -2.0554  1.8416
   51CHL1   C22 3756   2.488   1.457   4.123  0.1579 -0.5375  0.4112
   51CHL1  H22A 3757   2.487   1.351   4.092  0.5350  0.0984 -2.0455
   51CHL1  H22B 3758   2.594   1.485   4.145 -0.3589  0.5497  1.6866
   51CHL1   C23 3759   2.421   1.459   4.256  0.1092 -0.3750 -0.2362
   51CHL1  H23A 3760   2.377   1.558   4.281  1.9728  0.9014 -1.7323
   51CHL1  H23B 3761   2.341   1.383   4.240  1.3087 -1.7951  0.2874
   51CHL1   C24 3762   2.514   1.417   4.370 -0.1067 -0.6318 -0.2188
   51CHL1  H24A 3763   2.554   1.317   4.343  2.1871  0.2990 -0.4840
   51CHL1  H24B 3764   2.586   1.499   4.388 -0.3239 -0.3701 -0.5352
   51CHL1   C25 3765   2.451   1.408   4.510 -0.3657  0.1613 -0.2390
   51CHL1   H25 3766   2.357   1.351   4.516 -0.9494  1.1133 -0.1279
   51CHL1   C26 3767   2.539   1.336   4.614 -0.0718  0.0243 -0.3197
   51CHL1  H26A 3768   2.635   1.390   4.627 -0.1828 -0.2590  2.0852
   51CHL1  H26B 3769   2.478   1.314   4.703 -0.1642 -2.7492 -0.9483
   51CHL1  H26C 3770   2.554   1.239   4.561  0.2156 -0.5929  0.8641
   51CHL1   C27 3771   2.412   1.546   4.558 -0.0216 -0.1035 -0.3393
   51CHL1  H27A 3772   2.315   1.592   4.530  1.3943  3.9082  0.7153
   51CHL1  H27B 3773   2.406   1.537   4.668  3.1989 -0.8029 -0.1039
   51CHL1  H27C 3774   2.496   1.618   4.548 -0.7519  1.1556  1.9567
   52CHL1    C3 3775   0.125   4.802   3.190 -0.3781 -0.7590  0.1135
   52CHL1    H3 3776   0.213   4.837   3.249 -1.2571 -0.1035  1.0858
   52CHL1    O3 3777   0.150   4.853   3.057 -0.0440 -0.5431 -0.0500
   52CHL1   H3' 3778   0.139   4.949   3.056  0.2559 -0.5102 -0.2407
   52CHL1    C4 3779   0.115   4.656   3.203  0.5285  0.1471 -0.1430
   52CHL1   H4A 3780   0.017   4.624   3.164 -0.0540  3.0782 -1.3917
   52CHL1   H4B 3781   0.197   4.611   3.144  1.3599 -2.1899  2.5686
   52CHL1    C5 3782   0.124   4.616   3.347 -0.0468 -0.0019 -0.2929
   52CHL1    C6 3783   0.230   4.558   3.398 -0.4457  0.6992  0.2272
   52CHL1    H6 3784   0.317   4.529   3.337 -1.0834 -0.7356 -0.0396
   52CHL1    C7 3785   0.257   4.518   3.542 -0.0600  0.4938  0.5415
   52CHL1   H7A 3786   0.281   4.409   3.542 -0.7545  0.3081 -1.1067
   52CHL1   H7B 3787   0.342   4.578   3.579 -1.7549  2.5675  1.2899
   52CHL1    C8 3788   0.124   4.542   3.626  0.2187 -0.1393  0.0912
   52CHL1    H8 3789   0.048   4.465   3.603 -1.5775  0.8589  2.2897
   52CHL1   C14 3790   0.164   4.548   3.776  0.6741 -0.4981 -0.7313
   52CHL1   H14 3791   0.224   4.641   3.779 -0.5250  0.3076 -0.8645
   52CHL1   C15 3792   0.257   4.446   3.834 -0.2071  0.2281  0.5827
   52CHL1  H15A 3793   0.218   4.342   3.830  3.5338 -1.3888  1.8300
   52CHL1  H15B 3794   0.358   4.445   3.787 -0.0692  1.8607  0.7829
   52CHL1   C16 3795   0.261   4.477   3.987 -0.2364 -0.0678  0.4602
   52CHL1  H16A 3796   0.260   4.382   4.045 -1.3424 -0.2795  0.1057
   52CHL1  H16B 3797   0.341   4.550   4.011 -0.9868  1.6428 -1.9448
   52CHL1   C17 3798   0.134   4.566   4.009  0.6754 -0.1555  0.2471
   52CHL1   H17 3799   0.168   4.670   4.025  0.9762  0.2860 -2.8235
   52CHL1   C13 3800   0.050   4.572   3.872 -0.5171 -0.3345  0.0247
   52CHL1   C18 3801  -0.048   4.453   3.859  0.0408  0.2049 -0.0089
   52CHL1  H18A 3802  -0.001   4.355   3.883  0.0111 -0.3017 -1.8611
   52CHL1  H18B 3803  -0.123   4.464   3.940 -0.5084 -1.6311 -0.2331
   52CHL1  H18C 3804  -0.086   4.439   3.755  2.0673  1.5768 -1.0092
   52CHL1   C12 3805  -0.010   4.711   3.843 -0.0385 -0.0898 -0.5619
   52CHL1  H12A 3806  -0.096   4.736   3.909  0.2288 -0.8911  0.1059
   52CHL1  H12B 3807   0.072   4.785   3.856 -0.1068 -0.4386  2.4669
   52CHL1   C11 3808  -0.058   4.718   3.693 -0.1318  0.0406  0.3310
   52CHL1  H11A 3809  -0.145   4.651   3.681  0.1166 -0.2014 -0.1532
   52CHL1  H11B 3810  -0.085   4.819   3.657 -0.6247 -0.3170 -0.3035
   52CHL1    C9 3811   0.057   4.678   3.586  0.5332 -0.3408 -0.3001
   52CHL1    H9 3812   0.141   4.748   3.604  0.1176  0.3139 -0.8333
   52CHL1   C10 3813   0.016   4.676   3.440  0.4924  0.3036 -0.2430
   52CHL1   C19 3814  -0.123   4.599   3.423  0.1746 -1.1466 -0.1536
   52CHL1  H19A 3815  -0.209   4.638   3.483  0.5909  0.0001 -0.2695
   52CHL1  H19B 3816  -0.145   4.591   3.315 -1.5426 -3.2973  0.2843
   52CHL1  H19C 3817  -0.117   4.495   3.462 -2.1191 -1.7253 -1.2018
   52CHL1    C1 3818  -0.006   4.823   3.401  0.0704 -0.3799 -0.4050
   52CHL1   H1A 3819  -0.089   4.863   3.463 -0.0452 -1.8637  0.4636
   52CHL1   H1B 3820   0.085   4.877   3.435  0.2320  0.7300 -2.4383
   52CHL1    C2 3821  -0.001   4.869   3.255  0.3468  0.0260 -0.0005
   52CHL1   H2A 3822   0.018   4.978   3.249 -0.6262  0.2632  0.8455
   52CHL1   H2B 3823  -0.093   4.829   3.208 -0.3710 -1.6457  2.6174
   52CHL1   C20 3824   0.062   4.520   4.131  0.7854  0.8880  0.0160
   52CHL1   H20 3825   0.024   4.417   4.110  1.3375  0.9740 -1.5803
   52CHL1   C21 3826  -0.061   4.600   4.150  0.1467 -0.0596 -0.6933
   52CHL1  H21A 3827  -0.126   4.529   4.205  1.4685 -1.1260 -0.4451
   52CHL1  H21B 3828  -0.125   4.638   4.067 -0.5122  0.0388 -0.1420
   52CHL1  H21C 3829  -0.032   4.682   4.219 -1.2993 -0.3771  0.3242
   52CHL1   C22 3830   0.150   4.521   4.264  0.4666  0.5333 -0.2167
   52CHL1  H22A 3831   0.245   4.470   4.239 -0.1577 -0.8608  0.1250
   52CHL1  H22B 3832   0.162   4.627   4.293  0.8514  0.1097  1.2384
   52CHL1   C23 3833   0.091   4.441   4.378 -0.3569  0.6244 -0.8125
   52CHL1  H23A 3834  -0.015   4.471   4.393 -0.1583  0.7533  0.3924
   52CHL1  H23B 3835   0.080   4.333   4.359 -1.0853  0.8094 -1.5169
   52CHL1   C24 3836   0.170   4.465   4.510  0.8202 -0.1126  0.3097
   52CHL1  H24A 3837   0.274   4.491   4.478  0.3590  2.5549  0.7316
   52CHL1  H24B 3838   0.141   4.563   4.552 -0.3496  0.2882 -1.3479
   52CHL1   C25 3839   0.145   4.362   4.618 -0.9451  0.3069 -0.3582
   52CHL1   H25 3840   0.173   4.263   4.577 -2.7601  0.4131 -1.9625
   52CHL1   C26 3841   0.235   4.393   4.742  0.7058  0.7029 -0.0775
   52CHL1  H26A 3842   0.214   4.336   4.835  0.2639  0.2859 -0.4267
   52CHL1  H26B 3843   0.344   4.382   4.725  0.3961 -2.3401 -0.5941
   52CHL1  H26C 3844   0.229   4.503   4.761  0.4696  0.8516 -0.9792
   52CHL1   C27 3845   0.002   4.361   4.657 -0.2339 -0.7648  1.0014
   52CHL1  H27A 3846  -0.022   4.460   4.700 -1.2305  0.4097 -2.0399
   52CHL1  H27B 3847  -0.066   4.338   4.573 -1.2242  0.1975  1.5168
   52CHL1  H27C 3848  -0.027   4.288   4.736 -3.1207  0.0854  0.8460
   53CHL1    C3 3849   3.557   1.454   3.258 -0.4472  0.6699  0.4082
   53CHL1    H3 3850   3.660   1.417   3.239 -0.5852  0.0795  0.7752
   53CHL1    O3 3851   3.494   1.456   3.137 -0.1127  0.2417 -0.1752
   53CHL1   H3' 3852   3.490   1.549   3.114  0.7661 -0.1112 -1.8983
   53CHL1    C4 3853   3.479   1.354   3.349 -0.1474 -0.0331  0.4861
   53CHL1   H4A 3854   3.371   1.377   3.340 -0.2629 -0.7151  0.0715
   53CHL1   H4B 3855   3.495   1.249   3.315  1.5246 -0.2669  1.8120
   53CHL1    C5 3856   3.514   1.352   3.489  0.6992 -0.0101  0.7515
   53CHL1    C6 3857   3.552   1.241   3.550  0.7682  0.2887 -0.2882
   53CHL1    H6 3858   3.550   1.147   3.493 -2.1844 -0.4546  0.8736
   53CHL1    C7 3859   3.581   1.237   3.698  0.2953  0.6496  0.0259
   53CHL1   H7A 3860   3.535   1.146   3.742 -1.7034  0.4228 -2.3481
   53CHL1   H7B 3861   3.691   1.235   3.712  0.0065 -1.9549  3.2595
   53CHL1    C8 3862   3.538   1.373   3.776 -1.0606  0.7858  0.4566
   53CHL1    H8 3863   3.428   1.386   3.784 -1.5105 -2.3646  0.3594
   53CHL1   C14 3864   3.610   1.378   3.909  0.4913 -0.8736 -0.1067
   53CHL1   H14 3865   3.720   1.379   3.889  0.6763  0.0193  0.8791
   53CHL1   C15 3866   3.597   1.248   3.996 -0.1532 -0.0575 -0.2179
   53CHL1  H15A 3867   3.488   1.223   3.996 -0.3985  0.9547 -0.3430
   53CHL1  H15B 3868   3.647   1.158   3.954 -2.4291 -1.4201 -0.1904
   53CHL1   C16 3869   3.647   1.298   4.129 -0.8303 -0.2101  0.4808
   53CHL1  H16A 3870   3.559   1.297   4.196 -1.7705  1.8012 -0.6140
   53CHL1  H16B 3871   3.735   1.251   4.177  0.7279  1.9556 -0.0776
   53CHL1   C17 3872   3.668   1.452   4.119  0.2660  0.3549  0.0284
   53CHL1   H17 3873   3.772   1.471   4.087  0.9469 -1.1085  1.2223
   53CHL1   C13 3874   3.579   1.499   3.997 -0.4557 -0.2012  0.2446
   53CHL1   C18 3875   3.431   1.514   4.043  0.0984  0.0817 -0.2775
   53CHL1  H18A 3876   3.416   1.586   4.126  0.6995  0.7472 -0.7309
   53CHL1  H18B 3877   3.380   1.546   3.950 -1.3580 -1.2790  0.0180
   53CHL1  H18C 3878   3.391   1.413   4.066 -0.3650  0.5759  1.1871
   53CHL1   C12 3879   3.626   1.621   3.914 -0.5231 -0.7439 -0.3143
   53CHL1  H12A 3880   3.590   1.717   3.957  1.5796  0.4532 -1.0621
   53CHL1  H12B 3881   3.737   1.629   3.910 -0.5365  0.7784  0.9316
   53CHL1   C11 3882   3.577   1.623   3.766  0.7545  0.4036 -0.1700
   53CHL1  H11A 3883   3.472   1.660   3.775 -0.1467 -1.7022 -1.2392
   53CHL1  H11B 3884   3.634   1.703   3.713  1.2057 -0.0695 -0.4050
   53CHL1    C9 3885   3.591   1.491   3.691  0.4067  0.5116 -0.4007
   53CHL1    H9 3886   3.700   1.480   3.674  0.6752  1.5206  0.5087
   53CHL1   C10 3887   3.519   1.497   3.552  0.0274 -0.2636 -1.1727
   53CHL1   C19 3888   3.374   1.550   3.572 -0.0354  0.0043 -0.2156
   53CHL1  H19A 3889   3.331   1.571   3.472  1.6892 -0.0962 -1.0064
   53CHL1  H19B 3890   3.307   1.474   3.619 -1.2614  1.4868  0.5535
   53CHL1  H19C 3891   3.366   1.650   3.619  1.7813  0.7950 -1.5184
   53CHL1    C1 3892   3.595   1.594   3.462  0.5391 -0.0092  0.2715
   53CHL1   H1A 3893   3.568   1.696   3.500 -0.1082  0.3319 -1.0483
   53CHL1   H1B 3894   3.704   1.577   3.467  0.8009  1.3236 -0.3727
   53CHL1    C2 3895   3.555   1.591   3.315  0.0712  0.0504  0.6147
   53CHL1   H2A 3896   3.620   1.662   3.259  0.7689  0.0179  1.3638
   53CHL1   H2B 3897   3.451   1.631   3.318 -0.5127 -1.4399  0.8325
   53CHL1   C20 3898   3.647   1.517   4.260  0.7761 -0.5577  0.2866
   53CHL1   H20 3899   3.540   1.514   4.289  0.5445 -1.3856 -0.5874
   53CHL1   C21 3900   3.707   1.662   4.235  0.9519  0.1813  0.0164
   53CHL1  H21A 3901   3.811   1.670   4.197  0.2700 -0.0279 -2.0145
   53CHL1  H21B 3902   3.720   1.705   4.336  3.7231  1.3273 -0.7418
   53CHL1  H21C 3903   3.633   1.716   4.172  0.3951 -0.9032 -0.2898
   53CHL1   C22 3904   3.721   1.439   4.374 -0.3083  0.8680  0.3060
   53CHL1  H22A 3905   3.689   1.332   4.373  1.1246  0.4133 -1.2404
   53CHL1  H22B 3906   3.829   1.430   4.352  0.1538  0.4681  2.5176
   53CHL1   C23 3907   3.700   1.501   4.514 -0.2296 -0.0998 -0.2039
   53CHL1  H23A 3908   3.775   1.583   4.521  0.0514 -0.3900  0.2110
   53CHL1  H23B 3909   3.601   1.548   4.531 -0.1784  0.2934 -0.9428
   53CHL1   C24 3910   3.724   1.411   4.632 -0.2688 -0.3201 -0.2337
   53CHL1  H24A 3911   3.629   1.358   4.656 -0.3504 -0.3669 -0.6624
   53CHL1  H24B 3912   3.803   1.335   4.613 -1.5728 -1.5004 -1.1400
   53CHL1   C25 3913   3.765   1.489   4.756  0.4399  0.6069 -0.3829
   53CHL1   H25 3914   3.849   1.560   4.741  1.2249 -0.2387 -0.1029
   53CHL1   C26 3915   3.649   1.575   4.809 -0.1249  0.2338  0.1785
   53CHL1  H26A 3916   3.554   1.517   4.815  1.7387 -3.3734 -1.8850
   53CHL1  H26B 3917   3.684   1.619   4.904  0.2692  1.4275 -0.5013
   53CHL1  H26C 3918   3.633   1.658   4.737  0.7970 -1.9002 -2.6693
   53CHL1   C27 3919   3.814   1.397   4.868  0.0730  0.4223  0.1932
   53CHL1  H27A 3920   3.853   1.445   4.961 -0.4472 -0.4973  0.9099
   53CHL1  H27B 3921   3.733   1.329   4.901  1.4046 -1.0531  0.5627
   53CHL1  H27C 3922   3.899   1.334   4.834 -0.6989 -0.6210  0.1383
   54CHL1    C3 3923   0.913   1.539   3.226 -0.4269 -1.3992 -0.4895
   54CHL1    H3 3924   0.978   1.605   3.287  0.5065 -1.2140 -1.6351
   54CHL1    O3 3925   0.896   1.606   3.101 -0.5403  0.0721  0.1499
   54CHL1   H3' 3926   0.838   1.681   3.115 -0.3382  0.1579  0.5593
   54CHL1    C4 3927   0.963   1.403   3.217  0.1472  0.2730  0.4206
   54CHL1   H4A 3928   0.899   1.341   3.153 -0.2135 -0.5775  1.5744
   54CHL1   H4B 3929   1.058   1.410   3.160  0.6337  0.9184  1.2757
   54CHL1    C5 3930   0.969   1.346   3.359  0.8504 -0.5990  0.1490
   54CHL1    C6 3931   1.084   1.310   3.404  0.3680 -0.2699 -0.5443
   54CHL1    H6 3932   1.172   1.326   3.341 -1.3727  0.2250 -2.9988
   54CHL1    C7 3933   1.100   1.251   3.541  0.2226 -0.2718 -0.0370
   54CHL1   H7A 3934   1.171   1.167   3.523 -0.7334 -0.7211 -1.8580
   54CHL1   H7B 3935   1.140   1.330   3.609 -1.4163  1.6876 -1.2560
   54CHL1    C8 3936   0.972   1.201   3.601 -0.2203  0.3477 -0.6415
   54CHL1    H8 3937   0.936   1.107   3.553  0.1712 -0.1985  0.1080
   54CHL1   C14 3938   0.988   1.183   3.748  0.3274 -0.2345 -0.3017
   54CHL1   H14 3939   1.011   1.282   3.794 -0.3357 -0.3467  0.2991
   54CHL1   C15 3940   1.110   1.093   3.796 -0.2673 -0.0852 -0.6095
   54CHL1  H15A 3941   1.122   1.009   3.724  0.5978  0.3060 -0.9423
   54CHL1  H15B 3942   1.193   1.167   3.799 -1.7690  1.7922 -2.4391
   54CHL1   C16 3943   1.067   1.048   3.939  0.7127  0.1648  0.3514
   54CHL1  H16A 3944   1.044   0.939   3.940  1.0344  0.0944  0.2463
   54CHL1  H16B 3945   1.148   1.062   4.013  1.2283  0.0970 -0.1969
   54CHL1   C17 3946   0.933   1.120   3.969  0.1229  0.3092 -1.1833
   54CHL1   H17 3947   0.956   1.222   4.006  0.8342 -0.5900  1.0141
   54CHL1   C13 3948   0.864   1.138   3.832  0.5115 -0.0061 -0.6003
   54CHL1   C18 3949   0.813   1.004   3.777 -0.4334  0.2748 -0.0885
   54CHL1  H18A 3950   0.717   0.987   3.829  0.5293  2.2135  2.5792
   54CHL1  H18B 3951   0.811   1.000   3.666 -0.3011 -1.9881 -0.0445
   54CHL1  H18C 3952   0.871   0.914   3.808  0.4176  0.7006 -0.4157
   54CHL1   C12 3953   0.760   1.247   3.823  0.2964  0.1551 -0.2192
   54CHL1  H12A 3954   0.663   1.216   3.868  0.3265 -1.5887 -1.2734
   54CHL1  H12B 3955   0.797   1.342   3.868 -1.9241  0.4454  1.1613
   54CHL1   C11 3956   0.728   1.271   3.673  0.9871  0.4477 -0.3049
   54CHL1  H11A 3957   0.683   1.177   3.635  2.9610  0.0419 -1.8122
   54CHL1  H11B 3958   0.646   1.346   3.665 -0.1799 -0.6956  0.6690
   54CHL1    C9 3959   0.856   1.302   3.587  0.4823  0.2834  0.1919
   54CHL1    H9 3960   0.891   1.395   3.636  1.5710 -0.1155  0.2008
   54CHL1   C10 3961   0.835   1.341   3.440 -0.3845 -0.0688 -0.3970
   54CHL1   C19 3962   0.736   1.230   3.384  0.7349  0.1865  0.3230
   54CHL1  H19A 3963   0.775   1.128   3.406  0.0782 -0.2337 -0.4007
   54CHL1  H19B 3964   0.632   1.221   3.423  0.4713 -1.9147 -0.7274
   54CHL1  H19C 3965   0.728   1.243   3.274 -0.8232 -1.7830  0.1441
   54CHL1    C1 3966   0.765   1.479   3.424  0.0727 -0.5105 -0.0034
   54CHL1   H1A 3967   0.664   1.460   3.466  0.4057 -0.8816  0.6335
   54CHL1   H1B 3968   0.810   1.555   3.491  1.5772  0.5173 -2.0731
   54CHL1    C2 3969   0.769   1.535   3.285  0.5743  0.2912 -0.0876
   54CHL1   H2A 3970   0.727   1.638   3.281  1.3440  0.6946  1.3995
   54CHL1   H2B 3971   0.718   1.466   3.215  0.8855  1.7443 -1.8493
   54CHL1   C20 3972   0.851   1.067   4.093  0.6284 -0.4999  0.3775
   54CHL1   H20 3973   0.860   0.957   4.102 -0.5673 -0.5107  1.6975
   54CHL1   C21 3974   0.704   1.112   4.097  0.6960  0.2460  0.2326
   54CHL1  H21A 3975   0.640   1.064   4.020  0.2420  1.7287 -0.3678
   54CHL1  H21B 3976   0.699   1.222   4.081 -0.4163  0.2351  0.4658
   54CHL1  H21C 3977   0.658   1.091   4.196  0.5112 -0.1482  0.0641
   54CHL1   C22 3978   0.916   1.131   4.219 -0.3829  0.3131 -0.4078
   54CHL1  H22A 3979   1.025   1.110   4.209  0.4253  3.1633  1.0279
   54CHL1  H22B 3980   0.906   1.242   4.219 -0.6286  0.3095  1.0747
   54CHL1   C23 3981   0.877   1.069   4.363 -0.2152 -0.2299  0.6266
   54CHL1  H23A 3982   0.767   1.075   4.377 -0.0302  1.6810  1.4691
   54CHL1  H23B 3983   0.914   0.964   4.365  0.4831  0.0023  0.1468
   54CHL1   C24 3984   0.952   1.151   4.470  0.2889  0.0778 -0.3635
   54CHL1  H24A 3985   1.059   1.149   4.438 -0.2982 -2.5774 -2.6407
   54CHL1  H24B 3986   0.918   1.256   4.482  3.5715  1.4926 -2.0165
   54CHL1   C25 3987   0.952   1.082   4.614 -0.1829  0.7541  0.2430
   54CHL1   H25 3988   0.975   0.975   4.594  2.6257  1.1372  0.9015
   54CHL1   C26 3989   1.072   1.136   4.690  0.1443  0.2470  0.1059
   54CHL1  H26A 3990   1.165   1.100   4.642 -0.3266 -2.4428  1.0350
   54CHL1  H26B 3991   1.069   1.246   4.703 -0.1574  0.2940 -0.3721
   54CHL1  H26C 3992   1.063   1.095   4.793 -0.9665 -1.0557 -0.4740
   54CHL1   C27 3993   0.829   1.099   4.692  0.2098  0.0514  0.2150
   54CHL1  H27A 3994   0.828   1.027   4.776  1.5147 -1.0901 -0.7052
   54CHL1  H27B 3995   0.835   1.202   4.734 -0.1100  0.6370 -1.1315
   54CHL1  H27C 3996   0.731   1.091   4.642  0.7396 -0.8015 -0.7329
   55CHL1    C3 3997   5.928   1.628   3.154  0.4467 -0.2857  0.3500
   55CHL1    H3 3998   5.996   1.715   3.145  0.2081 -0.2074 -0.8666
   55CHL1    O3 3999   5.868   1.636   3.025  0.1962 -0.1171  0.2107
   55CHL1   H3' 4000   5.936   1.631   2.957 -0.1488 -0.8647 -0.0893
   55CHL1    C4 4001   5.995   1.488   3.163 -0.6412  0.1471 -0.4854
   55CHL1   H4A 4002   5.912   1.415   3.153 -1.8169  1.1586  1.3398
   55CHL1   H4B 4003   6.064   1.475   3.076 -0.1639 -0.0784 -0.0797
   55CHL1    C5 4004   6.064   1.482   3.289  0.2192  0.1524 -0.5989
   55CHL1    C6 4005   6.199   1.466   3.290  0.7082 -1.1418  0.6076
   55CHL1    H6 4006   6.248   1.465   3.191 -1.7847  1.2120 -0.7817
   55CHL1    C7 4007   6.271   1.458   3.420  1.0795 -0.9544  0.1365
   55CHL1   H7A 4008   6.340   1.371   3.413  2.1190 -0.0554 -1.1463
   55CHL1   H7B 4009   6.327   1.552   3.435  0.9118 -1.0389  1.4251
   55CHL1    C8 4010   6.186   1.421   3.543 -0.0132 -0.4078 -1.0558
   55CHL1    H8 4011   6.141   1.320   3.534  0.0757 -0.9116  2.5557
   55CHL1   C14 4012   6.267   1.430   3.674  0.6237  0.4649  0.2895
   55CHL1   H14 4013   6.304   1.534   3.671 -1.9481  1.4717  0.6863
   55CHL1   C15 4014   6.395   1.347   3.690  0.2610 -0.2237 -0.3336
   55CHL1  H15A 4015   6.386   1.245   3.648 -0.6551  1.0487 -3.5454
   55CHL1  H15B 4016   6.486   1.390   3.643  0.4672 -0.4281 -0.1234
   55CHL1   C16 4017   6.410   1.341   3.843 -0.4868 -0.5096  0.2530
   55CHL1  H16A 4018   6.416   1.234   3.874 -0.1222 -0.3461  0.7560
   55CHL1  H16B 4019   6.503   1.392   3.873  0.4923 -1.9989 -0.1247
   55CHL1   C17 4020   6.298   1.428   3.910 -0.7211 -0.3493  0.6796
   55CHL1   H17 4021   6.340   1.531   3.907  3.4659 -1.8845  0.5741
   55CHL1   C13 4022   6.179   1.425   3.802 -0.2552  0.1764 -0.3679
   55CHL1   C18 4023   6.113   1.286   3.814 -0.6322  0.4728  0.0990
   55CHL1  H18A 4024   6.049   1.258   3.728  1.9449 -1.1695 -1.4291
   55CHL1  H18B 4025   6.190   1.206   3.810 -0.1353  0.9438  0.0276
   55CHL1  H18C 4026   6.057   1.273   3.909  1.5286 -1.1992  1.2465
   55CHL1   C12 4027   6.072   1.533   3.805  0.5713  0.3180  0.4195
   55CHL1  H12A 4028   6.005   1.523   3.893  0.1218 -2.0337 -0.1208
   55CHL1  H12B 4029   6.125   1.631   3.809  2.8447 -0.8731  1.2159
   55CHL1   C11 4030   5.989   1.541   3.682 -0.2511 -0.4014 -0.2163
   55CHL1  H11A 4031   5.912   1.461   3.689 -0.8525  0.1515 -0.4069
   55CHL1  H11B 4032   5.930   1.634   3.671 -1.9915 -1.6154 -1.8786
   55CHL1    C9 4033   6.072   1.525   3.550  0.2291 -0.4123  0.1223
   55CHL1    H9 4034   6.113   1.625   3.529 -3.8829  1.0983 -1.9256
   55CHL1   C10 4035   5.978   1.502   3.419 -0.2710 -0.7449  0.5585
   55CHL1   C19 4036   5.884   1.382   3.430 -0.2696  0.4268 -0.4895
   55CHL1  H19A 4037   5.937   1.284   3.435  1.5575  1.4231  1.2340
   55CHL1  H19B 4038   5.811   1.389   3.513  0.8613  1.9233  0.4299
   55CHL1  H19C 4039   5.814   1.382   3.344 -1.4441 -0.1425  0.4369
   55CHL1    C1 4040   5.888   1.625   3.400 -0.3852  0.8088  0.2478
   55CHL1   H1A 4041   5.796   1.613   3.462 -0.7461 -0.4252 -0.4858
   55CHL1   H1B 4042   5.942   1.718   3.428  1.0907 -0.0864  0.4566
   55CHL1    C2 4043   5.829   1.639   3.263  0.1977 -0.1449 -0.3182
   55CHL1   H2A 4044   5.770   1.733   3.267  1.1594  0.4332  1.3837
   55CHL1   H2B 4045   5.745   1.566   3.253  0.1201 -0.2416  0.8673
   55CHL1   C20 4046   6.282   1.387   4.057 -0.0953  0.2324 -0.2489
   55CHL1   H20 4047   6.249   1.281   4.066 -0.1238 -0.1456 -3.4798
   55CHL1   C21 4048   6.167   1.468   4.123 -0.3331  0.2796 -0.2531
   55CHL1  H21A 4049   6.203   1.573   4.123  1.6454 -0.3602  0.1524
   55CHL1  H21B 4050   6.151   1.440   4.229  0.3259 -0.0101 -0.2215
   55CHL1  H21C 4051   6.069   1.454   4.073 -0.7987  2.3827 -0.0215
   55CHL1   C22 4052   6.416   1.398   4.139  0.4103 -0.5832  0.1685
   55CHL1  H22A 4053   6.489   1.328   4.095  0.7131  0.3242 -0.8261
   55CHL1  H22B 4054   6.456   1.501   4.126 -3.0271  0.7034 -1.5290
   55CHL1   C23 4055   6.392   1.385   4.291 -0.9249 -0.0270 -0.1272
   55CHL1  H23A 4056   6.339   1.474   4.331  1.4832  1.0507  0.8254
   55CHL1  H23B 4057   6.340   1.288   4.304 -1.4656  0.4668  1.6014
   55CHL1   C24 4058   6.518   1.358   4.376 -0.0832  0.2284  0.2640
   55CHL1  H24A 4059   6.559   1.260   4.341 -1.8595 -0.1993 -0.7452
   55CHL1  H24B 4060   6.587   1.444   4.362 -1.2365  1.0898 -0.1933
   55CHL1   C25 4061   6.502   1.340   4.529 -0.6087 -0.4824  0.1431
   55CHL1   H25 4062   6.427   1.262   4.551 -1.2801  0.5995  1.9104
   55CHL1   C26 4063   6.638   1.303   4.596  0.0414  0.9564 -0.3084
   55CHL1  H26A 4064   6.707   1.390   4.583  0.6865  0.2146 -2.2311
   55CHL1  H26B 4065   6.622   1.259   4.696  0.9590 -3.9746 -2.0669
   55CHL1  H26C 4066   6.684   1.217   4.542  0.4714 -0.4357  2.1382
   55CHL1   C27 4067   6.456   1.460   4.600  0.4318 -0.0405  0.8638
   55CHL1  H27A 4068   6.354   1.490   4.570  0.8764 -0.4828 -1.1996
   55CHL1  H27B 4069   6.455   1.451   4.711  0.7363 -2.6177  0.7159
   55CHL1  H27C 4070   6.525   1.544   4.577 -2.2749  2.1218  0.1128
   56CHL1    C3 4071   6.689   1.417   3.335 -0.4762 -1.0966 -0.3864
   56CHL1    H3 4072   6.592   1.429   3.386 -0.3348 -1.2572 -0.0767
   56CHL1    O3 4073   6.668   1.433   3.198  0.7881  0.4590 -0.3513
   56CHL1   H3' 4074   6.754   1.433   3.156  0.6293  0.9495 -0.6938
   56CHL1    C4 4075   6.789   1.519   3.403  0.4002  0.2823 -0.0466
   56CHL1   H4A 4076   6.888   1.518   3.352  0.8040 -1.5707  0.6864
   56CHL1   H4B 4077   6.750   1.620   3.376 -0.2263 -0.7317 -3.4538
   56CHL1    C5 4078   6.810   1.482   3.550 -0.0467  0.0299 -0.2493
   56CHL1    C6 4079   6.789   1.571   3.649  0.0160 -0.3363 -0.4991
   56CHL1    H6 4080   6.764   1.675   3.624 -2.9499 -0.0059  3.0475
   56CHL1    C7 4081   6.806   1.538   3.797 -0.6867  0.6382  0.1132
   56CHL1   H7A 4082   6.859   1.625   3.842 -1.1022  1.4876 -0.9830
   56CHL1   H7B 4083   6.705   1.520   3.839 -0.8227 -0.7348 -0.7505
   56CHL1    C8 4084   6.889   1.411   3.820 -0.2570 -0.2135  0.0612
   56CHL1    H8 4085   6.996   1.431   3.800 -0.4121  0.7214  0.1154
   56CHL1   C14 4086   6.873   1.370   3.969 -0.1628 -0.2075  0.2445
   56CHL1   H14 4087   6.766   1.347   3.988  0.7079 -2.8552  2.6117
   56CHL1   C15 4088   6.921   1.464   4.083  0.0644 -0.5973 -0.0915
   56CHL1  H15A 4089   7.016   1.516   4.058  0.3426  0.0587  2.0927
   56CHL1  H15B 4090   6.845   1.543   4.098  1.5195  0.8797 -0.2514
   56CHL1   C16 4091   6.939   1.372   4.206 -0.0362  0.7497  0.1285
   56CHL1  H16A 4092   7.041   1.381   4.250 -0.4748 -1.3014  1.6704
   56CHL1  H16B 4093   6.864   1.400   4.283 -0.3010 -2.8035  1.3219
   56CHL1   C17 4094   6.923   1.221   4.162 -0.3089  0.1788  0.2267
   56CHL1   H17 4095   6.818   1.194   4.185 -0.4914 -0.1695 -0.9947
   56CHL1   C13 4096   6.953   1.232   4.005 -0.3474  0.1048  0.3961
   56CHL1   C18 4097   7.106   1.259   3.974 -0.8141  0.2359 -0.1718
   56CHL1  H18A 4098   7.134   1.288   3.871  0.6198  1.1585  0.4556
   56CHL1  H18B 4099   7.149   1.333   4.045 -0.8505  0.8943 -0.8227
   56CHL1  H18C 4100   7.152   1.160   3.993 -0.8042  0.4714  1.1496
   56CHL1   C12 4101   6.895   1.121   3.915  0.0809 -0.0942  0.1172
   56CHL1  H12A 4102   6.950   1.025   3.919  0.1539 -0.2559 -2.7778
   56CHL1  H12B 4103   6.794   1.100   3.955 -0.0473  1.2326  0.5452
   56CHL1   C11 4104   6.906   1.162   3.763  0.5857 -0.5687 -0.2613
   56CHL1  H11A 4105   7.015   1.159   3.740  0.7390  1.8109 -0.0395
   56CHL1  H11B 4106   6.854   1.080   3.708  2.2996 -0.5691 -1.9907
   56CHL1    C9 4107   6.840   1.297   3.727 -0.0998 -0.1678 -0.2151
   56CHL1    H9 4108   6.731   1.292   3.747 -0.1766  1.6570  0.0670
   56CHL1   C10 4109   6.846   1.332   3.578  0.3603  0.4073 -0.2426
   56CHL1   C19 4110   6.991   1.317   3.535  0.7205 -0.6937  0.2172
   56CHL1  H19A 4111   7.045   1.391   3.599  1.0549 -0.2386 -0.5816
   56CHL1  H19B 4112   7.028   1.212   3.535  1.7775 -0.3430 -0.6420
   56CHL1  H19C 4113   7.001   1.347   3.429 -2.8948 -3.2730 -1.0263
   56CHL1    C1 4114   6.753   1.238   3.501  0.7107 -0.2756  0.0999
   56CHL1   H1A 4115   6.795   1.135   3.507  0.9879 -0.1827 -0.2009
   56CHL1   H1B 4116   6.650   1.226   3.541  1.2997  1.0455  2.1702
   56CHL1    C2 4117   6.734   1.269   3.354  0.4393  0.3084  0.0024
   56CHL1   H2A 4118   6.658   1.205   3.305 -1.2908  1.2910  1.2901
   56CHL1   H2B 4119   6.832   1.258   3.302  0.3222 -0.6404 -0.0246
   56CHL1   C20 4120   7.018   1.131   4.243 -0.1726 -0.0469  0.4734
   56CHL1   H20 4121   7.117   1.180   4.238 -1.8214  3.7732  1.6220
   56CHL1   C21 4122   7.014   0.991   4.184  0.6638 -0.4320  0.0963
   56CHL1  H21A 4123   7.076   0.987   4.092 -0.2655 -0.3488 -0.5600
   56CHL1  H21B 4124   6.912   0.947   4.171  1.4855 -1.9674 -1.6395
   56CHL1  H21C 4125   7.061   0.925   4.259 -1.6043 -0.3780  1.6825
   56CHL1   C22 4126   6.973   1.139   4.396 -0.0698  0.3610 -0.2802
   56CHL1  H22A 4127   6.933   1.241   4.417 -0.8585  0.1701 -0.7801
   56CHL1  H22B 4128   6.889   1.067   4.400 -0.3349  0.5997 -1.1620
   56CHL1   C23 4129   7.076   1.095   4.503  0.4945  0.0083  0.2526
   56CHL1  H23A 4130   7.098   0.987   4.495  1.8601  0.3869 -2.0377
   56CHL1  H23B 4131   7.169   1.151   4.480 -0.0602 -0.1673 -2.7637
   56CHL1   C24 4132   7.017   1.125   4.642  0.4124  0.5275  0.5897
   56CHL1  H24A 4133   7.018   1.236   4.646  0.3863  0.7002 -2.2325
   56CHL1  H24B 4134   6.913   1.087   4.649  0.5368  0.2191  0.7613
   56CHL1   C25 4135   7.099   1.077   4.759 -0.0832  0.1362  1.3072
   56CHL1   H25 4136   7.100   0.966   4.744  0.2223  0.4137 -1.1773
   56CHL1   C26 4137   7.239   1.141   4.739 -0.4073 -0.0376 -0.0856
   56CHL1  H26A 4138   7.285   1.078   4.660 -3.6288 -1.2189 -1.1675
   56CHL1  H26B 4139   7.243   1.244   4.698  1.0054  0.3916  1.0654
   56CHL1  H26C 4140   7.304   1.136   4.829  0.2748  1.3458 -0.4703
   56CHL1   C27 4141   7.035   1.116   4.894  0.4097 -0.3138  0.5891
   56CHL1  H27A 4142   7.057   1.221   4.922  1.5887 -0.3963  0.0169
   56CHL1  H27B 4143   6.927   1.088   4.891 -0.4764  2.7955 -0.1823
   56CHL1  H27C 4144   7.090   1.044   4.959  0.2594  0.0606  1.1373
   57SAPC     N 4145   6.780   2.751   7.621 -0.4488  0.0948  0.1617
   57SAPC   C12 4146   6.751   2.706   7.477  0.4686 -0.6747 -0.0395
   57SAPC  H12A 4147   6.655   2.748   7.450  1.5129  3.1277  1.4373
   57SAPC  H12B 4148   6.733   2.601   7.490 -1.1669 -0.3930  0.2463
   57SAPC   C13 4149   6.761   2.897   7.633  0.2426  0.1690  0.4120
   57SAPC  H13A 4150   6.828   2.942   7.561  0.5476  0.1587  0.6860
   57SAPC  H13B 4151   6.667   2.938   7.600  1.2845  1.3519 -1.2162
   57SAPC  H13C 4152   6.793   2.943   7.726  0.1570 -1.0123  1.0361
   57SAPC   C14 4153   6.686   2.692   7.714 -0.2306 -0.1279 -0.8854
   57SAPC  H14A 4154   6.678   2.584   7.710  1.9850 -0.8839  5.2649
   57SAPC  H14B 4155   6.720   2.702   7.816  2.2621 -2.5414 -1.3570
   57SAPC  H14C 4156   6.597   2.753   7.710 -1.5656 -1.9239  0.1085
   57SAPC   C15 4157   6.916   2.714   7.660 -0.1454  0.3015  0.3158
   57SAPC  H15A 4158   6.934   2.735   7.764  3.5738 -2.6336  0.5049
   57SAPC  H15B 4159   6.926   2.607   7.649  0.5730  0.2380  1.4410
   57SAPC  H15C 4160   6.992   2.769   7.607  0.2110  0.6210  1.1537
   57SAPC   C11 4161   6.859   2.726   7.364 -0.4505  0.2724  0.1404
   57SAPC  H11A 4162   6.824   2.683   7.268 -1.6849  0.9737  0.2546
   57SAPC  H11B 4163   6.946   2.660   7.385 -1.3013 -1.2124 -0.7483
   57SAPC     P 4164   7.029   2.937   7.318  0.1380 -0.4259  0.2662
   57SAPC   O13 4165   7.005   3.080   7.309 -0.4206  0.0041 -0.0908
   57SAPC   O14 4166   7.123   2.888   7.421  0.0630  0.0929 -0.5277
   57SAPC   O12 4167   6.886   2.865   7.344  0.1493 -0.5706  0.5534
   57SAPC   O11 4168   7.076   2.879   7.179 -0.9270  0.5027 -0.1574
   57SAPC    C1 4169   6.987   2.871   7.068 -0.2016  0.7754 -0.6719
   57SAPC    HA 4170   6.968   2.763   7.047 -0.7603  0.6315  0.4662
   57SAPC    HB 4171   6.890   2.919   7.093 -0.5067 -0.3157  0.3781
   57SAPC    C2 4172   7.037   2.928   6.930 -0.1476  0.9820  0.3585
   57SAPC    HS 4173   6.961   2.921   6.850 -0.3548  1.5185  0.5034
   57SAPC   O21 4174   7.150   2.865   6.869 -0.6827 -0.5215 -0.7949
   57SAPC   C21 4175   7.130   2.747   6.808  1.0154 -0.0717  0.2945
   57SAPC   O22 4176   7.014   2.697   6.800 -0.6533  0.2166 -0.2202
   57SAPC   C22 4177   7.258   2.696   6.755  0.5809  0.6863 -0.3920
   57SAPC   H2R 4178   7.289   2.755   6.666 -1.3418  1.1892 -0.7761
   57SAPC   H2S 4179   7.333   2.704   6.837  0.3910  0.0815 -0.1564
   57SAPC    C3 4180   7.054   3.085   6.943 -0.5536  0.7698 -1.1309
   57SAPC    HX 4181   7.149   3.099   6.999 -1.6964  1.2869  0.7725
   57SAPC    HY 4182   6.969   3.120   7.005  1.3212  3.6728  0.0025
   57SAPC   O31 4183   7.060   3.162   6.820  0.0234  0.8065  0.4436
   57SAPC   C31 4184   6.952   3.168   6.748  0.4947  0.8342  0.5577
   57SAPC   O32 4185   6.843   3.115   6.776  0.0093  0.0604  0.5809
   57SAPC   C32 4186   6.990   3.248   6.620 -0.2153  0.2200 -1.3053
   57SAPC   H2X 4187   7.057   3.178   6.565  0.8553 -0.5756  0.8616
   57SAPC   H2Y 4188   7.068   3.323   6.645  2.5580 -2.6296 -0.7818
   57SAPC   C23 4189   7.239   2.549   6.709 -0.6398 -0.3933 -0.4603
   57SAPC   H3R 4190   7.172   2.548   6.621 -0.5743  2.4038 -0.6427
   57SAPC   H3S 4191   7.207   2.486   6.794  0.2909  0.3317  0.4558
   57SAPC   C24 4192   7.375   2.489   6.668  0.2453 -0.2330 -0.0088
   57SAPC   H4R 4193   7.374   2.378   6.661 -1.6451 -0.2268 -0.4859
   57SAPC   H4S 4194   7.442   2.523   6.749 -1.9697  0.1751  1.7277
   57SAPC   C25 4195   7.424   2.535   6.533  0.3466  0.8229 -0.0116
   57SAPC   H5R 4196   7.498   2.616   6.523  0.1001  1.2075  1.1287
   57SAPC   C26 4197   7.385   2.471   6.422  0.0295  0.2926 -0.0554
   57SAPC   H6R 4198   7.423   2.521   6.332  2.0968 -2.3459 -0.7829
   57SAPC   C27 4199   7.290   2.352   6.415 -0.4616 -0.2626  0.1969
   57SAPC   H7R 4200   7.221   2.339   6.501  1.0369  0.1916  1.5023
   57SAPC   H7S 4201   7.349   2.258   6.417  0.0649  0.0737  0.5368
   57SAPC   C28 4202   7.206   2.365   6.287 -0.2013  0.4196  0.4059
   57SAPC   H8R 4203   7.161   2.464   6.273 -0.4470  0.2153 -0.2978
   57SAPC   C29 4204   7.180   2.278   6.183  0.0741 -0.0712  0.6494
   57SAPC   H9R 4205   7.116   2.315   6.101 -1.9487 -2.1154  1.2156
   57SAPC  C210 4206   7.233   2.146   6.161 -1.4289 -0.1342 -0.1146
   57SAPC  H10R 4207   7.223   2.096   6.260 -1.9195  0.6917  0.2709
   57SAPC  H10S 4208   7.343   2.149   6.142 -1.7856  0.7446 -2.3563
   57SAPC  C211 4209   7.167   2.050   6.064 -0.0803  0.1911  0.0182
   57SAPC  H11R 4210   7.119   1.970   6.122 -0.8520  1.2075  0.8147
   57SAPC  C212 4211   7.191   2.031   5.931 -0.0364  0.3087 -1.6628
   57SAPC  H12R 4212   7.136   1.948   5.885 -0.2536 -0.8303  0.4780
   57SAPC  C213 4213   7.267   2.120   5.835  0.5228 -0.1027  0.4960
   57SAPC  H13R 4214   7.352   2.066   5.788 -0.9856 -1.4439 -0.8465
   57SAPC  H13S 4215   7.299   2.211   5.890 -1.2853 -0.5254  2.3951
   57SAPC  C214 4216   7.158   2.156   5.735 -0.4738  0.5136 -0.0080
   57SAPC  H14R 4217   7.069   2.208   5.773 -0.7080 -0.9975  1.6360
   57SAPC  C215 4218   7.165   2.134   5.599  0.4266  0.4682  0.0974
   57SAPC  H15R 4219   7.082   2.168   5.536 -0.8016 -1.5121  0.5646
   57SAPC  C216 4220   7.278   2.080   5.518 -0.9147  0.5574  0.3764
   57SAPC  H16R 4221   7.359   2.044   5.585  0.7579  1.6712 -0.9651
   57SAPC  H16S 4222   7.319   2.161   5.455  2.1304 -0.6214  0.6418
   57SAPC  C217 4223   7.241   1.967   5.423  0.9965 -0.3777 -0.7118
   57SAPC  H17R 4224   7.159   2.015   5.365  0.6811 -0.3416 -0.2473
   57SAPC  H17S 4225   7.200   1.881   5.479 -0.7530  1.6175  1.2868
   57SAPC  C218 4226   7.361   1.915   5.338  0.2666 -0.4524  0.1835
   57SAPC  H18R 4227   7.433   1.874   5.412 -0.3467 -1.5981  0.1737
   57SAPC  H18S 4228   7.400   1.999   5.277 -0.9507 -0.5177 -0.7357
   57SAPC  C219 4229   7.320   1.789   5.272  1.0574  1.0153 -0.2960
   57SAPC  H19R 4230   7.213   1.790   5.243  1.6959  0.4846 -2.8636
   57SAPC  H19S 4231   7.329   1.707   5.346  0.6872  2.3520  1.3075
   57SAPC  C220 4232   7.397   1.751   5.142 -0.4793  0.0371  0.6601
   57SAPC  H20R 4233   7.341   1.676   5.081  2.3463 -0.8100 -1.0848
   57SAPC  H20S 4234   7.493   1.705   5.173 -0.3707 -0.1479  0.0763
   57SAPC  H20T 4235   7.418   1.840   5.078  0.8278 -1.3026 -0.8819
   57SAPC   C33 4236   6.862   3.290   6.553  0.3109  0.1705  0.4376
   57SAPC   H3X 4237   6.820   3.361   6.628  0.5859 -0.9183  1.6605
   57SAPC   H3Y 4238   6.789   3.209   6.535  0.8667 -0.2624  0.1367
   57SAPC   C34 4239   6.870   3.374   6.427 -0.5156  0.2154 -0.1115
   57SAPC   H4X 4240   6.932   3.465   6.437  0.8820 -0.8515  1.6498
   57SAPC   H4Y 4241   6.768   3.393   6.389  0.2487  1.0159 -1.8801
   57SAPC   C35 4242   6.917   3.306   6.297 -0.4587 -0.5083  0.4075
   57SAPC   H5X 4243   6.850   3.222   6.268  2.1917 -2.2295 -1.2313
   57SAPC   H5Y 4244   7.021   3.268   6.311  0.3341  1.9431  1.8355
   57SAPC   C36 4245   6.920   3.403   6.177 -0.4260  0.5730 -0.1755
   57SAPC   H6X 4246   6.985   3.486   6.211  0.4690 -0.6997  1.3467
   57SAPC   H6Y 4247   6.824   3.448   6.144 -1.4441  1.0385  3.0695
   57SAPC   C37 4248   6.974   3.322   6.051  0.4702 -0.4533 -0.8178
   57SAPC   H7X 4249   6.932   3.220   6.050 -0.5576 -0.0602 -2.4549
   57SAPC   H7Y 4250   7.084   3.320   6.065  0.9515 -2.6462 -3.9378
   57SAPC   C38 4251   6.948   3.399   5.918 -0.4216 -0.0744 -0.4755
   57SAPC   H8X 4252   6.997   3.499   5.924  0.8356 -0.6991  0.1086
   57SAPC   H8Y 4253   6.841   3.421   5.897 -0.2713  0.0364 -1.1822
   57SAPC   C39 4254   7.012   3.328   5.797 -0.1263 -0.4632  1.4841
   57SAPC   H9X 4255   6.951   3.241   5.761  0.0384 -0.7178  1.8187
   57SAPC   H9Y 4256   7.111   3.283   5.817  0.7664 -0.5345 -2.2755
   57SAPC  C310 4257   7.026   3.416   5.676 -0.0994 -0.2660  0.0355
   57SAPC  H10X 4258   7.120   3.475   5.668 -0.8515  0.9356 -0.3336
   57SAPC  H10Y 4259   6.942   3.489   5.676 -0.6005 -0.7376 -2.6449
   57SAPC  C311 4260   7.009   3.341   5.536  0.1085 -0.5623  0.2387
   57SAPC  H11X 4261   6.899   3.322   5.528  0.0797  0.0371 -1.0889
   57SAPC  H11Y 4262   7.057   3.242   5.552  1.9147  0.2292 -0.0830
   57SAPC  C312 4263   7.068   3.409   5.417  0.0487  0.6835 -0.6232
   57SAPC  H12X 4264   7.173   3.439   5.440  0.5183 -0.6296 -0.9833
   57SAPC  H12Y 4265   7.016   3.504   5.392  1.1212  1.1844 -1.0401
   57SAPC  C313 4266   7.056   3.336   5.282 -0.1499 -0.0755 -0.4985
   57SAPC  H13X 4267   6.950   3.334   5.251 -0.4022 -1.1646  0.4077
   57SAPC  H13Y 4268   7.102   3.237   5.303  4.0859  2.1012  1.9130
   57SAPC  C314 4269   7.162   3.400   5.186  0.3422  0.1680 -0.1613
   57SAPC  H14X 4270   7.256   3.406   5.246  1.2424  0.0912 -1.5240
   57SAPC  H14Y 4271   7.139   3.508   5.183  0.5877  0.2031 -1.3817
   57SAPC  C315 4272   7.160   3.339   5.051 -0.0036  0.5757  0.5260
   57SAPC  H15X 4273   7.062   3.360   5.004 -1.2021  0.1209  2.6799
   57SAPC  H15Y 4274   7.192   3.233   5.048  1.6946  1.0861 -1.5001
   57SAPC  C316 4275   7.267   3.413   4.965 -0.0046 -0.3293 -0.6800
   57SAPC  H16X 4276   7.362   3.368   5.001  0.1803  1.6298  1.5345
   57SAPC  H16Y 4277   7.257   3.523   4.980  1.4053 -0.0181 -1.8366
   57SAPC  C317 4278   7.249   3.379   4.819 -0.2033 -0.4966  0.1960
   57SAPC  H17X 4279   7.155   3.430   4.788  0.0509 -0.4707 -0.5542
   57SAPC  H17Y 4280   7.256   3.272   4.792  1.5429 -0.7314  1.4330
   57SAPC  C318 4281   7.354   3.454   4.741  0.4136  0.7117 -0.1794
   57SAPC  H18X 4282   7.357   3.561   4.772 -0.8718  0.1822  1.9507
   57SAPC  H18Y 4283   7.326   3.451   4.634  0.0793 -3.3949 -0.1390
   57SAPC  H18Z 4284   7.453   3.403   4.735 -1.1127 -2.2704 -2.1202
   58SAPC     N 4285   4.668   3.121   7.159  0.1081  0.2944  0.1466
   58SAPC   C12 4286   4.584   3.226   7.079 -0.3835 -0.4605 -0.2650
   58SAPC  H12A 4287   4.643   3.315   7.066  2.3608 -2.2665 -1.0684
   58SAPC  H12B 4288   4.499   3.250   7.141 -1.0172 -2.0048 -0.4949
   58SAPC   C13 4289   4.704   3.173   7.296 -0.0154  0.7117  0.1001
   58SAPC  H13A 4290   4.757   3.266   7.278  1.2291  0.1081  0.5299
   58SAPC  H13B 4291   4.619   3.174   7.362  1.5114  2.0031  2.1810
   58SAPC  H13C 4292   4.781   3.120   7.351 -1.1372 -0.5309  0.5290
   58SAPC   C14 4293   4.582   3.000   7.181 -1.1365  0.7125 -0.6861
   58SAPC  H14A 4294   4.495   3.018   7.242  0.0738  1.7729  0.7982
   58SAPC  H14B 4295   4.557   2.964   7.082 -0.2913  0.1779 -0.7117
   58SAPC  H14C 4296   4.645   2.928   7.230 -2.0864  1.4704  1.8130
   58SAPC   C15 4297   4.787   3.084   7.074 -0.3654  0.1827  0.1873
   58SAPC  H15A 4298   4.850   3.022   7.136 -1.1809 -0.6205  0.2318
   58SAPC  H15B 4299   4.753   3.017   6.996 -1.7464 -0.1606  1.0382
   58SAPC  H15C 4300   4.839   3.176   7.050  0.1203  0.6040  2.6244
   58SAPC   C11 4301   4.518   3.193   6.940 -0.5623 -0.0771 -0.4118
   58SAPC  H11A 4302   4.593   3.149   6.871  1.6819  0.3551  1.6438
   58SAPC  H11B 4303   4.476   3.289   6.903  1.4283  0.6131 -0.9746
   58SAPC     P 4304   4.273   3.115   6.910 -0.4360 -0.2919  0.0327
   58SAPC   O13 4305   4.194   3.012   6.980  0.4233 -0.0494 -0.6382
   58SAPC   O14 4306   4.232   3.251   6.926 -0.1261 -0.5045 -0.0767
   58SAPC   O12 4307   4.420   3.097   6.962 -0.2028 -0.1814 -0.1130
   58SAPC   O11 4308   4.276   3.082   6.755 -0.2660  0.1874 -0.2012
   58SAPC    C1 4309   4.269   2.942   6.721  0.0655  0.3866 -0.0357
   58SAPC    HA 4310   4.363   2.884   6.737  1.4862  2.1845 -1.3787
   58SAPC    HB 4311   4.194   2.887   6.781 -0.2409 -0.9951 -1.6285
   58SAPC    C2 4312   4.233   2.922   6.575 -0.4667  0.2608  0.1875
   58SAPC    HS 4313   4.306   2.956   6.498 -0.3039 -3.1564 -1.3225
   58SAPC   O21 4314   4.106   2.982   6.551 -0.0903  0.1780  0.0341
   58SAPC   C21 4315   4.113   3.105   6.500 -1.3546  0.0381  0.0197
   58SAPC   O22 4316   4.218   3.159   6.464 -0.0337 -0.2362 -0.6738
   58SAPC   C22 4317   3.969   3.167   6.482 -0.0950  0.2690 -0.1876
   58SAPC   H2R 4318   3.899   3.095   6.436  0.3196  0.5795 -1.3382
   58SAPC   H2S 4319   3.924   3.186   6.582 -1.3129  0.6049 -0.7850
   58SAPC    C3 4320   4.224   2.766   6.538  0.4142 -1.0944 -0.1726
   58SAPC    HX 4321   4.130   2.723   6.577 -0.2427  1.5195  1.3430
   58SAPC    HY 4322   4.317   2.721   6.581  2.3755  1.7128 -1.1577
   58SAPC   O31 4323   4.221   2.753   6.392  0.0942  0.2030 -0.0255
   58SAPC   C31 4324   4.234   2.631   6.348  1.0141  0.6711  0.1732
   58SAPC   O32 4325   4.243   2.533   6.417 -0.3958  0.7648  0.0427
   58SAPC   C32 4326   4.264   2.628   6.202  0.1888  0.4342 -0.4269
   58SAPC   H2X 4327   4.302   2.723   6.159  1.0080  0.1719 -0.2872
   58SAPC   H2Y 4328   4.167   2.602   6.154  1.5771 -1.9643 -2.1386
   58SAPC   C23 4329   3.964   3.295   6.399  0.1383 -0.4292 -0.0165
   58SAPC   H3R 4330   4.036   3.373   6.433  0.1008 -0.6186  0.5126
   58SAPC   H3S 4331   3.869   3.351   6.413 -0.6786 -1.4505 -1.2361
   58SAPC   C24 4332   3.971   3.256   6.255 -0.1028  0.5201 -0.2641
   58SAPC   H4R 4333   3.891   3.183   6.227  2.0615 -2.5883  1.0517
   58SAPC   H4S 4334   4.064   3.200   6.232 -0.8832 -0.6667 -0.6212
   58SAPC   C25 4335   3.965   3.386   6.183 -0.0640 -0.0233  0.6240
   58SAPC   H5R 4336   4.058   3.446   6.188 -0.5811  0.9444 -0.5664
   58SAPC   C26 4337   3.863   3.423   6.097  0.0129  0.0023 -0.0230
   58SAPC   H6R 4338   3.885   3.516   6.043  0.4296  0.5727  1.0864
   58SAPC   C27 4339   3.732   3.342   6.074 -0.0792  0.2430  0.0735
   58SAPC   H7R 4340   3.673   3.364   6.165 -1.3616 -0.3599 -0.5878
   58SAPC   H7S 4341   3.752   3.233   6.067 -0.6014  0.1792 -0.5449
   58SAPC   C28 4342   3.635   3.380   5.967  0.0134 -0.2663 -0.2900
   58SAPC   H8R 4343   3.532   3.393   6.004 -0.6895 -0.2162 -2.1526
   58SAPC   C29 4344   3.661   3.412   5.839 -0.3943  0.3954  0.3736
   58SAPC   H9R 4345   3.579   3.456   5.781  0.5905 -0.5213 -1.8058
   58SAPC  C210 4346   3.784   3.408   5.754  0.1611  0.2002  1.2238
   58SAPC  H10R 4347   3.846   3.317   5.760  0.0706 -0.1848 -2.0968
   58SAPC  H10S 4348   3.849   3.493   5.783  1.9840 -0.9848  0.7275
   58SAPC  C211 4349   3.745   3.412   5.603 -0.2068 -0.1541  0.2029
   58SAPC  H11R 4350   3.717   3.316   5.557 -0.6430 -0.1853  0.5298
   58SAPC  C212 4351   3.754   3.523   5.533  0.2670 -0.6196  0.5544
   58SAPC  H12R 4352   3.758   3.524   5.423  0.1223 -0.1887  0.5533
   58SAPC  C213 4353   3.816   3.653   5.593 -0.0501  0.0494 -0.3939
   58SAPC  H13R 4354   3.774   3.671   5.694 -0.2901  0.5147 -0.5746
   58SAPC  H13S 4355   3.774   3.743   5.543 -0.7827  1.0103  1.8127
   58SAPC  C214 4356   3.963   3.664   5.592  0.2292 -0.4692 -0.1266
   58SAPC  H14R 4357   4.014   3.607   5.512  0.6393  1.6641 -1.4740
   58SAPC  C215 4358   4.048   3.737   5.675  0.4720  0.3696 -0.0574
   58SAPC  H15R 4359   4.155   3.737   5.652  0.1124  0.8330 -1.8720
   58SAPC  C216 4360   4.005   3.819   5.795  0.0834 -0.2238 -0.1667
   58SAPC  H16R 4361   3.915   3.784   5.851 -1.3379 -1.0308 -2.8107
   58SAPC  H16S 4362   3.979   3.923   5.766  1.8338  0.2480 -0.1235
   58SAPC  C217 4363   4.111   3.829   5.908  0.1795 -0.7025 -0.2030
   58SAPC  H17R 4364   4.186   3.910   5.893  0.3899 -0.7472  0.5505
   58SAPC  H17S 4365   4.177   3.740   5.920  0.9774 -0.2121 -0.8710
   58SAPC  C218 4366   4.047   3.858   6.046 -0.3702  0.3376  0.3710
   58SAPC  H18R 4367   3.970   3.779   6.053  1.5177 -1.6666 -0.1947
   58SAPC  H18S 4368   3.984   3.950   6.046 -0.1140  0.5577  2.3161
   58SAPC  C219 4369   4.135   3.857   6.172 -0.1099 -0.0893 -0.0837
   58SAPC  H19R 4370   4.222   3.922   6.148 -1.3541  1.5101 -0.4481
   58SAPC  H19S 4371   4.172   3.752   6.175  2.3692  0.6219 -1.7633
   58SAPC  C220 4372   4.059   3.895   6.300 -0.0790  0.4522  0.3394
   58SAPC  H20R 4373   4.104   3.848   6.390 -1.3559 -0.1425  0.6920
   58SAPC  H20S 4374   3.955   3.857   6.292 -0.0970  0.4272  0.6719
   58SAPC  H20T 4375   4.053   4.006   6.305  0.7531  0.5083  0.2877
   58SAPC   C33 4376   4.374   2.529   6.167  0.0921 -0.4861  0.5944
   58SAPC   H3X 4377   4.330   2.431   6.197 -1.0972 -0.1237  0.1157
   58SAPC   H3Y 4378   4.459   2.543   6.236 -0.2942 -2.0248  1.4181
   58SAPC   C34 4379   4.418   2.535   6.021  0.6372  0.8909  0.2145
   58SAPC   H4X 4380   4.508   2.471   6.026 -0.5609 -0.7990  1.3341
   58SAPC   H4Y 4381   4.446   2.631   5.972 -1.1951 -0.8851 -5.0631
   58SAPC   C35 4382   4.320   2.474   5.916  0.5778 -0.0545  0.1036
   58SAPC   H5X 4383   4.226   2.531   5.901 -0.7728 -1.8348  1.3154
   58SAPC   H5Y 4384   4.295   2.369   5.942  1.3530 -0.4595 -0.7317
   58SAPC   C36 4385   4.392   2.478   5.781 -0.1260 -0.4660 -0.3741
   58SAPC   H6X 4386   4.473   2.404   5.766  1.2296  0.9803 -0.5258
   58SAPC   H6Y 4387   4.435   2.579   5.762 -0.2469 -0.3942 -0.2667
   58SAPC   C37 4388   4.301   2.444   5.666  0.3482  0.2033  0.4049
   58SAPC   H7X 4389   4.214   2.513   5.672 -1.3198 -1.8688  2.6909
   58SAPC   H7Y 4390   4.246   2.349   5.686 -0.6941  0.8460  0.6994
   58SAPC   C38 4391   4.363   2.434   5.531  0.2330 -0.3785  0.4174
   58SAPC   H8X 4392   4.284   2.401   5.460 -1.1292  1.5880  0.9423
   58SAPC   H8Y 4393   4.443   2.356   5.523 -1.2021 -1.8474 -0.2552
   58SAPC   C39 4394   4.436   2.556   5.475  0.0183  0.6044  0.6059
   58SAPC   H9X 4395   4.511   2.577   5.555 -0.2327 -0.4827  1.1394
   58SAPC   H9Y 4396   4.372   2.646   5.468 -0.6566  0.0443 -1.1246
   58SAPC  C310 4397   4.509   2.531   5.337  0.1994  0.4330 -0.1590
   58SAPC  H10X 4398   4.551   2.430   5.323  0.6770  0.8393 -1.8298
   58SAPC  H10Y 4399   4.590   2.605   5.352 -0.4286  0.9537  0.7683
   58SAPC  C311 4400   4.428   2.568   5.215 -0.9638  0.2801  0.2859
   58SAPC  H11X 4401   4.412   2.677   5.214  2.2747  0.8605  0.3072
   58SAPC  H11Y 4402   4.335   2.508   5.216 -1.5545  1.1653 -0.2336
   58SAPC  C312 4403   4.514   2.545   5.087 -0.7246 -0.9828 -0.0244
   58SAPC  H12X 4404   4.533   2.436   5.084  0.5302 -0.7719 -0.2639
   58SAPC  H12Y 4405   4.605   2.604   5.111 -1.6125 -0.2650  1.7665
   58SAPC  C313 4406   4.446   2.606   4.963  0.8415  0.2131 -0.1305
   58SAPC  H13X 4407   4.380   2.689   4.997  0.9924  0.4433 -0.3963
   58SAPC  H13Y 4408   4.375   2.530   4.924  0.8983  0.0041  0.1691
   58SAPC  C314 4409   4.533   2.664   4.856  0.1493  0.7265  0.5567
   58SAPC  H14X 4410   4.604   2.583   4.826 -0.8601 -0.0276  0.1397
   58SAPC  H14Y 4411   4.592   2.743   4.907  0.1577  0.4347  1.0104
   58SAPC  C315 4412   4.460   2.709   4.731 -0.1411  0.5950  0.2210
   58SAPC  H15X 4413   4.404   2.803   4.748  0.5548  0.6428  2.5916
   58SAPC  H15Y 4414   4.384   2.628   4.717  2.0449 -1.8624  1.6477
   58SAPC  C316 4415   4.555   2.725   4.609  0.1041  0.2221 -0.0318
   58SAPC  H16X 4416   4.618   2.634   4.605 -2.0429 -1.3159 -0.5744
   58SAPC  H16Y 4417   4.613   2.818   4.630  0.7110  0.0126 -0.7215
   58SAPC  C317 4418   4.479   2.736   4.477 -0.0414 -0.0067 -0.3545
   58SAPC  H17X 4419   4.401   2.810   4.504  0.3670  0.4555 -0.4323
   58SAPC  H17Y 4420   4.425   2.642   4.452 -3.8359  2.1770 -1.0810
   58SAPC  C318 4421   4.566   2.787   4.357  0.5492 -0.2694 -0.2764
   58SAPC  H18X 4422   4.506   2.782   4.264  0.6991 -0.3299 -0.3695
   58SAPC  H18Y 4423   4.659   2.730   4.335  0.6247  0.3003 -1.4751
   58SAPC  H18Z 4424   4.595   2.890   4.384  0.7981 -0.8748  2.0399
   59SAPC     N 4425   2.441   5.318   7.463 -0.5596  0.4997 -0.0415
   59SAPC   C12 4426   2.441   5.200   7.365  0.2835  0.4549 -0.5974
   59SAPC  H12A 4427   2.393   5.232   7.273 -0.4675  1.6742  0.1912
   59SAPC  H12B 4428   2.372   5.126   7.402  0.2028  0.8773  0.1093
   59SAPC   C13 4429   2.305   5.365   7.496 -0.1550 -0.2997 -0.2963
   59SAPC  H13A 4430   2.303   5.446   7.567  1.1353 -0.8884  0.4471
   59SAPC  H13B 4431   2.255   5.390   7.403  1.4107 -0.0546 -1.0964
   59SAPC  H13C 4432   2.247   5.285   7.542  1.6325 -1.8529 -0.6373
   59SAPC   C14 4433   2.507   5.282   7.597  0.3407 -0.5137  0.4629
   59SAPC  H14A 4434   2.612   5.261   7.587  0.9195  1.5215  1.6154
   59SAPC  H14B 4435   2.501   5.353   7.678 -1.2345 -1.5785  1.3305
   59SAPC  H14C 4436   2.462   5.191   7.632 -1.5154  0.0379 -0.3122
   59SAPC   C15 4437   2.512   5.432   7.400 -0.1128 -0.0842  0.7176
   59SAPC  H15A 4438   2.452   5.455   7.312 -3.6419 -1.4293  2.5569
   59SAPC  H15B 4439   2.507   5.522   7.459  0.4692  0.9950 -0.8123
   59SAPC  H15C 4440   2.613   5.407   7.371 -0.5991 -0.7717 -0.4948
   59SAPC   C11 4441   2.575   5.133   7.336 -0.5294  0.3215  0.1196
   59SAPC  H11A 4442   2.564   5.046   7.268  0.2336 -0.8972  1.4948
   59SAPC  H11B 4443   2.626   5.094   7.427  2.1234  2.3808 -0.3536
   59SAPC     P 4444   2.648   5.264   7.110  0.5715  0.0809 -0.0632
   59SAPC   O13 4445   2.644   5.409   7.104  0.3729 -0.1993  0.2770
   59SAPC   O14 4446   2.747   5.198   7.021  0.5156 -0.3641 -1.0211
   59SAPC   O12 4447   2.662   5.217   7.259  0.1970  0.0679  0.3084
   59SAPC   O11 4448   2.506   5.208   7.074 -0.1650 -0.6271 -0.3468
   59SAPC    C1 4449   2.494   5.085   7.013 -0.0388  0.3219 -0.0416
   59SAPC    HA 4450   2.576   5.014   7.038  2.2970  3.1747  1.0310
   59SAPC    HB 4451   2.391   5.043   7.016  0.2868 -1.0246 -3.1125
   59SAPC    C2 4452   2.512   5.105   6.856  0.0392 -0.6012  0.1793
   59SAPC    HS 4453   2.619   5.133   6.848 -0.3902  1.0900 -0.0113
   59SAPC   O21 4454   2.423   5.210   6.812 -0.3851  0.7030 -0.2325
   59SAPC   C21 4455   2.476   5.289   6.721 -0.2612  0.3627  0.3589
   59SAPC   O22 4456   2.582   5.282   6.665 -0.0331 -0.6595 -0.6065
   59SAPC   C22 4457   2.391   5.422   6.717 -0.1637 -0.2022  1.0185
   59SAPC   H2R 4458   2.404   5.458   6.821  2.9520 -0.6715  0.8890
   59SAPC   H2S 4459   2.461   5.480   6.654  0.9833 -1.7949  0.7711
   59SAPC    C3 4460   2.499   4.965   6.782 -1.0785 -0.1482  0.3495
   59SAPC    HX 4461   2.395   4.935   6.804 -1.3311  0.8170  0.5082
   59SAPC    HY 4462   2.560   4.884   6.826  0.2815 -0.9243 -2.6838
   59SAPC   O31 4463   2.527   4.981   6.639  0.2817 -0.1727 -0.9266
   59SAPC   C31 4464   2.655   4.958   6.600 -0.0317  0.6223 -0.3676
   59SAPC   O32 4465   2.738   4.898   6.667 -0.0689 -0.6023  0.0250
   59SAPC   C32 4466   2.680   5.024   6.470  0.0302 -0.4507  0.3914
   59SAPC   H2X 4467   2.789   5.015   6.450 -0.0971  0.1928 -0.6888
   59SAPC   H2Y 4468   2.656   5.131   6.482 -0.4990 -0.4393 -0.7078
   59SAPC   C23 4469   2.250   5.416   6.665  0.1067 -0.4903 -0.3119
   59SAPC   H3R 4470   2.193   5.501   6.708  0.7147 -0.2239 -0.0141
   59SAPC   H3S 4471   2.191   5.327   6.693  1.0329 -1.1699 -0.4774
   59SAPC   C24 4472   2.235   5.442   6.509 -0.0273 -0.4313  0.3528
   59SAPC   H4R 4473   2.291   5.534   6.480 -1.3066 -0.2193 -1.6426
   59SAPC   H4S 4474   2.128   5.468   6.494  0.2762  0.4066 -0.4990
   59SAPC   C25 4475   2.280   5.327   6.424  0.0009 -0.3923  0.2736
   59SAPC   H5R 4476   2.275   5.227   6.470  0.5973 -1.1802 -1.3040
   59SAPC   C26 4477   2.313   5.327   6.296  0.2041  0.3542  0.2172
   59SAPC   H6R 4478   2.330   5.230   6.247 -0.4470  0.1113  0.4604
   59SAPC   C27 4479   2.328   5.454   6.217  0.4326 -0.5040  0.5888
   59SAPC   H7R 4480   2.309   5.552   6.265  1.2455  0.5856 -1.1950
   59SAPC   H7S 4481   2.258   5.456   6.131 -1.4572 -1.4145  2.0316
   59SAPC   C28 4482   2.469   5.461   6.171  0.2335 -0.4053  0.1278
   59SAPC   H8R 4483   2.538   5.510   6.241  2.6013 -0.8039 -1.7540
   59SAPC   C29 4484   2.516   5.415   6.054 -0.1472 -0.3036  0.6834
   59SAPC   H9R 4485   2.622   5.441   6.042  0.5736 -3.1568 -0.0444
   59SAPC  C210 4486   2.441   5.364   5.936  0.4266 -0.2270  0.2350
   59SAPC  H10R 4487   2.352   5.428   5.915 -0.0818 -0.9286  0.2166
   59SAPC  H10S 4488   2.396   5.267   5.966 -1.8185  0.9489  0.8519
   59SAPC  C211 4489   2.527   5.347   5.813  0.2700  0.0953  0.3116
   59SAPC  H11R 4490   2.622   5.293   5.825  0.4974  0.3450 -0.3089
   59SAPC  C212 4491   2.511   5.423   5.697 -0.9598  0.6208 -0.2893
   59SAPC  H12R 4492   2.576   5.400   5.611  1.7614  2.3592  1.1205
   59SAPC  C213 4493   2.402   5.515   5.650  0.2872 -0.1304 -0.2416
   59SAPC  H13R 4494   2.324   5.519   5.729  3.8331  1.0687  3.5510
   59SAPC  H13S 4495   2.355   5.471   5.559 -0.0892 -1.5649  0.6298
   59SAPC  C214 4496   2.473   5.646   5.631 -0.0700  0.5051 -0.5779
   59SAPC  H14R 4497   2.530   5.674   5.721 -0.2827  1.6167 -0.7683
   59SAPC  C215 4498   2.489   5.707   5.514  0.2799  0.1190  0.2003
   59SAPC  H15R 4499   2.562   5.788   5.499 -1.5629  1.6588 -1.0387
   59SAPC  C216 4500   2.430   5.660   5.379 -0.0990  0.5394 -0.4297
   59SAPC  H16R 4501   2.417   5.550   5.390 -0.1481  0.6361  0.6312
   59SAPC  H16S 4502   2.507   5.670   5.300 -1.2890 -1.6815 -1.9444
   59SAPC  C217 4503   2.296   5.725   5.326 -0.0762  0.3652 -0.2750
   59SAPC  H17R 4504   2.302   5.834   5.345  0.9127  0.3943 -0.6987
   59SAPC  H17S 4505   2.207   5.691   5.383 -0.2030  0.8878 -0.1598
   59SAPC  C218 4506   2.278   5.705   5.178 -0.8891  0.2065  0.7036
   59SAPC  H18R 4507   2.373   5.736   5.130 -0.4695  0.4275  1.6490
   59SAPC  H18S 4508   2.202   5.780   5.147  0.6931  0.6736 -2.3838
   59SAPC  C219 4509   2.218   5.562   5.148 -0.1111 -0.0645  0.1695
   59SAPC  H19R 4510   2.126   5.542   5.207 -0.3349 -2.7710 -0.9459
   59SAPC  H19S 4511   2.301   5.494   5.179 -0.1863  0.4428  1.5337
   59SAPC  C220 4512   2.186   5.531   4.994  0.2683 -0.3317 -0.1857
   59SAPC  H20R 4513   2.281   5.548   4.939  1.0634  1.5447  1.6087
   59SAPC  H20S 4514   2.103   5.595   4.956  1.0221 -0.7377 -2.6993
   59SAPC  H20T 4515   2.142   5.431   4.974 -0.1395 -0.1022 -0.4634
   59SAPC   C33 4516   2.601   4.959   6.353 -0.4817  0.3933  0.2676
   59SAPC   H3X 4517   2.492   4.980   6.357 -0.4139  0.8191 -0.0285
   59SAPC   H3Y 4518   2.604   4.848   6.357 -0.4111  0.4310  1.9364
   59SAPC   C34 4519   2.670   5.003   6.215  0.0964 -0.3578 -0.4537
   59SAPC   H4X 4520   2.765   4.946   6.212 -0.5664 -1.4675 -0.9823
   59SAPC   H4Y 4521   2.699   5.110   6.213 -1.7119  0.2171  0.7457
   59SAPC   C35 4522   2.590   4.965   6.092 -0.0807 -0.1273  0.4787
   59SAPC   H5X 4523   2.516   5.047   6.083  2.0073  1.7988 -0.1442
   59SAPC   H5Y 4524   2.538   4.868   6.080  0.7750 -0.5693  0.2942
   59SAPC   C36 4525   2.673   4.985   5.960 -0.6772  0.1279  0.3695
   59SAPC   H6X 4526   2.759   4.914   5.962  0.9271  1.9750  1.6114
   59SAPC   H6Y 4527   2.734   5.078   5.965 -3.5565  2.2306 -0.7370
   59SAPC   C37 4528   2.605   4.986   5.826  0.6922 -0.0025  0.6998
   59SAPC   H7X 4529   2.534   5.070   5.841 -0.4920 -0.7556 -0.4142
   59SAPC   H7Y 4530   2.555   4.887   5.826 -0.7809  0.6966 -0.6574
   59SAPC   C38 4531   2.682   5.019   5.704 -0.0544  0.6586 -0.1980
   59SAPC   H8X 4532   2.733   5.118   5.711  1.3003 -0.1073  1.6787
   59SAPC   H8Y 4533   2.614   5.031   5.617 -2.6032 -0.8190  1.4517
   59SAPC   C39 4534   2.786   4.910   5.677  0.1829 -0.4723 -0.0541
   59SAPC   H9X 4535   2.727   4.816   5.683 -1.2163  0.3701 -0.1447
   59SAPC   H9Y 4536   2.871   4.916   5.748  1.0386  1.0853 -1.1305
   59SAPC  C310 4537   2.849   4.918   5.536 -0.6662 -0.5082  0.5281
   59SAPC  H10X 4538   2.945   4.864   5.522 -0.1934  0.7564 -1.6265
   59SAPC  H10Y 4539   2.876   5.026   5.532 -0.3874 -0.4944  2.1375
   59SAPC  C311 4540   2.760   4.854   5.427  0.0204 -0.1202 -0.2220
   59SAPC  H11X 4541   2.654   4.885   5.442 -0.0618 -0.4343 -0.1429
   59SAPC  H11Y 4542   2.773   4.746   5.449  1.2837  0.2422  0.9628
   59SAPC  C312 4543   2.818   4.887   5.285  0.3478  1.2200  0.2600
   59SAPC  H12X 4544   2.913   4.834   5.263 -1.2118 -0.6282 -2.7156
   59SAPC  H12Y 4545   2.840   4.994   5.269 -1.1617  1.3366 -1.2760
   59SAPC  C313 4546   2.723   4.848   5.173  0.7189 -0.0521 -0.3150
   59SAPC  H13X 4547   2.770   4.869   5.075 -0.7210  1.2564 -0.7841
   59SAPC  H13Y 4548   2.636   4.918   5.175  1.2755  0.6486  1.2960
   59SAPC  C314 4549   2.669   4.704   5.177 -0.2581  0.9663  0.0295
   59SAPC  H14X 4550   2.602   4.693   5.265 -0.0012  2.2453  0.4053
   59SAPC  H14Y 4551   2.754   4.633   5.185  0.3955  1.7975  0.8602
   59SAPC  C315 4552   2.612   4.655   5.042  0.4692 -0.5316  0.3664
   59SAPC  H15X 4553   2.525   4.715   5.009  2.5299  1.1932 -2.3333
   59SAPC  H15Y 4554   2.577   4.550   5.047 -1.4817  0.1034  1.2833
   59SAPC  C316 4555   2.713   4.648   4.930  0.0114  0.2692  0.8139
   59SAPC  H16X 4556   2.794   4.721   4.948 -0.0545  0.2133  1.3693
   59SAPC  H16Y 4557   2.668   4.677   4.833 -0.9261  0.8014  1.3880
   59SAPC  C317 4558   2.771   4.510   4.906 -0.2538  0.3187 -0.8912
   59SAPC  H17X 4559   2.700   4.425   4.902 -0.7228  0.3215  3.0794
   59SAPC  H17Y 4560   2.830   4.479   4.995 -1.4054 -1.3907 -0.6700
   59SAPC  C318 4561   2.852   4.502   4.778  0.0121 -0.1415  0.5359
   59SAPC  H18X 4562   2.872   4.394   4.762 -0.1847 -0.0885 -0.1053
   59SAPC  H18Y 4563   2.948   4.557   4.788  0.1828 -0.6527  1.9529
   59SAPC  H18Z 4564   2.797   4.548   4.693 -0.2026 -0.1020  0.6956
   60SAPC     N 4565   1.965   6.365   7.393 -0.3397 -0.1422 -0.4058
   60SAPC   C12 4566   2.063   6.354   7.275 -0.0529  0.5883  0.2965
   60SAPC  H12A 4567   2.157   6.398   7.305  1.9306 -2.0787 -1.5845
   60SAPC  H12B 4568   2.026   6.414   7.193  1.3479 -1.5765 -2.0558
   60SAPC   C13 4569   2.017   6.276   7.507 -0.5899  0.2779 -0.0543
   60SAPC  H13A 4570   2.101   6.325   7.553 -1.1495  0.8084  0.4272
   60SAPC  H13B 4571   1.942   6.260   7.583 -0.3061  0.9268  0.3680
   60SAPC  H13C 4572   2.048   6.183   7.463  0.9623  0.7867 -0.0953
   60SAPC   C14 4573   1.959   6.510   7.440 -0.5147  0.1141  0.6145
   60SAPC  H14A 4574   1.900   6.512   7.531 -1.6031  0.1268 -0.0664
   60SAPC  H14B 4575   2.056   6.546   7.471 -0.7380  1.6467 -0.3504
   60SAPC  H14C 4576   1.927   6.590   7.374  0.7385  1.4394  1.5396
   60SAPC   C15 4577   1.830   6.319   7.355 -0.4153  0.1822 -0.2222
   60SAPC  H15A 4578   1.832   6.232   7.292 -1.1946  1.7071 -2.4697
   60SAPC  H15B 4579   1.770   6.312   7.444  1.5145 -0.0728  1.1367
   60SAPC  H15C 4580   1.786   6.391   7.287 -0.9492 -1.1442 -1.3267
   60SAPC   C11 4581   2.094   6.213   7.220 -0.2027  0.2157 -0.0161
   60SAPC  H11A 4582   2.168   6.234   7.139 -0.3750  1.1765  0.0570
   60SAPC  H11B 4583   2.008   6.168   7.167 -0.1875  1.0616 -0.7833
   60SAPC     P 4584   2.204   5.979   7.287 -0.0269 -0.2432  0.4703
   60SAPC   O13 4585   2.334   5.953   7.355  0.3327  0.3730 -0.0695
   60SAPC   O14 4586   2.088   5.895   7.320 -0.1333 -0.0380 -0.3009
   60SAPC   O12 4587   2.160   6.128   7.322 -0.1758 -0.1731  0.1183
   60SAPC   O11 4588   2.224   5.982   7.133  0.1714 -0.6732  0.2345
   60SAPC    C1 4589   2.357   6.006   7.079  0.2245 -0.3330  0.0285
   60SAPC    HA 4590   2.373   6.114   7.101  0.0767 -0.0812 -1.0370
   60SAPC    HB 4591   2.442   5.946   7.118  0.0711 -0.1008  0.7378
   60SAPC    C2 4592   2.351   6.001   6.923  0.6363 -0.9025 -0.6917
   60SAPC    HS 4593   2.421   6.070   6.871  0.3558  0.6728  0.8916
   60SAPC   O21 4594   2.214   6.034   6.878 -0.2021 -0.8765  0.0519
   60SAPC   C21 4595   2.188   6.169   6.885  0.3148  0.2842 -0.2442
   60SAPC   O22 4596   2.270   6.252   6.913 -0.6757 -0.5531 -0.7083
   60SAPC   C22 4597   2.050   6.201   6.834 -0.3808  0.1563  0.6834
   60SAPC   H2R 4598   1.978   6.212   6.918 -2.0977  1.0905 -0.8337
   60SAPC   H2S 4599   2.067   6.305   6.798 -0.4932  0.4445  1.4453
   60SAPC    C3 4600   2.379   5.858   6.874 -0.1119  0.6144 -0.3550
   60SAPC    HX 4601   2.297   5.798   6.920 -0.2928  1.2604  0.1868
   60SAPC    HY 4602   2.481   5.838   6.912  0.6324  0.8991 -2.0995
   60SAPC   O31 4603   2.385   5.863   6.727 -0.1595 -0.0960  0.2121
   60SAPC   C31 4604   2.276   5.827   6.665 -0.3929  1.1290 -0.0325
   60SAPC   O32 4605   2.176   5.782   6.708  0.2324 -0.8095 -0.0267
   60SAPC   C32 4606   2.304   5.859   6.518  0.2997 -0.2129 -0.2951
   60SAPC   H2X 4607   2.398   5.803   6.499  0.3913  0.3810 -1.7106
   60SAPC   H2Y 4608   2.325   5.968   6.512  0.5004 -0.3291 -2.3546
   60SAPC   C23 4609   1.996   6.116   6.718 -0.6025  0.2327 -0.5255
   60SAPC   H3R 4610   1.977   6.013   6.757 -0.5336 -0.2403 -1.7065
   60SAPC   H3S 4611   2.069   6.100   6.636 -1.9704  0.2552 -1.7854
   60SAPC   C24 4612   1.863   6.170   6.651 -0.7325  0.5339  0.0333
   60SAPC   H4R 4613   1.781   6.180   6.726 -0.5796 -0.2640  0.3158
   60SAPC   H4S 4614   1.816   6.096   6.583 -1.0183 -0.2930  1.1000
   60SAPC   C25 4615   1.882   6.298   6.578 -0.2798 -0.8988  0.3007
   60SAPC   H5R 4616   1.867   6.389   6.638 -2.0299 -0.2773 -1.0228
   60SAPC   C26 4617   1.913   6.319   6.451  0.4284 -0.9273 -0.4268
   60SAPC   H6R 4618   1.915   6.422   6.412 -0.3806 -1.2536 -1.3851
   60SAPC   C27 4619   1.929   6.214   6.345  0.4312  0.0478 -0.0865
   60SAPC   H7R 4620   1.847   6.226   6.271 -0.6323  3.3146  1.4660
   60SAPC   H7S 4621   1.906   6.112   6.384 -2.2975 -0.0278 -1.6827
   60SAPC   C28 4622   2.070   6.220   6.279  0.5682 -0.1138  0.0874
   60SAPC   H8R 4623   2.154   6.172   6.331  2.0531  1.4803 -0.7069
   60SAPC   C29 4624   2.090   6.273   6.157  0.3789 -0.1312 -0.0522
   60SAPC   H9R 4625   2.191   6.272   6.114  0.1594 -1.1220 -0.5648
   60SAPC  C210 4626   1.983   6.336   6.073  0.6443 -0.4958 -0.0874
   60SAPC  H10R 4627   1.908   6.393   6.132  2.4313  0.6711  1.1519
   60SAPC  H10S 4628   1.927   6.259   6.015  1.3824  0.2229 -1.8539
   60SAPC  C211 4629   2.038   6.431   5.966 -0.3937 -0.5267  0.4991
   60SAPC  H11R 4630   2.005   6.534   5.984 -1.2469 -0.7482  0.2407
   60SAPC  C212 4631   2.114   6.403   5.858  0.2323 -0.4448  0.1361
   60SAPC  H12R 4632   2.125   6.488   5.788 -1.0764  0.4613  0.9884
   60SAPC  C213 4633   2.145   6.264   5.809 -0.6886  0.1059 -0.0156
   60SAPC  H13R 4634   2.118   6.254   5.702  1.8841  2.7331 -1.0152
   60SAPC  H13S 4635   2.093   6.184   5.867  3.1092 -1.0432  2.2057
   60SAPC  C214 4636   2.295   6.244   5.822 -0.3232  0.4591  0.4506
   60SAPC  H14R 4637   2.334   6.194   5.911  1.3145  0.5075 -0.2007
   60SAPC  C215 4638   2.389   6.263   5.735  0.4123 -0.4196 -0.4269
   60SAPC  H15R 4639   2.488   6.232   5.771 -0.5621 -0.7780  2.1478
   60SAPC  C216 4640   2.382   6.326   5.596  0.2873  0.2923 -0.0751
   60SAPC  H16R 4641   2.435   6.423   5.580  1.8668 -0.7297 -1.4092
   60SAPC  H16S 4642   2.272   6.328   5.586  0.1287  1.9773  1.5013
   60SAPC  C217 4643   2.420   6.230   5.484 -0.1566 -0.4119  0.5906
   60SAPC  H17R 4644   2.374   6.129   5.492 -2.4893  0.0533 -3.7629
   60SAPC  H17S 4645   2.528   6.203   5.486  0.2171  0.6316 -1.7231
   60SAPC  C218 4646   2.391   6.282   5.344  0.2413  0.6341 -0.0974
   60SAPC  H18R 4647   2.423   6.388   5.337 -1.4956  1.0755 -2.4052
   60SAPC  H18S 4648   2.280   6.286   5.334  0.3382  0.9907 -1.1947
   60SAPC  C219 4649   2.461   6.197   5.240 -0.0655 -0.4678 -0.0364
   60SAPC  H19R 4650   2.436   6.091   5.261  0.4996 -0.1020  2.7768
   60SAPC  H19S 4651   2.570   6.205   5.259 -0.3385  1.9368  0.9231
   60SAPC  C220 4652   2.429   6.239   5.100 -1.0686  0.0029  0.4016
   60SAPC  H20R 4653   2.351   6.185   5.043 -0.5402 -0.8817  0.5016
   60SAPC  H20S 4654   2.521   6.235   5.037 -1.8947  1.3531 -0.9811
   60SAPC  H20T 4655   2.407   6.348   5.095  0.2502  0.4029  2.3006
   60SAPC   C33 4656   2.187   5.822   6.430 -0.7101  0.0662  0.0936
   60SAPC   H3X 4657   2.091   5.874   6.452 -2.0552 -2.0493 -0.3564
   60SAPC   H3Y 4658   2.170   5.712   6.433  0.8316 -0.1758  0.4991
   60SAPC   C34 4659   2.227   5.849   6.289 -0.5373  0.0656 -0.5032
   60SAPC   H4X 4660   2.294   5.769   6.252 -1.4622 -0.5463 -0.8806
   60SAPC   H4Y 4661   2.293   5.938   6.299  0.3766 -0.4707 -1.6322
   60SAPC   C35 4662   2.110   5.872   6.188  0.5146  0.0587  1.0369
   60SAPC   H5X 4663   2.157   5.935   6.110  0.6705  0.6053  1.5689
   60SAPC   H5Y 4664   2.039   5.943   6.235  0.6435  0.3066  0.8562
   60SAPC   C36 4665   2.043   5.734   6.151 -0.3104  0.5639 -0.0487
   60SAPC   H6X 4666   1.959   5.716   6.221  0.7707  1.8054  1.6731
   60SAPC   H6Y 4667   2.117   5.657   6.180 -0.4097 -0.2854 -1.9395
   60SAPC   C37 4668   2.008   5.715   6.002  0.0801 -0.1801  0.2540
   60SAPC   H7X 4669   1.953   5.805   5.968 -0.5288 -0.3496  0.7739
   60SAPC   H7Y 4670   1.947   5.622   6.001  0.8154 -0.6847 -1.3408
   60SAPC   C38 4671   2.132   5.690   5.916  0.9722  0.2840  0.4079
   60SAPC   H8X 4672   2.182   5.598   5.954  1.9575  0.1902 -1.0348
   60SAPC   H8Y 4673   2.205   5.773   5.925  0.5517  0.9204 -1.5684
   60SAPC   C39 4674   2.096   5.675   5.763 -0.6409 -0.9813  0.2428
   60SAPC   H9X 4675   2.192   5.681   5.708 -0.3674 -1.3666  0.6667
   60SAPC   H9Y 4676   2.027   5.756   5.731 -1.2775 -0.6988  2.1806
   60SAPC  C310 4677   2.020   5.546   5.718 -0.4722 -0.1487 -0.3446
   60SAPC  H10X 4678   1.927   5.540   5.780  0.6253  0.5377  1.4403
   60SAPC  H10Y 4679   2.076   5.453   5.741 -0.4874 -0.4422 -1.4234
   60SAPC  C311 4680   1.991   5.539   5.571 -0.5339  0.5486  0.4345
   60SAPC  H11X 4681   2.086   5.554   5.514 -0.5010  0.0176  0.3479
   60SAPC  H11Y 4682   1.938   5.632   5.541  1.9753  1.8678 -0.2055
   60SAPC  C312 4683   1.915   5.414   5.528 -0.0856 -1.4522  0.2062
   60SAPC  H12X 4684   1.821   5.411   5.588 -1.8654  0.8347 -2.1945
   60SAPC  H12Y 4685   1.979   5.326   5.552  3.1244  0.4181 -0.9046
   60SAPC  C313 4686   1.892   5.415   5.377 -0.3233 -0.3157  0.3218
   60SAPC  H13X 4687   1.990   5.419   5.325 -0.6348 -3.0458 -0.6179
   60SAPC  H13Y 4688   1.828   5.501   5.347  0.9270  0.2399 -0.8240
   60SAPC  C314 4689   1.845   5.277   5.328  0.4044  0.1137  0.5508
   60SAPC  H14X 4690   1.738   5.272   5.359 -0.0324 -2.9918 -1.0580
   60SAPC  H14Y 4691   1.900   5.205   5.391  0.9527  0.3956  0.4022
   60SAPC  C315 4692   1.855   5.252   5.181  0.3109 -0.3766  0.7757
   60SAPC  H15X 4693   1.963   5.252   5.155  0.4844  1.3631  1.3948
   60SAPC  H15Y 4694   1.807   5.334   5.125  0.1310 -1.0806 -0.1213
   60SAPC  C316 4695   1.781   5.124   5.139 -0.1182  0.5323  0.5372
   60SAPC  H16X 4696   1.776   5.061   5.231  1.1879  1.3054  1.1855
   60SAPC  H16Y 4697   1.834   5.067   5.061 -2.6450 -1.8311  0.4208
   60SAPC  C317 4698   1.644   5.140   5.091 -0.3600  0.2494 -0.6883
   60SAPC  H17X 4699   1.655   5.197   4.996 -1.1708 -1.3577 -1.7959
   60SAPC  H17Y 4700   1.602   5.217   5.159  1.2262  2.1099 -1.7249
   60SAPC  C318 4701   1.560   5.016   5.069 -0.2300 -0.1926  0.0739
   60SAPC  H18X 4702   1.600   4.927   5.016 -1.0960 -1.4157  1.3892
   60SAPC  H18Y 4703   1.472   5.042   5.007  1.2295 -1.1383 -2.5324
   60SAPC  H18Z 4704   1.525   4.977   5.167  1.1055 -0.8230  0.3273
   61SAPC     N 4705   6.478   5.167   7.325  0.2398 -0.0905 -0.1545
   61SAPC   C12 4706   6.483   5.062   7.219  0.1289 -0.0586  0.2270
   61SAPC  H12A 4707   6.542   5.098   7.136 -1.4476  1.7651 -0.1774
   61SAPC  H12B 4708   6.386   5.048   7.173  0.1325 -1.0824  0.4994
   61SAPC   C13 4709   6.381   5.114   7.433 -0.1464 -0.1285  0.0029
   61SAPC  H13A 4710   6.437   5.037   7.483  1.1625 -0.0465 -1.2758
   61SAPC  H13B 4711   6.341   5.183   7.506 -0.9815 -1.0143  0.4057
   61SAPC  H13C 4712   6.299   5.054   7.396  1.1548 -2.2225  0.3810
   61SAPC   C14 4713   6.617   5.199   7.380 -0.1585 -0.3572 -0.1514
   61SAPC  H14A 4714   6.690   5.235   7.310 -0.0027  1.5831  0.9377
   61SAPC  H14B 4715   6.607   5.266   7.463 -3.0104 -0.2987 -0.4359
   61SAPC  H14C 4716   6.662   5.110   7.421 -0.7902 -1.3772 -1.5759
   61SAPC   C15 4717   6.403   5.282   7.268  0.3234  0.1719 -0.5948
   61SAPC  H15A 4718   6.300   5.258   7.244 -0.0666  0.9679  0.2427
   61SAPC  H15B 4719   6.406   5.371   7.329  0.6427 -0.5784  0.5234
   61SAPC  H15C 4720   6.454   5.315   7.179  2.2769  0.5457  0.6284
   61SAPC   C11 4721   6.529   4.919   7.253 -0.6068 -0.0260 -0.1285
   61SAPC  H11A 4722   6.527   4.857   7.161  5.0409 -1.8215  0.5287
   61SAPC  H11B 4723   6.454   4.881   7.326 -1.3867  0.2182 -0.8010
   61SAPC     P 4724   6.763   4.801   7.261  0.3413 -0.5303  0.0892
   61SAPC   O13 4725   6.872   4.787   7.357 -0.6316 -0.1328 -0.5915
   61SAPC   O14 4726   6.698   4.675   7.210 -0.2337  0.0352 -0.2409
   61SAPC   O12 4727   6.655   4.903   7.320  0.0929 -0.0908 -0.3159
   61SAPC   O11 4728   6.816   4.877   7.134  0.5400  0.2036 -0.2040
   61SAPC    C1 4729   6.826   5.020   7.131 -0.1464 -0.7889  0.7754
   61SAPC    HA 4730   6.722   5.059   7.138 -0.3813 -1.3162  0.3432
   61SAPC    HB 4731   6.885   5.058   7.216  1.3020 -0.9722 -0.1165
   61SAPC    C2 4732   6.884   5.089   7.003  0.0667  0.2774  0.3914
   61SAPC    HS 4733   6.854   5.194   7.019 -3.4755 -0.6643  0.7641
   61SAPC   O21 4734   6.826   5.037   6.884 -0.0355 -0.0766  0.4164
   61SAPC   C21 4735   6.690   5.060   6.866  0.2291  0.3149  0.3814
   61SAPC   O22 4736   6.625   5.135   6.935  0.1444 -0.2470  0.2987
   61SAPC   C22 4737   6.642   4.972   6.745  0.4173 -0.1262 -0.0860
   61SAPC   H2R 4738   6.711   5.000   6.663  0.5912  2.6666  0.8720
   61SAPC   H2S 4739   6.657   4.866   6.773 -0.4796 -0.3716 -0.5038
   61SAPC    C3 4740   7.037   5.065   6.992  0.3749  0.1109  0.2881
   61SAPC    HX 4741   7.055   4.956   6.998  1.1976  0.2249  0.0220
   61SAPC    HY 4742   7.090   5.104   7.081  1.1214  0.4636 -0.2961
   61SAPC   O31 4743   7.085   5.120   6.866  0.2728 -0.0702  0.1120
   61SAPC   C31 4744   7.215   5.096   6.830  0.1688 -0.1392 -0.2118
   61SAPC   O32 4745   7.292   5.019   6.889  0.8380 -0.9498 -0.1036
   61SAPC   C32 4746   7.253   5.161   6.697  0.6658 -0.2099 -0.4201
   61SAPC   H2X 4747   7.254   5.272   6.708  0.0584 -0.2527  0.1622
   61SAPC   H2Y 4748   7.170   5.137   6.628 -1.7765  1.5677  1.6989
   61SAPC   C23 4749   6.493   4.997   6.708  0.6504  0.0346  0.0362
   61SAPC   H3R 4750   6.479   5.100   6.668 -1.2315 -0.8481 -1.7825
   61SAPC   H3S 4751   6.430   4.995   6.799 -2.2847  0.9397 -1.8281
   61SAPC   C24 4752   6.436   4.895   6.610 -0.1184  0.2168 -0.2948
   61SAPC   H4R 4753   6.327   4.913   6.607 -0.2876 -0.7677 -0.5233
   61SAPC   H4S 4754   6.446   4.789   6.644  0.5865  0.6738  1.0221
   61SAPC   C25 4755   6.493   4.916   6.473 -0.3553 -0.0038  0.7186
   61SAPC   H5R 4756   6.475   5.019   6.438 -2.3556 -0.5919 -0.1025
   61SAPC   C26 4757   6.551   4.828   6.392 -0.2733 -0.3975 -0.4146
   61SAPC   H6R 4758   6.570   4.860   6.288  0.4697  0.9684  0.1165
   61SAPC   C27 4759   6.588   4.689   6.427  0.0594  0.6620  0.1182
   61SAPC   H7R 4760   6.512   4.610   6.411  1.1011 -0.7906  1.8949
   61SAPC   H7S 4761   6.607   4.689   6.536  0.0776  0.2409  0.1169
   61SAPC   C28 4762   6.722   4.641   6.368 -0.3796 -0.4292 -0.2102
   61SAPC   H8R 4763   6.809   4.645   6.435 -0.9277  3.3389  0.4490
   61SAPC   C29 4764   6.741   4.598   6.243  0.4043  0.7658  0.2013
   61SAPC   H9R 4765   6.843   4.566   6.218  0.1606 -0.0816  0.2672
   61SAPC  C210 4766   6.637   4.594   6.133  0.7594  0.9060  0.1056
   61SAPC  H10R 4767   6.538   4.612   6.181 -0.5210 -4.2607 -0.0570
   61SAPC  H10S 4768   6.633   4.486   6.110 -1.4776  0.8088  0.7263
   61SAPC  C211 4769   6.659   4.701   6.031  0.0602 -0.2695  0.4348
   61SAPC  H11R 4770   6.627   4.799   6.069  1.1876  0.0883  0.5134
   61SAPC  C212 4771   6.703   4.671   5.907 -0.0314 -0.5545  0.0274
   61SAPC  H12R 4772   6.722   4.755   5.838  0.9641  0.4591  1.4571
   61SAPC  C213 4773   6.752   4.539   5.848 -0.1488  0.2298  0.7075
   61SAPC  H13R 4774   6.846   4.510   5.899  1.3133  1.0192 -1.4103
   61SAPC  H13S 4775   6.775   4.534   5.739 -2.1832  2.0757  0.1154
   61SAPC  C214 4776   6.668   4.413   5.864 -0.4585 -0.0782 -0.0114
   61SAPC  H14R 4777   6.715   4.332   5.923  0.4725  0.8718  0.5866
   61SAPC  C215 4778   6.537   4.398   5.836 -0.6088 -0.1514 -0.2413
   61SAPC  H15R 4779   6.492   4.307   5.878 -2.4337  1.1393  0.7234
   61SAPC  C216 4780   6.447   4.482   5.751 -0.0527 -0.1980 -0.8288
   61SAPC  H16R 4781   6.437   4.427   5.655 -2.1151 -1.9691  0.3198
   61SAPC  H16S 4782   6.498   4.575   5.717 -1.1129  0.5543 -0.4175
   61SAPC  C217 4783   6.305   4.515   5.815 -0.1393  0.2662 -0.0703
   61SAPC  H17R 4784   6.249   4.420   5.831 -0.8504  0.7169  0.1675
   61SAPC  H17S 4785   6.251   4.575   5.739  2.3334 -0.1473 -2.3002
   61SAPC  C218 4786   6.314   4.589   5.943  0.3441  0.1064  0.0669
   61SAPC  H18R 4787   6.356   4.688   5.914  0.8225  0.5729  2.1886
   61SAPC  H18S 4788   6.375   4.558   6.031 -0.1747  0.0084  0.3972
   61SAPC  C219 4789   6.176   4.632   6.003  0.4022  0.4065 -0.1650
   61SAPC  H19R 4790   6.124   4.534   6.002  2.3921 -0.7463  1.0306
   61SAPC  H19S 4791   6.125   4.709   5.942 -2.7231  1.3715  3.3179
   61SAPC  C220 4792   6.202   4.673   6.148 -0.1589  0.3756 -0.3242
   61SAPC  H20R 4793   6.264   4.765   6.153  0.2727  0.0969 -0.4600
   61SAPC  H20S 4794   6.249   4.597   6.214 -1.8376  0.2878  0.8187
   61SAPC  H20T 4795   6.098   4.690   6.184 -0.3799  1.8988 -1.5581
   61SAPC   C33 4796   7.400   5.125   6.647  0.1385  0.4717 -0.1884
   61SAPC   H3X 4797   7.407   5.015   6.633  0.7081  0.5046 -0.1755
   61SAPC   H3Y 4798   7.467   5.159   6.728  1.5139  1.5217 -1.6972
   61SAPC   C34 4799   7.434   5.190   6.513  0.0452 -0.0945  0.6288
   61SAPC   H4X 4800   7.538   5.168   6.482 -0.7058  0.0442 -2.2831
   61SAPC   H4Y 4801   7.435   5.301   6.524  0.4966  0.0635 -0.8024
   61SAPC   C35 4802   7.338   5.155   6.395 -0.3307  0.1398  0.2911
   61SAPC   H5X 4803   7.239   5.204   6.412 -1.4006 -1.8269  0.0844
   61SAPC   H5Y 4804   7.309   5.048   6.400 -0.3363  0.1946  1.9388
   61SAPC   C36 4805   7.394   5.191   6.253  0.3851  0.6708  0.4396
   61SAPC   H6X 4806   7.494   5.154   6.224  0.1777 -0.7152  1.3484
   61SAPC   H6Y 4807   7.395   5.300   6.236  0.3668  0.8830  1.6805
   61SAPC   C37 4808   7.297   5.141   6.138 -0.7889  0.1450 -0.4947
   61SAPC   H7X 4809   7.193   5.167   6.165  0.1396  2.8828  0.7241
   61SAPC   H7Y 4810   7.315   5.031   6.129  1.5048  0.1551  2.4813
   61SAPC   C38 4811   7.321   5.219   6.013  0.4082 -0.1447 -0.2700
   61SAPC   H8X 4812   7.429   5.231   5.990  0.8194 -0.4886  1.3719
   61SAPC   H8Y 4813   7.268   5.316   6.022 -2.1619 -1.3674 -1.1644
   61SAPC   C39 4814   7.258   5.159   5.879 -0.2891 -0.3503 -0.0712
   61SAPC   H9X 4815   7.147   5.160   5.886 -0.2541  0.8211  0.8028
   61SAPC   H9Y 4816   7.290   5.054   5.891 -1.1530 -0.5069  1.0268
   61SAPC  C310 4817   7.306   5.218   5.748 -0.3366 -0.0477 -0.7656
   61SAPC  H10X 4818   7.416   5.230   5.751 -0.3697  0.3582 -1.0490
   61SAPC  H10Y 4819   7.260   5.320   5.740 -1.9031 -0.8060 -2.4065
   61SAPC  C311 4820   7.276   5.120   5.631  0.3404 -0.0992  0.8500
   61SAPC  H11X 4821   7.171   5.088   5.649 -0.1001  0.4212 -0.6450
   61SAPC  H11Y 4822   7.323   5.024   5.661  0.8623 -0.1444 -0.0691
   61SAPC  C312 4823   7.313   5.164   5.492 -0.8827 -0.4280  0.0177
   61SAPC  H12X 4824   7.409   5.219   5.507 -1.1128 -0.3980  1.5147
   61SAPC  H12Y 4825   7.242   5.237   5.447 -1.4127 -1.6870 -1.2721
   61SAPC  C313 4826   7.326   5.056   5.381  0.0646 -0.2308  0.1298
   61SAPC  H13X 4827   7.233   5.008   5.345  0.8915 -0.6261 -1.5836
   61SAPC  H13Y 4828   7.384   4.972   5.425  0.4665 -0.0587 -0.0576
   61SAPC  C314 4829   7.409   5.103   5.259  0.4231 -0.0674  0.3260
   61SAPC  H14X 4830   7.440   5.011   5.205  2.0030 -0.2499  1.4915
   61SAPC  H14Y 4831   7.495   5.162   5.298  1.0460 -1.4634  1.1510
   61SAPC  C315 4832   7.324   5.194   5.164 -0.0257 -0.3364 -0.2345
   61SAPC  H15X 4833   7.265   5.264   5.226 -1.5852 -0.6723 -1.2720
   61SAPC  H15Y 4834   7.246   5.135   5.111  0.2882  1.6765 -3.1854
   61SAPC  C316 4835   7.408   5.262   5.054 -0.0094 -0.3967  0.4130
   61SAPC  H16X 4836   7.457   5.187   4.988 -0.5020  0.5776 -1.1332
   61SAPC  H16Y 4837   7.481   5.323   5.111 -1.2938  0.6151  1.0297
   61SAPC  C317 4838   7.322   5.351   4.965 -0.5844  0.2004  0.7810
   61SAPC  H17X 4839   7.250   5.294   4.903  0.0278 -0.3955  0.6031
   61SAPC  H17Y 4840   7.383   5.407   4.892 -0.5756  1.1290  1.4803
   61SAPC  C318 4841   7.258   5.464   5.046  0.6018  0.3362 -0.7116
   61SAPC  H18X 4842   7.185   5.422   5.119  0.1114  1.0785 -0.7494
   61SAPC  H18Y 4843   7.187   5.531   4.992 -2.2869 -0.1922  2.1292
   61SAPC  H18Z 4844   7.332   5.515   5.112  2.2925 -2.5128 -0.2449
   62SAPC     N 4845   3.906   3.368   7.229  0.6969  0.8324  0.2742
   62SAPC   C12 4846   3.774   3.435   7.181  0.6658 -0.2514 -0.4233
   62SAPC  H12A 4847   3.760   3.528   7.233  0.6458 -1.2584  1.4318
   62SAPC  H12B 4848   3.691   3.375   7.214  0.8244  0.6861  1.8550
   62SAPC   C13 4849   3.919   3.229   7.174 -0.0983  0.6256  0.1224
   62SAPC  H13A 4850   3.908   3.233   7.067 -0.3424  0.0729  0.1229
   62SAPC  H13B 4851   4.017   3.190   7.196 -0.6154  0.5554  2.7176
   62SAPC  H13C 4852   3.837   3.166   7.206 -2.0310  3.2305  0.6477
   62SAPC   C14 4853   4.022   3.446   7.178  0.2277  0.5230  0.8217
   62SAPC  H14A 4854   4.035   3.457   7.071  0.7501 -1.1429  0.6798
   62SAPC  H14B 4855   3.998   3.538   7.229 -1.0359 -0.0015  1.2110
   62SAPC  H14C 4856   4.116   3.400   7.208 -0.9692 -1.8573  1.1836
   62SAPC   C15 4857   3.917   3.368   7.379  0.3462 -0.2003  0.7261
   62SAPC  H15A 4858   3.836   3.317   7.428 -1.2348  1.7136  0.2511
   62SAPC  H15B 4859   4.014   3.326   7.398  0.0948 -0.8760  0.5669
   62SAPC  H15C 4860   3.937   3.466   7.420  3.1446 -0.1348 -0.5963
   62SAPC   C11 4861   3.770   3.450   7.025  0.6317 -0.2245 -0.2310
   62SAPC  H11A 4862   3.814   3.364   6.971  1.2221 -0.8146  1.1433
   62SAPC  H11B 4863   3.837   3.532   6.991  1.3954 -1.2911 -1.3757
   62SAPC     P 4864   3.544   3.364   6.946  0.1129 -0.0493  0.0055
   62SAPC   O13 4865   3.519   3.292   7.074  0.3917  0.5089  0.6776
   62SAPC   O14 4866   3.429   3.414   6.871 -0.2654 -0.1206 -0.3511
   62SAPC   O12 4867   3.634   3.484   6.987  0.2551 -0.3837  0.1465
   62SAPC   O11 4868   3.637   3.268   6.852 -0.1488 -0.1640 -0.2558
   62SAPC    C1 4869   3.671   3.315   6.717  0.3125 -0.4498  0.2180
   62SAPC    HA 4870   3.704   3.421   6.711  1.7688 -0.8972 -0.1848
   62SAPC    HB 4871   3.760   3.257   6.682 -0.3099 -1.9656  1.0318
   62SAPC    C2 4872   3.564   3.280   6.616  0.5262 -0.2979  0.5095
   62SAPC    HS 4873   3.461   3.292   6.658  0.4152 -0.5495  0.3142
   62SAPC   O21 4874   3.589   3.144   6.566  0.2075 -0.2168  0.2126
   62SAPC   C21 4875   3.548   3.053   6.656 -0.1552  0.2375  0.9243
   62SAPC   O22 4876   3.471   3.066   6.745  0.5940 -0.5827 -0.3298
   62SAPC   C22 4877   3.636   2.926   6.629  0.6696  0.4176 -0.3793
   62SAPC   H2R 4878   3.737   2.969   6.618  0.9826 -0.2202 -0.0336
   62SAPC   H2S 4879   3.629   2.873   6.726  2.1835 -0.5245 -0.7501
   62SAPC    C3 4880   3.555   3.380   6.498  0.1031  0.0749  0.1298
   62SAPC    HX 4881   3.649   3.374   6.440 -0.2577 -1.0323 -0.3735
   62SAPC    HY 4882   3.549   3.485   6.536 -0.0871  0.0027  0.3012
   62SAPC   O31 4883   3.433   3.350   6.417 -0.5910 -0.5411 -0.1941
   62SAPC   C31 4884   3.322   3.410   6.456 -0.6912 -0.0857 -0.0344
   62SAPC   O32 4885   3.316   3.497   6.539 -0.6601 -0.4365  0.2782
   62SAPC   C32 4886   3.208   3.362   6.360 -0.1048 -0.0441 -0.3654
   62SAPC   H2X 4887   3.109   3.390   6.401  0.1553 -1.5887  1.4700
   62SAPC   H2Y 4888   3.204   3.252   6.349 -1.2654 -0.2995  2.0161
   62SAPC   C23 4889   3.579   2.837   6.515  0.3550 -0.2505  0.4668
   62SAPC   H3R 4890   3.546   2.906   6.435 -0.1481  0.4482  1.2596
   62SAPC   H3S 4891   3.485   2.784   6.544 -0.1741 -1.6808 -3.2675
   62SAPC   C24 4892   3.689   2.734   6.476  0.0337 -0.1366  0.4474
   62SAPC   H4R 4893   3.695   2.661   6.560  1.2082 -1.6167 -0.8447
   62SAPC   H4S 4894   3.783   2.793   6.476 -1.3536  2.3801 -2.8067
   62SAPC   C25 4895   3.661   2.647   6.353 -0.1110  0.2242 -0.4119
   62SAPC   H5R 4896   3.597   2.559   6.371 -1.5293  0.5947 -3.1050
   62SAPC   C26 4897   3.688   2.684   6.226 -0.0017  0.2772 -0.3581
   62SAPC   H6R 4898   3.659   2.621   6.142 -1.6737 -1.1380  1.1960
   62SAPC   C27 4899   3.732   2.820   6.183  0.0694 -0.0170 -0.6075
   62SAPC   H7R 4900   3.678   2.895   6.244 -2.3502 -0.9339 -1.4904
   62SAPC   H7S 4901   3.698   2.849   6.082 -1.9207  0.9552  0.2854
   62SAPC   C28 4902   3.881   2.828   6.207 -0.0496 -0.0172  0.0691
   62SAPC   H8R 4903   3.914   2.862   6.306  1.1369 -0.5542 -0.1110
   62SAPC   C29 4904   3.976   2.836   6.113  0.7444 -0.5156  0.3390
   62SAPC   H9R 4905   4.084   2.836   6.131  0.9226 -1.5193 -0.6076
   62SAPC  C210 4906   3.949   2.824   5.958  0.5186 -0.1465  0.2583
   62SAPC  H10R 4907   3.854   2.771   5.935  0.2500 -0.8846  2.7493
   62SAPC  H10S 4908   4.022   2.765   5.899  0.7566  1.0277 -0.6587
   62SAPC  C211 4909   3.939   2.967   5.912 -0.5789 -0.1918 -0.1050
   62SAPC  H11R 4910   3.948   3.048   5.986  0.2925  0.0139 -0.4232
   62SAPC  C212 4911   3.900   3.009   5.786  0.5491  0.2188 -0.4289
   62SAPC  H12R 4912   3.898   3.114   5.752  0.3341  0.0856 -0.8364
   62SAPC  C213 4913   3.887   2.917   5.663  0.0929  0.0161  0.3066
   62SAPC  H13R 4914   3.924   2.816   5.692  0.1423 -0.0653 -0.0336
   62SAPC  H13S 4915   3.959   2.950   5.584 -1.8859  0.0326 -1.5781
   62SAPC  C214 4916   3.745   2.901   5.613 -0.6204 -0.4695  0.1619
   62SAPC  H14R 4917   3.664   2.911   5.686 -0.8146 -0.8863  0.0049
   62SAPC  C215 4918   3.714   2.865   5.488 -0.0814 -0.2445 -0.4789
   62SAPC  H15R 4919   3.606   2.868   5.467 -0.4391 -0.8380  1.1093
   62SAPC  C216 4920   3.812   2.834   5.376  0.2514 -0.1242  0.2746
   62SAPC  H16R 4921   3.765   2.761   5.306 -2.1222 -0.3227  1.9643
   62SAPC  H16S 4922   3.910   2.792   5.406  0.7420  0.6646 -0.1860
   62SAPC  C217 4923   3.856   2.950   5.279  0.6657  0.0621 -0.0203
   62SAPC  H17R 4924   3.862   3.050   5.326 -2.5550  0.6106 -0.5381
   62SAPC  H17S 4925   3.782   2.963   5.197  0.7920 -3.1398 -0.7883
   62SAPC  C218 4926   3.987   2.918   5.197  0.2380  0.2107  0.3336
   62SAPC  H18R 4927   4.075   2.928   5.263  1.0093  0.0335 -0.6500
   62SAPC  H18S 4928   4.004   2.996   5.119  2.9041  2.3243  2.8185
   62SAPC  C219 4929   3.987   2.777   5.142  0.1596 -0.2305 -1.0821
   62SAPC  H19R 4930   3.881   2.763   5.111 -1.2598 -1.1514  3.3371
   62SAPC  H19S 4931   3.991   2.706   5.228 -0.5984  1.3013  0.2901
   62SAPC  C220 4932   4.101   2.747   5.044 -0.2509 -0.1401 -0.2646
   62SAPC  H20R 4933   4.195   2.790   5.084 -0.8418  0.0944  0.9196
   62SAPC  H20S 4934   4.074   2.788   4.944 -0.7547 -0.5908 -0.3188
   62SAPC  H20T 4935   4.095   2.636   5.037 -1.2393 -0.3955  2.9589
   62SAPC   C33 4936   3.223   3.437   6.229 -0.1633 -0.0052 -0.0582
   62SAPC   H3X 4937   3.159   3.386   6.154 -0.6597 -0.1640  0.4617
   62SAPC   H3Y 4938   3.331   3.439   6.203 -0.1273  0.6225  0.1286
   62SAPC   C34 4939   3.175   3.583   6.223 -0.4295 -0.4297  0.0131
   62SAPC   H4X 4940   3.233   3.634   6.302  0.1944 -2.7253  1.1399
   62SAPC   H4Y 4941   3.066   3.592   6.240 -0.2463 -0.4959  1.2969
   62SAPC   C35 4942   3.213   3.650   6.090 -0.6238 -0.3005  0.1052
   62SAPC   H5X 4943   3.316   3.627   6.055 -0.8253 -1.2395  0.0973
   62SAPC   H5Y 4944   3.220   3.758   6.112 -1.8346  0.1208 -1.3844
   62SAPC   C36 4945   3.129   3.614   5.970  0.2421 -0.0816  0.3621
   62SAPC   H6X 4946   3.026   3.653   5.980 -0.4517 -2.1605  2.0812
   62SAPC   H6Y 4947   3.116   3.503   5.969 -1.2335  0.0168  2.4183
   62SAPC   C37 4948   3.182   3.665   5.829 -0.0776  0.4164  0.4061
   62SAPC   H7X 4949   3.241   3.757   5.849  1.1989 -0.0416 -1.0211
   62SAPC   H7Y 4950   3.091   3.702   5.777  0.5245 -0.8938 -1.7035
   62SAPC   C38 4951   3.250   3.568   5.734 -0.2553  0.2722 -0.9834
   62SAPC   H8X 4952   3.183   3.481   5.715  0.5567 -0.5381 -0.3016
   62SAPC   H8Y 4953   3.331   3.524   5.797 -0.8188 -1.3202 -1.3222
   62SAPC   C39 4954   3.307   3.625   5.604 -0.0805 -0.1045 -0.2176
   62SAPC   H9X 4955   3.228   3.672   5.542  0.7839  0.2547 -1.0607
   62SAPC   H9Y 4956   3.363   3.540   5.558  1.7054  0.1277  1.4070
   62SAPC  C310 4957   3.424   3.727   5.615  0.2568 -1.1537 -0.6756
   62SAPC  H10X 4958   3.503   3.675   5.673  0.9333  0.2828 -0.2646
   62SAPC  H10Y 4959   3.377   3.820   5.655 -1.8856 -1.1154 -3.0289
   62SAPC  C311 4960   3.483   3.771   5.481 -0.4170 -0.2932  0.2745
   62SAPC  H11X 4961   3.504   3.682   5.418  1.4520 -0.0988  0.5924
   62SAPC  H11Y 4962   3.577   3.827   5.498  1.4885 -3.2080 -0.0261
   62SAPC  C312 4963   3.398   3.879   5.403 -0.1327  0.1025  1.1082
   62SAPC  H12X 4964   3.403   3.978   5.455 -2.8599 -0.1722  2.0629
   62SAPC  H12Y 4965   3.293   3.844   5.402 -0.4996  1.1520 -0.0558
   62SAPC  C313 4966   3.462   3.891   5.261 -0.2459 -0.2934 -0.6780
   62SAPC  H13X 4967   3.555   3.830   5.261 -0.3566 -0.4630 -0.6841
   62SAPC  H13Y 4968   3.472   4.000   5.244 -1.4990  0.2286  1.4609
   62SAPC  C314 4969   3.384   3.836   5.144  0.7784  0.8951 -0.3890
   62SAPC  H14X 4970   3.278   3.866   5.161  1.3612  2.5829  0.3945
   62SAPC  H14Y 4971   3.383   3.725   5.152 -1.2819  0.6472 -2.7932
   62SAPC  C315 4972   3.430   3.880   5.004 -0.4282  0.3819  0.1064
   62SAPC  H15X 4973   3.396   3.985   4.990 -1.8660 -0.2773 -1.8101
   62SAPC  H15Y 4974   3.358   3.831   4.934 -2.7673  1.3421  1.7277
   62SAPC  C316 4975   3.579   3.875   4.981  0.1710  0.0257  1.4013
   62SAPC  H16X 4976   3.607   3.768   4.996  0.0675 -0.4300 -1.1679
   62SAPC  H16Y 4977   3.642   3.928   5.055 -0.4465 -0.2445  2.1341
   62SAPC  C317 4978   3.616   3.929   4.844 -0.2586  0.0342  0.0742
   62SAPC  H17X 4979   3.719   3.888   4.830  0.1540  1.7511 -2.4205
   62SAPC  H17Y 4980   3.638   4.037   4.854  0.1715 -0.1776  1.8843
   62SAPC  C318 4981   3.538   3.894   4.720  0.3885 -0.0019  0.4164
   62SAPC  H18X 4982   3.430   3.917   4.720 -0.3221 -2.8117 -1.8170
   62SAPC  H18Y 4983   3.547   3.790   4.683  2.4854  0.6085 -1.0410
   62SAPC  H18Z 4984   3.589   3.947   4.636 -0.3868 -2.0162 -1.4051
   63SAPC     N 4985   3.450   0.358   6.961  0.5512  0.2351  0.0642
   63SAPC   C12 4986   3.313   0.370   6.903  0.1879 -0.4722 -0.4198
   63SAPC  H12A 4987   3.245   0.360   6.986  2.2691  1.7828  1.7216
   63SAPC  H12B 4988   3.293   0.281   6.845  2.6060 -2.2888  1.3375
   63SAPC   C13 4989   3.547   0.395   6.860  0.2655 -0.0831 -0.4448
   63SAPC  H13A 4990   3.649   0.380   6.891 -0.0293  1.6630  1.6271
   63SAPC  H13B 4991   3.521   0.329   6.779  0.2464 -0.8740  0.1926
   63SAPC  H13C 4992   3.538   0.497   6.824  0.5672 -0.4149 -1.4933
   63SAPC   C14 4993   3.472   0.450   7.086 -0.0573  0.3473  0.0188
   63SAPC  H14A 4994   3.417   0.409   7.170 -1.1961  1.7077 -0.0315
   63SAPC  H14B 4995   3.574   0.446   7.119  0.1626  0.1290 -0.6813
   63SAPC  H14C 4996   3.445   0.553   7.067 -0.8017  0.2893  0.6674
   63SAPC   C15 4997   3.474   0.215   7.006  0.0319 -0.5249 -0.2462
   63SAPC  H15A 4998   3.571   0.187   7.044 -0.3811 -2.0472 -0.2365
   63SAPC  H15B 4999   3.397   0.182   7.075 -0.1283  0.2526 -0.0513
   63SAPC  H15C 5000   3.458   0.144   6.926  0.6868 -2.0781  0.9288
   63SAPC   C11 5001   3.263   0.500   6.838  0.2822  0.5768  0.2338
   63SAPC  H11A 5002   3.166   0.476   6.790  1.6774 -0.0825 -2.4480
   63SAPC  H11B 5003   3.336   0.529   6.759  0.7724 -0.7184  0.1980
   63SAPC     P 5004   3.119   0.619   7.010  0.4774 -0.3957 -0.0642
   63SAPC   O13 5005   3.054   0.489   7.037 -0.5731  0.0406 -0.1216
   63SAPC   O14 5006   3.135   0.706   7.127 -0.2202  0.1083 -0.6194
   63SAPC   O12 5007   3.249   0.605   6.935 -0.1049 -0.0268  0.5579
   63SAPC   O11 5008   3.036   0.703   6.906  0.4556  0.2849 -0.3786
   63SAPC    C1 5009   3.087   0.834   6.866  0.2961  0.0904  0.2601
   63SAPC    HA 5010   3.001   0.904   6.854 -0.4603 -0.5024  1.8919
   63SAPC    HB 5011   3.158   0.888   6.931  0.0140  1.1696 -0.2953
   63SAPC    C2 5012   3.163   0.828   6.727 -0.3634  0.4571  0.4169
   63SAPC    HS 5013   3.126   0.916   6.671 -0.2977  1.6353  2.1587
   63SAPC   O21 5014   3.136   0.703   6.654  0.0400  0.7939 -0.0417
   63SAPC   C21 5015   3.007   0.685   6.621 -0.7659 -0.5550 -1.3992
   63SAPC   O22 5016   2.922   0.772   6.632 -0.1621 -0.2955 -0.0810
   63SAPC   C22 5017   2.991   0.546   6.569 -0.1773  0.7175  0.9920
   63SAPC   H2R 5018   3.063   0.542   6.484 -0.3551 -1.4544  0.8785
   63SAPC   H2S 5019   3.029   0.475   6.645  0.5150 -2.1032 -1.7476
   63SAPC    C3 5020   3.316   0.839   6.725 -0.2218 -0.5330 -0.6866
   63SAPC    HX 5021   3.376   0.762   6.778 -3.7875 -1.0972  3.0676
   63SAPC    HY 5022   3.337   0.935   6.776  2.4121 -0.8948 -0.9683
   63SAPC   O31 5023   3.368   0.869   6.603  0.8864 -0.0891  0.3588
   63SAPC   C31 5024   3.406   0.769   6.526 -0.3939 -0.0862  0.3692
   63SAPC   O32 5025   3.427   0.653   6.556 -0.2291  0.0480  0.1295
   63SAPC   C32 5026   3.424   0.824   6.389  0.1825 -0.1382  0.0430
   63SAPC   H2X 5027   3.524   0.873   6.393 -0.7601  1.9533 -0.3778
   63SAPC   H2Y 5028   3.345   0.901   6.372  0.4802  0.0788 -0.3722
   63SAPC   C23 5029   2.843   0.514   6.527 -0.4414 -0.4434 -0.4251
   63SAPC   H3R 5030   2.785   0.542   6.617  0.0333 -0.8769  0.0213
   63SAPC   H3S 5031   2.835   0.408   6.494 -0.9544 -0.0338 -1.6649
   63SAPC   C24 5032   2.785   0.607   6.411 -0.4525 -0.3519  0.2519
   63SAPC   H4R 5033   2.794   0.716   6.431 -0.0859 -0.3892  0.2886
   63SAPC   H4S 5034   2.674   0.597   6.412 -0.5838  0.0033 -2.8546
   63SAPC   C25 5035   2.866   0.576   6.281  0.6912  0.1031  0.3364
   63SAPC   H5R 5036   2.884   0.470   6.260  1.0929  0.2377 -0.0413
   63SAPC   C26 5037   2.926   0.659   6.194 -0.6539 -0.9028  0.1831
   63SAPC   H6R 5038   2.978   0.624   6.103  2.8678  3.9173 -0.0775
   63SAPC   C27 5039   2.924   0.811   6.210 -0.1223  0.5073 -0.5915
   63SAPC   H7R 5040   2.883   0.839   6.310  0.8523  0.1499 -0.0723
   63SAPC   H7S 5041   2.849   0.851   6.140 -0.4843 -1.0680 -1.1551
   63SAPC   C28 5042   3.061   0.872   6.196 -0.1556  0.0315  0.1569
   63SAPC   H8R 5043   3.114   0.872   6.293 -1.2406  0.6721  0.7798
   63SAPC   C29 5044   3.118   0.911   6.081  0.4082 -0.1638 -0.5265
   63SAPC   H9R 5045   3.222   0.946   6.084 -0.6183  3.3052 -0.5836
   63SAPC  C210 5046   3.052   0.920   5.948  0.1244 -0.3510  0.1819
   63SAPC  H10R 5047   3.105   1.005   5.899  0.1385  0.5128  1.6192
   63SAPC  H10S 5048   2.948   0.952   5.968  0.8640  1.9598  0.7383
   63SAPC  C211 5049   3.053   0.791   5.877 -0.9697  0.4442 -0.3376
   63SAPC  H11R 5050   3.011   0.707   5.935  2.9800 -0.6544  1.3139
   63SAPC  C212 5051   3.111   0.771   5.756 -0.3222  0.4592 -0.0183
   63SAPC  H12R 5052   3.109   0.670   5.712 -1.0077  0.6335 -0.3954
   63SAPC  C213 5053   3.169   0.881   5.663 -0.2001 -0.0923  0.4070
   63SAPC  H13R 5054   3.208   0.965   5.724 -1.5285 -0.4964  1.8595
   63SAPC  H13S 5055   3.084   0.917   5.601 -1.8384 -2.5334  1.0984
   63SAPC  C214 5056   3.281   0.826   5.576  0.2287  0.0265  0.0896
   63SAPC  H14R 5057   3.350   0.765   5.636 -0.8912 -1.9984 -0.5970
   63SAPC  C215 5058   3.288   0.831   5.443  0.0045 -0.4542  0.1434
   63SAPC  H15R 5059   3.369   0.774   5.395  0.5357  0.2709  0.1519
   63SAPC  C216 5060   3.189   0.912   5.353 -0.2568  0.1147 -0.0116
   63SAPC  H16R 5061   3.242   0.990   5.295 -1.8263  1.0302 -0.2627
   63SAPC  H16S 5062   3.103   0.964   5.401 -1.2252  0.2139 -1.7850
   63SAPC  C217 5063   3.119   0.823   5.247  0.0035  0.3189 -0.6808
   63SAPC  H17R 5064   3.185   0.791   5.163 -0.0289 -3.3246  0.5316
   63SAPC  H17S 5065   3.045   0.888   5.195 -1.1788 -0.2979  0.1986
   63SAPC  C218 5066   3.030   0.709   5.306 -0.2145 -0.1869 -0.0940
   63SAPC  H18R 5067   3.101   0.655   5.372  0.1763 -1.8387 -1.7632
   63SAPC  H18S 5068   2.990   0.644   5.226 -1.6249  1.8146 -1.0957
   63SAPC  C219 5069   2.902   0.743   5.391 -1.0165 -0.2648 -0.1238
   63SAPC  H19R 5070   2.833   0.803   5.327  2.7366  3.5070 -1.1283
   63SAPC  H19S 5071   2.934   0.820   5.465 -0.2755  0.2187 -0.9161
   63SAPC  C220 5072   2.845   0.620   5.461  0.0661 -0.5854  0.6523
   63SAPC  H20R 5073   2.920   0.566   5.523  2.4028  1.8607  0.1779
   63SAPC  H20S 5074   2.815   0.547   5.384  2.5090 -1.4150  0.3802
   63SAPC  H20T 5075   2.749   0.641   5.512 -0.4934  1.3149 -1.0584
   63SAPC   C33 5076   3.410   0.714   6.285  0.0532 -0.4700  0.4311
   63SAPC   H3X 5077   3.311   0.662   6.280 -0.3233  0.1624  1.0319
   63SAPC   H3Y 5078   3.487   0.635   6.296  1.0151  0.0985 -1.8056
   63SAPC   C34 5079   3.440   0.773   6.151 -0.0123  0.9144  0.2436
   63SAPC   H4X 5080   3.411   0.878   6.130 -1.0625  0.8225  1.1587
   63SAPC   H4Y 5081   3.396   0.712   6.069  2.0212 -0.3577  0.0330
   63SAPC   C35 5082   3.593   0.759   6.124  0.5506 -0.2750 -0.1600
   63SAPC   H5X 5083   3.636   0.664   6.164 -0.9406 -0.6814  0.5505
   63SAPC   H5Y 5084   3.641   0.847   6.174 -1.7596  0.3566  1.1013
   63SAPC   C36 5085   3.627   0.777   5.975  0.0893 -0.1021  0.9513
   63SAPC   H6X 5086   3.589   0.877   5.945  0.3812  0.2002  1.5688
   63SAPC   H6Y 5087   3.574   0.700   5.915  0.5284  1.6170 -1.8386
   63SAPC   C37 5088   3.777   0.787   5.952  0.3024 -0.4307 -0.0152
   63SAPC   H7X 5089   3.827   0.689   5.969  0.6813  0.1719  2.6726
   63SAPC   H7Y 5090   3.815   0.861   6.025 -0.8234 -0.9274  1.1020
   63SAPC   C38 5091   3.816   0.849   5.823 -0.2279 -0.1941 -0.5056
   63SAPC   H8X 5092   3.927   0.856   5.824 -0.2747  1.5957 -1.9762
   63SAPC   H8Y 5093   3.766   0.946   5.798  0.6515 -0.5197 -4.0925
   63SAPC   C39 5094   3.787   0.750   5.714 -0.3610  0.2787 -0.5059
   63SAPC   H9X 5095   3.679   0.729   5.730 -0.2309  0.3782  0.5557
   63SAPC   H9Y 5096   3.843   0.653   5.714 -0.9587 -0.0994 -1.9572
   63SAPC  C310 5097   3.791   0.826   5.580 -0.0893  0.3111  0.1867
   63SAPC  H10X 5098   3.887   0.878   5.558  1.9183 -3.1494 -0.0186
   63SAPC  H10Y 5099   3.698   0.886   5.584 -1.1400 -1.3023  2.5670
   63SAPC  C311 5100   3.773   0.728   5.464 -0.3343 -0.5553  0.5930
   63SAPC  H11X 5101   3.707   0.642   5.490 -0.3168 -0.3025  1.5227
   63SAPC  H11Y 5102   3.865   0.669   5.442 -0.1975 -1.1539  2.5519
   63SAPC  C312 5103   3.710   0.791   5.330 -0.6066 -0.5260  0.1669
   63SAPC  H12X 5104   3.766   0.880   5.292 -1.9392 -0.2754 -1.3144
   63SAPC  H12Y 5105   3.606   0.819   5.355 -0.2882 -0.3930  1.4040
   63SAPC  C313 5106   3.713   0.688   5.216  0.1573  0.0135  0.6067
   63SAPC  H13X 5107   3.655   0.596   5.238 -0.6043  0.1433 -0.7765
   63SAPC  H13Y 5108   3.819   0.657   5.203 -0.4775 -2.1772  0.2266
   63SAPC  C314 5109   3.641   0.746   5.090 -0.7379 -0.5757 -0.1238
   63SAPC  H14X 5110   3.686   0.690   5.005 -0.5344 -1.6524  0.6691
   63SAPC  H14Y 5111   3.666   0.853   5.074  0.5300 -1.0516 -1.6477
   63SAPC  C315 5112   3.491   0.710   5.096  1.0214 -0.0820 -0.3675
   63SAPC  H15X 5113   3.436   0.786   5.156  0.4612  0.1704 -1.1720
   63SAPC  H15Y 5114   3.476   0.619   5.158 -1.6557 -1.1447 -2.3469
   63SAPC  C316 5115   3.409   0.690   4.962 -0.2707 -0.5874  0.0297
   63SAPC  H16X 5116   3.303   0.666   4.984 -0.1632  0.6479  2.1660
   63SAPC  H16Y 5117   3.455   0.604   4.909  2.1512  0.1406  0.8261
   63SAPC  C317 5118   3.403   0.809   4.869 -0.4931 -0.0647  0.1190
   63SAPC  H17X 5119   3.346   0.787   4.776  0.0153 -0.6918 -0.0529
   63SAPC  H17Y 5120   3.508   0.837   4.847  0.3662 -1.5168  2.0187
   63SAPC  C318 5121   3.328   0.935   4.934 -0.3302  0.6443 -0.8729
   63SAPC  H18X 5122   3.309   1.020   4.865 -1.1736  2.1951  1.1505
   63SAPC  H18Y 5123   3.384   0.971   5.023  0.3833 -1.6590 -0.3308
   63SAPC  H18Z 5124   3.225   0.911   4.965 -0.2329  1.7999  0.4546
   64SAPC     N 5125   3.028   2.989   6.861 -0.0310 -0.5171 -0.9120
   64SAPC   C12 5126   3.016   2.930   6.717  0.2478  0.2146  0.5036
   64SAPC  H12A 5127   3.094   2.864   6.683 -0.7495 -0.0072 -1.4942
   64SAPC  H12B 5128   3.031   3.011   6.646  1.3502 -1.8368 -1.7473
   64SAPC   C13 5129   2.975   2.891   6.968 -1.1427  0.5814  0.4409
   64SAPC  H13A 5130   2.878   2.852   6.941 -0.7016 -1.1244  1.1624
   64SAPC  H13B 5131   3.032   2.799   6.972  0.6607  1.5832 -0.7835
   64SAPC  H13C 5132   2.969   2.937   7.066 -0.8078  1.8990 -0.1413
   64SAPC   C14 5133   3.170   3.024   6.878 -0.6631 -0.3981  0.1897
   64SAPC  H14A 5134   3.202   3.100   6.808  0.2138 -1.1407 -0.2441
   64SAPC  H14B 5135   3.189   3.050   6.981 -4.1392 -3.1867  1.7592
   64SAPC  H14C 5136   3.231   2.937   6.858 -2.5828 -1.4989 -1.2691
   64SAPC   C15 5137   2.948   3.113   6.883 -0.2542 -0.0444 -0.3076
   64SAPC  H15A 5138   2.843   3.095   6.866 -0.0136 -0.1643 -1.7372
   64SAPC  H15B 5139   2.963   3.148   6.984 -0.3395  0.5682 -0.5056
   64SAPC  H15C 5140   2.967   3.193   6.813  1.1113 -0.6589 -0.6694
   64SAPC   C11 5141   2.873   2.877   6.680  0.4696  0.1259  0.3872
   64SAPC  H11A 5142   2.867   2.880   6.569 -0.5501 -0.9646  0.3891
   64SAPC  H11B 5143   2.797   2.945   6.724 -1.9276 -2.9309  1.3294
   64SAPC     P 5144   2.699   2.688   6.742 -0.2594 -0.1458 -0.3150
   64SAPC   O13 5145   2.689   2.624   6.866  0.2618 -0.7009 -0.1034
   64SAPC   O14 5146   2.598   2.787   6.713  0.3598 -0.3571  0.4377
   64SAPC   O12 5147   2.845   2.743   6.721  0.5712  0.0208  0.2155
   64SAPC   O11 5148   2.694   2.585   6.627 -0.2337  0.0835 -0.3342
   64SAPC    C1 5149   2.794   2.484   6.612  0.0403  0.5299  0.1884
   64SAPC    HA 5150   2.892   2.524   6.580  0.0033 -0.0866 -0.7464
   64SAPC    HB 5151   2.805   2.436   6.712  1.6472  0.8447  0.1807
   64SAPC    C2 5152   2.744   2.381   6.510 -0.0734  0.8025  0.0944
   64SAPC    HS 5153   2.832   2.313   6.498  2.2940  3.7150 -0.3365
   64SAPC   O21 5154   2.714   2.433   6.382 -0.3094 -0.2029 -0.4230
   64SAPC   C21 5155   2.820   2.468   6.309 -0.2304 -0.1178 -0.3504
   64SAPC   O22 5156   2.937   2.443   6.340 -0.1443 -0.9485  0.3883
   64SAPC   C22 5157   2.778   2.525   6.174 -0.0343  0.6323  0.1072
   64SAPC   H2R 5158   2.742   2.442   6.108  1.5817  1.0730 -1.4081
   64SAPC   H2S 5159   2.686   2.584   6.192 -1.2976 -0.8224 -1.2943
   64SAPC    C3 5160   2.609   2.320   6.555  0.0993  0.3676  0.3530
   64SAPC    HX 5161   2.541   2.407   6.554 -0.9118 -0.3014 -3.5565
   64SAPC    HY 5162   2.622   2.284   6.659 -2.1012 -0.9444  0.2227
   64SAPC   O31 5163   2.554   2.211   6.481  0.3665  0.0817  0.2680
   64SAPC   C31 5164   2.625   2.106   6.483 -0.3506  0.4414  0.3503
   64SAPC   O32 5165   2.731   2.093   6.542 -0.2031 -0.4412  0.2790
   64SAPC   C32 5166   2.557   2.000   6.397 -0.5968 -0.3132  0.0128
   64SAPC   H2X 5167   2.455   2.031   6.368 -0.7624 -0.7699  0.0960
   64SAPC   H2Y 5168   2.540   1.914   6.466  0.0349 -1.3474 -1.0898
   64SAPC   C23 5169   2.893   2.588   6.093 -0.3369  0.4049 -0.5491
   64SAPC   H3R 5170   2.986   2.528   6.104  0.6564  1.8414 -0.7900
   64SAPC   H3S 5171   2.902   2.690   6.137 -1.4606  1.4689 -2.6268
   64SAPC   C24 5172   2.865   2.596   5.942  0.1572 -0.1133  0.4366
   64SAPC   H4R 5173   2.778   2.664   5.940  0.3419  0.2059  1.9240
   64SAPC   H4S 5174   2.843   2.499   5.892 -0.5755  0.8832 -1.2330
   64SAPC   C25 5175   2.992   2.658   5.889 -0.3754  0.1477 -0.2726
   64SAPC   H5R 5176   3.089   2.613   5.914  0.8242  1.6550 -2.0177
   64SAPC   C26 5177   2.999   2.747   5.787 -0.3659  0.0570  0.2698
   64SAPC   H6R 5178   3.102   2.775   5.760 -0.4862 -0.4594 -0.7943
   64SAPC   C27 5179   2.886   2.821   5.718 -0.3608  0.7814 -0.2157
   64SAPC   H7R 5180   2.785   2.796   5.756 -0.8745 -0.7526 -2.4015
   64SAPC   H7S 5181   2.879   2.783   5.613 -2.7418  2.2275 -0.6374
   64SAPC   C28 5182   2.907   2.969   5.729 -0.2589 -0.5700 -0.4105
   64SAPC   H8R 5183   2.996   2.991   5.791 -0.8366 -2.1721  1.0637
   64SAPC   C29 5184   2.830   3.057   5.660  0.6596 -0.4130 -0.0235
   64SAPC   H9R 5185   2.840   3.165   5.682 -0.8351 -0.2234 -0.1551
   64SAPC  C210 5186   2.704   3.026   5.573  0.1023 -0.4888 -0.1097
   64SAPC  H10R 5187   2.616   3.033   5.640 -0.0482 -2.2966 -0.0684
   64SAPC  H10S 5188   2.709   2.924   5.529 -0.9545  0.0052 -1.4565
   64SAPC  C211 5189   2.683   3.121   5.454  0.1753 -0.3214 -0.0025
   64SAPC  H11R 5190   2.597   3.187   5.471 -0.5561 -0.9887 -0.9595
   64SAPC  C212 5191   2.738   3.109   5.336  0.0657  0.6701 -0.5087
   64SAPC  H12R 5192   2.706   3.182   5.260 -0.9543 -0.1676 -0.9169
   64SAPC  C213 5193   2.836   3.008   5.300 -0.4316 -0.7613  0.2145
   64SAPC  H13R 5194   2.797   2.970   5.203 -2.9553  1.2486  0.3516
   64SAPC  H13S 5195   2.814   2.920   5.364 -1.1521 -0.6877  0.0770
   64SAPC  C214 5196   2.983   3.049   5.310  0.1645 -0.6068 -0.0086
   64SAPC  H14R 5197   3.014   3.084   5.410  1.2730 -0.1256 -0.5106
   64SAPC  C215 5198   3.076   3.057   5.221  0.1850  0.5894  0.5287
   64SAPC  H15R 5199   3.176   3.089   5.252  0.0638  0.8424  0.6726
   64SAPC  C216 5200   3.074   3.027   5.073 -0.1186  0.3905  0.0126
   64SAPC  H16R 5201   3.146   3.088   5.015 -1.2462 -0.1448 -2.0865
   64SAPC  H16S 5202   2.976   3.053   5.028 -0.2842 -0.8437 -0.3679
   64SAPC  C217 5203   3.104   2.876   5.043  0.3505  0.0941  0.6628
   64SAPC  H17R 5204   3.031   2.806   5.089  0.0689  0.2408  0.4445
   64SAPC  H17S 5205   3.204   2.851   5.083  0.0690 -0.2892  1.1352
   64SAPC  C218 5206   3.104   2.848   4.891  0.0731  0.0778 -0.0035
   64SAPC  H18R 5207   3.172   2.928   4.853  1.8486 -0.4663  1.7996
   64SAPC  H18S 5208   3.014   2.856   4.827  0.6313 -2.4140 -1.1908
   64SAPC  C219 5209   3.154   2.710   4.859 -0.0034  0.7804  0.7457
   64SAPC  H19R 5210   3.083   2.639   4.906 -1.8082  1.8922 -0.1402
   64SAPC  H19S 5211   3.252   2.696   4.908  0.9623  0.3616 -1.2263
   64SAPC  C220 5212   3.169   2.703   4.704 -0.0488  0.1858 -0.1978
   64SAPC  H20R 5213   3.065   2.718   4.669 -0.7776  1.6448  2.3290
   64SAPC  H20S 5214   3.212   2.606   4.668  1.9580  1.0030 -0.1159
   64SAPC  H20T 5215   3.219   2.795   4.670  1.6995 -0.0317  1.6060
   64SAPC   C33 5216   2.648   1.956   6.283 -0.1343  0.5967 -0.7909
   64SAPC   H3X 5217   2.597   1.869   6.236  0.4336  0.1212 -0.5480
   64SAPC   H3Y 5218   2.744   1.905   6.309 -1.7441 -2.1696  0.1410
   64SAPC   C34 5219   2.680   2.058   6.174 -0.3501  0.4038 -0.0902
   64SAPC   H4X 5220   2.766   2.121   6.202  0.1809 -0.4576  0.2587
   64SAPC   H4Y 5221   2.593   2.125   6.158  0.2161  0.7002 -2.1671
   64SAPC   C35 5222   2.717   1.984   6.044 -0.0985 -0.0764  0.0155
   64SAPC   H5X 5223   2.638   1.909   6.020  0.2949 -1.1016  1.7741
   64SAPC   H5Y 5224   2.808   1.925   6.067  0.2947  1.3403  2.4323
   64SAPC   C36 5225   2.738   2.089   5.938 -0.2287  0.3026 -0.5345
   64SAPC   H6X 5226   2.810   2.036   5.872  0.9605 -0.6560  1.4457
   64SAPC   H6Y 5227   2.797   2.173   5.978 -0.0356 -0.8122  1.6819
   64SAPC   C37 5228   2.617   2.134   5.872  0.1471 -0.0085  0.6175
   64SAPC   H7X 5229   2.541   2.175   5.942  1.0842 -1.1001  2.3369
   64SAPC   H7Y 5230   2.571   2.043   5.829  1.4939  0.2156 -1.4037
   64SAPC   C38 5231   2.637   2.228   5.748 -0.3112 -0.1895 -0.7868
   64SAPC   H8X 5232   2.658   2.330   5.786 -0.2100 -0.0387 -1.2418
   64SAPC   H8Y 5233   2.547   2.233   5.683 -2.4842 -0.3866  2.0519
   64SAPC   C39 5234   2.752   2.174   5.659 -0.3920 -0.5594 -0.0505
   64SAPC   H9X 5235   2.730   2.067   5.636  0.8020 -0.7879 -0.1972
   64SAPC   H9Y 5236   2.845   2.180   5.720 -0.6220 -0.3206  0.2766
   64SAPC  C310 5237   2.764   2.262   5.533  0.1688  0.4535  1.0122
   64SAPC  H10X 5238   2.674   2.250   5.469  0.2103 -1.1316  1.1995
   64SAPC  H10Y 5239   2.851   2.235   5.470 -1.4253  0.6009 -1.3541
   64SAPC  C311 5240   2.785   2.410   5.566 -0.7793  0.4808 -0.2762
   64SAPC  H11X 5241   2.855   2.423   5.651  1.7844  1.9822 -2.4656
   64SAPC  H11Y 5242   2.690   2.462   5.591 -0.7655  0.2428  0.2999
   64SAPC  C312 5243   2.861   2.500   5.466  0.1619  0.5127  0.7806
   64SAPC  H12X 5244   2.961   2.463   5.435 -1.0816 -1.1913 -1.5163
   64SAPC  H12Y 5245   2.877   2.601   5.510  0.3559  2.1773 -2.7842
   64SAPC  C313 5246   2.781   2.534   5.338 -0.0158  0.7339  0.1604
   64SAPC  H13X 5247   2.683   2.574   5.370 -0.6702 -0.8876  0.2887
   64SAPC  H13Y 5248   2.762   2.444   5.275  1.0697  0.9889 -0.5618
   64SAPC  C314 5249   2.846   2.641   5.253  0.7610 -0.5981 -1.1204
   64SAPC  H14X 5250   2.930   2.587   5.205 -1.2053 -2.8350 -2.2160
   64SAPC  H14Y 5251   2.892   2.721   5.315 -1.5017 -0.6580  0.7975
   64SAPC  C315 5252   2.750   2.694   5.140 -0.2329  0.7700 -0.0192
   64SAPC  H15X 5253   2.820   2.759   5.083  1.0594 -0.6222 -0.0874
   64SAPC  H15Y 5254   2.662   2.758   5.161 -0.5122  0.8471 -1.3565
   64SAPC  C316 5255   2.722   2.592   5.025  0.7241  0.1287  0.1985
   64SAPC  H16X 5256   2.662   2.513   5.074  0.1664  0.2572 -0.2792
   64SAPC  H16Y 5257   2.814   2.544   4.984 -0.7752 -1.0116 -2.0314
   64SAPC  C317 5258   2.646   2.653   4.902 -0.4853  0.4912 -0.0821
   64SAPC  H17X 5259   2.711   2.680   4.816 -1.4972 -1.6893 -1.6087
   64SAPC  H17Y 5260   2.589   2.742   4.936  0.0138  0.0683  1.9984
   64SAPC  C318 5261   2.545   2.561   4.832  0.3568  0.3088  0.1583
   64SAPC  H18X 5262   2.468   2.521   4.902 -0.0979  0.4286 -0.2693
   64SAPC  H18Y 5263   2.586   2.469   4.785 -2.9555 -1.2528  0.0677
   64SAPC  H18Z 5264   2.484   2.606   4.751 -2.3172 -1.3020  1.1465
   65SAPC     N 5265   2.608   2.785   2.476  0.2428 -0.1541  0.8409
   65SAPC   C12 5266   2.546   2.645   2.493  0.0609  0.5031  0.3111
   65SAPC  H12A 5267   2.622   2.573   2.465 -0.3386  0.3136 -0.3247
   65SAPC  H12B 5268   2.463   2.636   2.425 -0.1368  0.4104  0.5637
   65SAPC   C13 5269   2.749   2.792   2.527  0.2707  0.0107  0.3622
   65SAPC  H13A 5270   2.807   2.713   2.483  0.0604  0.2066 -0.2866
   65SAPC  H13B 5271   2.799   2.885   2.502  1.8336 -0.5916  1.1081
   65SAPC  H13C 5272   2.755   2.780   2.634 -0.4015 -0.4633  0.3531
   65SAPC   C14 5273   2.614   2.825   2.333  0.5704 -0.9760 -0.1633
   65SAPC  H14A 5274   2.516   2.830   2.288  0.3416  2.0158  0.4725
   65SAPC  H14B 5275   2.651   2.924   2.316 -1.9003 -0.3941 -3.0876
   65SAPC  H14C 5276   2.669   2.747   2.281  1.5853  0.2744 -1.0171
   65SAPC   C15 5277   2.524   2.889   2.543  0.1038  0.0293 -0.1532
   65SAPC  H15A 5278   2.422   2.892   2.507  0.1461 -1.6741 -0.4767
   65SAPC  H15B 5279   2.534   2.868   2.649 -0.2206 -1.1721 -0.3425
   65SAPC  H15C 5280   2.569   2.987   2.535 -0.5504  0.3585  0.0880
   65SAPC   C11 5281   2.482   2.596   2.626  0.0125 -0.3190 -0.2285
   65SAPC  H11A 5282   2.569   2.592   2.695 -0.5285  2.4719  0.7183
   65SAPC  H11B 5283   2.448   2.491   2.609 -0.0731 -0.3234 -0.0307
   65SAPC     P 5284   2.239   2.683   2.622 -0.5338  0.0650 -0.4018
   65SAPC   O13 5285   2.158   2.800   2.664 -0.6646 -0.9789  0.0283
   65SAPC   O14 5286   2.245   2.648   2.478  0.3576 -0.1680 -0.1128
   65SAPC   O12 5287   2.385   2.685   2.679 -0.2089  0.0043 -0.3699
   65SAPC   O11 5288   2.178   2.568   2.717  0.2285  0.1926  0.1199
   65SAPC    C1 5289   2.200   2.543   2.855  0.0357 -0.1177 -0.1381
   65SAPC    HA 5290   2.255   2.449   2.876  1.0141  0.7903  1.6312
   65SAPC    HB 5291   2.262   2.622   2.903  1.2126 -1.4566  0.6276
   65SAPC    C2 5292   2.061   2.538   2.924 -0.4197 -0.2845 -0.0040
   65SAPC    HS 5293   1.988   2.600   2.867  0.8423  0.8536 -0.4261
   65SAPC   O21 5294   2.070   2.555   3.065  0.2786  0.3548  0.3625
   65SAPC   C21 5295   2.062   2.681   3.100 -0.1206 -0.3073 -0.0170
   65SAPC   O22 5296   2.063   2.774   3.024 -0.0387 -0.1673 -0.1541
   65SAPC   C22 5297   2.070   2.697   3.255 -0.2269 -0.5554  0.1834
   65SAPC   H2R 5298   2.178   2.693   3.283 -0.0063 -1.5048 -0.7425
   65SAPC   H2S 5299   2.028   2.796   3.281  1.9461  0.0582  1.6759
   65SAPC    C3 5300   1.999   2.397   2.905 -0.2588 -0.3070 -0.6584
   65SAPC    HX 5301   2.072   2.328   2.952 -1.0009 -0.6178  0.0469
   65SAPC    HY 5302   1.993   2.373   2.796  0.2599  0.9129 -0.9722
   65SAPC   O31 5303   1.874   2.381   2.969 -0.3566 -0.2918 -0.2522
   65SAPC   C31 5304   1.779   2.434   2.900  0.8575  0.2590 -0.0558
   65SAPC   O32 5305   1.796   2.504   2.805  0.3652  0.2187  0.2405
   65SAPC   C32 5306   1.640   2.391   2.954  0.1525  0.8712 -0.1049
   65SAPC   H2X 5307   1.670   2.304   3.016  1.8805  0.6777 -1.1478
   65SAPC   H2Y 5308   1.571   2.354   2.874  0.6677  0.8312 -0.5342
   65SAPC   C23 5309   1.991   2.594   3.327  0.2467 -0.1329  0.3332
   65SAPC   H3R 5310   2.031   2.491   3.310  1.1014  0.1307  0.6847
   65SAPC   H3S 5311   1.884   2.588   3.300  0.6523 -2.5623 -1.0574
   65SAPC   C24 5312   1.990   2.611   3.485  0.1494  0.0218  0.2345
   65SAPC   H4R 5313   1.955   2.715   3.500 -1.1730  0.2181 -3.3449
   65SAPC   H4S 5314   2.100   2.607   3.505  0.1586 -0.5083  0.0985
   65SAPC   C25 5315   1.919   2.488   3.547  0.4579 -0.1861  1.1119
   65SAPC   H5R 5316   1.878   2.413   3.477  2.0562  0.0616 -0.1704
   65SAPC   C26 5317   1.912   2.466   3.679 -0.5109  0.2913  0.1128
   65SAPC   H6R 5318   1.846   2.388   3.719 -0.0269  1.1198  2.7412
   65SAPC   C27 5319   1.978   2.559   3.784  0.2694  0.3790  0.3688
   65SAPC   H7R 5320   1.964   2.664   3.750  0.4349 -0.2310 -1.7254
   65SAPC   H7S 5321   2.088   2.544   3.779  0.0227 -1.2168 -2.5353
   65SAPC   C28 5322   1.915   2.522   3.922  0.0638  1.3198  1.0269
   65SAPC   H8R 5323   1.805   2.514   3.917  0.2503 -0.7825 -0.7038
   65SAPC   C29 5324   1.979   2.499   4.033  0.7729  0.0822  0.4310
   65SAPC   H9R 5325   1.922   2.470   4.123 -0.1310  0.6899  0.0764
   65SAPC  C210 5326   2.129   2.506   4.057 -0.3780  0.0148 -0.2778
   65SAPC  H10R 5327   2.188   2.495   3.964  0.1948  0.0385  0.0823
   65SAPC  H10S 5328   2.163   2.417   4.113  0.7103  0.4752 -0.1984
   65SAPC  C211 5329   2.193   2.626   4.120 -0.9510  0.2547 -0.0307
   65SAPC  H11R 5330   2.234   2.704   4.054  0.9953 -0.5911  0.1130
   65SAPC  C212 5331   2.172   2.652   4.247  0.5815  0.5346  0.0949
   65SAPC  H12R 5332   2.215   2.746   4.284  0.3727  0.0292  1.7162
   65SAPC  C213 5333   2.103   2.570   4.356  0.2236 -0.1344  0.0066
   65SAPC  H13R 5334   2.179   2.509   4.410  1.5761  2.0677  0.7340
   65SAPC  H13S 5335   2.037   2.497   4.306  0.0634 -1.3291  1.8596
   65SAPC  C214 5336   2.017   2.647   4.464  0.1708  0.8578  0.0268
   65SAPC  H14R 5337   1.984   2.746   4.431 -0.6101  0.7033  0.3374
   65SAPC  C215 5338   2.000   2.611   4.598 -0.5224 -0.2011  0.3677
   65SAPC  H15R 5339   1.955   2.685   4.665 -0.2190 -1.9938  2.6863
   65SAPC  C216 5340   2.047   2.489   4.680 -0.3041  0.3934 -0.1546
   65SAPC  H16R 5341   2.143   2.502   4.733  0.8727 -0.1343 -2.0847
   65SAPC  H16S 5342   2.078   2.413   4.605  0.5660 -2.4235  2.8237
   65SAPC  C217 5343   1.940   2.427   4.776 -0.3496 -0.5056  0.0285
   65SAPC  H17R 5344   1.852   2.395   4.717 -1.5060  0.2784  1.2738
   65SAPC  H17S 5345   1.908   2.496   4.857  0.9630  0.8044 -0.5012
   65SAPC  C218 5346   2.009   2.302   4.841 -0.5297  0.5990  0.4051
   65SAPC  H18R 5347   2.098   2.345   4.890  0.8084  0.1950 -1.5438
   65SAPC  H18S 5348   2.052   2.239   4.759 -0.9177 -1.0041  1.3988
   65SAPC  C219 5349   1.917   2.229   4.933 -0.1298  0.0562 -0.5757
   65SAPC  H19R 5350   1.822   2.219   4.876 -0.3169 -0.8850 -0.1231
   65SAPC  H19S 5351   1.876   2.277   5.023 -1.4271  0.4960 -1.3803
   65SAPC  C220 5352   1.968   2.092   4.962 -0.0682  0.0462  0.5244
   65SAPC  H20R 5353   2.015   2.054   4.869  0.1421 -1.4165  1.1983
   65SAPC  H20S 5354   1.883   2.026   4.990  0.3726 -1.6371 -1.8074
   65SAPC  H20T 5355   2.044   2.097   5.042  0.2940 -0.4243  0.2164
   65SAPC   C33 5356   1.564   2.500   3.027  0.4821 -0.0583 -0.0870
   65SAPC   H3X 5357   1.463   2.462   3.056  0.3854 -0.7434 -1.2571
   65SAPC   H3Y 5358   1.540   2.595   2.974  1.7530  0.2225 -0.1814
   65SAPC   C34 5359   1.631   2.534   3.165 -0.0174  0.6326  0.0773
   65SAPC   H4X 5360   1.704   2.614   3.139 -0.0797  0.0320 -2.1759
   65SAPC   H4Y 5361   1.674   2.441   3.206 -1.4021 -2.0821 -3.9189
   65SAPC   C35 5362   1.531   2.599   3.263 -0.2312 -0.0797  0.1281
   65SAPC   H5X 5363   1.443   2.538   3.292 -0.3889 -0.5370 -1.2067
   65SAPC   H5Y 5364   1.501   2.695   3.217  1.6230  0.5285  0.1253
   65SAPC   C36 5365   1.614   2.626   3.390 -0.4556 -0.0820  0.1015
   65SAPC   H6X 5366   1.699   2.696   3.371 -0.3478  0.5680  2.6117
   65SAPC   H6Y 5367   1.661   2.536   3.436  1.4245  0.8017  0.0284
   65SAPC   C37 5368   1.526   2.699   3.501  0.0925  0.1967 -0.1669
   65SAPC   H7X 5369   1.436   2.644   3.537  1.4317 -1.9061  0.1451
   65SAPC   H7Y 5370   1.486   2.791   3.454 -0.6379  0.2166  0.4765
   65SAPC   C38 5371   1.603   2.721   3.635  0.4081  0.2661 -0.1269
   65SAPC   H8X 5372   1.678   2.797   3.606 -1.0650  1.2268 -1.5901
   65SAPC   H8Y 5373   1.650   2.628   3.674 -1.5239 -0.7958 -0.1862
   65SAPC   C39 5374   1.512   2.788   3.742  0.3551 -0.3053  0.2917
   65SAPC   H9X 5375   1.459   2.712   3.804  0.2132  0.0078  0.5604
   65SAPC   H9Y 5376   1.433   2.846   3.690  0.0336  0.5916  1.7067
   65SAPC  C310 5377   1.577   2.875   3.843  0.1328 -0.5891 -0.2130
   65SAPC  H10X 5378   1.511   2.906   3.927  1.7140  0.8659  0.5549
   65SAPC  H10Y 5379   1.619   2.963   3.790  0.1131 -0.9164 -0.7752
   65SAPC  C311 5380   1.683   2.798   3.917 -0.0854 -0.9212 -0.7088
   65SAPC  H11X 5381   1.756   2.769   3.838  1.2276 -1.5278  0.6761
   65SAPC  H11Y 5382   1.639   2.699   3.939  2.0260 -1.6255  0.6024
   65SAPC  C312 5383   1.759   2.877   4.024 -0.2201 -0.9048  0.1751
   65SAPC  H12X 5384   1.774   2.970   3.966 -0.2966 -0.6632  0.5350
   65SAPC  H12Y 5385   1.846   2.813   4.053 -1.3385 -2.2585  0.6363
   65SAPC  C313 5386   1.677   2.904   4.155 -0.1293 -0.3070  0.2904
   65SAPC  H13X 5387   1.580   2.950   4.126  0.3565  0.3270 -0.3509
   65SAPC  H13Y 5388   1.738   2.982   4.205 -0.4446 -0.4148  0.8547
   65SAPC  C314 5389   1.671   2.781   4.247 -0.1262 -0.1330  0.0586
   65SAPC  H14X 5390   1.771   2.761   4.292  0.2927 -0.7821 -1.1240
   65SAPC  H14Y 5391   1.652   2.686   4.192 -0.2653 -1.6529  2.5600
   65SAPC  C315 5392   1.577   2.798   4.372 -0.0547  0.1585  0.8923
   65SAPC  H15X 5393   1.474   2.811   4.334  0.0846  1.4805  0.9443
   65SAPC  H15Y 5394   1.588   2.897   4.420  2.3135  0.8126 -0.8308
   65SAPC  C316 5395   1.596   2.691   4.477 -0.2420 -1.1801  0.1200
   65SAPC  H16X 5396   1.707   2.699   4.487 -0.2217  1.2250 -1.3901
   65SAPC  H16Y 5397   1.555   2.592   4.446 -2.8053 -0.5657  1.3121
   65SAPC  C317 5398   1.538   2.745   4.612 -0.4771 -0.0087  0.5229
   65SAPC  H17X 5399   1.530   2.664   4.688 -3.0698  1.1024  1.5534
   65SAPC  H17Y 5400   1.430   2.765   4.591  0.2269  1.6579 -1.9161
   65SAPC  C318 5401   1.596   2.865   4.687 -0.1114 -0.1748 -0.0891
   65SAPC  H18X 5402   1.692   2.833   4.733  0.7558 -0.0966 -1.7495
   65SAPC  H18Y 5403   1.516   2.900   4.754  0.8088  1.8706  0.0312
   65SAPC  H18Z 5404   1.611   2.949   4.615 -2.9153  0.6775  0.2183
   66SAPC     N 5405   5.723   3.238   2.710 -0.0024 -0.2450 -0.1535
   66SAPC   C12 5406   5.614   3.164   2.785  0.1954 -0.1103 -0.0239
   66SAPC  H12A 5407   5.621   3.060   2.755  1.4350  0.5373 -2.2213
   66SAPC  H12B 5408   5.518   3.200   2.751  0.3508 -0.3736 -0.7617
   66SAPC   C13 5409   5.715   3.204   2.564  0.0333 -0.3371 -0.6820
   66SAPC  H13A 5410   5.791   3.269   2.523  1.1154 -0.6313  0.7638
   66SAPC  H13B 5411   5.724   3.099   2.543  0.8767 -0.7821  1.6586
   66SAPC  H13C 5412   5.627   3.255   2.527  0.4233  0.5057 -0.4640
   66SAPC   C14 5413   5.718   3.386   2.741 -0.9296 -0.5979  0.1406
   66SAPC  H14A 5414   5.701   3.402   2.847  1.1171  3.1105  0.0921
   66SAPC  H14B 5415   5.811   3.429   2.708 -0.0449 -1.0259  1.9112
   66SAPC  H14C 5416   5.643   3.443   2.688  0.7062  0.5502 -1.0466
   66SAPC   C15 5417   5.857   3.196   2.770  0.1747 -0.4174 -0.3530
   66SAPC  H15A 5418   5.940   3.232   2.710  2.1867 -2.4510  1.0776
   66SAPC  H15B 5419   5.867   3.233   2.871 -0.5994  1.4756 -0.9248
   66SAPC  H15C 5420   5.873   3.091   2.787 -1.4165 -0.4133  1.4273
   66SAPC   C11 5421   5.602   3.167   2.940 -0.3891  0.0059 -0.1489
   66SAPC  H11A 5422   5.693   3.125   2.987 -0.9223 -0.9475  0.0580
   66SAPC  H11B 5423   5.528   3.092   2.977 -0.0831  0.1642  0.7994
   66SAPC     P 5424   5.418   3.345   2.966  0.1102 -0.2893  0.9205
   66SAPC   O13 5425   5.407   3.481   3.011  0.3212 -0.3218  0.0130
   66SAPC   O14 5426   5.376   3.317   2.824  0.4729  0.2282 -0.2647
   66SAPC   O12 5427   5.571   3.302   2.986  0.8983  0.1047 -0.1726
   66SAPC   O11 5428   5.345   3.256   3.061 -0.5563 -0.2209  0.6805
   66SAPC    C1 5429   5.356   3.257   3.203  0.2848  0.9988  0.0011
   66SAPC    HA 5430   5.346   3.149   3.230  0.5121  1.0636  0.3430
   66SAPC    HB 5431   5.461   3.275   3.234  0.7133 -1.5792  0.3309
   66SAPC    C2 5432   5.241   3.329   3.281 -0.7496 -0.1152 -0.5573
   66SAPC    HS 5433   5.262   3.438   3.281 -0.0746 -0.2211  0.6659
   66SAPC   O21 5434   5.242   3.286   3.422 -0.0222 -0.1014 -0.0646
   66SAPC   C21 5435   5.331   3.331   3.499  0.0541  0.4139 -0.1743
   66SAPC   O22 5436   5.419   3.409   3.476  0.6021  0.3999  0.0573
   66SAPC   C22 5437   5.302   3.284   3.641  0.7276 -0.2830 -0.3791
   66SAPC   H2R 5438   5.261   3.369   3.700 -1.0179 -2.0760  1.1123
   66SAPC   H2S 5439   5.229   3.202   3.625  2.2159 -1.6996 -0.1243
   66SAPC    C3 5440   5.107   3.309   3.207  0.4608  0.6913 -0.2217
   66SAPC    HX 5441   5.100   3.201   3.186  2.1703  0.4545  0.3078
   66SAPC    HY 5442   5.107   3.352   3.104  0.6851 -0.2964 -0.6400
   66SAPC   O31 5443   4.996   3.359   3.284 -0.4875  0.3030 -0.2287
   66SAPC   C31 5444   4.985   3.482   3.298  0.3576 -0.2719  1.0702
   66SAPC   O32 5445   5.052   3.574   3.243 -0.0253  0.1068 -0.2659
   66SAPC   C32 5446   4.867   3.517   3.382  0.7958  0.3830  0.2889
   66SAPC   H2X 5447   4.790   3.438   3.395  1.2258  0.1649  1.7328
   66SAPC   H2Y 5448   4.821   3.602   3.326  3.0305  0.3351 -1.7383
   66SAPC   C23 5449   5.423   3.222   3.718 -0.2088  0.5425  0.2501
   66SAPC   H3R 5450   5.487   3.303   3.759 -0.5800  0.2374  1.4977
   66SAPC   H3S 5451   5.471   3.148   3.652 -2.0043  0.8705 -1.5250
   66SAPC   C24 5452   5.376   3.154   3.843 -0.8853  0.5878  0.0806
   66SAPC   H4R 5453   5.306   3.075   3.811 -0.5690  0.1990  0.3402
   66SAPC   H4S 5454   5.320   3.223   3.909 -0.3847  1.3527 -0.2771
   66SAPC   C25 5455   5.497   3.103   3.919 -0.3333  0.1503  0.2118
   66SAPC   H5R 5456   5.566   3.177   3.963 -1.7244  1.2770  0.5611
   66SAPC   C26 5457   5.528   2.973   3.946 -0.2323 -0.0734 -0.0277
   66SAPC   H6R 5458   5.617   2.957   4.009 -0.9657  0.9355  1.3217
   66SAPC   C27 5459   5.453   2.857   3.909  0.3314 -0.2064 -0.3051
   66SAPC   H7R 5460   5.348   2.874   3.941 -0.1562 -0.5661 -1.6524
   66SAPC   H7S 5461   5.499   2.767   3.956  3.0633 -0.1270 -2.5638
   66SAPC   C28 5462   5.459   2.839   3.759 -0.9797  0.1745 -0.6174
   66SAPC   H8R 5463   5.543   2.879   3.701 -0.3559 -2.0520 -1.3533
   66SAPC   C29 5464   5.366   2.788   3.686  0.1479  0.3506 -0.0496
   66SAPC   H9R 5465   5.382   2.781   3.577 -0.5195  3.0227 -0.3819
   66SAPC  C210 5466   5.238   2.722   3.730  0.5281 -0.1971 -0.9986
   66SAPC  H10R 5467   5.153   2.778   3.684  1.0856  1.5170 -0.0392
   66SAPC  H10S 5468   5.217   2.728   3.839 -2.0124 -1.4691 -1.3558
   66SAPC  C211 5469   5.241   2.580   3.686  0.0300  0.3408  0.0381
   66SAPC  H11R 5470   5.278   2.570   3.583  1.1654 -0.9819  0.5426
   66SAPC  C212 5471   5.209   2.470   3.764 -0.3835  0.2879  0.9681
   66SAPC  H12R 5472   5.191   2.377   3.707 -0.1051  0.8985 -0.1586
   66SAPC  C213 5473   5.172   2.466   3.909  0.8788 -0.3086 -0.3135
   66SAPC  H13R 5474   5.137   2.366   3.941 -1.8788  0.9988  1.1221
   66SAPC  H13S 5475   5.079   2.525   3.924  1.1912  0.1768 -0.2513
   66SAPC  C214 5476   5.274   2.526   4.007  0.5292 -0.8356  0.2239
   66SAPC  H14R 5477   5.380   2.525   3.977 -0.1486 -0.9252 -2.4022
   66SAPC  C215 5478   5.251   2.577   4.125 -0.1590  0.2079 -0.9185
   66SAPC  H15R 5479   5.334   2.626   4.178 -2.8758 -0.4251  4.6374
   66SAPC  C216 5480   5.118   2.604   4.187 -0.6533  0.1203 -0.2125
   66SAPC  H16R 5481   5.036   2.562   4.125  1.0333 -1.1763 -1.6635
   66SAPC  H16S 5482   5.102   2.712   4.206  1.0714  0.0524  2.0609
   66SAPC  C217 5483   5.096   2.553   4.338 -0.3003  0.0025 -0.6892
   66SAPC  H17R 5484   5.186   2.555   4.403 -2.1455  1.1233  2.0000
   66SAPC  H17S 5485   5.063   2.448   4.323  0.2374  0.1058 -3.0140
   66SAPC  C218 5486   4.980   2.628   4.411 -0.2269 -0.1775 -0.4285
   66SAPC  H18R 5487   4.889   2.628   4.348  0.2580 -0.2161 -1.1439
   66SAPC  H18S 5488   5.011   2.734   4.422  2.8427 -0.7039 -2.6666
   66SAPC  C219 5489   4.949   2.587   4.556 -0.0610  0.1108  0.8004
   66SAPC  H19R 5490   4.914   2.483   4.570  2.8549 -0.9749  0.5723
   66SAPC  H19S 5491   4.874   2.656   4.601 -2.7949 -0.0522 -2.9849
   66SAPC  C220 5492   5.077   2.593   4.643 -0.2665  0.2653  0.8061
   66SAPC  H20R 5493   5.130   2.682   4.604  0.8304  0.0449  1.7514
   66SAPC  H20S 5494   5.135   2.498   4.639 -0.0483  0.3448  1.8367
   66SAPC  H20T 5495   5.057   2.602   4.752 -0.0031  0.8672  0.8040
   66SAPC   C33 5496   4.896   3.578   3.522  0.4906  0.3997 -0.4823
   66SAPC   H3X 5497   4.815   3.652   3.536  0.9030  1.1187 -1.7653
   66SAPC   H3Y 5498   4.992   3.634   3.521 -0.0326  1.3088 -1.6028
   66SAPC   C34 5499   4.895   3.474   3.640  0.9052 -0.2738 -0.0860
   66SAPC   H4X 5500   4.991   3.421   3.622  1.9217  1.4302  0.0578
   66SAPC   H4Y 5501   4.804   3.411   3.638 -0.2076  1.2614 -1.7529
   66SAPC   C35 5502   4.892   3.556   3.773 -0.0817 -0.1148  0.9470
   66SAPC   H5X 5503   4.808   3.629   3.765  0.3438  0.4227  1.2972
   66SAPC   H5Y 5504   4.975   3.628   3.789 -1.7485  1.7164  1.8765
   66SAPC   C36 5505   4.894   3.459   3.897  0.0469  0.4647  0.3615
   66SAPC   H6X 5506   4.900   3.353   3.865  0.7953  0.7624 -0.5029
   66SAPC   H6Y 5507   4.795   3.464   3.948 -0.0941 -1.4111  0.3199
   66SAPC   C37 5508   5.000   3.494   4.008 -0.3034  0.3636 -0.0918
   66SAPC   H7X 5509   4.995   3.601   4.040 -0.6005  0.5090 -0.6110
   66SAPC   H7Y 5510   5.101   3.484   3.964 -0.5777  0.7564 -0.8216
   66SAPC   C38 5511   4.986   3.408   4.132 -0.7305  0.4079  0.5344
   66SAPC   H8X 5512   4.877   3.409   4.156 -1.2605 -3.2768 -0.9707
   66SAPC   H8Y 5513   5.046   3.453   4.214  0.4931  1.9958 -1.1805
   66SAPC   C39 5514   5.035   3.262   4.106 -0.3175  0.3633 -0.6773
   66SAPC   H9X 5515   5.139   3.274   4.069 -0.5136  0.0861 -1.3326
   66SAPC   H9Y 5516   4.993   3.196   4.027 -1.4109 -1.5706  1.4160
   66SAPC  C310 5517   5.051   3.186   4.238  0.1029  0.0743 -0.9202
   66SAPC  H10X 5518   4.970   3.110   4.233 -0.3569  0.3831  0.9846
   66SAPC  H10Y 5519   5.034   3.255   4.324  1.8842 -0.0899 -0.3918
   66SAPC  C311 5520   5.186   3.103   4.235  0.0593  0.2500 -0.0823
   66SAPC  H11X 5521   5.266   3.179   4.227 -1.4036  1.8284 -0.2162
   66SAPC  H11Y 5522   5.194   3.030   4.152 -0.9638  2.4524 -2.2501
   66SAPC  C312 5523   5.197   3.025   4.366  0.7570  0.2205 -0.6448
   66SAPC  H12X 5524   5.107   2.961   4.380  0.8425 -0.6095 -3.2382
   66SAPC  H12Y 5525   5.181   3.093   4.451 -0.5140 -1.1810  0.2915
   66SAPC  C313 5526   5.324   2.936   4.385 -0.6737 -0.2013  0.5321
   66SAPC  H13X 5527   5.310   2.846   4.322 -3.1440  1.0260 -0.7953
   66SAPC  H13Y 5528   5.324   2.904   4.492  1.2001 -2.3508 -0.0372
   66SAPC  C314 5529   5.448   3.018   4.350  0.1529  0.4088  0.0920
   66SAPC  H14X 5530   5.440   3.121   4.393  0.7740 -0.2184  1.7654
   66SAPC  H14Y 5531   5.454   3.026   4.239 -1.6725  3.4123  0.0990
   66SAPC  C315 5532   5.579   2.951   4.392 -0.5539 -0.6495 -0.7877
   66SAPC  H15X 5533   5.588   2.854   4.338  1.5211 -0.4875 -0.7823
   66SAPC  H15Y 5534   5.577   2.934   4.501  0.7834  0.0865 -0.6313
   66SAPC  C316 5535   5.705   3.040   4.361  0.3449  0.2993 -0.0984
   66SAPC  H16X 5536   5.679   3.148   4.362  0.0264  0.3628 -3.2740
   66SAPC  H16Y 5537   5.740   3.011   4.259 -0.3456 -0.5717 -0.0978
   66SAPC  C317 5538   5.818   3.008   4.458  0.0438  0.3375  0.0842
   66SAPC  H17X 5539   5.845   2.901   4.449  0.6500  0.4291  0.7253
   66SAPC  H17Y 5540   5.790   3.018   4.565 -3.2236 -1.0414 -0.5087
   66SAPC  C318 5541   5.952   3.083   4.427 -0.0715 -0.0617 -0.7547
   66SAPC  H18X 5542   5.974   3.066   4.320  0.8845 -0.7855 -0.4661
   66SAPC  H18Y 5543   6.039   3.043   4.483  0.8350  0.0597 -2.0487
   66SAPC  H18Z 5544   5.936   3.192   4.441 -0.1605 -0.1786  0.1376
   67SAPC     N 5545   3.250   4.865   2.252  0.4277 -0.7629 -0.8779
   67SAPC   C12 5546   3.363   4.921   2.333 -0.6944 -0.1961 -0.7349
   67SAPC  H12A 5547   3.455   4.923   2.277 -0.7424 -1.8031 -0.8940
   67SAPC  H12B 5548   3.390   4.849   2.409  0.5373 -0.9881 -1.8700
   67SAPC   C13 5549   3.133   4.840   2.341 -0.0906 -0.0060 -0.1825
   67SAPC  H13A 5550   3.048   4.808   2.283 -1.0664  1.6585  0.2823
   67SAPC  H13B 5551   3.142   4.777   2.428 -1.1926 -1.7157 -1.2438
   67SAPC  H13C 5552   3.103   4.932   2.388  2.1875  0.7462 -0.0462
   67SAPC   C14 5553   3.205   4.973   2.156 -0.9283 -0.2254 -0.6237
   67SAPC  H14A 5554   3.123   4.937   2.094 -1.3260  0.0262 -0.2510
   67SAPC  H14B 5555   3.178   5.064   2.207 -0.9353 -0.1112 -0.8287
   67SAPC  H14C 5556   3.286   4.997   2.089 -0.3145  0.4062  0.3344
   67SAPC   C15 5557   3.296   4.751   2.171  0.3419 -0.2279 -0.3466
   67SAPC  H15A 5558   3.383   4.786   2.117  0.5198  2.6640  1.5660
   67SAPC  H15B 5559   3.320   4.669   2.237 -2.0324 -1.2260 -0.6235
   67SAPC  H15C 5560   3.226   4.711   2.099  0.6175 -1.8111  0.2243
   67SAPC   C11 5561   3.346   5.059   2.402 -0.0392  0.3832 -0.0359
   67SAPC  H11A 5562   3.342   5.131   2.318 -0.6495 -1.2992 -1.5116
   67SAPC  H11B 5563   3.446   5.081   2.444  0.1868 -0.6676 -0.0019
   67SAPC     P 5564   3.180   5.196   2.548  0.2598 -0.1148  0.1672
   67SAPC   O13 5565   3.296   5.281   2.582  0.1207  0.7074  0.3422
   67SAPC   O14 5566   3.080   5.256   2.459  0.1609 -0.3790 -0.4354
   67SAPC   O12 5567   3.229   5.062   2.493  0.3239  0.6218  0.3933
   67SAPC   O11 5568   3.104   5.158   2.682 -0.2591  0.1447  0.4393
   67SAPC    C1 5569   3.032   5.035   2.682  0.4899 -0.1699 -0.5598
   67SAPC    HA 5570   2.923   5.057   2.688  0.7109  1.1495 -1.0549
   67SAPC    HB 5571   3.028   4.982   2.584 -3.0546  1.5030 -1.4742
   67SAPC    C2 5572   3.091   4.941   2.792  0.1323 -0.1595  0.6173
   67SAPC    HS 5573   3.030   4.849   2.782  0.3909 -0.2936  0.2183
   67SAPC   O21 5574   3.088   4.998   2.923  0.0074 -0.1934  0.2789
   67SAPC   C21 5575   2.983   5.000   2.992  0.2115 -0.3775 -0.0967
   67SAPC   O22 5576   2.875   4.957   2.958  0.1263 -0.1016  0.8369
   67SAPC   C22 5577   3.009   5.068   3.121  0.0298 -0.2422  0.1080
   67SAPC   H2R 5578   3.118   5.086   3.135  0.4283 -2.4372  0.2601
   67SAPC   H2S 5579   2.961   5.167   3.134  1.7419  0.4109  1.8714
   67SAPC    C3 5580   3.240   4.898   2.758  0.3331 -0.3349 -0.2557
   67SAPC    HX 5581   3.307   4.985   2.737  0.1808 -0.7434 -2.8006
   67SAPC    HY 5582   3.234   4.846   2.660 -0.0746 -2.4343  0.8384
   67SAPC   O31 5583   3.293   4.792   2.844  0.9315 -0.2785 -0.0390
   67SAPC   C31 5584   3.378   4.837   2.938 -0.0753  0.5289 -0.6380
   67SAPC   O32 5585   3.406   4.951   2.959 -0.2247 -0.3020 -0.4432
   67SAPC   C32 5586   3.438   4.715   3.012 -0.5746 -0.0565 -0.1523
   67SAPC   H2X 5587   3.492   4.655   2.936 -0.6243  0.4181 -0.5652
   67SAPC   H2Y 5588   3.352   4.651   3.043 -0.1700 -1.6926 -2.1745
   67SAPC   C23 5589   2.969   4.974   3.233 -0.5223  0.3857  0.1844
   67SAPC   H3R 5590   2.867   4.929   3.227 -0.2357 -1.0480  3.5465
   67SAPC   H3S 5591   2.952   5.047   3.315 -0.7387 -1.3606  1.7597
   67SAPC   C24 5592   3.073   4.867   3.281  0.3382  0.0548 -0.1804
   67SAPC   H4R 5593   3.095   4.792   3.202  0.6055  0.1802 -0.2252
   67SAPC   H4S 5594   3.041   4.819   3.377 -0.8294  2.9149  0.9684
   67SAPC   C25 5595   3.212   4.921   3.309  0.2584  0.4970 -0.2766
   67SAPC   H5R 5596   3.274   4.941   3.221 -1.7035  0.7092 -1.6705
   67SAPC   C26 5597   3.273   4.956   3.422  0.2940  0.0668  0.4842
   67SAPC   H6R 5598   3.375   4.997   3.415  0.5112 -0.3074  1.3435
   67SAPC   C27 5599   3.226   4.950   3.565  0.3261 -0.3022  0.7770
   67SAPC   H7R 5600   3.150   4.872   3.586  0.4375 -0.9560 -1.0700
   67SAPC   H7S 5601   3.156   5.035   3.577 -1.1334 -0.9500 -2.1845
   67SAPC   C28 5602   3.324   4.941   3.670 -0.7989 -0.5299 -0.3133
   67SAPC   H8R 5603   3.424   4.899   3.657 -0.5253 -0.9529  2.6357
   67SAPC   C29 5604   3.308   4.978   3.803  0.0708 -0.1737  0.0670
   67SAPC   H9R 5605   3.396   4.973   3.868 -0.4078 -0.7212  0.6839
   67SAPC  C210 5606   3.187   5.039   3.870  0.6908  0.3139  0.2867
   67SAPC  H10R 5607   3.124   5.077   3.787 -0.1120  1.2665  1.2916
   67SAPC  H10S 5608   3.222   5.131   3.923  1.1514  0.8085 -0.8530
   67SAPC  C211 5609   3.106   4.932   3.940  0.3961 -0.5602 -0.5936
   67SAPC  H11R 5610   3.073   4.839   3.891 -2.7749 -0.1625  0.5437
   67SAPC  C212 5611   3.079   4.929   4.074 -0.3073  0.7306  0.6707
   67SAPC  H12R 5612   3.039   4.831   4.105 -1.5792  1.2163  0.6261
   67SAPC  C213 5613   3.098   5.046   4.159 -0.0152 -0.5683 -0.0983
   67SAPC  H13R 5614   3.002   5.081   4.204  0.9567  0.9808  0.8715
   67SAPC  H13S 5615   3.133   5.140   4.110 -0.6147 -0.1783  0.1992
   67SAPC  C214 5616   3.191   5.007   4.272  0.0173 -0.0255  0.2923
   67SAPC  H14R 5617   3.294   5.020   4.238 -0.3070  1.5579 -0.2031
   67SAPC  C215 5618   3.153   4.969   4.396 -0.2702  0.3895 -1.2239
   67SAPC  H15R 5619   3.243   4.947   4.456 -0.5983  1.2546 -0.3801
   67SAPC  C216 5620   3.015   4.936   4.446 -0.0878  0.2258  0.3361
   67SAPC  H16R 5621   3.024   4.828   4.472  0.7421 -0.2641 -1.7842
   67SAPC  H16S 5622   2.928   4.926   4.377 -0.1743 -1.6567  0.6715
   67SAPC  C217 5623   2.969   5.020   4.568  0.1296  0.3607 -0.2118
   67SAPC  H17R 5624   2.916   5.106   4.523  0.3737 -0.4655 -2.1728
   67SAPC  H17S 5625   3.049   5.052   4.638 -0.6738  0.9969  0.4339
   67SAPC  C218 5626   2.875   4.946   4.658 -0.2663  1.1745 -0.7922
   67SAPC  H18R 5627   2.930   4.857   4.696 -2.2107 -0.1327 -0.9215
   67SAPC  H18S 5628   2.794   4.914   4.590 -2.9830  2.2588  1.7035
   67SAPC  C219 5629   2.823   5.016   4.786 -0.4256 -0.1344 -0.5084
   67SAPC  H19R 5630   2.727   4.978   4.829 -0.5178  0.9579  0.3028
   67SAPC  H19S 5631   2.789   5.119   4.760 -1.0596  0.0198  0.8337
   67SAPC  C220 5632   2.937   5.028   4.890  0.9117  0.1896 -0.1603
   67SAPC  H20R 5633   2.992   5.124   4.873  1.7873  0.0533  1.6400
   67SAPC  H20S 5634   3.011   4.946   4.884  0.6409  0.0370 -1.5913
   67SAPC  H20T 5635   2.888   5.031   4.990  2.5177  0.8518  0.6454
   67SAPC   C33 5636   3.543   4.750   3.121  0.4415  0.3053  0.3739
   67SAPC   H3X 5637   3.484   4.808   3.195 -0.1552  1.2605 -0.8234
   67SAPC   H3Y 5638   3.620   4.817   3.076  0.5055 -0.4794 -0.7124
   67SAPC   C34 5639   3.621   4.634   3.171 -0.4527  0.3561 -0.5863
   67SAPC   H4X 5640   3.687   4.600   3.088 -0.1500  0.1987 -0.2858
   67SAPC   H4Y 5641   3.541   4.566   3.207 -2.0055  1.8994 -1.0039
   67SAPC   C35 5642   3.709   4.661   3.299  0.0288 -0.3709  0.2121
   67SAPC   H5X 5643   3.745   4.765   3.289 -2.2141  0.3542 -0.8020
   67SAPC   H5Y 5644   3.792   4.586   3.303 -2.0545 -2.8524 -0.0709
   67SAPC   C36 5645   3.629   4.645   3.431  0.3781  0.2071 -0.4061
   67SAPC   H6X 5646   3.577   4.547   3.433 -1.0944  0.8171 -3.1817
   67SAPC   H6Y 5647   3.558   4.730   3.428  1.8505  1.4790 -0.6402
   67SAPC   C37 5648   3.711   4.669   3.551 -1.1172  1.0332 -0.2094
   67SAPC   H7X 5649   3.742   4.775   3.539  0.3992  0.5182 -1.0839
   67SAPC   H7Y 5650   3.805   4.610   3.563 -1.6248 -0.1557 -1.8464
   67SAPC   C38 5651   3.632   4.655   3.683  0.1328 -0.6801  0.2205
   67SAPC   H8X 5652   3.578   4.560   3.702 -0.7164 -0.3208 -0.3289
   67SAPC   H8Y 5653   3.559   4.738   3.668  1.2078  0.0601 -1.2673
   67SAPC   C39 5654   3.711   4.682   3.814  0.2402  0.2715 -0.4350
   67SAPC   H9X 5655   3.776   4.772   3.804  1.1695 -0.3365  0.0574
   67SAPC   H9Y 5656   3.774   4.592   3.826 -1.9221 -0.9248  3.4513
   67SAPC  C310 5657   3.625   4.690   3.938 -0.1113 -0.9313 -0.1459
   67SAPC  H10X 5658   3.547   4.611   3.946 -1.3582  0.1202 -1.5634
   67SAPC  H10Y 5659   3.577   4.789   3.944 -0.2969 -1.0978  1.8034
   67SAPC  C311 5660   3.714   4.680   4.068  0.3257  0.5339 -0.1692
   67SAPC  H11X 5661   3.762   4.778   4.088 -2.0408  1.0362  4.4629
   67SAPC  H11Y 5662   3.786   4.596   4.065 -1.5819 -1.1980  0.3097
   67SAPC  C312 5663   3.622   4.659   4.188  0.4020 -0.5360  0.3271
   67SAPC  H12X 5664   3.571   4.560   4.181 -0.0873 -0.3174  0.7960
   67SAPC  H12Y 5665   3.552   4.744   4.203  1.7658  0.6830  0.0145
   67SAPC  C313 5666   3.708   4.651   4.316 -0.2088 -0.4625  0.0425
   67SAPC  H13X 5667   3.753   4.752   4.321 -1.0916 -0.0001 -0.9757
   67SAPC  H13Y 5668   3.798   4.588   4.305 -0.2823 -0.5501 -0.0622
   67SAPC  C314 5669   3.624   4.624   4.440 -0.8049 -0.8668 -0.1478
   67SAPC  H14X 5670   3.579   4.524   4.419  0.7696 -1.6745  0.1620
   67SAPC  H14Y 5671   3.552   4.708   4.448  1.7758  1.5023 -0.5082
   67SAPC  C315 5672   3.707   4.627   4.566  0.1797 -0.2092  0.9380
   67SAPC  H15X 5673   3.640   4.617   4.653 -1.8563 -0.4267 -0.5712
   67SAPC  H15Y 5674   3.758   4.726   4.574 -0.5933  0.1608  1.3891
   67SAPC  C316 5675   3.814   4.518   4.556  0.0274 -0.1455  0.3809
   67SAPC  H16X 5676   3.886   4.542   4.475  0.4811 -0.9426  0.5367
   67SAPC  H16Y 5677   3.767   4.421   4.531  1.0909 -1.4138  2.8943
   67SAPC  C317 5678   3.899   4.500   4.679  0.0842 -0.2869 -0.0034
   67SAPC  H17X 5679   3.842   4.458   4.765 -3.4004  0.6834 -1.6490
   67SAPC  H17Y 5680   3.938   4.599   4.712 -1.2485 -0.1605  1.3523
   67SAPC  C318 5681   4.023   4.413   4.654 -0.0722 -0.5037 -0.1519
   67SAPC  H18X 5682   4.060   4.431   4.550 -1.9087  1.7957 -0.4945
   67SAPC  H18Y 5683   4.001   4.304   4.649 -0.3127 -0.4177 -2.4060
   67SAPC  H18Z 5684   4.107   4.431   4.723 -1.0309  2.3773  0.4055
   68SAPC     N 5685   4.917   4.346   2.169  0.5314 -0.4260  0.4382
   68SAPC   C12 5686   5.058   4.305   2.156  0.0029 -0.0681 -0.3014
   68SAPC  H12A 5687   5.121   4.372   2.098  0.0729 -0.0696 -0.2272
   68SAPC  H12B 5688   5.059   4.214   2.099  0.4289 -0.4311  0.2753
   68SAPC   C13 5689   4.899   4.459   2.265  0.0123 -0.7059  0.4197
   68SAPC  H13A 5690   4.932   4.559   2.240  2.8836 -1.5200  0.5891
   68SAPC  H13B 5691   4.797   4.468   2.300  0.2705 -1.3710  1.3714
   68SAPC  H13C 5692   4.951   4.431   2.355  1.9953 -0.2213 -0.5183
   68SAPC   C14 5693   4.854   4.375   2.040  0.0937  0.3967  0.0716
   68SAPC  H14A 5694   4.748   4.395   2.049 -0.3875 -0.0594 -3.1748
   68SAPC  H14B 5695   4.900   4.465   2.003  1.4252 -0.0453  0.6110
   68SAPC  H14C 5696   4.868   4.301   1.963  0.1523  0.1199  0.3496
   68SAPC   C15 5697   4.831   4.237   2.222 -0.2459  0.0707  0.0042
   68SAPC  H15A 5698   4.862   4.216   2.324  0.3215 -1.9790 -0.5440
   68SAPC  H15B 5699   4.725   4.259   2.232  0.0715  0.8873  2.0826
   68SAPC  H15C 5700   4.844   4.147   2.165 -0.2180  1.5392 -2.4188
   68SAPC   C11 5701   5.135   4.276   2.290 -0.6696  0.6427  0.2588
   68SAPC  H11A 5702   5.128   4.372   2.346 -3.2063  0.2005  0.8540
   68SAPC  H11B 5703   5.242   4.259   2.268 -0.2699  2.9330  0.2398
   68SAPC     P 5704   5.081   4.132   2.509 -0.2958 -0.1998 -0.4361
   68SAPC   O13 5705   4.972   4.039   2.537  0.4915  0.2905  0.1786
   68SAPC   O14 5706   5.217   4.091   2.547 -0.1997 -0.2386  0.3068
   68SAPC   O12 5707   5.078   4.169   2.360  0.2738  0.1628 -0.1384
   68SAPC   O11 5708   5.053   4.276   2.579 -0.0264 -0.0253 -0.4225
   68SAPC    C1 5709   4.913   4.308   2.624 -0.9825  0.8498  0.4110
   68SAPC    HA 5710   4.887   4.413   2.602 -1.0878  0.7352 -0.0268
   68SAPC    HB 5711   4.839   4.253   2.562 -0.2138 -0.0730  0.2790
   68SAPC    C2 5712   4.899   4.300   2.781  0.5889  0.0085  0.3407
   68SAPC    HS 5713   4.803   4.348   2.808  0.8073  1.3711 -1.1293
   68SAPC   O21 5714   5.014   4.347   2.851  0.4707 -0.7526  0.2135
   68SAPC   C21 5715   4.992   4.466   2.910  0.0203  0.4718  0.3277
   68SAPC   O22 5716   4.897   4.533   2.887  0.3902 -0.4274 -0.8950
   68SAPC   C22 5717   5.115   4.494   2.995 -0.5606  1.0314  0.5579
   68SAPC   H2R 5718   5.207   4.457   2.945 -0.5206 -0.5450  1.7425
   68SAPC   H2S 5719   5.122   4.605   2.998 -0.7703  1.0379  0.9243
   68SAPC    C3 5720   4.895   4.156   2.827 -0.1724 -0.5111 -0.3414
   68SAPC    HX 5721   4.995   4.108   2.811 -0.4763 -1.2988  0.0560
   68SAPC    HY 5722   4.823   4.110   2.756 -4.8697  2.6104  1.9510
   68SAPC   O31 5723   4.843   4.162   2.965  0.0683  0.5384 -0.5140
   68SAPC   C31 5724   4.877   4.051   3.033 -0.4107 -0.2693 -0.1280
   68SAPC   O32 5725   4.951   3.963   2.991 -0.0853  0.1834  0.4120
   68SAPC   C32 5726   4.807   4.056   3.168  0.1601  0.0043  0.4255
   68SAPC   H2X 5727   4.722   4.128   3.164 -0.1236 -0.3434  0.1237
   68SAPC   H2Y 5728   4.876   4.096   3.246 -1.4694  0.1309  1.8836
   68SAPC   C23 5729   5.108   4.434   3.137 -1.2300  0.2271 -0.4060
   68SAPC   H3R 5730   5.193   4.470   3.199 -0.4497 -2.4278  0.1853
   68SAPC   H3S 5731   5.111   4.323   3.134 -0.0738  0.1942  0.9158
   68SAPC   C24 5732   4.983   4.486   3.217  0.6141  1.0465 -0.0644
   68SAPC   H4R 5733   4.961   4.422   3.305 -0.6073 -0.1835 -1.2372
   68SAPC   H4S 5734   4.902   4.457   3.147 -0.7435 -2.1754  2.5953
   68SAPC   C25 5735   4.980   4.633   3.247  0.1311  0.8251 -0.2346
   68SAPC   H5R 5736   5.017   4.692   3.162  2.7033 -1.5186 -0.8713
   68SAPC   C26 5737   4.940   4.698   3.355  0.6863 -0.3788  0.3069
   68SAPC   H6R 5738   4.943   4.808   3.354  1.9540 -0.3782  1.3134
   68SAPC   C27 5739   4.877   4.630   3.482 -0.1760  0.4682  0.5603
   68SAPC   H7R 5740   4.956   4.598   3.554  1.4953 -0.5120 -1.6135
   68SAPC   H7S 5741   4.816   4.540   3.462 -0.3865 -0.0092  2.9711
   68SAPC   C28 5742   4.783   4.727   3.549 -0.2625 -0.5610 -0.0223
   68SAPC   H8R 5743   4.691   4.734   3.489  0.8303  0.7119 -1.6326
   68SAPC   C29 5744   4.800   4.787   3.664  0.1871  0.9114  0.5545
   68SAPC   H9R 5745   4.714   4.841   3.705 -1.4017 -0.6222 -0.6035
   68SAPC  C210 5746   4.917   4.773   3.751  0.2756  0.1482 -0.4455
   68SAPC  H10R 5747   4.939   4.873   3.793  2.6777 -0.6153  0.2589
   68SAPC  H10S 5748   5.009   4.747   3.696  2.2519  3.5556  0.9487
   68SAPC  C211 5749   4.898   4.674   3.865 -0.5279  0.7929 -0.5303
   68SAPC  H11R 5750   4.860   4.577   3.828 -0.5074 -0.1186  1.6979
   68SAPC  C212 5751   4.906   4.675   4.001 -0.1807  0.5564 -0.5143
   68SAPC  H12R 5752   4.900   4.584   4.062 -0.4608 -0.1928 -1.6291
   68SAPC  C213 5753   4.954   4.790   4.090  0.4745  0.0248 -0.5133
   68SAPC  H13R 5754   5.037   4.842   4.038 -0.4671 -0.1475 -2.2918
   68SAPC  H13S 5755   4.983   4.748   4.189  1.0199  1.8454  0.1306
   68SAPC  C214 5756   4.844   4.889   4.120 -0.5158 -0.6747 -0.6010
   68SAPC  H14R 5757   4.791   4.929   4.031  0.6826  0.8550 -0.6623
   68SAPC  C215 5758   4.807   4.926   4.243 -0.3443 -0.4831 -0.1963
   68SAPC  H15R 5759   4.728   5.001   4.255  0.8574  0.9612 -0.9142
   68SAPC  C216 5760   4.861   4.881   4.372 -0.3589 -0.7650 -0.2874
   68SAPC  H16R 5761   4.957   4.936   4.387 -1.2074  1.5885 -2.6465
   68SAPC  H16S 5762   4.879   4.772   4.384 -1.3003 -1.0660 -1.3597
   68SAPC  C217 5763   4.778   4.926   4.493 -0.2910 -0.2027  0.2234
   68SAPC  H17R 5764   4.693   4.855   4.501  0.8062 -1.7472 -1.1453
   68SAPC  H17S 5765   4.733   5.025   4.470 -0.1461 -0.4536 -1.2595
   68SAPC  C218 5766   4.861   4.930   4.623 -0.1862  0.3394 -0.0949
   68SAPC  H18R 5767   4.936   5.012   4.623 -0.8983  1.0170 -0.7474
   68SAPC  H18S 5768   4.917   4.834   4.628  1.8274  1.3205 -2.0231
   68SAPC  C219 5769   4.771   4.937   4.745  0.6294 -0.0859 -0.2089
   68SAPC  H19R 5770   4.699   4.854   4.756  0.5618 -0.2872 -1.9628
   68SAPC  H19S 5771   4.701   5.023   4.746 -0.1152 -0.6856 -0.3605
   68SAPC  C220 5772   4.861   4.947   4.861  0.6695  0.1526 -0.3847
   68SAPC  H20R 5773   4.941   5.024   4.850  1.3273  0.7556  5.2941
   68SAPC  H20S 5774   4.914   4.852   4.885  1.4930  0.6434 -0.2283
   68SAPC  H20T 5775   4.801   4.967   4.952  3.1501  0.2294  1.3355
   68SAPC   C33 5776   4.759   3.923   3.219 -0.2932 -0.0270  0.3171
   68SAPC   H3X 5777   4.845   3.854   3.230 -0.8113 -0.9934 -1.4015
   68SAPC   H3Y 5778   4.684   3.884   3.147 -0.5610  0.8972  0.0885
   68SAPC   C34 5779   4.695   3.930   3.365 -0.1091  0.4991  0.2862
   68SAPC   H4X 5780   4.633   3.838   3.376  0.9675 -0.2518  0.2654
   68SAPC   H4Y 5781   4.631   4.020   3.378 -0.1869  0.2571  1.8000
   68SAPC   C35 5782   4.802   3.946   3.473  0.3703  0.0109 -0.8579
   68SAPC   H5X 5783   4.842   4.050   3.471  0.9212 -0.0852  1.5250
   68SAPC   H5Y 5784   4.886   3.876   3.452  0.8972  0.6182 -0.8414
   68SAPC   C36 5785   4.744   3.921   3.618  0.0807 -0.5523 -0.4483
   68SAPC   H6X 5786   4.708   3.816   3.609  1.6622 -1.1397 -0.2664
   68SAPC   H6Y 5787   4.659   3.988   3.642  1.5464  1.8941 -1.7172
   68SAPC   C37 5788   4.853   3.934   3.729 -0.2852  0.1327  0.7702
   68SAPC   H7X 5789   4.945   3.885   3.690  0.0652  0.4089  1.2408
   68SAPC   H7Y 5790   4.818   3.882   3.821 -2.1573  0.6250  0.3759
   68SAPC   C38 5791   4.886   4.082   3.759 -0.7941  0.4650 -0.3132
   68SAPC   H8X 5792   4.790   4.138   3.766 -0.9567  0.6047 -2.9585
   68SAPC   H8Y 5793   4.936   4.124   3.669  1.8273  1.3526  1.4392
   68SAPC   C39 5794   4.976   4.096   3.884 -0.7253  0.4585 -0.4768
   68SAPC   H9X 5795   5.051   4.014   3.886 -1.9775 -0.7262 -0.4216
   68SAPC   H9Y 5796   4.918   4.070   3.975  0.3577 -1.7905 -0.3661
   68SAPC  C310 5797   5.058   4.222   3.908  0.0686 -0.3646 -0.2955
   68SAPC  H10X 5798   4.998   4.316   3.910  1.8984  0.8653  1.5414
   68SAPC  H10Y 5799   5.142   4.233   3.836  1.1518 -1.3806  0.7813
   68SAPC  C311 5800   5.125   4.225   4.055 -0.3028  0.0921  0.0327
   68SAPC  H11X 5801   5.202   4.304   4.040 -2.1960  2.1209  0.5086
   68SAPC  H11Y 5802   5.154   4.119   4.074 -0.9636  0.0106  0.6217
   68SAPC  C312 5803   5.023   4.267   4.160 -0.3529  0.2037  0.2618
   68SAPC  H12X 5804   4.920   4.232   4.135 -0.7219  0.9443  0.7009
   68SAPC  H12Y 5805   5.013   4.378   4.164  1.8777  0.6516 -2.9978
   68SAPC  C313 5806   5.064   4.208   4.293 -0.0712 -0.2296 -0.5120
   68SAPC  H13X 5807   5.165   4.243   4.324 -0.2728  2.2916 -2.4060
   68SAPC  H13Y 5808   5.072   4.097   4.287  1.0217 -0.3350  1.6887
   68SAPC  C314 5809   4.953   4.227   4.405  0.4252  0.1002  0.5153
   68SAPC  H14X 5810   4.859   4.216   4.348 -0.0702  1.0777  1.1090
   68SAPC  H14Y 5811   4.950   4.328   4.451 -2.6350  0.1956  0.2895
   68SAPC  C315 5812   4.959   4.111   4.511 -0.0515 -0.3195 -0.5731
   68SAPC  H15X 5813   5.057   4.123   4.564 -0.6167 -2.2317  1.0185
   68SAPC  H15Y 5814   4.957   4.009   4.467 -1.4116 -1.3659  1.7433
   68SAPC  C316 5815   4.841   4.113   4.613  0.2895 -0.0549 -0.6738
   68SAPC  H16X 5816   4.799   4.019   4.655 -1.6594  0.8516 -0.4921
   68SAPC  H16Y 5817   4.754   4.154   4.557 -0.7032  1.2500  1.6912
   68SAPC  C317 5818   4.855   4.223   4.711  0.0195  0.4881 -0.1939
   68SAPC  H17X 5819   4.764   4.279   4.741  0.8880  0.8780  1.9681
   68SAPC  H17Y 5820   4.920   4.303   4.668 -1.1124  0.5111 -1.9340
   68SAPC  C318 5821   4.925   4.161   4.841  0.9393  0.9311  0.3419
   68SAPC  H18X 5822   5.007   4.091   4.816 -1.9238 -1.6908 -2.8342
   68SAPC  H18Y 5823   4.845   4.107   4.897  1.2626  0.1979  0.1045
   68SAPC  H18Z 5824   4.963   4.249   4.897 -0.3257  0.8768  1.3363
   69SAPC     N 5825   4.081   1.064   2.262 -0.2095  0.6897  0.8282
   69SAPC   C12 5826   4.060   1.062   2.403  0.6500 -0.2075  0.6341
   69SAPC  H12A 5827   4.014   0.966   2.421 -0.5664  0.0439 -0.9008
   69SAPC  H12B 5828   3.990   1.139   2.430 -0.0919 -0.0223 -1.5778
   69SAPC   C13 5829   4.142   1.194   2.221 -0.3420 -0.2881  0.2786
   69SAPC  H13A 5830   4.173   1.197   2.117 -1.6145 -1.7756 -0.1934
   69SAPC  H13B 5831   4.081   1.281   2.238 -0.5597 -0.3471 -0.1783
   69SAPC  H13C 5832   4.235   1.198   2.276  0.1949 -2.6909 -0.3151
   69SAPC   C14 5833   4.179   0.957   2.215  1.0922 -0.5068 -0.8033
   69SAPC  H14A 5834   4.275   0.970   2.263  0.0928  1.8067  0.7531
   69SAPC  H14B 5835   4.145   0.857   2.238 -1.7816  0.6735  0.6716
   69SAPC  H14C 5836   4.201   0.965   2.110  0.4973  0.3953 -0.8667
   69SAPC   C15 5837   3.955   1.051   2.187 -0.2037  0.7752  0.1429
   69SAPC  H15A 5838   3.904   0.961   2.218  0.9437  0.4879  1.3100
   69SAPC  H15B 5839   3.891   1.132   2.220  1.4937  2.0486  0.4249
   69SAPC  H15C 5840   3.978   1.058   2.082  3.1263  2.2402  0.8334
   69SAPC   C11 5841   4.183   1.075   2.493  0.6947  0.2189 -0.0647
   69SAPC  H11A 5842   4.242   0.981   2.483 -0.8980 -0.6498 -2.0652
   69SAPC  H11B 5843   4.130   1.080   2.591 -0.4039 -2.3822 -0.4453
   69SAPC     P 5844   4.364   1.250   2.574  0.1273  0.1002  0.1215
   69SAPC   O13 5845   4.498   1.229   2.512 -0.0835  0.0184 -0.4766
   69SAPC   O14 5846   4.326   1.388   2.605  0.4037  0.1357  0.4086
   69SAPC   O12 5847   4.259   1.193   2.471  0.0182  0.2966  0.0928
   69SAPC   O11 5848   4.343   1.169   2.703  0.0487  0.4758 -0.3522
   69SAPC    C1 5849   4.408   1.045   2.742  0.3639 -0.7838 -0.0635
   69SAPC    HA 5850   4.331   0.967   2.759 -0.9653  0.4327 -0.3184
   69SAPC    HB 5851   4.480   1.009   2.665 -0.0242 -0.9286 -0.3637
   69SAPC    C2 5852   4.486   1.067   2.873  0.4768  0.1367 -0.1574
   69SAPC    HS 5853   4.566   0.992   2.887 -0.6717 -1.0100  0.5298
   69SAPC   O21 5854   4.397   1.060   2.985  0.1032 -0.5587 -0.2888
   69SAPC   C21 5855   4.346   0.940   3.012  0.5566 -0.5922  0.4298
   69SAPC   O22 5856   4.386   0.836   2.966  0.0946  0.5230  0.8765
   69SAPC   C22 5857   4.237   0.974   3.111  0.0008 -0.7304  0.4687
   69SAPC   H2R 5858   4.278   1.004   3.209  0.1812  0.1508  0.1319
   69SAPC   H2S 5859   4.171   1.055   3.072 -0.1313 -0.0587  2.0262
   69SAPC    C3 5860   4.564   1.202   2.866  0.0740  0.1485 -0.0292
   69SAPC    HX 5861   4.481   1.272   2.840 -2.4381 -1.9097  1.8946
   69SAPC    HY 5862   4.623   1.201   2.772  0.1817  1.8407 -0.0128
   69SAPC   O31 5863   4.642   1.230   2.991 -0.0295 -0.2875  0.6129
   69SAPC   C31 5864   4.768   1.182   2.983 -0.2008  0.1615  0.5498
   69SAPC   O32 5865   4.811   1.098   2.908 -0.0576 -0.5576  0.0848
   69SAPC   C32 5866   4.848   1.244   3.100 -1.3009  0.3734 -1.0729
   69SAPC   H2X 5867   4.791   1.217   3.192  1.5476  1.0015  1.0273
   69SAPC   H2Y 5868   4.862   1.354   3.104  0.5985  0.1647 -1.0353
   69SAPC   C23 5869   4.145   0.857   3.140 -0.7261  0.0681 -0.5063
   69SAPC   H3R 5870   4.139   0.787   3.054 -1.3093 -0.3149 -0.1568
   69SAPC   H3S 5871   4.042   0.896   3.157  0.8394  5.1850 -1.0680
   69SAPC   C24 5872   4.178   0.777   3.271 -0.2306 -0.7367  0.7485
   69SAPC   H4R 5873   4.100   0.700   3.291  0.2199 -0.6082  3.3095
   69SAPC   H4S 5874   4.178   0.855   3.350  1.8180  0.5979 -0.4941
   69SAPC   C25 5875   4.309   0.703   3.267  0.0202 -0.0936  0.1516
   69SAPC   H5R 5876   4.342   0.669   3.168 -2.3940  1.6602 -1.3779
   69SAPC   C26 5877   4.392   0.668   3.366  0.2969  0.2322  0.1918
   69SAPC   H6R 5878   4.474   0.598   3.343  0.7073  0.0645  1.9934
   69SAPC   C27 5879   4.370   0.700   3.513 -0.1067 -0.7971  0.6223
   69SAPC   H7R 5880   4.310   0.793   3.518 -3.1608 -2.6058  0.2799
   69SAPC   H7S 5881   4.469   0.718   3.558  0.0642  0.5980 -0.2465
   69SAPC   C28 5882   4.301   0.586   3.575 -0.5355  0.0880 -0.0178
   69SAPC   H8R 5883   4.279   0.495   3.516 -3.4090  0.4588  0.3246
   69SAPC   C29 5884   4.250   0.599   3.700 -0.6114 -0.0658 -0.8549
   69SAPC   H9R 5885   4.205   0.509   3.744 -0.6546 -0.5585 -1.8718
   69SAPC  C210 5886   4.248   0.718   3.806 -0.1851  0.3295  0.0786
   69SAPC  H10R 5887   4.157   0.773   3.775 -0.9879  0.0081  1.7658
   69SAPC  H10S 5888   4.334   0.784   3.781 -0.8683  0.4401 -2.2776
   69SAPC  C211 5889   4.252   0.685   3.952 -0.2323  0.8443  0.2436
   69SAPC  H11R 5890   4.354   0.691   3.993  0.3115 -1.3602 -0.6430
   69SAPC  C212 5891   4.150   0.651   4.029  0.4273  0.1226  0.3952
   69SAPC  H12R 5892   4.158   0.664   4.138 -3.8174  2.9102  0.6200
   69SAPC  C213 5893   4.004   0.633   3.980  0.5817  0.2414 -0.3570
   69SAPC  H13R 5894   3.986   0.666   3.875 -1.5359  2.8719  0.7241
   69SAPC  H13S 5895   3.938   0.705   4.031 -0.5446 -1.9012  1.4046
   69SAPC  C214 5896   3.968   0.492   4.010 -0.2717 -0.5349  0.3786
   69SAPC  H14R 5897   4.024   0.419   3.950  0.9924  1.4112 -0.9362
   69SAPC  C215 5898   3.877   0.454   4.105  0.3512  0.1809 -0.1502
   69SAPC  H15R 5899   3.849   0.348   4.101 -2.2200  0.7602  0.4700
   69SAPC  C216 5900   3.797   0.543   4.199  0.4346 -0.0331  0.4317
   69SAPC  H16R 5901   3.689   0.521   4.186  0.1471  1.8276 -0.8900
   69SAPC  H16S 5902   3.800   0.652   4.175 -1.4284 -0.4317 -1.9575
   69SAPC  C217 5903   3.840   0.515   4.346  0.7387 -0.5233  0.0684
   69SAPC  H17R 5904   3.947   0.544   4.351  0.3940  0.6028  1.7285
   69SAPC  H17S 5905   3.839   0.406   4.364  2.0448 -0.4057  1.0060
   69SAPC  C218 5906   3.764   0.601   4.445 -0.1802 -1.1680 -0.0236
   69SAPC  H18R 5907   3.656   0.605   4.422 -0.6260  1.2304  2.1373
   69SAPC  H18S 5908   3.791   0.709   4.446 -1.3644 -0.8634  0.4775
   69SAPC  C219 5909   3.783   0.548   4.586  0.1234  0.6167 -0.6216
   69SAPC  H19R 5910   3.893   0.543   4.601  0.2030 -0.3387 -1.4512
   69SAPC  H19S 5911   3.748   0.443   4.594  3.7517 -0.7053 -0.4624
   69SAPC  C220 5912   3.710   0.645   4.685 -0.9673  0.3393 -0.2418
   69SAPC  H20R 5913   3.601   0.628   4.675 -1.0820  0.5997  0.4983
   69SAPC  H20S 5914   3.745   0.745   4.652 -1.2437  0.3612 -0.4691
   69SAPC  H20T 5915   3.735   0.636   4.793  1.3362 -1.1289 -0.8215
   69SAPC   C33 5916   4.980   1.164   3.108  0.3417  0.8755 -0.2545
   69SAPC   H3X 5917   5.038   1.193   3.018  1.6270 -0.8944 -0.0554
   69SAPC   H3Y 5918   4.959   1.055   3.108  1.5571  0.6205 -1.1105
   69SAPC   C34 5919   5.058   1.190   3.238 -0.0770  0.2366 -0.2784
   69SAPC   H4X 5920   5.159   1.149   3.216 -0.3026 -1.0225  0.8729
   69SAPC   H4Y 5921   5.010   1.133   3.320  0.2705  0.8199  0.3347
   69SAPC   C35 5922   5.067   1.339   3.290 -0.7375 -0.1026  0.1800
   69SAPC   H5X 5923   4.963   1.374   3.310 -2.0208 -2.0858 -2.3628
   69SAPC   H5Y 5924   5.096   1.393   3.198  0.6208  2.0457  1.7742
   69SAPC   C36 5925   5.158   1.365   3.413 -0.3916 -0.2245 -0.2372
   69SAPC   H6X 5926   5.189   1.471   3.420 -1.7975  0.5496 -3.6656
   69SAPC   H6Y 5927   5.250   1.303   3.398  0.5537  0.6586  1.5881
   69SAPC   C37 5928   5.094   1.336   3.551  0.6267  0.1497 -0.2194
   69SAPC   H7X 5929   5.129   1.237   3.588 -1.3845 -1.0716 -1.3699
   69SAPC   H7Y 5930   4.986   1.315   3.531  1.0927 -1.2123 -1.5443
   69SAPC   C38 5931   5.100   1.447   3.660 -0.2586  0.2152  0.6041
   69SAPC   H8X 5932   5.035   1.406   3.739 -0.0542 -3.0553 -0.7742
   69SAPC   H8Y 5933   5.060   1.541   3.616  0.1538 -0.1067 -0.5113
   69SAPC   C39 5934   5.238   1.471   3.714 -0.7596  0.4007 -0.3291
   69SAPC   H9X 5935   5.322   1.467   3.641 -0.6778  1.2419 -0.2858
   69SAPC   H9Y 5936   5.260   1.378   3.772  1.1313  0.0389 -1.5545
   69SAPC  C310 5937   5.245   1.606   3.788 -0.4067 -0.5135  0.5824
   69SAPC  H10X 5938   5.148   1.611   3.841  1.0265 -0.6611  3.3776
   69SAPC  H10Y 5939   5.262   1.679   3.706  0.5559 -0.2302  1.0184
   69SAPC  C311 5940   5.358   1.607   3.886  0.5437  0.8311  0.3407
   69SAPC  H11X 5941   5.455   1.597   3.834  0.2912  1.3695 -0.2405
   69SAPC  H11Y 5942   5.354   1.519   3.955  2.0588  0.9252  0.5825
   69SAPC  C312 5943   5.363   1.735   3.970 -0.2901 -0.0266  0.2327
   69SAPC  H12X 5944   5.273   1.736   4.035 -0.6435 -1.3193 -0.1946
   69SAPC  H12Y 5945   5.374   1.831   3.916  0.3248 -0.2649 -0.0804
   69SAPC  C313 5946   5.486   1.741   4.061  0.2184  0.9339  0.3148
   69SAPC  H13X 5947   5.546   1.833   4.046  0.7909  0.4987 -0.1112
   69SAPC  H13Y 5948   5.562   1.663   4.040 -0.5226 -0.8916  3.6436
   69SAPC  C314 5949   5.466   1.722   4.218  0.4777  0.0376  0.7654
   69SAPC  H14X 5950   5.442   1.613   4.223 -0.1339  0.0641 -1.0805
   69SAPC  H14Y 5951   5.386   1.787   4.259  0.3373 -0.1800  0.8436
   69SAPC  C315 5952   5.597   1.738   4.288  0.3270 -0.0182  0.3744
   69SAPC  H15X 5953   5.632   1.841   4.266  2.1102 -0.8947 -1.2565
   69SAPC  H15Y 5954   5.676   1.665   4.260  0.3322 -0.0211  0.3966
   69SAPC  C316 5955   5.594   1.725   4.440  0.4145  0.2057  0.0440
   69SAPC  H16X 5956   5.700   1.718   4.472  0.7813 -0.9671 -1.3059
   69SAPC  H16Y 5957   5.542   1.630   4.462 -0.4960  0.7183  0.1471
   69SAPC  C317 5958   5.527   1.838   4.520  0.3874  0.7193 -0.4083
   69SAPC  H17X 5959   5.419   1.837   4.493  0.3512 -0.6353 -0.2942
   69SAPC  H17Y 5960   5.553   1.940   4.485 -1.4792  0.8016 -1.7036
   69SAPC  C318 5961   5.541   1.817   4.673  0.1405  0.6161  0.2090
   69SAPC  H18X 5962   5.648   1.811   4.701 -0.0410  0.1046  0.8214
   69SAPC  H18Y 5963   5.510   1.712   4.689  4.7117 -1.1225 -0.8360
   69SAPC  H18Z 5964   5.490   1.894   4.734 -1.4479 -1.6627  1.9165
   70SAPC     N 5965   0.386   5.257   2.262  0.1578 -0.6426 -0.2499
   70SAPC   C12 5966   0.401   5.179   2.392 -0.5364 -0.5372  0.3768
   70SAPC  H12A 5967   0.456   5.238   2.463  1.2496 -1.9789  0.2870
   70SAPC  H12B 5968   0.471   5.098   2.373 -1.1845 -1.0585  0.1815
   70SAPC   C13 5969   0.517   5.276   2.202  0.2363  0.0240  0.0097
   70SAPC  H13A 5970   0.580   5.337   2.266 -0.5972  0.5096  0.3830
   70SAPC  H13B 5971   0.560   5.183   2.168 -1.8922 -1.4120  0.9547
   70SAPC  H13C 5972   0.515   5.328   2.108 -0.8884 -0.1944 -0.1076
   70SAPC   C14 5973   0.296   5.175   2.169 -0.4636  0.1247 -0.2796
   70SAPC  H14A 5974   0.308   5.215   2.069  0.5580 -0.4429 -0.3900
   70SAPC  H14B 5975   0.308   5.068   2.157 -1.1742  0.0484 -0.3860
   70SAPC  H14C 5976   0.193   5.192   2.197 -0.3509 -0.2037  0.3378
   70SAPC   C15 5977   0.314   5.386   2.294 -0.5297 -0.0730  1.0805
   70SAPC  H15A 5978   0.281   5.422   2.198 -0.8568  0.0747  1.2481
   70SAPC  H15B 5979   0.239   5.375   2.371 -0.9344 -1.2455  0.5261
   70SAPC  H15C 5980   0.387   5.464   2.312  0.5158 -0.6873 -0.3692
   70SAPC   C11 5981   0.281   5.124   2.465  0.6024 -0.4926  0.2634
   70SAPC  H11A 5982   0.313   5.058   2.548 -0.4103 -1.9203 -0.4249
   70SAPC  H11B 5983   0.214   5.068   2.396  0.1902 -0.1782  0.4038
   70SAPC     P 5984   0.254   5.311   2.635 -0.0413 -0.3146 -0.1838
   70SAPC   O13 5985   0.398   5.346   2.620  0.0458  0.3110  0.6806
   70SAPC   O14 5986   0.160   5.423   2.656 -0.3220 -0.4732  0.6041
   70SAPC   O12 5987   0.202   5.223   2.514  0.5947 -0.2216  0.1808
   70SAPC   O11 5988   0.233   5.211   2.757  0.1358 -0.2892 -0.0525
   70SAPC    C1 5989   0.110   5.146   2.780  0.6672  1.1814 -0.2514
   70SAPC    HA 5990   0.029   5.160   2.706 -0.9382  0.5944  1.3135
   70SAPC    HB 5991   0.135   5.038   2.785  0.0626  1.0832  1.1199
   70SAPC    C2 5992   0.029   5.180   2.909 -0.0845  0.1519 -0.0885
   70SAPC    HS 5993   0.005   5.287   2.894  2.4211  0.4908 -2.3706
   70SAPC   O21 5994   0.109   5.142   3.025 -0.2217  0.2380 -0.3065
   70SAPC   C21 5995   0.167   5.233   3.092  1.0045  0.3870 -0.4261
   70SAPC   O22 5996   0.179   5.348   3.053  0.0479 -0.3807 -0.5595
   70SAPC   C22 5997   0.239   5.180   3.216  0.1509  0.3779  0.4145
   70SAPC   H2R 5998   0.163   5.198   3.295  0.9589  0.9945  1.0693
   70SAPC   H2S 5999   0.274   5.075   3.206  2.4977  1.1887 -0.6980
   70SAPC    C3 6000  -0.110   5.106   2.912 -0.5951 -0.1925  0.4539
   70SAPC    HX 6001  -0.081   4.999   2.906  0.2516  0.1055 -2.2651
   70SAPC    HY 6002  -0.169   5.109   2.818 -0.1163 -0.0565  0.1523
   70SAPC   O31 6003  -0.179   5.126   3.036  0.2534 -0.7592  0.5850
   70SAPC   C31 6004  -0.255   5.238   3.042 -0.6533  0.2641 -0.1971
   70SAPC   O32 6005  -0.249   5.331   2.963 -0.4747  0.8603  0.2705
   70SAPC   C32 6006  -0.349   5.223   3.163  0.4822  0.3446 -0.0387
   70SAPC   H2X 6007  -0.296   5.151   3.229  1.8692  2.5405  1.3850
   70SAPC   H2Y 6008  -0.436   5.170   3.119  0.1225 -0.0499  1.1088
   70SAPC   C23 6009   0.368   5.269   3.239 -1.0875 -0.0927  0.6925
   70SAPC   H3R 6010   0.335   5.371   3.271  1.2845  1.1050 -0.4226
   70SAPC   H3S 6011   0.423   5.273   3.143 -0.0104 -0.0908  1.2954
   70SAPC   C24 6012   0.458   5.199   3.350 -0.2185 -1.1211  0.5966
   70SAPC   H4R 6013   0.556   5.253   3.351 -0.5130 -0.5632  2.7722
   70SAPC   H4S 6014   0.467   5.094   3.316 -1.1068 -0.9734 -0.1329
   70SAPC   C25 6015   0.373   5.226   3.475 -0.1870 -0.2755 -0.0642
   70SAPC   H5R 6016   0.365   5.328   3.515 -1.3215 -0.4121  0.0792
   70SAPC   C26 6017   0.324   5.122   3.549 -0.2432 -0.1900 -0.9698
   70SAPC   H6R 6018   0.252   5.140   3.630  1.1779 -1.0620  0.5561
   70SAPC   C27 6019   0.355   4.970   3.528  0.4026  0.2250  0.2242
   70SAPC   H7R 6020   0.370   4.947   3.421  0.6411  0.7299  0.1443
   70SAPC   H7S 6021   0.264   4.914   3.558  0.7910  0.0390  1.0819
   70SAPC   C28 6022   0.469   4.919   3.610 -0.1154  0.9135 -0.4233
   70SAPC   H8R 6023   0.557   4.905   3.546 -0.6791 -1.3781 -0.8061
   70SAPC   C29 6024   0.470   4.894   3.747 -0.1849 -0.6090  0.0598
   70SAPC   H9R 6025   0.565   4.857   3.790  0.7123  0.1239 -1.2264
   70SAPC  C210 6026   0.353   4.908   3.837 -0.0432  0.3285  0.4479
   70SAPC  H10R 6027   0.346   4.814   3.895 -0.0218 -0.0009 -0.0816
   70SAPC  H10S 6028   0.259   4.918   3.780  0.1498  4.1461  0.5292
   70SAPC  C211 6029   0.388   5.027   3.930  0.7349  0.6641  0.2392
   70SAPC  H11R 6030   0.366   5.127   3.889 -0.3786  0.0868 -0.6448
   70SAPC  C212 6031   0.446   5.012   4.052  0.3040 -0.1318  0.1682
   70SAPC  H12R 6032   0.477   5.101   4.109  1.9395 -0.7252  0.2533
   70SAPC  C213 6033   0.476   4.878   4.119 -0.0496  0.2684  0.6625
   70SAPC  H13R 6034   0.522   4.817   4.038 -1.9729  1.4838 -1.4806
   70SAPC  H13S 6035   0.378   4.829   4.139  0.5753 -1.2594  0.1563
   70SAPC  C214 6036   0.563   4.889   4.244  0.2811  0.8769  0.5430
   70SAPC  H14R 6037   0.660   4.924   4.207 -0.4788  0.9918 -1.4660
   70SAPC  C215 6038   0.527   4.860   4.373 -0.0616  0.4992  0.0445
   70SAPC  H15R 6039   0.597   4.899   4.448  0.0748  0.9035 -0.2902
   70SAPC  C216 6040   0.388   4.817   4.420 -0.5952 -0.0378  0.4326
   70SAPC  H16R 6041   0.377   4.708   4.408 -1.7046  0.1459 -0.3564
   70SAPC  H16S 6042   0.312   4.862   4.353  0.3245  0.8081 -0.0713
   70SAPC  C217 6043   0.360   4.866   4.561  0.1520  0.0752 -0.5595
   70SAPC  H17R 6044   0.254   4.884   4.588  0.3877  0.5531  0.0549
   70SAPC  H17S 6045   0.407   4.965   4.578 -3.5860  1.6448  1.9050
   70SAPC  C218 6046   0.414   4.762   4.656 -0.3674 -1.8687 -0.5298
   70SAPC  H18R 6047   0.516   4.728   4.628  0.2447  0.2484 -1.0619
   70SAPC  H18S 6048   0.352   4.672   4.634 -2.5348 -0.4602 -0.4786
   70SAPC  C219 6049   0.405   4.815   4.796 -0.1017 -0.0597 -0.1204
   70SAPC  H19R 6050   0.298   4.831   4.824 -0.1165 -3.4002  2.4645
   70SAPC  H19S 6051   0.463   4.909   4.804  2.0176 -1.4353  1.8343
   70SAPC  C220 6052   0.465   4.725   4.902 -0.2283  0.2625 -0.7908
   70SAPC  H20R 6053   0.572   4.701   4.884  0.2142  1.1322  0.5280
   70SAPC  H20S 6054   0.396   4.639   4.917 -1.2863  1.5440  2.5420
   70SAPC  H20T 6055   0.453   4.780   4.998 -0.0092 -1.2759  0.1405
   70SAPC   C33 6056  -0.388   5.355   3.237  0.3253  0.8409  0.6239
   70SAPC   H3X 6057  -0.455   5.408   3.167 -0.9845 -2.3076 -0.6931
   70SAPC   H3Y 6058  -0.300   5.414   3.273 -0.0466  0.5987  1.9947
   70SAPC   C34 6059  -0.473   5.335   3.365 -0.0653  0.2996  0.2669
   70SAPC   H4X 6060  -0.574   5.302   3.331 -0.4018  1.4829  0.0630
   70SAPC   H4Y 6061  -0.483   5.426   3.428 -0.4069  0.5593 -0.1560
   70SAPC   C35 6062  -0.415   5.218   3.463  0.6778  0.3565  0.4042
   70SAPC   H5X 6063  -0.422   5.124   3.404  4.4252  2.2579 -3.7045
   70SAPC   H5Y 6064  -0.478   5.210   3.554  2.9833  0.0744  2.0645
   70SAPC   C36 6065  -0.282   5.243   3.521 -0.2201  0.0646 -0.0440
   70SAPC   H6X 6066  -0.287   5.287   3.622  2.1852 -2.5028  1.3335
   70SAPC   H6Y 6067  -0.225   5.319   3.462  0.7171 -0.1186  0.6032
   70SAPC   C37 6068  -0.198   5.111   3.532  0.1612 -0.1201  0.2630
   70SAPC   H7X 6069  -0.241   5.046   3.610 -0.1025  0.7747  0.8797
   70SAPC   H7Y 6070  -0.200   5.070   3.428  2.1137  0.0432  0.1295
   70SAPC   C38 6071  -0.066   5.150   3.582 -0.0623 -0.2711 -0.1100
   70SAPC   H8X 6072  -0.028   5.235   3.522 -1.7339  1.3446  1.0054
   70SAPC   H8Y 6073   0.010   5.071   3.564  0.7535  0.5571 -0.3880
   70SAPC   C39 6074  -0.049   5.193   3.731  0.2439 -0.1385  0.2110
   70SAPC   H9X 6075  -0.134   5.255   3.768  1.1536  1.3433 -0.0793
   70SAPC   H9Y 6076   0.038   5.263   3.734 -0.9187  1.3981 -0.2438
   70SAPC  C310 6077  -0.017   5.067   3.818  0.1571 -0.0956 -0.1881
   70SAPC  H10X 6078   0.065   5.012   3.767  1.5185  1.1973  0.5130
   70SAPC  H10Y 6079  -0.100   4.993   3.820  0.8989 -0.9311  0.9560
   70SAPC  C311 6080  -0.002   5.100   3.963 -0.0276  0.0951 -0.8571
   70SAPC  H11X 6081  -0.100   5.140   3.999  1.0968  0.8787  1.5590
   70SAPC  H11Y 6082   0.077   5.170   3.999 -0.3025  0.0167 -0.0770
   70SAPC  C312 6083   0.012   4.972   4.048 -0.2603 -0.3072 -0.0841
   70SAPC  H12X 6084   0.114   4.931   4.033  0.2438  1.5574 -2.5496
   70SAPC  H12Y 6085  -0.067   4.903   4.012 -1.8960 -0.7610  3.9290
   70SAPC  C313 6086  -0.004   4.982   4.197 -0.3919  0.5393 -0.9640
   70SAPC  H13X 6087   0.048   4.896   4.245  0.2278  1.9020  0.9476
   70SAPC  H13Y 6088  -0.112   4.976   4.219 -0.1082 -0.4157  0.2597
   70SAPC  C314 6089   0.054   5.109   4.265 -0.7000  0.2625  0.0625
   70SAPC  H14X 6090   0.018   5.209   4.233 -0.6437 -0.2146 -1.5697
   70SAPC  H14Y 6091   0.164   5.110   4.252 -0.6942 -1.0497 -0.0948
   70SAPC  C315 6092   0.029   5.124   4.419 -0.1161 -0.0537  0.6540
   70SAPC  H15X 6093   0.123   5.080   4.459  0.6954  0.2905 -0.7892
   70SAPC  H15Y 6094  -0.063   5.066   4.440 -0.8325  1.1035  0.7960
   70SAPC  C316 6095   0.011   5.266   4.451 -0.2636 -0.5838  0.5290
   70SAPC  H16X 6096  -0.083   5.309   4.409  0.2777 -0.1340 -0.2579
   70SAPC  H16Y 6097   0.091   5.329   4.407 -1.0262  0.9143  1.1883
   70SAPC  C317 6098   0.034   5.293   4.604  0.0471 -0.6950  0.6288
   70SAPC  H17X 6099   0.139   5.274   4.637  0.4957  0.9025  0.1880
   70SAPC  H17Y 6100  -0.032   5.241   4.677  0.5274  0.1119  1.6763
   70SAPC  C318 6101  -0.003   5.446   4.632 -0.2464  0.4713 -0.4484
   70SAPC  H18X 6102  -0.034   5.501   4.540 -2.0419  0.8382  0.3218
   70SAPC  H18Y 6103   0.085   5.502   4.670 -0.1386  1.9048 -2.6481
   70SAPC  H18Z 6104  -0.091   5.446   4.700 -0.9905 -2.5029 -1.2459
   71SAPC     N 6105   0.095   4.518   2.787 -0.4587 -0.1351  0.3741
   71SAPC   C12 6106   0.225   4.530   2.710 -0.2720 -0.1785  0.5347
   71SAPC  H12A 6107   0.217   4.626   2.660  0.5554 -0.0314  0.6810
   71SAPC  H12B 6108   0.235   4.449   2.640 -0.1413 -0.6964  1.1460
   71SAPC   C13 6109   0.057   4.655   2.844  0.0998 -0.2857 -0.1596
   71SAPC  H13A 6110   0.057   4.726   2.762 -0.0799 -1.1642 -0.9379
   71SAPC  H13B 6111  -0.046   4.650   2.875 -0.1010  2.0170 -0.2860
   71SAPC  H13C 6112   0.113   4.680   2.933  0.7902 -2.9097  0.2163
   71SAPC   C14 6113  -0.014   4.472   2.697 -0.6651  0.0530 -0.5606
   71SAPC  H14A 6114   0.006   4.375   2.654 -1.5679 -0.7908  0.8449
   71SAPC  H14B 6115  -0.102   4.462   2.758  0.4780  1.0389  1.3690
   71SAPC  H14C 6116  -0.028   4.533   2.609  0.9844 -1.5667 -2.0098
   71SAPC   C15 6117   0.104   4.417   2.900 -0.4537  0.5198  0.8694
   71SAPC  H15A 6118   0.019   4.413   2.965  0.3557 -1.8620  1.8957
   71SAPC  H15B 6119   0.113   4.316   2.861 -1.4630  0.4672  0.7500
   71SAPC  H15C 6120   0.195   4.431   2.957 -0.2083 -0.4456  0.7455
   71SAPC   C11 6121   0.356   4.542   2.788 -0.1384  0.6019  0.2892
   71SAPC  H11A 6122   0.339   4.618   2.868  1.2096  0.8564  0.3553
   71SAPC  H11B 6123   0.432   4.583   2.719 -0.0252  0.9216  0.5957
   71SAPC     P 6124   0.499   4.325   2.811  0.7421  0.3161 -0.3490
   71SAPC   O13 6125   0.470   4.249   2.684  0.6693  0.9092  0.4370
   71SAPC   O14 6126   0.637   4.384   2.811  0.2461  0.5796  0.0880
   71SAPC   O12 6127   0.387   4.420   2.853  0.2184  1.0712  0.4356
   71SAPC   O11 6128   0.488   4.219   2.918  0.0515 -0.3192  0.2215
   71SAPC    C1 6129   0.370   4.141   2.947 -0.3091  0.4494 -0.1473
   71SAPC    HA 6130   0.286   4.167   2.880  0.3560  1.5210 -0.5914
   71SAPC    HB 6131   0.402   4.037   2.927 -3.0983 -0.2831 -1.2472
   71SAPC    C2 6132   0.327   4.148   3.098  0.1000 -0.3006 -0.1835
   71SAPC    HS 6133   0.327   4.256   3.123 -0.1994 -0.3863  0.1894
   71SAPC   O21 6134   0.421   4.079   3.182 -0.1194  0.9673  0.3963
   71SAPC   C21 6135   0.444   4.124   3.304 -0.4705 -0.0603 -0.0579
   71SAPC   O22 6136   0.389   4.215   3.356 -0.2569  0.1583 -0.7307
   71SAPC   C22 6137   0.569   4.052   3.367  0.0269 -0.2699  0.4468
   71SAPC   H2R 6138   0.637   4.018   3.285  0.3277 -2.4588  1.5457
   71SAPC   H2S 6139   0.611   4.130   3.433  3.2224  0.5568 -2.2490
   71SAPC    C3 6140   0.186   4.085   3.113 -0.4253  0.4245 -0.2575
   71SAPC    HX 6141   0.194   3.975   3.100 -0.1086  0.5096 -0.8299
   71SAPC    HY 6142   0.126   4.119   3.026 -0.3886 -0.9099 -0.8307
   71SAPC   O31 6143   0.123   4.102   3.245 -0.0203 -0.1452  0.3900
   71SAPC   C31 6144   0.065   4.212   3.264  1.2239  0.0490 -0.6118
   71SAPC   O32 6145   0.046   4.302   3.185  0.4173 -0.0954 -0.7204
   71SAPC   C32 6146   0.003   4.197   3.411  0.4171  0.2982 -0.7756
   71SAPC   H2X 6147  -0.089   4.136   3.398  0.6142 -0.3636  0.7918
   71SAPC   H2Y 6148  -0.044   4.292   3.444  0.8682  0.9523 -1.9371
   71SAPC   C23 6149   0.528   3.925   3.450  0.0982 -0.1124  0.1438
   71SAPC   H3R 6150   0.617   3.860   3.463  0.4502  0.2211 -0.5323
   71SAPC   H3S 6151   0.454   3.867   3.391 -0.1019 -1.6744  1.8404
   71SAPC   C24 6152   0.479   3.962   3.595 -0.3238  0.7536  0.9566
   71SAPC   H4R 6153   0.443   3.862   3.629 -2.4657  0.3453 -2.1385
   71SAPC   H4S 6154   0.390   4.027   3.580 -0.5638  0.2497  0.1469
   71SAPC   C25 6155   0.588   4.019   3.680 -0.2958 -0.5334 -0.0350
   71SAPC   H5R 6156   0.643   4.104   3.637 -0.4573 -0.4849 -0.1492
   71SAPC   C26 6157   0.609   3.987   3.803  0.2855 -0.7727  0.3157
   71SAPC   H6R 6158   0.693   4.027   3.861 -0.6777  0.2875  1.0420
   71SAPC   C27 6159   0.527   3.891   3.886 -1.0181  0.1059  0.3554
   71SAPC   H7R 6160   0.417   3.907   3.876 -1.0936  0.5236  1.6415
   71SAPC   H7S 6161   0.546   3.920   3.992  0.9489  2.8087 -0.6312
   71SAPC   C28 6162   0.592   3.760   3.865 -0.0385  0.2879 -0.1105
   71SAPC   H8R 6163   0.689   3.744   3.815 -0.3244  1.5875 -1.1409
   71SAPC   C29 6164   0.530   3.655   3.914  0.4852 -0.1809  0.2276
   71SAPC   H9R 6165   0.583   3.558   3.906  2.2869  0.7862 -0.1918
   71SAPC  C210 6166   0.392   3.632   3.974 -0.3147  0.0100  0.0876
   71SAPC  H10R 6167   0.336   3.580   3.894  0.6368  1.9717 -1.9794
   71SAPC  H10S 6168   0.337   3.728   3.985 -0.7338 -0.3147  0.9612
   71SAPC  C211 6169   0.406   3.558   4.104  0.3140 -0.6937  0.0360
   71SAPC  H11R 6170   0.403   3.449   4.088 -3.7745 -0.9827  1.4423
   71SAPC  C212 6171   0.459   3.599   4.220 -0.0522 -1.0629 -0.2129
   71SAPC  H12R 6172   0.464   3.536   4.310  0.8378  1.5028  1.6369
   71SAPC  C213 6173   0.500   3.743   4.258 -0.0637  0.2000  0.3555
   71SAPC  H13R 6174   0.411   3.802   4.290  0.9595  1.8067  0.3517
   71SAPC  H13S 6175   0.544   3.789   4.167  0.5607 -1.6488 -0.3198
   71SAPC  C214 6176   0.599   3.744   4.375  1.7743 -0.9110  0.5398
   71SAPC  H14R 6177   0.574   3.695   4.470 -0.0690 -1.9632 -0.4326
   71SAPC  C215 6178   0.710   3.824   4.361 -0.0263  0.5543  0.5416
   71SAPC  H15R 6179   0.782   3.828   4.444  0.0994  1.1402  0.4091
   71SAPC  C216 6180   0.773   3.898   4.251 -0.1631  0.3949 -0.0497
   71SAPC  H16R 6181   0.816   3.995   4.284  1.4377 -0.0875 -0.6056
   71SAPC  H16S 6182   0.692   3.931   4.182 -0.4478 -0.8636 -0.3370
   71SAPC  C217 6183   0.875   3.814   4.170 -0.7635  0.6021 -0.0120
   71SAPC  H17R 6184   0.835   3.726   4.116  3.3554 -2.0097  0.6778
   71SAPC  H17S 6185   0.969   3.792   4.226 -1.1238 -0.0116  0.3495
   71SAPC  C218 6186   0.932   3.899   4.056 -0.3944  0.6937  0.6193
   71SAPC  H18R 6187   0.977   3.988   4.105  1.0494 -0.6051  1.7252
   71SAPC  H18S 6188   0.847   3.926   3.989 -0.3981  0.6844  0.6205
   71SAPC  C219 6189   1.039   3.822   3.981 -0.3279  0.0651 -0.0969
   71SAPC  H19R 6190   1.000   3.726   3.940 -0.8483  0.4413 -0.5008
   71SAPC  H19S 6191   1.119   3.808   4.056  0.1199 -1.1658 -0.7828
   71SAPC  C220 6192   1.097   3.900   3.861  0.4502  0.1880 -0.2578
   71SAPC  H20R 6193   1.114   4.005   3.893 -1.8931  0.0048  1.9122
   71SAPC  H20S 6194   1.017   3.926   3.788  0.4811  1.4816  0.1355
   71SAPC  H20T 6195   1.188   3.856   3.815  1.5548  0.6741  1.3871
   71SAPC   C33 6196   0.091   4.150   3.520  0.0228 -0.3781 -0.3059
   71SAPC   H3X 6197   0.175   4.219   3.541 -1.1177  0.9015  0.1733
   71SAPC   H3Y 6198   0.143   4.054   3.498 -0.1331 -1.5000  3.4855
   71SAPC   C34 6199   0.004   4.122   3.642 -0.1078 -0.1622  0.5219
   71SAPC   H4X 6200  -0.068   4.041   3.619  0.3216  0.1837 -2.3354
   71SAPC   H4Y 6201  -0.054   4.215   3.660 -1.7135 -0.5534 -2.1684
   71SAPC   C35 6202   0.074   4.070   3.764 -0.2128 -0.1655 -0.0937
   71SAPC   H5X 6203   0.148   4.145   3.798 -1.0638  0.0512  1.3601
   71SAPC   H5Y 6204   0.121   3.976   3.728  0.0587 -0.2291  0.4193
   71SAPC   C36 6205  -0.012   4.033   3.886 -0.0489  0.3667 -0.1055
   71SAPC   H6X 6206  -0.091   3.965   3.848  0.2826 -0.8321  1.2590
   71SAPC   H6Y 6207  -0.055   4.125   3.931 -1.9198 -0.2944 -0.4579
   71SAPC   C37 6208   0.072   3.966   4.001  1.0068  0.8126 -0.2034
   71SAPC   H7X 6209   0.138   3.882   3.970  0.4037  0.1880  0.1536
   71SAPC   H7Y 6210   0.012   3.926   4.086  1.6691 -1.3291 -0.6787
   71SAPC   C38 6211   0.164   4.075   4.056 -0.5837  0.7559 -0.0021
   71SAPC   H8X 6212   0.108   4.168   4.079  1.5378  2.6730 -2.0720
   71SAPC   H8Y 6213   0.244   4.102   3.985  1.6255 -1.9337  1.2621
   71SAPC   C39 6214   0.250   4.023   4.174 -0.0370  0.4031 -0.4008
   71SAPC   H9X 6215   0.320   3.943   4.143 -0.2735  0.3273 -0.7425
   71SAPC   H9Y 6216   0.177   3.980   4.246  0.9248  0.1154  0.4409
   71SAPC  C310 6217   0.327   4.140   4.236  0.1425 -0.4711 -1.0231
   71SAPC  H10X 6218   0.247   4.206   4.276 -0.0654 -1.1404 -0.3282
   71SAPC  H10Y 6219   0.379   4.208   4.164  1.9907 -1.7528 -0.9613
   71SAPC  C311 6220   0.422   4.100   4.357 -0.2289 -0.7530 -0.2103
   71SAPC  H11X 6221   0.523   4.068   4.322  0.0246  0.2608 -0.4415
   71SAPC  H11Y 6222   0.376   4.016   4.414  0.7907 -1.5915 -0.5716
   71SAPC  C312 6223   0.460   4.223   4.440 -0.3720 -0.4441  0.1602
   71SAPC  H12X 6224   0.368   4.266   4.484  0.1154  1.5654 -0.6515
   71SAPC  H12Y 6225   0.503   4.303   4.375  0.6871 -2.2493 -1.4849
   71SAPC  C313 6226   0.573   4.201   4.537  0.5453 -0.6777  0.2603
   71SAPC  H13X 6227   0.642   4.119   4.508  1.0791 -0.0179 -0.3341
   71SAPC  H13Y 6228   0.526   4.165   4.632 -1.7603 -3.1213 -1.6459
   71SAPC  C314 6229   0.654   4.321   4.570 -0.1822  0.0111 -0.1785
   71SAPC  H14X 6230   0.576   4.396   4.595 -0.2973 -0.3429  0.5654
   71SAPC  H14Y 6231   0.723   4.365   4.495  0.3609 -0.7915 -0.1585
   71SAPC  C315 6232   0.718   4.313   4.714  0.6616 -0.9699  0.2684
   71SAPC  H15X 6233   0.632   4.287   4.779  0.2871  2.0355  1.1548
   71SAPC  H15Y 6234   0.730   4.419   4.747 -0.6871 -1.2467  1.7620
   71SAPC  C316 6235   0.845   4.238   4.726  0.2717  0.0298  0.0692
   71SAPC  H16X 6236   0.920   4.270   4.650 -1.2151 -0.7539 -1.7934
   71SAPC  H16Y 6237   0.843   4.129   4.704  0.9669 -0.1080  0.6409
   71SAPC  C317 6238   0.904   4.244   4.866 -0.1138 -0.5172 -0.6261
   71SAPC  H17X 6239   0.834   4.189   4.933 -0.2078  0.9298  0.5010
   71SAPC  H17Y 6240   0.899   4.351   4.896 -0.3254 -1.3366  2.6139
   71SAPC  C318 6241   1.051   4.198   4.882 -0.8793 -0.2355 -0.3864
   71SAPC  H18X 6242   1.074   4.094   4.850 -0.2312 -1.0730  2.4897
   71SAPC  H18Y 6243   1.072   4.194   4.991 -0.0541  0.5107 -0.5036
   71SAPC  H18Z 6244   1.119   4.273   4.835 -0.6766  0.0493  0.3395
   72SAPC     N 6245   6.270   1.031   2.598  0.6728  0.0017  0.7937
   72SAPC   C12 6246   6.137   0.953   2.614 -0.2020 -0.1700  0.0242
   72SAPC  H12A 6247   6.155   0.864   2.672  0.5763  0.8288  1.3864
   72SAPC  H12B 6248   6.099   0.936   2.514 -1.7330  1.6806  0.2259
   72SAPC   C13 6249   6.334   1.026   2.726  0.3154 -0.9454  0.3085
   72SAPC  H13A 6250   6.417   1.095   2.726 -0.1517 -0.3702 -0.6140
   72SAPC  H13B 6251   6.267   1.047   2.808  0.7990 -0.1683  0.5129
   72SAPC  H13C 6252   6.377   0.926   2.734 -0.3598 -1.2728 -0.0851
   72SAPC   C14 6253   6.343   0.966   2.495 -0.2468  0.7474 -0.1830
   72SAPC  H14A 6254   6.295   0.948   2.400  1.4280  0.2835 -0.9720
   72SAPC  H14B 6255   6.425   1.025   2.455  1.1816 -0.4975  0.8018
   72SAPC  H14C 6256   6.383   0.872   2.528 -1.6540  1.2071  3.2084
   72SAPC   C15 6257   6.240   1.170   2.561 -0.1727  0.1778 -0.2002
   72SAPC  H15A 6258   6.330   1.227   2.578  1.3846 -1.5845 -1.9848
   72SAPC  H15B 6259   6.203   1.179   2.459 -1.9388 -1.6857  0.2127
   72SAPC  H15C 6260   6.160   1.210   2.621 -1.7776 -2.1000 -0.6925
   72SAPC   C11 6261   6.016   1.022   2.689  0.3445  0.4162 -0.1420
   72SAPC  H11A 6262   6.061   1.068   2.779 -1.4988 -2.7245  2.6001
   72SAPC  H11B 6263   5.945   0.942   2.717  2.0004 -0.7682  0.8021
   72SAPC     P 6264   5.841   1.109   2.520 -0.4088  0.2106 -0.2661
   72SAPC   O13 6265   5.815   1.231   2.446 -0.0274 -0.0516 -0.1153
   72SAPC   O14 6266   5.831   0.981   2.445  0.4245  0.2924  0.1501
   72SAPC   O12 6267   5.963   1.122   2.608 -0.0983  0.4739 -0.0679
   72SAPC   O11 6268   5.734   1.103   2.630  0.0224 -0.0985 -0.4706
   72SAPC    C1 6269   5.697   1.213   2.716  0.0653  0.4644  0.5991
   72SAPC    HA 6270   5.744   1.306   2.677  0.7013  1.0724  2.6932
   72SAPC    HB 6271   5.586   1.216   2.723 -0.1148 -0.9100 -1.0466
   72SAPC    C2 6272   5.730   1.192   2.862 -0.5807  0.0258 -0.5427
   72SAPC    HS 6273   5.841   1.188   2.859 -0.5201  0.9208  0.0604
   72SAPC   O21 6274   5.676   1.068   2.901 -0.2895 -0.1806  0.5431
   72SAPC   C21 6275   5.740   1.020   3.008 -0.2503  0.4143 -0.0744
   72SAPC   O22 6276   5.839   1.070   3.060 -0.1559 -0.1247  0.1917
   72SAPC   C22 6277   5.672   0.882   3.041  0.1187 -0.8724  0.4357
   72SAPC   H2R 6278   5.659   0.837   2.940 -2.7153 -0.6158  0.6112
   72SAPC   H2S 6279   5.742   0.817   3.097 -1.6051 -1.7395  1.6379
   72SAPC    C3 6280   5.674   1.318   2.937 -0.3816  0.3894 -1.0111
   72SAPC    HX 6281   5.718   1.409   2.891  1.5121  0.3575  0.5959
   72SAPC    HY 6282   5.723   1.316   3.037  0.9811  1.3325 -1.6249
   72SAPC   O31 6283   5.532   1.312   2.955 -0.0532  0.6166 -0.0499
   72SAPC   C31 6284   5.467   1.393   2.878  0.6181  0.0300 -0.3188
   72SAPC   O32 6285   5.510   1.463   2.791 -0.8448  0.4263  0.4900
   72SAPC   C32 6286   5.326   1.395   2.932  0.1233 -0.2064 -0.0059
   72SAPC   H2X 6287   5.299   1.298   2.980  1.9878 -1.0548 -0.5469
   72SAPC   H2Y 6288   5.264   1.407   2.840  0.4737 -2.4032 -0.5950
   72SAPC   C23 6289   5.547   0.879   3.128 -0.3332 -0.5623  0.8065
   72SAPC   H3R 6290   5.547   0.785   3.187  0.1141  0.1788  2.0217
   72SAPC   H3S 6291   5.463   0.854   3.059 -0.3929 -0.6874  0.9245
   72SAPC   C24 6292   5.518   0.998   3.220 -0.1106  0.6085 -0.2383
   72SAPC   H4R 6293   5.499   1.089   3.159  0.3811  1.2310  0.5199
   72SAPC   H4S 6294   5.612   1.020   3.275  0.5759  1.1518 -1.5794
   72SAPC   C25 6295   5.405   0.951   3.305 -0.0791 -0.1314 -0.0884
   72SAPC   H5R 6296   5.323   0.899   3.253 -0.7317 -1.1378  1.8382
   72SAPC   C26 6297   5.389   0.972   3.437 -0.0724 -0.3125 -0.2251
   72SAPC   H6R 6298   5.297   0.959   3.496  0.2812  0.7191  0.5793
   72SAPC   C27 6299   5.496   1.040   3.515  0.4912 -0.9002 -0.4098
   72SAPC   H7R 6300   5.595   1.057   3.466 -0.3753  0.7487 -1.7088
   72SAPC   H7S 6301   5.524   0.958   3.585  1.8003 -0.7532 -0.7300
   72SAPC   C28 6302   5.450   1.166   3.594 -0.4771  0.1213  0.0581
   72SAPC   H8R 6303   5.353   1.209   3.561  0.2617  1.0556 -0.9971
   72SAPC   C29 6304   5.518   1.228   3.694  0.3208 -0.2744 -0.3119
   72SAPC   H9R 6305   5.475   1.317   3.742  0.9689  0.7401 -1.5372
   72SAPC  C210 6306   5.654   1.195   3.741 -0.0451 -0.2944  0.0645
   72SAPC  H10R 6307   5.705   1.294   3.746 -2.3344  0.8949  1.8513
   72SAPC  H10S 6308   5.703   1.139   3.658 -2.2706  0.7168 -2.0645
   72SAPC  C211 6309   5.660   1.118   3.868  0.4280 -0.0485  0.1143
   72SAPC  H11R 6310   5.646   1.009   3.868  1.5397 -0.2164 -0.8231
   72SAPC  C212 6311   5.679   1.177   3.989  0.3200 -1.3097  0.4105
   72SAPC  H12R 6312   5.682   1.112   4.078 -1.2837 -0.3950  1.1855
   72SAPC  C213 6313   5.682   1.326   4.020 -0.4450 -0.4661 -0.1901
   72SAPC  H13R 6314   5.579   1.361   4.043 -0.3803  0.7888 -1.6182
   72SAPC  H13S 6315   5.696   1.393   3.932 -1.1656 -0.2800 -0.1683
   72SAPC  C214 6316   5.781   1.360   4.128  0.1809  0.3936 -0.8870
   72SAPC  H14R 6317   5.882   1.373   4.086  0.9485  0.4966  0.9112
   72SAPC  C215 6318   5.753   1.373   4.261 -0.1872 -0.2126 -0.3192
   72SAPC  H15R 6319   5.827   1.383   4.342 -3.0118 -2.5076  2.7537
   72SAPC  C216 6320   5.617   1.342   4.321 -0.1048  0.0068  0.1918
   72SAPC  H16R 6321   5.558   1.291   4.242  2.4036 -1.7671 -0.6663
   72SAPC  H16S 6322   5.571   1.435   4.361 -2.1395 -1.4970  1.5497
   72SAPC  C217 6323   5.638   1.244   4.440 -0.2133  0.2529  0.0186
   72SAPC  H17R 6324   5.550   1.234   4.508  0.5519 -2.8522  0.7540
   72SAPC  H17S 6325   5.726   1.281   4.497 -1.2872  2.2712  0.4649
   72SAPC  C218 6326   5.682   1.101   4.398  0.1143  0.2463  0.0148
   72SAPC  H18R 6327   5.790   1.113   4.373  0.7904  0.4438  2.7110
   72SAPC  H18S 6328   5.629   1.059   4.309  3.0491 -0.0809 -1.7326
   72SAPC  C219 6329   5.666   0.996   4.505  0.5730 -0.0603  0.5945
   72SAPC  H19R 6330   5.707   1.054   4.590  1.3106  0.8454 -0.3510
   72SAPC  H19S 6331   5.720   0.907   4.467  1.1306  0.7032 -0.4496
   72SAPC  C220 6332   5.523   0.951   4.541 -0.2038 -0.3645 -0.4559
   72SAPC  H20R 6333   5.466   0.908   4.455  0.1082 -2.7710  0.4774
   72SAPC  H20S 6334   5.463   1.040   4.571  0.2564  0.2406 -1.2831
   72SAPC  H20T 6335   5.527   0.874   4.620 -0.9535  1.0826  1.0549
   72SAPC   C33 6336   5.291   1.521   3.012 -0.0176  0.0720  0.4540
   72SAPC   H3X 6337   5.183   1.517   3.040 -0.3231 -0.8912 -0.7797
   72SAPC   H3Y 6338   5.291   1.614   2.951 -0.2786 -0.6106 -0.6088
   72SAPC   C34 6339   5.378   1.523   3.137  0.0549  0.4480 -0.0595
   72SAPC   H4X 6340   5.485   1.531   3.109  0.0032  1.2464 -0.0436
   72SAPC   H4Y 6341   5.356   1.427   3.189 -0.0306 -0.2687 -1.3773
   72SAPC   C35 6342   5.338   1.641   3.234 -0.3356  0.8402  0.3285
   72SAPC   H5X 6343   5.234   1.623   3.268 -0.1391  0.1851  0.6047
   72SAPC   H5Y 6344   5.320   1.728   3.167  0.1791 -0.7286 -1.9938
   72SAPC   C36 6345   5.437   1.669   3.343 -0.8123  0.2793 -0.3128
   72SAPC   H6X 6346   5.536   1.706   3.306 -1.3267  2.4542  0.3235
   72SAPC   H6Y 6347   5.441   1.575   3.402  1.8774 -1.3972 -2.8769
   72SAPC   C37 6348   5.388   1.783   3.437  0.7069 -0.2774 -0.7800
   72SAPC   H7X 6349   5.287   1.758   3.475  0.2011  1.9996 -0.4893
   72SAPC   H7Y 6350   5.371   1.878   3.382 -4.5112 -0.9533 -0.8249
   72SAPC   C38 6351   5.485   1.790   3.558 -0.6119 -0.2712 -0.0472
   72SAPC   H8X 6352   5.535   1.695   3.586  1.9940  1.2405  0.7480
   72SAPC   H8Y 6353   5.419   1.835   3.636 -1.1643  2.3820 -1.9048
   72SAPC   C39 6354   5.607   1.883   3.539 -0.3236 -0.6433 -0.1423
   72SAPC   H9X 6355   5.574   1.989   3.529  2.4175  0.5114  1.7620
   72SAPC   H9Y 6356   5.635   1.844   3.439  0.4621 -0.1679 -0.1184
   72SAPC  C310 6357   5.711   1.873   3.647  0.3369  0.1938 -0.8405
   72SAPC  H10X 6358   5.754   1.771   3.657 -0.9896 -0.3866 -0.8129
   72SAPC  H10Y 6359   5.656   1.896   3.740  1.1768  0.0237 -0.2913
   72SAPC  C311 6360   5.842   1.959   3.639  0.5235 -0.1915 -0.5026
   72SAPC  H11X 6361   5.804   2.063   3.626  0.9091  0.0653  0.3724
   72SAPC  H11Y 6362   5.899   1.940   3.546 -1.2671  0.5066 -1.8162
   72SAPC  C312 6363   5.935   1.939   3.758  0.2358 -0.0259  0.2008
   72SAPC  H12X 6364   6.006   2.025   3.762  1.2668 -0.8492  0.1042
   72SAPC  H12Y 6365   5.997   1.849   3.736  0.4505  0.2420 -0.3173
   72SAPC  C313 6366   5.869   1.909   3.894  0.6744  0.3979  0.0358
   72SAPC  H13X 6367   5.800   1.823   3.888  1.4330 -0.4120  2.1123
   72SAPC  H13Y 6368   5.812   1.998   3.928 -0.5793  0.0201 -0.9812
   72SAPC  C314 6369   5.963   1.871   4.007  0.0404  0.0509  0.6500
   72SAPC  H14X 6370   6.052   1.937   3.995 -0.7664  1.3446  1.5402
   72SAPC  H14Y 6371   5.991   1.765   3.994 -1.6413 -0.4032  0.5048
   72SAPC  C315 6372   5.904   1.884   4.148  0.0742 -0.4842  0.0321
   72SAPC  H15X 6373   5.809   1.827   4.150  0.2857 -0.8345  0.3098
   72SAPC  H15Y 6374   5.885   1.992   4.169  1.1911 -0.1331 -0.6530
   72SAPC  C316 6375   5.998   1.830   4.254 -0.6308 -0.2178 -0.2482
   72SAPC  H16X 6376   6.101   1.864   4.233 -0.6682  0.3519  0.4806
   72SAPC  H16Y 6377   6.002   1.720   4.239  0.3998 -0.2157 -0.0487
   72SAPC  C317 6378   5.978   1.870   4.400  0.9000 -0.7073 -1.0786
   72SAPC  H17X 6379   5.906   1.805   4.454  0.4262  0.5708 -0.1071
   72SAPC  H17Y 6380   5.941   1.974   4.386  1.6518  0.1289  2.3499
   72SAPC  C318 6381   6.108   1.893   4.478  0.1675 -0.6981  0.0493
   72SAPC  H18X 6382   6.196   1.929   4.421  0.2832  0.3582  0.8448
   72SAPC  H18Y 6383   6.144   1.792   4.508  2.1864 -0.6425 -1.9670
   72SAPC  H18Z 6384   6.089   1.960   4.565 -3.7528 -0.8178 -0.5121
   73SLPC     N 6385   5.989   3.607   6.950 -0.3956  0.7227 -0.3942
   73SLPC   C13 6386   5.999   3.725   7.042 -0.0009 -0.5161 -0.0771
   73SLPC  H13A 6387   5.968   3.696   7.142 -2.0765 -1.6601 -0.9961
   73SLPC  H13B 6388   6.099   3.765   7.037 -0.1098  0.0450  1.4679
   73SLPC  H13C 6389   5.929   3.802   7.011  1.3623  0.6402 -0.4047
   73SLPC   C14 6390   6.042   3.647   6.822  0.0196  0.4058 -0.3593
   73SLPC  H14A 6391   6.002   3.743   6.793 -0.1746  0.2839 -0.4982
   73SLPC  H14B 6392   6.147   3.670   6.827  0.0526  0.1211  0.4362
   73SLPC  H14C 6393   6.030   3.572   6.745  1.2120 -1.8641  1.5219
   73SLPC   C15 6394   5.849   3.563   6.937  0.3113 -0.1074 -0.4638
   73SLPC  H15A 6395   5.810   3.541   7.036  0.6108  0.7911 -0.1344
   73SLPC  H15B 6396   5.779   3.625   6.884  2.2227  2.1265 -0.5266
   73SLPC  H15C 6397   5.832   3.469   6.887  2.0056 -0.1428 -1.0239
   73SLPC   C12 6398   6.077   3.504   7.010  0.2945 -0.3426  0.1189
   73SLPC  H12A 6399   6.064   3.411   6.957 -0.3749  0.4762 -1.2018
   73SLPC  H12B 6400   6.043   3.482   7.111  0.8200 -0.5544  0.2560
   73SLPC   C11 6401   6.232   3.533   7.017 -0.0822  0.5731 -0.3452
   73SLPC  H11A 6402   6.285   3.460   7.082  0.0092  0.9696  0.0351
   73SLPC  H11B 6403   6.256   3.629   7.068 -0.6051  1.0996 -1.0700
   73SLPC     P 6404   6.315   3.409   6.802  0.1203  0.1009  0.0273
   73SLPC   O13 6405   6.381   3.298   6.879  0.6047  0.2398  0.2115
   73SLPC   O14 6406   6.196   3.375   6.725 -0.3445  0.1952  0.6344
   73SLPC   O12 6407   6.294   3.538   6.893 -0.2615 -0.0021  0.6783
   73SLPC   O11 6408   6.423   3.466   6.710  0.0327  0.2139  0.2844
   73SLPC    C1 6409   6.530   3.547   6.746 -0.2256 -0.1760 -0.0566
   73SLPC    HA 6410   6.572   3.521   6.846  1.5039  0.4228 -0.5919
   73SLPC    HB 6411   6.609   3.524   6.672 -1.5166  2.0075 -2.2636
   73SLPC    C2 6412   6.505   3.706   6.746 -0.1510  0.5643  0.1852
   73SLPC    HS 6413   6.435   3.719   6.831 -0.8917  1.2232 -0.4918
   73SLPC   O21 6414   6.435   3.751   6.623  0.2516 -0.7868  0.1415
   73SLPC   C21 6415   6.378   3.871   6.636 -0.6013 -0.6979 -0.7705
   73SLPC   O22 6416   6.387   3.942   6.735  0.2465 -0.3690  0.3244
   73SLPC   C22 6417   6.292   3.884   6.510 -0.2694  0.3331 -0.1436
   73SLPC   H2R 6418   6.326   3.976   6.458 -0.4995  0.8912  0.6759
   73SLPC   H2S 6419   6.282   3.789   6.454 -1.6137  0.1717  0.3320
   73SLPC    C3 6420   6.634   3.791   6.776 -0.1452  0.7985 -0.2159
   73SLPC    HX 6421   6.674   3.752   6.872 -0.1826  0.8783 -0.1680
   73SLPC    HY 6422   6.608   3.897   6.795  1.2831  0.7542  2.3977
   73SLPC   O31 6423   6.738   3.761   6.683  0.5523  0.1801  0.4586
   73SLPC   C31 6424   6.732   3.833   6.572 -0.3020  0.2463  0.2112
   73SLPC   O32 6425   6.655   3.921   6.546 -0.0866  0.1717  0.3585
   73SLPC   C32 6426   6.837   3.776   6.474  0.1625 -0.0380  0.0234
   73SLPC   H2X 6427   6.798   3.679   6.434 -0.4942  1.3875 -3.1096
   73SLPC   H2Y 6428   6.928   3.756   6.535 -0.2524  0.0145  0.6680
   73SLPC   C23 6429   6.151   3.932   6.558 -0.6785 -1.0188 -0.5748
   73SLPC   H3R 6430   6.153   4.025   6.619  2.4994 -0.2175 -1.7075
   73SLPC   H3S 6431   6.117   3.850   6.625 -0.8032  0.9202  1.8918
   73SLPC   C24 6432   6.052   3.938   6.440 -0.6014 -0.5447  0.5195
   73SLPC   H4R 6433   6.072   4.036   6.391 -0.7387  0.1574  1.8062
   73SLPC   H4S 6434   5.947   3.940   6.478 -0.6729  0.9503  0.3194
   73SLPC   C25 6435   6.055   3.823   6.340 -0.1175 -0.0873  0.4405
   73SLPC   H5R 6436   6.039   3.728   6.395  0.1244 -0.7951 -0.6898
   73SLPC   H5S 6437   6.150   3.817   6.283  0.0637  2.2881  0.3764
   73SLPC   C26 6438   5.955   3.841   6.226 -0.1063 -0.7162 -0.2683
   73SLPC   H6R 6439   5.975   3.936   6.174 -0.1910 -0.0768  0.8345
   73SLPC   H6S 6440   5.854   3.847   6.273  0.2976 -1.2383  0.7003
   73SLPC   C27 6441   5.949   3.727   6.134  0.0086 -0.2895  0.3568
   73SLPC   H7R 6442   5.963   3.627   6.180 -0.7538 -0.5735 -0.0203
   73SLPC   H7S 6443   6.029   3.748   6.059  0.4963  0.8753  1.1663
   73SLPC   C28 6444   5.817   3.721   6.046 -0.4383 -0.5273  0.2010
   73SLPC   H8R 6445   5.773   3.822   6.031  0.7908  0.5037  2.8137
   73SLPC   H8S 6446   5.741   3.661   6.100 -0.2379 -1.1142 -0.1669
   73SLPC   C29 6447   5.841   3.652   5.911  0.1417  0.3332  0.1177
   73SLPC   H9R 6448   5.857   3.544   5.924  0.0099  0.2064 -0.6788
   73SLPC  C210 6449   5.837   3.700   5.789  0.5747 -0.1575 -0.2889
   73SLPC  H10R 6450   5.849   3.641   5.697 -0.5806  0.6165 -0.9680
   73SLPC  C211 6451   5.809   3.846   5.758  0.0887  0.1223 -0.2940
   73SLPC  H11R 6452   5.903   3.905   5.752  0.0468  0.0119 -3.0145
   73SLPC  H11S 6453   5.752   3.897   5.839  0.3185 -2.1350  1.4038
   73SLPC  C212 6454   5.737   3.866   5.625 -0.6761 -0.1061  0.6860
   73SLPC  H12R 6455   5.630   3.842   5.630 -0.4502 -1.9138 -1.5216
   73SLPC  C213 6456   5.799   3.894   5.507  0.6709 -0.6918  0.7423
   73SLPC  H13R 6457   5.744   3.893   5.412  1.7498  0.1784  0.0927
   73SLPC  C214 6458   5.950   3.925   5.487  0.0273  0.0054  0.4736
   73SLPC  H14R 6459   6.012   3.862   5.554  2.2205  1.2323 -0.3267
   73SLPC  H14S 6460   5.954   4.035   5.501 -2.0914  0.2792 -0.6019
   73SLPC  C215 6461   5.989   3.884   5.342 -0.3332 -0.5316  0.0301
   73SLPC  H15R 6462   6.083   3.936   5.314 -0.0141 -1.7897 -1.3792
   73SLPC  H15S 6463   5.920   3.930   5.268  0.0212  1.2247  0.7386
   73SLPC  C216 6464   6.014   3.734   5.319 -0.0243 -0.3821  0.2698
   73SLPC  H16R 6465   5.924   3.682   5.359 -1.4820  0.1977 -2.0911
   73SLPC  H16S 6466   6.102   3.696   5.375  0.0086  0.9337  1.1690
   73SLPC  C217 6467   6.015   3.690   5.171  0.0902 -0.4476  0.1650
   73SLPC  H17R 6468   6.106   3.735   5.125  0.6656 -0.7167  1.0140
   73SLPC  H17S 6469   5.929   3.741   5.124 -0.5588 -2.9579 -1.5729
   73SLPC  C218 6470   6.014   3.544   5.142 -0.1288 -0.1271  0.4880
   73SLPC  H18R 6471   5.916   3.493   5.158 -0.6854  1.4187  2.2929
   73SLPC  H18S 6472   6.081   3.494   5.215 -1.9243 -1.2025  1.4948
   73SLPC  H18T 6473   6.054   3.523   5.040 -1.8694  0.2946 -0.3323
   73SLPC   C33 6474   6.877   3.860   6.351 -0.8718  0.4100  0.1857
   73SLPC   H3X 6475   6.988   3.852   6.342 -0.5203  2.1330  2.0697
   73SLPC   H3Y 6476   6.864   3.969   6.371 -2.2587  0.5208 -1.1252
   73SLPC   C34 6477   6.819   3.818   6.216 -0.0118  0.2459  0.7184
   73SLPC   H4X 6478   6.711   3.842   6.228 -0.2884 -1.1178  1.0983
   73SLPC   H4Y 6479   6.825   3.708   6.208  4.1954  0.3865 -0.1917
   73SLPC   C35 6480   6.878   3.874   6.086 -0.3460 -0.3285  0.6287
   73SLPC   H5X 6481   6.981   3.838   6.069 -0.6737 -0.2039 -2.0559
   73SLPC   H5Y 6482   6.879   3.985   6.098  1.3250 -0.1935 -0.4287
   73SLPC   C36 6483   6.801   3.841   5.952  0.3265 -0.4879 -0.7341
   73SLPC   H6X 6484   6.701   3.889   5.965  0.0860 -0.9122 -0.9940
   73SLPC   H6Y 6485   6.792   3.734   5.923  0.3328 -0.7332  0.1644
   73SLPC   C37 6486   6.860   3.917   5.835  0.0266  0.1313  0.0487
   73SLPC   H7X 6487   6.948   3.971   5.875  0.3702  0.6893 -1.3940
   73SLPC   H7Y 6488   6.795   3.998   5.796  1.4736  1.0162 -0.6138
   73SLPC   C38 6489   6.914   3.827   5.719 -0.1348  0.3811 -0.4754
   73SLPC   H8X 6490   6.825   3.789   5.664  0.6308 -0.4379 -1.1707
   73SLPC   H8Y 6491   6.965   3.738   5.760  0.7503 -0.3466 -2.9436
   73SLPC   C39 6492   7.015   3.898   5.620  0.1822  0.4450  0.1697
   73SLPC   H9X 6493   7.106   3.939   5.668  0.6778  0.1640 -0.5236
   73SLPC   H9Y 6494   6.959   3.989   5.589 -2.4226 -0.2962  2.2873
   73SLPC  C310 6495   7.068   3.799   5.514  0.0868 -0.6422 -0.0897
   73SLPC  H10X 6496   7.101   3.709   5.571 -0.4822 -0.5094  0.4689
   73SLPC  H10Y 6497   7.161   3.843   5.475 -0.6516  1.2219  0.1459
   73SLPC  C311 6498   6.967   3.762   5.408  0.5751  0.5087  0.1434
   73SLPC  H11X 6499   6.884   3.706   5.457  1.4385 -1.6640 -0.7928
   73SLPC  H11Y 6500   7.021   3.696   5.338  1.6557  0.2016  1.2389
   73SLPC  C312 6501   6.911   3.879   5.326 -0.4582  0.3343 -0.4663
   73SLPC  H12X 6502   6.870   3.956   5.394  2.5868  0.1937  1.7564
   73SLPC  H12Y 6503   6.822   3.843   5.271 -1.1159  1.3346 -0.0785
   73SLPC  C313 6504   7.003   3.947   5.218  0.4923  0.0804 -0.0590
   73SLPC  H13X 6505   7.086   3.999   5.271  0.4886  1.0479 -0.9675
   73SLPC  H13Y 6506   6.943   4.025   5.167 -1.6851 -1.2205  0.3742
   73SLPC  C314 6507   7.064   3.850   5.114 -0.4467 -0.0108  0.2987
   73SLPC  H14X 6508   7.002   3.761   5.089  0.7945 -0.6182 -0.7448
   73SLPC  H14Y 6509   7.150   3.798   5.161 -0.6927 -0.3576  0.3714
   73SLPC  C315 6510   7.130   3.924   4.995  0.5809  0.0559  0.1800
   73SLPC  H15X 6511   7.173   4.015   5.042 -0.1981  0.9994 -0.8708
   73SLPC  H15Y 6512   7.054   3.958   4.922  0.9743  0.1359 -0.1948
   73SLPC  C316 6513   7.238   3.840   4.928  0.0977 -0.6172 -0.2640
   73SLPC  H16X 6514   7.185   3.758   4.875  0.4192 -0.6367 -0.5554
   73SLPC  H16Y 6515   7.317   3.801   4.996  1.5470  0.7134 -1.1294
   73SLPC  C317 6516   7.313   3.936   4.824  0.1226 -0.1464 -0.1674
   73SLPC  H17X 6517   7.324   4.032   4.880 -2.7775  1.2263 -1.7206
   73SLPC  H17Y 6518   7.252   3.960   4.734  2.3243  2.1043 -1.1871
   73SLPC  C318 6519   7.450   3.887   4.779 -0.7934 -0.0305  0.4339
   73SLPC  H18X 6520   7.427   3.796   4.719 -0.7023  0.9851 -1.2028
   73SLPC  H18Y 6521   7.519   3.877   4.865  1.7963  1.6686 -1.2719
   73SLPC  H18Z 6522   7.485   3.956   4.699 -0.6615  1.9086  2.1048
   74SLPC     N 6523   3.389   4.291   7.285  0.2433  0.2270  0.4670
   74SLPC   C13 6524   3.266   4.220   7.276 -0.0302 -0.6979 -0.7047
   74SLPC  H13A 6525   3.200   4.273   7.209  0.1630 -0.1542 -0.4677
   74SLPC  H13B 6526   3.282   4.121   7.238  1.6102  0.5551 -3.5620
   74SLPC  H13C 6527   3.220   4.221   7.374 -0.1981  1.4697 -0.7647
   74SLPC   C14 6528   3.474   4.214   7.375 -0.9383 -0.4392 -0.3062
   74SLPC  H14A 6529   3.573   4.257   7.368 -0.7422 -1.1066 -2.0566
   74SLPC  H14B 6530   3.439   4.206   7.477  2.1225  1.2387  0.9881
   74SLPC  H14C 6531   3.484   4.112   7.341 -1.6786  0.4795 -3.5806
   74SLPC   C15 6532   3.361   4.427   7.337  0.2800  0.3562  0.1104
   74SLPC  H15A 6533   3.455   4.472   7.366  0.5552 -0.0579 -0.1286
   74SLPC  H15B 6534   3.313   4.499   7.273 -0.4474  1.2203  1.5557
   74SLPC  H15C 6535   3.315   4.434   7.435  1.9095  1.6784  0.8506
   74SLPC   C12 6536   3.456   4.295   7.151  0.7643  0.5621 -0.4600
   74SLPC  H12A 6537   3.479   4.191   7.131  3.9399  0.7891  1.2031
   74SLPC  H12B 6538   3.555   4.338   7.155  0.6221  0.9307 -0.8598
   74SLPC   C11 6539   3.388   4.371   7.044  0.2750 -0.0489  0.4089
   74SLPC  H11A 6540   3.277   4.368   7.047  0.2431  1.3232  2.1685
   74SLPC  H11B 6541   3.426   4.343   6.944  0.0733  0.8750  0.0640
   74SLPC     P 6542   3.353   4.626   6.974  0.0164  0.0257  0.2009
   74SLPC   O13 6543   3.215   4.597   6.944  1.1309  0.2851 -0.4272
   74SLPC   O14 6544   3.383   4.755   7.037  0.1383  0.0769 -0.7482
   74SLPC   O12 6545   3.421   4.509   7.064 -0.2297  0.1428  0.6396
   74SLPC   O11 6546   3.432   4.627   6.830  0.3527 -0.8699 -0.1932
   74SLPC    C1 6547   3.575   4.624   6.833 -0.2766  0.3928  0.3336
   74SLPC    HA 6548   3.624   4.623   6.932  0.3447 -0.3186  0.0325
   74SLPC    HB 6549   3.599   4.531   6.776 -1.6237  0.2853 -0.0936
   74SLPC    C2 6550   3.635   4.744   6.752 -0.3097 -0.0899  0.2961
   74SLPC    HS 6551   3.575   4.835   6.771 -0.4236 -0.3800  1.4034
   74SLPC   O21 6552   3.653   4.725   6.606  0.0712 -0.5081 -0.0328
   74SLPC   C21 6553   3.625   4.831   6.533 -0.4218 -0.1209 -0.0694
   74SLPC   O22 6554   3.592   4.945   6.571  0.4190 -0.3677 -0.6047
   74SLPC   C22 6555   3.648   4.798   6.381  0.5858 -0.4950  0.1637
   74SLPC   H2R 6556   3.749   4.751   6.378  0.3383 -1.3725  2.6260
   74SLPC   H2S 6557   3.575   4.722   6.345  1.5798 -1.6566  0.5020
   74SLPC    C3 6558   3.771   4.784   6.816  0.4472 -0.2608  0.9606
   74SLPC    HX 6559   3.847   4.705   6.793  1.1514  0.2592  1.4645
   74SLPC    HY 6560   3.747   4.776   6.924 -2.5060  2.5324  0.6449
   74SLPC   O31 6561   3.821   4.917   6.807 -0.1224 -0.1157  0.2834
   74SLPC   C31 6562   3.911   4.939   6.706  0.1929 -0.2693 -0.4166
   74SLPC   O32 6563   3.954   4.856   6.627 -0.8412  0.1202 -0.5720
   74SLPC   C32 6564   3.952   5.089   6.709  0.6825  0.2344 -0.1557
   74SLPC   H2X 6565   3.972   5.109   6.816  0.5911  0.3733 -0.1648
   74SLPC   H2Y 6566   3.861   5.140   6.672 -1.1714 -2.9973 -0.5036
   74SLPC   C23 6567   3.655   4.925   6.291  0.3953  0.1790 -0.3905
   74SLPC   H3R 6568   3.585   5.005   6.326  0.8400 -0.3837  1.9939
   74SLPC   H3S 6569   3.599   4.887   6.204 -1.3264 -4.8128  2.5041
   74SLPC   C24 6570   3.798   4.982   6.285 -0.3988  0.0107 -0.0302
   74SLPC   H4R 6571   3.850   4.894   6.242 -2.6621 -1.1047 -0.6369
   74SLPC   H4S 6572   3.833   4.999   6.389  0.0374 -0.6295 -0.0695
   74SLPC   C25 6573   3.811   5.099   6.200  0.1634  0.0122 -0.1116
   74SLPC   H5R 6574   3.736   5.172   6.236  0.2638  0.1726 -0.2280
   74SLPC   H5S 6575   3.779   5.079   6.096  0.8825 -2.2322  0.0349
   74SLPC   C26 6576   3.955   5.155   6.193  0.4778 -0.2035  0.7820
   74SLPC   H6R 6577   4.005   5.080   6.129 -0.7284  0.5387 -1.1002
   74SLPC   H6S 6578   4.002   5.144   6.293 -0.7711 -1.6986  1.2573
   74SLPC   C27 6579   3.968   5.290   6.139  0.2302  0.4382  0.0623
   74SLPC   H7R 6580   4.076   5.315   6.133  0.1705  0.3179 -2.2890
   74SLPC   H7S 6581   3.916   5.357   6.210 -0.6683  0.2697 -0.4153
   74SLPC   C28 6582   3.908   5.301   5.994 -0.2986 -0.1514 -0.5816
   74SLPC   H8R 6583   3.916   5.405   5.955 -0.2445 -0.1074 -0.4534
   74SLPC   H8S 6584   3.801   5.272   5.994 -0.9455  1.7914  2.4931
   74SLPC   C29 6585   3.974   5.206   5.891  0.3273 -0.0096  0.9646
   74SLPC   H9R 6586   3.931   5.106   5.881  0.8945 -0.0661 -1.9913
   74SLPC  C210 6587   4.084   5.228   5.817 -0.4193  0.3833  0.1708
   74SLPC  H10R 6588   4.121   5.145   5.756 -1.0471  0.4896 -0.3665
   74SLPC  C211 6589   4.177   5.347   5.812  0.1099 -0.3123  0.0153
   74SLPC  H11R 6590   4.152   5.403   5.905 -1.3892 -0.6832 -0.1339
   74SLPC  H11S 6591   4.136   5.421   5.740  0.1730 -0.2765  0.0168
   74SLPC  C212 6592   4.322   5.318   5.795  0.1191  0.3921  0.1521
   74SLPC  H12R 6593   4.368   5.265   5.880 -3.0454 -0.6328  1.3461
   74SLPC  C213 6594   4.397   5.343   5.681  0.3953  0.1072 -0.5180
   74SLPC  H13R 6595   4.506   5.331   5.683  0.5979  1.7999  0.5312
   74SLPC  C214 6596   4.337   5.372   5.547  0.2421  0.1230 -0.2154
   74SLPC  H14R 6597   4.356   5.477   5.516  1.3833 -0.1825 -0.6238
   74SLPC  H14S 6598   4.227   5.364   5.552  0.4269 -2.9071  1.4332
   74SLPC  C215 6599   4.382   5.275   5.432 -0.6026  0.7101  0.2843
   74SLPC  H15R 6600   4.373   5.168   5.462  2.2628  0.3176  0.0575
   74SLPC  H15S 6601   4.492   5.287   5.419 -0.3680 -0.9828  0.4450
   74SLPC  C216 6602   4.305   5.293   5.304  0.0165  0.1910 -0.7300
   74SLPC  H16R 6603   4.197   5.269   5.309  0.1122 -0.1711 -0.3811
   74SLPC  H16S 6604   4.333   5.217   5.228  0.2119 -1.0237  0.5202
   74SLPC  C217 6605   4.337   5.426   5.240  0.4162 -0.3438 -1.1548
   74SLPC  H17R 6606   4.444   5.452   5.255 -0.1177  1.0146  0.6232
   74SLPC  H17S 6607   4.280   5.494   5.307  0.0041  1.0889 -2.8893
   74SLPC  C218 6608   4.309   5.428   5.090 -0.6663 -0.0953  0.3605
   74SLPC  H18R 6609   4.396   5.410   5.023 -0.4248 -2.4176  1.2138
   74SLPC  H18S 6610   4.265   5.525   5.058  3.8741  1.6013 -1.5451
   74SLPC  H18T 6611   4.232   5.350   5.071 -1.0220  0.1403  0.8142
   74SLPC   C33 6612   4.064   5.126   6.618 -0.5241  0.1308 -0.3572
   74SLPC   H3X 6613   4.073   5.061   6.529  1.7226  0.4441 -0.4327
   74SLPC   H3Y 6614   4.158   5.103   6.673 -0.6551 -1.1563 -0.6542
   74SLPC   C34 6615   4.054   5.272   6.576  0.3466 -0.3122  0.4213
   74SLPC   H4X 6616   4.055   5.342   6.663 -1.2147 -0.7164  0.7914
   74SLPC   H4Y 6617   3.959   5.287   6.520  0.0386  1.2303  1.3064
   74SLPC   C35 6618   4.172   5.290   6.482  0.8607 -0.0948 -0.2011
   74SLPC   H5X 6619   4.171   5.206   6.409 -0.9472  0.1264 -0.4726
   74SLPC   H5Y 6620   4.269   5.289   6.536  0.9831  2.3969 -0.2587
   74SLPC   C36 6621   4.172   5.429   6.414 -0.1371  0.6099 -0.6466
   74SLPC   H6X 6622   4.181   5.508   6.492 -0.2500  1.1532 -1.1760
   74SLPC   H6Y 6623   4.081   5.446   6.351 -1.2675 -2.3196  0.0329
   74SLPC   C37 6624   4.292   5.459   6.316  0.6107 -0.3990 -0.5924
   74SLPC   H7X 6625   4.309   5.374   6.247 -0.5616 -0.7392 -0.4800
   74SLPC   H7Y 6626   4.384   5.480   6.375  0.1851 -0.7760  0.2182
   74SLPC   C38 6627   4.286   5.581   6.230  0.2998 -0.4231  0.3275
   74SLPC   H8X 6628   4.276   5.678   6.283  2.9168 -0.2551  0.6589
   74SLPC   H8Y 6629   4.194   5.576   6.167 -0.0851 -1.0870  0.9267
   74SLPC   C39 6630   4.414   5.580   6.150 -0.2843  0.3464  0.2592
   74SLPC   H9X 6631   4.420   5.483   6.096 -0.0021  0.0249  0.8598
   74SLPC   H9Y 6632   4.496   5.588   6.225 -2.6457 -0.5068  3.0879
   74SLPC  C310 6633   4.404   5.690   6.043  0.7291 -0.4504 -0.2636
   74SLPC  H10X 6634   4.453   5.784   6.075 -1.6629  1.2147 -1.1548
   74SLPC  H10Y 6635   4.296   5.704   6.018  0.6118 -1.9828 -0.7499
   74SLPC  C311 6636   4.472   5.663   5.908  0.6043 -0.3063 -0.0803
   74SLPC  H11X 6637   4.454   5.557   5.879 -1.2387  0.2169 -1.0028
   74SLPC  H11Y 6638   4.583   5.665   5.917  0.6688 -0.0377 -0.8414
   74SLPC  C312 6639   4.421   5.748   5.792 -1.0005  0.2214 -0.4720
   74SLPC  H12X 6640   4.435   5.854   5.824 -1.2033  0.6048 -1.6065
   74SLPC  H12Y 6641   4.312   5.726   5.784 -0.7321 -1.3864 -0.0390
   74SLPC  C313 6642   4.497   5.727   5.665  0.2624  0.6970 -0.0874
   74SLPC  H13X 6643   4.487   5.627   5.618  1.0744  1.0589 -1.0798
   74SLPC  H13Y 6644   4.604   5.741   5.689  0.4990 -0.7829 -0.2031
   74SLPC  C314 6645   4.476   5.837   5.556 -0.0105 -0.8239  0.0120
   74SLPC  H14X 6646   4.478   5.927   5.622  0.7918  0.2791 -1.4561
   74SLPC  H14Y 6647   4.378   5.845   5.504  0.1091  2.0423  0.0722
   74SLPC  C315 6648   4.588   5.850   5.457 -0.4472  0.1405 -0.4832
   74SLPC  H15X 6649   4.680   5.818   5.511 -0.6666 -1.2324 -0.8732
   74SLPC  H15Y 6650   4.609   5.952   5.419  3.1292 -0.6020 -0.9045
   74SLPC  C316 6651   4.575   5.739   5.340 -0.0716 -0.5353  0.4385
   74SLPC  H16X 6652   4.466   5.725   5.329 -0.2662  0.2347  1.2752
   74SLPC  H16Y 6653   4.618   5.647   5.384 -0.5425 -1.4428 -0.9505
   74SLPC  C317 6654   4.648   5.781   5.211 -0.3219  0.7448  0.1864
   74SLPC  H17X 6655   4.754   5.791   5.244 -0.2759  0.3983  0.1472
   74SLPC  H17Y 6656   4.618   5.884   5.179  1.1139  0.2367 -3.2593
   74SLPC  C318 6657   4.636   5.697   5.085  0.0270 -0.0392 -0.6965
   74SLPC  H18X 6658   4.543   5.719   5.028 -1.0245 -1.0585  0.5434
   74SLPC  H18Y 6659   4.643   5.588   5.107 -2.6771 -0.3030 -0.7440
   74SLPC  H18Z 6660   4.715   5.741   5.021  0.0535  1.3313  0.2310
   75SLPC     N 6661   5.866   4.494   7.071  0.3169 -0.1492  0.0467
   75SLPC   C13 6662   5.860   4.556   6.932  0.7871  0.4296 -0.0793
   75SLPC  H13A 6663   5.757   4.566   6.903 -0.1106  1.8497  3.1669
   75SLPC  H13B 6664   5.893   4.659   6.936 -0.9350  0.9808  0.7545
   75SLPC  H13C 6665   5.915   4.498   6.859  1.9789 -0.4463  1.4514
   75SLPC   C14 6666   5.824   4.348   7.067  0.3525  0.0651 -0.3692
   75SLPC  H14A 6667   5.719   4.334   7.047  0.4739 -1.3965 -0.1242
   75SLPC  H14B 6668   5.877   4.305   6.983  2.9065  0.9543  0.6828
   75SLPC  H14C 6669   5.851   4.285   7.150  1.6875  1.5264  0.3523
   75SLPC   C15 6670   5.764   4.559   7.169  0.1379 -0.0818 -0.0322
   75SLPC  H15A 6671   5.671   4.570   7.115  1.2080  1.9584 -1.5894
   75SLPC  H15B 6672   5.763   4.494   7.255  2.7657 -2.0504 -1.3239
   75SLPC  H15C 6673   5.798   4.651   7.214  0.6871 -0.2436 -0.1044
   75SLPC   C12 6674   6.008   4.512   7.129 -0.4387  0.0830 -0.4735
   75SLPC  H12A 6675   6.010   4.468   7.227  2.6728 -1.2328 -1.0121
   75SLPC  H12B 6676   6.029   4.616   7.152  1.6791 -0.1972 -0.8879
   75SLPC   C11 6677   6.129   4.455   7.057 -0.1176  0.4692  0.0378
   75SLPC  H11A 6678   6.115   4.347   7.038  1.3131  0.7159 -2.9564
   75SLPC  H11B 6679   6.214   4.461   7.128  1.6886 -1.4691 -1.8019
   75SLPC     P 6680   6.214   4.660   6.930 -0.5375 -0.2534 -0.0522
   75SLPC   O13 6681   6.099   4.753   6.943 -0.3629 -0.1828  0.5262
   75SLPC   O14 6682   6.316   4.670   7.034  0.3348 -0.4479  0.4087
   75SLPC   O12 6683   6.161   4.510   6.930  0.7371 -0.1035  0.0224
   75SLPC   O11 6684   6.279   4.681   6.788 -0.0472 -0.4481 -0.2638
   75SLPC    C1 6685   6.281   4.579   6.693 -0.5413 -0.0082  0.4350
   75SLPC    HA 6686   6.352   4.615   6.616 -1.5318  0.7325 -0.1538
   75SLPC    HB 6687   6.316   4.481   6.733 -1.1559  0.1877  1.4926
   75SLPC    C2 6688   6.154   4.569   6.607 -0.3230  0.1577 -0.0809
   75SLPC    HS 6689   6.070   4.517   6.657  0.2768  0.4531  1.2818
   75SLPC   O21 6690   6.188   4.514   6.478  0.1484 -0.3301  0.1862
   75SLPC   C21 6691   6.199   4.381   6.477 -0.5785  0.5678  0.1449
   75SLPC   O22 6692   6.201   4.313   6.579 -0.0516  0.2096  0.1280
   75SLPC   C22 6693   6.201   4.329   6.331  0.1810 -0.4785 -0.6641
   75SLPC   H2R 6694   6.264   4.397   6.270  0.5333  1.2438  1.4975
   75SLPC   H2S 6695   6.242   4.226   6.320  1.4923  0.1132 -1.5076
   75SLPC    C3 6696   6.105   4.712   6.572 -0.5598 -0.3812  0.5277
   75SLPC    HX 6697   6.179   4.770   6.512 -0.1071 -0.9188  0.5486
   75SLPC    HY 6698   6.092   4.774   6.663 -1.1830  1.2818 -0.6431
   75SLPC   O31 6699   5.978   4.694   6.491 -0.2533  0.1046 -0.2326
   75SLPC   C31 6700   5.934   4.810   6.440 -0.0133  0.1140 -0.0787
   75SLPC   O32 6701   6.001   4.913   6.450  0.0733 -0.3782 -0.5923
   75SLPC   C32 6702   5.798   4.803   6.373  0.0517  0.5908  0.5671
   75SLPC   H2X 6703   5.714   4.829   6.440  0.7220  0.5400  1.4524
   75SLPC   H2Y 6704   5.789   4.695   6.347 -0.9924  0.8352 -0.1205
   75SLPC   C23 6705   6.059   4.313   6.267 -0.0721 -0.6813 -0.1984
   75SLPC   H3R 6706   6.017   4.414   6.249  0.6340 -0.3725 -0.1216
   75SLPC   H3S 6707   5.994   4.248   6.331  1.8286  0.5784  3.2675
   75SLPC   C24 6708   6.074   4.244   6.126  0.1777  0.3891 -0.7263
   75SLPC   H4R 6709   6.073   4.137   6.155 -3.5931  0.1780 -1.1218
   75SLPC   H4S 6710   6.169   4.281   6.081  0.3852  1.1883  0.3185
   75SLPC   C25 6711   5.961   4.269   6.028 -0.3481  0.8853 -0.0099
   75SLPC   H5R 6712   5.950   4.379   6.016 -0.1533  1.1637  2.0661
   75SLPC   H5S 6713   5.867   4.225   6.068  1.1531 -1.8273  0.7604
   75SLPC   C26 6714   5.979   4.207   5.888  0.0580 -0.3418 -0.0906
   75SLPC   H6R 6715   5.987   4.098   5.907  0.0729 -0.3427 -0.1012
   75SLPC   H6S 6716   6.074   4.235   5.837  0.2306 -1.3106 -0.3147
   75SLPC   C27 6717   5.862   4.230   5.790 -0.3518  0.5635  0.6778
   75SLPC   H7R 6718   5.773   4.225   5.856  0.5954  0.6243  2.0143
   75SLPC   H7S 6719   5.868   4.146   5.717  0.3540  1.1586  0.0418
   75SLPC   C28 6720   5.870   4.373   5.712 -0.5526  1.1260 -0.5923
   75SLPC   H8R 6721   5.978   4.397   5.711 -0.0747 -0.6682  1.1810
   75SLPC   H8S 6722   5.823   4.442   5.785  0.8395  0.8993  0.5424
   75SLPC   C29 6723   5.802   4.378   5.575 -0.6075  0.1102  0.8045
   75SLPC   H9R 6724   5.693   4.367   5.571 -0.6244  0.7348 -1.9459
   75SLPC  C210 6725   5.871   4.379   5.458 -0.1862 -0.3519 -0.5528
   75SLPC  H10R 6726   5.808   4.402   5.371 -2.3321  1.4080  1.3658
   75SLPC  C211 6727   6.022   4.377   5.444  0.1457 -0.1083  0.1303
   75SLPC  H11R 6728   6.039   4.268   5.432  0.3598  0.1555 -2.4104
   75SLPC  H11S 6729   6.076   4.403   5.538 -0.9093 -0.5621  0.8862
   75SLPC  C212 6730   6.047   4.463   5.318 -0.2206 -0.2660  0.2675
   75SLPC  H12R 6731   6.037   4.572   5.323  0.3859 -0.2259  0.6408
   75SLPC  C213 6732   6.054   4.417   5.190  0.4046  0.2940 -0.6518
   75SLPC  H13R 6733   6.051   4.502   5.120 -1.8364  0.3496 -0.5643
   75SLPC  C214 6734   6.048   4.281   5.127  0.1678 -0.1518  0.2997
   75SLPC  H14R 6735   6.060   4.200   5.201  0.2955 -2.0999 -1.7504
   75SLPC  H14S 6736   6.137   4.264   5.064 -0.4290 -2.3940 -0.0129
   75SLPC  C215 6737   5.916   4.248   5.056  0.9730  0.1093  0.0730
   75SLPC  H15R 6738   5.833   4.290   5.116  1.4727  0.3030  0.6466
   75SLPC  H15S 6739   5.908   4.137   5.058 -1.9167  0.1012 -2.8327
   75SLPC  C216 6740   5.921   4.309   4.912  1.0581  0.7539 -0.4920
   75SLPC  H16R 6741   6.007   4.259   4.863 -0.7803 -2.3492 -0.8494
   75SLPC  H16S 6742   5.933   4.420   4.913 -0.5225  1.0544 -3.6470
   75SLPC  C217 6743   5.814   4.243   4.817  0.2454 -0.0309  0.3586
   75SLPC  H17R 6744   5.836   4.135   4.802  1.8681  0.0875  1.6099
   75SLPC  H17S 6745   5.821   4.297   4.720 -2.8540  3.2414  1.7509
   75SLPC  C218 6746   5.666   4.249   4.859 -1.0380  0.5079  0.1964
   75SLPC  H18R 6747   5.607   4.212   4.772 -0.5510  4.1867 -1.9154
   75SLPC  H18S 6748   5.640   4.357   4.860  0.4246  0.9069 -0.5985
   75SLPC  H18T 6749   5.639   4.193   4.951  0.2990  1.5338  1.2615
   75SLPC   C33 6750   5.782   4.873   6.238  0.5560 -0.5718 -0.2471
   75SLPC   H3X 6751   5.777   4.984   6.243 -2.7422 -0.6332  0.0122
   75SLPC   H3Y 6752   5.672   4.868   6.223  0.3017  1.3426  0.6856
   75SLPC   C34 6753   5.850   4.819   6.109  0.2449  0.0905  0.3424
   75SLPC   H4X 6754   5.847   4.708   6.109  1.9111 -0.0354 -2.3199
   75SLPC   H4Y 6755   5.953   4.857   6.125 -0.2693  0.9727  1.7974
   75SLPC   C35 6756   5.790   4.878   5.980 -0.3297 -0.2343 -0.0010
   75SLPC   H5X 6757   5.841   4.976   5.972  0.5917 -0.5144  1.8123
   75SLPC   H5Y 6758   5.680   4.884   5.988 -0.3078 -0.7880  0.8719
   75SLPC   C36 6759   5.831   4.786   5.859  0.5362  0.2040 -0.3630
   75SLPC   H6X 6760   5.787   4.684   5.872 -0.0427  0.4190 -0.5696
   75SLPC   H6Y 6761   5.941   4.771   5.860  0.6951  1.3414  0.2510
   75SLPC   C37 6762   5.775   4.830   5.720 -0.0567 -0.4317  0.0444
   75SLPC   H7X 6763   5.817   4.930   5.700 -2.2586  0.0886 -2.4476
   75SLPC   H7Y 6764   5.664   4.831   5.721 -0.1106 -1.8857 -1.0826
   75SLPC   C38 6765   5.828   4.736   5.608  0.6085  0.1702 -0.5398
   75SLPC   H8X 6766   5.768   4.644   5.625  0.8929  0.2316  0.9283
   75SLPC   H8Y 6767   5.936   4.717   5.623  0.2746 -0.1425  1.9809
   75SLPC   C39 6768   5.782   4.780   5.472  0.1296 -0.4098  0.6192
   75SLPC   H9X 6769   5.844   4.731   5.394  1.1197  1.3405  0.2510
   75SLPC   H9Y 6770   5.817   4.884   5.453 -0.8480 -0.1644  0.0959
   75SLPC  C310 6771   5.626   4.773   5.445 -0.2563 -0.1123  0.1654
   75SLPC  H10X 6772   5.573   4.837   5.518 -0.0683 -0.7547  0.8718
   75SLPC  H10Y 6773   5.596   4.668   5.463 -1.0527  0.5527  3.1495
   75SLPC  C311 6774   5.586   4.817   5.308  0.1211 -0.4633 -0.3826
   75SLPC  H11X 6775   5.628   4.916   5.280 -1.0562  0.3148  0.4745
   75SLPC  H11Y 6776   5.476   4.838   5.309 -0.1211 -1.3838  2.6332
   75SLPC  C312 6777   5.632   4.723   5.205 -0.3016  0.6789  0.6840
   75SLPC  H12X 6778   5.619   4.616   5.230  1.5676 -0.5936 -3.0821
   75SLPC  H12Y 6779   5.741   4.721   5.182 -0.5349 -0.0264 -0.4381
   75SLPC  C313 6780   5.554   4.735   5.074 -0.1019 -0.1928  0.5326
   75SLPC  H13X 6781   5.586   4.830   5.025 -0.1626 -0.1381  0.5983
   75SLPC  H13Y 6782   5.449   4.754   5.105  0.0157  4.1338 -0.9919
   75SLPC  C314 6783   5.563   4.612   4.984  0.0742  0.1774  0.0718
   75SLPC  H14X 6784   5.534   4.533   5.057  2.9371 -1.3684 -0.3075
   75SLPC  H14Y 6785   5.670   4.598   4.957  0.1873  1.0695  0.0259
   75SLPC  C315 6786   5.485   4.599   4.856  0.3836  0.3091 -0.9597
   75SLPC  H15X 6787   5.542   4.552   4.773 -1.7406 -2.6145 -0.8900
   75SLPC  H15Y 6788   5.476   4.706   4.827  0.8629  0.4042 -0.7608
   75SLPC  C316 6789   5.353   4.519   4.875 -0.2239  0.6693 -0.1526
   75SLPC  H16X 6790   5.276   4.582   4.924  0.0654 -0.3418  1.6963
   75SLPC  H16Y 6791   5.372   4.433   4.943  3.9261  1.5396  0.0612
   75SLPC  C317 6792   5.292   4.450   4.742 -0.2746 -0.2352  0.1725
   75SLPC  H17X 6793   5.257   4.534   4.679  0.7639  1.4155  1.7269
   75SLPC  H17Y 6794   5.205   4.389   4.776 -1.1078  1.0222  0.3808
   75SLPC  C318 6795   5.389   4.365   4.658 -0.2735 -0.4607  0.5522
   75SLPC  H18X 6796   5.479   4.419   4.621  0.5705 -1.8933  0.4470
   75SLPC  H18Y 6797   5.343   4.334   4.562  0.7856  1.8442 -0.7814
   75SLPC  H18Z 6798   5.419   4.276   4.718  0.4393 -0.3752  0.3297
   76SLPC     N 6799   0.835   3.366   7.551  0.3750  0.0285  0.2883
   76SLPC   C13 6800   0.735   3.426   7.461  0.0288  0.0506  0.3934
   76SLPC  H13A 6801   0.643   3.429   7.517  1.2239 -0.7281  2.5379
   76SLPC  H13B 6802   0.770   3.524   7.432 -0.8036  1.1631  2.8820
   76SLPC  H13C 6803   0.714   3.357   7.381 -1.8082  1.8133 -0.7199
   76SLPC   C14 6804   0.771   3.255   7.623  0.2811 -0.2542 -0.3388
   76SLPC  H14A 6805   0.729   3.185   7.553  2.2495  0.6046 -2.5096
   76SLPC  H14B 6806   0.833   3.203   7.695  0.6224  0.0640 -0.4004
   76SLPC  H14C 6807   0.692   3.294   7.686 -0.0562 -1.6883  0.1819
   76SLPC   C15 6808   0.869   3.457   7.661  0.2004  0.6406 -0.2660
   76SLPC  H15A 6809   0.930   3.408   7.735  0.1027  1.7522  0.5630
   76SLPC  H15B 6810   0.920   3.543   7.620 -1.2081  1.3813 -0.5007
   76SLPC  H15C 6811   0.782   3.496   7.710  0.6363  1.8353 -0.4202
   76SLPC   C12 6812   0.955   3.315   7.475  0.2951 -0.5324  0.5120
   76SLPC  H12A 6813   0.926   3.256   7.389 -2.1836  1.6531 -0.3330
   76SLPC  H12B 6814   1.024   3.259   7.535  0.4900 -0.7417  0.0981
   76SLPC   C11 6815   1.043   3.420   7.401 -0.0445 -0.5545 -0.3849
   76SLPC  H11A 6816   0.973   3.491   7.352  1.0079  2.4041  2.1140
   76SLPC  H11B 6817   1.103   3.368   7.324 -1.1004 -2.2413 -0.1342
   76SLPC     P 6818   1.250   3.413   7.570 -0.0488 -0.4118  0.3325
   76SLPC   O13 6819   1.307   3.517   7.666  0.0105  0.4895  0.1952
   76SLPC   O14 6820   1.199   3.285   7.626  0.8096  0.2058  0.1816
   76SLPC   O12 6821   1.125   3.487   7.499  1.0554  0.3199 -0.5593
   76SLPC   O11 6822   1.357   3.391   7.457  0.4241  0.4190 -0.1429
   76SLPC    C1 6823   1.432   3.503   7.408  0.3197 -0.1075  0.3423
   76SLPC    HA 6824   1.432   3.591   7.476 -0.8782  0.1063  0.0901
   76SLPC    HB 6825   1.538   3.471   7.399  0.6506  1.3834 -1.6067
   76SLPC    C2 6826   1.375   3.572   7.275  0.6182 -0.0388 -0.3598
   76SLPC    HS 6827   1.291   3.641   7.303  0.9035  0.1157  0.1214
   76SLPC   O21 6828   1.344   3.481   7.171  0.1740  0.2637 -0.1974
   76SLPC   C21 6829   1.253   3.515   7.081 -0.0384  0.4305  0.6567
   76SLPC   O22 6830   1.180   3.613   7.087 -0.6079 -0.0469 -0.0195
   76SLPC   C22 6831   1.263   3.413   6.958 -0.0209 -0.3405 -0.5514
   76SLPC   H2R 6832   1.369   3.381   6.948  0.1481  0.0922 -0.1872
   76SLPC   H2S 6833   1.194   3.329   6.980  1.6438 -1.6774 -0.1985
   76SLPC    C3 6834   1.485   3.669   7.223 -0.3582 -0.0791 -0.1097
   76SLPC    HX 6835   1.563   3.609   7.171 -0.5503 -1.1406  0.7797
   76SLPC    HY 6836   1.535   3.710   7.314 -0.5260 -0.0231 -0.0425
   76SLPC   O31 6837   1.428   3.781   7.150 -0.3966  0.6533 -0.0132
   76SLPC   C31 6838   1.463   3.800   7.026  0.3699  0.4781  0.5662
   76SLPC   O32 6839   1.549   3.741   6.960  0.7104  0.0753  0.6069
   76SLPC   C32 6840   1.372   3.905   6.959  0.9612  0.1947  0.0712
   76SLPC   H2X 6841   1.393   3.999   7.016  0.7299  0.9963 -1.1221
   76SLPC   H2Y 6842   1.266   3.873   6.968  1.1235 -0.6739 -0.9118
   76SLPC   C23 6843   1.224   3.496   6.838 -0.7792  0.1929  0.6004
   76SLPC   H3R 6844   1.262   3.433   6.755 -2.3685 -0.1810  0.1230
   76SLPC   H3S 6845   1.288   3.587   6.830 -0.3288 -0.0448  1.3868
   76SLPC   C24 6846   1.077   3.504   6.815  0.4395 -0.6038 -0.4501
   76SLPC   H4R 6847   1.028   3.575   6.885  3.6965  1.4007  0.0282
   76SLPC   H4S 6848   1.043   3.399   6.830  2.9035 -1.6664 -1.5851
   76SLPC   C25 6849   1.016   3.554   6.679  0.9338  0.7134 -0.0807
   76SLPC   H5R 6850   1.035   3.664   6.675  1.7197  0.5684 -0.4524
   76SLPC   H5S 6851   0.910   3.529   6.699  0.9716  0.5487 -0.0891
   76SLPC   C26 6852   1.051   3.484   6.542  0.4004  0.4490  0.0924
   76SLPC   H6R 6853   1.024   3.380   6.570 -0.1418  1.0123  1.8180
   76SLPC   H6S 6854   1.158   3.481   6.513  0.1283  0.5542 -0.9535
   76SLPC   C27 6855   0.968   3.524   6.422 -0.0835 -0.2704 -0.2537
   76SLPC   H7R 6856   0.867   3.548   6.459 -0.5598 -1.1601 -0.9228
   76SLPC   H7S 6857   0.967   3.446   6.342  0.7786 -0.6621  0.1005
   76SLPC   C28 6858   1.027   3.652   6.352  0.1462 -0.0055  0.0098
   76SLPC   H8R 6859   1.052   3.731   6.427 -0.7379  0.8067 -0.5317
   76SLPC   H8S 6860   0.931   3.678   6.303 -0.1023  0.4256  0.7150
   76SLPC   C29 6861   1.147   3.613   6.258  0.3710  0.5175  0.0214
   76SLPC   H9R 6862   1.238   3.575   6.306  0.1626  2.9739  2.6826
   76SLPC  C210 6863   1.131   3.620   6.127  0.2927 -0.2587 -0.2757
   76SLPC  H10R 6864   1.216   3.585   6.066 -0.2340 -0.1090 -1.1063
   76SLPC  C211 6865   1.017   3.681   6.043  0.1107  0.0778  1.0267
   76SLPC  H11R 6866   0.935   3.710   6.112 -0.0329  0.1902  0.8096
   76SLPC  H11S 6867   0.963   3.613   5.973  0.1910  1.5926 -0.5667
   76SLPC  C212 6868   1.063   3.795   5.960  0.3747  0.3695  0.2752
   76SLPC  H12R 6869   1.022   3.886   6.004  0.0468  0.0740  0.5896
   76SLPC  C213 6870   1.144   3.800   5.855 -0.8043  0.0510 -0.4504
   76SLPC  H13R 6871   1.138   3.888   5.789 -0.4650  0.7491  0.4239
   76SLPC  C214 6872   1.219   3.685   5.790 -0.7565 -0.1698 -0.6964
   76SLPC  H14R 6873   1.251   3.606   5.862 -0.8130 -1.6457 -2.2304
   76SLPC  H14S 6874   1.309   3.727   5.741 -0.0443  1.0970  1.5193
   76SLPC  C215 6875   1.124   3.612   5.687 -0.2702  0.0078 -0.8450
   76SLPC  H15R 6876   1.034   3.574   5.741 -0.7653  1.0118 -0.9441
   76SLPC  H15S 6877   1.172   3.520   5.648  3.4593  1.5923 -0.3332
   76SLPC  C216 6878   1.088   3.704   5.565 -0.0805  0.5869  0.6806
   76SLPC  H16R 6879   1.037   3.800   5.590 -0.7069  0.4256  0.0528
   76SLPC  H16S 6880   1.017   3.637   5.512 -1.6714  2.1552  0.7589
   76SLPC  C217 6881   1.204   3.741   5.469  0.1150  0.0447 -0.1417
   76SLPC  H17R 6882   1.153   3.747   5.370  1.4129 -2.6569 -1.0858
   76SLPC  H17S 6883   1.273   3.655   5.452  1.6625  0.7788  1.9948
   76SLPC  C218 6884   1.284   3.866   5.492 -0.2136  0.1858  0.4717
   76SLPC  H18R 6885   1.344   3.869   5.586  2.0547  2.5189 -0.9464
   76SLPC  H18S 6886   1.214   3.953   5.497  0.0108  0.3246  1.3841
   76SLPC  H18T 6887   1.355   3.874   5.408 -1.2258  1.0781 -0.3321
   76SLPC   C33 6888   1.396   3.919   6.807  0.4856 -0.2861  0.0260
   76SLPC   H3X 6889   1.380   3.822   6.755  0.8422  0.1482 -0.9137
   76SLPC   H3Y 6890   1.506   3.930   6.800  0.7520 -2.1493  0.8023
   76SLPC   C34 6891   1.306   4.024   6.729 -0.5663 -0.3526  0.4757
   76SLPC   H4X 6892   1.349   4.124   6.753 -2.1684  0.1024  1.6426
   76SLPC   H4Y 6893   1.200   4.001   6.753 -0.7333  0.8640  1.0035
   76SLPC   C35 6894   1.313   4.003   6.576  0.7137 -0.3366  0.2306
   76SLPC   H5X 6895   1.240   4.066   6.521  1.5745  0.0634 -0.4869
   76SLPC   H5Y 6896   1.298   3.896   6.551 -0.4708  0.0659 -0.9437
   76SLPC   C36 6897   1.453   4.030   6.519 -0.2104  0.4146  0.4474
   76SLPC   H6X 6898   1.526   3.962   6.570  2.3988  1.4174 -1.6828
   76SLPC   H6Y 6899   1.481   4.132   6.554  0.4591  0.9201 -1.4316
   76SLPC   C37 6900   1.466   4.006   6.365  0.3820 -0.0293 -0.5621
   76SLPC   H7X 6901   1.424   3.907   6.338 -1.1699  0.7727 -1.2343
   76SLPC   H7Y 6902   1.571   3.996   6.329  0.4627  1.4897 -0.8489
   76SLPC   C38 6903   1.382   4.103   6.278 -0.4102  0.3613 -0.2274
   76SLPC   H8X 6904   1.423   4.206   6.286 -0.2707  0.1792  3.3052
   76SLPC   H8Y 6905   1.280   4.110   6.321  0.5957  0.9002  2.2457
   76SLPC   C39 6906   1.368   4.062   6.130 -0.1148 -0.4708  0.2509
   76SLPC   H9X 6907   1.303   4.138   6.081 -1.5174 -0.3488  2.1647
   76SLPC   H9Y 6908   1.324   3.961   6.116 -0.8576 -0.1531  0.2089
   76SLPC  C310 6909   1.508   4.054   6.059 -0.1957  0.7301  0.2975
   76SLPC  H10X 6910   1.562   3.971   6.109 -1.1992  0.9706  1.8469
   76SLPC  H10Y 6911   1.565   4.148   6.073 -1.3673  2.6563 -5.1793
   76SLPC  C311 6912   1.498   4.007   5.909  0.4889  0.0056 -0.7317
   76SLPC  H11X 6913   1.415   4.069   5.868 -0.8583 -0.2975  1.3669
   76SLPC  H11Y 6914   1.473   3.899   5.908  2.1703 -0.5620  3.1556
   76SLPC  C312 6915   1.609   4.043   5.811  0.6620  0.5283 -0.5985
   76SLPC  H12X 6916   1.692   3.974   5.835 -2.1063 -2.1580  2.1770
   76SLPC  H12Y 6917   1.642   4.145   5.843  1.2806 -0.0185  0.5683
   76SLPC  C313 6918   1.575   4.027   5.668  0.4703  0.0323 -0.1881
   76SLPC  H13X 6919   1.491   4.098   5.651  1.1723  0.7808 -0.6204
   76SLPC  H13Y 6920   1.543   3.923   5.647  0.4619 -1.2501  4.8034
   76SLPC  C314 6921   1.689   4.067   5.571 -0.5692  0.3027  0.3149
   76SLPC  H14X 6922   1.779   4.006   5.595  0.3752  0.8343 -1.6352
   76SLPC  H14Y 6923   1.716   4.173   5.593 -2.5556  1.1732 -1.1668
   76SLPC  C315 6924   1.657   4.034   5.424 -0.1824  0.4682 -0.2828
   76SLPC  H15X 6925   1.560   4.081   5.396 -1.8988 -2.3621  0.4497
   76SLPC  H15Y 6926   1.646   3.924   5.413  0.0583  0.3115  0.8811
   76SLPC  C316 6927   1.762   4.069   5.317 -0.1438 -0.5222 -0.4223
   76SLPC  H16X 6928   1.851   4.004   5.332 -0.5974 -0.8913  0.7858
   76SLPC  H16Y 6929   1.804   4.165   5.354 -1.8437 -0.1213  0.5744
   76SLPC  C317 6930   1.714   4.076   5.175 -0.2001  0.4542 -0.4530
   76SLPC  H17X 6931   1.615   4.126   5.170 -0.7368 -0.6834 -2.2852
   76SLPC  H17Y 6932   1.706   3.971   5.138  0.5808 -1.3149  3.7786
   76SLPC  C318 6933   1.817   4.162   5.099 -0.1186 -0.0009  0.0342
   76SLPC  H18X 6934   1.803   4.265   5.138  0.5810 -0.2090  0.8550
   76SLPC  H18Y 6935   1.791   4.171   4.991 -2.8474 -2.0306  0.4169
   76SLPC  H18Z 6936   1.916   4.123   5.130 -1.0783 -1.8546  0.9034
   77SLPC     N 6937   1.200   4.221   7.730 -0.3465 -0.0103  0.0632
   77SLPC   C13 6938   1.337   4.161   7.693  0.1099  0.3969  0.2245
   77SLPC  H13A 6939   1.326   4.073   7.631 -0.6674  0.8499 -0.3044
   77SLPC  H13B 6940   1.410   4.227   7.648  2.1939 -2.5834 -1.0908
   77SLPC  H13C 6941   1.385   4.121   7.781  2.9411  2.5097 -0.1965
   77SLPC   C14 6942   1.222   4.306   7.854  0.7112  0.5478  0.7550
   77SLPC  H14A 6943   1.136   4.367   7.877 -1.0435 -1.0856 -1.1007
   77SLPC  H14B 6944   1.264   4.244   7.932  1.2433 -1.1654 -0.8165
   77SLPC  H14C 6945   1.294   4.385   7.839 -0.5102  1.8872  1.7122
   77SLPC   C15 6946   1.094   4.118   7.750 -0.2631  0.1149  0.2546
   77SLPC  H15A 6947   1.083   4.056   7.662  2.4251  1.6756 -1.3085
   77SLPC  H15B 6948   1.125   4.057   7.833 -0.5872  0.9294  0.9994
   77SLPC  H15C 6949   1.003   4.167   7.783 -0.0179  0.3833  0.5360
   77SLPC   C12 6950   1.159   4.312   7.612 -1.0763  0.6441  0.6098
   77SLPC  H12A 6951   1.231   4.392   7.610 -0.7185  0.3628 -2.3064
   77SLPC  H12B 6952   1.061   4.352   7.633 -1.5746 -0.7623  1.0832
   77SLPC   C11 6953   1.142   4.253   7.467 -0.5376  0.4368  0.1481
   77SLPC  H11A 6954   1.229   4.189   7.439 -0.5730 -0.4839  1.9454
   77SLPC  H11B 6955   1.132   4.340   7.400 -0.3691  0.2462 -0.1257
   77SLPC     P 6956   0.890   4.217   7.429  0.2674 -0.3050  0.0627
   77SLPC   O13 6957   0.790   4.109   7.424 -0.2541 -0.0093 -0.0527
   77SLPC   O14 6958   0.870   4.321   7.534  0.2992 -0.4494 -0.1153
   77SLPC   O12 6959   1.033   4.159   7.452 -0.9126  0.0051 -0.4561
   77SLPC   O11 6960   0.902   4.266   7.281  0.5559  0.2465 -0.0406
   77SLPC    C1 6961   0.956   4.184   7.179  0.2704 -0.1253 -0.1841
   77SLPC    HA 6962   1.062   4.159   7.201  0.5848 -0.9323 -2.3765
   77SLPC    HB 6963   0.889   4.097   7.158 -0.1429 -0.2835  1.5788
   77SLPC    C2 6964   0.972   4.268   7.049  0.4699  0.4223 -0.2285
   77SLPC    HS 6965   1.032   4.359   7.070  1.4005 -0.1041 -0.5338
   77SLPC   O21 6966   0.843   4.298   7.006 -0.2182  0.5975  0.1883
   77SLPC   C21 6967   0.820   4.418   6.958  0.3495  0.1169  0.3567
   77SLPC   O22 6968   0.905   4.499   6.934 -0.0708 -0.4062 -0.6282
   77SLPC   C22 6969   0.668   4.427   6.925 -0.4256 -0.8978 -0.1054
   77SLPC   H2R 6970   0.608   4.335   6.941 -2.5723  0.5863  0.8907
   77SLPC   H2S 6971   0.643   4.512   6.992  3.4007  1.2383 -1.1243
   77SLPC    C3 6972   1.051   4.190   6.939  0.8777 -0.0511 -0.0295
   77SLPC    HX 6973   1.016   4.085   6.948 -2.2626  0.9445  0.4879
   77SLPC    HY 6974   1.156   4.189   6.976  0.2893 -1.6466  1.7482
   77SLPC   O31 6975   1.038   4.240   6.806  0.3451 -0.2255 -0.3927
   77SLPC   C31 6976   1.121   4.339   6.781  0.1767 -0.1464 -0.3835
   77SLPC   O32 6977   1.205   4.385   6.858  0.3393  0.3251  0.6768
   77SLPC   C32 6978   1.096   4.390   6.643  0.8282  0.1674 -0.3254
   77SLPC   H2X 6979   1.067   4.497   6.646 -1.0019 -0.2898 -0.8963
   77SLPC   H2Y 6980   1.023   4.325   6.590 -0.1611  0.6437  0.4222
   77SLPC   C23 6981   0.642   4.469   6.783  0.4416 -0.4136  0.5687
   77SLPC   H3R 6982   0.699   4.561   6.760 -0.0567 -0.7856 -2.6603
   77SLPC   H3S 6983   0.532   4.489   6.784  0.3236 -1.0452  1.5013
   77SLPC   C24 6984   0.684   4.353   6.684 -0.2351 -0.7027 -0.1793
   77SLPC   H4R 6985   0.639   4.254   6.706  0.9005 -1.2605 -0.3196
   77SLPC   H4S 6986   0.794   4.340   6.685 -0.2192 -0.7551 -1.3134
   77SLPC   C25 6987   0.666   4.383   6.532  0.8933 -0.1357  0.0841
   77SLPC   H5R 6988   0.710   4.483   6.513 -0.9227  0.7625  0.3845
   77SLPC   H5S 6989   0.560   4.409   6.515  0.8705  0.3836  0.9212
   77SLPC   C26 6990   0.705   4.263   6.441 -0.1829  0.4125 -0.3121
   77SLPC   H6R 6991   0.650   4.171   6.469  1.0598  0.2710  1.9058
   77SLPC   H6S 6992   0.809   4.238   6.470 -0.4638 -1.8286 -1.0364
   77SLPC   C27 6993   0.684   4.290   6.293  0.3770 -0.1478  0.5061
   77SLPC   H7R 6994   0.764   4.358   6.258 -1.6458  1.5070 -1.0946
   77SLPC   H7S 6995   0.598   4.357   6.275  0.8106  0.6369  1.2810
   77SLPC   C28 6996   0.677   4.162   6.208 -0.2863  0.8951  0.1022
   77SLPC   H8R 6997   0.643   4.189   6.106 -0.1637  0.2275 -0.1203
   77SLPC   H8S 6998   0.609   4.091   6.259 -1.1292  2.1101  0.7103
   77SLPC   C29 6999   0.811   4.112   6.207 -0.4042  0.4582 -0.0351
   77SLPC   H9R 7000   0.852   4.082   6.305  2.4401  2.1697 -0.5852
   77SLPC  C210 7001   0.907   4.123   6.110 -0.4171 -0.0883  0.9353
   77SLPC  H10R 7002   1.008   4.084   6.131 -0.3766  0.8284  2.6837
   77SLPC  C211 7003   0.891   4.180   5.964 -0.0451  0.1988  0.2117
   77SLPC  H11R 7004   0.786   4.176   5.929  0.0388 -1.6155  0.0782
   77SLPC  H11S 7005   0.943   4.117   5.889  1.6402 -0.9331  2.2129
   77SLPC  C212 7006   0.940   4.325   5.957 -0.0940  0.3405 -0.0270
   77SLPC  H12R 7007   0.926   4.385   6.048 -0.5448  0.8949 -0.4537
   77SLPC  C213 7008   0.988   4.385   5.854 -0.4506  0.4967  0.4874
   77SLPC  H13R 7009   1.013   4.492   5.851 -1.9332  0.8397 -1.2423
   77SLPC  C214 7010   1.000   4.324   5.710  0.2327 -0.8832  0.4729
   77SLPC  H14R 7011   0.983   4.215   5.707 -2.9471 -0.5667  2.5791
   77SLPC  H14S 7012   1.102   4.356   5.678 -0.4090 -0.1663 -0.9544
   77SLPC  C215 7013   0.915   4.392   5.600  0.2257  0.6870 -0.1313
   77SLPC  H15R 7014   0.904   4.503   5.600  0.9576  0.8514 -3.3397
   77SLPC  H15S 7015   0.810   4.355   5.607  0.0596  1.1220 -0.2235
   77SLPC  C216 7016   0.964   4.361   5.460  0.3810 -0.3051 -0.2115
   77SLPC  H16R 7017   0.961   4.251   5.452 -1.3493 -0.1642 -2.4817
   77SLPC  H16S 7018   1.065   4.406   5.453  0.2136  0.0032 -0.6676
   77SLPC  C217 7019   0.894   4.423   5.344  0.6317 -0.3304  0.8753
   77SLPC  H17R 7020   0.899   4.533   5.330 -1.8950 -0.4491 -1.9595
   77SLPC  H17S 7021   0.787   4.396   5.356  1.6306 -4.8567  1.0891
   77SLPC  C218 7022   0.935   4.381   5.206 -0.2627  0.3548 -0.0796
   77SLPC  H18R 7023   1.044   4.390   5.187  0.1759  1.0263  2.4830
   77SLPC  H18S 7024   0.874   4.435   5.130 -0.7568  1.1642  0.8673
   77SLPC  H18T 7025   0.915   4.271   5.206 -3.4378  0.8329  0.2504
   77SLPC   C33 7026   1.224   4.368   6.557  0.3322  0.2292  0.5495
   77SLPC   H3X 7027   1.271   4.271   6.585 -0.8219  0.1448  2.3420
   77SLPC   H3Y 7028   1.293   4.450   6.587  1.3881  0.3083 -1.8336
   77SLPC   C34 7029   1.194   4.391   6.405 -0.5677 -0.3474  0.0283
   77SLPC   H4X 7030   1.105   4.457   6.410 -0.8138 -0.7580  1.9832
   77SLPC   H4Y 7031   1.154   4.306   6.346 -1.2605  0.3873 -0.5820
   77SLPC   C35 7032   1.300   4.477   6.326  0.1471  0.2641  0.2672
   77SLPC   H5X 7033   1.394   4.419   6.331  0.1774  0.2505 -0.3504
   77SLPC   H5Y 7034   1.319   4.578   6.369  0.2132  0.9159 -1.2284
   77SLPC   C36 7035   1.293   4.482   6.178 -0.1884 -0.3735  0.6382
   77SLPC   H6X 7036   1.216   4.551   6.136  0.2422 -0.5230 -0.4502
   77SLPC   H6Y 7037   1.274   4.377   6.148  1.6113 -0.1284 -1.7033
   77SLPC   C37 7038   1.415   4.545   6.106  0.5824  0.2114 -0.2971
   77SLPC   H7X 7039   1.506   4.493   6.143 -0.4251 -1.1976  0.3034
   77SLPC   H7Y 7040   1.424   4.648   6.145 -1.0397  0.2777 -0.0137
   77SLPC   C38 7041   1.413   4.537   5.953 -0.5056 -0.6467 -0.6274
   77SLPC   H8X 7042   1.502   4.597   5.924 -0.7180 -0.1877 -0.3441
   77SLPC   H8Y 7043   1.323   4.589   5.914 -1.5583 -1.7485  0.2744
   77SLPC   C39 7044   1.435   4.392   5.905 -0.6684  0.0404 -0.0688
   77SLPC   H9X 7045   1.391   4.319   5.977 -0.9241 -0.2503 -0.5130
   77SLPC   H9Y 7046   1.543   4.367   5.906 -0.4486  0.4862 -2.8895
   77SLPC  C310 7047   1.367   4.377   5.769 -0.9222  0.3279 -0.7582
   77SLPC  H10X 7048   1.271   4.432   5.783 -1.0088  0.1158 -0.5183
   77SLPC  H10Y 7049   1.339   4.274   5.736 -0.0538 -1.0353  2.4518
   77SLPC  C311 7050   1.443   4.438   5.656 -0.8027  0.7926  0.8210
   77SLPC  H11X 7051   1.543   4.391   5.664 -0.6683  1.2314  1.8448
   77SLPC  H11Y 7052   1.453   4.548   5.669  1.7593  0.6086  0.8659
   77SLPC  C312 7053   1.388   4.411   5.517 -0.1077  0.2628  0.3293
   77SLPC  H12X 7054   1.287   4.456   5.512 -0.2810 -0.1336  0.2049
   77SLPC  H12Y 7055   1.361   4.303   5.517 -0.7033  0.4097  0.4175
   77SLPC  C313 7056   1.488   4.449   5.412  0.0506 -0.3220  0.7474
   77SLPC  H13X 7057   1.584   4.395   5.424  0.5715  0.0577 -1.3441
   77SLPC  H13Y 7058   1.505   4.559   5.420 -0.3712 -0.0896 -1.0753
   77SLPC  C314 7059   1.444   4.404   5.279  0.8722 -0.0084  0.2639
   77SLPC  H14X 7060   1.342   4.447   5.267  0.8127  0.6308  2.6266
   77SLPC  H14Y 7061   1.432   4.293   5.276  1.3753 -0.0498 -1.1136
   77SLPC  C315 7062   1.538   4.436   5.166  0.0732 -0.3996  0.0454
   77SLPC  H15X 7063   1.635   4.388   5.189  1.2041  1.2151 -1.0971
   77SLPC  H15Y 7064   1.555   4.546   5.179 -0.1801 -0.2335 -0.9580
   77SLPC  C316 7065   1.487   4.396   5.020  0.3046  0.1101  0.1185
   77SLPC  H16X 7066   1.385   4.438   5.010 -0.9983 -2.2244  2.4109
   77SLPC  H16Y 7067   1.473   4.286   5.009  0.4775 -0.1404  2.0208
   77SLPC  C317 7068   1.577   4.455   4.909 -0.9466 -0.3881 -0.3243
   77SLPC  H17X 7069   1.530   4.440   4.809 -0.3856  0.0262 -0.6562
   77SLPC  H17Y 7070   1.672   4.397   4.906  0.2853  1.4982  0.7896
   77SLPC  C318 7071   1.591   4.606   4.930 -0.4960  0.5713  0.1344
   77SLPC  H18X 7072   1.681   4.628   4.991  1.9935 -2.3456 -2.1590
   77SLPC  H18Y 7073   1.512   4.653   4.991  0.0911  1.1366  0.4689
   77SLPC  H18Z 7074   1.614   4.656   4.833 -0.1611 -1.6863 -1.0233
   78SLPC     N 7075   2.721   1.812   6.865  0.3587  0.8524 -0.5878
   78SLPC   C13 7076   2.767   1.912   6.964  0.3434  0.1278  0.5874
   78SLPC  H13A 7077   2.679   1.952   7.012 -0.6538  0.4737 -1.4580
   78SLPC  H13B 7078   2.828   1.859   7.036  1.2263  1.8905  1.2111
   78SLPC  H13C 7079   2.834   1.989   6.929 -0.7131  0.1783 -1.4530
   78SLPC   C14 7080   2.665   1.878   6.740  0.2195 -0.3672 -0.4163
   78SLPC  H14A 7081   2.737   1.945   6.695  0.5493 -0.3559  0.1186
   78SLPC  H14B 7082   2.632   1.814   6.660  2.0309 -0.6208 -1.0085
   78SLPC  H14C 7083   2.582   1.941   6.769  0.8996  2.0912 -3.2340
   78SLPC   C15 7084   2.612   1.730   6.919  0.2559  0.1789  1.2039
   78SLPC  H15A 7085   2.647   1.660   6.994  1.7409 -0.6903 -0.2277
   78SLPC  H15B 7086   2.541   1.801   6.958  1.7100  0.6453  3.2303
   78SLPC  H15C 7087   2.569   1.669   6.842  1.4714  0.0007  0.6414
   78SLPC   C12 7088   2.834   1.720   6.828 -0.5919  0.8965  0.4284
   78SLPC  H12A 7089   2.921   1.774   6.796  0.2704 -1.3076 -1.1767
   78SLPC  H12B 7090   2.803   1.655   6.748  1.8877  0.5829 -0.3320
   78SLPC   C11 7091   2.892   1.626   6.937  0.5572 -0.2244  0.8539
   78SLPC  H11A 7092   2.965   1.551   6.899  0.6730  0.2271  0.1609
   78SLPC  H11B 7093   2.806   1.561   6.964 -0.9241  1.1757 -0.2688
   78SLPC     P 7094   3.090   1.740   7.059  0.2260  0.1535  0.0149
   78SLPC   O13 7095   3.096   1.889   7.059  0.7298 -0.2058 -0.0549
   78SLPC   O14 7096   3.162   1.664   7.165  0.3900 -0.0851  0.5517
   78SLPC   O12 7097   2.937   1.688   7.051 -0.0329 -0.1694  0.0838
   78SLPC   O11 7098   3.149   1.698   6.919 -0.2949 -0.2596 -0.3923
   78SLPC    C1 7099   3.242   1.778   6.842  0.1151 -0.2583  0.2830
   78SLPC    HA 7100   3.244   1.884   6.876  1.1165 -0.2323  0.1735
   78SLPC    HB 7101   3.341   1.733   6.866 -0.2042  0.3430  3.1816
   78SLPC    C2 7102   3.215   1.754   6.694 -0.3013  1.1387  0.8297
   78SLPC    HS 7103   3.312   1.764   6.640 -0.8246  0.3229 -0.3086
   78SLPC   O21 7104   3.107   1.835   6.654  0.1131 -0.2366  0.3318
   78SLPC   C21 7105   3.159   1.942   6.590 -1.1233  0.5091  0.5930
   78SLPC   O22 7106   3.271   1.977   6.580 -0.9891 -0.3167 -0.4655
   78SLPC   C22 7107   3.044   2.036   6.543 -0.4171  0.2218  0.7811
   78SLPC   H2R 7108   2.955   2.028   6.609 -2.2380 -2.2629 -1.7194
   78SLPC   H2S 7109   3.079   2.141   6.539 -1.8227  0.7961  2.5464
   78SLPC    C3 7110   3.187   1.607   6.666  0.3947  0.6947  0.0729
   78SLPC    HX 7111   3.098   1.576   6.725  0.0756  0.8829 -0.3050
   78SLPC    HY 7112   3.281   1.555   6.696  0.6078  0.6923 -0.5818
   78SLPC   O31 7113   3.170   1.586   6.522 -0.0127  0.5987  0.1407
   78SLPC   C31 7114   3.048   1.589   6.482  0.3573  0.2101  0.0642
   78SLPC   O32 7115   2.950   1.628   6.541 -0.1389 -0.5224 -0.1139
   78SLPC   C32 7116   3.053   1.541   6.335 -0.2127  0.0497 -0.1099
   78SLPC   H2X 7117   3.085   1.435   6.331 -1.3765 -0.3103 -3.7289
   78SLPC   H2Y 7118   3.145   1.590   6.296  1.1196 -2.2152  0.0360
   78SLPC   C23 7119   2.991   1.990   6.407  0.4263  0.0210  0.0312
   78SLPC   H3R 7120   2.902   2.051   6.378  0.5955  0.3339  0.1571
   78SLPC   H3S 7121   2.973   1.881   6.404  0.7411 -0.0432 -3.1840
   78SLPC   C24 7122   3.093   2.034   6.295  0.2841 -0.9283  0.5846
   78SLPC   H4R 7123   3.189   1.980   6.310  0.5220 -0.8428 -0.5118
   78SLPC   H4S 7124   3.116   2.142   6.306  0.8800 -0.9409 -0.4181
   78SLPC   C25 7125   3.059   2.009   6.151 -0.2314  0.1012 -0.5040
   78SLPC   H5R 7126   2.965   2.069   6.146 -0.2315  0.1119 -0.3767
   78SLPC   H5S 7127   3.032   1.902   6.138 -0.0343 -0.4108  2.6837
   78SLPC   C26 7128   3.157   2.061   6.050 -0.6442  0.0045 -0.1914
   78SLPC   H6R 7129   3.261   2.033   6.075 -0.9596 -0.2067  0.9517
   78SLPC   H6S 7130   3.159   2.171   6.068 -0.5466 -0.1723  0.9750
   78SLPC   C27 7131   3.132   2.029   5.903 -0.1073 -0.7389  0.4217
   78SLPC   H7R 7132   3.027   2.039   5.867  0.3874  0.0068 -0.8601
   78SLPC   H7S 7133   3.158   1.924   5.878  0.9811  0.1017 -2.2102
   78SLPC   C28 7134   3.214   2.121   5.811  0.0621 -0.2228 -0.1715
   78SLPC   H8R 7135   3.236   2.057   5.723  0.2336  2.3600 -2.1600
   78SLPC   H8S 7136   3.310   2.154   5.856 -0.3889  1.8283 -0.6081
   78SLPC   C29 7137   3.134   2.251   5.774  0.3042 -0.1005  0.5853
   78SLPC   H9R 7138   3.101   2.326   5.847 -0.5031  2.3820 -2.1260
   78SLPC  C210 7139   3.112   2.282   5.650 -0.1061  0.8139  0.4706
   78SLPC  H10R 7140   3.060   2.375   5.622 -0.6383  0.0165 -1.3355
   78SLPC  C211 7141   3.142   2.206   5.522 -0.4990  0.3475  0.4585
   78SLPC  H11R 7142   3.085   2.261   5.443  0.1473  0.8967  0.3677
   78SLPC  H11S 7143   3.094   2.106   5.529 -0.0720 -0.2632 -3.2859
   78SLPC  C212 7144   3.285   2.191   5.476 -0.1960  0.2556  0.0226
   78SLPC  H12R 7145   3.358   2.204   5.557 -1.4734  2.2287  0.9496
   78SLPC  C213 7146   3.323   2.174   5.346  0.1971 -0.5616  0.0758
   78SLPC  H13R 7147   3.425   2.158   5.310  0.4988  0.0483  0.6361
   78SLPC  C214 7148   3.220   2.156   5.241  0.0943  0.3884 -0.0456
   78SLPC  H14R 7149   3.188   2.258   5.211 -1.2482 -0.1967 -0.6737
   78SLPC  H14S 7150   3.128   2.107   5.280  1.7575 -2.1581  0.9791
   78SLPC  C215 7151   3.281   2.080   5.121 -0.7417 -0.0679  0.2003
   78SLPC  H15R 7152   3.360   2.137   5.069 -0.1427 -1.4178 -0.4341
   78SLPC  H15S 7153   3.197   2.072   5.047  1.3434  2.2404 -2.6428
   78SLPC  C216 7154   3.336   1.941   5.149 -0.0696 -0.0657 -0.3332
   78SLPC  H16R 7155   3.259   1.871   5.188 -1.6647  2.5541  1.5617
   78SLPC  H16S 7156   3.427   1.950   5.212 -1.4515  1.3939  1.5651
   78SLPC  C217 7157   3.390   1.862   5.025 -0.2554  0.5783  0.0826
   78SLPC  H17R 7158   3.443   1.772   5.064  0.8746  0.4882 -1.5795
   78SLPC  H17S 7159   3.471   1.922   4.977 -2.4934  2.1891 -1.9406
   78SLPC  C218 7160   3.284   1.832   4.923 -0.7012  0.2822  0.4219
   78SLPC  H18R 7161   3.199   1.772   4.963 -0.4811 -0.5401 -0.3021
   78SLPC  H18S 7162   3.329   1.763   4.848  0.1760  1.3514 -0.0654
   78SLPC  H18T 7163   3.243   1.916   4.864  0.2689 -0.3014 -1.1537
   78SLPC   C33 7164   2.930   1.575   6.254  0.5456  0.8722  0.4928
   78SLPC   H3X 7165   2.917   1.685   6.247  0.3797  0.8764  0.8418
   78SLPC   H3Y 7166   2.841   1.540   6.311  1.5460 -1.0065  0.9611
   78SLPC   C34 7167   2.918   1.519   6.111  0.3649  0.2015  0.2261
   78SLPC   H4X 7168   2.930   1.409   6.103  1.9925  0.4545 -1.6200
   78SLPC   H4Y 7169   2.995   1.556   6.039  0.2886 -2.8244 -1.6043
   78SLPC   C35 7170   2.777   1.543   6.042 -0.7704  0.1995 -0.8716
   78SLPC   H5X 7171   2.752   1.646   6.074 -1.0348 -0.6364  1.8662
   78SLPC   H5Y 7172   2.707   1.478   6.099  1.5519 -1.9928 -0.3250
   78SLPC   C36 7173   2.776   1.514   5.887 -0.4630  0.1762 -0.1377
   78SLPC   H6X 7174   2.675   1.539   5.847  0.3334 -0.0795 -2.4544
   78SLPC   H6Y 7175   2.803   1.409   5.865  0.7391  0.1441  1.3502
   78SLPC   C37 7176   2.881   1.584   5.810 -0.1895  0.3225  0.3624
   78SLPC   H7X 7177   2.886   1.540   5.707  0.4631  0.4447  0.3375
   78SLPC   H7Y 7178   2.987   1.583   5.844 -0.4833  1.2469  1.3537
   78SLPC   C38 7179   2.852   1.735   5.799  0.0855 -0.4316 -1.0274
   78SLPC   H8X 7180   2.875   1.781   5.897 -0.4893 -4.4507  1.2013
   78SLPC   H8Y 7181   2.742   1.744   5.784 -0.0207 -0.7553 -0.4620
   78SLPC   C39 7182   2.921   1.815   5.687 -0.3465  0.0580 -0.1803
   78SLPC   H9X 7183   3.028   1.819   5.717  0.0402 -1.6785 -1.1498
   78SLPC   H9Y 7184   2.883   1.919   5.687 -1.4856 -0.3393  0.4906
   78SLPC  C310 7185   2.925   1.754   5.547  0.2434  0.1764 -0.0351
   78SLPC  H10X 7186   2.829   1.702   5.529 -0.5854  1.8853 -0.6919
   78SLPC  H10Y 7187   2.997   1.669   5.543  0.1704  0.0401  1.1283
   78SLPC  C311 7188   2.949   1.859   5.443 -0.2432  1.0561  0.5936
   78SLPC  H11X 7189   3.051   1.902   5.442 -0.0222  0.5556 -0.6333
   78SLPC  H11Y 7190   2.883   1.947   5.463 -1.5013  0.5201 -0.9743
   78SLPC  C312 7191   2.901   1.809   5.304  0.0009  0.6571 -0.6949
   78SLPC  H12X 7192   2.805   1.756   5.325 -0.5538  1.6663 -0.6333
   78SLPC  H12Y 7193   2.974   1.737   5.261 -0.9820  0.0184 -1.3360
   78SLPC  C313 7194   2.883   1.925   5.201 -0.1359  0.3727 -0.6388
   78SLPC  H13X 7195   2.879   1.861   5.110  0.6234 -3.0658  1.5412
   78SLPC  H13Y 7196   2.974   1.988   5.200  0.0734  0.1065  0.4615
   78SLPC  C314 7197   2.761   2.013   5.229  0.0322 -0.0449  0.3023
   78SLPC  H14X 7198   2.793   2.088   5.304 -1.0658  1.2646 -0.4774
   78SLPC  H14Y 7199   2.669   1.958   5.258  1.4676 -1.3110  2.7376
   78SLPC  C315 7200   2.716   2.106   5.112 -0.0797  0.1159 -0.5304
   78SLPC  H15X 7201   2.675   2.035   5.037 -0.8798 -1.6885  1.5174
   78SLPC  H15Y 7202   2.807   2.154   5.070 -0.6608  0.1534 -1.7820
   78SLPC  C316 7203   2.606   2.202   5.157 -0.2047 -0.6470  0.4201
   78SLPC  H16X 7204   2.583   2.272   5.074  1.1451  0.9571  1.3136
   78SLPC  H16Y 7205   2.630   2.256   5.252  2.4211 -0.6384 -0.1672
   78SLPC  C317 7206   2.474   2.132   5.187  0.3106  0.7867  0.0970
   78SLPC  H17X 7207   2.495   2.055   5.264  0.0245  0.8560  0.2487
   78SLPC  H17Y 7208   2.457   2.077   5.092 -0.2603  0.9386  0.1068
   78SLPC  C318 7209   2.354   2.216   5.230 -0.1648 -0.1613  0.2625
   78SLPC  H18X 7210   2.323   2.294   5.157 -2.7129 -0.8745  0.5123
   78SLPC  H18Y 7211   2.397   2.278   5.312  2.2373  1.4687 -2.0391
   78SLPC  H18Z 7212   2.261   2.161   5.252 -0.7464  0.8059  0.2833
   79SLPC     N 7213   2.806   3.802   6.864 -0.3996  0.1439  0.2524
   79SLPC   C13 7214   2.777   3.868   7.003 -0.3564  0.7647  0.5122
   79SLPC  H13A 7215   2.869   3.915   7.031  1.3288  0.6533 -4.0225
   79SLPC  H13B 7216   2.706   3.947   6.984 -2.4647 -1.0083  0.5397
   79SLPC  H13C 7217   2.744   3.793   7.074  1.8796 -1.0943 -0.2626
   79SLPC   C14 7218   2.886   3.675   6.895 -0.1341 -0.0493 -0.4543
   79SLPC  H14A 7219   2.980   3.696   6.943  1.0532  0.3532 -2.8338
   79SLPC  H14B 7220   2.835   3.608   6.963  0.7927  0.7904  1.1114
   79SLPC  H14C 7221   2.920   3.627   6.805  1.7495  0.4924 -0.0663
   79SLPC   C15 7222   2.887   3.895   6.783  0.1779 -0.1043  0.1979
   79SLPC  H15A 7223   2.839   3.991   6.774  2.0331  0.9730  1.1108
   79SLPC  H15B 7224   2.981   3.918   6.830 -0.4786 -0.1783  1.5897
   79SLPC  H15C 7225   2.901   3.856   6.683 -1.5649 -4.1312  1.3172
   79SLPC   C12 7226   2.681   3.753   6.787  0.4619 -0.6090 -0.1308
   79SLPC  H12A 7227   2.630   3.682   6.850  2.4208 -0.8778  1.2567
   79SLPC  H12B 7228   2.699   3.704   6.692  1.7703  0.3056 -0.3772
   79SLPC   C11 7229   2.584   3.873   6.753 -0.6719  0.5155  0.0191
   79SLPC  H11A 7230   2.498   3.836   6.694 -2.6067  2.2141  1.6280
   79SLPC  H11B 7231   2.641   3.949   6.695  1.0142  2.0017  3.3606
   79SLPC     P 7232   2.416   3.887   6.947  0.2634 -0.3206  0.3209
   79SLPC   O13 7233   2.440   3.748   6.981 -0.2911 -0.1068  0.0655
   79SLPC   O14 7234   2.398   3.986   7.058 -0.2645  0.3031  0.0932
   79SLPC   O12 7235   2.534   3.943   6.863  0.0892  0.3214  0.4784
   79SLPC   O11 7236   2.290   3.901   6.848 -0.0658  0.8676  0.6329
   79SLPC    C1 7237   2.208   4.014   6.852  0.3747  0.0676 -0.3488
   79SLPC    HA 7238   2.131   4.003   6.932  2.0105 -1.3604  1.1161
   79SLPC    HB 7239   2.267   4.103   6.882  0.6031 -0.3589  0.4884
   79SLPC    C2 7240   2.150   4.053   6.714 -0.0491  0.3978 -0.1917
   79SLPC    HS 7241   2.093   4.147   6.725  1.9645  1.6311  0.2310
   79SLPC   O21 7242   2.070   3.945   6.663 -0.1826  0.1563  0.4215
   79SLPC   C21 7243   1.951   3.939   6.714 -0.2253 -0.0823 -0.5929
   79SLPC   O22 7244   1.911   4.007   6.809 -0.4655  0.4694  1.6081
   79SLPC   C22 7245   1.860   3.832   6.653 -0.4250  0.0440 -0.4260
   79SLPC   H2R 7246   1.916   3.740   6.627 -0.7933 -0.6692  1.1694
   79SLPC   H2S 7247   1.791   3.813   6.738 -0.5667  0.8062 -0.3593
   79SLPC    C3 7248   2.263   4.088   6.616  0.7242 -0.0861  0.8660
   79SLPC    HX 7249   2.296   3.988   6.581 -1.1888 -1.9103  3.7987
   79SLPC    HY 7250   2.350   4.126   6.675 -0.4919  0.9359  2.0787
   79SLPC   O31 7251   2.202   4.177   6.521 -0.0962  0.2590 -0.2250
   79SLPC   C31 7252   2.280   4.176   6.408 -0.1463 -0.0251 -0.8535
   79SLPC   O32 7253   2.379   4.116   6.390  0.3502  0.2477 -0.6166
   79SLPC   C32 7254   2.213   4.259   6.297 -0.4856 -0.8778 -0.2213
   79SLPC   H2X 7255   2.132   4.318   6.346  2.4357  0.7464  3.1010
   79SLPC   H2Y 7256   2.159   4.191   6.228 -1.5861 -0.2478 -0.0017
   79SLPC   C23 7257   1.780   3.888   6.532 -0.0506  0.0454 -0.6225
   79SLPC   H3R 7258   1.722   3.976   6.568  1.3508  1.3506 -1.4353
   79SLPC   H3S 7259   1.708   3.805   6.514  0.4771 -1.8758  4.5301
   79SLPC   C24 7260   1.868   3.931   6.411  0.2524  0.6946  1.0391
   79SLPC   H4R 7261   1.965   3.972   6.445  0.8818 -0.4531  0.6918
   79SLPC   H4S 7262   1.817   4.016   6.361 -0.5012 -0.5195 -0.3312
   79SLPC   C25 7263   1.892   3.813   6.321 -0.4569  0.0216 -0.1727
   79SLPC   H5R 7264   1.793   3.785   6.277 -2.6514  1.3545  3.4719
   79SLPC   H5S 7265   1.937   3.728   6.376 -0.2562  0.4462  0.3233
   79SLPC   C26 7266   1.991   3.845   6.205 -0.0196 -0.9559 -0.4202
   79SLPC   H6R 7267   2.008   3.758   6.138 -0.5799 -0.2648 -1.4814
   79SLPC   H6S 7268   2.089   3.862   6.256 -0.8997 -0.7525  1.2898
   79SLPC   C27 7269   1.960   3.973   6.121 -0.0369  0.1258  0.3939
   79SLPC   H7R 7270   1.971   4.066   6.181 -1.6850  0.7362 -0.2034
   79SLPC   H7S 7271   1.853   3.970   6.092  0.0169 -2.2179  0.1891
   79SLPC   C28 7272   2.036   3.984   5.980 -0.0522  0.0549 -0.1701
   79SLPC   H8R 7273   2.016   4.085   5.939  0.5784  0.1026 -0.3800
   79SLPC   H8S 7274   1.989   3.908   5.913 -0.1584  0.5846 -0.7060
   79SLPC   C29 7275   2.186   3.969   5.996 -0.6113 -0.1571  0.1119
   79SLPC   H9R 7276   2.220   3.898   6.073  1.3654  1.0720  0.4327
   79SLPC  C210 7277   2.276   4.035   5.921 -0.1351  0.4603 -0.6141
   79SLPC  H10R 7278   2.381   4.024   5.951 -0.8013  0.0114  1.7412
   79SLPC  C211 7279   2.252   4.131   5.806 -0.0524 -0.0691 -0.0202
   79SLPC  H11R 7280   2.323   4.215   5.816 -0.8306  0.4822  1.0332
   79SLPC  H11S 7281   2.151   4.176   5.802  0.4628  1.1285  0.1687
   79SLPC  C212 7282   2.268   4.061   5.677 -0.3948 -0.1093  0.6063
   79SLPC  H12R 7283   2.190   3.989   5.647  1.0805 -1.0051 -1.3723
   79SLPC  C213 7284   2.378   4.071   5.591  0.2231 -0.4014 -0.0687
   79SLPC  H13R 7285   2.388   3.995   5.512 -1.0316 -0.8036  0.1329
   79SLPC  C214 7286   2.487   4.173   5.595  0.1262  0.1706 -0.5482
   79SLPC  H14R 7287   2.583   4.118   5.601 -0.1957 -0.5993 -2.0030
   79SLPC  H14S 7288   2.465   4.244   5.678 -0.8497  2.8706 -2.9390
   79SLPC  C215 7289   2.480   4.246   5.461 -0.4286 -0.3943  0.9040
   79SLPC  H15R 7290   2.560   4.323   5.469 -2.5535  1.9173  1.5227
   79SLPC  H15S 7291   2.383   4.302   5.461 -0.5749 -0.6226 -0.6442
   79SLPC  C216 7292   2.514   4.173   5.330  0.0745 -0.0083 -0.2013
   79SLPC  H16R 7293   2.422   4.118   5.301 -0.4369  0.5412  0.3826
   79SLPC  H16S 7294   2.591   4.098   5.358  0.0838  0.9428  2.5764
   79SLPC  C217 7295   2.553   4.269   5.210 -0.2026 -0.0770 -0.3573
   79SLPC  H17R 7296   2.638   4.332   5.243 -0.9547  2.5213 -2.9041
   79SLPC  H17S 7297   2.470   4.337   5.181 -0.7199 -0.6849 -0.3178
   79SLPC  C218 7298   2.593   4.185   5.089 -0.0876 -0.3648 -0.2734
   79SLPC  H18R 7299   2.647   4.235   5.006  1.6332 -0.8806  0.4777
   79SLPC  H18S 7300   2.496   4.146   5.052  0.9143 -1.4347 -1.8836
   79SLPC  H18T 7301   2.648   4.096   5.127  0.1668  0.1628  0.6524
   79SLPC   C33 7302   2.315   4.361   6.221 -0.2361  0.6940 -0.2951
   79SLPC   H3X 7303   2.403   4.297   6.203 -0.0120  1.4022 -1.8965
   79SLPC   H3Y 7304   2.359   4.438   6.288 -0.0592 -1.2093  1.8959
   79SLPC   C34 7305   2.261   4.411   6.094  0.4164 -0.4119 -0.5588
   79SLPC   H4X 7306   2.185   4.491   6.102  1.5474  0.7046 -0.6726
   79SLPC   H4Y 7307   2.230   4.331   6.024 -0.0610  0.3282 -1.2014
   79SLPC   C35 7308   2.370   4.477   6.007 -0.1573 -0.5362  0.9896
   79SLPC   H5X 7309   2.464   4.419   5.998  0.1270  0.0959 -0.4906
   79SLPC   H5Y 7310   2.400   4.571   6.058 -0.1439  0.1753 -0.2832
   79SLPC   C36 7311   2.310   4.512   5.864  0.6050  0.2816  0.2186
   79SLPC   H6X 7312   2.226   4.582   5.881  1.6196  1.8832 -1.0129
   79SLPC   H6Y 7313   2.275   4.421   5.810  0.5667 -0.1007  0.8853
   79SLPC   C37 7314   2.408   4.587   5.765  0.0328 -0.2910 -0.1734
   79SLPC   H7X 7315   2.489   4.518   5.733  1.5444  1.0771  0.5181
   79SLPC   H7Y 7316   2.462   4.670   5.816 -0.1872 -0.0379 -0.3535
   79SLPC   C38 7317   2.340   4.622   5.635 -0.3792  0.0899  0.2275
   79SLPC   H8X 7318   2.265   4.702   5.653  1.5965  2.8337 -2.6681
   79SLPC   H8Y 7319   2.303   4.525   5.593 -2.3258 -0.3219  2.6286
   79SLPC   C39 7320   2.432   4.688   5.535  0.5047 -0.2969 -0.1995
   79SLPC   H9X 7321   2.498   4.609   5.495 -1.7287 -2.3473 -0.0796
   79SLPC   H9Y 7322   2.492   4.769   5.582 -0.6365  0.3861  0.1408
   79SLPC  C310 7323   2.362   4.744   5.413 -0.1838  0.5044  0.2261
   79SLPC  H10X 7324   2.434   4.810   5.360  0.3972 -0.7216 -0.5416
   79SLPC  H10Y 7325   2.284   4.817   5.445 -1.2850 -0.9425  0.9533
   79SLPC  C311 7326   2.311   4.632   5.317  0.0402  0.2574 -1.1192
   79SLPC  H11X 7327   2.237   4.574   5.378  1.2921 -0.6259 -0.3948
   79SLPC  H11Y 7328   2.395   4.564   5.292  0.4662  1.1611 -2.2296
   79SLPC  C312 7329   2.245   4.675   5.189 -0.3061  0.2691  0.1548
   79SLPC  H12X 7330   2.307   4.754   5.143  0.5405 -0.5260 -0.1021
   79SLPC  H12Y 7331   2.144   4.716   5.207 -0.5538  0.2955 -1.2284
   79SLPC  C313 7332   2.228   4.567   5.080  0.6238  1.1759 -0.2373
   79SLPC  H13X 7333   2.328   4.523   5.062  0.2183 -0.5129  1.3862
   79SLPC  H13Y 7334   2.180   4.609   4.988  0.1888 -0.0966 -0.6058
   79SLPC  C314 7335   2.138   4.445   5.127 -0.5975  0.4191 -0.0075
   79SLPC  H14X 7336   2.034   4.480   5.145 -0.9616 -0.7815  0.3563
   79SLPC  H14Y 7337   2.179   4.411   5.225 -1.1518 -1.7051 -0.4639
   79SLPC  C315 7338   2.148   4.316   5.037  0.7359  0.1594  0.0527
   79SLPC  H15X 7339   2.081   4.246   5.092  0.3820 -0.3769 -1.0299
   79SLPC  H15Y 7340   2.249   4.271   5.050  0.7010  0.2146  0.5551
   79SLPC  C316 7341   2.109   4.326   4.891 -0.3439  0.4896 -0.4839
   79SLPC  H16X 7342   2.183   4.397   4.850 -0.8797  0.8681 -0.7956
   79SLPC  H16Y 7343   2.016   4.384   4.874  0.6114  2.2796  0.2204
   79SLPC  C317 7344   2.099   4.194   4.822 -0.1489  0.1513 -0.4766
   79SLPC  H17X 7345   2.052   4.116   4.886 -0.5849  1.4053  0.7598
   79SLPC  H17Y 7346   2.203   4.156   4.812 -0.5481 -0.7115 -1.6057
   79SLPC  C318 7347   2.030   4.199   4.689  0.6524 -0.3380 -0.1673
   79SLPC  H18X 7348   1.933   4.244   4.720  1.0433  2.0869 -2.1653
   79SLPC  H18Y 7349   2.011   4.098   4.646 -0.4520 -0.7743  1.2526
   79SLPC  H18Z 7350   2.079   4.263   4.614 -0.6718 -0.9209 -1.6027
   80SLPC     N 7351   1.385   1.886   7.381 -1.3309  0.0803 -0.1898
   80SLPC   C13 7352   1.424   1.988   7.484 -0.3271 -0.1616  0.5351
   80SLPC  H13A 7353   1.340   2.050   7.511  1.9743  3.0881  0.8142
   80SLPC  H13B 7354   1.462   1.933   7.569 -1.4128 -1.7060  0.0742
   80SLPC  H13C 7355   1.505   2.052   7.455 -0.4023 -0.3043 -0.0179
   80SLPC   C14 7356   1.515   1.813   7.345 -0.4236 -0.2587  0.1047
   80SLPC  H14A 7357   1.587   1.879   7.299 -0.1659 -1.2719 -0.9870
   80SLPC  H14B 7358   1.561   1.780   7.437  0.0707 -0.7823 -0.3230
   80SLPC  H14C 7359   1.492   1.726   7.285  0.9302  0.4645 -1.5331
   80SLPC   C15 7360   1.347   1.949   7.256  0.6282 -0.1094 -0.7126
   80SLPC  H15A 7361   1.403   2.039   7.236 -0.4826  0.9295  0.6475
   80SLPC  H15B 7362   1.356   1.880   7.174 -1.2109 -1.0609 -0.1770
   80SLPC  H15C 7363   1.249   1.994   7.263  1.0378  0.5862  1.3830
   80SLPC   C12 7364   1.276   1.791   7.423  0.0279  0.2087 -0.2700
   80SLPC  H12A 7365   1.309   1.737   7.511 -0.8379 -2.4890 -1.4962
   80SLPC  H12B 7366   1.267   1.717   7.345 -1.1709 -0.0920  0.1283
   80SLPC   C11 7367   1.135   1.854   7.455 -0.1229 -0.5161 -0.0069
   80SLPC  H11A 7368   1.154   1.946   7.514 -2.4219  1.7131 -2.4705
   80SLPC  H11B 7369   1.084   1.774   7.512  2.2167 -0.5676  2.2009
   80SLPC     P 7370   1.020   1.759   7.247 -0.0821 -0.4623  0.1518
   80SLPC   O13 7371   1.102   1.638   7.282  0.0595 -0.1904 -0.4342
   80SLPC   O14 7372   0.876   1.748   7.252 -0.0440 -0.5655 -0.0770
   80SLPC   O12 7373   1.062   1.878   7.337  0.1163  0.7079  0.3785
   80SLPC   O11 7374   1.074   1.806   7.110  0.2327 -0.6479 -0.0404
   80SLPC    C1 7375   1.046   1.936   7.055  0.3122 -0.1428  0.3087
   80SLPC    HA 7376   1.053   2.019   7.128  1.1038 -1.2981  1.6037
   80SLPC    HB 7377   1.126   1.953   6.980  0.1325 -1.2818 -0.1646
   80SLPC    C2 7378   0.908   1.949   6.987  0.4314 -0.0456  0.2744
   80SLPC    HS 7379   0.824   1.920   7.054 -1.1039  1.0066 -1.1250
   80SLPC   O21 7380   0.904   1.874   6.865  0.3926 -0.4814  0.1013
   80SLPC   C21 7381   0.789   1.872   6.805  0.1066 -0.2471 -0.1668
   80SLPC   O22 7382   0.681   1.907   6.852 -0.2425 -0.2333  0.4272
   80SLPC   C22 7383   0.805   1.821   6.662  0.9333 -0.1006 -0.2842
   80SLPC   H2R 7384   0.898   1.863   6.618  1.4654 -1.6210 -0.7002
   80SLPC   H2S 7385   0.815   1.711   6.678 -0.5789 -0.3472 -0.8387
   80SLPC    C3 7386   0.879   2.103   6.969  0.2531 -0.6974 -0.0841
   80SLPC    HX 7387   0.877   2.153   7.068 -1.5030 -1.2521  0.1794
   80SLPC    HY 7388   0.773   2.112   6.938 -0.0350  3.3161  1.4257
   80SLPC   O31 7389   0.973   2.168   6.872  0.2014  0.1884  0.2592
   80SLPC   C31 7390   0.927   2.278   6.825  0.2396 -0.1624 -0.2172
   80SLPC   O32 7391   0.821   2.329   6.850 -0.9150  0.2015 -0.0487
   80SLPC   C32 7392   1.018   2.324   6.709 -0.2579  0.4409 -0.3479
   80SLPC   H2X 7393   1.096   2.248   6.688 -0.3397 -0.2047  1.4520
   80SLPC   H2Y 7394   1.076   2.409   6.751  1.2854 -1.3444  1.3224
   80SLPC   C23 7395   0.689   1.854   6.568 -0.9406 -0.7509  0.1494
   80SLPC   H3R 7396   0.664   1.962   6.573 -1.8425 -0.8462 -1.6275
   80SLPC   H3S 7397   0.590   1.803   6.577 -1.2232 -0.2870 -0.2871
   80SLPC   C24 7398   0.729   1.822   6.424  0.2229  0.5180 -0.0990
   80SLPC   H4R 7399   0.741   1.711   6.423 -0.0937  0.4413  1.4630
   80SLPC   H4S 7400   0.828   1.868   6.404 -0.2132  0.6453 -2.1834
   80SLPC   C25 7401   0.628   1.876   6.323  0.0239 -0.1511  0.4332
   80SLPC   H5R 7402   0.639   1.987   6.322  2.2505 -0.2620  2.9188
   80SLPC   H5S 7403   0.524   1.850   6.352 -0.6308  2.8134  1.0732
   80SLPC   C26 7404   0.660   1.826   6.177 -0.0977 -0.3748 -0.4343
   80SLPC   H6R 7405   0.582   1.852   6.102  0.4728 -1.7529 -1.5623
   80SLPC   H6S 7406   0.659   1.716   6.197  1.9994  0.0371  2.6553
   80SLPC   C27 7407   0.800   1.861   6.118 -0.9964 -0.0179  0.0947
   80SLPC   H7R 7408   0.887   1.869   6.186 -0.7396  0.5343 -0.2963
   80SLPC   H7S 7409   0.790   1.968   6.092  2.3748  0.5333  0.6819
   80SLPC   C28 7410   0.835   1.791   5.984  0.0251  0.7593 -0.0310
   80SLPC   H8R 7411   0.743   1.810   5.924 -0.9649 -1.9170  0.5064
   80SLPC   H8S 7412   0.828   1.681   5.993  0.1279  0.7088 -0.5625
   80SLPC   C29 7413   0.965   1.834   5.921  0.6207  0.6176  0.9163
   80SLPC   H9R 7414   1.052   1.835   5.988  1.2104 -3.3553  0.4137
   80SLPC  C210 7415   0.978   1.884   5.794  0.0910  0.3014 -1.2418
   80SLPC  H10R 7416   1.079   1.896   5.753  0.6669  0.8852  0.3063
   80SLPC  C211 7417   0.868   1.906   5.695 -0.2078 -0.2080  0.1890
   80SLPC  H11R 7418   0.765   1.888   5.733 -0.8540 -0.2284 -1.4935
   80SLPC  H11S 7419   0.870   1.815   5.631 -0.3260 -0.0966  0.0265
   80SLPC  C212 7420   0.874   2.022   5.609 -0.1461  0.0068  0.2352
   80SLPC  H12R 7421   0.797   2.096   5.635  0.8179  1.2494 -0.2874
   80SLPC  C213 7422   0.959   2.047   5.509  0.2552  0.1213 -0.7055
   80SLPC  H13R 7423   0.951   2.133   5.442  3.9543 -0.1005 -1.6479
   80SLPC  C214 7424   1.069   1.959   5.454  0.6922  0.2494 -0.2942
   80SLPC  H14R 7425   1.091   1.879   5.528 -0.6018  1.5526  1.5942
   80SLPC  H14S 7426   1.165   2.014   5.445 -0.3365  2.1863  0.2036
   80SLPC  C215 7427   1.037   1.913   5.315  0.5533 -0.2313  0.4141
   80SLPC  H15R 7428   0.944   1.853   5.326  0.8497 -0.5758  1.0810
   80SLPC  H15S 7429   1.111   1.832   5.294  0.5940 -0.2915  0.7894
   80SLPC  C216 7430   1.036   2.023   5.210 -0.6276  0.4257 -0.1376
   80SLPC  H16R 7431   1.144   2.041   5.194  0.0156 -0.9890  2.2399
   80SLPC  H16S 7432   0.987   2.114   5.251  0.0565  1.2097 -1.0182
   80SLPC  C217 7433   0.961   1.988   5.081  0.2239 -0.1709 -0.2750
   80SLPC  H17R 7434   0.854   1.967   5.100  0.5113 -2.4690 -0.8748
   80SLPC  H17S 7435   0.993   1.889   5.042 -0.5583 -0.9012  0.8882
   80SLPC  C218 7436   0.979   2.091   4.969  0.5309  0.1591 -0.2139
   80SLPC  H18R 7437   1.087   2.110   4.948  0.7878  0.0060  0.9313
   80SLPC  H18S 7438   0.933   2.189   4.992  0.6629  0.9694 -3.0267
   80SLPC  H18T 7439   0.922   2.061   4.878 -0.4473  0.7129  0.2105
   80SLPC   C33 7440   0.951   2.346   6.573  0.1087 -0.5354  0.0528
   80SLPC   H3X 7441   1.016   2.413   6.514  1.9226 -0.7694  1.6776
   80SLPC   H3Y 7442   0.849   2.388   6.579  0.4144  0.2530 -0.1999
   80SLPC   C34 7443   0.927   2.212   6.491 -0.6491 -0.3547  0.5468
   80SLPC   H4X 7444   0.877   2.138   6.556 -1.2144 -1.4621 -1.0788
   80SLPC   H4Y 7445   1.029   2.176   6.470 -0.4410 -0.1403  1.1702
   80SLPC   C35 7446   0.837   2.247   6.366  0.5587 -0.2399 -0.9322
   80SLPC   H5X 7447   0.815   2.355   6.381  0.3610 -0.1798 -1.6587
   80SLPC   H5Y 7448   0.740   2.193   6.355 -0.5214  1.4861 -0.3590
   80SLPC   C36 7449   0.920   2.225   6.237  0.1118  0.8554 -0.1815
   80SLPC   H6X 7450   0.937   2.115   6.241  1.9938  1.1311  0.2514
   80SLPC   H6Y 7451   1.018   2.275   6.246  1.1710 -1.1143 -0.2220
   80SLPC   C37 7452   0.870   2.264   6.100  0.7162 -0.1077 -0.0356
   80SLPC   H7X 7453   0.852   2.374   6.105  0.2168 -0.1947  0.1424
   80SLPC   H7Y 7454   0.779   2.203   6.081 -0.7395  1.7885  0.5222
   80SLPC   C38 7455   0.975   2.230   5.991  0.0041 -0.3940 -0.1351
   80SLPC   H8X 7456   1.005   2.125   6.012 -2.4052 -1.0631  0.2435
   80SLPC   H8Y 7457   1.062   2.299   6.000  0.7009 -1.4999  2.1493
   80SLPC   C39 7458   0.906   2.235   5.855 -0.3012  0.0557  0.7163
   80SLPC   H9X 7459   0.822   2.162   5.847 -0.2160  0.0532 -0.2008
   80SLPC   H9Y 7460   0.979   2.200   5.780  0.0123  0.4464  0.8355
   80SLPC  C310 7461   0.857   2.372   5.809  0.0431 -0.1358  0.2978
   80SLPC  H10X 7462   0.953   2.427   5.799  0.0889 -0.3011 -0.2430
   80SLPC  H10Y 7463   0.803   2.417   5.895  0.5128  0.6631  0.1829
   80SLPC  C311 7464   0.770   2.367   5.679 -0.3456  1.3354 -0.2048
   80SLPC  H11X 7465   0.683   2.299   5.674 -1.1995  2.0783  2.8340
   80SLPC  H11Y 7466   0.830   2.332   5.592 -1.6012 -1.2380 -0.1049
   80SLPC  C312 7467   0.710   2.495   5.631  0.2611 -0.6516 -0.0130
   80SLPC  H12X 7468   0.785   2.577   5.639  0.5285 -1.0131  1.5619
   80SLPC  H12Y 7469   0.633   2.526   5.705  0.0820  0.8435 -0.7879
   80SLPC  C313 7470   0.636   2.491   5.491  0.3077  0.3908 -0.4537
   80SLPC  H13X 7471   0.545   2.555   5.502  0.4477  0.4346  0.4796
   80SLPC  H13Y 7472   0.592   2.390   5.475  2.5132 -0.9642  1.5615
   80SLPC  C314 7473   0.723   2.533   5.379 -0.4879  0.7394 -0.4844
   80SLPC  H14X 7474   0.824   2.488   5.388 -0.0734  1.5797 -0.8267
   80SLPC  H14Y 7475   0.741   2.642   5.378 -0.0774  0.7561 -4.1051
   80SLPC  C315 7476   0.674   2.502   5.236  0.5629 -0.4476  0.2190
   80SLPC  H15X 7477   0.735   2.551   5.157 -1.2531  0.4511 -0.6677
   80SLPC  H15Y 7478   0.573   2.547   5.235  0.7533  0.0477  1.2573
   80SLPC  C316 7479   0.667   2.352   5.196  0.1113 -0.2308 -0.2887
   80SLPC  H16X 7480   0.592   2.311   5.267 -0.0476 -1.2926 -1.0476
   80SLPC  H16Y 7481   0.756   2.287   5.209 -1.1278 -1.6441  1.5773
   80SLPC  C317 7482   0.588   2.316   5.069  0.7498 -0.1022 -0.1765
   80SLPC  H17X 7483   0.633   2.364   4.979  0.1304  1.0369  0.0993
   80SLPC  H17Y 7484   0.487   2.362   5.072  0.5299 -0.5590 -0.4321
   80SLPC  C318 7485   0.568   2.170   5.034  0.2745 -0.0524 -0.0528
   80SLPC  H18X 7486   0.549   2.112   5.127  0.0177 -1.9097 -1.1969
   80SLPC  H18Y 7487   0.651   2.122   4.977  2.6187  1.7023  1.7029
   80SLPC  H18Z 7488   0.478   2.156   4.970  0.3797 -0.6367 -0.0852
   81SLPC     N 7489   5.875   4.385   2.463 -0.0491  0.0168  0.1289
   81SLPC   C13 7490   5.913   4.363   2.328 -0.4216 -0.3673  0.5070
   81SLPC  H13A 7491   5.900   4.264   2.285  0.9623 -0.9726  1.4056
   81SLPC  H13B 7492   5.855   4.426   2.263 -4.8798 -1.1341  3.3311
   81SLPC  H13C 7493   6.016   4.396   2.326 -0.2616 -0.3063  3.7104
   81SLPC   C14 7494   5.905   4.530   2.493 -0.0762 -0.2973  0.0230
   81SLPC  H14A 7495   5.846   4.591   2.426  0.8428  1.3787  0.6858
   81SLPC  H14B 7496   5.883   4.557   2.595 -3.0077 -0.2921 -0.5215
   81SLPC  H14C 7497   6.009   4.547   2.469 -0.5452  0.6789 -1.4874
   81SLPC   C15 7498   5.956   4.300   2.552  0.4851 -0.3803  0.4102
   81SLPC  H15A 7499   5.924   4.197   2.560 -0.8664  0.1649  3.9366
   81SLPC  H15B 7500   6.058   4.299   2.518  0.3839 -1.2138  0.0998
   81SLPC  H15C 7501   5.956   4.338   2.653  1.2309  2.6783 -0.6490
   81SLPC   C12 7502   5.729   4.354   2.490 -0.0430 -0.0761  0.2995
   81SLPC  H12A 7503   5.719   4.249   2.466 -0.4510 -0.0826  0.4926
   81SLPC  H12B 7504   5.663   4.403   2.421  1.1619 -0.8235 -1.4626
   81SLPC   C11 7505   5.677   4.377   2.636 -0.8338  0.5991  0.1216
   81SLPC  H11A 7506   5.569   4.352   2.630 -0.2052 -2.4118 -0.5629
   81SLPC  H11B 7507   5.688   4.485   2.657  0.7392  0.5357 -0.2567
   81SLPC     P 7508   5.739   4.298   2.881 -0.1056  0.0088  0.1363
   81SLPC   O13 7509   5.601   4.254   2.921  0.2120  0.1803  0.3971
   81SLPC   O14 7510   5.854   4.225   2.926  0.0519  0.3334  0.6280
   81SLPC   O12 7511   5.744   4.285   2.727 -0.2009 -0.1514 -0.2143
   81SLPC   O11 7512   5.749   4.455   2.911  0.1564 -0.3786  0.0935
   81SLPC    C1 7513   5.636   4.545   2.908 -0.3962  0.3210  0.0341
   81SLPC    HA 7514   5.659   4.617   2.827  0.0363 -0.3579 -0.4640
   81SLPC    HB 7515   5.554   4.477   2.876  1.8741 -2.2546 -0.6396
   81SLPC    C2 7516   5.602   4.605   3.049  0.0759 -0.5627 -1.0462
   81SLPC    HS 7517   5.683   4.674   3.080 -0.8616 -1.2370  3.6845
   81SLPC   O21 7518   5.575   4.504   3.150 -0.2951 -0.6209  0.2452
   81SLPC   C21 7519   5.684   4.462   3.212  0.0696 -0.4588  0.2390
   81SLPC   O22 7520   5.797   4.497   3.189  0.1816 -0.6800 -0.6040
   81SLPC   C22 7521   5.657   4.351   3.313 -0.0004  0.2890  0.6263
   81SLPC   H2R 7522   5.626   4.264   3.252 -1.4093  1.1203  0.1113
   81SLPC   H2S 7523   5.755   4.335   3.363  0.6717  0.6840 -0.5360
   81SLPC    C3 7524   5.478   4.700   3.051 -0.5948  0.2980  0.0406
   81SLPC    HX 7525   5.387   4.646   3.014 -1.3983  1.3084  0.5039
   81SLPC    HY 7526   5.495   4.782   2.978 -1.4188  1.2257  0.8622
   81SLPC   O31 7527   5.455   4.746   3.187  0.3789  0.3881  0.2507
   81SLPC   C31 7528   5.332   4.799   3.197 -0.8657  0.4468  0.9618
   81SLPC   O32 7529   5.259   4.823   3.097  0.4970 -0.2687 -0.1908
   81SLPC   C32 7530   5.307   4.831   3.343 -0.7538  0.1809  0.2584
   81SLPC   H2X 7531   5.209   4.883   3.349 -1.0455 -0.4742  2.0679
   81SLPC   H2Y 7532   5.390   4.901   3.364  0.7721 -0.7140 -2.3149
   81SLPC   C23 7533   5.533   4.386   3.402  0.1226  0.6319 -0.8853
   81SLPC   H3R 7534   5.446   4.358   3.339 -0.4604  2.0788 -0.7759
   81SLPC   H3S 7535   5.535   4.493   3.433 -2.2992  0.5949 -0.3574
   81SLPC   C24 7536   5.530   4.299   3.527  1.2659 -0.4749 -0.2996
   81SLPC   H4R 7537   5.539   4.189   3.514 -0.5083 -0.6905  0.1341
   81SLPC   H4S 7538   5.430   4.319   3.570  1.4736  1.7837 -0.7176
   81SLPC   C25 7539   5.635   4.349   3.623 -0.7444 -0.1538  0.1371
   81SLPC   H5R 7540   5.620   4.458   3.639  1.8343  0.4222 -0.8917
   81SLPC   H5S 7541   5.735   4.335   3.578 -1.1798 -0.7984 -0.6449
   81SLPC   C26 7542   5.637   4.275   3.756  0.1418  0.3800  0.1757
   81SLPC   H6R 7543   5.730   4.302   3.810  1.0448 -1.5522 -0.3154
   81SLPC   H6S 7544   5.646   4.167   3.730  0.4374  0.6381 -0.8367
   81SLPC   C27 7545   5.540   4.311   3.862  0.5717  0.2901 -0.6343
   81SLPC   H7R 7546   5.434   4.282   3.852  0.1461  1.2583  0.7240
   81SLPC   H7S 7547   5.543   4.422   3.858  0.2635  0.3053 -0.4532
   81SLPC   C28 7548   5.590   4.272   4.002  0.0967 -1.0289 -0.6976
   81SLPC   H8R 7549   5.522   4.325   4.072 -0.2443  0.7940 -2.3328
   81SLPC   H8S 7550   5.679   4.335   4.018 -0.5496 -0.0470 -0.8890
   81SLPC   C29 7551   5.615   4.125   4.037 -0.0493  0.0102  0.0404
   81SLPC   H9R 7552   5.683   4.068   3.973 -0.4631 -1.3529  0.7923
   81SLPC  C210 7553   5.560   4.062   4.137 -0.3455  0.3059 -0.6099
   81SLPC  H10R 7554   5.577   3.953   4.130  0.7695  0.4277 -0.0750
   81SLPC  C211 7555   5.460   4.117   4.235  0.3030  0.3348 -0.0093
   81SLPC  H11R 7556   5.392   4.187   4.181 -1.4437  0.0573  1.7281
   81SLPC  H11S 7557   5.511   4.187   4.304 -0.5607  1.1963 -0.2263
   81SLPC  C212 7558   5.369   4.018   4.304  0.0361  0.3012 -0.1270
   81SLPC  H12R 7559   5.275   3.998   4.250  1.0401 -3.3906 -0.7526
   81SLPC  C213 7560   5.394   3.946   4.411 -0.6357 -0.1810 -0.3973
   81SLPC  H13R 7561   5.322   3.870   4.447 -0.9337  0.8251  1.2234
   81SLPC  C214 7562   5.519   3.957   4.497 -0.9138 -0.0499 -0.3589
   81SLPC  H14R 7563   5.501   3.992   4.601  1.0939 -0.5419  0.2043
   81SLPC  H14S 7564   5.586   4.028   4.446 -1.8363 -0.7756 -2.7140
   81SLPC  C215 7565   5.601   3.828   4.498  0.4742  0.0968 -0.4755
   81SLPC  H15R 7566   5.644   3.831   4.396  0.6902  1.2942 -0.3583
   81SLPC  H15S 7567   5.548   3.733   4.519  2.0104 -0.4150  1.3234
   81SLPC  C216 7568   5.731   3.820   4.594  0.1843  0.2870  0.2860
   81SLPC  H16R 7569   5.781   3.913   4.558  0.6940 -0.9627 -2.4637
   81SLPC  H16S 7570   5.794   3.737   4.557 -0.3014  0.0240  0.0317
   81SLPC  C217 7571   5.694   3.802   4.745  0.4391  0.4867  0.7187
   81SLPC  H17R 7572   5.657   3.697   4.738 -0.4199  0.8317 -0.0513
   81SLPC  H17S 7573   5.615   3.877   4.765 -1.0257 -0.1265 -2.2371
   81SLPC  C218 7574   5.812   3.798   4.837 -0.2500  0.3842  0.2175
   81SLPC  H18R 7575   5.880   3.719   4.799  0.0283 -0.6103  2.5919
   81SLPC  H18S 7576   5.778   3.777   4.941  0.2868 -1.4275  0.0652
   81SLPC  H18T 7577   5.869   3.893   4.833  0.2396  0.0531 -1.2503
   81SLPC   C33 7578   5.304   4.704   3.431 -0.7995  0.1295 -0.7010
   81SLPC   H3X 7579   5.402   4.653   3.420 -2.2758 -2.8025 -0.9163
   81SLPC   H3Y 7580   5.220   4.635   3.411 -1.9810  1.7375 -1.5523
   81SLPC   C34 7581   5.289   4.729   3.589  0.3186 -0.8881  0.4966
   81SLPC   H4X 7582   5.180   4.736   3.608  0.2234  0.3839 -0.4085
   81SLPC   H4Y 7583   5.340   4.824   3.617  1.0561 -1.0434 -0.2805
   81SLPC   C35 7584   5.362   4.624   3.668 -0.2185  1.1339 -0.0343
   81SLPC   H5X 7585   5.472   4.634   3.665  0.0392 -1.1798 -0.0272
   81SLPC   H5Y 7586   5.343   4.527   3.616  2.4091  1.9445 -2.8482
   81SLPC   C36 7587   5.307   4.611   3.810  0.0299 -0.1917 -0.2352
   81SLPC   H6X 7588   5.374   4.540   3.863  0.2602  1.4409  1.8080
   81SLPC   H6Y 7589   5.202   4.574   3.805 -0.2629  0.3440  1.4181
   81SLPC   C37 7590   5.322   4.733   3.901  0.0163  0.4212 -0.2161
   81SLPC   H7X 7591   5.229   4.793   3.899 -1.3021 -1.4610  1.3444
   81SLPC   H7Y 7592   5.412   4.789   3.868  0.9683 -1.4957 -1.0270
   81SLPC   C38 7593   5.340   4.688   4.052  0.2940 -0.1979  0.1488
   81SLPC   H8X 7594   5.435   4.630   4.056  0.1990 -0.2916  1.7865
   81SLPC   H8Y 7595   5.253   4.622   4.070 -1.2503  1.2302 -1.6339
   81SLPC   C39 7596   5.345   4.793   4.164 -0.6488  0.3257  0.3188
   81SLPC   H9X 7597   5.246   4.841   4.175 -0.7641 -0.1221  1.2834
   81SLPC   H9Y 7598   5.414   4.878   4.144 -0.3379  0.6251  2.4579
   81SLPC  C310 7599   5.397   4.725   4.291  0.4859  0.1087 -0.7155
   81SLPC  H10X 7600   5.490   4.665   4.275  0.7490  0.8927 -2.3618
   81SLPC  H10Y 7601   5.319   4.649   4.314  1.1816 -0.9868 -1.8547
   81SLPC  C311 7602   5.432   4.817   4.408 -1.1415 -0.6142  0.2763
   81SLPC  H11X 7603   5.512   4.880   4.364 -1.5929 -2.1295 -2.9745
   81SLPC  H11Y 7604   5.478   4.765   4.495 -1.1487  0.6941  1.1010
   81SLPC  C312 7605   5.327   4.910   4.460  0.6956  0.5974 -0.1126
   81SLPC  H12X 7606   5.241   4.849   4.495  2.4955 -0.2640  3.2705
   81SLPC  H12Y 7607   5.278   4.957   4.373  1.1093  0.0022 -0.6747
   81SLPC  C313 7608   5.370   5.016   4.560 -0.0154  0.1415  0.6863
   81SLPC  H13X 7609   5.301   5.102   4.575 -0.5827  0.8541 -4.1668
   81SLPC  H13Y 7610   5.466   5.059   4.524 -0.0132 -1.0164 -0.8072
   81SLPC  C314 7611   5.389   4.962   4.709  0.0571 -0.0856 -0.3348
   81SLPC  H14X 7612   5.455   5.030   4.766 -0.9761  1.1376 -0.5393
   81SLPC  H14Y 7613   5.445   4.866   4.699 -1.5876 -1.0883 -0.3350
   81SLPC  C315 7614   5.252   4.926   4.769  0.4273  0.7030  0.9668
   81SLPC  H15X 7615   5.217   4.829   4.726 -0.3746  0.6878  1.6200
   81SLPC  H15Y 7616   5.175   5.001   4.744  1.4217  0.6595 -2.8573
   81SLPC  C316 7617   5.256   4.905   4.919 -0.0613  0.1420  0.3610
   81SLPC  H16X 7618   5.311   4.814   4.952 -1.9691 -0.2525  2.7709
   81SLPC  H16Y 7619   5.151   4.908   4.953 -0.7279  1.7602 -1.7149
   81SLPC  C317 7620   5.309   5.031   4.995  0.0490  0.4566  0.0905
   81SLPC  H17X 7621   5.279   5.121   4.937  1.5643  0.2759 -1.0310
   81SLPC  H17Y 7622   5.420   5.026   4.996  0.0615 -1.3466 -2.0754
   81SLPC  C318 7623   5.258   5.030   5.148 -0.5681  0.7581  0.3500
   81SLPC  H18X 7624   5.325   5.093   5.210 -1.0472 -0.2025  1.8921
   81SLPC  H18Y 7625   5.258   4.926   5.187 -0.5002  0.1173 -1.2809
   81SLPC  H18Z 7626   5.155   5.070   5.155 -1.2447 -0.9758  1.0735
   82SLPC     N 7627   2.605   4.509   2.193 -0.0732 -0.7980  0.1241
   82SLPC   C13 7628   2.548   4.632   2.141  0.0701  0.0203 -0.2613
   82SLPC  H13A 7629   2.610   4.712   2.178 -1.1270  1.3438 -1.0126
   82SLPC  H13B 7630   2.550   4.632   2.033 -2.1364 -4.2606 -0.5401
   82SLPC  H13C 7631   2.449   4.648   2.181  0.2479 -0.6052  0.4599
   82SLPC   C14 7632   2.745   4.501   2.142 -0.0228  0.0391 -0.4826
   82SLPC  H14A 7633   2.784   4.402   2.162 -1.0080 -0.6221 -1.7213
   82SLPC  H14B 7634   2.752   4.509   2.034 -2.4589  0.3183 -0.6733
   82SLPC  H14C 7635   2.812   4.575   2.183 -0.0928  0.6949 -1.4970
   82SLPC   C15 7636   2.532   4.380   2.155 -0.0947  0.5530  0.1738
   82SLPC  H15A 7637   2.435   4.378   2.202  0.2631  1.8636  1.0433
   82SLPC  H15B 7638   2.506   4.382   2.050 -2.0334 -0.9998  0.5872
   82SLPC  H15C 7639   2.597   4.296   2.171  1.9628  2.2966  1.5283
   82SLPC   C12 7640   2.599   4.507   2.350 -0.5939  0.4420 -0.3270
   82SLPC  H12A 7641   2.660   4.590   2.382 -0.3250  0.8224 -1.7646
   82SLPC  H12B 7642   2.651   4.418   2.385 -1.0982  0.5354  0.7192
   82SLPC   C11 7643   2.461   4.525   2.416  0.5187 -0.0320 -0.3564
   82SLPC  H11A 7644   2.466   4.514   2.526  1.5908 -1.2122 -0.4967
   82SLPC  H11B 7645   2.386   4.452   2.379 -1.3208  1.5775  0.0632
   82SLPC     P 7646   2.454   4.785   2.462 -0.1625  0.1303 -0.0535
   82SLPC   O13 7647   2.588   4.829   2.408 -0.2763  0.2136  0.5916
   82SLPC   O14 7648   2.350   4.892   2.470  0.6626 -0.1156 -0.0933
   82SLPC   O12 7649   2.404   4.654   2.381 -0.9374  0.6142 -0.1330
   82SLPC   O11 7650   2.476   4.724   2.613 -0.4987 -0.2229 -0.1660
   82SLPC    C1 7651   2.370   4.727   2.707  0.8584 -0.0637 -0.2347
   82SLPC    HA 7652   2.296   4.809   2.695 -2.6133 -2.6780  1.4822
   82SLPC    HB 7653   2.308   4.638   2.683 -3.2157  2.1989  0.9142
   82SLPC    C2 7654   2.417   4.724   2.850  0.5405 -0.6831 -0.6242
   82SLPC    HS 7655   2.347   4.661   2.910  0.1240 -0.6658 -1.0881
   82SLPC   O21 7656   2.425   4.860   2.907 -0.5908 -0.2124  0.1799
   82SLPC   C21 7657   2.314   4.907   2.955 -0.2359  0.0897 -0.4317
   82SLPC   O22 7658   2.203   4.854   2.941  0.4414  0.5583  0.2721
   82SLPC   C22 7659   2.346   5.021   3.046 -0.2561 -0.2872  0.7978
   82SLPC   H2R 7660   2.395   5.105   2.993  0.4660 -0.0523  1.8171
   82SLPC   H2S 7661   2.244   5.055   3.076  0.4832  1.1815  1.7115
   82SLPC    C3 7662   2.560   4.670   2.871  0.4688  0.0974  0.0861
   82SLPC    HX 7663   2.634   4.733   2.817 -0.1668  0.7389 -0.0510
   82SLPC    HY 7664   2.560   4.569   2.823 -0.6342 -0.5909  1.4557
   82SLPC   O31 7665   2.604   4.662   3.006  0.4648 -0.0612 -0.3436
   82SLPC   C31 7666   2.618   4.545   3.057 -0.2809 -0.1925  0.2569
   82SLPC   O32 7667   2.591   4.437   3.009 -0.3795  0.1935  0.5445
   82SLPC   C32 7668   2.664   4.561   3.200  0.2907 -0.2851  0.1357
   82SLPC   H2X 7669   2.577   4.600   3.259  0.4636  1.5493 -0.7476
   82SLPC   H2Y 7670   2.750   4.631   3.199  0.9985 -1.0856  1.6400
   82SLPC   C23 7671   2.426   4.965   3.167  0.2536  0.2878  0.8902
   82SLPC   H3R 7672   2.514   4.903   3.140 -1.8280 -3.4276  1.8893
   82SLPC   H3S 7673   2.357   4.893   3.216 -0.1744  1.3464  1.8765
   82SLPC   C24 7674   2.459   5.066   3.274  0.2811  0.1440  0.3041
   82SLPC   H4R 7675   2.372   5.133   3.287 -0.7643 -0.6054 -2.3308
   82SLPC   H4S 7676   2.550   5.119   3.239  1.3003 -2.2854 -0.9397
   82SLPC   C25 7677   2.507   5.014   3.406 -0.8608 -0.7115 -0.3422
   82SLPC   H5R 7678   2.415   4.962   3.440 -0.6556 -0.6399  0.3286
   82SLPC   H5S 7679   2.526   5.099   3.475 -2.3596 -1.1172  0.6232
   82SLPC   C26 7680   2.639   4.932   3.421  0.0183  0.5536  0.3957
   82SLPC   H6R 7681   2.720   4.994   3.378  2.2155 -1.6279  1.1138
   82SLPC   H6S 7682   2.633   4.837   3.363  1.5181  0.1142  0.9114
   82SLPC   C27 7683   2.658   4.886   3.567  0.1491 -0.1102 -0.4312
   82SLPC   H7R 7684   2.565   4.828   3.582 -3.1665  4.4863 -1.2794
   82SLPC   H7S 7685   2.655   4.973   3.635 -1.2062 -1.1812  0.9408
   82SLPC   C28 7686   2.789   4.805   3.599 -0.5854  0.2259  0.2773
   82SLPC   H8R 7687   2.869   4.856   3.541  0.8737  0.0719  2.0621
   82SLPC   H8S 7688   2.762   4.708   3.551 -0.2982  1.0649 -1.6925
   82SLPC   C29 7689   2.812   4.792   3.749 -0.2982 -0.1283 -0.3685
   82SLPC   H9R 7690   2.837   4.889   3.793 -1.4733 -0.6802  1.6430
   82SLPC  C210 7691   2.818   4.679   3.823 -0.3171  0.2568  0.2051
   82SLPC  H10R 7692   2.836   4.688   3.931  0.6116  0.1426  0.0744
   82SLPC  C211 7693   2.793   4.540   3.775 -0.0967  0.8817 -0.3374
   82SLPC  H11R 7694   2.858   4.475   3.837  0.4772  0.7531 -1.0714
   82SLPC  H11S 7695   2.831   4.522   3.672 -0.5353  0.5114 -0.4380
   82SLPC  C212 7696   2.646   4.516   3.783  0.3142  0.4872  0.3331
   82SLPC  H12R 7697   2.585   4.573   3.711 -1.0879 -0.5040  0.6921
   82SLPC  C213 7698   2.583   4.432   3.862  0.1730 -0.8374  0.7811
   82SLPC  H13R 7699   2.478   4.414   3.834  0.2004 -3.0107  1.8140
   82SLPC  C214 7700   2.635   4.342   3.969  0.2074 -0.2067 -0.3192
   82SLPC  H14R 7701   2.720   4.287   3.924 -0.4707  0.6178 -2.7519
   82SLPC  H14S 7702   2.553   4.270   3.990  0.0030  0.3155  0.7602
   82SLPC  C215 7703   2.673   4.421   4.095  0.4235 -0.4005 -0.0086
   82SLPC  H15R 7704   2.743   4.502   4.065  1.1104 -0.4558  1.3731
   82SLPC  H15S 7705   2.736   4.371   4.171 -0.9754  3.1164  3.8844
   82SLPC  C216 7706   2.565   4.490   4.178  0.2254  0.0959  0.5700
   82SLPC  H16R 7707   2.491   4.415   4.213  0.6849 -2.8479 -4.0296
   82SLPC  H16S 7708   2.509   4.559   4.111  0.8893 -1.1086 -1.2934
   82SLPC  C217 7709   2.621   4.572   4.290  0.0159  0.3734  0.4982
   82SLPC  H17R 7710   2.677   4.658   4.249 -0.2618  0.5799  0.5507
   82SLPC  H17S 7711   2.689   4.509   4.351  0.3882  1.2312  0.9870
   82SLPC  C218 7712   2.513   4.618   4.393  0.4035 -0.0678 -0.4573
   82SLPC  H18R 7713   2.435   4.671   4.335  0.6240 -0.4412 -1.0975
   82SLPC  H18S 7714   2.550   4.697   4.463  1.1824 -0.3860 -0.4957
   82SLPC  H18T 7715   2.466   4.533   4.446 -1.7213  1.6903  0.6301
   82SLPC   C33 7716   2.734   4.431   3.262 -0.2405  0.4331  0.4800
   82SLPC   H3X 7717   2.811   4.397   3.190 -0.1380  1.7963 -0.0737
   82SLPC   H3Y 7718   2.654   4.353   3.254  0.2795  0.0387 -1.6285
   82SLPC   C34 7719   2.791   4.444   3.404  0.3165 -0.2166  0.1718
   82SLPC   H4X 7720   2.713   4.506   3.454 -1.4391 -0.0644 -2.5421
   82SLPC   H4Y 7721   2.886   4.500   3.399  0.2375 -0.1776 -1.2782
   82SLPC   C35 7722   2.815   4.313   3.477 -0.3139  0.4403  0.3444
   82SLPC   H5X 7723   2.893   4.326   3.555 -1.5458  0.9856  1.5154
   82SLPC   H5Y 7724   2.861   4.243   3.404  1.7159  0.7431  1.2722
   82SLPC   C36 7725   2.691   4.239   3.521  0.6283  0.1234 -0.2171
   82SLPC   H6X 7726   2.632   4.186   3.442  0.9523  2.1632 -1.8969
   82SLPC   H6Y 7727   2.616   4.303   3.573 -1.6262 -1.7961 -0.9410
   82SLPC   C37 7728   2.723   4.132   3.624  0.0939  0.1842 -0.2057
   82SLPC   H7X 7729   2.780   4.192   3.699  2.1574 -0.6312 -1.0457
   82SLPC   H7Y 7730   2.791   4.057   3.577  0.9668 -0.2596  1.6712
   82SLPC   C38 7731   2.597   4.070   3.685 -0.0875 -0.1361 -0.3151
   82SLPC   H8X 7732   2.537   4.017   3.608 -1.5855  1.3836 -0.2434
   82SLPC   H8Y 7733   2.523   4.148   3.713  0.3377 -0.0161  0.5076
   82SLPC   C39 7734   2.623   3.985   3.811 -0.8148 -0.4604 -0.1054
   82SLPC   H9X 7735   2.661   4.060   3.884 -0.6872  0.1875 -0.8193
   82SLPC   H9Y 7736   2.709   3.915   3.802 -0.6131 -0.2773  0.3588
   82SLPC  C310 7737   2.495   3.909   3.859 -0.0541  0.2434  0.1418
   82SLPC  H10X 7738   2.462   3.850   3.772  0.5029 -0.6265  0.5111
   82SLPC  H10Y 7739   2.425   3.991   3.884 -0.5868 -0.9987  3.1337
   82SLPC  C311 7740   2.512   3.826   3.991  0.2673  0.6513 -0.0303
   82SLPC  H11X 7741   2.593   3.752   3.973  0.6760  1.1854 -0.4240
   82SLPC  H11Y 7742   2.427   3.759   4.016  2.2318 -2.5088 -1.2972
   82SLPC  C312 7743   2.550   3.914   4.111  0.1615  0.2259 -0.2735
   82SLPC  H12X 7744   2.633   3.982   4.082  0.4265  0.6405  1.3583
   82SLPC  H12Y 7745   2.599   3.844   4.181  0.6256  1.1056  0.2955
   82SLPC  C313 7746   2.433   3.984   4.173  0.4096 -0.1206 -0.0509
   82SLPC  H13X 7747   2.350   3.918   4.205  1.5853 -0.3874  2.8242
   82SLPC  H13Y 7748   2.401   4.061   4.100 -2.0354  1.8135  2.7973
   82SLPC  C314 7749   2.483   4.062   4.294 -0.1208 -0.2433 -0.3719
   82SLPC  H14X 7750   2.550   4.149   4.277  1.4512 -1.0914  1.1649
   82SLPC  H14Y 7751   2.533   3.988   4.360  0.1096 -0.1184 -0.4047
   82SLPC  C315 7752   2.359   4.131   4.366 -0.5174 -0.1404 -0.7289
   82SLPC  H15X 7753   2.291   4.054   4.407 -2.0055  2.0834  1.2614
   82SLPC  H15Y 7754   2.293   4.184   4.294 -2.8125 -0.3973  1.0863
   82SLPC  C316 7755   2.386   4.236   4.480 -0.0792  0.1494  0.0597
   82SLPC  H16X 7756   2.291   4.280   4.517  0.6035  1.8343 -0.0769
   82SLPC  H16Y 7757   2.445   4.320   4.438  1.3091 -0.9666 -0.3223
   82SLPC  C317 7758   2.449   4.184   4.609  0.0649  0.2904 -0.1762
   82SLPC  H17X 7759   2.534   4.115   4.588  1.9562  1.9849  1.4675
   82SLPC  H17Y 7760   2.372   4.119   4.656 -1.0611 -1.3736 -3.9182
   82SLPC  C318 7761   2.496   4.297   4.696 -0.0965 -1.0570 -0.2419
   82SLPC  H18X 7762   2.534   4.268   4.796 -1.3887 -0.2053  0.5235
   82SLPC  H18Y 7763   2.408   4.363   4.715  0.5659  0.2839 -1.5965
   82SLPC  H18Z 7764   2.574   4.354   4.641 -1.1986  1.3134  0.5291
   83SLPC     N 7765   5.795   5.651   2.310  0.8872  0.1445  0.5719
   83SLPC   C13 7766   5.927   5.666   2.241  0.3324 -0.5345  0.0953
   83SLPC  H13A 7767   5.996   5.596   2.284  0.4657 -0.2671  0.3234
   83SLPC  H13B 7768   5.909   5.647   2.136  1.7412 -1.7881  0.0465
   83SLPC  H13C 7769   5.963   5.768   2.253 -0.5340 -0.2449  0.3583
   83SLPC   C14 7770   5.739   5.513   2.298 -0.1369 -0.6085  0.0145
   83SLPC  H14A 7771   5.639   5.503   2.337 -0.1713  0.3040  0.1955
   83SLPC  H14B 7772   5.732   5.482   2.195 -1.2227 -0.4416  0.0241
   83SLPC  H14C 7773   5.808   5.457   2.358  0.9702  0.6341 -0.0595
   83SLPC   C15 7774   5.691   5.742   2.245 -0.2540 -0.3189 -0.4078
   83SLPC  H15A 7775   5.712   5.847   2.260  0.3655 -0.0631 -2.6352
   83SLPC  H15B 7776   5.698   5.744   2.137  1.3429 -3.2605 -0.4621
   83SLPC  H15C 7777   5.588   5.731   2.274 -0.8714  0.5338 -2.1154
   83SLPC   C12 7778   5.807   5.692   2.455  0.2962 -0.5729  0.2398
   83SLPC  H12A 7779   5.709   5.700   2.498  0.2857  1.4204 -0.0598
   83SLPC  H12B 7780   5.844   5.793   2.453 -1.3463  0.0739  1.0715
   83SLPC   C11 7781   5.901   5.608   2.547 -0.2268 -0.8219  0.7514
   83SLPC  H11A 7782   5.907   5.661   2.644  0.8398 -1.9886  1.3469
   83SLPC  H11B 7783   5.998   5.598   2.494 -1.2956  2.5944 -2.2462
   83SLPC     P 7784   5.741   5.456   2.692  0.0214  0.4308  0.1283
   83SLPC   O13 7785   5.617   5.528   2.654  0.2296  0.0133 -0.0779
   83SLPC   O14 7786   5.730   5.312   2.725  0.1749 -0.4302 -0.0976
   83SLPC   O12 7787   5.841   5.477   2.572  0.0461 -0.9047 -0.6055
   83SLPC   O11 7788   5.812   5.531   2.816  0.3708  0.3969 -0.5187
   83SLPC    C1 7789   5.763   5.658   2.856  0.5450 -0.0735 -0.4475
   83SLPC    HA 7790   5.746   5.723   2.767  1.6797  0.3619 -0.3580
   83SLPC    HB 7791   5.665   5.652   2.909 -0.0577 -0.1249 -1.5395
   83SLPC    C2 7792   5.856   5.723   2.963 -0.1191  0.9890 -0.0988
   83SLPC    HS 7793   5.955   5.717   2.914  1.0036 -0.2931  2.1717
   83SLPC   O21 7794   5.870   5.636   3.073 -0.0045 -0.0427  0.3742
   83SLPC   C21 7795   5.937   5.683   3.174 -0.5853  0.0451 -0.7078
   83SLPC   O22 7796   6.027   5.768   3.170 -0.4003 -0.0048 -0.2938
   83SLPC   C22 7797   5.896   5.594   3.285 -0.5313 -0.1080 -0.4205
   83SLPC   H2R 7798   5.786   5.587   3.279 -0.4768  0.2247 -3.2510
   83SLPC   H2S 7799   5.932   5.490   3.267 -1.2013 -0.5213  0.5057
   83SLPC    C3 7800   5.815   5.869   2.991  0.3396  0.0568 -1.0477
   83SLPC    HX 7801   5.806   5.924   2.895 -0.6263  2.2358  0.2051
   83SLPC    HY 7802   5.904   5.920   3.034 -0.3974  0.1856  0.3699
   83SLPC   O31 7803   5.697   5.878   3.080 -0.3677 -0.3592 -0.5404
   83SLPC   C31 7804   5.655   6.004   3.100  0.2870  0.0201  0.1885
   83SLPC   O32 7805   5.706   6.105   3.054  0.2967  0.0760 -0.4180
   83SLPC   C32 7806   5.529   6.013   3.189 -0.0960 -0.1429 -0.0327
   83SLPC   H2X 7807   5.493   5.908   3.189  3.7901 -1.6915 -2.2399
   83SLPC   H2Y 7808   5.457   6.080   3.137 -0.5261  0.0814  0.8371
   83SLPC   C23 7809   5.944   5.642   3.426  0.2310  0.4717  0.5462
   83SLPC   H3R 7810   5.923   5.747   3.455  1.4598  0.4538  1.6060
   83SLPC   H3S 7811   6.055   5.647   3.425  0.4008 -2.0265 -1.0498
   83SLPC   C24 7812   5.889   5.542   3.532 -1.0388 -0.2638 -0.3892
   83SLPC   H4R 7813   5.915   5.441   3.494 -0.3551 -0.6699  1.0818
   83SLPC   H4S 7814   5.778   5.541   3.540 -0.9540  0.0610  1.0688
   83SLPC   C25 7815   5.944   5.574   3.667 -0.1273  0.6651  0.0606
   83SLPC   H5R 7816   5.881   5.659   3.703 -2.8055 -0.9444 -0.4834
   83SLPC   H5S 7817   6.050   5.605   3.655  0.6712 -2.1176 -0.8185
   83SLPC   C26 7818   5.941   5.448   3.762 -0.0882 -0.5510  0.4618
   83SLPC   H6R 7819   6.042   5.405   3.783  0.5110  0.6855  0.1717
   83SLPC   H6S 7820   5.882   5.368   3.711 -0.4547 -0.5495  0.8783
   83SLPC   C27 7821   5.868   5.465   3.893  0.1366  0.2540 -0.5815
   83SLPC   H7R 7822   5.910   5.556   3.942 -0.7954  0.3126  0.1491
   83SLPC   H7S 7823   5.893   5.381   3.961  0.6763 -1.1713 -2.4644
   83SLPC   C28 7824   5.713   5.478   3.875  0.4561  0.0702 -0.2214
   83SLPC   H8R 7825   5.701   5.546   3.788  0.5364 -1.7020 -1.6898
   83SLPC   H8S 7826   5.674   5.525   3.968  0.6633 -2.1468  1.0607
   83SLPC   C29 7827   5.648   5.335   3.877 -0.7255 -0.0732  0.1705
   83SLPC   H9R 7828   5.645   5.281   3.781 -0.9375  0.1585  0.0463
   83SLPC  C210 7829   5.603   5.266   3.987  0.2458 -0.0836  0.8654
   83SLPC  H10R 7830   5.546   5.174   3.971  1.6317 -0.6914 -0.8851
   83SLPC  C211 7831   5.609   5.316   4.125  0.6798 -0.3806 -0.1328
   83SLPC  H11R 7832   5.519   5.373   4.156  1.1355 -0.9112  2.4436
   83SLPC  H11S 7833   5.705   5.371   4.137  0.0846  0.3790  1.4393
   83SLPC  C212 7834   5.614   5.200   4.221 -0.5506 -0.4338 -0.7805
   83SLPC  H12R 7835   5.567   5.108   4.185 -0.9256 -0.1963 -0.9096
   83SLPC  C213 7836   5.676   5.195   4.341 -0.0880 -0.4681 -0.0474
   83SLPC  H13R 7837   5.670   5.105   4.405  1.1119  0.0174  0.7917
   83SLPC  C214 7838   5.768   5.304   4.386 -0.0265 -0.4416  0.1656
   83SLPC  H14R 7839   5.717   5.403   4.390  0.5379 -0.1830  2.2548
   83SLPC  H14S 7840   5.860   5.322   4.326  0.8212 -0.7581  1.3387
   83SLPC  C215 7841   5.819   5.283   4.536  0.2299  0.1699 -0.2459
   83SLPC  H15R 7842   5.890   5.198   4.546  1.6868  1.4584  1.0973
   83SLPC  H15S 7843   5.739   5.276   4.612 -0.9224  1.6482 -1.2736
   83SLPC  C216 7844   5.894   5.408   4.590 -0.1568  0.3256  0.3332
   83SLPC  H16R 7845   5.835   5.502   4.584 -0.6392  0.0034  0.0610
   83SLPC  H16S 7846   5.977   5.424   4.517 -0.6240  1.7174  0.0639
   83SLPC  C217 7847   5.947   5.384   4.732 -0.5643 -0.0673  0.0359
   83SLPC  H17R 7848   5.962   5.279   4.764 -0.2476  0.2304  0.9109
   83SLPC  H17S 7849   5.868   5.423   4.800 -0.6167  2.1273 -1.1903
   83SLPC  C218 7850   6.074   5.460   4.762 -1.0821  0.3931  0.5398
   83SLPC  H18R 7851   6.169   5.422   4.718 -2.2861 -2.4774  0.1561
   83SLPC  H18S 7852   6.085   5.448   4.872 -2.9056  1.0262  0.8217
   83SLPC  H18T 7853   6.072   5.564   4.722  0.5544 -0.8852 -3.4046
   83SLPC   C33 7854   5.560   6.067   3.326 -0.0809 -0.2050  0.1230
   83SLPC   H3X 7855   5.468   6.082   3.388  0.0944 -1.1711  0.6314
   83SLPC   H3Y 7856   5.602   6.170   3.333 -0.6028 -0.0309  0.9688
   83SLPC   C34 7857   5.645   5.973   3.422  0.5087 -0.4671 -0.3355
   83SLPC   H4X 7858   5.744   5.971   3.373  2.4095 -3.5649  3.1168
   83SLPC   H4Y 7859   5.593   5.875   3.421 -1.0048  0.3027 -1.9341
   83SLPC   C35 7860   5.669   6.022   3.558  0.3102 -0.9564 -0.2354
   83SLPC   H5X 7861   5.568   6.043   3.599  0.0121  0.4833 -1.6219
   83SLPC   H5Y 7862   5.722   6.120   3.561  3.2330 -2.4446  0.8634
   83SLPC   C36 7863   5.728   5.924   3.654 -0.3022 -0.2438  0.0903
   83SLPC   H6X 7864   5.814   5.869   3.611  0.2760  0.4663  0.3120
   83SLPC   H6Y 7865   5.659   5.839   3.674 -0.5891 -0.5492 -1.9547
   83SLPC   C37 7866   5.769   5.992   3.787 -0.6631  0.2519  0.2425
   83SLPC   H7X 7867   5.674   5.990   3.845 -0.9107  3.3518  0.1535
   83SLPC   H7Y 7868   5.794   6.100   3.778  2.0443 -0.3690 -0.4933
   83SLPC   C38 7869   5.877   5.928   3.877  0.2921 -0.2397 -0.1525
   83SLPC   H8X 7870   5.968   5.919   3.813  0.9678  2.6397  0.2572
   83SLPC   H8Y 7871   5.845   5.829   3.917  1.1894  0.1090  1.4875
   83SLPC   C39 7872   5.898   6.014   4.004 -0.0643  0.5728  0.8266
   83SLPC   H9X 7873   5.799   6.022   4.054 -1.1541 -1.7702 -0.7900
   83SLPC   H9Y 7874   5.928   6.119   3.981 -0.6918  0.9257  1.5834
   83SLPC  C310 7875   5.997   5.960   4.106  0.1703 -0.4114 -0.0242
   83SLPC  H10X 7876   6.101   5.979   4.072  1.4083 -0.0543  3.5149
   83SLPC  H10Y 7877   5.982   5.851   4.121  0.2378 -0.3716  0.3371
   83SLPC  C311 7878   5.973   6.023   4.248  0.4248 -0.0942  0.8427
   83SLPC  H11X 7879   6.072   6.020   4.298  0.7365 -1.8147  0.2121
   83SLPC  H11Y 7880   5.915   5.955   4.314 -1.4847  1.3828  0.7813
   83SLPC  C312 7881   5.925   6.170   4.256 -0.0795  0.1719 -0.0544
   83SLPC  H12X 7882   5.848   6.187   4.334 -0.3947 -1.2098 -0.0531
   83SLPC  H12Y 7883   5.887   6.205   4.158 -0.9238 -2.1226 -0.5932
   83SLPC  C313 7884   6.040   6.273   4.284  0.8261  0.0017 -0.0995
   83SLPC  H13X 7885   5.991   6.372   4.274 -0.8678 -0.6587  1.2311
   83SLPC  H13Y 7886   6.123   6.268   4.210 -0.2771  1.3465 -1.4913
   83SLPC  C314 7887   6.091   6.261   4.430 -0.8327  0.0952 -0.5982
   83SLPC  H14X 7888   6.174   6.190   4.449 -1.8585 -1.2591 -1.0393
   83SLPC  H14Y 7889   6.008   6.222   4.493  0.1092  0.3229  0.8368
   83SLPC  C315 7890   6.124   6.401   4.483 -0.1506  0.0771  0.2119
   83SLPC  H15X 7891   6.040   6.474   4.473  0.4767  0.8393  0.3936
   83SLPC  H15Y 7892   6.210   6.445   4.427  0.9732 -0.3509  1.5661
   83SLPC  C316 7893   6.156   6.404   4.633  0.5917 -0.6828 -0.2596
   83SLPC  H16X 7894   6.098   6.326   4.685 -0.3581 -0.0678 -0.3772
   83SLPC  H16Y 7895   6.145   6.505   4.677  1.2262 -1.1322  0.9717
   83SLPC  C317 7896   6.301   6.370   4.656 -0.3492 -0.5329 -0.1568
   83SLPC  H17X 7897   6.358   6.462   4.629 -2.6663  0.7976 -0.8500
   83SLPC  H17Y 7898   6.328   6.282   4.593 -0.6096 -0.7219 -0.0066
   83SLPC  C318 7899   6.330   6.340   4.799 -0.0298 -0.1092 -0.4282
   83SLPC  H18X 7900   6.312   6.423   4.870  1.7285 -0.2419  0.2342
   83SLPC  H18Y 7901   6.433   6.299   4.807 -0.1962 -0.5683 -0.5990
   83SLPC  H18Z 7902   6.264   6.255   4.827  0.4224  0.2667  1.9669
   84SLPC     N 7903   3.454   2.191   2.386  0.7630 -0.6115 -0.0486
   84SLPC   C13 7904   3.491   2.236   2.248  0.1883  0.9549  0.2942
   84SLPC  H13A 7905   3.479   2.343   2.238 -1.0670  1.0577  2.3089
   84SLPC  H13B 7906   3.591   2.210   2.219  1.2095  2.9212  1.7683
   84SLPC  H13C 7907   3.424   2.189   2.178 -0.5559  3.7785 -1.0551
   84SLPC   C14 7908   3.551   2.265   2.475 -0.1732 -0.5974  0.5491
   84SLPC  H14A 7909   3.537   2.245   2.580 -1.2121 -0.3807  0.4655
   84SLPC  H14B 7910   3.651   2.241   2.444 -0.6340 -2.0885  0.1450
   84SLPC  H14C 7911   3.536   2.372   2.483 -1.2404 -0.6151 -0.8276
   84SLPC   C15 7912   3.482   2.048   2.395 -0.8731 -0.7063 -0.5709
   84SLPC  H15A 7913   3.437   1.998   2.479 -0.8640 -0.1141 -0.2068
   84SLPC  H15B 7914   3.450   1.989   2.310 -1.0620  0.1580 -1.1123
   84SLPC  H15C 7915   3.588   2.030   2.387 -1.1606 -1.7314 -2.8979
   84SLPC   C12 7916   3.305   2.225   2.412  0.3405  0.1765  0.0998
   84SLPC  H12A 7917   3.242   2.159   2.355  0.2915  1.7424 -1.7563
   84SLPC  H12B 7918   3.284   2.330   2.397 -0.9745 -0.1607 -0.5644
   84SLPC   C11 7919   3.247   2.201   2.556 -0.5855  0.0524 -0.3762
   84SLPC  H11A 7920   3.148   2.250   2.564 -1.8682 -2.6274  1.9232
   84SLPC  H11B 7921   3.310   2.254   2.631 -0.6643 -1.6007  0.9230
   84SLPC     P 7922   3.097   1.984   2.564 -0.4572  0.1842 -0.0370
   84SLPC   O13 7923   3.004   2.051   2.647 -0.0609  0.3528  0.0808
   84SLPC   O14 7924   3.070   1.977   2.417  0.3662 -0.0132 -0.2040
   84SLPC   O12 7925   3.235   2.059   2.588 -0.6661 -0.1300 -0.9137
   84SLPC   O11 7926   3.126   1.839   2.618  0.1588 -0.1261  0.2004
   84SLPC    C1 7927   3.263   1.809   2.657 -0.0367  0.8135 -0.3303
   84SLPC    HA 7928   3.318   1.777   2.566  2.1447  0.7034  0.9627
   84SLPC    HB 7929   3.312   1.887   2.719 -0.0353 -0.8909  1.9678
   84SLPC    C2 7930   3.262   1.689   2.762 -0.5203 -0.2811  0.1174
   84SLPC    HS 7931   3.215   1.599   2.716  0.5228 -0.3753 -0.8163
   84SLPC   O21 7932   3.192   1.724   2.884  0.0540  0.3321  0.5859
   84SLPC   C21 7933   3.162   1.608   2.953 -0.5965 -0.8409 -0.0185
   84SLPC   O22 7934   3.183   1.499   2.910 -0.0508  0.2821 -0.1721
   84SLPC   C22 7935   3.104   1.643   3.083 -0.1779 -0.3807 -0.1447
   84SLPC   H2R 7936   2.997   1.670   3.068 -0.2995  0.0567  1.3672
   84SLPC   H2S 7937   3.120   1.563   3.158  0.1956 -1.3051 -1.1713
   84SLPC    C3 7938   3.414   1.641   2.782  0.2025 -0.5189 -0.5045
   84SLPC    HX 7939   3.452   1.598   2.687 -1.5134  1.9764 -2.4701
   84SLPC    HY 7940   3.425   1.560   2.858  3.2748  1.3269  1.2598
   84SLPC   O31 7941   3.490   1.754   2.817  0.0271  0.6324 -0.1790
   84SLPC   C31 7942   3.515   1.774   2.944 -0.3216  0.3973  0.4286
   84SLPC   O32 7943   3.482   1.694   3.034 -0.3785  0.4484 -0.7524
   84SLPC   C32 7944   3.593   1.912   2.956  0.5182 -0.1301  0.0859
   84SLPC   H2X 7945   3.524   1.999   2.953 -0.0337 -0.5273 -3.3735
   84SLPC   H2Y 7946   3.651   1.916   2.861  0.6117  2.0527  0.1945
   84SLPC   C23 7947   3.172   1.768   3.151 -0.4076  0.1672  0.1355
   84SLPC   H3R 7948   3.175   1.856   3.084 -0.9740 -0.3405 -0.5671
   84SLPC   H3S 7949   3.273   1.735   3.184 -0.3338  1.4628  1.3184
   84SLPC   C24 7950   3.101   1.833   3.274 -0.2408  0.5459 -0.2260
   84SLPC   H4R 7951   3.011   1.885   3.235 -0.2494  0.3388 -0.4873
   84SLPC   H4S 7952   3.166   1.909   3.323 -0.5163 -0.6139  2.0762
   84SLPC   C25 7953   3.050   1.731   3.378  0.4236  0.0562  0.1368
   84SLPC   H5R 7954   3.142   1.687   3.422  1.6780 -1.3767 -3.4749
   84SLPC   H5S 7955   2.991   1.648   3.334  1.1817 -0.5364  0.2244
   84SLPC   C26 7956   2.968   1.809   3.481 -0.2601 -0.2114 -0.4190
   84SLPC   H6R 7957   2.875   1.834   3.426  0.5961 -0.8036 -2.1996
   84SLPC   H6S 7958   3.023   1.905   3.495  0.8756 -0.7901 -0.7896
   84SLPC   C27 7959   2.964   1.739   3.616 -1.0055 -0.5326 -0.0239
   84SLPC   H7R 7960   2.985   1.632   3.594 -2.3703 -1.0891  1.2613
   84SLPC   H7S 7961   2.867   1.756   3.667 -0.4089 -1.4355  1.4972
   84SLPC   C28 7962   3.068   1.790   3.713 -0.3232  0.0959 -0.1288
   84SLPC   H8R 7963   3.067   1.901   3.722  0.0982  0.1904 -1.1554
   84SLPC   H8S 7964   3.171   1.775   3.675 -0.7106 -0.7076 -0.8928
   84SLPC   C29 7965   3.048   1.725   3.847 -0.0120  0.4139  0.3362
   84SLPC   H9R 7966   3.078   1.619   3.850  2.1945  0.9717 -0.1746
   84SLPC  C210 7967   2.991   1.780   3.954 -0.1373  0.3065  0.4156
   84SLPC  H10R 7968   2.989   1.721   4.047 -0.8269 -0.2912  0.0342
   84SLPC  C211 7969   2.952   1.917   3.960 -0.0345 -0.2264 -0.0553
   84SLPC  H11R 7970   2.959   1.978   3.867 -1.0087  1.9854  1.2341
   84SLPC  H11S 7971   3.009   1.971   4.039 -0.4400 -0.9242  0.7272
   84SLPC  C212 7972   2.809   1.929   4.001 -0.0341 -0.0865 -0.5285
   84SLPC  H12R 7973   2.734   1.941   3.921  1.3707  0.8486 -1.7593
   84SLPC  C213 7974   2.775   1.980   4.128 -0.3489 -0.2731 -0.3864
   84SLPC  H13R 7975   2.667   1.980   4.149 -0.1715 -1.6986  0.6476
   84SLPC  C214 7976   2.860   2.009   4.246 -0.1710 -0.9895  0.2258
   84SLPC  H14R 7977   2.814   2.083   4.314 -0.4875  0.2918 -1.3129
   84SLPC  H14S 7978   2.956   2.054   4.210 -0.1220 -1.7459 -0.6449
   84SLPC  C215 7979   2.898   1.882   4.328  0.1245 -1.0328 -0.0454
   84SLPC  H15R 7980   2.979   1.909   4.399  0.6534  0.5991 -1.2002
   84SLPC  H15S 7981   2.943   1.809   4.257  0.7739  0.1620 -0.8978
   84SLPC  C216 7982   2.787   1.813   4.415 -0.7680  0.4856 -0.0025
   84SLPC  H16R 7983   2.722   1.761   4.341  3.2913 -2.9968 -1.5645
   84SLPC  H16S 7984   2.733   1.892   4.471  0.5228  0.8892  0.7097
   84SLPC  C217 7985   2.840   1.704   4.503  0.2488 -1.0642  0.1942
   84SLPC  H17R 7986   2.929   1.655   4.457  1.3343  1.1461 -0.2047
   84SLPC  H17S 7987   2.753   1.635   4.511 -1.1965  0.6145 -0.5701
   84SLPC  C218 7988   2.889   1.767   4.639  0.1589  0.1929  0.4239
   84SLPC  H18R 7989   2.923   1.690   4.712  2.1304  2.5462  2.1411
   84SLPC  H18S 7990   2.818   1.832   4.694  1.0472  1.3906  0.1983
   84SLPC  H18T 7991   2.975   1.831   4.609 -0.2542 -0.5207 -2.7111
   84SLPC   C33 7992   3.682   1.923   3.084  0.2466 -0.2399  0.5886
   84SLPC   H3X 7993   3.762   1.846   3.078 -0.2657 -0.9764  2.6150
   84SLPC   H3Y 7994   3.626   1.901   3.177  0.9644  0.4926  1.2108
   84SLPC   C34 7995   3.761   2.058   3.109  0.7525  0.5120 -0.2965
   84SLPC   H4X 7996   3.679   2.129   3.134 -1.4801 -1.5035 -1.3489
   84SLPC   H4Y 7997   3.816   2.100   3.022  2.2394  2.9395  1.7137
   84SLPC   C35 7998   3.861   2.035   3.223 -0.2876 -0.0986 -0.4625
   84SLPC   H5X 7999   3.933   2.119   3.233  0.7722 -1.0635  0.2365
   84SLPC   H5Y 8000   3.935   1.953   3.210  0.5580  0.8911 -2.5116
   84SLPC   C36 8001   3.794   1.997   3.354 -0.3854  0.5992 -0.1091
   84SLPC   H6X 8002   3.766   1.891   3.341 -0.3866  0.5199  0.4907
   84SLPC   H6Y 8003   3.708   2.065   3.378  0.9466  1.9948  0.9420
   84SLPC   C37 8004   3.886   2.021   3.478  0.8284  0.2182  0.6414
   84SLPC   H7X 8005   3.893   2.131   3.494 -0.5186  0.5707 -0.9229
   84SLPC   H7Y 8006   3.988   1.980   3.464  1.4329  0.4406  3.6160
   84SLPC   C38 8007   3.826   1.965   3.609  0.3271  0.4423  0.5776
   84SLPC   H8X 8008   3.806   1.856   3.604 -1.0275  0.7163 -1.3058
   84SLPC   H8Y 8009   3.729   2.014   3.633  1.5715  1.8468  3.0054
   84SLPC   C39 8010   3.917   1.996   3.728  0.3468 -0.3375 -0.4922
   84SLPC   H9X 8011   3.962   2.098   3.729 -0.7610  0.1782  1.1173
   84SLPC   H9Y 8012   4.006   1.931   3.719  0.3728 -0.2378 -0.9645
   84SLPC  C310 8013   3.846   1.974   3.862 -0.2100  0.4800  0.1131
   84SLPC  H10X 8014   3.822   1.868   3.882 -1.0864  0.8677  1.2129
   84SLPC  H10Y 8015   3.754   2.037   3.858 -0.3787  0.2024 -0.7558
   84SLPC  C311 8016   3.926   2.017   3.986  0.6422  0.2084  0.1492
   84SLPC  H11X 8017   3.942   2.127   3.988 -0.1157  0.3377 -0.2546
   84SLPC  H11Y 8018   4.024   1.966   3.991  0.7708  0.4456  0.0601
   84SLPC  C312 8019   3.847   1.987   4.111 -0.5893 -0.6270  0.2093
   84SLPC  H12X 8020   3.787   1.894   4.103 -1.3097 -0.2665  1.1523
   84SLPC  H12Y 8021   3.762   2.057   4.127 -2.3864 -2.4687 -0.9196
   84SLPC  C313 8022   3.926   1.985   4.238  0.0611 -0.2624 -0.2816
   84SLPC  H13X 8023   3.993   2.074   4.249 -2.0807  1.3002  0.7453
   84SLPC  H13Y 8024   3.988   1.893   4.246 -1.4275 -1.1457  1.9185
   84SLPC  C314 8025   3.844   1.990   4.368  0.9785  0.0294 -0.0884
   84SLPC  H14X 8026   3.785   1.896   4.376 -0.7190  1.0405 -0.1720
   84SLPC  H14Y 8027   3.765   2.068   4.369 -0.2140 -1.1482  0.6207
   84SLPC  C315 8028   3.937   1.992   4.492  0.2296 -1.1638  0.2541
   84SLPC  H15X 8029   3.990   2.090   4.490 -1.2146 -0.3462 -2.3650
   84SLPC  H15Y 8030   4.015   1.913   4.492  0.1587 -1.2384  0.6939
   84SLPC  C316 8031   3.865   1.991   4.630  0.3813 -0.3973  0.2270
   84SLPC  H16X 8032   3.936   2.005   4.714  1.7612 -2.9540 -0.4175
   84SLPC  H16Y 8033   3.821   1.889   4.640  1.2567 -0.6853  1.2171
   84SLPC  C317 8034   3.757   2.100   4.648  0.2201  0.3919 -0.1277
   84SLPC  H17X 8035   3.691   2.094   4.559 -0.5812 -0.4927  0.5085
   84SLPC  H17Y 8036   3.807   2.199   4.649  1.1638 -0.0684  1.1252
   84SLPC  C318 8037   3.675   2.096   4.775 -0.0832  0.5176  0.0174
   84SLPC  H18X 8038   3.622   1.999   4.779  1.1811 -0.4833 -3.4865
   84SLPC  H18Y 8039   3.600   2.177   4.786 -0.7026 -0.2784  2.0114
   84SLPC  H18Z 8040   3.746   2.089   4.860  1.9771 -0.0067 -1.6687
   85SLPC     N 8041   1.893   0.661   2.776  0.0822 -0.0330 -0.6688
   85SLPC   C13 8042   1.829   0.617   2.905 -0.4712 -0.7204 -0.0470
   85SLPC  H13A 8043   1.903   0.571   2.969  1.1497  0.7357 -0.7905
   85SLPC  H13B 8044   1.791   0.698   2.965  0.8450  1.8040 -2.3996
   85SLPC  H13C 8045   1.749   0.547   2.885  0.1990 -1.2093 -1.0729
   85SLPC   C14 8046   1.952   0.545   2.699 -0.3609  0.2874 -0.5491
   85SLPC  H14A 8047   2.031   0.497   2.754 -0.8583 -0.4009 -0.4172
   85SLPC  H14B 8048   1.879   0.467   2.682  0.3836 -1.1164  2.1458
   85SLPC  H14C 8049   1.989   0.580   2.604  0.8459  0.1404 -0.1410
   85SLPC   C15 8050   2.017   0.746   2.797  0.1319 -0.5018 -0.3819
   85SLPC  H15A 8051   2.061   0.776   2.703 -1.9600  1.1683 -0.9137
   85SLPC  H15B 8052   1.997   0.831   2.861 -0.2520 -0.7656 -0.1492
   85SLPC  H15C 8053   2.093   0.684   2.843  1.8243  0.1052 -2.2242
   85SLPC   C12 8054   1.795   0.746   2.703  0.1873 -0.2395  0.8562
   85SLPC  H12A 8055   1.841   0.762   2.607 -0.5368  1.4208  0.7607
   85SLPC  H12B 8056   1.782   0.841   2.752 -0.5775 -0.3837  0.9606
   85SLPC   C11 8057   1.649   0.693   2.681 -0.3285 -0.2118  0.1992
   85SLPC  H11A 8058   1.584   0.774   2.639  0.4453  0.4275  0.2132
   85SLPC  H11B 8059   1.609   0.664   2.780 -1.2023 -0.0314 -0.0947
   85SLPC     P 8060   1.572   0.458   2.607 -0.5641 -0.0230 -0.3976
   85SLPC   O13 8061   1.425   0.481   2.617 -0.0907  0.3199 -0.2183
   85SLPC   O14 8062   1.619   0.367   2.504 -0.9956  0.6154 -0.3585
   85SLPC   O12 8063   1.649   0.587   2.588 -0.5343 -0.2047  0.7329
   85SLPC   O11 8064   1.625   0.413   2.750 -0.5650  0.1542 -0.0877
   85SLPC    C1 8065   1.578   0.287   2.799  0.6064  0.7175  0.1454
   85SLPC    HA 8066   1.467   0.289   2.798  0.5856 -0.1849  0.0925
   85SLPC    HB 8067   1.615   0.200   2.740 -0.6331 -1.3740  2.2784
   85SLPC    C2 8068   1.617   0.266   2.943  0.0065  0.0570  0.5113
   85SLPC    HS 8069   1.587   0.160   2.960 -1.2215  0.0638 -1.3096
   85SLPC   O21 8070   1.559   0.358   3.036 -0.0811  0.8527 -0.1284
   85SLPC   C21 8071   1.430   0.334   3.069  0.3193 -0.1908 -0.1663
   85SLPC   O22 8072   1.368   0.232   3.042  0.0732 -0.0487 -0.6489
   85SLPC   C22 8073   1.375   0.449   3.162 -0.7403  0.3891 -0.2373
   85SLPC   H2R 8074   1.453   0.506   3.217  0.1767 -2.5303  1.7085
   85SLPC   H2S 8075   1.329   0.515   3.086  0.3584  0.0670 -1.2216
   85SLPC    C3 8076   1.770   0.265   2.949 -0.1522  0.4177  0.1945
   85SLPC    HX 8077   1.813   0.359   2.909  1.0105  0.5303  1.6563
   85SLPC    HY 8078   1.801   0.192   2.871  1.8120 -0.1219  1.4241
   85SLPC   O31 8079   1.819   0.228   3.084  0.1730  0.1636 -0.1760
   85SLPC   C31 8080   1.920   0.301   3.136  1.0183 -0.4551  0.1826
   85SLPC   O32 8081   1.990   0.381   3.079  0.5708 -0.2955  0.4287
   85SLPC   C32 8082   1.902   0.298   3.286 -0.1691 -0.5136  0.6562
   85SLPC   H2X 8083   1.994   0.342   3.329 -0.3821 -0.1388  0.7351
   85SLPC   H2Y 8084   1.896   0.190   3.313 -4.0999  0.0336  2.7831
   85SLPC   C23 8085   1.277   0.409   3.273 -0.1168  0.4507 -0.6679
   85SLPC   H3R 8086   1.199   0.338   3.238 -1.6186  1.4751  0.4670
   85SLPC   H3S 8087   1.222   0.493   3.321  0.9392 -0.4654  2.3595
   85SLPC   C24 8088   1.358   0.343   3.392 -0.4001  0.4416  0.3875
   85SLPC   H4R 8089   1.437   0.412   3.428 -0.4994  1.2843 -0.9340
   85SLPC   H4S 8090   1.421   0.257   3.361  1.1256  0.9032  2.0962
   85SLPC   C25 8091   1.286   0.303   3.517 -0.0832 -0.3384 -0.5142
   85SLPC   H5R 8092   1.215   0.382   3.549  1.0632  0.2513  0.5966
   85SLPC   H5S 8093   1.213   0.222   3.493  1.4374 -2.0826  0.5033
   85SLPC   C26 8094   1.371   0.268   3.647 -1.3232 -0.3430 -0.2994
   85SLPC   H6R 8095   1.410   0.367   3.681 -0.4439 -0.1721 -1.7488
   85SLPC   H6S 8096   1.458   0.210   3.611 -1.6973 -0.2950 -1.3098
   85SLPC   C27 8097   1.306   0.198   3.769 -0.2773 -0.5333  0.8559
   85SLPC   H7R 8098   1.270   0.097   3.741 -2.4998  0.6470 -0.8994
   85SLPC   H7S 8099   1.219   0.253   3.810 -0.0829  0.1623  0.3551
   85SLPC   C28 8100   1.411   0.179   3.881 -0.1048 -0.0223  0.4092
   85SLPC   H8R 8101   1.435   0.283   3.913 -2.1339  0.0527  1.8747
   85SLPC   H8S 8102   1.498   0.127   3.834 -0.2146  2.0299 -2.3506
   85SLPC   C29 8103   1.353   0.104   4.005  0.5186  0.5076  0.4029
   85SLPC   H9R 8104   1.296   0.012   3.988  1.8213 -0.8084  2.7025
   85SLPC  C210 8105   1.358   0.143   4.130 -0.2702 -0.4556 -0.2382
   85SLPC  H10R 8106   1.300   0.082   4.200 -2.2925  0.5232 -0.9616
   85SLPC  C211 8107   1.413   0.273   4.190  0.5606  0.1721  0.1091
   85SLPC  H11R 8108   1.328   0.326   4.238  1.1194  1.0749  0.1258
   85SLPC  H11S 8109   1.462   0.342   4.118 -0.3021 -0.6224 -1.2766
   85SLPC  C212 8110   1.511   0.239   4.295  0.0380  0.2516  0.9778
   85SLPC  H12R 8111   1.601   0.191   4.254  0.6844  2.1600 -0.0016
   85SLPC  C213 8112   1.509   0.251   4.428  0.5435  0.3919  1.0514
   85SLPC  H13R 8113   1.601   0.212   4.474  0.3797 -0.0232  1.0278
   85SLPC  C214 8114   1.393   0.301   4.517 -0.0992 -0.0057 -0.5784
   85SLPC  H14R 8115   1.346   0.389   4.468 -0.2764 -1.2476 -2.8120
   85SLPC  H14S 8116   1.438   0.339   4.611 -0.0036  1.8811 -1.3509
   85SLPC  C215 8117   1.294   0.187   4.541  0.4252  0.1451 -0.1351
   85SLPC  H15R 8118   1.344   0.094   4.575  0.1744 -0.1028 -0.4343
   85SLPC  H15S 8119   1.250   0.156   4.444  0.6668  1.4361 -0.6831
   85SLPC  C216 8120   1.181   0.223   4.623 -0.0884  0.6384 -0.1160
   85SLPC  H16R 8121   1.121   0.301   4.572 -3.3902  0.5197  3.1951
   85SLPC  H16S 8122   1.212   0.262   4.722 -1.2742  0.7232  0.2355
   85SLPC  C217 8123   1.093   0.100   4.653  0.0882 -0.5253 -0.0248
   85SLPC  H17R 8124   1.158   0.010   4.649 -0.6135 -1.0151 -1.2038
   85SLPC  H17S 8125   1.018   0.080   4.573 -0.9798 -1.0487  1.0645
   85SLPC  C218 8126   1.013   0.113   4.789 -0.4726  0.7504 -0.4626
   85SLPC  H18R 8127   0.955   0.019   4.799  1.6134 -0.5747 -0.1905
   85SLPC  H18S 8128   0.946   0.201   4.802 -3.3703 -1.6213  2.2007
   85SLPC  H18T 8129   1.092   0.123   4.866 -0.5718 -0.4542 -0.1793
   85SLPC   C33 8130   1.771   0.352   3.340 -0.4442  0.1446 -0.7422
   85SLPC   H3X 8131   1.681   0.311   3.290 -0.2858 -1.1696  0.0054
   85SLPC   H3Y 8132   1.781   0.463   3.344  0.3550  0.0284  1.6333
   85SLPC   C34 8133   1.752   0.313   3.483 -0.2586  0.3660 -0.3064
   85SLPC   H4X 8134   1.767   0.207   3.510  1.3566  0.9270  1.2301
   85SLPC   H4Y 8135   1.645   0.334   3.505 -0.8268 -0.7871 -1.8504
   85SLPC   C35 8136   1.845   0.390   3.586  0.6556 -1.5898  0.5984
   85SLPC   H5X 8137   1.858   0.497   3.559  0.0616 -1.3680  1.1573
   85SLPC   H5Y 8138   1.948   0.350   3.578  0.8747 -0.9042 -0.2177
   85SLPC   C36 8139   1.801   0.393   3.732 -0.6188 -0.3762 -0.1113
   85SLPC   H6X 8140   1.779   0.286   3.752  2.5209 -1.0929 -0.0367
   85SLPC   H6Y 8141   1.715   0.463   3.747 -0.1019  0.4443 -0.8737
   85SLPC   C37 8142   1.920   0.435   3.819 -0.5044  0.5441  0.1806
   85SLPC   H7X 8143   1.950   0.534   3.778  0.5495 -0.2618 -1.1001
   85SLPC   H7Y 8144   2.003   0.366   3.792  0.1074  1.9517 -1.7231
   85SLPC   C38 8145   1.889   0.442   3.972  0.3644  0.8556 -0.2840
   85SLPC   H8X 8146   1.911   0.343   4.017  0.9331  0.9562 -0.3399
   85SLPC   H8Y 8147   1.779   0.458   3.986  0.5474  1.3784  0.6207
   85SLPC   C39 8148   1.965   0.548   4.042  0.7417  0.1491  0.2568
   85SLPC   H9X 8149   1.919   0.644   4.009 -0.1882 -0.2577  0.3278
   85SLPC   H9Y 8150   2.068   0.551   4.001  0.8010  1.0211  0.4462
   85SLPC  C310 8151   1.977   0.545   4.191  0.1581 -0.1262 -0.1728
   85SLPC  H10X 8152   2.039   0.634   4.216  0.3508 -0.3192  0.0452
   85SLPC  H10Y 8153   2.034   0.454   4.221 -0.6467 -0.1480  1.4025
   85SLPC  C311 8154   1.838   0.533   4.264 -0.4735  0.5186  0.4661
   85SLPC  H11X 8155   1.786   0.438   4.243 -0.5977  0.2232  2.0432
   85SLPC  H11Y 8156   1.776   0.619   4.229 -2.2043  0.0432  2.2166
   85SLPC  C312 8157   1.857   0.534   4.413  0.4457  0.1725 -0.1580
   85SLPC  H12X 8158   1.923   0.621   4.435  1.3289 -0.0075 -1.8708
   85SLPC  H12Y 8159   1.917   0.448   4.450 -0.1670 -0.3161 -0.2748
   85SLPC  C313 8160   1.736   0.540   4.493  0.6981 -0.0089  0.0486
   85SLPC  H13X 8161   1.728   0.459   4.570  0.2390  1.7445  1.9203
   85SLPC  H13Y 8162   1.647   0.532   4.428  1.2716 -0.3341 -0.7180
   85SLPC  C314 8163   1.724   0.671   4.573  0.1164  0.2928 -0.1893
   85SLPC  H14X 8164   1.757   0.754   4.507  3.2416  0.2796  1.1809
   85SLPC  H14Y 8165   1.809   0.663   4.644  0.3202  0.4167 -0.4183
   85SLPC  C315 8166   1.585   0.700   4.636 -0.4072  0.0622 -0.1615
   85SLPC  H15X 8167   1.512   0.737   4.561 -0.0599 -1.3749 -1.2398
   85SLPC  H15Y 8168   1.609   0.782   4.707  0.9392 -1.7733  1.6324
   85SLPC  C316 8169   1.526   0.591   4.723 -0.3510  0.5823 -0.5439
   85SLPC  H16X 8170   1.602   0.514   4.748 -0.7559  0.0789 -0.8532
   85SLPC  H16Y 8171   1.448   0.539   4.664 -0.6011 -0.3058  0.5363
   85SLPC  C317 8172   1.460   0.648   4.850  0.4565 -0.3700  0.4829
   85SLPC  H17X 8173   1.392   0.728   4.813  3.7045  2.1774 -0.4862
   85SLPC  H17Y 8174   1.542   0.696   4.907  1.3493  2.1089 -2.5995
   85SLPC  C318 8175   1.380   0.553   4.941 -0.0850  0.1619 -0.6841
   85SLPC  H18X 8176   1.298   0.596   5.002  0.1777  0.1200 -0.2996
   85SLPC  H18Y 8177   1.452   0.497   5.005 -0.1479  0.4130 -0.3941
   85SLPC  H18Z 8178   1.338   0.470   4.880  0.1389  0.5323 -1.3551
   86SLPC     N 8179   1.724   3.170   2.277  0.3079 -0.3882 -0.4755
   86SLPC   C13 8180   1.797   3.269   2.196 -0.2782 -0.0233  0.1697
   86SLPC  H13A 8181   1.904   3.252   2.189 -0.4614 -0.8864 -0.7463
   86SLPC  H13B 8182   1.756   3.278   2.097  0.1765 -1.0865 -0.1264
   86SLPC  H13C 8183   1.790   3.374   2.222  2.4217  0.7333 -1.6656
   86SLPC   C14 8184   1.736   3.030   2.207  0.1379 -0.6224  0.4562
   86SLPC  H14A 8185   1.835   3.022   2.165 -0.9000  0.1843 -2.3858
   86SLPC  H14B 8186   1.715   2.944   2.268 -0.0877  0.0819  1.3818
   86SLPC  H14C 8187   1.679   3.029   2.115 -0.4721  1.1769  0.7751
   86SLPC   C15 8188   1.587   3.213   2.279 -0.1759 -1.0745  0.7670
   86SLPC  H15A 8189   1.571   3.296   2.346 -0.5411  0.8087 -1.5220
   86SLPC  H15B 8190   1.561   3.240   2.177 -0.0380 -1.2291  0.6899
   86SLPC  H15C 8191   1.525   3.127   2.297 -1.3048 -0.5646 -0.4544
   86SLPC   C12 8192   1.763   3.159   2.421 -0.1430 -0.3930  0.1479
   86SLPC  H12A 8193   1.864   3.121   2.427 -0.0625 -0.5683 -1.7187
   86SLPC  H12B 8194   1.706   3.081   2.471  0.9957 -2.1917 -1.2235
   86SLPC   C11 8195   1.758   3.286   2.507  0.2243  0.8557  0.3349
   86SLPC  H11A 8196   1.802   3.373   2.454  1.6770 -0.8197 -1.3420
   86SLPC  H11B 8197   1.823   3.286   2.597  0.9810  0.2740 -0.2010
   86SLPC     P 8198   1.558   3.225   2.653  0.0113 -0.0468  0.1438
   86SLPC   O13 8199   1.433   3.298   2.701 -0.0710  0.4251 -0.4379
   86SLPC   O14 8200   1.532   3.092   2.595  0.6540  0.4863  0.0577
   86SLPC   O12 8201   1.622   3.321   2.543 -0.2912  0.5424  0.1119
   86SLPC   O11 8202   1.676   3.218   2.755 -0.4071 -0.2921  0.4840
   86SLPC    C1 8203   1.682   3.326   2.856  0.4206  0.1438 -0.5834
   86SLPC    HA 8204   1.723   3.418   2.808  1.5292 -0.1386 -0.1867
   86SLPC    HB 8205   1.582   3.352   2.897 -0.1207 -1.4834 -0.7928
   86SLPC    C2 8206   1.774   3.275   2.972  0.4468  0.4865  0.2914
   86SLPC    HS 8207   1.862   3.227   2.925  0.7560 -0.2645  1.6031
   86SLPC   O21 8208   1.713   3.176   3.059 -0.7165 -0.1161  0.0061
   86SLPC   C21 8209   1.792   3.110   3.139  0.0122 -0.5381 -0.3188
   86SLPC   O22 8210   1.913   3.123   3.147 -0.3460  0.1899 -0.4536
   86SLPC   C22 8211   1.707   3.015   3.215 -0.0758  0.3181 -1.1646
   86SLPC   H2R 8212   1.651   2.953   3.141  1.2885 -0.9301 -1.1881
   86SLPC   H2S 8213   1.763   2.949   3.285 -3.0581 -0.4277  0.7284
   86SLPC    C3 8214   1.827   3.401   3.055 -0.5877  0.1122 -0.5561
   86SLPC    HX 8215   1.861   3.476   2.981 -2.5251  0.7986 -0.8183
   86SLPC    HY 8216   1.918   3.369   3.110 -1.4590 -1.0787  0.2692
   86SLPC   O31 8217   1.728   3.441   3.158 -0.3514  0.5473 -0.3766
   86SLPC   C31 8218   1.644   3.534   3.131  0.3579  0.2545 -0.6662
   86SLPC   O32 8219   1.626   3.588   3.022 -0.1957 -0.1124 -0.2741
   86SLPC   C32 8220   1.587   3.566   3.270  0.4189  0.1737  0.6141
   86SLPC   H2X 8221   1.670   3.559   3.343  1.2344 -2.1523 -0.4137
   86SLPC   H2Y 8222   1.533   3.473   3.299  1.4969 -0.6282  0.1122
   86SLPC   C23 8223   1.620   3.098   3.310  0.0782  0.3026 -0.0989
   86SLPC   H3R 8224   1.543   3.037   3.361 -1.2882 -0.7952 -3.2263
   86SLPC   H3S 8225   1.569   3.184   3.261 -0.2874  1.7106  2.5726
   86SLPC   C24 8226   1.709   3.162   3.428  0.1054  0.1772 -0.0665
   86SLPC   H4R 8227   1.769   3.247   3.389  0.3725  0.8523  1.7194
   86SLPC   H4S 8228   1.778   3.082   3.463  0.6002  0.5916 -0.0819
   86SLPC   C25 8229   1.623   3.224   3.544 -0.8673  0.4435  0.6312
   86SLPC   H5R 8230   1.558   3.141   3.579  0.2924 -1.3160 -1.2132
   86SLPC   H5S 8231   1.552   3.291   3.492  0.7986  0.7037 -1.4475
   86SLPC   C26 8232   1.702   3.314   3.644  0.2577  0.0126  0.8621
   86SLPC   H6R 8233   1.616   3.341   3.709  1.8948 -1.3719  3.7817
   86SLPC   H6S 8234   1.757   3.389   3.583 -1.2102 -1.2217 -2.1694
   86SLPC   C27 8235   1.787   3.246   3.743 -0.1030  0.6022 -0.1876
   86SLPC   H7R 8236   1.896   3.258   3.724  0.3682  0.1580  1.9011
   86SLPC   H7S 8237   1.766   3.138   3.729  0.6774  0.3233  0.6732
   86SLPC   C28 8238   1.761   3.265   3.898 -0.7061 -0.1411 -0.1188
   86SLPC   H8R 8239   1.836   3.204   3.952 -0.5002 -0.2180 -0.4875
   86SLPC   H8S 8240   1.661   3.227   3.929 -0.5815 -0.6247 -0.3005
   86SLPC   C29 8241   1.800   3.401   3.951 -0.2328 -0.3871  0.3304
   86SLPC   H9R 8242   1.788   3.486   3.881  1.4633 -1.3984 -1.2850
   86SLPC  C210 8243   1.829   3.430   4.080  0.2597  0.8399  0.2757
   86SLPC  H10R 8244   1.854   3.534   4.104 -0.2778  1.0347 -0.0087
   86SLPC  C211 8245   1.822   3.342   4.199  0.4265  0.7541 -0.4619
   86SLPC  H11R 8246   1.745   3.264   4.176  0.5380  0.4596  0.1449
   86SLPC  H11S 8247   1.772   3.397   4.282 -1.9112 -1.7066 -0.0830
   86SLPC  C212 8248   1.954   3.283   4.240 -0.4835 -0.4540  0.6598
   86SLPC  H12R 8249   2.001   3.228   4.158  0.3308  0.0280  0.7898
   86SLPC  C213 8250   2.005   3.292   4.365 -0.9754 -0.7344 -0.1699
   86SLPC  H13R 8251   2.108   3.254   4.376 -0.0953  1.3387 -0.8889
   86SLPC  C214 8252   1.945   3.369   4.487  0.4467  0.9944 -0.7539
   86SLPC  H14R 8253   1.843   3.404   4.458 -0.2115  1.0158  1.4171
   86SLPC  H14S 8254   2.000   3.463   4.509  0.4703  1.8693 -3.9746
   86SLPC  C215 8255   1.915   3.280   4.604  0.2869  0.5851 -0.5203
   86SLPC  H15R 8256   1.859   3.191   4.568  1.2612 -0.4120  0.3381
   86SLPC  H15S 8257   1.837   3.327   4.668  1.0504  0.7753  0.3000
   86SLPC  C216 8258   2.030   3.241   4.695  0.4315 -0.0170  0.0843
   86SLPC  H16R 8259   2.058   3.337   4.744 -0.0985  0.1396  0.0843
   86SLPC  H16S 8260   2.117   3.218   4.630 -0.5201  2.0847 -2.0671
   86SLPC  C217 8261   2.013   3.138   4.810  0.2682 -0.1416  0.2545
   86SLPC  H17R 8262   1.926   3.157   4.876 -0.3811 -2.1163  0.0197
   86SLPC  H17S 8263   2.094   3.160   4.882  0.5571  0.2395 -0.1837
   86SLPC  C218 8264   2.009   2.993   4.754 -0.3128  0.6295  0.3575
   86SLPC  H18R 8265   2.026   2.925   4.841 -0.6345  0.7390  0.5094
   86SLPC  H18S 8266   2.096   2.976   4.687 -1.5006  0.1828 -1.1168
   86SLPC  H18T 8267   1.916   2.972   4.697  0.8238 -1.7451 -0.7941
   86SLPC   C33 8268   1.499   3.701   3.279  0.8156 -0.4950 -0.3331
   86SLPC   H3X 8269   1.398   3.685   3.235 -0.2438  1.4740  1.1867
   86SLPC   H3Y 8270   1.552   3.778   3.218  2.7043 -3.0322 -2.1232
   86SLPC   C34 8271   1.490   3.748   3.420 -1.1658 -0.1377 -0.0699
   86SLPC   H4X 8272   1.427   3.840   3.417 -1.1661 -0.1515 -1.6114
   86SLPC   H4Y 8273   1.592   3.771   3.457 -0.5027 -3.9383  0.8970
   86SLPC   C35 8274   1.429   3.644   3.521 -0.0482  0.1602  0.9310
   86SLPC   H5X 8275   1.489   3.552   3.532 -1.8013 -1.0786  0.5078
   86SLPC   H5Y 8276   1.335   3.609   3.474 -1.0654  0.2208  2.8296
   86SLPC   C36 8277   1.376   3.700   3.650  0.0458 -0.0550  0.3977
   86SLPC   H6X 8278   1.281   3.645   3.668 -0.6576 -0.6583 -3.9896
   86SLPC   H6Y 8279   1.362   3.810   3.641  2.8232  0.4724  1.5004
   86SLPC   C37 8280   1.472   3.679   3.757 -0.5288  0.5038  0.1852
   86SLPC   H7X 8281   1.557   3.746   3.731  0.2207 -0.3169  0.4488
   86SLPC   H7Y 8282   1.518   3.578   3.747  0.6231  1.1187 -1.0529
   86SLPC   C38 8283   1.422   3.690   3.902 -0.3732  0.1905 -0.5938
   86SLPC   H8X 8284   1.338   3.620   3.924 -2.0570  2.6406  1.2084
   86SLPC   H8Y 8285   1.395   3.794   3.930  3.2250  0.3542  3.2368
   86SLPC   C39 8286   1.530   3.669   4.011 -0.2368  0.5537  0.6989
   86SLPC   H9X 8287   1.617   3.729   3.977  0.1924 -0.1667  0.5110
   86SLPC   H9Y 8288   1.567   3.564   4.016  1.1793  1.0429  1.1691
   86SLPC  C310 8289   1.494   3.720   4.148 -0.2001 -0.1946 -0.2363
   86SLPC  H10X 8290   1.395   3.676   4.172 -0.6431  0.2859 -1.1649
   86SLPC  H10Y 8291   1.488   3.831   4.144  0.6229 -0.1698 -3.2204
   86SLPC  C311 8292   1.605   3.681   4.256 -0.2949 -0.3183  0.4612
   86SLPC  H11X 8293   1.709   3.709   4.228  0.5478 -1.2245  2.4733
   86SLPC  H11Y 8294   1.610   3.570   4.262 -0.5545 -0.3947 -0.5058
   86SLPC  C312 8295   1.563   3.746   4.388 -0.2079 -1.2036  0.3254
   86SLPC  H12X 8296   1.462   3.706   4.411 -1.7597  1.2898 -1.6334
   86SLPC  H12Y 8297   1.554   3.855   4.369  1.7059 -1.0481  0.1355
   86SLPC  C313 8298   1.670   3.724   4.488 -0.3352 -0.5482  0.2508
   86SLPC  H13X 8299   1.764   3.779   4.466 -0.9709  0.2107 -0.6362
   86SLPC  H13Y 8300   1.700   3.617   4.483 -0.4127 -0.6229  1.2594
   86SLPC  C314 8301   1.626   3.746   4.637 -0.2402 -0.4060  0.2051
   86SLPC  H14X 8302   1.531   3.691   4.653 -0.9550  0.7691  0.1567
   86SLPC  H14Y 8303   1.604   3.852   4.662  1.3494 -0.4573  1.9467
   86SLPC  C315 8304   1.730   3.688   4.733  0.6635 -0.1971 -0.5081
   86SLPC  H15X 8305   1.811   3.763   4.737 -1.3166  2.0482 -0.5934
   86SLPC  H15Y 8306   1.760   3.590   4.691  0.9553 -0.1872 -0.3269
   86SLPC  C316 8307   1.671   3.680   4.874 -0.3155 -0.2193 -0.1515
   86SLPC  H16X 8308   1.607   3.590   4.878 -1.3768  0.4733 -0.9765
   86SLPC  H16Y 8309   1.599   3.763   4.889 -2.6500 -2.1292 -0.2349
   86SLPC  C317 8310   1.789   3.685   4.979  0.6602  0.2007  0.1492
   86SLPC  H17X 8311   1.725   3.705   5.067 -1.2802 -1.9413 -0.6560
   86SLPC  H17Y 8312   1.865   3.762   4.953 -0.0252  1.1801  0.9681
   86SLPC  C318 8313   1.870   3.560   4.990 -0.0141  0.2990  0.5221
   86SLPC  H18X 8314   1.974   3.565   4.951 -0.7708 -0.8628 -1.9016
   86SLPC  H18Y 8315   1.823   3.467   4.952  1.1802 -1.5561  3.2702
   86SLPC  H18Z 8316   1.874   3.534   5.098 -0.9135 -3.1461 -0.1501
   87SLPC     N 8317   6.030   3.833   2.838 -0.2697  0.0118 -0.2033
   87SLPC   C13 8318   6.039   3.841   2.989 -0.1823  0.1279 -0.3578
   87SLPC  H13A 8319   5.946   3.857   3.041 -1.0447  1.8101 -2.2858
   87SLPC  H13B 8320   6.075   3.748   3.029 -1.0249 -0.0610 -0.0250
   87SLPC  H13C 8321   6.116   3.917   2.994  0.8932 -0.8372 -1.5057
   87SLPC   C14 8322   6.170   3.811   2.786 -0.3360 -0.3956 -0.3633
   87SLPC  H14A 8323   6.213   3.724   2.832 -0.4707  0.2268  0.9739
   87SLPC  H14B 8324   6.163   3.804   2.678 -0.3751  1.3717 -0.5077
   87SLPC  H14C 8325   6.233   3.896   2.804  0.1868 -0.3974 -1.9586
   87SLPC   C15 8326   5.994   3.966   2.782  0.6178  0.4675  0.0758
   87SLPC  H15A 8327   5.990   3.967   2.674 -3.2866 -3.1897 -0.0884
   87SLPC  H15B 8328   5.898   4.002   2.815  1.3426  1.4491  1.2105
   87SLPC  H15C 8329   6.063   4.046   2.805  0.1575  0.2653  2.4907
   87SLPC   C12 8330   5.933   3.725   2.797  1.1280 -0.0276 -0.1161
   87SLPC  H12A 8331   5.834   3.741   2.838  0.3582 -2.7213 -0.7267
   87SLPC  H12B 8332   5.957   3.638   2.855  1.2132 -0.9919 -1.5579
   87SLPC   C11 8333   5.927   3.698   2.650  0.2240 -0.6322 -0.9663
   87SLPC  H11A 8334   5.909   3.796   2.600 -0.2474  1.0176  2.1317
   87SLPC  H11B 8335   5.836   3.643   2.616 -0.5601  0.4845 -0.7331
   87SLPC     P 8336   6.058   3.495   2.560 -0.2525 -0.2157  0.2287
   87SLPC   O13 8337   5.944   3.474   2.464  0.5018 -0.2649  0.9323
   87SLPC   O14 8338   6.198   3.468   2.521  0.3575 -0.4509 -0.3565
   87SLPC   O12 8339   6.044   3.652   2.596  0.0697 -0.4600 -0.1676
   87SLPC   O11 8340   6.022   3.406   2.684 -0.1174  0.0963 -0.3376
   87SLPC    C1 8341   6.102   3.417   2.800 -0.2466 -0.0976  0.2327
   87SLPC    HA 8342   6.142   3.518   2.822 -2.0366 -0.1893  5.2511
   87SLPC    HB 8343   6.035   3.407   2.888  1.1354  1.0311  1.4601
   87SLPC    C2 8344   6.220   3.321   2.803 -0.1039 -0.1494  0.6417
   87SLPC    HS 8345   6.270   3.322   2.704 -3.7701  2.5303 -1.4209
   87SLPC   O21 8346   6.166   3.195   2.840  0.1511  0.3410 -0.3941
   87SLPC   C21 8347   6.238   3.091   2.808 -0.2553  0.3225  1.0276
   87SLPC   O22 8348   6.353   3.092   2.759 -0.1607  0.2991  0.2119
   87SLPC   C22 8349   6.159   2.968   2.855 -0.4764  0.0090  0.2460
   87SLPC   H2R 8350   6.049   2.985   2.857 -0.3184  1.1132 -0.0434
   87SLPC   H2S 8351   6.165   2.891   2.775 -1.0217 -0.7765  0.9416
   87SLPC    C3 8352   6.331   3.360   2.906  0.1945  0.6934  0.9870
   87SLPC    HX 8353   6.379   3.455   2.873  1.1739 -0.0062  0.3033
   87SLPC    HY 8354   6.412   3.284   2.897 -0.9871 -0.3388 -3.0187
   87SLPC   O31 8355   6.290   3.367   3.042 -0.0277 -0.7504 -0.1886
   87SLPC   C31 8356   6.259   3.484   3.100  0.1337 -0.0024  0.2546
   87SLPC   O32 8357   6.257   3.593   3.045  0.6010 -0.1654 -0.3113
   87SLPC   C32 8358   6.242   3.472   3.253  0.3070 -0.4430 -0.2795
   87SLPC   H2X 8359   6.137   3.438   3.263 -0.3477  1.5864  0.1499
   87SLPC   H2Y 8360   6.239   3.569   3.306 -1.6196 -1.2737  1.2627
   87SLPC   C23 8361   6.218   2.922   2.991  0.9822  0.1248 -0.1326
   87SLPC   H3R 8362   6.148   2.866   3.057  0.3057  0.4044 -0.5987
   87SLPC   H3S 8363   6.235   3.008   3.060 -2.1398 -0.6365  1.8072
   87SLPC   C24 8364   6.345   2.834   2.979 -0.0821  0.0535 -0.1517
   87SLPC   H4R 8365   6.414   2.871   2.900  2.0019  1.4671  2.1689
   87SLPC   H4S 8366   6.318   2.727   2.968  0.0657  0.0984 -1.0297
   87SLPC   C25 8367   6.433   2.834   3.108  0.0894 -0.3245 -0.4619
   87SLPC   H5R 8368   6.467   2.936   3.136 -2.7747  0.6402 -0.1494
   87SLPC   H5S 8369   6.521   2.768   3.096  0.9286  0.5099  0.8684
   87SLPC   C26 8370   6.346   2.792   3.234 -0.5074 -0.4676  0.3511
   87SLPC   H6R 8371   6.325   2.683   3.239 -0.7732 -0.3808  1.4433
   87SLPC   H6S 8372   6.249   2.846   3.236 -0.9099 -1.1785  1.7732
   87SLPC   C27 8373   6.406   2.845   3.368 -1.0691 -0.3102  0.3498
   87SLPC   H7R 8374   6.432   2.953   3.363 -2.2660 -0.0574 -0.8259
   87SLPC   H7S 8375   6.493   2.775   3.366 -1.9170 -1.3934 -1.3804
   87SLPC   C28 8376   6.316   2.816   3.493  0.4300  0.8339  0.1651
   87SLPC   H8R 8377   6.291   2.708   3.501 -0.7295  1.2322  3.4032
   87SLPC   H8S 8378   6.212   2.848   3.469  1.4946  1.7192 -4.2260
   87SLPC   C29 8379   6.358   2.879   3.622  0.4577 -0.1931 -0.5348
   87SLPC   H9R 8380   6.382   2.986   3.607 -0.9337  0.2547  0.2677
   87SLPC  C210 8381   6.386   2.816   3.741  0.0574 -0.2685 -0.3831
   87SLPC  H10R 8382   6.409   2.883   3.825  3.1877 -1.4198 -0.1806
   87SLPC  C211 8383   6.371   2.665   3.784  0.9921  0.2518  0.4301
   87SLPC  H11R 8384   6.298   2.603   3.727  0.4382  0.4961  0.8583
   87SLPC  H11S 8385   6.324   2.661   3.885  0.2544 -0.5337  0.0675
   87SLPC  C212 8386   6.500   2.587   3.789 -0.2518  0.0097  0.3677
   87SLPC  H12R 8387   6.542   2.557   3.692  0.2417 -2.2762  1.2286
   87SLPC  C213 8388   6.579   2.563   3.897 -0.2745 -0.4679 -0.2101
   87SLPC  H13R 8389   6.672   2.506   3.880  0.4972  0.7356 -0.1794
   87SLPC  C214 8390   6.556   2.576   4.043 -0.2027 -0.2348  0.0502
   87SLPC  H14R 8391   6.446   2.587   4.056 -0.0325  3.1915 -0.5766
   87SLPC  H14S 8392   6.607   2.668   4.076  3.0636 -1.8196 -0.2262
   87SLPC  C215 8393   6.605   2.454   4.114 -0.2066  0.7170 -0.3920
   87SLPC  H15R 8394   6.708   2.431   4.079 -0.6661  1.4282 -2.3674
   87SLPC  H15S 8395   6.528   2.375   4.096 -0.4457  0.5546  1.1835
   87SLPC  C216 8396   6.616   2.485   4.261  0.4973  0.3379  0.2058
   87SLPC  H16R 8397   6.512   2.515   4.288 -0.2896 -0.5990 -1.6087
   87SLPC  H16S 8398   6.695   2.557   4.291 -0.0185  0.9972  0.0141
   87SLPC  C217 8399   6.645   2.356   4.346 -0.0835  0.1811 -0.0238
   87SLPC  H17R 8400   6.602   2.269   4.291 -1.9256  0.2781  1.1648
   87SLPC  H17S 8401   6.587   2.373   4.439 -1.5872  1.7736 -1.1862
   87SLPC  C218 8402   6.787   2.323   4.386  0.6407 -0.0842 -0.2248
   87SLPC  H18R 8403   6.843   2.322   4.290 -2.7506  2.2126 -2.4659
   87SLPC  H18S 8404   6.798   2.218   4.420  1.7497  0.0722 -0.0852
   87SLPC  H18T 8405   6.834   2.400   4.451  1.3236  1.4386 -2.3924
   87SLPC   C33 8406   6.339   3.372   3.323 -0.2564  0.5247 -0.6208
   87SLPC   H3X 8407   6.438   3.415   3.346  0.0407 -0.7212  0.5639
   87SLPC   H3Y 8408   6.347   3.299   3.240 -0.1979 -0.7235  0.4390
   87SLPC   C34 8409   6.280   3.288   3.439 -0.0039  0.2897  0.0025
   87SLPC   H4X 8410   6.321   3.185   3.450  0.6462  0.5732  0.3247
   87SLPC   H4Y 8411   6.172   3.267   3.428  0.2626 -1.3081  0.1849
   87SLPC   C35 8412   6.300   3.368   3.567  0.2595 -0.4515  0.0032
   87SLPC   H5X 8413   6.276   3.472   3.538 -0.5265 -0.6750 -0.1792
   87SLPC   H5Y 8414   6.411   3.371   3.576  0.1968  0.0562  0.7096
   87SLPC   C36 8415   6.236   3.323   3.706  0.0844  0.1997 -0.4998
   87SLPC   H6X 8416   6.127   3.320   3.682 -0.0203  0.4743 -0.0714
   87SLPC   H6Y 8417   6.257   3.403   3.780 -1.2935 -0.8443  1.1233
   87SLPC   C37 8418   6.272   3.186   3.766 -1.2514 -0.3173 -0.2683
   87SLPC   H7X 8419   6.377   3.161   3.741 -1.6773  0.5311 -3.2480
   87SLPC   H7Y 8420   6.223   3.105   3.708 -0.6894 -0.3927 -0.6427
   87SLPC   C38 8421   6.242   3.167   3.916 -0.1414  0.5374 -0.1855
   87SLPC   H8X 8422   6.266   3.060   3.932 -2.1801  0.0770  0.0144
   87SLPC   H8Y 8423   6.133   3.185   3.931 -0.4093 -1.6153  0.7996
   87SLPC   C39 8424   6.327   3.260   4.011  0.3197 -0.5420 -0.3132
   87SLPC   H9X 8425   6.287   3.361   3.987 -2.6628 -1.2930  1.0172
   87SLPC   H9Y 8426   6.437   3.250   4.004  0.9175  2.2726  2.5828
   87SLPC  C310 8427   6.285   3.256   4.161  0.1595  0.0803 -0.4036
   87SLPC  H10X 8428   6.306   3.156   4.206 -0.3261  0.3186  0.3881
   87SLPC  H10Y 8429   6.176   3.276   4.170 -0.0967 -1.5783  0.6716
   87SLPC  C311 8430   6.367   3.369   4.231 -1.2015 -0.0648 -1.3178
   87SLPC  H11X 8431   6.345   3.462   4.174  0.4106 -0.5925 -2.9325
   87SLPC  H11Y 8432   6.475   3.342   4.221 -0.7075 -0.2961  2.8063
   87SLPC  C312 8433   6.331   3.369   4.382  0.5292  0.1689 -0.4912
   87SLPC  H12X 8434   6.290   3.268   4.402  1.7752 -0.2392  0.1578
   87SLPC  H12Y 8435   6.254   3.449   4.385  1.0245  0.7809 -2.2829
   87SLPC  C313 8436   6.443   3.395   4.476 -0.5017 -0.3027 -0.4516
   87SLPC  H13X 8437   6.437   3.504   4.499 -0.8978 -0.5133  0.4667
   87SLPC  H13Y 8438   6.545   3.371   4.437  0.7513  1.6286  1.4227
   87SLPC  C314 8439   6.422   3.331   4.614  0.5906 -0.2263  0.2500
   87SLPC  H14X 8440   6.314   3.332   4.638  0.4071 -2.1951 -0.2745
   87SLPC  H14Y 8441   6.478   3.390   4.690  2.1324  1.3883 -1.9761
   87SLPC  C315 8442   6.470   3.192   4.609 -0.3762  0.4486  0.6661
   87SLPC  H15X 8443   6.581   3.194   4.608 -0.3185 -0.2453 -2.0046
   87SLPC  H15Y 8444   6.429   3.129   4.527 -1.1696  1.1471  0.5137
   87SLPC  C316 8445   6.433   3.116   4.743 -0.7475 -0.2635  0.2157
   87SLPC  H16X 8446   6.444   3.194   4.821 -2.0403 -0.4315  0.5897
   87SLPC  H16Y 8447   6.515   3.048   4.774 -0.5299 -0.2440 -0.2973
   87SLPC  C317 8448   6.286   3.069   4.745 -0.9171 -0.1775  0.0617
   87SLPC  H17X 8449   6.262   3.025   4.645 -2.2517  0.2576  0.1637
   87SLPC  H17Y 8450   6.228   3.163   4.753 -0.7787 -0.0186 -0.6803
   87SLPC  C318 8451   6.261   2.966   4.858 -0.4643  0.6221  0.1503
   87SLPC  H18X 8452   6.295   3.001   4.958  0.4533 -0.5026  0.2581
   87SLPC  H18Y 8453   6.314   2.870   4.839 -2.0301  0.0690 -1.7881
   87SLPC  H18Z 8454   6.153   2.944   4.870 -0.1203 -0.8963  0.7327
   88SLPC     N 8455   6.656   3.349   2.327  0.3911  0.0573 -0.0884
   88SLPC   C13 8456   6.547   3.445   2.357 -0.2309 -0.6233 -0.6453
   88SLPC  H13A 8457   6.464   3.423   2.292 -0.2224 -2.6371 -0.0310
   88SLPC  H13B 8458   6.522   3.436   2.461  0.5296  0.1562 -0.3793
   88SLPC  H13C 8459   6.583   3.544   2.332 -0.2924 -0.6224 -0.7315
   88SLPC   C14 8460   6.694   3.358   2.178  0.3611  0.2450 -0.9619
   88SLPC  H14A 8461   6.607   3.360   2.114 -0.4734 -2.1435 -0.0601
   88SLPC  H14B 8462   6.762   3.436   2.149  0.6800  0.6005  0.6312
   88SLPC  H14C 8463   6.759   3.273   2.164  0.0687 -1.2918  4.3834
   88SLPC   C15 8464   6.605   3.207   2.351  0.5966  0.7294 -0.1608
   88SLPC  H15A 8465   6.563   3.197   2.450 -1.4570  0.4254 -1.0234
   88SLPC  H15B 8466   6.522   3.191   2.284  0.4312  1.9688 -0.2632
   88SLPC  H15C 8467   6.685   3.135   2.338  0.5638  0.2454  1.9180
   88SLPC   C12 8468   6.776   3.379   2.414 -0.0288 -0.1382 -0.3342
   88SLPC  H12A 8469   6.742   3.370   2.516 -3.5120  0.2776 -1.3378
   88SLPC  H12B 8470   6.794   3.485   2.406 -3.2109  0.6584  1.5560
   88SLPC   C11 8471   6.906   3.292   2.404  0.2222  0.2445  0.0903
   88SLPC  H11A 8472   6.990   3.336   2.462  0.1741  0.1831  0.2081
   88SLPC  H11B 8473   6.932   3.285   2.297 -0.1089 -0.8972  0.0770
   88SLPC     P 8474   6.885   3.089   2.582  0.1359 -0.4151  0.1833
   88SLPC   O13 8475   6.754   3.064   2.638 -0.5761  0.8220  0.6109
   88SLPC   O14 8476   6.969   2.973   2.562 -0.3235  0.1355 -0.2472
   88SLPC   O12 8477   6.884   3.157   2.437 -0.8938  0.6034 -0.0444
   88SLPC   O11 8478   6.966   3.192   2.666 -0.6585  0.2478 -0.3369
   88SLPC    C1 8479   6.907   3.265   2.768 -0.1578 -0.7294  0.3147
   88SLPC    HA 8480   6.949   3.368   2.767 -1.2468 -0.1990  2.3670
   88SLPC    HB 8481   6.798   3.284   2.752  0.2611  1.3669 -0.2926
   88SLPC    C2 8482   6.953   3.231   2.912  0.2709 -0.5791  0.8639
   88SLPC    HS 8483   6.916   3.128   2.933  0.2324 -0.5496  0.9410
   88SLPC   O21 8484   6.893   3.323   3.006  0.1588  0.2180  0.4117
   88SLPC   C21 8485   6.768   3.305   3.017  0.1037 -0.0777 -0.2794
   88SLPC   O22 8486   6.704   3.211   2.976 -0.0769 -0.2485  0.3540
   88SLPC   C22 8487   6.700   3.425   3.086 -0.1516 -0.0426 -0.4036
   88SLPC   H2R 8488   6.727   3.521   3.039  0.1970  1.4039  2.5359
   88SLPC   H2S 8489   6.591   3.406   3.080  0.0457 -1.7542  0.4418
   88SLPC    C3 8490   7.110   3.239   2.919 -0.3093  0.5700  0.1247
   88SLPC    HX 8491   7.140   3.346   2.915  1.8549  0.0372  0.6145
   88SLPC    HY 8492   7.148   3.196   2.824 -0.8241 -2.1946  1.0750
   88SLPC   O31 8493   7.163   3.179   3.043  0.0611 -0.1170 -0.4082
   88SLPC   C31 8494   7.191   3.054   3.025 -0.1035 -0.5878 -0.3943
   88SLPC   O32 8495   7.166   2.990   2.926  0.0818  0.4857  0.6061
   88SLPC   C32 8496   7.267   3.001   3.148  0.6497  0.0834  0.5085
   88SLPC   H2X 8497   7.192   3.025   3.225 -1.0615 -1.2596 -0.6629
   88SLPC   H2Y 8498   7.362   3.055   3.169  1.7164 -0.8180 -1.6496
   88SLPC   C23 8499   6.726   3.445   3.233 -0.5051  0.0009 -0.3292
   88SLPC   H3R 8500   6.665   3.532   3.266  1.9658  0.9834  2.0285
   88SLPC   H3S 8501   6.828   3.487   3.247  0.2199 -2.0527  0.8526
   88SLPC   C24 8502   6.701   3.315   3.311 -1.3736 -0.5146 -0.5793
   88SLPC   H4R 8503   6.637   3.242   3.256 -0.1264 -2.0005 -0.1387
   88SLPC   H4S 8504   6.643   3.348   3.400 -0.4583 -0.5518  0.0408
   88SLPC   C25 8505   6.828   3.244   3.359  0.0544 -0.4801  0.3490
   88SLPC   H5R 8506   6.888   3.300   3.434  0.9237  0.0730 -0.7391
   88SLPC   H5S 8507   6.905   3.225   3.281 -0.3463  0.5001 -0.3040
   88SLPC   C26 8508   6.806   3.105   3.437 -0.0004 -0.2377  0.7249
   88SLPC   H6R 8509   6.697   3.086   3.442 -0.2681  1.1597  0.5500
   88SLPC   H6S 8510   6.849   3.099   3.539  1.0935 -0.2967  0.2688
   88SLPC   C27 8511   6.870   2.971   3.376 -0.2730  0.4145  0.3917
   88SLPC   H7R 8512   6.979   2.967   3.399 -0.6493  0.1669  2.2356
   88SLPC   H7S 8513   6.846   2.969   3.267 -0.7530 -1.2044  0.5075
   88SLPC   C28 8514   6.814   2.849   3.452 -0.7347 -0.0881  0.5050
   88SLPC   H8R 8515   6.705   2.865   3.466 -0.7166 -0.1923  0.7764
   88SLPC   H8S 8516   6.866   2.846   3.550  1.0503  2.1769 -0.2813
   88SLPC   C29 8517   6.832   2.719   3.380  0.0688 -1.2080 -0.3446
   88SLPC   H9R 8518   6.772   2.713   3.288 -0.7611  3.0223 -0.2911
   88SLPC  C210 8519   6.900   2.612   3.424 -0.0203 -0.1221 -0.9265
   88SLPC  H10R 8520   6.885   2.526   3.358  0.1570  1.9495 -3.8835
   88SLPC  C211 8521   6.981   2.592   3.552  0.9477  0.3494  0.5163
   88SLPC  H11R 8522   7.058   2.672   3.559  1.3466  0.5174 -3.4861
   88SLPC  H11S 8523   7.035   2.496   3.544  0.0040 -0.0918 -1.0915
   88SLPC  C212 8524   6.895   2.595   3.671 -0.1300  0.2803  0.1025
   88SLPC  H12R 8525   6.786   2.596   3.656 -0.0348  3.2203 -1.1099
   88SLPC  C213 8526   6.939   2.626   3.796 -0.8049  0.1080  0.0890
   88SLPC  H13R 8527   6.870   2.632   3.882 -0.1071  0.0091  0.6675
   88SLPC  C214 8528   7.085   2.635   3.823 -0.0435 -0.6062 -0.1823
   88SLPC  H14R 8529   7.115   2.737   3.794 -0.5265 -0.8005 -1.4241
   88SLPC  H14S 8530   7.148   2.563   3.766  1.0546 -3.4328  4.0824
   88SLPC  C215 8531   7.124   2.607   3.968 -0.3533 -0.0020  0.2632
   88SLPC  H15R 8532   7.083   2.686   4.034 -0.6460  0.8485 -0.9285
   88SLPC  H15S 8533   7.235   2.614   3.974 -0.3084 -0.1261 -0.3715
   88SLPC  C216 8534   7.067   2.471   4.018 -0.3828 -0.0874  1.1810
   88SLPC  H16R 8535   7.102   2.381   3.963  0.9379  0.1034  1.6821
   88SLPC  H16S 8536   6.958   2.460   4.002 -0.5599  1.0827  1.4843
   88SLPC  C217 8537   7.100   2.455   4.167 -0.6843 -0.1566  0.0591
   88SLPC  H17R 8538   7.059   2.362   4.212 -0.3898 -0.3283 -0.0222
   88SLPC  H17S 8539   7.050   2.536   4.224  0.1521  0.8909 -0.6474
   88SLPC  C218 8540   7.255   2.465   4.206 -0.6075  0.4536  0.0517
   88SLPC  H18R 8541   7.269   2.442   4.314  1.5606  0.6658 -0.1387
   88SLPC  H18S 8542   7.295   2.568   4.188 -3.4491  1.0066 -4.9345
   88SLPC  H18T 8543   7.313   2.380   4.163  1.8513  3.1000 -2.3764
   88SLPC   C33 8544   7.286   2.852   3.138 -0.5185 -0.4206  0.0986
   88SLPC   H3X 8545   7.352   2.828   3.052  1.5050 -0.3021  1.5620
   88SLPC   H3Y 8546   7.185   2.805   3.132 -0.9108  0.0722  2.1837
   88SLPC   C34 8547   7.348   2.803   3.266 -0.2353 -0.2477 -0.6818
   88SLPC   H4X 8548   7.288   2.846   3.349  0.3697  1.7354 -1.2150
   88SLPC   H4Y 8549   7.448   2.849   3.274 -0.2214 -0.2847 -0.6436
   88SLPC   C35 8550   7.370   2.652   3.278  0.1400  0.6039 -0.2251
   88SLPC   H5X 8551   7.443   2.622   3.199 -1.0820 -0.2551 -1.0644
   88SLPC   H5Y 8552   7.273   2.601   3.260  0.4850 -1.6761  3.4527
   88SLPC   C36 8553   7.421   2.600   3.416 -1.1438 -0.6566 -0.9649
   88SLPC   H6X 8554   7.443   2.491   3.409  1.8641 -0.0682 -2.5777
   88SLPC   H6Y 8555   7.337   2.607   3.488  0.0090 -0.4273  0.4101
   88SLPC   C37 8556   7.530   2.678   3.488 -0.6129  0.4199  0.1632
   88SLPC   H7X 8557   7.498   2.782   3.511 -0.6537 -0.0882  2.6990
   88SLPC   H7Y 8558   7.609   2.696   3.412 -1.8963 -0.3857 -1.4222
   88SLPC   C38 8559   7.583   2.611   3.619 -0.0131 -0.1353 -0.5701
   88SLPC   H8X 8560   7.675   2.669   3.642  0.1099 -0.1826 -0.9366
   88SLPC   H8Y 8561   7.613   2.506   3.598  2.1144  0.2624  0.2143
   88SLPC   C39 8562   7.485   2.611   3.740  0.7068 -0.0986  0.1904
   88SLPC   H9X 8563   7.401   2.549   3.702  1.8249 -0.7853 -1.2945
   88SLPC   H9Y 8564   7.446   2.712   3.766 -2.2916 -1.3510  0.9896
   88SLPC  C310 8565   7.542   2.551   3.867 -0.1000  0.0062  0.0427
   88SLPC  H10X 8566   7.590   2.454   3.843 -1.9658 -1.4523  1.8260
   88SLPC  H10Y 8567   7.458   2.528   3.936  0.8460 -0.0995  1.1873
   88SLPC  C311 8568   7.624   2.655   3.955  0.4535  0.2332 -0.0780
   88SLPC  H11X 8569   7.576   2.755   3.954 -3.0193 -1.2697 -0.1276
   88SLPC  H11Y 8570   7.722   2.656   3.904 -0.0753 -0.8098 -1.1652
   88SLPC  C312 8571   7.650   2.623   4.101  0.3306  0.1168 -0.2743
   88SLPC  H12X 8572   7.562   2.651   4.164  0.9612 -1.2152  1.2975
   88SLPC  H12Y 8573   7.731   2.681   4.150  0.1917  1.0143 -1.0802
   88SLPC  C313 8574   7.684   2.478   4.116 -0.3782  0.0361  0.3253
   88SLPC  H13X 8575   7.759   2.444   4.041 -1.6316 -1.3031 -0.3758
   88SLPC  H13Y 8576   7.592   2.415   4.115  0.0858 -0.6534  0.2850
   88SLPC  C314 8577   7.736   2.443   4.257  0.4528  0.5058  0.2766
   88SLPC  H14X 8578   7.762   2.335   4.255 -0.8230  0.1765 -2.8487
   88SLPC  H14Y 8579   7.670   2.466   4.344  1.3060  2.1059  0.5474
   88SLPC  C315 8580   7.868   2.501   4.299  0.1270 -0.7343  0.0014
   88SLPC  H15X 8581   7.845   2.610   4.299 -1.0449 -0.9655 -1.2221
   88SLPC  H15Y 8582   7.945   2.481   4.221 -0.6711 -0.1992 -0.9492
   88SLPC  C316 8583   7.911   2.447   4.434 -0.5099  0.0688 -0.1041
   88SLPC  H16X 8584   7.971   2.355   4.421 -2.2133 -1.4302  1.9733
   88SLPC  H16Y 8585   7.823   2.424   4.498 -0.4781  1.8157  0.6395
   88SLPC  C317 8586   7.992   2.544   4.516 -0.2010 -0.4195  0.6877
   88SLPC  H17X 8587   7.928   2.632   4.539  1.4098  0.4685  2.0555
   88SLPC  H17Y 8588   8.083   2.582   4.465  1.4419 -1.1373  2.9214
   88SLPC  C318 8589   8.034   2.495   4.653  0.3035 -0.2814 -0.4590
   88SLPC  H18X 8590   8.107   2.564   4.701 -0.1448  1.6352 -2.3580
   88SLPC  H18Y 8591   8.090   2.399   4.648  4.4031  1.9394 -2.9503
   88SLPC  H18Z 8592   7.948   2.488   4.722 -0.3116  0.6842 -1.1027
   89SAPE     N 8593   4.684   3.867   7.064  0.0591 -0.2657 -0.3003
   89SAPE   HN1 8594   4.784   3.894   7.050 -0.6066  2.7836  0.0960
   89SAPE   HN2 8595   4.683   3.823   7.158  0.8047  0.8167  0.2414
   89SAPE   HN3 8596   4.658   3.801   6.988  0.3813  0.0166 -0.6592
   89SAPE   C12 8597   4.586   3.980   7.052 -0.8047 -0.1593  0.3682
   89SAPE  H12A 8598   4.482   3.940   7.049  0.0006 -2.6175  2.2820
   89SAPE  H12B 8599   4.616   4.038   6.962  0.1660 -0.1217  0.7031
   89SAPE   C11 8600   4.596   4.073   7.175 -0.3709 -0.4020 -0.1632
   89SAPE  H11A 8601   4.705   4.090   7.189 -0.4956  3.9083 -2.6362
   89SAPE  H11B 8602   4.543   4.026   7.260 -2.7458  1.3935 -0.5353
   89SAPE     P 8603   4.561   4.330   7.240 -0.3403  0.1747  0.1557
   89SAPE   O13 8604   4.432   4.384   7.284 -0.3588 -0.1896 -0.4164
   89SAPE   O14 8605   4.655   4.295   7.352  0.4783 -0.4727 -0.1933
   89SAPE   O12 8606   4.539   4.197   7.147 -0.0875  0.1966  0.3302
   89SAPE   O11 8607   4.628   4.425   7.135  0.4027  0.0643 -0.1452
   89SAPE    C1 8608   4.582   4.538   7.070  0.5261 -0.1554  0.4837
   89SAPE    HA 8609   4.471   4.548   7.069  0.5904  1.1559 -2.3002
   89SAPE    HB 8610   4.618   4.632   7.116 -0.5626 -0.4934  2.1178
   89SAPE    C2 8611   4.633   4.549   6.922  0.4320  0.1762  0.2118
   89SAPE    HS 8612   4.571   4.624   6.869 -2.1711 -1.0888  1.2993
   89SAPE   O21 8613   4.633   4.421   6.857 -0.2069  0.7079  0.2303
   89SAPE   C21 8614   4.536   4.407   6.764 -0.0398  0.1386 -0.3306
   89SAPE   O22 8615   4.433   4.475   6.759  0.4187  0.2426 -0.1406
   89SAPE   C22 8616   4.579   4.305   6.661 -0.1603  0.4996 -0.6260
   89SAPE   H2R 8617   4.655   4.243   6.713 -3.3355 -1.7879  1.7007
   89SAPE   H2S 8618   4.497   4.235   6.631 -1.5819  2.5782 -1.9123
   89SAPE    C3 8619   4.781   4.605   6.918  0.3802 -0.3877  0.5944
   89SAPE    HX 8620   4.839   4.523   6.965 -2.7192 -2.8218  0.4867
   89SAPE    HY 8621   4.772   4.694   6.984 -1.2688 -0.7313  0.8850
   89SAPE   O31 8622   4.820   4.634   6.781  0.5579 -0.0188 -0.4137
   89SAPE   C31 8623   4.946   4.672   6.759  0.2003  0.3026  0.2674
   89SAPE   O32 8624   5.025   4.701   6.846 -0.3104  0.4293  1.0924
   89SAPE   C32 8625   4.979   4.657   6.605 -0.1973  0.6176  0.6333
   89SAPE   H2X 8626   4.996   4.549   6.581  1.3711  1.0640 -0.4458
   89SAPE   H2Y 8627   5.080   4.703   6.593  2.1048 -3.6889  1.1124
   89SAPE   C23 8628   4.636   4.373   6.534  0.2316 -0.2332 -0.2019
   89SAPE   H3R 8629   4.718   4.441   6.565 -0.0980  0.9123 -1.7638
   89SAPE   H3S 8630   4.557   4.442   6.498 -0.3624  0.2281  1.8515
   89SAPE   C24 8631   4.694   4.277   6.436 -0.7316 -0.0473 -0.4800
   89SAPE   H4R 8632   4.771   4.218   6.490 -0.1638 -0.1090 -1.3341
   89SAPE   H4S 8633   4.742   4.336   6.355  0.6770 -1.6680 -0.8861
   89SAPE   C25 8634   4.595   4.183   6.370  0.1268  0.6963  1.1183
   89SAPE   H5R 8635   4.514   4.147   6.436  0.2794 -0.6275  0.6178
   89SAPE   C26 8636   4.585   4.136   6.243 -0.3378 -0.2691  0.3270
   89SAPE   H6R 8637   4.500   4.069   6.221  0.8132 -2.3151  1.8297
   89SAPE   C27 8638   4.661   4.185   6.118  0.8779 -0.1915  0.0552
   89SAPE   H7R 8639   4.735   4.107   6.090  0.7197 -0.5278  0.5523
   89SAPE   H7S 8640   4.734   4.263   6.148  0.2799 -0.0403  1.1811
   89SAPE   C28 8641   4.569   4.220   6.008  0.2624 -0.0093  0.3932
   89SAPE   H8R 8642   4.498   4.301   6.033  1.3699  0.7270  1.2432
   89SAPE   C29 8643   4.558   4.156   5.882 -0.2002  0.1665 -0.8568
   89SAPE   H9R 8644   4.483   4.189   5.809  0.1848  0.8800 -0.9440
   89SAPE  C210 8645   4.649   4.049   5.826  0.0404  0.0493 -0.0242
   89SAPE  H10R 8646   4.745   4.049   5.883 -0.4316 -1.3645  0.7996
   89SAPE  H10S 8647   4.679   4.080   5.723 -1.0022  2.1802  0.2560
   89SAPE  C211 8648   4.588   3.910   5.810 -0.2027 -0.7745 -0.4857
   89SAPE  H11R 8649   4.623   3.840   5.887  2.0255  0.9493  0.1974
   89SAPE  C212 8650   4.501   3.856   5.730 -0.1464 -0.2454  0.3782
   89SAPE  H12R 8651   4.458   3.757   5.750 -1.7345  0.8082  2.6077
   89SAPE  C213 8652   4.432   3.933   5.613  0.0861  0.3637 -0.7519
   89SAPE  H13R 8653   4.461   4.040   5.615 -1.5689  0.8325  0.7287
   89SAPE  H13S 8654   4.324   3.946   5.636  0.5867  0.0097  2.3313
   89SAPE  C214 8655   4.448   3.864   5.472 -0.1464 -0.2658 -0.2154
   89SAPE  H14R 8656   4.545   3.814   5.456  0.4791  1.3894 -1.9312
   89SAPE  C215 8657   4.357   3.849   5.377  0.7622  0.0501  0.8312
   89SAPE  H15R 8658   4.379   3.776   5.297 -0.0393 -0.8132  1.3773
   89SAPE  C216 8659   4.214   3.893   5.369 -0.5218 -0.2765  0.8582
   89SAPE  H16R 8660   4.182   3.956   5.456  0.0344 -1.3999  1.9058
   89SAPE  H16S 8661   4.147   3.806   5.353  1.7979 -1.8683 -0.6589
   89SAPE  C217 8662   4.198   3.984   5.238  0.3462 -0.4639 -0.1393
   89SAPE  H17R 8663   4.273   4.066   5.243  0.6421 -0.6832 -0.8444
   89SAPE  H17S 8664   4.106   4.045   5.241  1.9281  1.9970  1.3428
   89SAPE  C218 8665   4.196   3.905   5.105 -0.2788  0.6286 -0.7559
   89SAPE  H18R 8666   4.128   3.822   5.130  0.3114 -0.0849 -1.4658
   89SAPE  H18S 8667   4.299   3.874   5.077  0.2964  1.9733 -0.2148
   89SAPE  C219 8668   4.135   3.989   4.986 -0.0054 -0.4096 -0.6349
   89SAPE  H19R 8669   4.149   3.922   4.898  1.1818  0.1163 -0.8700
   89SAPE  H19S 8670   4.203   4.074   4.963 -1.3717  0.6213 -1.0547
   89SAPE  C220 8671   3.988   4.036   5.007 -0.6893  0.2897  0.2699
   89SAPE  H20R 8672   3.940   4.069   4.912 -1.5162 -0.2704  0.4900
   89SAPE  H20S 8673   3.982   4.124   5.075  1.4640 -0.6094  1.7432
   89SAPE  H20T 8674   3.921   3.960   5.052 -1.2321  0.1379 -0.7559
   89SAPE   C33 8675   4.860   4.706   6.520  1.0335 -0.0005  0.0294
   89SAPE   H3X 8676   4.872   4.816   6.505  0.8609  0.1756  1.0888
   89SAPE   H3Y 8677   4.757   4.689   6.557  0.9913 -0.1982 -0.1762
   89SAPE   C34 8678   4.849   4.643   6.376  0.1317 -0.2130  0.6115
   89SAPE   H4X 8679   4.782   4.555   6.372 -0.5786  0.3116  0.7420
   89SAPE   H4Y 8680   4.952   4.624   6.339  0.0111 -0.1764  0.2569
   89SAPE   C35 8681   4.768   4.732   6.280 -0.6615  0.2240 -0.4061
   89SAPE   H5X 8682   4.837   4.793   6.217  0.4447 -0.8286 -0.2595
   89SAPE   H5Y 8683   4.699   4.794   6.341  0.4926 -1.2056  2.5259
   89SAPE   C36 8684   4.686   4.654   6.176  0.7575  0.7977  0.0172
   89SAPE   H6X 8685   4.638   4.728   6.107 -2.9944 -2.0737 -0.8213
   89SAPE   H6Y 8686   4.597   4.597   6.211 -0.3870  2.0934 -0.6585
   89SAPE   C37 8687   4.781   4.579   6.079 -0.4019 -0.0396 -0.0779
   89SAPE   H7X 8688   4.789   4.474   6.115 -1.1103 -0.7221 -1.8000
   89SAPE   H7Y 8689   4.886   4.616   6.079 -0.1217 -0.6456  2.4149
   89SAPE   C38 8690   4.721   4.571   5.943  0.2621  0.2839 -0.1327
   89SAPE   H8X 8691   4.727   4.671   5.894 -0.1913  0.3229 -0.1199
   89SAPE   H8Y 8692   4.612   4.550   5.951  0.4513 -0.2655  1.2235
   89SAPE   C39 8693   4.784   4.465   5.852 -0.2644 -0.0548  0.0414
   89SAPE   H9X 8694   4.757   4.370   5.903  0.7120 -1.1573 -1.4134
   89SAPE   H9Y 8695   4.894   4.473   5.847 -0.1610 -1.5539 -0.5500
   89SAPE  C310 8696   4.722   4.480   5.710 -0.4283 -0.0560 -0.4729
   89SAPE  H10X 8697   4.736   4.582   5.670  0.0041  0.1631  0.2187
   89SAPE  H10Y 8698   4.613   4.467   5.727 -0.3009 -2.5793 -1.1168
   89SAPE  C311 8699   4.794   4.379   5.621  0.7893  0.5282  0.6806
   89SAPE  H11X 8700   4.800   4.284   5.679 -3.0250  1.0115  2.1166
   89SAPE  H11Y 8701   4.900   4.409   5.602  0.3091  0.9117 -1.7448
   89SAPE  C312 8702   4.724   4.350   5.485  0.0748 -0.3513  0.9862
   89SAPE  H12X 8703   4.752   4.423   5.406 -1.5659 -0.3117  0.4183
   89SAPE  H12Y 8704   4.614   4.359   5.499  0.1930  0.8915  1.3078
   89SAPE  C313 8705   4.782   4.214   5.435  0.5171 -0.5134 -0.4329
   89SAPE  H13X 8706   4.764   4.137   5.514 -0.4355  2.9114  3.0367
   89SAPE  H13Y 8707   4.891   4.231   5.423  0.3660  1.0488  0.0940
   89SAPE  C314 8708   4.714   4.173   5.309 -0.0416 -0.5067  0.1055
   89SAPE  H14X 8709   4.735   4.246   5.228 -0.0094  0.4998  0.9995
   89SAPE  H14Y 8710   4.606   4.195   5.321  0.0801  0.5415 -0.5636
   89SAPE  C315 8711   4.731   4.027   5.278  0.6456 -0.1317  0.1405
   89SAPE  H15X 8712   4.679   3.969   5.358  0.2004 -0.4701 -0.3840
   89SAPE  H15Y 8713   4.840   4.013   5.293  0.8460  2.2139  1.3245
   89SAPE  C316 8714   4.682   3.970   5.142  0.0741 -0.0872  0.2149
   89SAPE  H16X 8715   4.697   4.059   5.077 -0.5274  0.3027  0.5853
   89SAPE  H16Y 8716   4.572   3.954   5.150  0.4136 -1.9692  1.9516
   89SAPE  C317 8717   4.749   3.838   5.116  0.8368  0.4294 -0.4095
   89SAPE  H17X 8718   4.730   3.758   5.191  1.1430 -1.2451 -2.0580
   89SAPE  H17Y 8719   4.859   3.857   5.116  1.1726 -1.2640 -2.1003
   89SAPE  C318 8720   4.725   3.768   4.985 -0.1526  0.3207 -0.4235
   89SAPE  H18X 8721   4.616   3.753   4.967 -0.2872  0.2681  0.4316
   89SAPE  H18Y 8722   4.778   3.673   4.961 -0.6094  0.3004 -1.4220
   89SAPE  H18Z 8723   4.762   3.829   4.899  2.6193 -2.3058 -1.2714
   90SAPE     N 8724   6.558   3.116   6.803 -0.1372 -0.4790  0.2612
   90SAPE   HN1 8725   6.624   3.127   6.882 -1.5011 -1.5027  1.5901
   90SAPE   HN2 8726   6.607   3.170   6.728 -0.1750  1.8699  1.8255
   90SAPE   HN3 8727   6.473   3.166   6.835 -0.1901 -1.2536  1.3664
   90SAPE   C12 8728   6.532   2.965   6.777  0.1977 -0.2209 -0.0939
   90SAPE  H12A 8729   6.623   2.929   6.724 -0.1700 -1.0890 -0.1486
   90SAPE  H12B 8730   6.452   2.958   6.700 -1.0549 -2.1107  1.3222
   90SAPE   C11 8731   6.483   2.888   6.897 -0.6518 -0.2972 -0.0916
   90SAPE  H11A 8732   6.575   2.879   6.959 -0.1191 -0.8842 -0.9480
   90SAPE  H11B 8733   6.455   2.785   6.866 -2.8250  0.8581 -2.2746
   90SAPE     P 8734   6.270   2.889   7.056 -0.1734  0.1507 -0.0880
   90SAPE   O13 8735   6.327   2.770   7.122  0.3645  0.0443 -0.6450
   90SAPE   O14 8736   6.224   2.995   7.145  0.5701  0.6505 -0.0395
   90SAPE   O12 8737   6.384   2.951   6.966 -0.4731  0.4374  0.1896
   90SAPE   O11 8738   6.161   2.843   6.959 -0.4357  0.2393  0.4693
   90SAPE    C1 8739   6.149   2.899   6.829 -0.7756 -0.3815 -0.4405
   90SAPE    HA 8740   6.049   2.947   6.838 -0.1274  0.8344  0.5298
   90SAPE    HB 8741   6.219   2.981   6.800 -1.6330  1.1684  1.6408
   90SAPE    C2 8742   6.149   2.790   6.721 -0.4349  0.0797 -0.9295
   90SAPE    HS 8743   6.089   2.706   6.763  0.1743  0.2445  0.3212
   90SAPE   O21 8744   6.288   2.758   6.679  0.5388  0.1559 -0.0066
   90SAPE   C21 8745   6.298   2.629   6.661 -0.7529 -0.0039 -0.0091
   90SAPE   O22 8746   6.218   2.544   6.691  0.5598 -0.1164  0.4132
   90SAPE   C22 8747   6.438   2.601   6.597  0.1100  0.3287  0.3856
   90SAPE   H2R 8748   6.503   2.682   6.638 -0.3958  0.0717  1.7611
   90SAPE   H2S 8749   6.478   2.499   6.619  0.9915  1.1548  2.9110
   90SAPE    C3 8750   6.080   2.848   6.595  0.0852 -0.0107 -0.2908
   90SAPE    HX 8751   6.141   2.936   6.567  0.0761  0.3091  0.6636
   90SAPE    HY 8752   5.981   2.891   6.621 -0.0121 -0.0433 -0.6029
   90SAPE   O31 8753   6.072   2.754   6.488 -0.0579  0.4182 -0.0038
   90SAPE   C31 8754   5.968   2.672   6.479  0.2904 -0.5096  0.2407
   90SAPE   O32 8755   5.880   2.664   6.560 -0.3040 -0.2439 -0.1195
   90SAPE   C32 8756   5.962   2.598   6.345 -0.3107 -0.6767 -0.6683
   90SAPE   H2X 8757   5.853   2.596   6.321 -0.6982 -1.9053  0.9624
   90SAPE   H2Y 8758   5.997   2.495   6.369  2.6663  0.5858  0.8228
   90SAPE   C23 8759   6.436   2.607   6.443  0.2551 -0.0975  0.3636
   90SAPE   H3R 8760   6.532   2.645   6.404  0.5568 -0.5809  0.6239
   90SAPE   H3S 8761   6.347   2.661   6.403 -0.4132  0.6084  2.6520
   90SAPE   C24 8762   6.430   2.466   6.380 -1.4746 -0.3256  0.6607
   90SAPE   H4R 8763   6.506   2.400   6.426 -1.3558 -0.0117  0.9182
   90SAPE   H4S 8764   6.467   2.465   6.275  0.1827  0.2833  1.2168
   90SAPE   C25 8765   6.295   2.407   6.380 -0.5459 -0.3812 -0.0972
   90SAPE   H5R 8766   6.226   2.470   6.438  1.3563  0.2157  1.6474
   90SAPE   C26 8767   6.248   2.291   6.343 -0.4705  0.4646 -0.5555
   90SAPE   H6R 8768   6.141   2.267   6.351 -1.1689  2.4343 -3.0961
   90SAPE   C27 8769   6.327   2.190   6.263  0.3454  0.6116  0.3114
   90SAPE   H7R 8770   6.426   2.175   6.311  0.4072  4.5098  1.7701
   90SAPE   H7S 8771   6.353   2.235   6.165  3.0688 -0.9227  0.2581
   90SAPE   C28 8772   6.247   2.064   6.252  0.4911  0.4661 -0.1812
   90SAPE   H8R 8773   6.206   2.034   6.349  1.1506  0.3863  0.0820
   90SAPE   C29 8774   6.224   1.988   6.140  0.2067  0.6367  0.0089
   90SAPE   H9R 8775   6.175   1.890   6.150  0.3947  0.6302  1.0633
   90SAPE  C210 8776   6.274   2.019   6.003 -0.4466  0.1089  0.3609
   90SAPE  H10R 8777   6.356   2.093   5.992 -1.2511  0.7463 -2.1453
   90SAPE  H10S 8778   6.198   2.082   5.953  1.6988  3.1602  0.7176
   90SAPE  C211 8779   6.313   1.891   5.928  0.0937 -0.4497  0.5314
   90SAPE  H11R 8780   6.329   1.796   5.982  1.2868 -0.2452  0.5558
   90SAPE  C212 8781   6.350   1.895   5.801 -0.2194 -0.4728  0.5365
   90SAPE  H12R 8782   6.395   1.806   5.753 -0.6045  0.8125 -2.4284
   90SAPE  C213 8783   6.360   2.011   5.707  0.2174  0.4870 -0.4261
   90SAPE  H13R 8784   6.468   2.022   5.685  0.3687 -0.7684 -0.4330
   90SAPE  H13S 8785   6.328   2.107   5.751 -2.2522  1.1169 -3.2306
   90SAPE  C214 8786   6.274   1.995   5.582  0.3426 -0.5175 -0.4985
   90SAPE  H14R 8787   6.172   2.035   5.586  0.4366 -0.3389  0.4970
   90SAPE  C215 8788   6.309   1.921   5.474  0.5488  0.4444 -0.1180
   90SAPE  H15R 8789   6.236   1.916   5.392  0.3133 -1.2262  0.1670
   90SAPE  C216 8790   6.441   1.848   5.460  0.1642 -0.2510 -0.0677
   90SAPE  H16R 8791   6.478   1.807   5.556  0.9902  0.7111  0.0311
   90SAPE  H16S 8792   6.524   1.913   5.426 -1.1895  0.9140 -1.3229
   90SAPE  C217 8793   6.426   1.733   5.364  0.3201 -0.0242 -0.4431
   90SAPE  H17R 8794   6.330   1.678   5.377  1.0558 -1.6310 -1.5040
   90SAPE  H17S 8795   6.504   1.655   5.378 -1.2819 -1.6267 -0.0821
   90SAPE  C218 8796   6.439   1.777   5.213  0.4142  0.5711  0.3693
   90SAPE  H18R 8797   6.544   1.811   5.204  1.6367 -2.8158  0.2306
   90SAPE  H18S 8798   6.359   1.849   5.186 -1.6262 -1.6080  0.3164
   90SAPE  C219 8799   6.406   1.656   5.121 -0.3052  0.6237  0.0745
   90SAPE  H19R 8800   6.308   1.613   5.151 -0.8323  1.6609 -0.0940
   90SAPE  H19S 8801   6.477   1.572   5.137  0.3176  0.7435 -1.8376
   90SAPE  C220 8802   6.415   1.688   4.968 -0.4824 -0.2065 -0.0821
   90SAPE  H20R 8803   6.327   1.750   4.939 -0.0637 -0.1908 -1.3645
   90SAPE  H20S 8804   6.413   1.585   4.927  3.6219 -0.2655 -0.5771
   90SAPE  H20T 8805   6.507   1.742   4.937 -0.4932 -0.1271  0.0237
   90SAPE   C33 8806   6.048   2.665   6.225 -0.5458  0.4278 -0.4315
   90SAPE   H3X 8807   6.154   2.664   6.260 -0.4260 -0.6059 -0.7695
   90SAPE   H3Y 8808   6.001   2.764   6.209 -0.7701  0.4290  0.2269
   90SAPE   C34 8809   6.026   2.589   6.088 -0.4939 -0.6974  0.2167
   90SAPE   H4X 8810   5.944   2.515   6.088  0.1443 -1.4217 -0.8719
   90SAPE   H4Y 8811   6.125   2.543   6.067 -0.1010  0.7199 -1.2924
   90SAPE   C35 8812   6.002   2.683   5.972  0.1306 -0.1328 -0.5024
   90SAPE   H5X 8813   6.095   2.744   5.968  1.8086 -2.5859 -1.3659
   90SAPE   H5Y 8814   5.917   2.748   6.000  2.5397  2.6552  0.8709
   90SAPE   C36 8815   5.979   2.610   5.837 -0.5257  0.2155 -0.2499
   90SAPE   H6X 8816   5.957   2.683   5.757  0.4376  1.3931  0.5080
   90SAPE   H6Y 8817   5.883   2.555   5.840 -0.2675 -0.4109 -2.1321
   90SAPE   C37 8818   6.090   2.520   5.794  0.2965  0.0355 -0.2213
   90SAPE   H7X 8819   6.093   2.430   5.860  2.4440  0.5101  0.4039
   90SAPE   H7Y 8820   6.186   2.575   5.805  0.3677 -0.0108 -0.5990
   90SAPE   C38 8821   6.077   2.465   5.655  0.2037 -0.7723  0.3083
   90SAPE   H8X 8822   6.055   2.544   5.580  2.4571 -0.1120  0.2699
   90SAPE   H8Y 8823   5.987   2.400   5.649 -1.6190  1.6927 -0.5875
   90SAPE   C39 8824   6.201   2.383   5.612 -0.0947  0.1902 -0.3246
   90SAPE   H9X 8825   6.188   2.283   5.658 -0.8345  0.3534 -0.1624
   90SAPE   H9Y 8826   6.292   2.438   5.644  0.5188  1.1233 -3.3228
   90SAPE  C310 8827   6.202   2.364   5.464 -0.2666  0.0576  0.3434
   90SAPE  H10X 8828   6.288   2.311   5.419 -0.5006  1.4075 -1.8383
   90SAPE  H10Y 8829   6.213   2.464   5.417  1.5457  0.4445  1.5066
   90SAPE  C311 8830   6.082   2.288   5.401 -0.5871  0.4164  0.3102
   90SAPE  H11X 8831   5.988   2.326   5.447  0.1403  0.7947  1.5508
   90SAPE  H11Y 8832   6.092   2.184   5.440  1.8932  0.5489  0.1617
   90SAPE  C312 8833   6.071   2.304   5.248 -0.0931 -0.0919 -0.4184
   90SAPE  H12X 8834   6.132   2.390   5.211  1.3667 -1.1422 -0.5448
   90SAPE  H12Y 8835   5.964   2.325   5.225 -0.1274  0.0440 -0.1304
   90SAPE  C313 8836   6.105   2.173   5.172  0.5695 -0.1358  0.4710
   90SAPE  H13X 8837   6.079   2.075   5.217 -1.6401 -0.0490 -0.4792
   90SAPE  H13Y 8838   6.215   2.167   5.154  0.0586 -2.5415 -2.5878
   90SAPE  C314 8839   6.041   2.172   5.035  0.4682 -0.4049 -0.1636
   90SAPE  H14X 8840   6.104   2.121   4.959 -2.1448 -0.9792 -2.1050
   90SAPE  H14Y 8841   6.028   2.275   4.997  0.5920 -0.5966 -0.7386
   90SAPE  C315 8842   5.898   2.109   5.051  0.3504 -0.2037  0.1000
   90SAPE  H15X 8843   5.858   2.163   5.140 -2.7164 -0.1845 -1.1748
   90SAPE  H15Y 8844   5.896   2.000   5.070 -1.7461 -0.2256 -0.0432
   90SAPE  C316 8845   5.812   2.154   4.936 -0.1822 -0.1058 -0.3018
   90SAPE  H16X 8846   5.870   2.120   4.847  1.7318 -1.0616  1.2153
   90SAPE  H16Y 8847   5.784   2.261   4.944  2.4521  0.5756  1.3589
   90SAPE  C317 8848   5.669   2.089   4.942 -0.3278 -0.2413  0.0667
   90SAPE  H17X 8849   5.683   1.995   5.000 -1.1841  0.9380  2.3239
   90SAPE  H17Y 8850   5.639   2.068   4.837 -1.3831  0.6635  0.1722
   90SAPE  C318 8851   5.562   2.165   5.024  0.3058  0.3860  0.1333
   90SAPE  H18X 8852   5.544   2.266   4.980  0.6179  0.1908 -0.4598
   90SAPE  H18Y 8853   5.596   2.174   5.129  1.0167  1.5835 -0.1699
   90SAPE  H18Z 8854   5.462   2.116   5.022 -0.3103  1.5957  0.1617
   91SAPE     N 8855   3.158   5.341   7.233  0.4301  0.0268  0.3402
   91SAPE   HN1 8856   3.122   5.414   7.297 -0.4336 -1.1028  1.1858
   91SAPE   HN2 8857   3.085   5.266   7.239 -1.9160  2.2525  1.3375
   91SAPE   HN3 8858   3.251   5.323   7.277  0.2442  0.8428  1.0769
   91SAPE   C12 8859   3.162   5.399   7.094  0.3586  0.0417  0.0042
   91SAPE  H12A 8860   3.150   5.315   7.022  0.8780  0.0325 -0.0743
   91SAPE  H12B 8861   3.266   5.437   7.086  0.2546  0.7809  1.7328
   91SAPE   C11 8862   3.052   5.504   7.072 -0.1797 -0.7003  0.6794
   91SAPE  H11A 8863   2.958   5.450   7.047  0.1468 -1.2269  0.5858
   91SAPE  H11B 8864   3.080   5.555   6.976  0.8613 -2.7330 -0.1518
   91SAPE     P 8865   3.075   5.747   7.169  0.1475  0.2043  0.0844
   91SAPE   O13 8866   2.960   5.822   7.119  0.2838 -0.2017  0.7373
   91SAPE   O14 8867   3.135   5.807   7.287 -0.0569  1.1270 -0.5630
   91SAPE   O12 8868   3.034   5.596   7.183  0.2165 -0.2326  0.4031
   91SAPE   O11 8869   3.178   5.736   7.050  0.6966  1.0544 -0.1290
   91SAPE    C1 8870   3.148   5.807   6.930 -0.7211 -0.0368  0.8182
   91SAPE    HA 8871   3.054   5.774   6.883  1.0586 -1.4071 -2.0412
   91SAPE    HB 8872   3.162   5.917   6.934 -1.2959  0.2790 -2.9398
   91SAPE    C2 8873   3.246   5.750   6.819 -0.7512 -0.2389 -0.0375
   91SAPE    HS 8874   3.249   5.830   6.742 -0.4508 -2.1453 -2.0966
   91SAPE   O21 8875   3.212   5.624   6.761  0.0121  0.1126  0.1801
   91SAPE   C21 8876   3.162   5.629   6.636 -0.1139  0.7800 -0.4540
   91SAPE   O22 8877   3.152   5.727   6.568 -0.3723  0.2304 -0.7775
   91SAPE   C22 8878   3.128   5.482   6.602 -0.1067 -0.2705  0.0195
   91SAPE   H2R 8879   3.151   5.412   6.685  0.1080 -0.3055 -0.0676
   91SAPE   H2S 8880   3.018   5.478   6.591 -0.1274  0.7013 -0.1766
   91SAPE    C3 8881   3.389   5.745   6.879  0.0537 -0.2389 -0.5857
   91SAPE    HX 8882   3.401   5.651   6.937  2.0224 -0.4061 -1.1950
   91SAPE    HY 8883   3.403   5.833   6.945 -2.2637 -1.5612  1.8890
   91SAPE   O31 8884   3.498   5.744   6.782  0.7909 -0.2806  0.3428
   91SAPE   C31 8885   3.616   5.700   6.822  0.0473  0.5874 -0.9299
   91SAPE   O32 8886   3.645   5.645   6.930  0.7255  0.2044  0.5423
   91SAPE   C32 8887   3.713   5.749   6.713  0.3146 -0.1054 -1.2113
   91SAPE   H2X 8888   3.819   5.761   6.746 -0.9983  3.4118  2.4069
   91SAPE   H2Y 8889   3.677   5.852   6.694 -1.7769 -0.0064  2.4611
   91SAPE   C23 8890   3.184   5.433   6.468 -0.9205 -0.0602  0.3623
   91SAPE   H3R 8891   3.165   5.326   6.446 -1.6686  0.3818 -1.2826
   91SAPE   H3S 8892   3.295   5.436   6.469 -0.8792 -1.1579 -0.3164
   91SAPE   C24 8893   3.121   5.508   6.351 -0.3214  0.4632 -0.0787
   91SAPE   H4R 8894   3.167   5.471   6.257 -1.1122  1.8714 -1.0569
   91SAPE   H4S 8895   3.166   5.610   6.346  0.4845  0.2228  1.4728
   91SAPE   C25 8896   2.973   5.513   6.346 -0.4088 -0.0802  0.3860
   91SAPE   H5R 8897   2.915   5.533   6.437 -2.3560  0.4751 -0.9148
   91SAPE   C26 8898   2.897   5.470   6.243  0.0952 -0.4693  0.2921
   91SAPE   H6R 8899   2.790   5.494   6.233 -0.2940 -2.9078 -2.4193
   91SAPE   C27 8900   2.953   5.429   6.111 -0.0974 -0.3475  0.4466
   91SAPE   H7R 8901   3.052   5.474   6.089 -0.6179  0.9821  0.6688
   91SAPE   H7S 8902   2.872   5.457   6.040 -0.3189 -0.2010  0.7521
   91SAPE   C28 8903   2.965   5.282   6.106  0.4885  0.0346 -0.4028
   91SAPE   H8R 8904   2.965   5.229   6.202  2.3194  2.3376  0.9634
   91SAPE   C29 8905   2.972   5.218   5.987  0.6411  0.1552  0.8648
   91SAPE   H9R 8906   2.968   5.109   5.980 -0.6599  0.1278  1.6272
   91SAPE  C210 8907   2.964   5.294   5.856  0.3221 -0.2969 -0.6267
   91SAPE  H10R 8908   3.004   5.397   5.868 -1.2980  0.1372  1.8345
   91SAPE  H10S 8909   2.855   5.311   5.840  0.3022  0.6056  0.3554
   91SAPE  C211 8910   3.012   5.216   5.746  0.1815 -0.1453  0.8039
   91SAPE  H11R 8911   3.043   5.111   5.747 -0.0841 -0.2797 -1.1767
   91SAPE  C212 8912   3.016   5.273   5.621  0.2386 -0.4906 -0.4210
   91SAPE  H12R 8913   3.047   5.208   5.537 -0.3125 -0.6585 -0.4999
   91SAPE  C213 8914   2.954   5.411   5.599 -0.4981 -0.4448 -0.6610
   91SAPE  H13R 8915   2.991   5.480   5.678 -1.2040 -0.8038 -0.0095
   91SAPE  H13S 8916   2.843   5.412   5.606 -0.6550  0.9633 -2.5199
   91SAPE  C214 8917   2.982   5.458   5.463  0.8589 -0.0693 -0.2582
   91SAPE  H14R 8918   3.057   5.538   5.458  0.0936  0.6608 -0.1710
   91SAPE  C215 8919   2.912   5.416   5.354 -0.3474  0.0600 -0.4375
   91SAPE  H15R 8920   2.932   5.465   5.258  1.4169 -1.5772 -0.9759
   91SAPE  C216 8921   2.800   5.312   5.337 -0.2926 -0.3649  0.3615
   91SAPE  H16R 8922   2.769   5.284   5.440  0.2285 -0.2811  0.5460
   91SAPE  H16S 8923   2.839   5.222   5.283 -2.1693  0.1992 -2.0995
   91SAPE  C217 8924   2.681   5.375   5.263  0.1673  1.2040 -0.2437
   91SAPE  H17R 8925   2.640   5.466   5.312  1.1474  1.5426 -0.0233
   91SAPE  H17S 8926   2.599   5.301   5.256  0.2226  1.2338 -1.3797
   91SAPE  C218 8927   2.709   5.413   5.120  0.0292 -0.2705  0.6278
   91SAPE  H18R 8928   2.767   5.330   5.074  1.6405  1.0573  0.1357
   91SAPE  H18S 8929   2.779   5.499   5.109  0.4912 -0.8995 -2.0384
   91SAPE  C219 8930   2.585   5.430   5.031 -0.5553 -0.3253 -0.2340
   91SAPE  H19R 8931   2.531   5.515   5.077  1.4993 -0.7740  3.4559
   91SAPE  H19S 8932   2.539   5.330   5.046  0.0193 -0.1711  3.7441
   91SAPE  C220 8933   2.609   5.466   4.883  0.1296  0.4338  0.1525
   91SAPE  H20R 8934   2.657   5.381   4.830 -0.5715  0.8302 -1.1774
   91SAPE  H20S 8935   2.676   5.554   4.871  1.3833 -0.4727  0.3911
   91SAPE  H20T 8936   2.511   5.469   4.830  0.8542 -0.0195 -1.2477
   91SAPE   C33 8937   3.718   5.663   6.581 -0.4060  0.5629  0.1519
   91SAPE   H3X 8938   3.617   5.671   6.537  0.4699  2.0069 -1.7188
   91SAPE   H3Y 8939   3.744   5.557   6.599  1.1411  0.8655 -0.1632
   91SAPE   C34 8940   3.806   5.725   6.476 -0.3770  0.3572  0.8622
   91SAPE   H4X 8941   3.914   5.709   6.498 -0.3515 -3.3047 -1.1530
   91SAPE   H4Y 8942   3.811   5.835   6.467  3.4412  0.5763  3.2487
   91SAPE   C35 8943   3.774   5.663   6.340  0.8779 -0.4670  0.4431
   91SAPE   H5X 8944   3.673   5.701   6.313  1.4398  1.6238  1.0676
   91SAPE   H5Y 8945   3.766   5.554   6.360  1.2218 -0.1812  2.2767
   91SAPE   C36 8946   3.861   5.691   6.221 -0.3789 -0.4192  0.1302
   91SAPE   H6X 8947   3.963   5.650   6.237  0.4982  1.3673 -0.4933
   91SAPE   H6Y 8948   3.890   5.799   6.219  2.5044 -1.0968  0.7632
   91SAPE   C37 8949   3.801   5.652   6.086 -0.5192  0.1402 -1.2136
   91SAPE   H7X 8950   3.715   5.716   6.058 -1.4793 -0.5738  0.0173
   91SAPE   H7Y 8951   3.767   5.547   6.075  0.5725 -0.2777 -0.7959
   91SAPE   C38 8952   3.909   5.688   5.984 -0.7426  0.2512  0.3551
   91SAPE   H8X 8953   3.996   5.620   5.991 -0.4450  0.5938  0.0342
   91SAPE   H8Y 8954   3.933   5.792   6.017 -0.2298  0.1393  0.3466
   91SAPE   C39 8955   3.856   5.683   5.836 -0.0369  0.0242 -0.6381
   91SAPE   H9X 8956   3.778   5.762   5.828  0.1742  0.7463  3.0235
   91SAPE   H9Y 8957   3.808   5.585   5.818  0.1036 -0.3025  0.7093
   91SAPE  C310 8958   3.973   5.726   5.748 -0.7205 -0.5466  0.6544
   91SAPE  H10X 8959   4.073   5.691   5.784 -0.0152 -0.4122 -1.0971
   91SAPE  H10Y 8960   3.973   5.837   5.753 -2.3232 -0.5780  2.8502
   91SAPE  C311 8961   3.968   5.691   5.599 -0.0336  0.5706 -0.5135
   91SAPE  H11X 8962   3.895   5.757   5.547  0.2200  0.3331 -1.1846
   91SAPE  H11Y 8963   3.956   5.581   5.590  1.0005  0.2767  1.3587
   91SAPE  C312 8964   4.093   5.726   5.522 -0.5564  0.4902 -0.4832
   91SAPE  H12X 8965   4.178   5.670   5.567 -0.6124  0.7310 -0.0785
   91SAPE  H12Y 8966   4.122   5.833   5.528 -0.4232  0.3924  0.9225
   91SAPE  C313 8967   4.088   5.685   5.373  0.1348 -0.3295  0.4802
   91SAPE  H13X 8968   4.040   5.585   5.364 -0.9332  0.3360 -1.7717
   91SAPE  H13Y 8969   4.193   5.667   5.340 -0.6914 -1.6333 -1.6390
   91SAPE  C314 8970   4.022   5.783   5.282  0.6299 -0.6716 -0.0075
   91SAPE  H14X 8971   4.064   5.882   5.310 -0.3706 -0.9805  2.9229
   91SAPE  H14Y 8972   3.917   5.774   5.316  0.7468 -0.3052  0.4579
   91SAPE  C315 8973   4.032   5.752   5.136 -0.3534  0.7386  0.2936
   91SAPE  H15X 8974   4.015   5.642   5.132 -1.1531  0.8069  1.4416
   91SAPE  H15Y 8975   4.135   5.773   5.099  0.4737 -1.9543  0.8440
   91SAPE  C316 8976   3.933   5.833   5.044  0.3379 -0.8193 -0.0095
   91SAPE  H16X 8977   3.968   5.938   5.044 -1.2089 -0.2664 -1.1058
   91SAPE  H16Y 8978   3.831   5.859   5.078  0.2548 -1.5778  0.3635
   91SAPE  C317 8979   3.927   5.801   4.896 -0.0355  0.8091 -0.4322
   91SAPE  H17X 8980   3.889   5.697   4.889 -0.5691  0.9412  0.4006
   91SAPE  H17Y 8981   4.028   5.798   4.848  0.1973 -2.0395  0.1059
   91SAPE  C318 8982   3.829   5.876   4.805 -0.2911 -0.2163  0.5594
   91SAPE  H18X 8983   3.844   5.985   4.818  0.0227 -0.2748  0.7134
   91SAPE  H18Y 8984   3.727   5.837   4.822  0.2131 -1.5390  0.7135
   91SAPE  H18Z 8985   3.859   5.852   4.700  0.7430 -2.5327  1.3102
   92SAPE     N 8986   4.868   6.025   7.262  0.4308  0.3003  0.0039
   92SAPE   HN1 8987   4.786   5.970   7.295 -0.1383  0.5632 -0.9467
   92SAPE   HN2 8988   4.934   6.022   7.342  1.1880  0.0750 -0.6231
   92SAPE   HN3 8989   4.822   6.116   7.243  1.5493  0.8512 -0.1223
   92SAPE   C12 8990   4.918   5.963   7.135 -0.4253  0.2048 -0.3824
   92SAPE  H12A 8991   4.955   5.862   7.159  1.2477  0.5741 -1.2623
   92SAPE  H12B 8992   5.008   6.021   7.104 -0.5302  0.0006 -1.0807
   92SAPE   C11 8993   4.834   5.963   7.014 -0.3596 -0.3813  0.5979
   92SAPE  H11A 8994   4.887   5.928   6.923 -0.9037  1.4384 -0.4775
   92SAPE  H11B 8995   4.803   6.062   6.974 -1.4490 -1.6650 -1.9532
   92SAPE     P 8996   4.709   5.741   6.993  0.2568 -0.4500 -0.5085
   92SAPE   O13 8997   4.846   5.683   7.008  0.7023 -0.0921 -0.8266
   92SAPE   O14 8998   4.595   5.680   7.071  0.0916 -0.0606 -0.1482
   92SAPE   O12 8999   4.717   5.886   7.037  0.1917 -0.5708 -0.2455
   92SAPE   O11 9000   4.670   5.762   6.840  0.1730  0.0404 -0.7954
   92SAPE    C1 9001   4.693   5.658   6.748  0.2552 -0.0584  0.4514
   92SAPE    HA 9002   4.781   5.592   6.765  0.4291 -0.6842 -2.3227
   92SAPE    HB 9003   4.607   5.589   6.740  0.4891 -0.3366  0.2956
   92SAPE    C2 9004   4.721   5.704   6.603 -0.0681  0.0268  0.4992
   92SAPE    HS 9005   4.830   5.725   6.590  0.1341  0.7573  2.9532
   92SAPE   O21 9006   4.645   5.817   6.556 -0.2479 -0.5189  0.3305
   92SAPE   C21 9007   4.702   5.930   6.596 -0.1005 -0.5860  0.1565
   92SAPE   O22 9008   4.815   5.953   6.640  0.5034 -0.1354 -0.5882
   92SAPE   C22 9009   4.595   6.044   6.579 -0.1384 -0.4847 -0.9312
   92SAPE   H2R 9010   4.522   6.023   6.660 -0.4739 -0.6029 -1.2568
   92SAPE   H2S 9011   4.644   6.141   6.600 -0.2523 -0.6029 -0.1008
   92SAPE    C3 9012   4.708   5.580   6.509 -0.0448  0.0496  0.3333
   92SAPE    HX 9013   4.608   5.541   6.536 -0.2445  1.3337  1.5084
   92SAPE    HY 9014   4.786   5.503   6.530 -0.5968 -0.3812  0.8440
   92SAPE   O31 9015   4.702   5.624   6.372 -0.4452 -0.1991 -0.3291
   92SAPE   C31 9016   4.814   5.674   6.313  0.4746 -0.2919  0.6667
   92SAPE   O32 9017   4.919   5.689   6.369  0.1604  0.2445  0.1965
   92SAPE   C32 9018   4.781   5.701   6.162 -0.4738  0.5097 -0.1516
   92SAPE   H2X 9019   4.672   5.721   6.146 -0.8440 -1.2319  0.0343
   92SAPE   H2Y 9020   4.804   5.605   6.112 -1.9598  0.2500 -0.4045
   92SAPE   C23 9021   4.525   6.052   6.442  0.1214  0.0969 -0.2371
   92SAPE   H3R 9022   4.441   6.123   6.457  0.0149 -0.2587  0.9497
   92SAPE   H3S 9023   4.478   5.954   6.416  1.7554 -1.6777  2.9055
   92SAPE   C24 9024   4.609   6.089   6.321 -1.0058 -0.4097 -0.9586
   92SAPE   H4R 9025   4.545   6.073   6.232 -0.2442 -1.7742 -1.3041
   92SAPE   H4S 9026   4.695   6.018   6.315 -0.2860  0.3875 -0.2844
   92SAPE   C25 9027   4.665   6.233   6.337 -0.1244  0.9017  1.0953
   92SAPE   H5R 9028   4.714   6.261   6.431  1.3176  0.1132  0.6093
   92SAPE   C26 9029   4.638   6.326   6.247  0.0679 -0.6228  0.4797
   92SAPE   H6R 9030   4.672   6.428   6.271  0.1451  0.0819 -2.3098
   92SAPE   C27 9031   4.561   6.314   6.122 -0.6295  0.0419  0.3738
   92SAPE   H7R 9032   4.471   6.249   6.125 -0.7675  0.2069 -0.0144
   92SAPE   H7S 9033   4.622   6.254   6.051  0.4626  1.8906 -0.3348
   92SAPE   C28 9034   4.524   6.450   6.069 -0.2936  0.7080 -0.1893
   92SAPE   H8R 9035   4.460   6.507   6.137  0.9737  0.8209  0.9379
   92SAPE   C29 9036   4.565   6.507   5.959 -0.8621 -0.4617 -0.0865
   92SAPE   H9R 9037   4.524   6.608   5.943 -0.2444 -0.1342  0.3473
   92SAPE  C210 9038   4.664   6.454   5.857 -0.2446 -0.2027  0.1046
   92SAPE  H10R 9039   4.754   6.426   5.915 -1.2216  2.0909  3.0039
   92SAPE  H10S 9040   4.697   6.534   5.787 -2.0393  1.1821  0.7269
   92SAPE  C211 9041   4.597   6.340   5.788 -0.1765 -1.3104 -0.2019
   92SAPE  H11R 9042   4.538   6.277   5.855 -2.2617 -0.2050 -0.9094
   92SAPE  C212 9043   4.568   6.336   5.650 -0.5222  0.3027 -0.2666
   92SAPE  H12R 9044   4.509   6.249   5.618 -1.2598  0.9474 -0.6966
   92SAPE  C213 9045   4.604   6.439   5.540  0.2393  0.2545 -0.8806
   92SAPE  H13R 9046   4.586   6.382   5.446 -0.2408 -2.9144  0.9928
   92SAPE  H13S 9047   4.713   6.464   5.543  0.9315 -2.5412 -0.3028
   92SAPE  C214 9048   4.528   6.572   5.542  0.0903  0.6307 -0.2200
   92SAPE  H14R 9049   4.474   6.585   5.637 -1.4556 -0.1822 -0.9454
   92SAPE  C215 9050   4.507   6.648   5.433  0.2914 -0.5616  0.5205
   92SAPE  H15R 9051   4.438   6.734   5.436 -0.4708 -1.1845  2.3311
   92SAPE  C216 9052   4.568   6.615   5.300  0.4223  0.7937 -0.2356
   92SAPE  H16R 9053   4.501   6.561   5.229 -0.1402  0.5819  0.4465
   92SAPE  H16S 9054   4.649   6.540   5.303  2.1601  2.4400 -2.4474
   92SAPE  C217 9055   4.638   6.732   5.218 -0.7787  0.3807 -0.4154
   92SAPE  H17R 9056   4.723   6.674   5.175 -0.2288 -0.3818  1.5761
   92SAPE  H17S 9057   4.678   6.791   5.303  0.6217  2.1461 -2.2057
   92SAPE  C218 9058   4.539   6.820   5.142 -0.1029  0.2004  0.5214
   92SAPE  H18R 9059   4.461   6.859   5.211 -2.9623 -1.3718 -1.6064
   92SAPE  H18S 9060   4.484   6.752   5.074 -2.2522  0.0168  2.3355
   92SAPE  C219 9061   4.603   6.937   5.064  0.7186  0.4382  0.3624
   92SAPE  H19R 9062   4.524   6.993   5.011 -0.8181 -0.3375  1.7403
   92SAPE  H19S 9063   4.671   6.891   4.988  1.2876 -0.5140  1.4093
   92SAPE  C220 9064   4.693   7.020   5.159  0.8440 -0.2256 -0.6937
   92SAPE  H20R 9065   4.744   7.096   5.096 -0.4046 -0.0134 -1.4723
   92SAPE  H20S 9066   4.777   6.962   5.202  0.1501 -0.7167  0.0201
   92SAPE  H20T 9067   4.635   7.067   5.241  0.5594 -1.4404 -0.1756
   92SAPE   C33 9068   4.870   5.809   6.097  0.3937  0.2304  1.0024
   92SAPE   H3X 9069   4.975   5.773   6.090  0.3515  0.4210 -2.9832
   92SAPE   H3Y 9070   4.874   5.902   6.157  0.2648  0.4979  0.5980
   92SAPE   C34 9071   4.811   5.824   5.955  0.1482  0.0165 -0.0434
   92SAPE   H4X 9072   4.711   5.871   5.959  1.0305  2.0240 -0.5775
   92SAPE   H4Y 9073   4.798   5.725   5.906  3.6975 -1.5026  1.6463
   92SAPE   C35 9074   4.896   5.911   5.861 -0.2190  0.5424 -0.1605
   92SAPE   H5X 9075   4.991   5.857   5.839 -1.1316 -0.4486 -1.9353
   92SAPE   H5Y 9076   4.913   6.000   5.925  0.2262  0.2075  0.1897
   92SAPE   C36 9077   4.826   5.959   5.735  0.3490 -0.0985 -0.2039
   92SAPE   H6X 9078   4.726   5.999   5.762 -0.3638 -1.7978 -0.2544
   92SAPE   H6Y 9079   4.795   5.884   5.660  3.5540 -2.2199  0.3896
   92SAPE   C37 9080   4.885   6.076   5.656 -0.4761  0.2905 -0.1855
   92SAPE   H7X 9081   4.995   6.059   5.663 -0.7910 -1.2731  2.1283
   92SAPE   H7Y 9082   4.878   6.171   5.713  0.0951 -1.0732  2.3361
   92SAPE   C38 9083   4.833   6.081   5.514  0.3128 -0.2856 -1.0470
   92SAPE   H8X 9084   4.724   6.102   5.523 -0.1768 -2.7012 -0.7933
   92SAPE   H8Y 9085   4.847   5.996   5.445  1.2699  0.3436 -1.6564
   92SAPE   C39 9086   4.894   6.201   5.444 -0.3022 -0.3674  0.5172
   92SAPE   H9X 9087   5.005   6.188   5.442 -0.1399  0.9865  0.0296
   92SAPE   H9Y 9088   4.868   6.295   5.497 -0.7974  0.7987 -1.6691
   92SAPE  C310 9089   4.828   6.224   5.307 -0.2452 -0.1786  0.0140
   92SAPE  H10X 9090   4.720   6.210   5.331 -0.6277 -0.6483 -1.7977
   92SAPE  H10Y 9091   4.839   6.145   5.230 -0.1664  1.3280 -1.5884
   92SAPE  C311 9092   4.852   6.377   5.260  0.4054 -1.0333 -0.2477
   92SAPE  H11X 9093   4.836   6.453   5.339 -0.4859  2.8400 -3.8162
   92SAPE  H11Y 9094   4.771   6.408   5.192  0.6553 -0.9704 -0.5187
   92SAPE  C312 9095   4.985   6.400   5.203 -0.1636 -0.1566  0.7580
   92SAPE  H12X 9096   4.987   6.331   5.116 -0.5428  1.9375 -1.0013
   92SAPE  H12Y 9097   5.071   6.372   5.269 -0.2533 -1.7617  0.2320
   92SAPE  C313 9098   4.998   6.545   5.149  0.5920  0.4610 -0.0029
   92SAPE  H13X 9099   5.061   6.608   5.215  1.1776 -0.4142  0.2838
   92SAPE  H13Y 9100   4.896   6.588   5.143  0.2209 -0.4013 -0.0932
   92SAPE  C314 9101   5.058   6.562   5.007  0.2050 -0.5809 -0.3108
   92SAPE  H14X 9102   5.144   6.493   5.011  0.6168 -0.0343  2.2038
   92SAPE  H14Y 9103   5.090   6.668   5.007  0.7394 -0.7393 -0.4959
   92SAPE  C315 9104   4.958   6.535   4.892  0.3705 -0.0066 -0.3727
   92SAPE  H15X 9105   4.925   6.429   4.890  1.3153 -0.3416 -3.2415
   92SAPE  H15Y 9106   5.020   6.548   4.801  0.0731  1.4407 -0.3907
   92SAPE  C316 9107   4.847   6.637   4.876 -0.2980 -0.2471 -0.1201
   92SAPE  H16X 9108   4.878   6.743   4.870 -2.2485  0.3191 -1.0786
   92SAPE  H16Y 9109   4.790   6.639   4.971  1.8545  1.2216  1.2230
   92SAPE  C317 9110   4.766   6.610   4.753 -0.4961 -0.4853 -0.3187
   92SAPE  H17X 9111   4.722   6.509   4.768 -1.2593 -0.0015  0.8315
   92SAPE  H17Y 9112   4.831   6.607   4.663 -0.5059 -1.0029 -0.3116
   92SAPE  C318 9113   4.647   6.701   4.731  0.2555 -0.6796  0.2887
   92SAPE  H18X 9114   4.566   6.690   4.806 -1.1650  1.4211 -0.8442
   92SAPE  H18Y 9115   4.609   6.663   4.634 -0.2088 -0.5917  0.4369
   92SAPE  H18Z 9116   4.683   6.807   4.729  0.5889 -0.7784  0.8616
   93SAPE     N 9117   0.734   3.862   7.524 -0.0149  0.1134 -0.4137
   93SAPE   HN1 9118   0.771   3.953   7.489 -0.7584  0.4711 -0.3104
   93SAPE   HN2 9119   0.782   3.835   7.611 -0.3370  1.7612  0.3084
   93SAPE   HN3 9120   0.727   3.781   7.459 -0.4974 -0.7144  0.6403
   93SAPE   C12 9121   0.591   3.892   7.558 -0.8147 -0.6051  0.1696
   93SAPE  H12A 9122   0.532   3.910   7.466 -1.4116  1.0510  0.8465
   93SAPE  H12B 9123   0.604   3.988   7.612 -0.8248 -0.5005 -0.0141
   93SAPE   C11 9124   0.522   3.781   7.635 -0.0097  0.8440 -0.1348
   93SAPE  H11A 9125   0.420   3.812   7.666 -0.7622  0.8890 -2.4892
   93SAPE  H11B 9126   0.574   3.771   7.733 -0.2380  1.3055  0.0350
   93SAPE     P 9127   0.407   3.617   7.474  0.2206  0.1130  0.2711
   93SAPE   O13 9128   0.414   3.471   7.447 -0.2557  0.4391  0.5950
   93SAPE   O14 9129   0.278   3.670   7.527  0.4399 -0.0868 -0.0398
   93SAPE   O12 9130   0.525   3.656   7.576 -0.1552 -0.2800 -0.0654
   93SAPE   O11 9131   0.447   3.691   7.342  0.3868  0.3600  0.1481
   93SAPE    C1 9132   0.396   3.626   7.220  0.0014 -0.2659 -0.1513
   93SAPE    HA 9133   0.448   3.534   7.185 -2.1593 -1.1434 -1.2602
   93SAPE    HB 9134   0.287   3.607   7.229  0.0282 -0.9184 -1.0760
   93SAPE    C2 9135   0.396   3.738   7.110  0.2700  1.1617 -0.4906
   93SAPE    HS 9136   0.351   3.683   7.024 -1.9361  0.6491  0.9255
   93SAPE   O21 9137   0.537   3.774   7.088  0.5293  0.2514 -0.4373
   93SAPE   C21 9138   0.544   3.835   6.973 -0.3966  0.0138 -0.0165
   93SAPE   O22 9139   0.456   3.844   6.886 -0.4409  0.0823 -0.2075
   93SAPE   C22 9140   0.674   3.913   6.962  0.4737 -1.3085 -0.0699
   93SAPE   H2R 9141   0.676   3.984   7.047  0.3770 -0.0163 -1.1096
   93SAPE   H2S 9142   0.762   3.849   6.982  1.1781 -0.6249 -0.9183
   93SAPE    C3 9143   0.311   3.853   7.163  0.0099  0.4059  0.2622
   93SAPE    HX 9144   0.355   3.900   7.254 -2.3920  0.7922  1.3196
   93SAPE    HY 9145   0.218   3.814   7.211 -0.2779 -0.4532 -0.9516
   93SAPE   O31 9146   0.271   3.945   7.071 -0.3324 -0.0952  0.0405
   93SAPE   C31 9147   0.178   3.910   6.978 -0.0144 -0.8913 -0.1351
   93SAPE   O32 9148   0.121   3.805   6.981 -0.2079  0.1413  0.4813
   93SAPE   C32 9149   0.153   4.024   6.881 -0.5372  0.9676  0.0839
   93SAPE   H2X 9150   0.174   4.123   6.929 -1.1702  1.7757 -1.2419
   93SAPE   H2Y 9151   0.050   4.018   6.839  1.4053 -0.6431 -5.1822
   93SAPE   C23 9152   0.683   4.000   6.828  0.1356  0.3316  0.5502
   93SAPE   H3R 9153   0.748   4.086   6.855  1.5553 -1.0741  1.7832
   93SAPE   H3S 9154   0.588   4.036   6.782 -0.6671  0.2302  2.0458
   93SAPE   C24 9155   0.774   3.927   6.725  0.4747 -0.6403 -0.5991
   93SAPE   H4R 9156   0.879   3.943   6.759 -0.1487  1.9780  0.3491
   93SAPE   H4S 9157   0.775   4.009   6.650  1.9865 -0.0221  0.0420
   93SAPE   C25 9158   0.748   3.792   6.656 -0.8686 -0.0629  0.5213
   93SAPE   H5R 9159   0.749   3.712   6.732 -1.5153  0.5169  1.1496
   93SAPE   C26 9160   0.711   3.763   6.531 -0.1947 -0.1630 -0.3478
   93SAPE   H6R 9161   0.720   3.656   6.507  1.1794 -0.3585  0.8929
   93SAPE   C27 9162   0.682   3.858   6.415 -0.7788 -0.8590  0.0720
   93SAPE   H7R 9163   0.746   3.836   6.327 -0.4223 -1.4153  0.4614
   93SAPE   H7S 9164   0.712   3.962   6.442  3.2269 -1.2047 -2.1743
   93SAPE   C28 9165   0.536   3.869   6.382 -0.2694 -0.7997  0.2807
   93SAPE   H8R 9166   0.464   3.877   6.465 -0.0825  0.5263  0.3433
   93SAPE   C29 9167   0.482   3.857   6.253 -1.3497  0.1712  0.1492
   93SAPE   H9R 9168   0.375   3.881   6.243 -0.9376  1.4424 -1.7213
   93SAPE  C210 9169   0.564   3.837   6.125 -0.0811 -0.7144 -0.3929
   93SAPE  H10R 9170   0.648   3.767   6.146  1.0092  0.3859 -0.9548
   93SAPE  H10S 9171   0.614   3.927   6.084 -3.6048  0.7410 -1.8854
   93SAPE  C211 9172   0.467   3.786   6.023  0.3158  0.7902  0.1942
   93SAPE  H11R 9173   0.405   3.701   6.057  2.2647 -1.7178 -2.0726
   93SAPE  C212 9174   0.459   3.827   5.891 -0.8752 -0.5161 -0.2890
   93SAPE  H12R 9175   0.377   3.789   5.827 -1.0133 -1.0312  0.1900
   93SAPE  C213 9176   0.553   3.937   5.841  0.6033  0.3884  0.1381
   93SAPE  H13R 9177   0.570   4.024   5.909  2.5566  0.2754 -0.1471
   93SAPE  H13S 9178   0.507   3.976   5.747  1.7438 -0.2121 -0.7018
   93SAPE  C214 9179   0.690   3.891   5.821 -0.5453  0.4890 -0.2286
   93SAPE  H14R 9180   0.718   3.809   5.890 -3.4367 -0.5114 -0.0819
   93SAPE  C215 9181   0.775   3.921   5.725  0.0960 -0.0447 -0.6822
   93SAPE  H15R 9182   0.875   3.877   5.736 -0.0653 -0.2951 -0.1574
   93SAPE  C216 9183   0.765   4.021   5.620  0.6287  0.6413 -0.3224
   93SAPE  H16R 9184   0.868   4.058   5.598  0.5606 -0.1624 -2.1958
   93SAPE  H16S 9185   0.690   4.099   5.646  1.1164  0.3108  2.2660
   93SAPE  C217 9186   0.718   3.966   5.487  0.1837  0.5133  0.1732
   93SAPE  H17R 9187   0.679   4.051   5.428  2.7978  1.1158 -0.8026
   93SAPE  H17S 9188   0.634   3.893   5.488  0.0084  0.6502 -1.4794
   93SAPE  C218 9189   0.830   3.902   5.405  0.4455 -0.2179 -0.5584
   93SAPE  H18R 9190   0.832   3.792   5.422  0.7103 -0.3302 -1.2665
   93SAPE  H18S 9191   0.927   3.949   5.431 -0.4673  0.5236  1.7271
   93SAPE  C219 9192   0.817   3.925   5.254 -0.0429 -0.8351  0.0335
   93SAPE  H19R 9193   0.796   4.034   5.241 -0.0977 -0.9442 -0.8468
   93SAPE  H19S 9194   0.724   3.872   5.225 -0.9521  1.0140 -0.5985
   93SAPE  C220 9195   0.940   3.897   5.172 -0.5399  0.4252  0.1828
   93SAPE  H20R 9196   0.955   3.788   5.187  1.2731  0.8896  2.3738
   93SAPE  H20S 9197   1.032   3.934   5.222 -1.7837  2.1036  1.3700
   93SAPE  H20T 9198   0.938   3.912   5.062  1.8248 -0.9723 -0.1132
   93SAPE   C33 9199   0.246   4.022   6.751 -0.7173 -0.2649 -0.1415
   93SAPE   H3X 9200   0.248   3.918   6.714 -0.9087 -0.7833  1.2371
   93SAPE   H3Y 9201   0.347   4.061   6.775 -1.5440  1.6317  0.5212
   93SAPE   C34 9202   0.193   4.119   6.648  0.3140 -0.4326  0.0976
   93SAPE   H4X 9203   0.174   4.223   6.683  0.1937 -0.3795 -0.1204
   93SAPE   H4Y 9204   0.091   4.085   6.618 -0.2466 -0.5644  2.0268
   93SAPE   C35 9205   0.274   4.122   6.519  0.3525 -0.2837 -0.3206
   93SAPE   H5X 9206   0.277   4.015   6.487 -0.1220 -0.1981 -0.6494
   93SAPE   H5Y 9207   0.377   4.154   6.545 -0.1037  2.3370 -1.4875
   93SAPE   C36 9208   0.228   4.217   6.402 -0.3624  0.2694 -0.5885
   93SAPE   H6X 9209   0.234   4.321   6.441  0.7258 -0.2441  0.6639
   93SAPE   H6Y 9210   0.125   4.181   6.380  0.1779 -0.3737 -2.2466
   93SAPE   C37 9211   0.311   4.203   6.277 -0.6317  0.4317 -0.0386
   93SAPE   H7X 9212   0.351   4.101   6.263 -0.3527  0.7614 -1.8396
   93SAPE   H7Y 9213   0.402   4.263   6.295 -0.9395  0.6980  0.6808
   93SAPE   C38 9214   0.238   4.250   6.150 -0.8338  0.7247 -0.3774
   93SAPE   H8X 9215   0.225   4.357   6.174  1.6400  0.9028  0.5163
   93SAPE   H8Y 9216   0.142   4.194   6.147  0.9926 -2.7180  0.1185
   93SAPE   C39 9217   0.314   4.243   6.017  0.6629  0.6822 -0.0125
   93SAPE   H9X 9218   0.319   4.134   5.999  0.6100  0.6707  0.0382
   93SAPE   H9Y 9219   0.413   4.294   6.017  0.4819  1.0823 -1.7452
   93SAPE  C310 9220   0.226   4.303   5.911  0.1400  0.6317  0.5346
   93SAPE  H10X 9221   0.231   4.413   5.920 -0.1246  0.5325  2.4304
   93SAPE  H10Y 9222   0.125   4.259   5.923 -0.1809  1.5718  1.4346
   93SAPE  C311 9223   0.279   4.259   5.770  0.2965 -0.1748 -0.0540
   93SAPE  H11X 9224   0.245   4.154   5.757  1.6203 -0.4380 -1.7206
   93SAPE  H11Y 9225   0.388   4.273   5.758  0.1303 -0.2120 -1.8028
   93SAPE  C312 9226   0.217   4.335   5.653  0.1280  0.2506 -0.4073
   93SAPE  H12X 9227   0.233   4.445   5.646 -0.7191  0.3166 -1.7332
   93SAPE  H12Y 9228   0.107   4.328   5.665  0.2652 -1.5340  0.0503
   93SAPE  C313 9229   0.237   4.285   5.508 -0.5834  0.0857  0.3041
   93SAPE  H13X 9230   0.183   4.356   5.441 -0.2649 -0.0628 -0.1138
   93SAPE  H13Y 9231   0.187   4.186   5.499 -1.3967  0.3154  1.9712
   93SAPE  C314 9232   0.383   4.272   5.468  0.3408  0.0075 -0.4362
   93SAPE  H14X 9233   0.427   4.179   5.510 -0.1796  0.1955  0.5576
   93SAPE  H14Y 9234   0.436   4.359   5.512  0.6516  0.4875 -1.7212
   93SAPE  C315 9235   0.387   4.288   5.317  0.1904 -0.0520 -0.1195
   93SAPE  H15X 9236   0.384   4.394   5.284  1.8447 -0.1779 -0.7628
   93SAPE  H15Y 9237   0.290   4.247   5.281 -0.8805 -0.1257  2.6138
   93SAPE  C316 9238   0.512   4.238   5.250 -0.7560  0.4598  0.8727
   93SAPE  H16X 9239   0.502   4.127   5.261  0.9761  0.1367 -0.4021
   93SAPE  H16Y 9240   0.604   4.275   5.299  0.6896 -0.4137 -1.0627
   93SAPE  C317 9241   0.513   4.266   5.101 -0.0048 -0.1367 -0.2199
   93SAPE  H17X 9242   0.419   4.238   5.049  1.7639 -0.7135 -3.3821
   93SAPE  H17Y 9243   0.589   4.203   5.049 -0.7652  0.9328 -2.7856
   93SAPE  C318 9244   0.551   4.406   5.067  0.1564 -0.0989  0.3708
   93SAPE  H18X 9245   0.570   4.420   4.958 -0.6728  2.2681  0.4797
   93SAPE  H18Y 9246   0.639   4.433   5.129  0.2440 -2.6342  1.4958
   93SAPE  H18Z 9247   0.474   4.481   5.093  0.2473 -0.0470  0.4944
   94SAPE     N 9248   6.335   6.595   6.871 -0.8454 -0.0260  0.6568
   94SAPE   HN1 9249   6.436   6.615   6.855 -0.8434  0.0299  0.7398
   94SAPE   HN2 9250   6.297   6.688   6.898 -0.2973  0.1203  0.9435
   94SAPE   HN3 9251   6.323   6.529   6.950 -0.1303 -2.5286 -1.1779
   94SAPE   C12 9252   6.272   6.559   6.749  0.3620  0.1108  0.1570
   94SAPE  H12A 9253   6.343   6.490   6.698  0.5792  0.2330  0.2980
   94SAPE  H12B 9254   6.281   6.653   6.690  0.7617 -0.6530 -1.0463
   94SAPE   C11 9255   6.130   6.508   6.763  0.3464  0.0004 -0.1219
   94SAPE  H11A 9256   6.082   6.489   6.664 -0.1283 -0.4309  0.1878
   94SAPE  H11B 9257   6.066   6.583   6.813  0.1622 -1.3344  1.7279
   94SAPE     P 9258   6.197   6.262   6.805  0.2075 -0.3024  0.2458
   94SAPE   O13 9259   6.327   6.266   6.869 -0.6733 -0.2196  0.5135
   94SAPE   O14 9260   6.118   6.139   6.827 -0.5835  0.5396 -1.2886
   94SAPE   O12 9261   6.119   6.395   6.845  0.8113 -0.1507 -0.1716
   94SAPE   O11 9262   6.222   6.276   6.651  0.4418  0.0899 -0.3477
   94SAPE    C1 9263   6.112   6.246   6.556  0.3953 -0.6227 -0.5419
   94SAPE    HA 9264   6.016   6.270   6.607  0.4209 -0.3577 -0.6129
   94SAPE    HB 9265   6.122   6.314   6.468 -2.8053  1.2340  0.3579
   94SAPE    C2 9266   6.110   6.101   6.491 -0.5741 -0.1432  0.0669
   94SAPE    HS 9267   6.159   6.028   6.560  0.3951  0.0236 -0.4357
   94SAPE   O21 9268   6.203   6.097   6.382 -1.0859 -0.0562  0.6890
   94SAPE   C21 9269   6.213   5.986   6.310  0.2040 -0.2319  0.2333
   94SAPE   O22 9270   6.153   5.879   6.328 -0.1678  0.4849 -0.1129
   94SAPE   C22 9271   6.309   6.018   6.195  0.3193  0.0652 -0.1664
   94SAPE   H2R 9272   6.312   6.127   6.176  0.2955 -0.2920 -2.4473
   94SAPE   H2S 9273   6.412   6.005   6.233 -1.0839 -0.4680  4.0313
   94SAPE    C3 9274   5.963   6.057   6.458  0.5606  0.6357 -0.1277
   94SAPE    HX 9275   5.918   6.037   6.558 -0.2907  0.7539 -0.4778
   94SAPE    HY 9276   5.965   5.964   6.398  1.6519  0.2085  0.5369
   94SAPE   O31 9277   5.890   6.162   6.393  0.9007 -0.3089  0.1194
   94SAPE   C31 9278   5.761   6.168   6.410 -0.0456  1.0395 -0.0309
   94SAPE   O32 9279   5.703   6.087   6.487  0.4423 -0.1300 -0.0838
   94SAPE   C32 9280   5.705   6.276   6.318 -0.1211  0.2895 -0.0776
   94SAPE   H2X 9281   5.773   6.363   6.305  2.3947 -1.8260 -2.1489
   94SAPE   H2Y 9282   5.612   6.303   6.373  0.2289  0.9749  0.1908
   94SAPE   C23 9283   6.276   5.936   6.064  0.0215 -1.1462  0.6170
   94SAPE   H3R 9284   6.287   6.009   5.980 -0.7276 -2.1286 -0.3717
   94SAPE   H3S 9285   6.173   5.895   6.058  0.2016 -1.8859  2.1958
   94SAPE   C24 9286   6.368   5.821   6.024  0.3029  0.0431  0.4659
   94SAPE   H4R 9287   6.330   5.784   5.926 -0.5948 -0.5670  1.0234
   94SAPE   H4S 9288   6.352   5.735   6.093  0.8051 -1.0316 -0.7113
   94SAPE   C25 9289   6.514   5.837   6.002  0.9362 -0.6086 -0.1469
   94SAPE   H5R 9290   6.544   5.927   5.947  2.2426 -0.4143  0.8552
   94SAPE   C26 9291   6.612   5.758   6.042 -0.0962 -0.4625  0.2186
   94SAPE   H6R 9292   6.718   5.778   6.018 -0.8959  0.6578 -2.7753
   94SAPE   C27 9293   6.581   5.635   6.128 -0.1653 -0.3734 -0.4230
   94SAPE   H7R 9294   6.514   5.566   6.072  0.3781  1.3641 -3.4742
   94SAPE   H7S 9295   6.524   5.667   6.218 -0.3758  0.9766 -1.0142
   94SAPE   C28 9296   6.717   5.575   6.174  0.1618 -0.1148  0.0226
   94SAPE   H8R 9297   6.751   5.622   6.268  1.7086 -0.6555 -0.2407
   94SAPE   C29 9298   6.795   5.480   6.118 -0.2266 -0.1800  0.3822
   94SAPE   H9R 9299   6.882   5.445   6.176 -1.0914 -1.3012  1.0408
   94SAPE  C210 9300   6.782   5.402   5.989 -0.0860 -0.0950  0.2168
   94SAPE  H10R 9301   6.690   5.431   5.935 -0.6788 -0.7080  0.8759
   94SAPE  H10S 9302   6.778   5.293   6.010 -0.8624 -0.4017 -1.3927
   94SAPE  C211 9303   6.912   5.424   5.920 -0.0363 -0.9896  0.1724
   94SAPE  H11R 9304   7.003   5.431   5.981 -0.1788 -1.1351  0.4056
   94SAPE  C212 9305   6.924   5.426   5.783 -0.3229  0.0534  0.1939
   94SAPE  H12R 9306   7.016   5.453   5.729 -1.0672 -0.9743 -1.6349
   94SAPE  C213 9307   6.802   5.416   5.702  0.8366 -0.6884  0.1823
   94SAPE  H13R 9308   6.732   5.337   5.738 -1.5843 -0.2225 -3.0841
   94SAPE  H13S 9309   6.833   5.388   5.599 -0.8675 -0.5966 -0.3835
   94SAPE  C214 9310   6.727   5.540   5.686  0.4937 -0.6246  0.4711
   94SAPE  H14R 9311   6.773   5.638   5.707 -1.0674  0.4479 -0.8598
   94SAPE  C215 9312   6.615   5.558   5.619  0.3698  0.1036 -0.0786
   94SAPE  H15R 9313   6.573   5.660   5.612 -4.0962 -1.4170  0.6916
   94SAPE  C216 9314   6.541   5.449   5.552 -0.5384 -0.5643 -0.8143
   94SAPE  H16R 9315   6.455   5.412   5.612 -0.6023  2.0411  0.8477
   94SAPE  H16S 9316   6.614   5.365   5.541  3.0739  2.1487  0.4870
   94SAPE  C217 9317   6.485   5.491   5.409  0.0168  0.4470  0.1648
   94SAPE  H17R 9318   6.561   5.551   5.354  0.0364  0.4408  0.1854
   94SAPE  H17S 9319   6.392   5.551   5.414  0.7420  1.5333  1.1390
   94SAPE  C218 9320   6.444   5.371   5.329  0.1643  0.1947 -0.0862
   94SAPE  H18R 9321   6.401   5.301   5.404  1.1758 -0.2886  0.0525
   94SAPE  H18S 9322   6.534   5.325   5.283  0.6498  1.9999 -1.0287
   94SAPE  C219 9323   6.360   5.412   5.205 -0.0987  0.3754 -0.7367
   94SAPE  H19R 9324   6.266   5.461   5.238 -1.4858 -2.3297 -0.3850
   94SAPE  H19S 9325   6.327   5.321   5.150  0.0369 -0.6970  0.8736
   94SAPE  C220 9326   6.437   5.498   5.110 -0.4873  0.3940  0.6311
   94SAPE  H20R 9327   6.477   5.590   5.157  0.3520 -0.1908  1.0907
   94SAPE  H20S 9328   6.386   5.529   5.017 -0.3529 -1.6457 -0.1720
   94SAPE  H20T 9329   6.527   5.436   5.093 -1.2144 -0.6725  0.5425
   94SAPE   C33 9330   5.662   6.227   6.181  0.1385  0.3677  0.6242
   94SAPE   H3X 9331   5.616   6.319   6.140 -0.9523 -0.2513  0.4357
   94SAPE   H3Y 9332   5.581   6.151   6.183 -0.3246  0.7773 -0.9364
   94SAPE   C34 9333   5.769   6.178   6.080 -0.1731  0.1394 -0.1210
   94SAPE   H4X 9334   5.800   6.078   6.117  0.9731  1.8975  4.3857
   94SAPE   H4Y 9335   5.854   6.250   6.088 -0.3619  0.2801  0.6889
   94SAPE   C35 9336   5.716   6.180   5.938  0.0505 -0.6677 -0.0422
   94SAPE   H5X 9337   5.700   6.284   5.902  0.7574 -0.4081  0.3759
   94SAPE   H5Y 9338   5.621   6.123   5.935  0.8287 -1.9999 -0.2591
   94SAPE   C36 9339   5.817   6.120   5.840  0.0856 -0.6738 -0.2538
   94SAPE   H6X 9340   5.907   6.095   5.899 -0.6358 -0.4829  0.9727
   94SAPE   H6Y 9341   5.842   6.200   5.766 -0.5946 -1.2169 -1.0927
   94SAPE   C37 9342   5.764   5.992   5.771 -0.5488  0.1562 -0.2068
   94SAPE   H7X 9343   5.674   6.007   5.708 -1.5822 -2.5372  0.4593
   94SAPE   H7Y 9344   5.720   5.919   5.842 -2.8107  1.7329  0.1456
   94SAPE   C38 9345   5.871   5.908   5.692 -0.2577  0.1230  0.2636
   94SAPE   H8X 9346   5.836   5.803   5.689 -1.1514  0.3818 -3.4345
   94SAPE   H8Y 9347   5.957   5.899   5.761 -0.0134  0.0979 -0.0384
   94SAPE   C39 9348   5.904   5.950   5.548  0.0738 -0.6055  0.4773
   94SAPE   H9X 9349   5.950   6.050   5.559  0.1607 -0.5853 -0.0525
   94SAPE   H9Y 9350   5.809   5.959   5.490  0.1402  1.4130  0.6060
   94SAPE  C310 9351   5.994   5.849   5.480  0.1588 -0.3210 -0.1686
   94SAPE  H10X 9352   5.957   5.744   5.478  1.1239 -0.6607 -0.3374
   94SAPE  H10Y 9353   6.087   5.850   5.541  0.3439 -0.8834 -0.4351
   94SAPE  C311 9354   6.036   5.905   5.344  0.3833  0.2103  0.4503
   94SAPE  H11X 9355   6.086   5.998   5.378  1.5410 -0.5643  0.9459
   94SAPE  H11Y 9356   5.945   5.944   5.293  1.2163  1.2417 -0.3060
   94SAPE  C312 9357   6.124   5.812   5.261 -0.0807  0.0716 -0.1784
   94SAPE  H12X 9358   6.083   5.710   5.251  3.0069 -1.2354 -0.6959
   94SAPE  H12Y 9359   6.222   5.791   5.310  0.1694 -1.0468 -1.1219
   94SAPE  C313 9360   6.161   5.883   5.136  0.5447 -0.2275 -0.6590
   94SAPE  H13X 9361   6.220   5.970   5.171  1.1277 -0.8141 -0.1765
   94SAPE  H13Y 9362   6.069   5.917   5.083  0.1764 -0.6691 -0.3022
   94SAPE  C314 9363   6.245   5.799   5.038  0.4227 -0.7141  0.3998
   94SAPE  H14X 9364   6.218   5.699   4.999 -3.1877 -0.0208  0.7841
   94SAPE  H14Y 9365   6.341   5.775   5.089  0.7096  0.4265  0.4289
   94SAPE  C315 9366   6.289   5.880   4.917 -0.5732 -0.0271 -0.5274
   94SAPE  H15X 9367   6.344   5.972   4.946  1.0542 -1.8669  2.7722
   94SAPE  H15Y 9368   6.199   5.925   4.868 -0.4756 -1.1961 -1.8568
   94SAPE  C316 9369   6.381   5.815   4.817 -0.6268  1.1433  0.0655
   94SAPE  H16X 9370   6.330   5.739   4.754  1.4397  1.1036 -1.6933
   94SAPE  H16Y 9371   6.452   5.755   4.877  1.4217  0.8803 -2.4199
   94SAPE  C317 9372   6.457   5.924   4.733  0.0515  0.4144  0.7073
   94SAPE  H17X 9373   6.525   5.886   4.654 -1.2845  1.1651 -0.8534
   94SAPE  H17Y 9374   6.510   5.987   4.808  1.2028  0.5403 -0.1728
   94SAPE  C318 9375   6.359   6.006   4.645  0.6062 -0.1436  0.0197
   94SAPE  H18X 9376   6.286   6.062   4.708 -0.2980  0.7334 -1.7469
   94SAPE  H18Y 9377   6.301   5.942   4.575 -0.3447  1.1059 -0.3732
   94SAPE  H18Z 9378   6.412   6.088   4.594  1.4234 -2.3717 -2.9894
   95SAPE     N 9379   3.300   3.634   6.820 -0.3269 -0.2352 -0.1573
   95SAPE   HN1 9380   3.362   3.554   6.844 -0.9461 -0.6587  0.0661
   95SAPE   HN2 9381   3.238   3.658   6.900 -0.7964  0.0124 -0.5875
   95SAPE   HN3 9382   3.223   3.608   6.755 -0.1678  0.9554 -0.8499
   95SAPE   C12 9383   3.386   3.750   6.771 -0.4105  0.0970  0.5399
   95SAPE  H12A 9384   3.430   3.712   6.676  0.5336  2.2731  0.0436
   95SAPE  H12B 9385   3.469   3.773   6.841  0.2294 -0.0747 -0.1451
   95SAPE   C11 9386   3.295   3.866   6.732  0.3993  0.7279 -0.1194
   95SAPE  H11A 9387   3.232   3.830   6.648 -0.4099  0.9150  0.3950
   95SAPE  H11B 9388   3.344   3.957   6.691  2.1526  1.0119  2.3792
   95SAPE     P 9389   3.226   4.034   6.923 -0.2552 -0.2874  0.2881
   95SAPE   O13 9390   3.094   4.074   6.974  0.2640 -0.3161  0.5667
   95SAPE   O14 9391   3.336   4.014   7.021  0.4613  0.1894  0.3971
   95SAPE   O12 9392   3.208   3.905   6.844 -0.1533 -0.0051  0.2888
   95SAPE   O11 9393   3.276   4.144   6.826 -0.1211  0.1239  0.6326
   95SAPE    C1 9394   3.182   4.231   6.764 -0.2826 -0.3522 -0.3519
   95SAPE    HA 9395   3.105   4.257   6.839 -0.8741 -2.5238 -0.1314
   95SAPE    HB 9396   3.232   4.329   6.748  0.8829 -1.0539 -1.1935
   95SAPE    C2 9397   3.137   4.185   6.627 -0.8347  0.3486  0.0237
   95SAPE    HS 9398   3.099   4.082   6.640  1.9342 -0.4286  3.1392
   95SAPE   O21 9399   3.259   4.165   6.549  0.3014 -0.2914  0.5330
   95SAPE   C21 9400   3.244   4.081   6.453  0.5396  0.1852  0.4458
   95SAPE   O22 9401   3.153   3.999   6.443  0.0139  0.4582 -0.9982
   95SAPE   C22 9402   3.353   4.106   6.355  0.3437  0.0750 -0.2181
   95SAPE   H2R 9403   3.365   4.216   6.357  0.3532  0.0779 -0.4703
   95SAPE   H2S 9404   3.445   4.070   6.407  0.6651  1.6642  0.3799
   95SAPE    C3 9405   3.041   4.285   6.560  1.2002 -0.3965 -0.1505
   95SAPE    HX 9406   3.103   4.366   6.517 -0.7527  0.3288 -1.7455
   95SAPE    HY 9407   2.980   4.334   6.640 -0.1120 -0.3923 -1.1225
   95SAPE   O31 9408   2.955   4.234   6.452  0.0772 -0.4356 -0.1118
   95SAPE   C31 9409   2.853   4.163   6.504 -0.5798 -0.0845 -0.3932
   95SAPE   O32 9410   2.830   4.151   6.624 -0.4510 -0.2321 -0.0347
   95SAPE   C32 9411   2.752   4.128   6.399  0.5967 -0.8413  0.0186
   95SAPE   H2X 9412   2.710   4.222   6.358  0.8739 -0.4904  0.5246
   95SAPE   H2Y 9413   2.664   4.081   6.450  0.6611 -1.3304 -0.3135
   95SAPE   C23 9414   3.326   4.056   6.213  0.3547  0.2363  0.0332
   95SAPE   H3R 9415   3.317   3.946   6.223  2.5181  0.2161  2.7890
   95SAPE   H3S 9416   3.409   4.090   6.148 -1.1563  0.2630 -1.9979
   95SAPE   C24 9417   3.195   4.103   6.140 -0.3085  0.4564  0.0379
   95SAPE   H4R 9418   3.116   4.060   6.207 -0.0244 -1.8774 -1.0461
   95SAPE   H4S 9419   3.193   4.052   6.042  0.6888 -1.1163  0.8021
   95SAPE   C25 9420   3.172   4.254   6.134 -0.3022  0.1116 -1.0184
   95SAPE   H5R 9421   3.139   4.300   6.229  2.3338 -0.4243  0.2377
   95SAPE   C26 9422   3.202   4.327   6.024 -0.1105  0.7980 -0.4828
   95SAPE   H6R 9423   3.174   4.433   6.035 -0.3500  0.6802  0.0773
   95SAPE   C27 9424   3.253   4.275   5.888 -0.3772 -0.2193  0.0588
   95SAPE   H7R 9425   3.278   4.167   5.882  1.0084  0.1299 -0.8839
   95SAPE   H7S 9426   3.348   4.332   5.882  0.7834 -2.1242 -0.4937
   95SAPE   C28 9427   3.163   4.304   5.769 -0.3113  0.0323 -0.5374
   95SAPE   H8R 9428   3.058   4.331   5.787 -0.5090  4.1337 -5.6109
   95SAPE   C29 9429   3.203   4.321   5.643  0.1423 -0.3873 -0.5262
   95SAPE   H9R 9430   3.125   4.323   5.566  0.7355 -2.0098 -1.2132
   95SAPE  C210 9431   3.346   4.317   5.589  0.6271 -0.0638 -0.5482
   95SAPE  H10R 9432   3.401   4.237   5.642  0.2848 -0.1127 -0.2635
   95SAPE  H10S 9433   3.397   4.413   5.611  0.0081  1.1549 -3.8247
   95SAPE  C211 9434   3.347   4.286   5.445  0.5217  0.4334 -0.0628
   95SAPE  H11R 9435   3.412   4.203   5.416 -3.2105 -2.5556 -0.5764
   95SAPE  C212 9436   3.303   4.373   5.348 -0.2371 -0.1002 -0.2584
   95SAPE  H12R 9437   3.311   4.343   5.243  1.5836  0.6080 -0.3598
   95SAPE  C213 9438   3.237   4.507   5.355 -0.6768  0.2152 -0.2958
   95SAPE  H13R 9439   3.316   4.581   5.328  1.7166 -1.5723  1.3348
   95SAPE  H13S 9440   3.209   4.524   5.462  0.6531 -0.6016  0.2126
   95SAPE  C214 9441   3.113   4.509   5.267 -0.3141 -1.1888  0.2709
   95SAPE  H14R 9442   3.036   4.441   5.306  0.3561 -2.7043 -0.9379
   95SAPE  C215 9443   3.084   4.592   5.169 -0.7893 -0.6028  0.7429
   95SAPE  H15R 9444   2.979   4.590   5.134 -0.5530 -2.3403  0.0393
   95SAPE  C216 9445   3.182   4.684   5.105 -0.0112  0.2155  0.1973
   95SAPE  H16R 9446   3.289   4.662   5.129  0.5329 -0.2608 -2.4295
   95SAPE  H16S 9447   3.156   4.785   5.143 -0.9494 -0.2182  0.7460
   95SAPE  C217 9448   3.179   4.703   4.944  0.3207  0.2502  0.0136
   95SAPE  H17R 9449   3.079   4.742   4.917  0.0994  0.6672  1.3369
   95SAPE  H17S 9450   3.196   4.601   4.902  0.1985  0.0991  0.3230
   95SAPE  C218 9451   3.287   4.804   4.904  0.1983  0.2752  0.0868
   95SAPE  H18R 9452   3.382   4.772   4.951  1.0160 -0.5844 -2.0432
   95SAPE  H18S 9453   3.270   4.906   4.944 -0.3447  0.0169  0.5267
   95SAPE  C219 9454   3.315   4.807   4.749 -0.2862  0.6587  0.4782
   95SAPE  H19R 9455   3.414   4.856   4.748 -0.3878  0.8803  0.8642
   95SAPE  H19S 9456   3.237   4.864   4.693 -2.5126 -0.7096  2.0193
   95SAPE  C220 9457   3.322   4.671   4.677  0.2761 -0.3837  0.5249
   95SAPE  H20R 9458   3.353   4.696   4.573 -0.5084  0.3999  0.4706
   95SAPE  H20S 9459   3.218   4.634   4.665  0.3364 -0.0533 -1.5379
   95SAPE  H20T 9460   3.391   4.598   4.724  0.4368  0.1752  1.1640
   95SAPE   C33 9461   2.817   4.032   6.301 -0.7163 -0.4442 -0.1684
   95SAPE   H3X 9462   2.840   3.928   6.333 -0.9876 -0.5372 -0.2642
   95SAPE   H3Y 9463   2.916   4.077   6.279  0.0029 -2.2673 -0.8307
   95SAPE   C34 9464   2.738   4.016   6.168  0.0282  0.2138 -0.1985
   95SAPE   H4X 9465   2.699   4.114   6.131 -2.5615 -1.2248 -1.5468
   95SAPE   H4Y 9466   2.658   3.941   6.185  1.1459 -1.2181 -1.0157
   95SAPE   C35 9467   2.825   3.956   6.054  0.0633  0.1759  0.0696
   95SAPE   H5X 9468   2.838   3.849   6.081  2.1549  0.6881  1.3080
   95SAPE   H5Y 9469   2.926   3.997   6.075 -0.1165  1.3138 -1.1462
   95SAPE   C36 9470   2.782   3.984   5.914 -0.3485  0.9475  0.8603
   95SAPE   H6X 9471   2.751   4.089   5.893 -1.8706  0.1602 -1.2744
   95SAPE   H6Y 9472   2.700   3.911   5.898  1.7837 -1.3217 -0.3065
   95SAPE   C37 9473   2.908   3.958   5.825 -0.7150  0.5898 -0.4971
   95SAPE   H7X 9474   2.949   3.856   5.840  0.8759  1.3436  0.5071
   95SAPE   H7Y 9475   2.988   4.028   5.857 -0.6307 -0.2432  1.2044
   95SAPE   C38 9476   2.873   3.985   5.677 -0.0206  0.3209 -0.3744
   95SAPE   H8X 9477   2.823   4.085   5.673 -0.9083  0.0047  1.8412
   95SAPE   H8Y 9478   2.806   3.904   5.640 -1.5182  1.6602 -0.7527
   95SAPE   C39 9479   2.991   3.996   5.577  0.1654  0.3157  0.0818
   95SAPE   H9X 9480   3.029   3.892   5.562 -0.5998  0.2443 -1.5551
   95SAPE   H9Y 9481   3.083   4.050   5.607 -0.1066  1.2076 -0.6570
   95SAPE  C310 9482   2.933   4.038   5.441  0.1276  0.3384  0.5540
   95SAPE  H10X 9483   2.896   4.140   5.463 -4.4809 -0.7846 -0.8739
   95SAPE  H10Y 9484   2.852   3.966   5.417  1.2996 -0.9560  0.3073
   95SAPE  C311 9485   3.038   4.030   5.330 -0.0530  0.5928  0.2909
   95SAPE  H11X 9486   3.045   3.926   5.294  0.0745  1.0269 -0.9747
   95SAPE  H11Y 9487   3.142   4.052   5.362  0.1426 -1.1058  0.9113
   95SAPE  C312 9488   3.001   4.106   5.202  0.6318 -0.4562  0.0057
   95SAPE  H12X 9489   2.987   4.210   5.239  1.5084 -0.9687  1.9410
   95SAPE  H12Y 9490   2.905   4.069   5.160  0.8916 -0.5841 -0.4801
   95SAPE  C313 9491   3.106   4.114   5.092 -1.0018 -0.5592  0.3128
   95SAPE  H13X 9492   3.146   4.018   5.053  2.1120  1.0014 -0.6661
   95SAPE  H13Y 9493   3.192   4.169   5.135  0.5661 -0.4866 -2.6323
   95SAPE  C314 9494   3.060   4.198   4.965 -0.0920  0.3761 -0.3344
   95SAPE  H14X 9495   3.040   4.301   5.001  0.5278  1.0651 -1.8601
   95SAPE  H14Y 9496   2.965   4.144   4.945 -0.0858 -0.9471  2.5595
   95SAPE  C315 9497   3.174   4.202   4.863 -0.2679 -0.4745 -0.3693
   95SAPE  H15X 9498   3.139   4.238   4.764  0.3920  0.1124 -0.3984
   95SAPE  H15Y 9499   3.224   4.103   4.858  1.0063  0.0144  1.4979
   95SAPE  C316 9500   3.288   4.302   4.904 -0.3323 -0.9495 -0.0029
   95SAPE  H16X 9501   3.286   4.323   5.013  1.7191  0.8855 -0.2540
   95SAPE  H16Y 9502   3.257   4.397   4.856 -0.6269 -0.1547  1.7088
   95SAPE  C317 9503   3.416   4.269   4.833 -0.2604  0.4454  0.1621
   95SAPE  H17X 9504   3.406   4.299   4.727  2.6672  0.4895 -0.1936
   95SAPE  H17Y 9505   3.443   4.162   4.843 -0.6625  0.4146  1.0209
   95SAPE  C318 9506   3.531   4.355   4.897 -0.5053  0.0936 -0.0384
   95SAPE  H18X 9507   3.546   4.347   5.007  1.0843 -0.2467 -0.2586
   95SAPE  H18Y 9508   3.518   4.463   4.872  0.3646 -0.2085 -1.9584
   95SAPE  H18Z 9509   3.622   4.318   4.845  0.0883  0.1972  0.9107
   96SAPE     N 9510   5.849   0.024   7.050  0.0816 -0.3000 -0.5402
   96SAPE   HN1 9511   5.801  -0.058   7.092  0.4072  0.9842  2.5999
   96SAPE   HN2 9512   5.829   0.029   6.948  1.9557  2.5095 -0.8631
   96SAPE   HN3 9513   5.951   0.005   7.061  0.1457  0.6036  0.6646
   96SAPE   C12 9514   5.796   0.144   7.123  0.1132 -0.5141  0.1342
   96SAPE  H12A 9515   5.852   0.164   7.217 -0.4692  1.8522  0.0356
   96SAPE  H12B 9516   5.691   0.116   7.146 -0.5506  0.0134 -2.0263
   96SAPE   C11 9517   5.792   0.263   7.028 -0.6934  0.1290  0.2072
   96SAPE  H11A 9518   5.883   0.291   6.970 -0.0513 -0.8009  0.7447
   96SAPE  H11B 9519   5.770   0.355   7.086 -0.2014 -0.4597  1.3595
   96SAPE     P 9520   5.700   0.191   6.792 -0.2098  0.2489 -0.6883
   96SAPE   O13 9521   5.760   0.053   6.803 -0.6524  0.0381 -0.1590
   96SAPE   O14 9522   5.574   0.205   6.719 -0.1443 -0.1962  0.0228
   96SAPE   O12 9523   5.679   0.239   6.945 -0.1385  0.2013  0.9500
   96SAPE   O11 9524   5.806   0.291   6.728 -0.1806 -0.0942 -0.6238
   96SAPE    C1 9525   5.756   0.406   6.657 -0.2662 -0.5383 -0.3168
   96SAPE    HA 9526   5.812   0.418   6.561  0.0519 -1.3628 -0.2364
   96SAPE    HB 9527   5.651   0.394   6.623 -0.2086  0.4878 -0.9360
   96SAPE    C2 9528   5.755   0.538   6.743 -0.5569  0.3949 -0.8787
   96SAPE    HS 9529   5.685   0.528   6.828 -0.5641  0.5019 -0.8731
   96SAPE   O21 9530   5.714   0.642   6.651 -0.4488  0.0326 -0.3766
   96SAPE   C21 9531   5.587   0.658   6.650  0.7437 -1.2461 -0.5097
   96SAPE   O22 9532   5.502   0.597   6.717  0.6884  0.2263  0.1077
   96SAPE   C22 9533   5.556   0.767   6.557  0.4125  0.4092 -0.0724
   96SAPE   H2R 9534   5.446   0.778   6.550  0.4147  0.8491  0.5052
   96SAPE   H2S 9535   5.596   0.859   6.605 -1.5182  0.0112  2.5275
   96SAPE    C3 9536   5.889   0.567   6.810 -0.1914  0.2688  0.2306
   96SAPE    HX 9537   5.965   0.592   6.733  0.1306 -0.5738  0.2659
   96SAPE    HY 9538   5.907   0.470   6.862 -0.8000  0.7190  1.3274
   96SAPE   O31 9539   5.874   0.672   6.909 -0.0266  0.2782 -0.0426
   96SAPE   C31 9540   5.995   0.686   6.973 -0.1385  0.2121  0.1434
   96SAPE   O32 9541   6.088   0.605   6.957  0.0285 -0.0799  0.2150
   96SAPE   C32 9542   6.003   0.819   7.042  0.2739  0.0331  0.5130
   96SAPE   H2X 9543   6.087   0.828   7.114  0.0201  1.0199  0.6913
   96SAPE   H2Y 9544   5.912   0.831   7.105 -0.4132  3.0955 -0.8841
   96SAPE   C23 9545   5.607   0.744   6.410 -0.3067 -0.2754 -0.2103
   96SAPE   H3R 9546   5.706   0.695   6.406 -1.3392 -2.5486  0.2725
   96SAPE   H3S 9547   5.612   0.845   6.364  1.0582 -0.0505  0.4092
   96SAPE   C24 9548   5.516   0.655   6.328  0.2162 -0.5162 -1.6215
   96SAPE   H4R 9549   5.552   0.660   6.223  2.0774 -2.4559 -1.1688
   96SAPE   H4S 9550   5.412   0.693   6.337 -0.2929 -2.2247  1.0634
   96SAPE   C25 9551   5.511   0.511   6.379  0.3953 -0.4487 -0.6093
   96SAPE   H5R 9552   5.436   0.499   6.459  1.0729 -1.7296 -0.1210
   96SAPE   C26 9553   5.591   0.404   6.351 -0.3345  0.4213  0.6203
   96SAPE   H6R 9554   5.550   0.311   6.395 -0.8149  1.2176  1.9132
   96SAPE   C27 9555   5.688   0.376   6.238  0.0043  0.0828 -0.3115
   96SAPE   H7R 9556   5.697   0.474   6.185 -0.4570  1.4993  2.0776
   96SAPE   H7S 9557   5.653   0.303   6.163  2.1801  1.1207 -2.4737
   96SAPE   C28 9558   5.826   0.334   6.292  0.3085  0.0166 -0.1728
   96SAPE   H8R 9559   5.837   0.295   6.394  6.0156 -0.1623 -0.5557
   96SAPE   C29 9560   5.943   0.336   6.222  0.1701  0.0663  0.2561
   96SAPE   H9R 9561   6.031   0.306   6.280 -1.8820 -3.0159  2.0884
   96SAPE  C210 9562   5.962   0.379   6.081 -0.3650 -0.4869  0.3071
   96SAPE  H10R 9563   5.899   0.315   6.016 -0.7283 -0.1477  0.3269
   96SAPE  H10S 9564   6.070   0.369   6.057  0.1065  3.1229  0.4302
   96SAPE  C211 9565   5.927   0.525   6.056 -0.6870  0.1638 -0.2405
   96SAPE  H11R 9566   5.973   0.604   6.118 -3.4706 -0.5631  3.0395
   96SAPE  C212 9567   5.859   0.573   5.950 -0.6269  0.5466  0.2506
   96SAPE  H12R 9568   5.853   0.683   5.947 -0.2411  0.5751  0.4202
   96SAPE  C213 9569   5.802   0.491   5.832 -0.2253 -0.7269 -0.2196
   96SAPE  H13R 9570   5.714   0.430   5.861  0.5742 -2.3651 -1.0548
   96SAPE  H13S 9571   5.882   0.419   5.803  1.4179  1.4087 -1.2673
   96SAPE  C214 9572   5.779   0.586   5.717  0.2456 -0.3091 -0.1528
   96SAPE  H14R 9573   5.676   0.626   5.717  1.0243  1.8451 -1.0325
   96SAPE  C215 9574   5.856   0.612   5.611 -0.7869 -0.1785  0.7380
   96SAPE  H15R 9575   5.816   0.687   5.541  0.9090  0.1987  0.1471
   96SAPE  C216 9576   5.993   0.558   5.580 -0.0104 -0.0102 -0.1966
   96SAPE  H16R 9577   5.973   0.450   5.568 -1.3057  0.0683  1.0517
   96SAPE  H16S 9578   6.064   0.590   5.660  1.0779  0.1975 -1.2211
   96SAPE  C217 9579   6.033   0.623   5.446  0.2542 -0.4736 -0.3785
   96SAPE  H17R 9580   6.143   0.625   5.433  0.3219  1.1827  0.1391
   96SAPE  H17S 9581   6.008   0.731   5.438 -1.6462 -0.6010  2.3174
   96SAPE  C218 9582   5.971   0.571   5.319 -0.7196 -0.8776  0.6037
   96SAPE  H18R 9583   5.861   0.582   5.330 -0.8749 -1.3903 -0.3004
   96SAPE  H18S 9584   5.999   0.464   5.311 -2.2427 -1.2069 -1.1663
   96SAPE  C219 9585   6.027   0.655   5.196  0.5005 -0.3406  0.6318
   96SAPE  H19R 9586   6.138   0.653   5.198  0.5036 -0.6671  2.4082
   96SAPE  H19S 9587   5.989   0.758   5.211 -3.8905 -1.6267 -0.0671
   96SAPE  C220 9588   5.973   0.602   5.061 -0.5320 -0.0608  0.2375
   96SAPE  H20R 9589   5.868   0.569   5.069 -0.7515  0.2159 -1.2837
   96SAPE  H20S 9590   6.029   0.511   5.032 -0.9109  0.0515 -0.8809
   96SAPE  H20T 9591   5.973   0.686   4.988  0.5789 -0.5353 -0.3327
   96SAPE   C33 9592   6.004   0.941   6.948 -0.6146  0.2466 -0.1555
   96SAPE   H3X 9593   5.982   1.034   7.004 -2.9582 -0.7915  0.7612
   96SAPE   H3Y 9594   5.918   0.936   6.878 -1.9869  0.1738  1.4764
   96SAPE   C34 9595   6.143   0.978   6.880  0.0680 -0.8337 -0.2603
   96SAPE   H4X 9596   6.215   1.009   6.958 -1.0818  0.3170  0.3813
   96SAPE   H4Y 9597   6.130   1.074   6.826  0.0436 -0.0797  1.0445
   96SAPE   C35 9598   6.207   0.881   6.780 -0.1244 -0.3741  0.0999
   96SAPE   H5X 9599   6.222   0.786   6.836 -1.1433 -0.6565 -0.0839
   96SAPE   H5Y 9600   6.308   0.918   6.750 -0.3079  0.6039  0.6545
   96SAPE   C36 9601   6.126   0.843   6.655  0.7219  0.3530  0.6479
   96SAPE   H6X 9602   6.118   0.936   6.594  1.4655 -0.6714 -1.0861
   96SAPE   H6Y 9603   6.025   0.810   6.686  1.5793 -2.3671  0.7758
   96SAPE   C37 9604   6.194   0.725   6.570 -0.1630 -0.3228  0.0436
   96SAPE   H7X 9605   6.117   0.685   6.501 -3.1460  1.3817  2.1952
   96SAPE   H7Y 9606   6.216   0.643   6.642  1.0940 -1.5578 -1.6594
   96SAPE   C38 9607   6.331   0.759   6.503 -0.4503  0.3290  0.5963
   96SAPE   H8X 9608   6.401   0.810   6.572  1.4283 -2.6894  1.0971
   96SAPE   H8Y 9609   6.308   0.831   6.421  0.8072 -1.6360 -1.6115
   96SAPE   C39 9610   6.405   0.639   6.426  1.0613  0.2246 -0.2913
   96SAPE   H9X 9611   6.410   0.545   6.485 -3.3364  0.9672  1.6157
   96SAPE   H9Y 9612   6.507   0.680   6.408  0.1716  2.8431  0.1489
   96SAPE  C310 9613   6.346   0.609   6.290  0.2254 -0.2900  0.1282
   96SAPE  H10X 9614   6.344   0.701   6.227 -1.2680 -0.7932 -0.6000
   96SAPE  H10Y 9615   6.242   0.569   6.290  0.1053 -0.0680 -1.7494
   96SAPE  C311 9616   6.429   0.506   6.203 -1.0806  0.7719 -0.4879
   96SAPE  H11X 9617   6.414   0.406   6.250  0.4463  0.9311  0.3925
   96SAPE  H11Y 9618   6.538   0.529   6.197 -0.9335 -0.3115 -3.1488
   96SAPE  C312 9619   6.370   0.490   6.060 -0.0065  0.1092  0.7031
   96SAPE  H12X 9620   6.260   0.474   6.059  0.0638 -0.3875 -0.0417
   96SAPE  H12Y 9621   6.411   0.399   6.012  2.5968  1.4638  0.1277
   96SAPE  C313 9622   6.390   0.615   5.967  0.5208  0.4677  0.0866
   96SAPE  H13X 9623   6.496   0.638   5.946  0.1683  0.2099 -2.2161
   96SAPE  H13Y 9624   6.339   0.700   6.017  0.5257  0.6286 -0.1788
   96SAPE  C314 9625   6.320   0.591   5.827 -0.0901  0.0569 -0.1102
   96SAPE  H14X 9626   6.337   0.688   5.776  1.9326  0.3906  1.0801
   96SAPE  H14Y 9627   6.213   0.569   5.846 -0.1964 -0.3761 -1.1513
   96SAPE  C315 9628   6.382   0.486   5.740 -0.4376  0.5715  0.1536
   96SAPE  H15X 9629   6.370   0.385   5.784  0.4956 -0.0243 -0.9068
   96SAPE  H15Y 9630   6.491   0.504   5.751 -0.5382  0.8102  0.8002
   96SAPE  C316 9631   6.349   0.487   5.590  0.1539  0.3955 -0.4656
   96SAPE  H16X 9632   6.340   0.591   5.551  1.6503  0.1416 -1.5548
   96SAPE  H16Y 9633   6.252   0.436   5.575 -0.9860  2.6363 -1.2171
   96SAPE  C317 9634   6.463   0.432   5.500  0.2738  0.7451  0.0392
   96SAPE  H17X 9635   6.504   0.348   5.561  0.1284  1.7039  1.5125
   96SAPE  H17Y 9636   6.540   0.512   5.505  2.0656 -0.8484 -0.5118
   96SAPE  C318 9637   6.417   0.385   5.359  0.3864 -0.0529 -0.1120
   96SAPE  H18X 9638   6.341   0.451   5.313 -2.2700 -2.1793  0.9144
   96SAPE  H18Y 9639   6.386   0.278   5.357 -0.5148  0.2178 -1.7246
   96SAPE  H18Z 9640   6.502   0.399   5.289  1.0350  1.7946  0.9721
   97SAPE     N 9641   6.548   1.230   7.361 -0.0115  0.5850 -0.1101
   97SAPE   HN1 9642   6.599   1.295   7.299  0.1220  0.4024 -0.1956
   97SAPE   HN2 9643   6.614   1.170   7.416 -0.1716  1.4606  1.0725
   97SAPE   HN3 9644   6.492   1.165   7.303  0.3169  1.8652 -1.9250
   97SAPE   C12 9645   6.459   1.306   7.446  0.0679 -0.4483  0.0649
   97SAPE  H12A 9646   6.394   1.233   7.500 -0.2872  0.0721  0.3535
   97SAPE  H12B 9647   6.383   1.361   7.386 -0.8304 -1.9120 -0.1892
   97SAPE   C11 9648   6.533   1.401   7.540 -0.2185 -0.6288 -0.6288
   97SAPE  H11A 9649   6.624   1.352   7.581  1.1871  1.1455 -1.4921
   97SAPE  H11B 9650   6.472   1.422   7.630  1.4836  4.3771 -0.3457
   97SAPE     P 9651   6.495   1.636   7.435 -0.4042  0.3585  0.3001
   97SAPE   O13 9652   6.410   1.677   7.547  0.5110 -0.1719  0.1332
   97SAPE   O14 9653   6.578   1.730   7.352 -0.1173 -0.4778  0.0490
   97SAPE   O12 9654   6.586   1.524   7.479 -0.1809  0.1369  0.1036
   97SAPE   O11 9655   6.399   1.565   7.329 -0.0831 -0.2012 -0.9296
   97SAPE    C1 9656   6.447   1.532   7.194 -0.2974 -0.4181  0.2808
   97SAPE    HA 9657   6.520   1.607   7.156  0.1483 -1.7700 -1.6871
   97SAPE    HB 9658   6.479   1.426   7.184  0.0248 -0.2698 -0.3237
   97SAPE    C2 9659   6.327   1.537   7.099  0.1340 -0.3100 -0.2532
   97SAPE    HS 9660   6.246   1.473   7.141 -0.9196 -0.5370 -2.4767
   97SAPE   O21 9661   6.375   1.487   6.976  0.0156 -0.3567  0.1384
   97SAPE   C21 9662   6.282   1.437   6.892 -0.0231 -0.0416  0.6099
   97SAPE   O22 9663   6.168   1.420   6.919  0.0917 -0.1951 -0.4356
   97SAPE   C22 9664   6.352   1.380   6.772 -0.1201  1.0885 -0.3963
   97SAPE   H2R 9665   6.442   1.443   6.755  2.0051 -1.9415 -1.2275
   97SAPE   H2S 9666   6.377   1.273   6.792 -1.0729  0.7444 -0.9523
   97SAPE    C3 9667   6.272   1.679   7.095  0.5930 -0.0378  0.7026
   97SAPE    HX 9668   6.352   1.752   7.070  1.1685 -1.0801 -0.6270
   97SAPE    HY 9669   6.252   1.700   7.203  0.5458 -0.7593  0.8419
   97SAPE   O31 9670   6.163   1.707   7.006  0.3754  0.1092  0.3036
   97SAPE   C31 9671   6.044   1.657   7.030  0.1134 -0.2134  0.1470
   97SAPE   O32 9672   6.009   1.603   7.131 -0.4519  0.1992 -0.4254
   97SAPE   C32 9673   5.950   1.670   6.910 -0.1959  0.3242 -0.9137
   97SAPE   H2X 9674   5.853   1.711   6.946 -0.4938 -2.8338  2.5575
   97SAPE   H2Y 9675   5.943   1.562   6.884 -1.5167  0.6482 -1.9871
   97SAPE   C23 9676   6.266   1.369   6.643  0.0770 -0.7409 -0.0700
   97SAPE   H3R 9677   6.238   1.469   6.602 -0.9375 -1.2127 -0.5736
   97SAPE   H3S 9678   6.172   1.310   6.655 -1.1021  0.9225 -0.6709
   97SAPE   C24 9679   6.330   1.310   6.515  0.1663 -0.6791 -0.8689
   97SAPE   H4R 9680   6.345   1.205   6.545 -2.2611 -0.8194  0.0601
   97SAPE   H4S 9681   6.430   1.358   6.509  0.1154 -0.6524 -1.6306
   97SAPE   C25 9682   6.255   1.343   6.386  0.2128  0.2098 -0.7593
   97SAPE   H5R 9683   6.263   1.448   6.354  0.1992 -0.1140 -1.8560
   97SAPE   C26 9684   6.215   1.255   6.292  0.2692 -0.1106  0.0243
   97SAPE   H6R 9685   6.171   1.294   6.200 -0.0318 -0.6037 -0.0433
   97SAPE   C27 9686   6.244   1.104   6.299  0.1938 -0.1626 -0.1324
   97SAPE   H7R 9687   6.165   1.049   6.244 -0.7537 -0.4341  1.4470
   97SAPE   H7S 9688   6.243   1.069   6.404 -4.1879  2.6742  1.0439
   97SAPE   C28 9689   6.379   1.077   6.235  0.1132  0.2976  0.7092
   97SAPE   H8R 9690   6.464   1.066   6.305  0.4492 -0.2872  0.2188
   97SAPE   C29 9691   6.407   1.077   6.100  0.0983  0.4056  0.1217
   97SAPE   H9R 9692   6.506   1.059   6.057 -1.5808  0.1978 -4.1290
   97SAPE  C210 9693   6.304   1.093   5.991  0.1089  0.1234 -0.7599
   97SAPE  H10R 9694   6.356   1.127   5.898 -1.6609  2.1870 -1.0703
   97SAPE  H10S 9695   6.232   1.174   6.016  0.0692 -0.0916 -0.1629
   97SAPE  C211 9696   6.240   0.955   5.983 -0.6377  0.3113  0.2504
   97SAPE  H11R 9697   6.248   0.892   6.072  0.3365 -0.1205 -0.1285
   97SAPE  C212 9698   6.181   0.909   5.870  0.2553 -0.1818 -0.0468
   97SAPE  H12R 9699   6.140   0.807   5.871 -0.3288  0.0496  0.4005
   97SAPE  C213 9700   6.158   0.986   5.741  0.0909 -0.6499 -0.0893
   97SAPE  H13R 9701   6.220   1.077   5.724  1.8522 -2.0456 -1.5417
   97SAPE  H13S 9702   6.058   1.031   5.729  0.6550  0.2931 -1.5725
   97SAPE  C214 9703   6.189   0.906   5.621 -0.4025  0.4439  0.3529
   97SAPE  H14R 9704   6.215   0.800   5.636 -2.7831 -0.4123 -0.9991
   97SAPE  C215 9705   6.177   0.949   5.497 -0.1291  0.2177  0.0864
   97SAPE  H15R 9706   6.205   0.882   5.414  0.9842 -0.0190  0.6243
   97SAPE  C216 9707   6.159   1.089   5.443 -0.7470  0.2127 -0.3504
   97SAPE  H16R 9708   6.218   1.160   5.505 -1.9616 -0.7080  1.9755
   97SAPE  H16S 9709   6.050   1.112   5.439 -0.7501  0.1495 -0.6482
   97SAPE  C217 9710   6.199   1.098   5.294 -0.5923 -0.5242 -0.0935
   97SAPE  H17R 9711   6.143   1.037   5.220 -2.1637  1.4549 -0.6134
   97SAPE  H17S 9712   6.308   1.081   5.280 -0.4873  0.1906 -0.1581
   97SAPE  C218 9713   6.170   1.238   5.244  0.3220 -0.2373  0.0368
   97SAPE  H18R 9714   6.229   1.306   5.309  0.3863 -1.2178  1.0401
   97SAPE  H18S 9715   6.063   1.259   5.267  0.1891 -1.0850  0.2604
   97SAPE  C219 9716   6.191   1.269   5.094  0.3268 -0.5020  0.0020
   97SAPE  H19R 9717   6.144   1.365   5.063  0.4351 -0.2862  0.5131
   97SAPE  H19S 9718   6.144   1.193   5.028  0.0221 -0.5508  0.2719
   97SAPE  C220 9719   6.338   1.280   5.044 -0.5731 -0.1683  0.0019
   97SAPE  H20R 9720   6.336   1.307   4.937  0.8358  2.8595  0.6224
   97SAPE  H20S 9721   6.380   1.179   5.062  0.9218  0.2293 -1.1481
   97SAPE  H20T 9722   6.397   1.352   5.105 -1.2322 -0.5292  1.1066
   97SAPE   C33 9723   6.000   1.747   6.789 -0.2849  0.5988 -0.2070
   97SAPE   H3X 9724   6.099   1.704   6.764 -0.8117 -1.1355  0.5335
   97SAPE   H3Y 9725   6.017   1.856   6.801  1.3597  0.7489 -3.0115
   97SAPE   C34 9726   5.903   1.719   6.675 -0.1182 -0.0697  0.1665
   97SAPE   H4X 9727   5.813   1.781   6.694 -0.9946  0.6815 -4.9201
   97SAPE   H4Y 9728   5.874   1.612   6.675 -0.7493  0.0975  0.7731
   97SAPE   C35 9729   5.958   1.739   6.532 -0.4576  0.1088 -0.4316
   97SAPE   H5X 9730   6.064   1.766   6.546 -0.4588 -0.1565  0.1180
   97SAPE   H5Y 9731   5.898   1.819   6.482  1.9084  1.6295 -0.9725
   97SAPE   C36 9732   5.956   1.624   6.438  0.0975  0.4075  0.0593
   97SAPE   H6X 9733   5.851   1.590   6.427 -0.4248  1.4876  1.4183
   97SAPE   H6Y 9734   6.005   1.541   6.494 -1.3352  0.5328  1.5874
   97SAPE   C37 9735   6.014   1.658   6.292  0.0956 -0.2011 -0.4010
   97SAPE   H7X 9736   6.124   1.646   6.299 -0.1250 -1.4807  1.7691
   97SAPE   H7Y 9737   5.991   1.763   6.266  0.2923 -0.5922 -2.2798
   97SAPE   C38 9738   5.960   1.558   6.188 -0.0435  0.2280  0.1668
   97SAPE   H8X 9739   5.849   1.554   6.190 -0.1354  2.2918  1.1706
   97SAPE   H8Y 9740   5.998   1.461   6.227 -1.9907 -0.0501  1.5087
   97SAPE   C39 9741   6.016   1.567   6.050 -0.2233 -0.2498  0.2190
   97SAPE   H9X 9742   6.126   1.579   6.056 -0.4248  2.7745 -0.2683
   97SAPE   H9Y 9743   5.988   1.668   6.011 -0.5085 -0.5124 -0.2608
   97SAPE  C310 9744   5.976   1.451   5.952 -0.5305  0.2933  0.1834
   97SAPE  H10X 9745   5.868   1.445   5.926 -0.7566  1.6171  0.7076
   97SAPE  H10Y 9746   6.008   1.354   5.995 -0.4421  0.1794 -0.1394
   97SAPE  C311 9747   6.046   1.463   5.819 -0.3861  0.7335  0.7750
   97SAPE  H11X 9748   6.079   1.360   5.794  1.0968  0.4915  3.3810
   97SAPE  H11Y 9749   6.132   1.531   5.832 -2.1141  3.1449  0.2278
   97SAPE  C312 9750   5.966   1.520   5.694  0.2030  0.5317 -0.0332
   97SAPE  H12X 9751   5.894   1.603   5.709 -0.9660 -0.6580  1.2701
   97SAPE  H12Y 9752   5.908   1.433   5.658  0.2764  0.9382 -1.1672
   97SAPE  C313 9753   6.052   1.547   5.571  0.9162  0.0113 -0.2177
   97SAPE  H13X 9754   6.124   1.466   5.549  0.1412 -0.4362 -1.2115
   97SAPE  H13Y 9755   6.102   1.643   5.596 -0.7641  0.3347  2.2696
   97SAPE  C314 9756   5.981   1.560   5.436  0.2612  0.5452 -0.7725
   97SAPE  H14X 9757   5.890   1.625   5.442 -0.4565 -0.5821  3.1748
   97SAPE  H14Y 9758   5.948   1.459   5.404  0.2669 -0.5434  2.3028
   97SAPE  C315 9759   6.072   1.612   5.321 -0.3066  0.2944  0.4812
   97SAPE  H15X 9760   6.148   1.533   5.300 -0.0087  0.9402 -0.9872
   97SAPE  H15Y 9761   6.122   1.707   5.350 -0.3100  0.6890 -0.7402
   97SAPE  C316 9762   5.997   1.647   5.191 -0.2601  1.4770 -0.3131
   97SAPE  H16X 9763   5.908   1.709   5.217 -2.0890 -0.8680 -0.6389
   97SAPE  H16Y 9764   5.954   1.554   5.150  1.2195 -0.0876  1.4848
   97SAPE  C317 9765   6.070   1.721   5.081  0.3104 -0.1861  0.3922
   97SAPE  H17X 9766   6.155   1.669   5.034  0.9985 -0.0612  1.4634
   97SAPE  H17Y 9767   6.104   1.816   5.128 -0.7113  0.2007  0.3729
   97SAPE  C318 9768   5.982   1.754   4.951 -0.2792  0.1800  0.1677
   97SAPE  H18X 9769   6.010   1.841   4.888 -1.0223  1.4157  1.4649
   97SAPE  H18Y 9770   5.877   1.778   4.980 -1.7877 -2.9464 -2.1020
   97SAPE  H18Z 9771   5.979   1.662   4.888  3.0924  1.7416 -2.6092
   98SAPE     N 9772   5.858   0.621   7.501  0.4686  0.2478 -0.0193
   98SAPE   HN1 9773   5.799   0.582   7.426 -0.8930  1.8156  0.1824
   98SAPE   HN2 9774   5.951   0.609   7.456 -1.1208  0.0430 -3.6035
   98SAPE   HN3 9775   5.834   0.569   7.588 -0.2153 -1.0379 -0.9638
   98SAPE   C12 9776   5.821   0.766   7.513 -0.3629 -0.1015 -0.7427
   98SAPE  H12A 9777   5.890   0.819   7.582  0.1872 -1.5698 -0.1094
   98SAPE  H12B 9778   5.727   0.757   7.571  0.3403 -0.9014  0.3387
   98SAPE   C11 9779   5.830   0.826   7.370  0.1167  0.1051 -0.5078
   98SAPE  H11A 9780   5.790   0.748   7.302 -1.7901  0.0073  0.6646
   98SAPE  H11B 9781   5.934   0.861   7.351  0.0452  1.1618  0.8330
   98SAPE     P 9782   5.792   1.091   7.375  0.2457 -0.0555 -0.0933
   98SAPE   O13 9783   5.684   1.196   7.392 -0.1710  0.4088 -0.2881
   98SAPE   O14 9784   5.909   1.098   7.471  0.7290 -0.1735  0.0752
   98SAPE   O12 9785   5.736   0.941   7.367  0.1962 -0.5899 -0.2643
   98SAPE   O11 9786   5.854   1.126   7.232  0.7442  0.2464  0.2308
   98SAPE    C1 9787   5.871   1.259   7.188 -0.1474 -0.4476 -0.4619
   98SAPE    HA 9788   5.889   1.326   7.274 -0.0309 -1.5958  0.4336
   98SAPE    HB 9789   5.962   1.264   7.124 -1.9101 -3.2490 -3.4911
   98SAPE    C2 9790   5.750   1.309   7.105  0.2764 -0.4974  1.0237
   98SAPE    HS 9791   5.670   1.233   7.113 -1.1654  0.8258 -0.0700
   98SAPE   O21 9792   5.795   1.324   6.968  0.0851 -0.4943 -0.0061
   98SAPE   C21 9793   5.766   1.236   6.878  0.9076  0.4996  0.3619
   98SAPE   O22 9794   5.708   1.132   6.901  0.1998  0.2104 -0.0432
   98SAPE   C22 9795   5.815   1.267   6.741 -0.1055  0.7334 -0.2213
   98SAPE   H2R 9796   5.750   1.341   6.690 -0.8211 -0.8978 -1.8049
   98SAPE   H2S 9797   5.921   1.299   6.750 -0.3048  1.2211  0.4792
   98SAPE    C3 9798   5.692   1.446   7.147 -0.2300  0.6385  0.3389
   98SAPE    HX 9799   5.773   1.518   7.122 -1.6494  1.5816 -1.8391
   98SAPE    HY 9800   5.657   1.448   7.252 -0.7451  0.8783  0.1662
   98SAPE   O31 9801   5.584   1.476   7.054  0.3551  0.2458  0.5774
   98SAPE   C31 9802   5.547   1.604   7.070  1.0005 -0.3728  0.8913
   98SAPE   O32 9803   5.582   1.686   7.151  0.3432 -0.2156 -0.4526
   98SAPE   C32 9804   5.451   1.636   6.946 -0.0296 -0.3803  1.1692
   98SAPE   H2X 9805   5.401   1.735   6.951 -0.3878 -0.2593 -2.3779
   98SAPE   H2Y 9806   5.374   1.556   6.950 -0.2690 -0.3861 -1.6188
   98SAPE   C23 9807   5.817   1.127   6.665 -0.1149  0.3159  0.5318
   98SAPE   H3R 9808   5.712   1.092   6.653 -0.0249  0.0391  0.5560
   98SAPE   H3S 9809   5.879   1.041   6.698 -1.1264 -1.0759 -1.0196
   98SAPE   C24 9810   5.868   1.149   6.521 -0.0691  0.0981  0.4997
   98SAPE   H4R 9811   5.859   1.048   6.474  0.6211 -0.4432  1.4981
   98SAPE   H4S 9812   5.978   1.161   6.532 -0.0600  0.8642 -0.3513
   98SAPE   C25 9813   5.806   1.256   6.431 -0.1678  0.2560  0.0921
   98SAPE   H5R 9814   5.800   1.358   6.472  1.0063  0.0292  0.8807
   98SAPE   C26 9815   5.759   1.244   6.306  0.2171  0.2285 -0.7083
   98SAPE   H6R 9816   5.716   1.331   6.255 -1.7736 -0.0764  0.3606
   98SAPE   C27 9817   5.747   1.118   6.223  0.0167  0.4462  0.1450
   98SAPE   H7R 9818   5.669   1.143   6.147  0.2236  0.5795 -0.0250
   98SAPE   H7S 9819   5.715   1.027   6.278 -1.6830  1.7051  1.3464
   98SAPE   C28 9820   5.877   1.097   6.155 -0.2543  1.1885 -0.5528
   98SAPE   H8R 9821   5.957   1.094   6.230 -0.5460  0.7902 -0.2508
   98SAPE   C29 9822   5.902   1.087   6.023 -0.6112 -1.0762 -0.0856
   98SAPE   H9R 9823   6.001   1.056   5.987 -0.2561 -0.2607  0.1722
   98SAPE  C210 9824   5.812   1.111   5.905 -0.3852 -0.1686 -0.5694
   98SAPE  H10R 9825   5.853   1.188   5.836 -0.3111 -1.7859 -2.4071
   98SAPE  H10S 9826   5.721   1.163   5.940  1.1525  1.6118  1.0325
   98SAPE  C211 9827   5.763   0.990   5.821  0.6506 -0.0808  0.0312
   98SAPE  H11R 9828   5.742   0.905   5.887 -2.7916 -1.2081 -2.2165
   98SAPE  C212 9829   5.759   0.976   5.688 -0.3438  0.5460  0.2345
   98SAPE  H12R 9830   5.702   0.892   5.646  1.6654 -0.5218 -0.4617
   98SAPE  C213 9831   5.819   1.069   5.580 -0.4337  0.2046  0.0185
   98SAPE  H13R 9832   5.887   1.004   5.521 -1.8901 -0.5800 -0.8212
   98SAPE  H13S 9833   5.889   1.143   5.626  1.5784 -2.3010  1.2751
   98SAPE  C214 9834   5.722   1.143   5.499 -0.3915 -0.4176 -0.1016
   98SAPE  H14R 9835   5.690   1.237   5.547 -1.8599  0.6115 -2.8586
   98SAPE  C215 9836   5.670   1.102   5.384  0.0896  0.0508 -0.7063
   98SAPE  H15R 9837   5.592   1.164   5.339 -0.0444 -0.7170 -1.5475
   98SAPE  C216 9838   5.711   0.977   5.309  0.5520 -0.4414 -0.1408
   98SAPE  H16R 9839   5.625   0.932   5.255  1.1722 -0.3663 -1.2182
   98SAPE  H16S 9840   5.746   0.898   5.379 -2.2090 -1.1519  0.5478
   98SAPE  C217 9841   5.827   1.008   5.208 -0.3762  0.2109 -0.0152
   98SAPE  H17R 9842   5.867   0.913   5.168 -1.4025 -0.3511  0.2701
   98SAPE  H17S 9843   5.904   1.071   5.259 -1.4927  1.2670  0.4295
   98SAPE  C218 9844   5.780   1.101   5.092 -0.3044 -0.3431 -0.5341
   98SAPE  H18R 9845   5.864   1.137   5.029  0.8719  0.0605  1.1665
   98SAPE  H18S 9846   5.741   1.200   5.123  1.4271  0.2803 -0.1875
   98SAPE  C219 9847   5.682   1.028   4.999  0.5428  1.3131  0.0016
   98SAPE  H19R 9848   5.603   0.973   5.054  0.8395  1.5778  0.7101
   98SAPE  H19S 9849   5.736   0.943   4.952 -0.3597  1.1223 -0.7219
   98SAPE  C220 9850   5.623   1.113   4.885  0.7233  0.4417  0.0584
   98SAPE  H20R 9851   5.699   1.155   4.816 -0.8556 -0.9333 -2.7057
   98SAPE  H20S 9852   5.549   1.190   4.913 -1.1363 -1.4783  0.7441
   98SAPE  H20T 9853   5.567   1.047   4.815 -1.7837  0.1831  2.1691
   98SAPE   C33 9854   5.527   1.632   6.813  0.5891  0.7609  0.0192
   98SAPE   H3X 9855   5.576   1.532   6.819  1.4395  1.1559 -0.1651
   98SAPE   H3Y 9856   5.614   1.701   6.800  0.7415  0.6732  0.5568
   98SAPE   C34 9857   5.443   1.638   6.681  0.2505 -0.2935  0.0687
   98SAPE   H4X 9858   5.406   1.742   6.669 -0.0889 -0.4753 -0.5069
   98SAPE   H4Y 9859   5.360   1.564   6.680 -0.8792  0.9136 -1.4326
   98SAPE   C35 9860   5.533   1.610   6.553 -0.4303  0.1168 -0.6959
   98SAPE   H5X 9861   5.576   1.508   6.565  1.5267  1.1483  2.0840
   98SAPE   H5Y 9862   5.605   1.693   6.539  2.7193 -1.8651  2.2466
   98SAPE   C36 9863   5.440   1.608   6.428  0.1465 -0.0674  0.2330
   98SAPE   H6X 9864   5.417   1.716   6.412  0.6666 -0.1271 -0.9963
   98SAPE   H6Y 9865   5.344   1.559   6.452 -1.5991  2.2693 -1.4690
   98SAPE   C37 9866   5.512   1.540   6.307  0.1393  0.7491  0.1994
   98SAPE   H7X 9867   5.529   1.434   6.333  2.8639  0.7884 -1.0668
   98SAPE   H7Y 9868   5.613   1.586   6.312  0.3711  0.2249  0.3090
   98SAPE   C38 9869   5.452   1.558   6.166  0.1404 -0.5268 -0.1590
   98SAPE   H8X 9870   5.414   1.662   6.158 -0.9617 -0.9829 -1.1003
   98SAPE   H8Y 9871   5.361   1.498   6.143 -0.9773  0.2199  2.0662
   98SAPE   C39 9872   5.553   1.541   6.053 -0.3533 -0.3120 -1.0426
   98SAPE   H9X 9873   5.624   1.460   6.079 -0.2562  0.5076  1.5217
   98SAPE   H9Y 9874   5.622   1.627   6.040  0.7045 -1.3227 -2.4555
   98SAPE  C310 9875   5.482   1.513   5.921  0.1856 -0.1808 -0.4492
   98SAPE  H10X 9876   5.413   1.596   5.894  0.9558  0.0013 -1.9738
   98SAPE  H10Y 9877   5.420   1.421   5.925 -2.3149  1.1735 -3.3619
   98SAPE  C311 9878   5.582   1.496   5.798  0.1510 -0.7501 -0.0086
   98SAPE  H11X 9879   5.637   1.400   5.814  1.6966 -0.0879 -1.0914
   98SAPE  H11Y 9880   5.659   1.574   5.814  1.6562 -2.4643  1.8133
   98SAPE  C312 9881   5.524   1.497   5.659 -0.4737 -0.7850  0.7086
   98SAPE  H12X 9882   5.454   1.583   5.657  1.2076  0.6313  0.3946
   98SAPE  H12Y 9883   5.476   1.401   5.631  0.0456 -1.1387  1.0121
   98SAPE  C313 9884   5.627   1.520   5.550  0.6035 -0.1120  0.4695
   98SAPE  H13X 9885   5.705   1.440   5.555  0.7450  0.1202  2.9591
   98SAPE  H13Y 9886   5.677   1.616   5.573 -1.5148  0.5423  2.6830
   98SAPE  C314 9887   5.564   1.513   5.408  0.1652 -0.3251  0.3660
   98SAPE  H14X 9888   5.517   1.613   5.391 -0.9226 -0.8444  0.2314
   98SAPE  H14Y 9889   5.484   1.436   5.409  0.7306 -0.9098  0.6078
   98SAPE  C315 9890   5.654   1.473   5.291 -0.1238 -0.4150  0.7150
   98SAPE  H15X 9891   5.691   1.370   5.312 -0.4025 -0.4681  0.9527
   98SAPE  H15Y 9892   5.747   1.534   5.291 -0.5799  0.4361  3.4304
   98SAPE  C316 9893   5.587   1.475   5.150 -0.7911  0.1884 -0.2125
   98SAPE  H16X 9894   5.495   1.412   5.159  1.2473 -3.1365 -1.0368
   98SAPE  H16Y 9895   5.668   1.429   5.090 -0.5570 -1.2992  1.1569
   98SAPE  C317 9896   5.555   1.621   5.102  0.3247  0.5166  0.7803
   98SAPE  H17X 9897   5.633   1.696   5.127  0.7399  0.8442 -1.3343
   98SAPE  H17Y 9898   5.453   1.653   5.134 -0.1182  1.3099 -1.2911
   98SAPE  C318 9899   5.562   1.602   4.953 -0.1503 -0.2491 -0.3535
   98SAPE  H18X 9900   5.482   1.543   4.903 -0.0713  0.1893 -1.0163
   98SAPE  H18Y 9901   5.661   1.553   4.941  0.6604  0.5954  2.2667
   98SAPE  H18Z 9902   5.557   1.704   4.908  0.2953 -0.3865 -0.7174
   99SAPE     N 9903   4.878   0.519   6.978  0.9885  0.6437  0.0382
   99SAPE   HN1 9904   4.970   0.478   6.953  0.6267  0.2240 -0.6582
   99SAPE   HN2 9905   4.813   0.502   6.898  1.8219 -1.2604 -0.2829
   99SAPE   HN3 9906   4.885   0.622   6.990  0.4730  0.6093  0.7279
   99SAPE   C12 9907   4.810   0.466   7.107  0.6325 -0.2117  0.3241
   99SAPE  H12A 9908   4.702   0.489   7.096  0.4581 -0.3318  1.6758
   99SAPE  H12B 9909   4.866   0.507   7.193  0.3385 -0.8580  0.8367
   99SAPE   C11 9910   4.818   0.309   7.111  0.5993 -0.0802 -0.1054
   99SAPE  H11A 9911   4.924   0.277   7.102  0.7869  0.1760  0.9818
   99SAPE  H11B 9912   4.774   0.262   7.021 -2.0666 -1.1610  1.6543
   99SAPE     P 9913   4.611   0.216   7.246  0.2575  0.5490 -0.0272
   99SAPE   O13 9914   4.615   0.129   7.367 -0.1835  0.0517  0.1560
   99SAPE   O14 9915   4.535   0.340   7.259  0.3355  0.4928 -0.0871
   99SAPE   O12 9916   4.766   0.254   7.227  0.4500 -0.0957  0.1590
   99SAPE   O11 9917   4.566   0.139   7.116  0.4577 -0.0818  0.1916
   99SAPE    C1 9918   4.442   0.166   7.055 -0.5362 -0.1021  1.1507
   99SAPE    HA 9919   4.401   0.081   6.997 -0.6475  1.0850 -0.5545
   99SAPE    HB 9920   4.365   0.186   7.133 -0.4394  2.6503  0.6383
   99SAPE    C2 9921   4.444   0.294   6.967 -0.3888 -0.0056  0.1997
   99SAPE    HS 9922   4.506   0.366   7.024  2.0283 -2.8312  1.3552
   99SAPE   O21 9923   4.301   0.333   6.946 -0.4316  0.0025  0.5940
   99SAPE   C21 9924   4.288   0.458   6.913  1.0065  0.2597  0.4423
   99SAPE   O22 9925   4.364   0.552   6.934  0.4626  0.2410  0.0497
   99SAPE   C22 9926   4.148   0.479   6.854  0.7848 -0.1378 -0.2522
   99SAPE   H2R 9927   4.127   0.587   6.871 -0.3769 -0.2529 -0.8938
   99SAPE   H2S 9928   4.151   0.447   6.748  0.0718  1.1236 -0.6798
   99SAPE    C3 9929   4.518   0.265   6.832  0.2155 -0.7610  0.4278
   99SAPE    HX 9930   4.467   0.174   6.794  1.4325 -1.7237  1.0370
   99SAPE    HY 9931   4.623   0.230   6.843 -0.1328 -2.5261 -1.2700
   99SAPE   O31 9932   4.497   0.375   6.731 -0.7318  0.0805 -0.1137
   99SAPE   C31 9933   4.582   0.474   6.736  0.4926  1.0941  0.0598
   99SAPE   O32 9934   4.685   0.483   6.795  0.1129  0.1665 -0.1223
   99SAPE   C32 9935   4.522   0.589   6.666  0.1524 -1.0257  0.0003
   99SAPE   H2X 9936   4.598   0.670   6.660 -1.6571  0.6678 -1.2434
   99SAPE   H2Y 9937   4.432   0.624   6.721 -0.1609 -1.0707 -0.4714
   99SAPE   C23 9938   4.037   0.404   6.937 -0.6451 -0.8583  0.7478
   99SAPE   H3R 9939   4.040   0.434   7.044 -1.2620 -0.7129  0.7268
   99SAPE   H3S 9940   4.071   0.298   6.933  1.8382 -0.0710 -1.4445
   99SAPE   C24 9941   3.902   0.421   6.877 -0.1180  0.5202 -0.3409
   99SAPE   H4R 9942   3.865   0.521   6.906 -0.6241 -0.1169  1.3466
   99SAPE   H4S 9943   3.826   0.353   6.920 -0.2214  0.7918 -0.0956
   99SAPE   C25 9944   3.888   0.390   6.726 -0.0457 -0.5483  0.0491
   99SAPE   H5R 9945   3.907   0.288   6.692 -0.6802 -0.3664 -0.8768
   99SAPE   C26 9946   3.840   0.480   6.641 -0.0765 -0.1434  0.1480
   99SAPE   H6R 9947   3.844   0.457   6.533  0.4977  1.6953 -0.2485
   99SAPE   C27 9948   3.795   0.621   6.673 -0.6205  0.7135  0.1680
   99SAPE   H7R 9949   3.878   0.675   6.724  2.4668 -0.1996 -3.4164
   99SAPE   H7S 9950   3.715   0.619   6.751 -1.0103  0.9786 -0.2218
   99SAPE   C28 9951   3.756   0.696   6.549  0.0571  0.0109 -0.9589
   99SAPE   H8R 9952   3.656   0.675   6.508 -1.3017  2.2000  0.9703
   99SAPE   C29 9953   3.814   0.813   6.503 -0.0289  0.3782 -0.1251
   99SAPE   H9R 9954   3.774   0.839   6.404  0.8902 -1.8308 -1.1553
   99SAPE  C210 9955   3.943   0.861   6.546 -0.0263 -0.5598 -0.3512
   99SAPE  H10R 9956   4.024   0.790   6.516 -0.9212 -1.0740 -1.6513
   99SAPE  H10S 9957   3.948   0.853   6.657 -1.0607  1.7052 -0.1031
   99SAPE  C211 9958   3.991   0.987   6.504 -0.5007 -0.2806  0.9231
   99SAPE  H11R 9959   3.979   1.063   6.583 -0.3903  1.6054 -0.7626
   99SAPE  C212 9960   4.026   1.026   6.379  0.0779 -0.6100  0.4062
   99SAPE  H12R 9961   4.061   1.130   6.368 -1.1039 -0.2492 -0.0851
   99SAPE  C213 9962   4.054   0.934   6.259 -0.2964  0.3264 -0.1880
   99SAPE  H13R 9963   4.019   0.967   6.159  0.9265 -1.7481 -1.3863
   99SAPE  H13S 9964   4.009   0.834   6.279 -0.2851  0.2525 -0.5364
   99SAPE  C214 9965   4.210   0.926   6.264  0.0882  0.1375  0.1124
   99SAPE  H14R 9966   4.268   1.005   6.314  2.6012 -1.1036 -0.6906
   99SAPE  C215 9967   4.286   0.841   6.196  0.3781  0.6974 -0.0796
   99SAPE  H15R 9968   4.394   0.850   6.214  0.5549  0.5152 -0.9754
   99SAPE  C216 9969   4.229   0.733   6.101  0.3442  0.0996  0.7569
   99SAPE  H16R 9970   4.126   0.707   6.134  0.5333  0.2318  1.4748
   99SAPE  H16S 9971   4.298   0.646   6.106  0.7380  0.3456 -0.1527
   99SAPE  C217 9972   4.210   0.764   5.949 -0.0162 -0.5373 -0.5269
   99SAPE  H17R 9973   4.309   0.804   5.921  0.6060 -0.7879  1.2161
   99SAPE  H17S 9974   4.135   0.845   5.937  1.5683  0.7046 -2.7064
   99SAPE  C218 9975   4.163   0.639   5.868  0.0722  0.1414  0.1971
   99SAPE  H18R 9976   4.071   0.591   5.909  0.9589 -1.6139  0.2283
   99SAPE  H18S 9977   4.242   0.561   5.872 -0.3583 -0.4356 -1.4937
   99SAPE  C219 9978   4.147   0.677   5.723  0.7583 -0.0290  0.4230
   99SAPE  H19R 9979   4.236   0.726   5.678 -0.3328  0.9591 -0.7436
   99SAPE  H19S 9980   4.068   0.748   5.690  0.8709  0.7977  1.8840
   99SAPE  C220 9981   4.131   0.543   5.641 -0.4340 -0.6512  0.6369
   99SAPE  H20R 9982   4.110   0.569   5.535  0.4531 -0.7423  0.4316
   99SAPE  H20S 9983   4.041   0.493   5.683 -2.1888  2.6256  1.1361
   99SAPE  H20T 9984   4.224   0.483   5.646 -0.2445 -0.4735 -0.5644
   99SAPE   C33 9985   4.465   0.563   6.522 -0.2876  0.0398 -0.5110
   99SAPE   H3X 9986   4.419   0.656   6.482 -1.2370 -0.1830  0.0293
   99SAPE   H3Y 9987   4.400   0.473   6.513 -0.8023  0.1892  1.3382
   99SAPE   C34 9988   4.586   0.520   6.432  0.0853 -0.0897  0.0790
   99SAPE   H4X 9989   4.638   0.432   6.476  2.8953  1.2481 -0.3524
   99SAPE   H4Y 9990   4.667   0.594   6.417 -0.3891  1.0073  2.4729
   99SAPE   C35 9991   4.535   0.474   6.291 -0.0671  1.2613 -0.1945
   99SAPE   H5X 9992   4.427   0.495   6.277 -0.0588 -0.1932 -3.1155
   99SAPE   H5Y 9993   4.556   0.364   6.293 -1.1261  1.0161  2.8356
   99SAPE   C36 9994   4.598   0.534   6.170 -0.5352 -0.0994 -0.0255
   99SAPE   H6X 9995   4.706   0.508   6.176 -0.7710 -0.8914  1.1525
   99SAPE   H6Y 9996   4.590   0.644   6.184 -2.1955 -0.5307  3.3471
   99SAPE   C37 9997   4.549   0.488   6.026  0.2940  0.3740  0.0776
   99SAPE   H7X 9998   4.450   0.533   6.005  1.3553  1.7236 -2.4283
   99SAPE   H7Y 9999   4.530   0.380   6.007  0.2221  0.6303 -1.4064
   99SAPE   C3810000   4.651   0.541   5.921 -0.1670 -0.1381 -0.9807
   99SAPE   H8X10001   4.752   0.496   5.933  0.9888  2.3247 -0.6471
   99SAPE   H8Y10002   4.679   0.643   5.956 -0.4266 -0.9711  1.9561
   99SAPE   C3910003   4.583   0.529   5.785 -0.2766  0.3191  0.2870
   99SAPE   H9X10004   4.492   0.592   5.783  0.1284  0.8884 -0.3366
   99SAPE   H9Y10005   4.551   0.425   5.761 -0.4252  0.0352  1.6357
   99SAPE  C31010006   4.674   0.581   5.662 -0.6367 -0.1683 -0.0503
   99SAPE  H10X10007   4.757   0.507   5.659  0.0592  0.6368 -0.9146
   99SAPE  H10Y10008   4.714   0.682   5.684  1.1606 -0.8579  0.0507
   99SAPE  C31110009   4.600   0.574   5.531 -0.0081 -0.3545 -0.2404
   99SAPE  H11X10010   4.518   0.649   5.536  2.5842  2.6776 -0.3101
   99SAPE  H11Y10011   4.539   0.481   5.524 -0.2738 -0.2754  0.8183
   99SAPE  C31210012   4.693   0.600   5.406 -0.8721  0.0882 -0.0796
   99SAPE  H12X10013   4.776   0.527   5.407 -1.4092 -0.5473 -0.6173
   99SAPE  H12Y10014   4.734   0.703   5.419 -1.4769  0.5772 -1.6887
   99SAPE  C31310015   4.619   0.597   5.277  0.3942 -0.5927  0.0354
   99SAPE  H13X10016   4.521   0.646   5.289 -0.1063 -1.5261 -0.1640
   99SAPE  H13Y10017   4.597   0.495   5.237 -0.1721 -1.0836  1.5461
   99SAPE  C31410018   4.685   0.675   5.162  0.0311 -0.9630 -0.0873
   99SAPE  H14X10019   4.778   0.624   5.128 -0.1188 -0.7566 -0.8334
   99SAPE  H14Y10020   4.697   0.778   5.201 -1.3109 -1.2182  1.0608
   99SAPE  C31510021   4.595   0.689   5.037  0.0850  0.3864 -0.2042
   99SAPE  H15X10022   4.495   0.730   5.062 -0.4484 -0.7408 -0.3977
   99SAPE  H15Y10023   4.579   0.590   4.990  0.6117 -0.0290  0.4651
   99SAPE  C31610024   4.652   0.787   4.940  0.3903 -0.2720  0.2926
   99SAPE  H16X10025   4.612   0.760   4.840  2.0172 -1.1849 -0.1579
   99SAPE  H16Y10026   4.762   0.787   4.927  0.5188  0.6172  1.3285
   99SAPE  C31710027   4.607   0.931   4.985  0.2239  0.8682  0.2822
   99SAPE  H17X10028   4.646   0.943   5.089 -1.9758 -1.2021  1.4648
   99SAPE  H17Y10029   4.496   0.928   4.980  0.1755  1.2842  0.9402
   99SAPE  C31810030   4.653   1.053   4.890  0.7679 -0.2802 -0.2477
   99SAPE  H18X10031   4.610   1.046   4.788  1.9330 -1.1835 -0.6991
   99SAPE  H18Y10032   4.763   1.067   4.883  0.8012 -0.2496  0.3060
   99SAPE  H18Z10033   4.614   1.147   4.934  0.8484  1.3573 -3.4417
  100SAPE     N10034   1.276   0.015   7.262 -0.1068 -0.3601  0.0786
  100SAPE   HN110035   1.260  -0.088   7.256 -1.0824 -0.4686  2.9841
  100SAPE   HN210036   1.184   0.053   7.293  0.3257  1.8390 -1.1179
  100SAPE   HN310037   1.288   0.040   7.162 -1.7061  2.5781  0.5220
  100SAPE   C1210038   1.392   0.053   7.352 -0.2013 -0.2233 -0.2727
  100SAPE  H12A10039   1.404  -0.033   7.421 -1.4059 -1.8516 -1.9785
  100SAPE  H12B10040   1.367   0.150   7.400  1.4417  0.8842 -1.5230
  100SAPE   C1110041   1.525   0.081   7.282 -0.7232  0.2749 -0.3546
  100SAPE  H11A10042   1.579  -0.016   7.286 -1.7406 -0.2599  0.6151
  100SAPE  H11B10043   1.581   0.145   7.354 -1.1107  0.4655 -0.2246
  100SAPE     P10044   1.652   0.175   7.078 -0.2402  0.2392  0.1473
  100SAPE   O1310045   1.683   0.308   7.135 -0.6995 -0.1662 -0.3961
  100SAPE   O1410046   1.753   0.063   7.089  0.1492 -0.2406 -0.5958
  100SAPE   O1210047   1.515   0.133   7.145  0.8045  0.1505  0.1816
  100SAPE   O1110048   1.613   0.197   6.931 -0.0932  0.5902  0.1467
  100SAPE    C110049   1.511   0.127   6.859  0.1422  0.1236 -0.4678
  100SAPE    HA10050   1.431   0.089   6.927  1.7260  0.3000  1.6102
  100SAPE    HB10051   1.462   0.191   6.783  0.3022 -1.2736 -1.8010
  100SAPE    C210052   1.584   0.006   6.800  0.1938 -0.8110 -0.2195
  100SAPE    HS10053   1.626  -0.047   6.888  1.4342 -1.5396 -1.2092
  100SAPE   O2110054   1.695   0.054   6.711  0.2956 -0.0661 -0.3603
  100SAPE   C2110055   1.789  -0.036   6.695  0.5509  0.3260  0.3646
  100SAPE   O2210056   1.800  -0.140   6.756  0.2876  0.0213  0.9929
  100SAPE   C2210057   1.894   0.019   6.595 -0.0851 -0.6931 -0.9672
  100SAPE   H2R10058   1.857   0.111   6.546 -0.4272 -0.9895 -1.2689
  100SAPE   H2S10059   1.974   0.059   6.661 -1.2689  1.4890 -0.7563
  100SAPE    C310060   1.482  -0.082   6.715  0.1563  0.2706 -0.2456
  100SAPE    HX10061   1.423  -0.008   6.657 -0.7491 -2.0898 -2.5147
  100SAPE    HY10062   1.416  -0.132   6.790 -0.6169  2.3297  0.5260
  100SAPE   O3110063   1.538  -0.179   6.626  0.3214 -0.1506  0.2365
  100SAPE   C3110064   1.445  -0.263   6.570 -0.3243 -0.4522  0.3146
  100SAPE   O3210065   1.329  -0.263   6.593  0.4043 -0.6730 -0.0200
  100SAPE   C3210066   1.514  -0.363   6.476  0.0733 -0.1119 -0.3702
  100SAPE   H2X10067   1.449  -0.453   6.475 -0.4724  0.2660 -1.4436
  100SAPE   H2Y10068   1.608  -0.398   6.521 -0.5571  0.1950  1.2495
  100SAPE   C2310069   1.932  -0.084   6.492 -0.2617 -0.1937 -0.1392
  100SAPE   H3R10070   1.839  -0.110   6.436 -1.1589  0.8632  0.8110
  100SAPE   H3S10071   1.968  -0.173   6.547  0.0683  0.4979  0.7780
  100SAPE   C2410072   2.044  -0.030   6.402  0.0214  0.0185  0.8436
  100SAPE   H4R10073   2.076  -0.116   6.340  1.5157  2.5118 -2.0879
  100SAPE   H4S10074   2.128   0.008   6.463  0.1256 -1.9124  1.9803
  100SAPE   C2510075   1.991   0.085   6.316 -0.2693 -0.2611 -1.1409
  100SAPE   H5R10076   1.990   0.174   6.380  0.5140 -1.8115  1.1388
  100SAPE   C2610077   1.957   0.089   6.186 -0.1727 -0.5536 -0.0688
  100SAPE   H6R10078   1.948   0.193   6.150 -0.5667  0.1765  2.0237
  100SAPE   C2710079   1.952  -0.027   6.086  0.2355 -0.2082  0.2264
  100SAPE   H7R10080   1.861  -0.028   6.022  0.9065 -1.0999 -0.7595
  100SAPE   H7S10081   1.940  -0.121   6.144  0.2183  0.3409  1.1321
  100SAPE   C2810082   2.072  -0.027   6.003  0.5108 -0.3995  0.0758
  100SAPE   H8R10083   2.166  -0.026   6.060  0.4572  0.4188  0.1608
  100SAPE   C2910084   2.091   0.017   5.877 -0.2525  0.0333 -0.4398
  100SAPE   H9R10085   2.193   0.012   5.837  0.0092  2.2084 -0.1325
  100SAPE  C21010086   1.986   0.051   5.779  0.8436 -0.7958 -0.1679
  100SAPE  H10R10087   1.889   0.072   5.830  2.6065  0.0662  3.1487
  100SAPE  H10S10088   1.965  -0.039   5.718  0.3870 -0.7606 -0.0697
  100SAPE  C21110089   2.022   0.172   5.701 -0.0090 -0.3332 -0.6084
  100SAPE  H11R10090   2.046   0.262   5.759  0.3472  0.5743 -2.1078
  100SAPE  C21210091   2.040   0.191   5.569 -0.0705 -0.2462 -0.4533
  100SAPE  H12R10092   2.065   0.291   5.532 -1.5906  0.8849  1.3860
  100SAPE  C21310093   2.034   0.088   5.465 -0.1617  0.1464  0.7119
  100SAPE  H13R10094   1.956   0.122   5.394 -0.6027 -1.9014  0.1525
  100SAPE  H13S10095   2.005  -0.013   5.503  0.4928  0.3396  1.7745
  100SAPE  C21410096   2.168   0.076   5.394  0.0295  0.2995  0.0742
  100SAPE  H14R10097   2.250   0.062   5.467  0.4128 -1.9989 -0.7178
  100SAPE  C21510098   2.191   0.089   5.262  0.8579 -0.3313 -0.0381
  100SAPE  H15R10099   2.285   0.051   5.218  0.6006 -2.1457  0.8771
  100SAPE  C21610100   2.076   0.116   5.157 -0.3353 -0.1810 -0.3471
  100SAPE  H16R10101   2.026   0.209   5.191 -3.4379 -0.7396 -2.8367
  100SAPE  H16S10102   1.997   0.038   5.165 -0.2950 -0.1425  0.4915
  100SAPE  C21710103   2.118   0.126   5.011 -0.0227  0.9313 -0.2429
  100SAPE  H17R10104   2.176   0.039   4.975 -1.0767 -1.0492  2.5178
  100SAPE  H17S10105   2.201   0.200   5.003  1.6073 -0.6851  0.9586
  100SAPE  C21810106   2.005   0.158   4.907 -0.2221 -0.7698 -0.3946
  100SAPE  H18R10107   1.921   0.087   4.925 -3.3313  2.5545 -0.5770
  100SAPE  H18S10108   2.036   0.143   4.801  2.3373 -1.5437  0.3764
  100SAPE  C21910109   1.941   0.299   4.949 -0.3110 -1.0233  0.3106
  100SAPE  H19R10110   2.024   0.366   4.979  0.6037 -0.8470 -2.3764
  100SAPE  H19S10111   1.878   0.295   5.041 -3.4997  1.6857 -1.5472
  100SAPE  C22010112   1.856   0.362   4.838 -0.2917 -0.0037  0.5647
  100SAPE  H20R10113   1.791   0.280   4.803 -0.9295  0.3245  0.9702
  100SAPE  H20S10114   1.928   0.409   4.767  1.7173 -3.7744 -0.1981
  100SAPE  H20T10115   1.792   0.442   4.881  0.1392  3.1722 -4.0195
  100SAPE   C3310116   1.527  -0.301   6.331 -0.5012  0.4113 -0.6768
  100SAPE   H3X10117   1.602  -0.219   6.339 -0.1786  0.2785 -2.0441
  100SAPE   H3Y10118   1.430  -0.268   6.290 -0.2745  0.1858 -1.4259
  100SAPE   C3410119   1.574  -0.401   6.220 -0.0396  0.1264 -0.4845
  100SAPE   H4X10120   1.489  -0.473   6.219  0.7489 -0.9034  0.9392
  100SAPE   H4Y10121   1.669  -0.448   6.255  0.3872  1.2744 -0.0671
  100SAPE   C3510122   1.589  -0.332   6.088 -0.7040 -0.7042 -0.0590
  100SAPE   H5X10123   1.669  -0.259   6.111 -0.9762 -1.1449  2.5851
  100SAPE   H5Y10124   1.496  -0.289   6.047 -0.7695  1.4309  2.1362
  100SAPE   C3610125   1.640  -0.431   5.986 -0.3343  0.5359 -0.4129
  100SAPE   H6X10126   1.582  -0.526   5.992 -0.3867  0.5704 -0.3732
  100SAPE   H6Y10127   1.744  -0.459   6.010  0.0704  0.2980 -2.3357
  100SAPE   C3710128   1.648  -0.377   5.848  0.3207 -0.2060  0.1449
  100SAPE   H7X10129   1.705  -0.282   5.849 -0.8677  0.6243 -2.5274
  100SAPE   H7Y10130   1.550  -0.348   5.804  1.4460  0.1362 -2.2985
  100SAPE   C3810131   1.693  -0.487   5.741 -0.4429 -0.5072 -0.1400
  100SAPE   H8X10132   1.615  -0.566   5.736  0.0602 -0.9906 -0.5637
  100SAPE   H8Y10133   1.789  -0.526   5.782 -2.4433 -2.4685  3.1111
  100SAPE   C3910134   1.719  -0.427   5.604 -0.5612  0.5375  0.1554
  100SAPE   H9X10135   1.642  -0.350   5.581 -0.1736  0.7334 -0.4949
  100SAPE   H9Y10136   1.705  -0.506   5.527 -0.6122 -0.3895  1.0942
  100SAPE  C31010137   1.866  -0.384   5.575 -0.3233  0.7701  0.5537
  100SAPE  H10X10138   1.927  -0.475   5.594 -1.9048 -0.9871 -2.0252
  100SAPE  H10Y10139   1.901  -0.303   5.642  0.8264  0.3676  0.4531
  100SAPE  C31110140   1.896  -0.338   5.429  0.4850 -0.0449 -0.0383
  100SAPE  H11X10141   1.841  -0.242   5.420 -0.5403 -0.5017  1.0781
  100SAPE  H11Y10142   1.855  -0.405   5.351  0.0751  0.9516 -0.7048
  100SAPE  C31210143   2.044  -0.314   5.406 -0.3597 -0.2801 -0.1571
  100SAPE  H12X10144   2.112  -0.393   5.446  0.4623  1.4483  2.0984
  100SAPE  H12Y10145   2.072  -0.230   5.474  3.8926 -0.6204 -1.2194
  100SAPE  C31310146   2.062  -0.265   5.262 -0.3050  0.0054 -0.5804
  100SAPE  H13X10147   2.156  -0.206   5.273 -0.7981  0.8764 -0.9648
  100SAPE  H13Y10148   1.983  -0.196   5.226  0.2546 -0.3091 -2.5181
  100SAPE  C31410149   2.078  -0.374   5.157 -0.3372 -0.2993  0.0930
  100SAPE  H14X10150   1.976  -0.417   5.167 -0.4794  0.3678  1.7192
  100SAPE  H14Y10151   2.152  -0.455   5.176  0.7653  0.3472 -1.2660
  100SAPE  C31510152   2.094  -0.314   5.016 -0.0416  0.0379 -0.7479
  100SAPE  H15X10153   2.199  -0.329   4.986 -0.3794 -0.4656 -1.7153
  100SAPE  H15Y10154   2.072  -0.205   5.007  3.5757  0.8822 -0.6509
  100SAPE  C31610155   2.008  -0.377   4.909 -0.5729  0.7193  0.9643
  100SAPE  H16X10156   1.900  -0.367   4.930 -0.6843  0.2886  0.6117
  100SAPE  H16Y10157   2.036  -0.484   4.918  0.5585  0.3930 -3.4944
  100SAPE  C31710158   2.036  -0.346   4.762  0.2803 -0.7088  0.6031
  100SAPE  H17X10159   1.997  -0.425   4.695  0.1156  0.0419 -0.2039
  100SAPE  H17Y10160   2.145  -0.359   4.744  0.4503  1.7284 -0.6551
  100SAPE  C31810161   1.994  -0.203   4.720  0.0599  0.0893  0.5677
  100SAPE  H18X10162   2.023  -0.198   4.613  1.1755 -2.8234  0.6550
  100SAPE  H18Y10163   2.052  -0.126   4.775  3.0773  2.3861 -4.9905
  100SAPE  H18Z10164   1.886  -0.179   4.732 -0.0389  0.3161 -0.6051
  101SAPE     N10165   2.202   1.953   6.912  0.1964  0.1995 -0.3165
  101SAPE   HN110166   2.266   1.940   6.830  2.0818  0.2524  1.0814
  101SAPE   HN210167   2.236   2.035   6.967  0.9612  0.1581 -0.7033
  101SAPE   HN310168   2.207   1.862   6.962  0.6129  0.5264  0.2514
  101SAPE   C1210169   2.054   1.945   6.897  0.3756  0.0521  0.0522
  101SAPE  H12A10170   2.042   1.876   6.811  2.3682  0.3533 -0.5261
  101SAPE  H12B10171   2.014   2.044   6.867 -1.4675 -0.1927  1.5773
  101SAPE   C1110172   1.994   1.891   7.025 -0.5867  0.6347 -0.1312
  101SAPE  H11A10173   1.883   1.883   7.018 -0.5381 -0.2173  0.0136
  101SAPE  H11B10174   2.023   1.955   7.111  3.3963 -0.9093 -0.1258
  101SAPE     P10175   1.982   1.622   6.996 -0.0090 -0.0948  0.0929
  101SAPE   O1310176   2.080   1.512   6.995  0.2951 -0.4152 -0.1158
  101SAPE   O1410177   1.857   1.595   7.071  0.0035 -0.0753 -0.0898
  101SAPE   O1210178   2.051   1.760   7.050  0.2070 -0.1374 -0.6877
  101SAPE   O1110179   1.940   1.653   6.844 -0.3008 -0.3296  0.4470
  101SAPE    C110180   1.893   1.538   6.765 -0.4019 -0.0105 -0.1497
  101SAPE    HA10181   1.953   1.449   6.794  1.5732  1.3349  0.1479
  101SAPE    HB10182   1.785   1.522   6.783 -0.6321  0.3549 -1.1402
  101SAPE    C210183   1.892   1.560   6.605  0.3347 -0.7499 -0.9432
  101SAPE    HS10184   1.993   1.530   6.569  0.7757 -0.6750  0.1653
  101SAPE   O2110185   1.871   1.698   6.559  1.1290  0.4747  0.1430
  101SAPE   C2110186   1.769   1.764   6.605  0.7659 -0.5263  0.6554
  101SAPE   O2210187   1.699   1.740   6.701 -0.0421 -0.4271  0.4816
  101SAPE   C2210188   1.751   1.888   6.508 -0.4695  0.8191  0.6736
  101SAPE   H2R10189   1.840   1.953   6.524  0.4234  0.2902 -1.6923
  101SAPE   H2S10190   1.768   1.844   6.407  2.6789  2.4872  0.3289
  101SAPE    C310191   1.796   1.465   6.527  0.5082 -0.5276 -0.4371
  101SAPE    HX10192   1.695   1.505   6.549  0.3858 -2.0909  2.2224
  101SAPE    HY10193   1.809   1.366   6.576  1.8766 -0.4125 -0.5150
  101SAPE   O3110194   1.831   1.450   6.385  0.1056  0.7051 -0.2318
  101SAPE   C3110195   1.762   1.528   6.295 -0.1624  0.9984  0.1502
  101SAPE   O3210196   1.679   1.612   6.330  0.3615  0.0083  0.6885
  101SAPE   C3210197   1.802   1.485   6.153  0.6546 -0.0956 -0.2006
  101SAPE   H2X10198   1.784   1.376   6.141  0.2315  0.1181 -1.7492
  101SAPE   H2Y10199   1.910   1.507   6.137  0.7679  0.9143  1.7488
  101SAPE   C2310200   1.621   1.973   6.528  0.0335  0.1158 -0.8875
  101SAPE   H3R10201   1.618   2.019   6.629  0.0402 -1.7890  0.0129
  101SAPE   H3S10202   1.538   1.900   6.525  0.2927 -0.3330  1.2394
  101SAPE   C2410203   1.597   2.091   6.428 -0.6363  0.5070  0.2789
  101SAPE   H4R10204   1.605   2.055   6.323  1.9104  0.5534  0.4124
  101SAPE   H4S10205   1.670   2.173   6.439  1.2563 -0.9285 -1.0464
  101SAPE   C2510206   1.464   2.155   6.464 -0.5814 -0.0162  0.6072
  101SAPE   H5R10207   1.468   2.208   6.560  0.1989  0.4483  0.3312
  101SAPE   C2610208   1.355   2.158   6.383 -0.2928 -0.2102 -0.4644
  101SAPE   H6R10209   1.265   2.198   6.432  0.3217 -2.6916  3.0067
  101SAPE   C2710210   1.342   2.097   6.249  0.2867 -0.3443 -0.2944
  101SAPE   H7R10211   1.440   2.084   6.199 -0.6891 -0.3143 -2.2976
  101SAPE   H7S10212   1.286   2.165   6.181 -1.7502 -0.9959  0.6678
  101SAPE   C2810213   1.275   1.962   6.260 -0.4820 -0.0230  0.0037
  101SAPE   H8R10214   1.225   1.943   6.356  1.4497  0.8750  1.2480
  101SAPE   C2910215   1.286   1.854   6.183  0.2258 -0.4698 -0.3893
  101SAPE   H9R10216   1.224   1.765   6.201 -3.2221  1.5754 -1.1849
  101SAPE  C21010217   1.358   1.850   6.057  1.5852 -0.3239 -0.1292
  101SAPE  H10R10218   1.442   1.923   6.064  0.3796  1.1126  0.0567
  101SAPE  H10S10219   1.291   1.886   5.976  1.1833  2.0210  1.1372
  101SAPE  C21110220   1.425   1.717   6.030  0.0665 -0.3643 -0.1934
  101SAPE  H11R10221   1.480   1.679   6.117 -0.4536  1.7693  1.1270
  101SAPE  C21210222   1.398   1.631   5.931 -0.4169  0.5709 -0.0008
  101SAPE  H12R10223   1.463   1.542   5.922  0.6623  1.4276 -0.8210
  101SAPE  C21310224   1.293   1.643   5.823  0.1905  0.5375  0.3843
  101SAPE  H13R10225   1.333   1.608   5.726 -0.5542  1.5288 -0.2982
  101SAPE  H13S10226   1.264   1.750   5.815 -1.1543  0.1922  0.4396
  101SAPE  C21410227   1.179   1.558   5.876  0.6097  0.1311 -0.1225
  101SAPE  H14R10228   1.178   1.575   5.985  0.4605  1.5326 -0.3187
  101SAPE  C21510229   1.102   1.458   5.828 -0.0700 -0.1217 -0.0743
  101SAPE  H15R10230   1.030   1.406   5.893  0.1270 -1.3621 -0.8153
  101SAPE  C21610231   1.094   1.407   5.684  0.1147 -0.8816 -0.5257
  101SAPE  H16R10232   1.058   1.302   5.682 -1.0439 -0.4899 -1.8289
  101SAPE  H16S10233   1.197   1.414   5.645  1.4848 -4.0410  2.0938
  101SAPE  C21710234   0.994   1.492   5.603 -0.9265 -0.1314 -0.7362
  101SAPE  H17R10235   1.033   1.596   5.595 -1.1184 -0.0982 -1.2883
  101SAPE  H17S10236   0.893   1.497   5.650 -0.3806 -0.8859  0.5561
  101SAPE  C21810237   0.975   1.458   5.454  0.2769  0.6546  0.1646
  101SAPE  H18R10238   0.924   1.362   5.433  0.3419  0.3721  1.2586
  101SAPE  H18S10239   1.080   1.444   5.420  0.0405  2.0510 -1.2670
  101SAPE  C21910240   0.923   1.571   5.372  0.0974  0.0052  0.4130
  101SAPE  H19R10241   0.973   1.666   5.403  0.1845  0.2821 -0.5517
  101SAPE  H19S10242   0.813   1.582   5.379  0.1693  0.4507  0.8548
  101SAPE  C22010243   0.955   1.569   5.218  0.9899 -0.0322 -0.5205
  101SAPE  H20R10244   0.892   1.492   5.168 -0.4660  0.5705  0.3007
  101SAPE  H20S10245   1.061   1.546   5.195  1.6822  0.5355  1.8046
  101SAPE  H20T10246   0.934   1.666   5.170 -0.0485 -0.5938 -1.2505
  101SAPE   C3310247   1.735   1.559   6.037 -0.2260 -0.1899 -0.6478
  101SAPE   H3X10248   1.743   1.669   6.046 -0.5642 -0.2543  0.7668
  101SAPE   H3Y10249   1.633   1.523   6.012 -0.5693  0.7878 -0.6665
  101SAPE   C3410250   1.808   1.518   5.910 -0.5046  0.5796  0.7142
  101SAPE   H4X10251   1.783   1.412   5.886  0.6125 -0.0721  2.2881
  101SAPE   H4Y10252   1.918   1.519   5.926 -0.4419 -1.4374  0.7415
  101SAPE   C3510253   1.787   1.612   5.791 -1.1515 -0.5035  0.0762
  101SAPE   H5X10254   1.804   1.717   5.825 -1.7410 -0.9721  1.8954
  101SAPE   H5Y10255   1.680   1.613   5.760 -1.1486 -0.3246  0.0683
  101SAPE   C3610256   1.862   1.576   5.659  0.3191  0.5013 -0.4583
  101SAPE   H6X10257   1.838   1.470   5.634 -0.4961 -0.6342  4.2472
  101SAPE   H6Y10258   1.970   1.573   5.683  0.4261 -0.4741 -0.9917
  101SAPE   C3710259   1.828   1.665   5.535 -0.1406  0.3700 -0.0225
  101SAPE   H7X10260   1.852   1.767   5.573 -0.1737  0.2382  0.3625
  101SAPE   H7Y10261   1.721   1.660   5.503 -0.0689  1.9136 -0.5648
  101SAPE   C3810262   1.919   1.621   5.420  0.2358 -0.1377 -0.5503
  101SAPE   H8X10263   1.868   1.532   5.375 -1.5146  1.6577 -2.3625
  101SAPE   H8Y10264   2.010   1.577   5.465 -0.2609 -1.6016 -0.9206
  101SAPE   C3910265   1.944   1.725   5.300 -0.3733  0.2853 -0.7094
  101SAPE   H9X10266   2.034   1.694   5.243 -2.0622 -1.4213 -2.6508
  101SAPE   H9Y10267   1.972   1.817   5.355 -0.3141 -0.0811 -0.1178
  101SAPE  C31010268   1.832   1.747   5.210  0.7666 -0.4088 -0.3582
  101SAPE  H10X10269   1.807   1.854   5.196 -2.3106 -1.1633 -1.3649
  101SAPE  H10Y10270   1.741   1.693   5.243  0.1026 -0.4063 -2.0855
  101SAPE  C31110271   1.843   1.695   5.072  0.0704 -0.3389 -0.2357
  101SAPE  H11X10272   1.843   1.584   5.075 -3.4725 -0.4540 -0.5044
  101SAPE  H11Y10273   1.933   1.739   5.024 -1.3842  0.9463 -1.9519
  101SAPE  C31210274   1.720   1.737   4.996  0.4065 -0.4298  0.0502
  101SAPE  H12X10275   1.723   1.848   4.997 -2.4823 -0.2826  1.2850
  101SAPE  H12Y10276   1.623   1.716   5.045  0.2759 -0.2983 -0.1493
  101SAPE  C31310277   1.704   1.680   4.856 -0.1478 -0.2167 -0.3953
  101SAPE  H13X10278   1.606   1.711   4.814  0.2344 -0.1872 -1.2928
  101SAPE  H13Y10279   1.698   1.571   4.873  0.7569 -0.1913  0.1900
  101SAPE  C31410280   1.825   1.702   4.761  0.3416 -0.2094  0.3949
  101SAPE  H14X10281   1.913   1.657   4.813  1.2335 -0.7452 -1.4961
  101SAPE  H14Y10282   1.834   1.813   4.760 -2.4132  0.0808  0.8371
  101SAPE  C31510283   1.806   1.644   4.620  0.0823  0.4707 -0.0059
  101SAPE  H15X10284   1.715   1.693   4.579 -1.5099 -1.3458  1.1954
  101SAPE  H15Y10285   1.794   1.534   4.629 -0.2146  0.4328 -0.7919
  101SAPE  C31610286   1.922   1.669   4.528  0.6992 -0.5784  0.1576
  101SAPE  H16X10287   2.013   1.628   4.577  1.8229  0.0988 -1.2995
  101SAPE  H16Y10288   1.946   1.776   4.517 -0.8574 -0.3263 -1.3385
  101SAPE  C31710289   1.897   1.608   4.391 -0.5230 -0.1896  0.4589
  101SAPE  H17X10290   1.821   1.671   4.340 -0.1666 -0.0950  0.0374
  101SAPE  H17Y10291   1.849   1.509   4.404 -3.4463  0.9279 -0.9827
  101SAPE  C31810292   2.017   1.596   4.291  0.0166 -0.3498  0.0928
  101SAPE  H18X10293   2.100   1.542   4.342  2.4558  2.2759 -0.7861
  101SAPE  H18Y10294   2.064   1.695   4.270 -3.2092  0.8018 -2.5348
  101SAPE  H18Z10295   1.988   1.547   4.196  0.1039 -0.1546 -0.0350
  102SAPE     N10296   1.872   0.477   7.114 -0.0254 -0.6796 -0.6202
  102SAPE   HN110297   1.864   0.539   7.197 -2.0533 -0.9338 -0.5627
  102SAPE   HN210298   1.791   0.412   7.120 -0.1962 -0.2899  3.1410
  102SAPE   HN310299   1.954   0.415   7.128  0.1681 -0.2360  0.2832
  102SAPE   C1210300   1.847   0.557   6.994 -0.4426 -0.0694 -0.2937
  102SAPE  H12A10301   1.887   0.496   6.911  0.4549 -2.0072  1.4691
  102SAPE  H12B10302   1.911   0.647   7.009  0.0901 -0.7619  1.9068
  102SAPE   C1110303   1.696   0.579   6.971 -0.1066 -0.3208 -0.7056
  102SAPE  H11A10304   1.649   0.479   6.966  0.0291 -0.4757  0.7461
  102SAPE  H11B10305   1.672   0.631   6.875  1.1822  2.5198  0.3960
  102SAPE     P10306   1.631   0.806   7.100  0.4660 -0.1023  0.0596
  102SAPE   O1310307   1.571   0.825   7.236  0.1010 -0.1149  0.0577
  102SAPE   O1410308   1.762   0.871   7.080  0.3390  0.3197  0.0732
  102SAPE   O1210309   1.639   0.650   7.078 -0.5525  0.0925  0.5660
  102SAPE   O1110310   1.533   0.864   6.997  0.4389 -0.2462  0.3014
  102SAPE    C110311   1.450   0.792   6.902  0.1348 -0.1637 -0.6711
  102SAPE    HA10312   1.516   0.749   6.824 -0.9673 -1.2927 -1.0239
  102SAPE    HB10313   1.412   0.703   6.956  1.7428  1.2770  3.2008
  102SAPE    C210314   1.345   0.893   6.839 -0.2741  0.4382 -0.1052
  102SAPE    HS10315   1.290   0.834   6.762  1.0696  0.8111 -1.4024
  102SAPE   O2110316   1.414   1.005   6.782 -0.1354  0.2991 -0.0828
  102SAPE   C2110317   1.445   0.989   6.652  0.5608 -0.7723  0.5535
  102SAPE   O2210318   1.414   0.892   6.590  0.5756  0.1373  0.0975
  102SAPE   C2210319   1.515   1.117   6.592  0.1697  0.6634  0.3193
  102SAPE   H2R10320   1.529   1.195   6.670 -1.3715 -0.0006  1.3127
  102SAPE   H2S10321   1.614   1.075   6.564 -0.5562 -2.2705  1.8432
  102SAPE    C310322   1.254   0.946   6.955 -0.6394 -0.5702 -0.6915
  102SAPE    HX10323   1.322   0.997   7.026  0.7046  0.5759 -2.6968
  102SAPE    HY10324   1.214   0.858   7.011 -0.1527 -1.6267 -1.9397
  102SAPE   O3110325   1.151   1.040   6.913 -0.6683 -0.1865  0.2976
  102SAPE   C3110326   1.056   0.998   6.836  0.3523 -0.5755  0.6260
  102SAPE   O3210327   1.048   0.888   6.786  0.2369  0.3034 -0.1943
  102SAPE   C3210328   0.980   1.126   6.789  0.2058  0.3668  0.0425
  102SAPE   H2X10329   1.045   1.216   6.780 -0.7327  1.0924  0.2565
  102SAPE   H2Y10330   0.918   1.155   6.877  0.0131 -0.4187  0.1733
  102SAPE   C2310331   1.437   1.168   6.471 -1.1004  0.0453  0.0729
  102SAPE   H3R10332   1.362   1.245   6.499 -1.6011  0.4189 -2.1062
  102SAPE   H3S10333   1.391   1.089   6.408  1.8390 -0.2926 -1.8567
  102SAPE   C2410334   1.527   1.261   6.378 -0.2683  0.5135 -0.0119
  102SAPE   H4R10335   1.587   1.199   6.308 -0.9682 -0.7402  0.4657
  102SAPE   H4S10336   1.585   1.331   6.442 -0.7434  0.9058  0.0030
  102SAPE   C2510337   1.450   1.349   6.286  0.0095  0.3831  0.7922
  102SAPE   H5R10338   1.420   1.444   6.332  1.3438  1.1786  0.0657
  102SAPE   C2610339   1.413   1.318   6.161  0.0207 -0.9830 -0.3854
  102SAPE   H6R10340   1.350   1.387   6.102 -2.0944 -2.8557 -0.4856
  102SAPE   C2710341   1.450   1.195   6.074  0.0919 -0.2183 -0.0963
  102SAPE   H7R10342   1.465   1.103   6.134  2.9992 -0.2672 -0.7764
  102SAPE   H7S10343   1.549   1.218   6.031  0.3452  1.1443  1.1272
  102SAPE   C2810344   1.337   1.166   5.975  0.1982 -0.2097  0.5323
  102SAPE   H8R10345   1.243   1.125   6.017  0.1848 -0.6288  0.1072
  102SAPE   C2910346   1.340   1.181   5.837  0.2551  0.0135 -0.3013
  102SAPE   H9R10347   1.245   1.165   5.783  0.3286  1.9340 -1.0909
  102SAPE  C21010348   1.451   1.246   5.757  0.1295  0.3919 -0.2440
  102SAPE  H10R10349   1.552   1.232   5.802 -0.1083  0.9217  0.4663
  102SAPE  H10S10350   1.436   1.356   5.755 -2.9045  0.0546 -0.3954
  102SAPE  C21110351   1.441   1.175   5.622  0.3080  0.4411  0.4834
  102SAPE  H11R10352   1.416   1.068   5.623  0.8633  0.2862 -0.4435
  102SAPE  C21210353   1.477   1.227   5.502  0.2012  0.0267 -0.2899
  102SAPE  H12R10354   1.472   1.167   5.410 -0.5541 -1.7306  0.8644
  102SAPE  C21310355   1.516   1.372   5.474 -0.2122  0.2054 -0.1443
  102SAPE  H13R10356   1.626   1.370   5.460 -0.2093 -0.7781 -0.0092
  102SAPE  H13S10357   1.493   1.435   5.562  0.5559 -1.1248  1.0413
  102SAPE  C21410358   1.452   1.427   5.353  0.7801  0.1488  0.1250
  102SAPE  H14R10359   1.362   1.489   5.366 -0.7055 -1.7044 -0.7812
  102SAPE  C21510360   1.498   1.417   5.227 -0.3750 -0.4668 -0.4850
  102SAPE  H15R10361   1.450   1.469   5.142  2.0521  0.5160 -1.3434
  102SAPE  C21610362   1.605   1.325   5.184 -0.0912  0.7452 -0.6518
  102SAPE  H16R10363   1.630   1.251   5.264  0.6851 -0.4971 -1.9880
  102SAPE  H16S10364   1.690   1.386   5.147  0.8384 -0.4412 -0.5241
  102SAPE  C21710365   1.554   1.240   5.062  0.2918  0.2105 -0.4231
  102SAPE  H17R10366   1.512   1.301   4.979  0.0526  1.3761  0.5300
  102SAPE  H17S10367   1.459   1.194   5.097 -0.6176  2.5136  0.3204
  102SAPE  C21810368   1.642   1.135   4.997 -0.0221 -0.3189 -0.2596
  102SAPE  H18R10369   1.711   1.098   5.076 -0.5937  4.6393  2.9663
  102SAPE  H18S10370   1.715   1.183   4.928 -1.0366 -0.2669 -1.3283
  102SAPE  C21910371   1.565   1.027   4.926  0.3042  0.6944 -0.1463
  102SAPE  H19R10372   1.500   0.965   4.991  2.4400 -2.4384 -0.7719
  102SAPE  H19S10373   1.633   0.956   4.875 -1.3324 -0.4533 -0.7981
  102SAPE  C22010374   1.474   1.084   4.819 -0.5607 -0.5606  0.1740
  102SAPE  H20R10375   1.408   1.005   4.776  1.1509 -0.6541 -2.5095
  102SAPE  H20S10376   1.538   1.117   4.735  0.6141 -2.3745  0.2981
  102SAPE  H20T10377   1.425   1.178   4.854  1.5760  0.0691  1.6838
  102SAPE   C3310378   0.878   1.109   6.674 -0.6050  0.1035  0.4879
  102SAPE   H3X10379   0.804   1.188   6.699  1.5667  2.3738  0.0739
  102SAPE   H3Y10380   0.822   1.014   6.657 -0.3537  0.0151  0.1318
  102SAPE   C3410381   0.946   1.145   6.537 -0.1159 -0.1905  0.4667
  102SAPE   H4X10382   0.995   1.245   6.545 -1.5788  0.4782  1.3593
  102SAPE   H4Y10383   0.858   1.158   6.470  0.2591 -0.2796 -0.0546
  102SAPE   C3510384   1.036   1.030   6.484 -0.0306  0.4569  0.1356
  102SAPE   H5X10385   0.975   0.939   6.499 -0.5031  0.7587  0.0787
  102SAPE   H5Y10386   1.128   1.031   6.546 -0.1481 -0.7191  0.3384
  102SAPE   C3610387   1.067   1.048   6.332  0.0950 -0.7072  0.0522
  102SAPE   H6X10388   1.120   1.145   6.332 -2.8246  1.0102 -0.3137
  102SAPE   H6Y10389   0.978   1.062   6.268  1.5271 -0.3017 -1.9348
  102SAPE   C3710390   1.156   0.942   6.279 -0.8530  0.3296  0.1193
  102SAPE   H7X10391   1.226   0.901   6.355 -0.4823  0.0358 -0.3730
  102SAPE   H7Y10392   1.230   0.989   6.210 -0.8960  2.3505  1.3702
  102SAPE   C3810393   1.094   0.821   6.205  0.2612  0.9498 -0.1030
  102SAPE   H8X10394   1.008   0.874   6.159 -0.9904  0.7998  1.9127
  102SAPE   H8Y10395   1.049   0.748   6.276  2.1270 -0.0546  0.1091
  102SAPE   C3910396   1.173   0.743   6.102  0.3017 -1.4208 -0.0904
  102SAPE   H9X10397   1.117   0.651   6.074  0.5304 -1.1638 -1.4586
  102SAPE   H9Y10398   1.270   0.710   6.146  0.5799  0.7204  1.0598
  102SAPE  C31010399   1.192   0.823   5.976  0.3320 -0.6638  0.3727
  102SAPE  H10X10400   1.298   0.856   5.984  0.2554 -0.2260 -0.2918
  102SAPE  H10Y10401   1.140   0.921   5.966 -1.4405 -1.3122  2.4477
  102SAPE  C31110402   1.185   0.732   5.855 -0.3595 -0.4961  0.2025
  102SAPE  H11X10403   1.089   0.677   5.840  0.3424 -2.1378  1.3752
  102SAPE  H11Y10404   1.262   0.657   5.884  0.3780  1.5028  4.1220
  102SAPE  C31210405   1.216   0.799   5.722  0.4462 -0.1831 -0.8852
  102SAPE  H12X10406   1.233   0.707   5.660  0.1898 -1.3522  0.7164
  102SAPE  H12Y10407   1.309   0.859   5.731 -0.8499  1.8472 -0.6522
  102SAPE  C31310408   1.105   0.897   5.681  0.3340 -0.1366  0.3536
  102SAPE  H13X10409   1.094   0.974   5.760 -1.2088 -1.2573  1.2840
  102SAPE  H13Y10410   1.003   0.852   5.685 -0.6673  2.0744  3.2057
  102SAPE  C31410411   1.115   0.953   5.537 -0.8622 -0.3689 -0.0587
  102SAPE  H14X10412   1.180   1.043   5.533 -1.1672 -0.1880 -1.1370
  102SAPE  H14Y10413   1.019   0.997   5.501 -0.3609 -1.1335 -2.4402
  102SAPE  C31510414   1.161   0.866   5.425  0.3001 -0.1621  0.3073
  102SAPE  H15X10415   1.076   0.797   5.407 -2.6229  2.6698  2.2090
  102SAPE  H15Y10416   1.259   0.818   5.448 -0.3247 -0.8406  1.6807
  102SAPE  C31610417   1.196   0.941   5.295 -0.5132 -0.8453 -0.2374
  102SAPE  H16X10418   1.240   0.879   5.214  1.6051  0.3755 -0.0840
  102SAPE  H16Y10419   1.282   1.009   5.311 -1.7910  1.0705 -1.1233
  102SAPE  C31710420   1.082   1.032   5.236 -0.1011  0.9949  0.9178
  102SAPE  H17X10421   1.043   1.086   5.324  1.0904  1.1040  1.3982
  102SAPE  H17Y10422   1.005   0.960   5.200 -0.0793  1.8844 -1.0108
  102SAPE  C31810423   1.138   1.134   5.142  0.2808  0.2456 -0.0333
  102SAPE  H18X10424   1.171   1.090   5.045  0.3856  2.2642 -0.9801
  102SAPE  H18Y10425   1.219   1.194   5.189 -0.9439 -0.3032  2.9907
  102SAPE  H18Z10426   1.058   1.204   5.108  1.6196  0.2898 -3.4839
  103SAPE     N10427   1.771   5.777   2.959  0.4326  0.4785 -0.1461
  103SAPE   HN110428   1.685   5.828   2.929  0.0447 -0.2202 -0.2390
  103SAPE   HN210429   1.795   5.699   2.894 -4.4024 -3.3831  2.0559
  103SAPE   HN310430   1.744   5.727   3.046 -0.7708  0.3684 -0.5697
  103SAPE   C1210431   1.878   5.879   2.999 -0.0929  1.0751 -0.4397
  103SAPE  H12A10432   1.825   5.964   3.049 -0.2336  1.0070 -0.4718
  103SAPE  H12B10433   1.926   5.912   2.905  0.4011 -0.3583 -0.7060
  103SAPE   C1110434   1.975   5.802   3.092  0.2577 -0.2745  0.3782
  103SAPE  H11A10435   1.913   5.774   3.179 -1.4412  1.4812 -0.1944
  103SAPE  H11B10436   2.057   5.871   3.121 -0.0255  0.9397 -1.4538
  103SAPE     P10437   2.159   5.680   2.947 -0.0726 -0.3915 -0.5757
  103SAPE   O1310438   2.242   5.553   2.937  0.4662  0.2705 -0.6498
  103SAPE   O1410439   2.116   5.741   2.821  0.4585  0.1141 -0.2893
  103SAPE   O1210440   2.027   5.679   3.033 -0.7337 -0.1701  0.1227
  103SAPE   O1110441   2.252   5.789   3.028 -0.3058  0.1074 -0.5018
  103SAPE    C110442   2.290   5.739   3.163 -0.7730 -0.3676 -0.4413
  103SAPE    HA10443   2.276   5.829   3.227 -2.1023 -1.4764  0.9040
  103SAPE    HB10444   2.218   5.670   3.212 -0.6331  0.1504  0.5296
  103SAPE    C210445   2.431   5.672   3.169 -0.0996 -0.2085 -0.1741
  103SAPE    HS10446   2.414   5.571   3.126  0.3233 -0.1027 -0.5957
  103SAPE   O2110447   2.483   5.671   3.298  0.4433 -1.0130 -0.7337
  103SAPE   C2110448   2.435   5.578   3.379 -0.6484 -0.0323  0.5077
  103SAPE   O2210449   2.376   5.478   3.341 -0.0393  0.2137 -0.3399
  103SAPE   C2210450   2.483   5.605   3.520  0.5876  0.1017  0.1472
  103SAPE   H2R10451   2.591   5.579   3.519  0.7120  0.5261 -1.8414
  103SAPE   H2S10452   2.466   5.711   3.547 -1.5304 -0.4523  1.2107
  103SAPE    C310453   2.534   5.743   3.072  0.0812  0.2659 -0.4824
  103SAPE    HX10454   2.524   5.847   3.109 -1.8135  0.2092 -0.7415
  103SAPE    HY10455   2.504   5.730   2.966 -0.8535 -2.6075  0.0281
  103SAPE   O3110456   2.672   5.698   3.099  0.0161  0.0025  0.3324
  103SAPE   C3110457   2.703   5.588   3.033  0.0740  0.8352 -0.1628
  103SAPE   O3210458   2.633   5.520   2.960 -0.3267 -0.2516 -0.6726
  103SAPE   C3210459   2.848   5.561   3.068 -0.5188  0.0949  0.1797
  103SAPE   H2X10460   2.904   5.648   3.107  0.5782 -0.8840  0.8574
  103SAPE   H2Y10461   2.895   5.536   2.970 -1.8548 -0.1623 -0.4271
  103SAPE   C2310462   2.416   5.502   3.624 -0.8786 -0.1101 -0.0685
  103SAPE   H3R10463   2.430   5.399   3.585 -0.5264 -1.6543  3.7861
  103SAPE   H3S10464   2.306   5.512   3.632 -0.8042  0.9227 -0.1905
  103SAPE   C2410465   2.480   5.509   3.766 -0.9721  0.0831 -0.3038
  103SAPE   H4R10466   2.451   5.612   3.795 -2.0441 -0.0361 -0.9163
  103SAPE   H4S10467   2.591   5.508   3.760 -1.0364 -0.0793 -2.1669
  103SAPE   C2510468   2.417   5.402   3.846  0.0274 -0.1615 -0.2361
  103SAPE   H5R10469   2.434   5.296   3.820 -0.7080  0.0083 -1.5039
  103SAPE   C2610470   2.348   5.426   3.956 -0.2229 -0.1992  0.2695
  103SAPE   H6R10471   2.305   5.347   4.020  2.4686 -2.3164 -0.3160
  103SAPE   C2710472   2.306   5.563   4.005 -0.1504 -0.5864  0.2342
  103SAPE   H7R10473   2.213   5.590   3.950  1.2338  0.9921 -1.4653
  103SAPE   H7S10474   2.375   5.649   3.993 -1.3751  0.1084 -3.0929
  103SAPE   C2810475   2.274   5.568   4.153  0.2661 -0.0305 -0.5612
  103SAPE   H8R10476   2.172   5.529   4.171 -0.4837  1.3353 -1.6349
  103SAPE   C2910477   2.346   5.581   4.266 -0.1244 -0.3270 -0.3801
  103SAPE   H9R10478   2.294   5.591   4.362  0.1961 -1.8486 -0.0121
  103SAPE  C21010479   2.490   5.620   4.270  0.0579 -0.3793  0.4527
  103SAPE  H10R10480   2.505   5.730   4.272  1.2979 -0.5395  1.8876
  103SAPE  H10S10481   2.540   5.577   4.180  0.9692 -0.0253  0.7781
  103SAPE  C21110482   2.568   5.564   4.385 -0.2970 -0.5683 -0.0603
  103SAPE  H11R10483   2.621   5.472   4.357  0.4074 -0.9333  2.2535
  103SAPE  C21210484   2.569   5.609   4.510  0.2697  0.1733 -0.4898
  103SAPE  H12R10485   2.634   5.562   4.586 -0.4590  0.3843  0.2756
  103SAPE  C21310486   2.496   5.738   4.546  0.8559  0.2499 -1.0243
  103SAPE  H13R10487   2.430   5.782   4.469 -1.7013 -0.3770  0.6789
  103SAPE  H13S10488   2.566   5.824   4.544  1.6808 -0.3840 -0.5301
  103SAPE  C21410489   2.412   5.749   4.671 -0.3634 -0.6535  0.4837
  103SAPE  H14R10490   2.308   5.714   4.659 -0.7194  0.7118 -0.6597
  103SAPE  C21510491   2.453   5.786   4.792  0.4652  0.4944 -1.3216
  103SAPE  H15R10492   2.385   5.776   4.877 -1.2878  0.4373 -2.6642
  103SAPE  C21610493   2.586   5.841   4.828 -0.5731  0.3774  0.3075
  103SAPE  H16R10494   2.663   5.807   4.756 -2.5902  0.1685 -1.8595
  103SAPE  H16S10495   2.609   5.821   4.935  0.4700 -0.6882 -0.0944
  103SAPE  C21710496   2.576   5.999   4.820  0.0598  0.6759 -0.2366
  103SAPE  H17R10497   2.503   6.031   4.898  1.7587  1.0824  1.2725
  103SAPE  H17S10498   2.540   6.029   4.720  0.6042 -1.2198 -1.0490
  103SAPE  C21810499   2.709   6.072   4.865  0.0585  0.1629  0.6735
  103SAPE  H18R10500   2.720   6.053   4.974 -0.0606 -0.0161  0.6548
  103SAPE  H18S10501   2.686   6.181   4.867  0.7590  0.3072  0.7900
  103SAPE  C21910502   2.832   6.051   4.777 -0.3495  0.0529  0.1184
  103SAPE  H19R10503   2.821   6.065   4.667  0.6619 -0.3148 -0.0393
  103SAPE  H19S10504   2.854   5.942   4.779 -0.9128 -0.0625  0.2961
  103SAPE  C22010505   2.949   6.133   4.838 -0.5611  0.0987  0.3195
  103SAPE  H20R10506   2.935   6.242   4.820  0.6167  0.6431  2.3241
  103SAPE  H20S10507   3.048   6.109   4.793 -0.9647 -0.8500 -0.0724
  103SAPE  H20T10508   2.949   6.131   4.949 -0.0729 -0.9024  0.3109
  103SAPE   C3310509   2.863   5.434   3.156  0.0068  0.2594 -0.2699
  103SAPE   H3X10510   2.966   5.392   3.149  0.4660  0.9331  1.8607
  103SAPE   H3Y10511   2.786   5.360   3.123 -0.3822  1.4462 -2.1769
  103SAPE   C3410512   2.843   5.452   3.307 -0.3006 -0.1873 -0.3503
  103SAPE   H4X10513   2.738   5.466   3.341  0.7649  2.4260  2.3118
  103SAPE   H4Y10514   2.904   5.538   3.343 -0.4198 -0.7214  1.1908
  103SAPE   C3510515   2.881   5.326   3.380  0.0416  0.4164  0.3612
  103SAPE   H5X10516   2.991   5.317   3.375  0.0572  0.7818  0.0764
  103SAPE   H5Y10517   2.824   5.236   3.345 -2.8681  1.9764  0.7615
  103SAPE   C3610518   2.844   5.336   3.529 -0.5101  0.4161 -0.2980
  103SAPE   H6X10519   2.741   5.375   3.538  0.6557  4.1706 -1.0479
  103SAPE   H6Y10520   2.915   5.416   3.562  0.1073  0.3049 -1.2909
  103SAPE   C3710521   2.876   5.207   3.613 -0.0700 -0.9721  0.3522
  103SAPE   H7X10522   2.986   5.192   3.615 -0.1128 -1.4002 -0.3055
  103SAPE   H7Y10523   2.833   5.118   3.562  0.4636 -0.9269 -0.1936
  103SAPE   C3810524   2.823   5.220   3.760  0.0629  0.4803  0.0589
  103SAPE   H8X10525   2.856   5.126   3.810  0.4529 -0.9782 -2.7466
  103SAPE   H8Y10526   2.713   5.220   3.768  0.0269 -0.4588 -0.3177
  103SAPE   C3910527   2.880   5.340   3.835  0.2268  0.0250 -0.2817
  103SAPE   H9X10528   2.818   5.430   3.813 -1.5819 -0.7681  1.2279
  103SAPE   H9Y10529   2.982   5.355   3.793 -0.9495  1.0752 -3.0409
  103SAPE  C31010530   2.894   5.320   3.991 -0.5131  0.0512  0.7615
  103SAPE  H10X10531   2.959   5.232   4.013  0.2659  0.2503 -0.6236
  103SAPE  H10Y10532   2.787   5.303   4.012 -1.0551  1.3336 -0.7296
  103SAPE  C31110533   2.935   5.454   4.053  0.5134  0.0705  0.2919
  103SAPE  H11X10534   2.848   5.523   4.040  1.2161  0.6073 -2.1781
  103SAPE  H11Y10535   3.025   5.494   4.002  1.1971 -2.1629 -0.3458
  103SAPE  C31210536   2.977   5.438   4.196  0.5405  0.0433 -0.3858
  103SAPE  H12X10537   3.049   5.355   4.210 -1.1047 -1.3117  0.4698
  103SAPE  H12Y10538   2.892   5.406   4.260  0.2226  1.7106  0.0783
  103SAPE  C31310539   3.018   5.579   4.249  0.6386  0.3484  0.3083
  103SAPE  H13X10540   2.931   5.648   4.257 -0.7680 -1.4960  1.7694
  103SAPE  H13Y10541   3.083   5.631   4.175 -1.1441  1.7062 -0.3820
  103SAPE  C31410542   3.084   5.577   4.390  0.3336  0.2212 -0.2702
  103SAPE  H14X10543   3.138   5.673   4.398  1.6227 -0.4571 -0.5134
  103SAPE  H14Y10544   3.163   5.498   4.392 -0.4787 -0.6071  1.2166
  103SAPE  C31510545   2.995   5.578   4.511 -0.4631 -0.0990  0.4954
  103SAPE  H15X10546   2.934   5.486   4.498  2.6832 -2.4357  1.1065
  103SAPE  H15Y10547   2.935   5.670   4.499  0.5094  0.6511  1.2137
  103SAPE  C31610548   3.069   5.568   4.644  0.3096  0.0331 -0.4969
  103SAPE  H16X10549   3.115   5.667   4.665 -1.1460  0.5646  0.3615
  103SAPE  H16Y10550   3.153   5.498   4.628  0.8734  0.5399  0.1835
  103SAPE  C31710551   2.974   5.536   4.760  0.1572  0.2629  0.3839
  103SAPE  H17X10552   2.949   5.427   4.755  1.0958  0.0820 -1.0601
  103SAPE  H17Y10553   2.882   5.594   4.739  1.0740  0.7824 -2.7067
  103SAPE  C31810554   3.013   5.588   4.890 -0.2920  0.1926 -0.3455
  103SAPE  H18X10555   2.939   5.556   4.966  1.1932  3.2307  2.6573
  103SAPE  H18Y10556   3.021   5.699   4.889 -2.9046  0.4717  1.4552
  103SAPE  H18Z10557   3.116   5.552   4.910 -0.0084  0.3350 -1.4651
  104SAPE     N10558   3.963   5.636   2.523 -0.0741  0.2001  0.1526
  104SAPE   HN110559   3.975   5.724   2.576  1.4812  0.4998 -0.6324
  104SAPE   HN210560   3.860   5.630   2.512 -0.3612  0.2098  2.3571
  104SAPE   HN310561   3.998   5.546   2.561 -1.4144 -0.5379 -0.3161
  104SAPE   C1210562   4.017   5.654   2.389 -0.2275  0.3786 -0.1933
  104SAPE  H12A10563   4.019   5.553   2.343 -0.3755 -0.1052  0.8225
  104SAPE  H12B10564   4.118   5.698   2.398  0.3439 -1.1748  1.9429
  104SAPE   C1110565   3.919   5.749   2.308  0.1523 -0.1531  0.1065
  104SAPE  H11A10566   3.839   5.691   2.259  0.6534 -1.2955  0.5975
  104SAPE  H11B10567   3.983   5.806   2.238 -1.3985  2.9731  1.0742
  104SAPE     P10568   3.779   5.958   2.351  0.4198 -0.3861  0.3059
  104SAPE   O1310569   3.872   6.062   2.314  0.1921 -0.0898 -0.4741
  104SAPE   O1410570   3.684   5.916   2.244  0.0567 -0.4124 -0.2746
  104SAPE   O1210571   3.860   5.842   2.405 -0.4364  0.5501  0.0901
  104SAPE   O1110572   3.700   6.019   2.473 -0.1350  0.4383 -0.1779
  104SAPE    C110573   3.572   5.972   2.516 -0.1225 -0.1024 -0.1667
  104SAPE    HA10574   3.489   6.040   2.488 -1.8380 -0.9420  2.5174
  104SAPE    HB10575   3.543   5.876   2.469  0.9589  0.3450 -1.8633
  104SAPE    C210576   3.566   5.957   2.669  0.1062 -0.4262 -0.1787
  104SAPE    HS10577   3.459   5.943   2.693 -0.0817  0.9272 -0.1886
  104SAPE   O2110578   3.616   6.073   2.745 -0.3650  0.5251 -0.3455
  104SAPE   C2110579   3.538   6.182   2.750 -1.1001 -0.5276 -0.3535
  104SAPE   O2210580   3.426   6.187   2.701  0.9798  0.0879 -0.1955
  104SAPE   C2210581   3.603   6.296   2.834  0.2187 -0.1267 -0.3985
  104SAPE   H2R10582   3.713   6.282   2.830 -0.0711 -2.7835 -0.8092
  104SAPE   H2S10583   3.566   6.390   2.788 -1.8931 -0.3553  0.7436
  104SAPE    C310584   3.654   5.840   2.709 -0.3295 -0.1602  0.0907
  104SAPE    HX10585   3.761   5.868   2.701  0.3001 -2.0442  1.2705
  104SAPE    HY10586   3.624   5.756   2.643  0.3087  0.0169 -0.4343
  104SAPE   O3110587   3.614   5.791   2.839  0.4370  0.1310  0.1644
  104SAPE   C3110588   3.706   5.723   2.904  0.1639 -0.8248  0.1837
  104SAPE   O3210589   3.813   5.696   2.857  0.1339  0.2656 -0.1933
  104SAPE   C3210590   3.656   5.687   3.043 -0.4787 -0.4094  0.1216
  104SAPE   H2X10591   3.638   5.578   3.044  0.0489 -0.4939  0.3683
  104SAPE   H2Y10592   3.568   5.753   3.061  1.3326  2.6768 -1.5135
  104SAPE   C2310593   3.557   6.290   2.986  0.1395 -0.2866 -0.0683
  104SAPE   H3R10594   3.446   6.288   2.984  0.0672  1.9279 -0.3593
  104SAPE   H3S10595   3.570   6.390   3.031  0.3359 -0.4800  0.3127
  104SAPE   C2410596   3.631   6.201   3.079 -0.3202  0.6915 -0.1667
  104SAPE   H4R10597   3.735   6.235   3.099 -0.0306  0.1428 -0.7178
  104SAPE   H4S10598   3.645   6.097   3.043  2.3063  0.9633 -0.1174
  104SAPE   C2510599   3.564   6.190   3.217 -0.6378 -0.4204 -0.3984
  104SAPE   H5R10600   3.455   6.185   3.207 -0.7361  0.0289  0.3714
  104SAPE   C2610601   3.613   6.203   3.345  0.1422 -0.1758 -0.8737
  104SAPE   H6R10602   3.550   6.199   3.434  0.4377  0.3156 -0.6371
  104SAPE   C2710603   3.759   6.210   3.381 -0.5728  0.3617  0.4644
  104SAPE   H7R10604   3.793   6.310   3.418  1.3641 -0.6013  1.4315
  104SAPE   H7S10605   3.821   6.191   3.291  1.0031  2.7805  0.9459
  104SAPE   C2810606   3.792   6.110   3.484  1.1282  1.0010  0.3505
  104SAPE   H8R10607   3.794   6.008   3.441 -1.8618  0.4355  1.2702
  104SAPE   C2910608   3.811   6.127   3.619  1.1595 -0.3269 -0.2951
  104SAPE   H9R10609   3.841   6.037   3.676  1.2852 -1.3185 -1.8783
  104SAPE  C21010610   3.786   6.250   3.705 -0.1739  0.0599 -0.2601
  104SAPE  H10R10611   3.864   6.329   3.704 -1.1954  1.0864 -2.1454
  104SAPE  H10S10612   3.805   6.218   3.810  0.1452  3.1744  0.7382
  104SAPE  C21110613   3.650   6.311   3.713 -0.0791  0.1447  0.1000
  104SAPE  H11R10614   3.572   6.235   3.708 -1.0663  1.1716 -0.6882
  104SAPE  C21210615   3.624   6.437   3.747  0.4879 -1.1881  0.2730
  104SAPE  H12R10616   3.519   6.471   3.751  0.6636 -0.2452 -1.7185
  104SAPE  C21310617   3.726   6.537   3.798 -0.5904 -0.1496 -0.2908
  104SAPE  H13R10618   3.824   6.530   3.745  0.3987 -0.7531  1.5335
  104SAPE  H13S10619   3.751   6.498   3.899 -0.5706 -2.7908 -1.2384
  104SAPE  C21410620   3.661   6.669   3.806 -0.3072 -0.4356 -0.4965
  104SAPE  H14R10621   3.585   6.680   3.728 -1.0112 -2.7425 -0.2303
  104SAPE  C21510622   3.677   6.760   3.900 -0.6229  0.1221 -0.6355
  104SAPE  H15R10623   3.617   6.850   3.882 -1.1487 -0.4802 -2.0229
  104SAPE  C21610624   3.762   6.752   4.029  0.0108 -0.2439 -0.0129
  104SAPE  H16R10625   3.817   6.848   4.041 -1.7772  0.8941 -0.5270
  104SAPE  H16S10626   3.834   6.669   4.039  0.3304  0.1797  1.3780
  104SAPE  C21710627   3.677   6.756   4.158  0.1911 -0.2773 -0.1601
  104SAPE  H17R10628   3.612   6.666   4.160 -0.1013 -0.0956 -1.2232
  104SAPE  H17S10629   3.607   6.842   4.154 -0.4747 -0.8154 -0.2260
  104SAPE  C21810630   3.777   6.779   4.278  0.1096  0.0000  0.4839
  104SAPE  H18R10631   3.810   6.880   4.248 -1.9710  0.6673  0.2829
  104SAPE  H18S10632   3.850   6.695   4.274  0.2502  0.0631  1.4024
  104SAPE  C21910633   3.721   6.795   4.423  0.5125  0.3781 -0.0414
  104SAPE  H19R10634   3.649   6.711   4.439 -2.9647  3.6415  3.6602
  104SAPE  H19S10635   3.671   6.892   4.442 -2.8504 -1.5690  2.1391
  104SAPE  C22010636   3.826   6.774   4.541  0.3795 -0.3680 -0.3355
  104SAPE  H20R10637   3.770   6.785   4.636  2.3961 -0.4373  0.9191
  104SAPE  H20S10638   3.918   6.835   4.539  1.0582 -1.0730  3.0657
  104SAPE  H20T10639   3.861   6.669   4.543 -0.4983 -0.6724  1.7622
  104SAPE   C3310640   3.778   5.712   3.134 -0.1552 -0.0680  0.0968
  104SAPE   H3X10641   3.807   5.819   3.141 -1.2769  0.2691 -0.1630
  104SAPE   H3Y10642   3.865   5.650   3.104 -0.6633 -0.1587 -1.2512
  104SAPE   C3410643   3.735   5.680   3.276  0.3125 -0.0974 -0.2582
  104SAPE   H4X10644   3.698   5.577   3.289  0.6177  0.0809  2.4982
  104SAPE   H4Y10645   3.644   5.743   3.287 -0.5672 -1.2790 -0.6367
  104SAPE   C3510646   3.841   5.717   3.378  0.0613  0.2371 -0.6543
  104SAPE   H5X10647   3.860   5.826   3.371  2.2033 -0.1593 -2.0453
  104SAPE   H5Y10648   3.939   5.667   3.359 -0.4733 -0.9476 -0.3908
  104SAPE   C3610649   3.788   5.686   3.521  0.0206 -0.4375  0.4500
  104SAPE   H6X10650   3.738   5.587   3.528 -2.8051  0.5771 -2.6443
  104SAPE   H6Y10651   3.708   5.759   3.546 -1.1494 -2.1258  1.8700
  104SAPE   C3710652   3.887   5.713   3.628 -0.5358  0.9940 -0.5603
  104SAPE   H7X10653   3.935   5.813   3.627  0.0745  0.7031 -1.2302
  104SAPE   H7Y10654   3.979   5.652   3.613 -0.9111 -0.2694  1.6976
  104SAPE   C3810655   3.831   5.693   3.771 -0.1087  0.0044 -0.2175
  104SAPE   H8X10656   3.780   5.595   3.767  0.6602 -0.4032 -0.1469
  104SAPE   H8Y10657   3.747   5.765   3.784 -2.1540 -2.0425 -1.4358
  104SAPE   C3910658   3.919   5.711   3.899  1.1516 -0.3871  0.1971
  104SAPE   H9X10659   3.859   5.756   3.981  0.8999 -0.3063 -0.0306
  104SAPE   H9Y10660   3.999   5.785   3.879  0.0131  1.4194  1.9066
  104SAPE  C31010661   3.975   5.578   3.946  0.0355  0.8166 -0.5591
  104SAPE  H10X10662   4.065   5.547   3.888  1.1282  2.3529  0.2441
  104SAPE  H10Y10663   3.901   5.497   3.927  1.9183 -1.5111  1.3938
  104SAPE  C31110664   4.020   5.583   4.097 -0.4854  0.0012  0.4887
  104SAPE  H11X10665   4.092   5.665   4.122 -0.5559 -0.6297  2.9833
  104SAPE  H11Y10666   4.072   5.485   4.105  2.4104  1.3718 -0.2843
  104SAPE  C31210667   3.909   5.610   4.201  0.0862  0.2473  0.1874
  104SAPE  H12X10668   3.817   5.554   4.177 -0.3219  0.2577  1.6384
  104SAPE  H12Y10669   3.881   5.718   4.204 -0.6936  0.0457  3.1224
  104SAPE  C31310670   3.948   5.563   4.345  0.9422 -0.5051 -0.4958
  104SAPE  H13X10671   3.953   5.452   4.347  1.5197 -0.4815 -0.3754
  104SAPE  H13Y10672   3.864   5.594   4.411  2.1191  0.9654  0.3604
  104SAPE  C31410673   4.088   5.613   4.399 -0.2925  0.2087  0.6067
  104SAPE  H14X10674   4.093   5.723   4.410  0.4727  0.1389  0.9930
  104SAPE  H14Y10675   4.166   5.586   4.324 -0.7381 -1.3741  0.6701
  104SAPE  C31510676   4.146   5.533   4.520  0.5190  0.4043 -0.0968
  104SAPE  H15X10677   4.247   5.569   4.550 -0.0880  3.9399 -1.7853
  104SAPE  H15Y10678   4.138   5.427   4.490 -0.2333 -0.0575  1.6148
  104SAPE  C31610679   4.049   5.550   4.642 -0.0314  0.2034  0.5047
  104SAPE  H16X10680   3.941   5.538   4.619  0.1683 -0.8653  0.0881
  104SAPE  H16Y10681   4.050   5.656   4.677 -3.1911  0.4165  0.2797
  104SAPE  C31710682   4.103   5.460   4.755 -0.1827 -0.5508 -0.3657
  104SAPE  H17X10683   4.066   5.491   4.855  2.3476 -0.7349  0.7124
  104SAPE  H17Y10684   4.213   5.474   4.755 -0.3109  0.5586 -0.7831
  104SAPE  C31810685   4.067   5.309   4.736 -0.4750 -0.0462  0.4421
  104SAPE  H18X10686   3.957   5.299   4.735 -0.2852 -2.7358  0.3154
  104SAPE  H18Y10687   4.097   5.244   4.821  0.2488  0.8206  0.8845
  104SAPE  H18Z10688   4.113   5.272   4.642 -0.8739  1.7240 -0.4998
  105SAPE     N10689   6.572   2.855   2.627  0.3543  0.8820  0.1214
  105SAPE   HN110690   6.666   2.815   2.607 -1.3395 -4.7867  1.6444
  105SAPE   HN210691   6.538   2.931   2.565 -0.5282 -0.7822 -1.5306
  105SAPE   HN310692   6.592   2.891   2.723  0.0205 -0.9244  0.9302
  105SAPE   C1210693   6.470   2.735   2.644 -0.5763 -0.0628 -0.2338
  105SAPE  H12A10694   6.372   2.781   2.621 -0.6180 -0.2679 -0.4730
  105SAPE  H12B10695   6.484   2.696   2.747  0.3250 -1.5143 -0.8627
  105SAPE   C1110696   6.491   2.620   2.540 -0.1813 -0.2741  0.2665
  105SAPE  H11A10697   6.508   2.664   2.439  1.2518 -0.9466  0.1896
  105SAPE  H11B10698   6.389   2.575   2.542 -0.1772 -0.2721  0.7243
  105SAPE     P10699   6.608   2.390   2.565  0.4358  0.2644 -0.2648
  105SAPE   O1310700   6.558   2.329   2.442  0.2231  0.0282  0.0796
  105SAPE   O1410701   6.751   2.363   2.590  0.2219 -0.0871 -0.2451
  105SAPE   O1210702   6.607   2.545   2.579  0.0011  0.2532 -0.0829
  105SAPE   O1110703   6.522   2.343   2.684 -0.1900 -0.6727  0.3839
  105SAPE    C110704   6.533   2.399   2.818 -0.7239  0.1806 -0.0134
  105SAPE    HA10705   6.623   2.464   2.832  0.2612 -1.1927  0.2182
  105SAPE    HB10706   6.449   2.471   2.829  0.2081  1.7058 -2.1606
  105SAPE    C210707   6.558   2.291   2.929  0.5417 -0.2048 -0.1193
  105SAPE    HS10708   6.458   2.256   2.960  1.1557 -1.3582  0.6513
  105SAPE   O2110709   6.625   2.348   3.038 -0.0656  0.0457  0.1903
  105SAPE   C2110710   6.545   2.413   3.126 -1.7229 -0.1459 -0.1350
  105SAPE   O2210711   6.428   2.438   3.120  0.0775 -0.1287  0.1875
  105SAPE   C2210712   6.639   2.453   3.243  0.1988  0.6269  0.3944
  105SAPE   H2R10713   6.725   2.383   3.241 -2.8485 -3.5768 -2.5434
  105SAPE   H2S10714   6.664   2.560   3.226  2.4086  0.0392 -0.2910
  105SAPE    C310715   6.633   2.172   2.876 -0.1620 -0.3890 -0.2046
  105SAPE    HX10716   6.733   2.204   2.840 -0.5549 -1.4795 -2.4075
  105SAPE    HY10717   6.581   2.144   2.782 -1.8319  1.1191  0.2145
  105SAPE   O3110718   6.648   2.058   2.969  0.1439 -0.0625  0.1691
  105SAPE   C3110719   6.550   1.981   3.002  0.9489 -0.4428  0.5844
  105SAPE   O3210720   6.450   1.973   2.940  0.3850 -0.1717  0.0248
  105SAPE   C3210721   6.589   1.891   3.115  0.0717 -0.7614 -0.1513
  105SAPE   H2X10722   6.673   1.945   3.163 -0.7094  0.3396  0.0323
  105SAPE   H2Y10723   6.626   1.792   3.080 -1.7295 -0.7553 -2.3606
  105SAPE   C2310724   6.564   2.438   3.383  0.5144 -0.2036 -0.6535
  105SAPE   H3R10725   6.474   2.503   3.381  0.4105 -0.3522 -1.8372
  105SAPE   H3S10726   6.634   2.455   3.467 -1.4271  0.1816  0.9545
  105SAPE   C2410727   6.515   2.298   3.417 -0.1777 -0.2915 -0.5450
  105SAPE   H4R10728   6.440   2.268   3.340 -0.5127  1.8754 -1.1260
  105SAPE   H4S10729   6.456   2.305   3.511  0.7607  1.0870 -0.0264
  105SAPE   C2510730   6.620   2.193   3.433 -0.3305  0.0258 -0.5962
  105SAPE   H5R10731   6.640   2.135   3.341 -2.1402 -3.0539  0.7862
  105SAPE   C2610732   6.678   2.148   3.546  0.1880 -0.9216 -0.6544
  105SAPE   H6R10733   6.741   2.058   3.542 -0.0113 -1.0260 -1.9281
  105SAPE   C2710734   6.659   2.205   3.686 -0.5034 -0.0792  0.5689
  105SAPE   H7R10735   6.605   2.127   3.744 -0.5228 -1.8681 -1.7078
  105SAPE   H7S10736   6.594   2.294   3.680 -0.2782  0.2279  2.2267
  105SAPE   C2810737   6.784   2.260   3.752 -0.4675 -0.2854 -0.3302
  105SAPE   H8R10738   6.826   2.341   3.691 -2.6357 -0.2577 -1.8654
  105SAPE   C2910739   6.858   2.207   3.852 -0.8805 -0.1231  0.1259
  105SAPE   H9R10740   6.956   2.256   3.865 -0.2088 -1.4283  0.1696
  105SAPE  C21010741   6.835   2.086   3.943  0.4260  0.7902  0.0776
  105SAPE  H10R10742   6.733   2.041   3.943  1.0997 -0.8519  0.9609
  105SAPE  H10S10743   6.863   2.110   4.048 -0.4233 -1.9010  1.0151
  105SAPE  C21110744   6.927   1.979   3.888 -0.0765 -0.5951 -0.0014
  105SAPE  H11R10745   6.907   1.961   3.782  0.3994  3.6583 -0.9974
  105SAPE  C21210746   7.035   1.919   3.941  0.2773  0.4107  0.0779
  105SAPE  H12R10747   7.098   1.858   3.874 -0.4029 -3.3921  2.5986
  105SAPE  C21310748   7.091   1.937   4.077  0.3126 -0.9076 -1.1391
  105SAPE  H13R10749   7.081   2.046   4.098  0.8527 -1.2717  1.2818
  105SAPE  H13S10750   7.201   1.923   4.072  0.8034  1.1409  1.7010
  105SAPE  C21410751   7.033   1.842   4.179 -0.1196  0.7022  0.7084
  105SAPE  H14R10752   7.012   1.750   4.122 -0.5438  1.0495  0.2992
  105SAPE  C21510753   7.028   1.845   4.314 -0.0494  0.1846  0.5078
  105SAPE  H15R10754   7.003   1.758   4.377  2.8285 -0.8848  0.3671
  105SAPE  C21610755   7.062   1.967   4.388 -0.5268  0.1816  0.6211
  105SAPE  H16R10756   6.973   2.010   4.438 -1.0302 -0.3771  0.2026
  105SAPE  H16S10757   7.098   2.050   4.322  3.4385  0.0494  2.3493
  105SAPE  C21710758   7.186   1.962   4.487 -0.0221  0.2746  0.1911
  105SAPE  H17R10759   7.276   1.958   4.421  0.7698 -0.5318  1.2898
  105SAPE  H17S10760   7.183   1.865   4.541 -0.7118  0.2503  0.1197
  105SAPE  C21810761   7.177   2.075   4.583 -0.0109 -0.0280 -0.2332
  105SAPE  H18R10762   7.272   2.069   4.641  0.2508  0.3468 -0.6152
  105SAPE  H18S10763   7.089   2.042   4.642  0.0811 -2.4218 -1.3518
  105SAPE  C21910764   7.144   2.210   4.531 -0.1952 -0.6354  0.8196
  105SAPE  H19R10765   7.044   2.207   4.484 -0.5180 -2.0509  1.5475
  105SAPE  H19S10766   7.209   2.234   4.444 -2.3174  0.9753 -0.3889
  105SAPE  C22010767   7.162   2.329   4.630 -0.1595  0.1067  0.1158
  105SAPE  H20R10768   7.071   2.341   4.693  0.6450 -0.7793  1.4575
  105SAPE  H20S10769   7.161   2.424   4.571 -0.9789 -0.1469 -0.2954
  105SAPE  H20T10770   7.253   2.319   4.692 -0.7510  0.3427  1.0515
  105SAPE   C3310771   6.476   1.884   3.215  0.3535 -0.2931 -0.1375
  105SAPE   H3X10772   6.385   1.841   3.168  0.1376 -0.1597  0.1562
  105SAPE   H3Y10773   6.451   1.986   3.253 -2.1432 -0.7673 -0.4035
  105SAPE   C3410774   6.515   1.803   3.331  0.8955  0.2139  0.1259
  105SAPE   H4X10775   6.624   1.811   3.353  0.5331  0.4319  1.9781
  105SAPE   H4Y10776   6.485   1.698   3.311  1.1079 -0.0137  0.9811
  105SAPE   C3510777   6.453   1.847   3.463  0.1219 -0.0683  0.9054
  105SAPE   H5X10778   6.343   1.836   3.454  0.4339 -1.9217 -2.5179
  105SAPE   H5Y10779   6.480   1.954   3.470  0.9475  0.4771 -5.1250
  105SAPE   C3610780   6.507   1.775   3.585 -0.4661  0.0880 -0.0067
  105SAPE   H6X10781   6.618   1.777   3.579 -0.3404 -1.6181  1.0152
  105SAPE   H6Y10782   6.482   1.666   3.591 -1.3549  0.3514  1.9801
  105SAPE   C3710783   6.456   1.840   3.716  0.4430  0.2302 -1.0702
  105SAPE   H7X10784   6.355   1.797   3.737  0.4755  0.5951 -0.1165
  105SAPE   H7Y10785   6.444   1.949   3.699  0.6695  0.5037  0.4181
  105SAPE   C3810786   6.542   1.805   3.844  0.2169  0.0637  0.1597
  105SAPE   H8X10787   6.634   1.866   3.837  0.0739  0.2099 -0.5653
  105SAPE   H8Y10788   6.566   1.696   3.839 -2.5119 -0.5784 -2.3504
  105SAPE   C3910789   6.475   1.842   3.981 -0.4532 -0.3375 -0.3840
  105SAPE   H9X10790   6.386   1.775   3.985  0.1806 -1.1727  0.1675
  105SAPE   H9Y10791   6.454   1.950   3.992  1.3270  0.1710 -1.6444
  105SAPE  C31010792   6.578   1.804   4.092  0.5444  0.1813 -0.3476
  105SAPE  H10X10793   6.677   1.849   4.069  2.4366 -1.6896  3.3264
  105SAPE  H10Y10794   6.578   1.694   4.105  4.1651  0.3198  2.0578
  105SAPE  C31110795   6.531   1.841   4.233 -0.2869  0.2111  0.3686
  105SAPE  H11X10796   6.430   1.799   4.253 -0.3272 -1.4239 -2.6249
  105SAPE  H11Y10797   6.537   1.952   4.232 -1.6957  0.3576 -2.5088
  105SAPE  C31210798   6.629   1.789   4.337 -0.1691 -0.9127 -0.1815
  105SAPE  H12X10799   6.733   1.817   4.313  0.1008 -1.6037  0.1514
  105SAPE  H12Y10800   6.622   1.678   4.337 -1.8434 -0.8431 -0.8498
  105SAPE  C31310801   6.613   1.859   4.472 -0.3992 -0.0230 -1.1783
  105SAPE  H13X10802   6.507   1.849   4.505 -0.1075 -1.6111 -0.6736
  105SAPE  H13Y10803   6.629   1.969   4.465 -1.3644  0.4092  1.9221
  105SAPE  C31410804   6.716   1.794   4.571 -0.6029 -0.3315 -0.1289
  105SAPE  H14X10805   6.818   1.790   4.527  0.2484  2.5568  1.3239
  105SAPE  H14Y10806   6.688   1.694   4.610 -1.5267 -0.7392 -1.7494
  105SAPE  C31510807   6.716   1.900   4.689  0.5898  0.5156  0.3890
  105SAPE  H15X10808   6.615   1.886   4.734  0.7201  0.5265  0.6851
  105SAPE  H15Y10809   6.725   1.995   4.632 -2.1729  0.1234 -0.8886
  105SAPE  C31610810   6.825   1.889   4.797  0.5207 -0.4400 -0.1263
  105SAPE  H16X10811   6.925   1.894   4.750  0.2081  1.1434 -0.6779
  105SAPE  H16Y10812   6.807   1.793   4.850 -0.6611 -0.3766 -0.3709
  105SAPE  C31710813   6.824   2.009   4.895 -0.1064  0.4143  0.5213
  105SAPE  H17X10814   6.752   1.992   4.978 -0.4066 -0.9315 -0.0004
  105SAPE  H17Y10815   6.777   2.096   4.845  2.2323  1.7226  0.4249
  105SAPE  C31810816   6.966   2.046   4.935 -0.2417  0.0417 -0.3660
  105SAPE  H18X10817   6.982   2.116   5.019 -0.2941  0.4615 -0.7057
  105SAPE  H18Y10818   7.016   2.097   4.851 -1.1410  0.8605 -0.4197
  105SAPE  H18Z10819   7.031   1.956   4.939  0.8231  0.7329 -1.6319
  106SAPE     N10820   0.213   5.685   2.656  0.8323 -0.5915  0.3284
  106SAPE   HN110821   0.173   5.752   2.587  0.5320 -1.3830 -0.2849
  106SAPE   HN210822   0.317   5.693   2.654  0.8922 -1.3652 -0.0937
  106SAPE   HN310823   0.189   5.592   2.616 -2.9396  0.0191  0.8347
  106SAPE   C1210824   0.154   5.719   2.794 -0.1166  0.2530  0.3608
  106SAPE  H12A10825   0.189   5.642   2.866  0.4709 -0.8020 -0.9923
  106SAPE  H12B10826   0.045   5.732   2.781 -0.1134 -0.1014 -0.0377
  106SAPE   C1110827   0.210   5.858   2.845  0.1951 -0.0356 -0.4600
  106SAPE  H11A10828   0.321   5.853   2.835  0.5505  1.5518  1.9452
  106SAPE  H11B10829   0.184   5.880   2.950 -1.0557  3.1447 -1.3044
  106SAPE     P10830   0.029   6.035   2.783  0.3652 -0.1445  0.5849
  106SAPE   O1310831   0.044   6.170   2.727 -0.8202 -0.3090  0.2147
  106SAPE   O1410832  -0.063   5.940   2.719  0.4446 -0.2544  0.0426
  106SAPE   O1210833   0.165   5.972   2.773 -0.7325  0.8299  0.2517
  106SAPE   O1110834   0.004   6.040   2.936  0.9037 -0.2168 -0.2591
  106SAPE    C110835   0.036   6.167   3.007 -0.6141 -0.4983 -0.3197
  106SAPE    HA10836  -0.002   6.255   2.951 -0.5181  1.0309  1.8927
  106SAPE    HB10837  -0.011   6.183   3.106 -1.8473  1.5242 -1.1780
  106SAPE    C210838   0.189   6.197   3.025  0.3083  0.0909 -1.0595
  106SAPE    HS10839   0.236   6.191   2.925  2.6935  0.4227 -0.0204
  106SAPE   O2110840   0.250   6.085   3.098 -0.0446 -0.1562 -0.0725
  106SAPE   C2110841   0.384   6.072   3.094 -0.3860  0.5665 -0.1568
  106SAPE   O2210842   0.457   6.146   3.029  0.1349 -0.2328  0.2506
  106SAPE   C2210843   0.432   5.960   3.190 -0.0955 -0.0436  0.6545
  106SAPE   H2R10844   0.464   6.014   3.282  0.1958  0.9801 -0.0276
  106SAPE   H2S10845   0.345   5.898   3.219 -1.1367  0.7129 -0.7359
  106SAPE    C310846   0.216   6.333   3.091  0.1092  0.1766 -0.1245
  106SAPE    HX10847   0.171   6.407   3.021  2.3230  2.1557  0.4253
  106SAPE    HY10848   0.324   6.358   3.095  0.0074  0.5176  1.3044
  106SAPE   O3110849   0.135   6.339   3.210 -0.4860  0.0469 -0.2804
  106SAPE   C3110850   0.195   6.314   3.325 -0.4926 -0.0462  0.7067
  106SAPE   O3210851   0.316   6.291   3.334  0.1426 -0.3417  0.1733
  106SAPE   C3210852   0.092   6.337   3.447 -0.3670 -0.7797 -0.1340
  106SAPE   H2X10853  -0.002   6.281   3.433 -0.4501 -0.9707  1.1172
  106SAPE   H2Y10854   0.064   6.444   3.455  1.4661  0.0462 -3.1307
  106SAPE   C2310855   0.549   5.887   3.126  0.0111 -0.1131  0.0623
  106SAPE   H3R10856   0.612   5.967   3.082  0.3164  0.7138  1.9449
  106SAPE   H3S10857   0.503   5.828   3.043  1.6125 -1.6933  0.2338
  106SAPE   C2410858   0.632   5.798   3.219  0.4956 -0.3416 -0.4191
  106SAPE   H4R10859   0.671   5.863   3.300  2.5906 -2.1745  0.1423
  106SAPE   H4S10860   0.721   5.760   3.164  1.8278  0.4298  1.1398
  106SAPE   C2510861   0.564   5.679   3.277 -0.2128  0.0577  0.2344
  106SAPE   H5R10862   0.519   5.609   3.205  0.7421  0.5934 -0.9361
  106SAPE   C2610863   0.547   5.652   3.408  0.7022 -1.5505 -0.5191
  106SAPE   H6R10864   0.496   5.559   3.440 -1.7231  0.1123  0.8149
  106SAPE   C2710865   0.602   5.737   3.523 -0.0876  0.0684 -0.5757
  106SAPE   H7R10866   0.616   5.843   3.490 -1.7376  0.0895 -1.3226
  106SAPE   H7S10867   0.699   5.691   3.550  0.1590  0.2511 -1.1178
  106SAPE   C2810868   0.510   5.733   3.643  0.0566 -0.0446 -0.7277
  106SAPE   H8R10869   0.429   5.806   3.627 -1.6195 -1.6155  0.2071
  106SAPE   C2910870   0.517   5.654   3.749 -0.0388 -0.4018  0.0135
  106SAPE   H9R10871   0.439   5.658   3.826 -2.5181  1.0223 -2.3854
  106SAPE  C21010872   0.639   5.566   3.784  0.2441 -0.7310 -0.2057
  106SAPE  H10R10873   0.676   5.615   3.877 -0.9732  3.0652 -1.5401
  106SAPE  H10S10874   0.727   5.572   3.717  0.0758  0.8273 -0.3182
  106SAPE  C21110875   0.588   5.423   3.800 -0.6692 -0.3890  0.2304
  106SAPE  H11R10876   0.552   5.374   3.708 -0.8954 -0.2366  0.2379
  106SAPE  C21210877   0.594   5.354   3.915  1.2826 -0.2813  0.0942
  106SAPE  H12R10878   0.544   5.257   3.923  0.5774  0.0992  0.3775
  106SAPE  C21310879   0.629   5.407   4.050 -0.5450 -0.5086  0.3359
  106SAPE  H13R10880   0.730   5.453   4.056 -0.5669 -0.4812  0.4957
  106SAPE  H13S10881   0.643   5.314   4.110  0.2297 -0.9835 -0.5609
  106SAPE  C21410882   0.532   5.500   4.123 -0.3958  0.2757  0.2061
  106SAPE  H14R10883   0.499   5.591   4.072  0.1911  0.9493  1.0089
  106SAPE  C21510884   0.467   5.472   4.238  0.1162 -0.2445 -0.5476
  106SAPE  H15R10885   0.409   5.552   4.286  4.0037  1.3734  2.0162
  106SAPE  C21610886   0.469   5.356   4.329  0.9700  0.7809 -0.6443
  106SAPE  H16R10887   0.503   5.268   4.270  2.1306  1.0458 -0.3968
  106SAPE  H16S10888   0.366   5.337   4.367  1.2760 -1.3416 -0.7645
  106SAPE  C21710889   0.570   5.361   4.441  0.5879  0.2328 -0.1192
  106SAPE  H17R10890   0.535   5.418   4.529 -1.8530 -3.9895  1.9844
  106SAPE  H17S10891   0.667   5.406   4.412  0.2181  1.2865  0.2417
  106SAPE  C21810892   0.592   5.212   4.491  0.1388 -0.6883  0.8130
  106SAPE  H18R10893   0.621   5.138   4.413 -2.3957 -0.5517 -0.3486
  106SAPE  H18S10894   0.496   5.169   4.528 -1.0480  0.7004 -0.5158
  106SAPE  C21910895   0.700   5.207   4.601 -0.5260  0.3067 -0.4428
  106SAPE  H19R10896   0.655   5.274   4.678  0.7497 -0.8775  1.4417
  106SAPE  H19S10897   0.787   5.259   4.556 -1.1522  0.7212 -1.1809
  106SAPE  C22010898   0.724   5.066   4.654  0.3187  0.2579  0.1711
  106SAPE  H20R10899   0.625   5.023   4.681  0.6977 -0.1389  0.9707
  106SAPE  H20S10900   0.783   5.063   4.748  1.5953  1.4789 -0.5589
  106SAPE  H20T10901   0.777   5.001   4.581 -0.0583 -1.0169  0.9920
  106SAPE   C3310902   0.149   6.288   3.581 -0.4706  0.1608 -0.4917
  106SAPE   H3X10903   0.238   6.348   3.609  0.4558 -0.7603 -1.4042
  106SAPE   H3Y10904   0.173   6.180   3.586 -2.3300 -0.2512  1.5986
  106SAPE   C3410905   0.047   6.322   3.694  0.2445  0.7254  0.3462
  106SAPE   H4X10906  -0.050   6.279   3.660  0.3042  1.1372 -0.3541
  106SAPE   H4Y10907   0.043   6.430   3.719 -0.9372  0.8052 -0.1355
  106SAPE   C3510908   0.076   6.249   3.826 -0.4075 -0.3260  0.0455
  106SAPE   H5X10909   0.182   6.259   3.855 -0.3801  1.0229 -0.4735
  106SAPE   H5Y10910   0.059   6.140   3.813 -2.4314 -0.3865  2.3137
  106SAPE   C3610911  -0.014   6.288   3.949  0.6068 -0.2706 -0.0683
  106SAPE   H6X10912  -0.118   6.261   3.924 -0.0632  0.2442  2.0103
  106SAPE   H6Y10913  -0.008   6.399   3.954 -0.4199 -0.2392  0.5687
  106SAPE   C3710914   0.028   6.224   4.077  0.1944  0.4386 -1.1390
  106SAPE   H7X10915   0.136   6.241   4.097 -0.2808  0.1416  2.3046
  106SAPE   H7Y10916   0.022   6.114   4.062 -0.0301  0.0715  1.2670
  106SAPE   C3810917  -0.058   6.259   4.200  0.4571  0.8920  0.3874
  106SAPE   H8X10918  -0.139   6.183   4.197  0.6382  0.6446  1.4661
  106SAPE   H8Y10919  -0.111   6.357   4.206 -0.2968  0.5476 -0.4438
  106SAPE   C3910920  -0.001   6.228   4.341 -0.8304  0.1483  0.4557
  106SAPE   H9X10921   0.086   6.292   4.368  0.2115 -1.3333  0.7198
  106SAPE   H9Y10922   0.040   6.126   4.325  0.5196  0.8961 -1.1056
  106SAPE  C31010923  -0.115   6.206   4.444 -0.5026 -0.6951 -0.4298
  106SAPE  H10X10924  -0.198   6.158   4.388 -1.7540  1.7745 -0.8785
  106SAPE  H10Y10925  -0.148   6.309   4.472  1.3487 -0.7633  2.4257
  106SAPE  C31110926  -0.079   6.119   4.559  0.2048 -0.4479 -1.1371
  106SAPE  H11X10927  -0.012   6.041   4.517  0.1611 -2.2369  1.8240
  106SAPE  H11Y10928  -0.165   6.058   4.595  0.6044 -2.3582 -3.1662
  106SAPE  C31210929  -0.018   6.210   4.668 -0.0377 -0.3610 -0.1757
  106SAPE  H12X10930  -0.087   6.294   4.691 -1.6237 -2.0097  1.3295
  106SAPE  H12Y10931   0.077   6.259   4.637  0.0391 -0.2429  0.2475
  106SAPE  C31310932   0.006   6.130   4.802  0.0759  0.2180 -0.2435
  106SAPE  H13X10933   0.028   6.030   4.759  0.2630  0.3466 -0.4461
  106SAPE  H13Y10934  -0.080   6.125   4.872  0.9397 -1.5766  0.7551
  106SAPE  C31410935   0.119   6.186   4.890 -0.2271 -0.0296 -0.5007
  106SAPE  H14X10936   0.202   6.225   4.828  0.8784  1.3126  1.7044
  106SAPE  H14Y10937   0.163   6.109   4.957 -0.8439 -0.9370 -1.1038
  106SAPE  C31510938   0.065   6.309   4.970  0.7149 -0.6485 -0.5963
  106SAPE  H15X10939   0.022   6.276   5.068 -1.1757 -0.2329 -1.2433
  106SAPE  H15Y10940  -0.018   6.361   4.918  2.5809  1.3786 -1.6912
  106SAPE  C31610941   0.177   6.416   4.972  0.2581  0.6513 -0.0442
  106SAPE  H16X10942   0.273   6.364   4.988 -0.8346 -0.8190  2.1241
  106SAPE  H16Y10943   0.154   6.489   5.053  0.0569  0.7016 -0.1463
  106SAPE  C31710944   0.187   6.504   4.843  0.8895 -1.2016  0.3921
  106SAPE  H17X10945   0.173   6.445   4.750 -0.8530 -3.2697  1.8701
  106SAPE  H17Y10946   0.292   6.540   4.834  0.8117 -1.4500 -1.9296
  106SAPE  C31810947   0.089   6.625   4.839 -0.2802  0.0402  0.3874
  106SAPE  H18X10948   0.046   6.656   4.937  1.1628 -1.0920  1.4212
  106SAPE  H18Y10949   0.003   6.603   4.772 -0.8274 -1.5892  1.5674
  106SAPE  H18Z10950   0.142   6.710   4.790 -2.5382  0.9998 -0.5318
  107SAPE     N10951   2.842   2.266   2.547 -0.3321  0.1594 -0.0163
  107SAPE   HN110952   2.855   2.225   2.452  0.8132  0.2568  0.0803
  107SAPE   HN210953   2.906   2.216   2.613 -0.1161  1.3182  0.6832
  107SAPE   HN310954   2.750   2.258   2.594  0.3433  3.1928  2.0886
  107SAPE   C1210955   2.878   2.406   2.550 -0.5214  0.0057  0.9091
  107SAPE  H12A10956   2.788   2.455   2.508 -0.2165 -1.1503 -1.2390
  107SAPE  H12B10957   2.966   2.419   2.483 -3.1071  0.7749 -2.6343
  107SAPE   C1110958   2.901   2.448   2.693 -0.2464  0.3142 -0.6542
  107SAPE  H11A10959   2.812   2.440   2.760  1.2500  0.3535  1.4220
  107SAPE  H11B10960   2.935   2.554   2.698  2.1197 -0.4055 -0.2711
  107SAPE     P10961   3.130   2.435   2.837  0.2041  0.2183  0.0197
  107SAPE   O1310962   3.213   2.328   2.890 -0.1689  0.1167 -0.2539
  107SAPE   O1410963   3.203   2.527   2.747 -0.2275  0.4309  0.2111
  107SAPE   O1210964   3.009   2.370   2.754  0.2162 -0.1429 -0.7047
  107SAPE   O1110965   3.052   2.520   2.945  0.1455 -0.2757  0.5862
  107SAPE    C110966   2.956   2.460   3.032  0.6653  0.2913 -0.3780
  107SAPE    HA10967   2.856   2.481   2.988  1.8117  2.8388 -1.9618
  107SAPE    HB10968   2.960   2.349   3.032  0.8311  0.2910 -1.3516
  107SAPE    C210969   2.981   2.511   3.176 -0.3046 -0.2066 -0.7817
  107SAPE    HS10970   2.909   2.464   3.246  0.2663  1.3232  0.9134
  107SAPE   O2110971   2.956   2.648   3.188  0.4411  0.1259  0.5650
  107SAPE   C2110972   2.822   2.688   3.188 -0.4418  0.1563 -0.7339
  107SAPE   O2210973   2.726   2.617   3.204 -0.0489 -0.0834 -0.0511
  107SAPE   C2210974   2.817   2.843   3.194  0.1856 -0.4858 -0.3016
  107SAPE   H2R10975   2.861   2.881   3.289  0.6103  1.4307 -1.1982
  107SAPE   H2S10976   2.874   2.889   3.110  1.2440 -2.0966 -0.5147
  107SAPE    C310977   3.127   2.494   3.227 -0.0041  0.0561  0.2930
  107SAPE    HX10978   3.139   2.544   3.325 -0.4643 -0.5142  0.6517
  107SAPE    HY10979   3.188   2.545   3.150 -2.0169  1.6139 -0.3542
  107SAPE   O3110980   3.166   2.357   3.248  0.1072  0.1481 -0.4701
  107SAPE   C3110981   3.276   2.317   3.195  0.2288 -0.7016 -0.0071
  107SAPE   O3210982   3.369   2.388   3.165 -0.4569  0.3119 -0.2469
  107SAPE   C3210983   3.275   2.165   3.191  0.0458  0.2640  0.1583
  107SAPE   H2X10984   3.303   2.139   3.086 -1.5366  3.4163 -1.1960
  107SAPE   H2Y10985   3.174   2.120   3.191 -0.2265  0.4770 -3.8032
  107SAPE   C2310986   2.676   2.885   3.194 -0.3388  0.0588 -0.0150
  107SAPE   H3R10987   2.618   2.842   3.278  0.1507 -0.9845 -0.1881
  107SAPE   H3S10988   2.620   2.843   3.107  0.4817 -1.2570  0.0542
  107SAPE   C2410989   2.656   3.032   3.218  0.2326 -0.0742  0.6011
  107SAPE   H4R10990   2.558   3.049   3.168  0.1952  0.8054  0.9556
  107SAPE   H4S10991   2.729   3.087   3.155  0.2429 -0.5959  0.1576
  107SAPE   C2510992   2.655   3.087   3.360  0.2626 -0.5141  0.4021
  107SAPE   H5R10993   2.750   3.141   3.376  1.2632 -1.3987 -2.0489
  107SAPE   C2610994   2.558   3.088   3.453 -0.3951 -0.5534  0.5089
  107SAPE   H6R10995   2.582   3.141   3.546  0.6936  2.6234 -1.4213
  107SAPE   C2710996   2.426   3.013   3.444  0.4758  0.3421 -0.4414
  107SAPE   H7R10997   2.406   2.954   3.535  2.5861  0.6253  0.2601
  107SAPE   H7S10998   2.451   2.930   3.375  1.5850  1.1302 -1.0205
  107SAPE   C2810999   2.304   3.077   3.387 -0.5817 -0.5147  0.4293
  107SAPE   H8R11000   2.325   3.132   3.294 -0.0297 -0.9882  0.2683
  107SAPE   C2911001   2.181   3.044   3.430 -0.4115 -0.5368  0.4731
  107SAPE   H9R11002   2.093   3.094   3.386 -0.4541  0.9825  2.1561
  107SAPE  C21011003   2.141   2.949   3.538 -1.1461 -0.2329  0.7140
  107SAPE  H10R11004   2.209   2.861   3.539  0.3509  0.6111 -3.4603
  107SAPE  H10S11005   2.048   2.897   3.505 -1.0298 -0.6503  1.0408
  107SAPE  C21111006   2.093   3.002   3.672  0.8280  0.1388  0.4064
  107SAPE  H11R11007   2.024   3.088   3.670  1.2192  0.4493  0.2108
  107SAPE  C21211008   2.155   2.975   3.792  0.0205  0.0886  0.2603
  107SAPE  H12R11009   2.121   3.026   3.884 -0.5085 -0.7802  0.5545
  107SAPE  C21311010   2.264   2.871   3.804  0.5776  0.1373 -0.4567
  107SAPE  H13R11011   2.256   2.792   3.726  0.9028 -1.4746  1.0843
  107SAPE  H13S11012   2.237   2.813   3.895  1.9206 -1.1049 -0.7933
  107SAPE  C21411013   2.402   2.913   3.827 -0.6520 -0.0871 -0.0986
  107SAPE  H14R11014   2.424   3.020   3.844  1.9333 -0.6484  0.5436
  107SAPE  C21511015   2.510   2.829   3.837 -0.6430  0.2496  0.0134
  107SAPE  H15R11016   2.607   2.872   3.865 -1.2310  1.5000  0.1846
  107SAPE  C21611017   2.512   2.674   3.846 -0.2534 -0.1252 -0.1750
  107SAPE  H16R11018   2.411   2.630   3.855 -0.0700 -0.8789 -1.4934
  107SAPE  H16S11019   2.583   2.642   3.925 -0.6559 -1.1151 -0.2093
  107SAPE  C21711020   2.563   2.628   3.709 -0.5573  0.8404  0.2898
  107SAPE  H17R11021   2.611   2.528   3.717  1.6391  1.5765 -2.1769
  107SAPE  H17S11022   2.644   2.689   3.665  0.4351  0.1040  1.0330
  107SAPE  C21811023   2.451   2.614   3.600  0.0491 -0.3282  0.4413
  107SAPE  H18R11024   2.411   2.716   3.580 -0.2267 -0.7411 -1.2719
  107SAPE  H18S11025   2.369   2.552   3.643 -0.1656 -0.5000 -0.2020
  107SAPE  C21911026   2.497   2.554   3.472 -0.3122  0.4613  0.5160
  107SAPE  H19R11027   2.591   2.596   3.430  1.0993 -0.1527  2.8641
  107SAPE  H19S11028   2.419   2.575   3.396 -0.5744 -0.3349  0.5534
  107SAPE  C22011029   2.514   2.402   3.475  0.3415 -0.1924 -0.7835
  107SAPE  H20R11030   2.414   2.355   3.467  0.8198 -1.6025  0.9572
  107SAPE  H20S11031   2.572   2.369   3.563  3.1900  1.1017 -2.0537
  107SAPE  H20T11032   2.581   2.375   3.390  2.6485  0.2289  0.8202
  107SAPE   C3311033   3.369   2.095   3.286  0.1095  0.1448 -0.1631
  107SAPE   H3X11034   3.470   2.141   3.287  0.1185  0.1280  1.5752
  107SAPE   H3Y11035   3.388   1.989   3.261 -1.0004  0.1384 -1.0983
  107SAPE   C3411036   3.326   2.123   3.429  0.1341  0.2063 -0.2784
  107SAPE   H4X11037   3.219   2.103   3.450  0.6203  1.2785  4.3437
  107SAPE   H4Y11038   3.346   2.227   3.463 -0.8945  0.1119  0.6758
  107SAPE   C3511039   3.407   2.037   3.528 -0.1632 -0.0964  0.2354
  107SAPE   H5X11040   3.515   2.055   3.508  1.2093 -0.2566  5.7303
  107SAPE   H5Y11041   3.387   1.932   3.500 -1.8510 -0.1682  1.5766
  107SAPE   C3611042   3.384   2.081   3.672 -0.8130  0.3131  0.4929
  107SAPE   H6X11043   3.278   2.082   3.705 -0.4518  3.6422  2.0141
  107SAPE   H6Y11044   3.420   2.184   3.694 -1.6585  0.5733  0.6871
  107SAPE   C3711045   3.466   1.989   3.771 -0.2374 -0.5328  0.4151
  107SAPE   H7X11046   3.572   1.983   3.738 -0.0418  1.8371  0.4731
  107SAPE   H7Y11047   3.419   1.889   3.756  0.0567 -0.2805 -2.9842
  107SAPE   C3811048   3.465   2.030   3.925  0.5791  0.0005  0.8375
  107SAPE   H8X11049   3.481   2.140   3.931 -2.1444  0.4303  1.2966
  107SAPE   H8Y11050   3.548   1.972   3.972  1.7091 -0.6847 -1.7785
  107SAPE   C3911051   3.327   2.004   3.989  0.2573 -0.3168 -0.2567
  107SAPE   H9X11052   3.321   1.893   3.986  2.1038 -0.4259 -1.1525
  107SAPE   H9Y11053   3.255   2.045   3.916 -0.0024  1.8700  1.1577
  107SAPE  C31011054   3.293   2.052   4.134 -0.8934 -0.7844 -0.0757
  107SAPE  H10X11055   3.198   2.010   4.172 -0.1343 -1.8706  0.6752
  107SAPE  H10Y11056   3.296   2.163   4.136  2.8069 -0.7511 -0.1021
  107SAPE  C31111057   3.415   2.015   4.225  0.8574  0.2785  0.4009
  107SAPE  H11X11058   3.511   2.056   4.186  1.7155 -1.7562  0.2505
  107SAPE  H11Y11059   3.420   1.904   4.217 -0.2778  0.1883  0.8226
  107SAPE  C31211060   3.399   2.045   4.374  0.4973  0.3570  0.6710
  107SAPE  H12X11061   3.479   1.994   4.431 -0.8781 -2.3294  0.3486
  107SAPE  H12Y11062   3.307   1.992   4.407  1.3595 -2.2370 -0.8177
  107SAPE  C31311063   3.392   2.194   4.411  0.3624 -0.0174 -0.3748
  107SAPE  H13X11064   3.308   2.250   4.366 -0.0060  0.8080  1.2558
  107SAPE  H13Y11065   3.482   2.244   4.368 -0.6689  1.2234 -1.1459
  107SAPE  C31411066   3.383   2.212   4.566 -0.5222 -0.0205  0.2382
  107SAPE  H14X11067   3.450   2.299   4.584 -1.7218  0.9400  0.1457
  107SAPE  H14Y11068   3.423   2.129   4.628  1.2163 -1.0653 -2.1113
  107SAPE  C31511069   3.241   2.234   4.621 -0.4686 -0.5802  0.1415
  107SAPE  H15X11070   3.182   2.141   4.603 -0.4767 -0.4292 -0.6696
  107SAPE  H15Y11071   3.197   2.321   4.567 -1.8537 -1.1682  0.2888
  107SAPE  C31611072   3.245   2.257   4.773 -0.6264 -0.2070  0.5066
  107SAPE  H16X11073   3.325   2.332   4.792 -1.0476  0.5721 -0.7064
  107SAPE  H16Y11074   3.292   2.169   4.823  2.0225  2.0754  2.3757
  107SAPE  C31711075   3.110   2.295   4.834  0.1673 -0.5518 -0.2214
  107SAPE  H17X11076   3.095   2.404   4.818  1.4409 -0.1844  0.8307
  107SAPE  H17Y11077   3.136   2.304   4.942  0.8284  2.5983 -0.5655
  107SAPE  C31811078   2.987   2.216   4.825 -0.8004  0.3660  0.2058
  107SAPE  H18X11079   3.009   2.107   4.818  0.2379  0.6323 -0.8248
  107SAPE  H18Y11080   2.923   2.229   4.735 -0.1821 -0.4583 -0.3618
  107SAPE  H18Z11081   2.916   2.227   4.910  0.6665 -1.3406  1.7316
  108SAPE     N11082   0.867   4.525   2.807 -0.1439  0.1077 -0.4138
  108SAPE   HN111083   0.769   4.496   2.785  0.8337 -3.0723 -1.0488
  108SAPE   HN211084   0.901   4.463   2.883 -1.3360 -1.1386 -0.8588
  108SAPE   HN311085   0.870   4.626   2.832  2.2924 -0.2901  1.2494
  108SAPE   C1211086   0.967   4.501   2.695  0.0882 -0.0704  0.4565
  108SAPE  H12A11087   0.902   4.497   2.604 -2.6139 -0.3327  2.2845
  108SAPE  H12B11088   1.015   4.405   2.722  1.6076 -0.0859 -1.9556
  108SAPE   C1111089   1.078   4.615   2.682 -0.2113 -0.1754  0.8779
  108SAPE  H11A11090   1.022   4.702   2.642  2.8611  0.4406 -2.6831
  108SAPE  H11B11091   1.144   4.574   2.602 -0.2929 -0.8402  1.1426
  108SAPE     P11092   1.252   4.575   2.874  0.1624 -0.1364 -0.5463
  108SAPE   O1311093   1.320   4.488   2.773  0.1315  0.0333 -0.3779
  108SAPE   O1411094   1.332   4.677   2.947 -0.0301 -0.0671  0.7651
  108SAPE   O1211095   1.126   4.648   2.809 -1.1928 -0.2935  0.6533
  108SAPE   O1111096   1.198   4.475   2.987 -0.3344 -0.6616 -0.5265
  108SAPE    C111097   1.282   4.435   3.096  0.7240  0.3880 -0.4341
  108SAPE    HA11098   1.391   4.455   3.084  1.4148 -0.4017  3.3294
  108SAPE    HB11099   1.256   4.494   3.186  0.8782  0.5920 -0.5194
  108SAPE    C211100   1.270   4.285   3.131  0.1117  0.0581 -0.3983
  108SAPE    HS11101   1.173   4.247   3.092 -0.3729  2.2968 -1.4959
  108SAPE   O2111102   1.274   4.275   3.282  0.2174 -0.0896  0.3694
  108SAPE   C2111103   1.151   4.274   3.336 -0.2335  0.7382  0.3022
  108SAPE   O2211104   1.051   4.317   3.287  0.6679  0.4231  0.1180
  108SAPE   C2211105   1.163   4.228   3.485  0.1359 -0.5447  0.6107
  108SAPE   H2R11106   1.189   4.121   3.498 -0.1232 -0.6206  0.5042
  108SAPE   H2S11107   1.242   4.294   3.526  0.7702 -0.8974 -0.0226
  108SAPE    C311108   1.390   4.196   3.070  0.7194 -0.3899 -0.0373
  108SAPE    HX11109   1.479   4.223   3.131 -0.2952  1.1627  0.8189
  108SAPE    HY11110   1.401   4.214   2.961  2.1382  0.9307  0.2831
  108SAPE   O3111111   1.352   4.057   3.097  0.3868 -0.8996  0.0622
  108SAPE   C3111112   1.305   3.986   2.997  0.3579  0.4305  0.8268
  108SAPE   O3211113   1.283   4.019   2.880  0.1115  0.6196 -0.1916
  108SAPE   C3211114   1.249   3.849   3.046  0.0988  0.6253  0.1054
  108SAPE   H2X11115   1.288   3.839   3.150  0.7840 -1.4055 -0.3047
  108SAPE   H2Y11116   1.298   3.771   2.984 -0.6594  1.1515 -1.2037
  108SAPE   C2311117   1.025   4.246   3.557  0.1034 -0.0507  0.2302
  108SAPE   H3R11118   0.953   4.165   3.530 -1.9484  1.4170  1.0397
  108SAPE   H3S11119   0.986   4.346   3.531 -2.4909 -0.0028  3.5377
  108SAPE   C2411120   1.035   4.239   3.717 -0.0936 -0.4994  1.1701
  108SAPE   H4R11121   1.067   4.139   3.753 -2.7768 -1.5006  1.0171
  108SAPE   H4S11122   0.934   4.249   3.761 -0.4980 -0.4181  0.2423
  108SAPE   C2511123   1.119   4.363   3.746  0.5023 -0.3906 -0.6329
  108SAPE   H5R11124   1.143   4.424   3.658 -1.1502 -1.0077 -1.5609
  108SAPE   C2611125   1.171   4.396   3.867  0.1706  0.1390  0.4068
  108SAPE   H6R11126   1.232   4.487   3.878  2.5575 -1.4671  1.2543
  108SAPE   C2711127   1.163   4.321   4.001 -0.1926 -0.2200  0.8507
  108SAPE   H7R11128   1.136   4.216   3.977 -1.1795  0.0273  0.8193
  108SAPE   H7S11129   1.075   4.369   4.049  0.2861  1.6278 -0.0040
  108SAPE   C2811130   1.274   4.334   4.106 -0.4961  0.6901 -0.4199
  108SAPE   H8R11131   1.337   4.424   4.110 -0.6295  0.7645  0.1935
  108SAPE   C2911132   1.303   4.243   4.205  0.4051  0.5181  0.1262
  108SAPE   H9R11133   1.396   4.256   4.263  0.9230 -3.4481  0.4167
  108SAPE  C21011134   1.230   4.111   4.233  0.3453 -0.5612  0.0333
  108SAPE  H10R11135   1.315   4.052   4.273  0.5762 -2.4244 -2.9302
  108SAPE  H10S11136   1.201   4.048   4.147 -1.0239 -0.4943  0.4240
  108SAPE  C21111137   1.106   4.129   4.311  0.4369 -0.3690 -0.0040
  108SAPE  H11R11138   1.050   4.220   4.285  0.6072  0.1654  1.4280
  108SAPE  C21211139   1.078   4.072   4.428 -0.4142 -0.2061 -0.1008
  108SAPE  H12R11140   0.976   4.095   4.460 -0.4583 -0.9357  0.2891
  108SAPE  C21311141   1.152   3.953   4.491 -0.2224  0.0316 -0.3055
  108SAPE  H13R11142   1.205   3.981   4.585  1.9450 -1.8496 -0.8499
  108SAPE  H13S11143   1.234   3.916   4.427  0.4206  1.4332 -0.3256
  108SAPE  C21411144   1.059   3.838   4.523 -0.1470 -0.6625  0.1033
  108SAPE  H14R11145   0.993   3.806   4.441  2.0958  0.3906 -2.2835
  108SAPE  C21511146   1.038   3.771   4.639 -0.1409 -0.3477  0.1928
  108SAPE  H15R11147   0.965   3.688   4.636 -1.5949  0.8564  0.9811
  108SAPE  C21611148   1.094   3.797   4.776 -0.3967  0.0087 -0.4325
  108SAPE  H16R11149   1.013   3.795   4.852  0.2908  1.1685  0.3724
  108SAPE  H16S11150   1.130   3.902   4.785  0.4195 -0.3021  0.1215
  108SAPE  C21711151   1.215   3.704   4.815 -0.0747 -0.1179 -0.4237
  108SAPE  H17R11152   1.285   3.718   4.731 -1.2367 -0.1852 -1.4260
  108SAPE  H17S11153   1.176   3.600   4.814  0.6926 -0.4115 -0.2481
  108SAPE  C21811154   1.283   3.746   4.946  0.2472 -0.0555 -0.7185
  108SAPE  H18R11155   1.383   3.697   4.945  0.1276 -0.3018 -1.6404
  108SAPE  H18S11156   1.236   3.699   5.036 -1.5319  3.2046  0.1942
  108SAPE  C21911157   1.299   3.893   4.970 -0.1457  0.2233  0.2101
  108SAPE  H19R11158   1.200   3.934   4.996 -0.4398 -0.9151  0.9605
  108SAPE  H19S11159   1.346   3.934   4.878 -1.3151  0.1425 -0.4320
  108SAPE  C22011160   1.395   3.927   5.090  0.5122  0.0294  0.0216
  108SAPE  H20R11161   1.352   3.874   5.178  1.0519 -1.4952 -0.5993
  108SAPE  H20S11162   1.402   4.034   5.119  0.2368  0.4821 -1.4999
  108SAPE  H20T11163   1.489   3.872   5.072 -0.8767 -2.1368 -1.1057
  108SAPE   C3311164   1.098   3.844   3.034  0.1261  0.1207  0.9869
  108SAPE   H3X11165   1.062   3.739   3.045  0.4234  0.0395  1.1971
  108SAPE   H3Y11166   1.070   3.873   2.931 -2.3187 -2.8603  0.6727
  108SAPE   C3411167   1.009   3.930   3.128 -0.9001  0.8428 -0.5435
  108SAPE   H4X11168   0.904   3.903   3.100 -0.5781 -0.9853 -0.0893
  108SAPE   H4Y11169   1.013   4.039   3.108 -0.4933  0.7170 -1.1763
  108SAPE   C3511170   1.014   3.911   3.279 -0.0739 -0.0280 -0.1480
  108SAPE   H5X11171   1.117   3.932   3.314  0.2089  0.5533 -1.3056
  108SAPE   H5Y11172   0.944   3.982   3.329 -0.4735 -0.3908 -0.1851
  108SAPE   C3611173   0.958   3.772   3.323 -0.4467  0.8643 -0.1986
  108SAPE   H6X11174   1.029   3.696   3.285  0.4763  0.5648  1.9540
  108SAPE   H6Y11175   0.860   3.751   3.276 -0.9008 -0.6880  1.3204
  108SAPE   C3711176   0.941   3.763   3.474 -0.5634 -0.8545  0.3267
  108SAPE   H7X11177   0.875   3.840   3.520  0.4822 -0.4199  1.1558
  108SAPE   H7Y11178   1.039   3.779   3.524  0.8126 -0.1859 -2.4226
  108SAPE   C3811179   0.889   3.621   3.516 -0.0288 -0.3134  0.1005
  108SAPE   H8X11180   0.947   3.549   3.454  0.2095 -0.8311  0.9121
  108SAPE   H8Y11181   0.785   3.603   3.480  0.8762 -1.9112 -1.9378
  108SAPE   C3911182   0.915   3.599   3.665 -0.5007 -0.2445 -0.0992
  108SAPE   H9X11183   0.862   3.673   3.728  1.2859  0.1795  0.9886
  108SAPE   H9Y11184   1.024   3.612   3.682 -0.4860 -1.7582  1.2541
  108SAPE  C31011185   0.869   3.462   3.704  0.7362 -0.4564 -0.1904
  108SAPE  H10X11186   0.920   3.381   3.648  1.7798  0.2292 -0.2681
  108SAPE  H10Y11187   0.760   3.465   3.684  0.3990  2.6592  1.3521
  108SAPE  C31111188   0.876   3.437   3.862 -0.3361  0.4510  0.2867
  108SAPE  H11X11189   0.820   3.520   3.911  0.6015 -0.4283  3.0236
  108SAPE  H11Y11190   0.980   3.445   3.898  0.5347  0.8784 -2.1463
  108SAPE  C31211191   0.842   3.289   3.903 -0.2648 -0.4367  0.1828
  108SAPE  H12X11192   0.911   3.211   3.863  0.1171 -0.0504  0.0856
  108SAPE  H12Y11193   0.737   3.283   3.868 -0.8944  2.4027  1.3408
  108SAPE  C31311194   0.845   3.275   4.053  0.5336 -0.1308  0.5500
  108SAPE  H13X11195   0.949   3.292   4.088 -0.2363  2.0840  2.0165
  108SAPE  H13Y11196   0.816   3.170   4.074  4.7881 -1.6740 -0.2892
  108SAPE  C31411197   0.753   3.374   4.131  0.5189  0.2166  0.1485
  108SAPE  H14X11198   0.654   3.361   4.081 -0.5278  0.0976  2.1564
  108SAPE  H14Y11199   0.771   3.483   4.120 -2.5411  0.9168  1.0903
  108SAPE  C31511200   0.738   3.342   4.286 -0.3503 -0.7881 -0.8352
  108SAPE  H15X11201   0.687   3.243   4.283  0.3559 -1.1475 -1.3404
  108SAPE  H15Y11202   0.677   3.416   4.341  3.2178 -0.8654  3.7997
  108SAPE  C31611203   0.870   3.326   4.368 -0.1146 -0.0423 -0.7804
  108SAPE  H16X11204   0.935   3.251   4.318  1.8572  1.3463 -0.4468
  108SAPE  H16Y11205   0.843   3.278   4.464 -2.5482  3.4055  0.4595
  108SAPE  C31711206   0.958   3.449   4.394 -0.1392 -0.3938 -0.7217
  108SAPE  H17X11207   0.900   3.531   4.441  0.5198 -0.5204  0.3272
  108SAPE  H17Y11208   1.006   3.489   4.302  0.6486  0.0573 -0.1214
  108SAPE  C31811209   1.068   3.394   4.486 -0.7728 -0.7469  0.2303
  108SAPE  H18X11210   1.011   3.362   4.576  1.5402 -0.7865  1.7406
  108SAPE  H18Y11211   1.135   3.479   4.512 -0.0314 -0.5166 -2.1532
  108SAPE  H18Z11212   1.129   3.319   4.430 -0.1308  0.2694 -0.4723
  109SAPE     N11213   5.439   2.385   2.675  0.3205 -0.2120  0.4904
  109SAPE   HN111214   5.343   2.398   2.713  0.4401 -1.5053  1.2823
  109SAPE   HN211215   5.436   2.434   2.584  2.2426  0.7183  0.8918
  109SAPE   HN311216   5.463   2.288   2.646 -1.0078 -0.2441 -0.5910
  109SAPE   C1211217   5.544   2.428   2.768 -0.1103 -0.4834 -0.3363
  109SAPE  H12A11218   5.643   2.383   2.746  0.5053  0.5894  0.1596
  109SAPE  H12B11219   5.513   2.385   2.866  0.6149 -2.2885 -0.8612
  109SAPE   C1111220   5.566   2.586   2.777 -0.1197  0.4203  0.3753
  109SAPE  H11A11221   5.586   2.626   2.675 -2.0696  0.8131  0.1069
  109SAPE  H11B11222   5.659   2.605   2.835  0.1553 -1.0558  0.4513
  109SAPE     P11223   5.432   2.802   2.809  0.1092  0.0833 -0.0276
  109SAPE   O1311224   5.550   2.858   2.746  0.1296  0.3931 -0.1785
  109SAPE   O1411225   5.294   2.837   2.760  0.2019 -0.3517  0.4357
  109SAPE   O1211226   5.456   2.652   2.829  0.0035 -0.5165 -0.3859
  109SAPE   O1111227   5.433   2.857   2.952 -0.1794 -0.0329  0.2463
  109SAPE    C111228   5.482   2.787   3.064  0.3623  1.2835 -1.0608
  109SAPE    HA11229   5.577   2.733   3.043 -0.1281 -0.2581  0.4734
  109SAPE    HB11230   5.505   2.866   3.139  0.7692  0.4937 -0.3310
  109SAPE    C211231   5.369   2.696   3.134 -0.3127 -0.7122 -0.2294
  109SAPE    HS11232   5.326   2.637   3.050  0.5430 -0.8004 -0.6221
  109SAPE   O2111233   5.271   2.784   3.184 -0.0309  0.1573  0.1075
  109SAPE   C2111234   5.150   2.744   3.206 -0.1130 -0.0887  0.5353
  109SAPE   O2211235   5.111   2.631   3.196 -0.1227 -0.0904 -0.3555
  109SAPE   C2211236   5.072   2.862   3.266  0.0141 -0.1004 -1.2064
  109SAPE   H2R11237   5.089   2.948   3.199  0.6448  0.4070 -0.4165
  109SAPE   H2S11238   4.962   2.847   3.275 -0.1021  1.5978  1.3650
  109SAPE    C311239   5.426   2.593   3.239  0.1418  0.9607 -0.2645
  109SAPE    HX11240   5.466   2.644   3.330 -0.6447  1.1937 -0.0407
  109SAPE    HY11241   5.511   2.540   3.192 -0.6996  0.0703 -0.8429
  109SAPE   O3111242   5.335   2.498   3.291  0.4587  0.4920  0.7459
  109SAPE   C3111243   5.307   2.387   3.221  0.3942 -0.1892  0.1802
  109SAPE   O3211244   5.368   2.350   3.124  0.7791 -0.6539 -0.0109
  109SAPE   C3211245   5.209   2.304   3.297 -0.3014  0.6755  0.1675
  109SAPE   H2X11246   5.109   2.334   3.259 -0.4205 -0.7145 -0.6768
  109SAPE   H2Y11247   5.228   2.328   3.404  3.8180  2.2150 -0.7265
  109SAPE   C2311248   5.137   2.893   3.404 -0.3254 -0.0490 -0.3961
  109SAPE   H3R11249   5.242   2.921   3.381 -0.5004 -0.8078 -2.2919
  109SAPE   H3S11250   5.139   2.793   3.451 -2.6311  0.4751  0.9269
  109SAPE   C2411251   5.066   2.993   3.498 -0.4010  0.6383  0.0248
  109SAPE   H4R11252   5.061   3.089   3.442 -2.1700 -1.6919 -4.2978
  109SAPE   H4S11253   5.138   3.008   3.582 -2.4171  0.9232  1.7796
  109SAPE   C2511254   4.933   2.948   3.552 -0.1491  0.4121 -0.1283
  109SAPE   H5R11255   4.858   2.924   3.474  2.0910  0.5344 -2.4493
  109SAPE   C2611256   4.889   2.942   3.682  0.1007 -0.6805 -0.3013
  109SAPE   H6R11257   4.785   2.913   3.702 -0.1423  0.2924 -0.1070
  109SAPE   C2711258   4.972   2.969   3.802 -0.8366 -0.5359 -0.2478
  109SAPE   H7R11259   4.963   3.077   3.824  1.3395 -0.1484 -1.0037
  109SAPE   H7S11260   5.081   2.953   3.784 -0.7025  0.9310 -0.8592
  109SAPE   C2811261   4.932   2.881   3.919  0.4200 -0.6412 -0.3707
  109SAPE   H8R11262   5.005   2.800   3.934 -0.1858 -1.5057 -1.8485
  109SAPE   C2911263   4.838   2.906   4.015 -0.3797 -0.0921  0.5941
  109SAPE   H9R11264   4.823   2.822   4.085 -2.3804 -2.5901 -2.5160
  109SAPE  C21011265   4.739   3.022   4.022 -0.4776 -0.6447 -0.0702
  109SAPE  H10R11266   4.794   3.105   3.973  1.8921 -0.9690  1.8836
  109SAPE  H10S11267   4.714   3.050   4.126  1.1935  0.1445  0.1478
  109SAPE  C21111268   4.607   2.988   3.954 -0.1510 -0.6065 -0.1554
  109SAPE  H11R11269   4.601   2.899   3.889  1.9456 -1.6441  0.9719
  109SAPE  C21211270   4.491   3.051   3.992  0.1616 -0.0241  0.3617
  109SAPE  H12R11271   4.401   3.025   3.934 -0.1629  0.4313  0.6589
  109SAPE  C21311272   4.472   3.158   4.097  0.0715 -0.3260 -0.2140
  109SAPE  H13R11273   4.433   3.251   4.050 -1.8808 -0.5812  0.8126
  109SAPE  H13S11274   4.569   3.185   4.143 -0.3955 -3.3288  2.9236
  109SAPE  C21411275   4.373   3.120   4.203  0.2273  0.1981 -0.0795
  109SAPE  H14R11276   4.280   3.067   4.176 -0.5169  0.5443  1.6700
  109SAPE  C21511277   4.391   3.151   4.334 -0.2400  0.4694 -0.0876
  109SAPE  H15R11278   4.318   3.120   4.409 -1.8300  2.0729 -0.8985
  109SAPE  C21611279   4.517   3.223   4.393 -0.1497  0.6094 -0.3387
  109SAPE  H16R11280   4.611   3.199   4.339 -1.6010 -1.5256 -2.0378
  109SAPE  H16S11281   4.540   3.176   4.491 -0.9476 -0.3792 -0.6084
  109SAPE  C21711282   4.501   3.378   4.415  0.0721  0.0268  0.3844
  109SAPE  H17R11283   4.402   3.391   4.463 -0.3166  3.1814 -1.0594
  109SAPE  H17S11284   4.491   3.412   4.310  0.3156 -2.0386 -0.3662
  109SAPE  C21811285   4.611   3.444   4.494  0.2257  0.1158  0.7596
  109SAPE  H18R11286   4.704   3.384   4.490 -0.8275 -1.5455  0.2679
  109SAPE  H18S11287   4.577   3.446   4.599  1.4623  1.0333  1.1673
  109SAPE  C21911288   4.642   3.586   4.433 -0.2885 -0.0832 -0.0199
  109SAPE  H19R11289   4.549   3.632   4.393  0.1933 -0.8878 -2.1958
  109SAPE  H19S11290   4.697   3.574   4.337 -0.9934 -0.2200 -0.4113
  109SAPE  C22011291   4.701   3.691   4.526  0.0833 -1.0087  0.0764
  109SAPE  H20R11292   4.732   3.781   4.468 -1.2679 -0.1790  0.5896
  109SAPE  H20S11293   4.790   3.666   4.587  1.9051 -0.6070 -2.2645
  109SAPE  H20T11294   4.621   3.718   4.599  0.7889 -1.1495  0.9157
  109SAPE   C3311295   5.229   2.148   3.288  0.1882 -0.3568  0.6214
  109SAPE   H3X11296   5.297   2.123   3.372  3.7650 -1.3030 -2.2658
  109SAPE   H3Y11297   5.279   2.116   3.194 -0.7863 -1.4319  0.4412
  109SAPE   C3411298   5.090   2.077   3.309  0.6105  0.6350  0.8974
  109SAPE   H4X11299   5.112   1.975   3.273  3.2470  2.0347 -1.9843
  109SAPE   H4Y11300   5.026   2.125   3.232  3.6239  2.7283 -0.5211
  109SAPE   C3511301   5.032   2.088   3.450  0.2194  0.2847  0.6146
  109SAPE   H5X11302   4.936   2.031   3.445 -0.3208  1.2532 -0.7422
  109SAPE   H5Y11303   5.006   2.191   3.485 -3.4600  0.0855 -1.0382
  109SAPE   C3611304   5.120   2.033   3.561 -0.7513  0.6382  0.3421
  109SAPE   H6X11305   5.203   2.105   3.580 -1.2543  1.5953 -0.9788
  109SAPE   H6Y11306   5.161   1.933   3.533 -1.3669  0.7359 -0.9728
  109SAPE   C3711307   5.048   2.009   3.694 -0.0233 -0.6100  0.6579
  109SAPE   H7X11308   5.030   1.900   3.704 -0.4806 -0.8499 -2.0182
  109SAPE   H7Y11309   4.942   2.042   3.688  0.4820  1.1263  0.6346
  109SAPE   C3811310   5.127   2.072   3.807  0.7833  0.0634  0.3673
  109SAPE   H8X11311   5.126   2.183   3.802  1.0637  0.2788  3.3694
  109SAPE   H8Y11312   5.234   2.044   3.798  0.6766 -0.3920  0.5296
  109SAPE   C3911313   5.077   2.030   3.948 -0.0562 -0.1395 -0.0564
  109SAPE   H9X11314   5.054   1.921   3.945  1.8775 -0.6634  1.7061
  109SAPE   H9Y11315   4.987   2.091   3.970 -0.8045 -1.2558  0.0686
  109SAPE  C31011316   5.177   2.047   4.067  0.0498  0.4908 -0.0422
  109SAPE  H10X11317   5.208   2.154   4.068 -1.4821  1.0625 -3.1249
  109SAPE  H10Y11318   5.271   1.990   4.051  0.1285  0.0404  1.8091
  109SAPE  C31111319   5.118   2.021   4.207  0.2057  0.0441 -0.1997
  109SAPE  H11X11320   5.112   1.911   4.219  0.5123 -0.3502 -2.9479
  109SAPE  H11Y11321   5.017   2.067   4.214  0.3943  0.3644  0.5505
  109SAPE  C31211322   5.197   2.093   4.320  0.6740  0.0878  1.4500
  109SAPE  H12X11323   5.235   2.193   4.289  0.8109 -0.4394 -0.1290
  109SAPE  H12Y11324   5.292   2.039   4.340  0.3975  0.0451  2.7945
  109SAPE  C31311325   5.128   2.102   4.454 -0.1659 -0.3163  0.1387
  109SAPE  H13X11326   5.075   2.006   4.475 -1.0588  0.6002  2.5064
  109SAPE  H13Y11327   5.050   2.181   4.452  0.0023 -0.1635 -0.3471
  109SAPE  C31411328   5.219   2.144   4.574  0.0923  0.5311 -0.3051
  109SAPE  H14X11329   5.253   2.249   4.569 -0.8201  1.0116  2.1548
  109SAPE  H14Y11330   5.309   2.080   4.568 -0.2445 -0.2446  1.8821
  109SAPE  C31511331   5.152   2.103   4.707 -0.0082  0.2014 -0.6038
  109SAPE  H15X11332   5.134   1.993   4.700 -0.9518  0.2760  0.4254
  109SAPE  H15Y11333   5.058   2.161   4.719 -0.8733 -0.9339 -1.5331
  109SAPE  C31611334   5.234   2.133   4.828 -0.0939  0.9316 -0.0188
  109SAPE  H16X11335   5.263   2.240   4.832  0.3876  0.8106 -0.2215
  109SAPE  H16Y11336   5.328   2.074   4.824 -0.2870  0.4431  1.6871
  109SAPE  C31711337   5.169   2.088   4.960 -0.0345 -0.5345 -0.1138
  109SAPE  H17X11338   5.062   2.119   4.966 -0.8383 -3.0893 -0.1331
  109SAPE  H17Y11339   5.224   2.139   5.042  1.2501  0.0561 -1.3079
  109SAPE  C31811340   5.179   1.934   4.963 -0.9602  0.4263  0.1400
  109SAPE  H18X11341   5.281   1.895   4.984 -1.7861 -1.2423  1.2665
  109SAPE  H18Y11342   5.135   1.886   4.873 -0.6341 -0.4249  0.4229
  109SAPE  H18Z11343   5.124   1.892   5.050 -1.9694 -0.8919 -1.0916
  110SAPE     N11344   4.086   6.051   2.496  0.0467  0.9596 -0.3937
  110SAPE   HN111345   3.995   6.102   2.506  0.1321  1.4741 -2.0245
  110SAPE   HN211346   4.088   6.008   2.402 -0.5054 -3.8213  1.4859
  110SAPE   HN311347   4.074   5.969   2.559  0.2210 -1.2336 -3.0117
  110SAPE   C1211348   4.200   6.135   2.543 -0.0654 -0.3715 -0.1514
  110SAPE  H12A11349   4.163   6.207   2.620  0.1403  0.2961 -0.6697
  110SAPE  H12B11350   4.241   6.191   2.457  1.1537 -2.2546 -0.8564
  110SAPE   C1111351   4.312   6.058   2.611 -0.8428 -0.2167  0.4886
  110SAPE  H11A11352   4.387   6.135   2.637  2.6464 -2.3300 -2.4451
  110SAPE  H11B11353   4.370   5.993   2.542  2.9194  0.3908  2.7938
  110SAPE     P11354   4.229   5.846   2.727 -0.3235  0.0895 -0.1715
  110SAPE   O1311355   4.097   5.834   2.651 -0.8787  0.7943 -0.4248
  110SAPE   O1411356   4.341   5.768   2.672  0.1074  0.4860 -0.1291
  110SAPE   O1211357   4.265   6.006   2.741  0.2921  0.8629  0.4473
  110SAPE   O1111358   4.203   5.814   2.878  0.4430  0.0161 -0.1355
  110SAPE    C111359   4.087   5.849   2.950  0.5794  0.4670  0.1441
  110SAPE    HA11360   4.002   5.880   2.886 -0.6888  2.4247  2.6132
  110SAPE    HB11361   4.060   5.764   3.016 -0.8117 -1.1946 -2.4146
  110SAPE    C211362   4.109   5.966   3.044  0.0580 -1.0072  0.5308
  110SAPE    HS11363   4.190   6.023   2.994 -1.8435 -0.4461 -2.1612
  110SAPE   O2111364   4.157   5.916   3.166  0.2541  0.0473  0.4331
  110SAPE   C2111365   4.282   5.859   3.163  0.9206 -0.1743 -0.4497
  110SAPE   O2211366   4.367   5.860   3.077 -0.1590 -0.5045  0.5284
  110SAPE   C2211367   4.302   5.784   3.298  0.4619 -0.5417  0.1804
  110SAPE   H2R11368   4.411   5.788   3.321  0.4834 -0.3786  0.0495
  110SAPE   H2S11369   4.233   5.823   3.375  1.1031  0.6309  0.1770
  110SAPE    C311370   3.993   6.065   3.070 -0.2636 -0.5596  0.0159
  110SAPE    HX11371   3.945   6.106   2.979 -1.2127 -2.0164 -0.1633
  110SAPE    HY11372   3.912   6.008   3.121 -0.6891  0.4430  0.4993
  110SAPE   O3111373   4.040   6.174   3.163 -0.2097  0.0857  0.4410
  110SAPE   C3111374   4.117   6.267   3.103 -0.0150 -0.4176  0.1434
  110SAPE   O3211375   4.134   6.292   2.985  0.1705  0.3157 -0.1644
  110SAPE   C3211376   4.200   6.337   3.218 -0.3882  0.0191 -0.1447
  110SAPE   H2X11377   4.258   6.417   3.167  0.1892  1.1994  2.2107
  110SAPE   H2Y11378   4.274   6.263   3.255 -1.3654 -0.1260  1.6756
  110SAPE   C2311379   4.282   5.626   3.296  0.3830  0.8062 -0.5331
  110SAPE   H3R11380   4.371   5.574   3.253 -0.1655 -0.3821 -0.2642
  110SAPE   H3S11381   4.193   5.600   3.235 -0.9776  0.2193  1.6174
  110SAPE   C2411382   4.264   5.580   3.438 -0.0401  0.3230 -0.6472
  110SAPE   H4R11383   4.255   5.469   3.444  2.5520  0.1233  1.7984
  110SAPE   H4S11384   4.175   5.621   3.491 -0.4300  0.9849 -1.7856
  110SAPE   C2511385   4.382   5.607   3.524  0.5418  0.1257 -0.3124
  110SAPE   H5R11386   4.477   5.564   3.490 -0.3265 -0.7890 -1.7054
  110SAPE   C2611387   4.391   5.671   3.641 -0.5189  0.2620 -0.2435
  110SAPE   H6R11388   4.492   5.664   3.684 -0.0737 -1.0735 -1.4302
  110SAPE   C2711389   4.286   5.722   3.729  0.3676  0.4574 -0.3095
  110SAPE   H7R11390   4.314   5.691   3.831 -0.4917  0.2428 -0.1274
  110SAPE   H7S11391   4.190   5.669   3.707  0.7335 -0.8517  1.1120
  110SAPE   C2811392   4.266   5.872   3.706 -0.5721 -0.0292  0.0175
  110SAPE   H8R11393   4.266   5.891   3.598  1.1097  0.0890  0.0074
  110SAPE   C2911394   4.242   5.973   3.798  0.1226 -0.6006  0.2878
  110SAPE   H9R11395   4.233   6.078   3.767  1.2064 -0.3028  0.9350
  110SAPE  C21011396   4.234   5.955   3.948  0.6130  0.4963 -0.0827
  110SAPE  H10R11397   4.323   6.002   3.994  0.4225 -1.3355  2.3287
  110SAPE  H10S11398   4.239   5.846   3.967  1.5239  1.0642  3.8457
  110SAPE  C21111399   4.105   5.989   4.015  0.2328 -0.3169 -1.2149
  110SAPE  H11R11400   4.014   5.955   3.965 -0.8857  1.9948 -0.8422
  110SAPE  C21211401   4.084   6.046   4.141  0.3511  0.2955  1.1297
  110SAPE  H12R11402   3.980   6.056   4.175 -0.4528  0.6377 -1.2723
  110SAPE  C21311403   4.190   6.113   4.226  0.5569 -0.7353  0.4794
  110SAPE  H13R11404   4.183   6.224   4.224 -0.2085 -0.7354  1.9009
  110SAPE  H13S11405   4.284   6.110   4.167 -0.6450  0.0982 -1.5707
  110SAPE  C21411406   4.221   6.044   4.352  0.5653  0.0861 -0.5255
  110SAPE  H14R11407   4.284   5.954   4.346 -0.0290 -0.2781 -1.4936
  110SAPE  C21511408   4.170   6.076   4.475 -0.7454  0.4035 -0.5205
  110SAPE  H15R11409   4.185   6.006   4.559 -1.3249  2.6819  1.6124
  110SAPE  C21611410   4.077   6.189   4.504  0.9944 -0.5735 -0.2271
  110SAPE  H16R11411   3.974   6.153   4.526  0.2948 -0.0436 -2.3771
  110SAPE  H16S11412   4.066   6.249   4.411 -1.9772  0.1598  0.4860
  110SAPE  C21711413   4.140   6.288   4.604  0.0521  0.5140 -0.1822
  110SAPE  H17R11414   4.068   6.373   4.610 -0.5718 -0.1066  1.9411
  110SAPE  H17S11415   4.233   6.341   4.573  0.3942 -0.1243 -0.2618
  110SAPE  C21811416   4.176   6.241   4.742  0.2207  0.0132  0.2523
  110SAPE  H18R11417   4.265   6.178   4.759 -0.5182 -1.1047  0.0365
  110SAPE  H18S11418   4.090   6.183   4.783 -1.4954  2.6116  0.6203
  110SAPE  C21911419   4.176   6.352   4.851  0.3098 -0.4413 -0.1543
  110SAPE  H19R11420   4.152   6.306   4.949  0.4247  2.6550  1.4252
  110SAPE  H19S11421   4.094   6.424   4.830  1.4425  0.9224 -0.0115
  110SAPE  C22011422   4.303   6.436   4.865 -0.4098  0.3792 -0.4369
  110SAPE  H20R11423   4.320   6.483   4.766 -0.1245  0.3216 -0.4136
  110SAPE  H20S11424   4.392   6.372   4.879  0.2588  1.5522  0.9625
  110SAPE  H20T11425   4.301   6.522   4.937  2.9967 -0.6060  1.0178
  110SAPE   C3311426   4.124   6.396   3.336 -0.3003 -0.0388  0.4998
  110SAPE   H3X11427   4.042   6.323   3.353 -0.7946  0.1159 -1.0917
  110SAPE   H3Y11428   4.077   6.491   3.301 -0.6253 -0.8769 -1.4719
  110SAPE   C3411429   4.214   6.424   3.460  0.0289  0.0234 -0.5649
  110SAPE   H4X11430   4.245   6.530   3.452  0.8633 -0.3303 -2.4935
  110SAPE   H4Y11431   4.303   6.358   3.459 -0.2057 -0.3738  1.3327
  110SAPE   C3511432   4.127   6.410   3.590 -0.5280  0.2736 -0.0031
  110SAPE   H5X11433   4.115   6.301   3.607  1.4365  0.0575  0.2921
  110SAPE   H5Y11434   4.028   6.452   3.565 -0.4058  0.4120 -0.2650
  110SAPE   C3611435   4.190   6.479   3.712  0.4953  0.0901  0.2149
  110SAPE   H6X11436   4.185   6.588   3.691  1.5221 -0.0086 -0.6721
  110SAPE   H6Y11437   4.296   6.444   3.720 -0.1533 -1.9808  0.4543
  110SAPE   C3711438   4.127   6.440   3.840 -0.3001 -0.1974 -0.0152
  110SAPE   H7X11439   4.161   6.344   3.884 -0.5357  0.2303  1.1304
  110SAPE   H7Y11440   4.017   6.432   3.829 -0.2858 -1.4479  0.5557
  110SAPE   C3811441   4.164   6.550   3.949 -0.2650  0.0927 -0.2601
  110SAPE   H8X11442   4.117   6.649   3.928 -1.2738  0.2183  2.2552
  110SAPE   H8Y11443   4.273   6.568   3.935 -0.4389  0.5267 -1.1589
  110SAPE   C3911444   4.124   6.513   4.086  0.0035 -0.6641 -0.1917
  110SAPE   H9X11445   4.186   6.428   4.123 -0.3935 -0.8091  0.1461
  110SAPE   H9Y11446   4.016   6.492   4.073 -0.3753 -0.3509  1.9992
  110SAPE  C31011447   4.153   6.629   4.180  0.4029  0.4092 -0.3698
  110SAPE  H10X11448   4.062   6.693   4.183  0.0303 -0.0823  3.5419
  110SAPE  H10Y11449   4.239   6.684   4.136 -0.9695  0.3947 -3.3350
  110SAPE  C31111450   4.170   6.594   4.329 -0.2143  0.4024  0.5147
  110SAPE  H11X11451   4.261   6.531   4.341 -1.2117 -1.2912 -0.4396
  110SAPE  H11Y11452   4.085   6.536   4.369  2.9268 -2.5070  3.7281
  110SAPE  C31211453   4.191   6.715   4.427 -0.3683  0.4501 -0.2657
  110SAPE  H12X11454   4.095   6.762   4.456  0.7710  1.6525  1.7774
  110SAPE  H12Y11455   4.264   6.785   4.380 -0.2070  1.1836  1.0368
  110SAPE  C31311456   4.256   6.666   4.559  0.1823 -0.0431 -0.8966
  110SAPE  H13X11457   4.349   6.609   4.540 -0.3996 -0.2982 -3.3723
  110SAPE  H13Y11458   4.178   6.613   4.618  1.6274 -2.3906 -1.0041
  110SAPE  C31411459   4.285   6.774   4.663  0.1765 -0.0791  0.1405
  110SAPE  H14X11460   4.350   6.852   4.617  2.1911 -1.4551  0.5184
  110SAPE  H14Y11461   4.355   6.737   4.741  0.5907 -1.1522 -0.7265
  110SAPE  C31511462   4.164   6.819   4.748 -0.4922 -0.3650  0.3860
  110SAPE  H15X11463   4.143   6.733   4.815  1.2272 -0.8355  0.3790
  110SAPE  H15Y11464   4.075   6.847   4.687 -0.4721 -2.5815 -0.7515
  110SAPE  C31611465   4.207   6.937   4.841  0.1362 -0.3439 -0.3570
  110SAPE  H16X11466   4.313   6.931   4.872 -0.3851 -1.9567  1.3093
  110SAPE  H16Y11467   4.138   6.961   4.925 -0.3469  2.0863 -1.3687
  110SAPE  C31711468   4.210   7.070   4.770  0.3506 -0.2683  0.2158
  110SAPE  H17X11469   4.110   7.072   4.721  0.0941  0.2451  0.7492
  110SAPE  H17Y11470   4.283   7.065   4.687 -0.6739  2.1071 -0.9187
  110SAPE  C31811471   4.235   7.192   4.859  0.1268 -0.2957  0.3868
  110SAPE  H18X11472   4.235   7.291   4.809  0.6302  0.4567  1.8104
  110SAPE  H18Y11473   4.338   7.197   4.900 -0.5549  2.6917  2.0757
  110SAPE  H18Z11474   4.168   7.203   4.947  2.0186 -0.3096  1.8914
  111SAPE     N11475   3.300   0.796   2.158 -0.1395 -0.3233 -0.2760
  111SAPE   HN111476   3.297   0.761   2.060 -1.7907 -3.0270  0.6311
  111SAPE   HN211477   3.359   0.882   2.165 -0.5124  0.0478 -1.4162
  111SAPE   HN311478   3.331   0.712   2.211 -1.1763 -0.3112  0.3777
  111SAPE   C1211479   3.159   0.821   2.199  0.0161 -0.2775 -0.2705
  111SAPE  H12A11480   3.115   0.720   2.190  1.7890 -1.2109  0.8216
  111SAPE  H12B11481   3.110   0.882   2.121  1.1507  1.7022  0.4772
  111SAPE   C1111482   3.145   0.871   2.346  0.5326  0.5828 -0.6660
  111SAPE  H11A11483   3.041   0.889   2.381  0.2140 -0.4196 -1.0449
  111SAPE  H11B11484   3.212   0.959   2.347 -0.0560  1.0428  0.8024
  111SAPE     P11485   3.116   0.639   2.474 -0.2070 -0.2643  0.3946
  111SAPE   O1311486   2.993   0.618   2.395  0.2343  0.2702  0.0500
  111SAPE   O1411487   3.209   0.526   2.478  0.3658 -0.1014  0.3695
  111SAPE   O1211488   3.197   0.765   2.434  0.5185 -0.3981  0.3445
  111SAPE   O1111489   3.075   0.685   2.614 -0.2033  0.5901 -0.2978
  111SAPE    C111490   3.053   0.588   2.717  0.6919 -0.0800  0.4223
  111SAPE    HA11491   2.954   0.539   2.723  1.1519 -1.0652  0.2218
  111SAPE    HB11492   3.121   0.500   2.705  0.5846  0.0285 -1.0517
  111SAPE    C211493   3.092   0.644   2.857  0.2663  0.5045 -0.3003
  111SAPE    HS11494   3.077   0.552   2.919  1.6307  0.2511 -0.3149
  111SAPE   O2111495   3.010   0.754   2.897  0.0139  0.0408  0.3719
  111SAPE   C2111496   2.892   0.723   2.949 -0.1241  0.1874 -0.7426
  111SAPE   O2211497   2.836   0.613   2.951  0.4482 -0.1897  0.2880
  111SAPE   C2211498   2.838   0.842   3.027  0.8497 -0.3062 -0.2626
  111SAPE   H2R11499   2.926   0.880   3.083 -0.0126  1.4036 -0.0029
  111SAPE   H2S11500   2.806   0.916   2.950  1.7084  1.2173  0.7879
  111SAPE    C311501   3.238   0.683   2.863 -0.3426  0.1219 -0.2003
  111SAPE    HX11502   3.269   0.775   2.808  1.3848 -0.9738 -1.1736
  111SAPE    HY11503   3.300   0.602   2.820  1.1454  0.8108  0.5654
  111SAPE   O3111504   3.271   0.702   3.004 -0.1936  0.3761  0.1236
  111SAPE   C3111505   3.398   0.733   3.025  0.6362  0.1195  0.6048
  111SAPE   O3211506   3.494   0.712   2.950 -0.1347  0.3485 -0.0587
  111SAPE   C3211507   3.410   0.795   3.162  0.2179  0.0641  0.3292
  111SAPE   H2X11508   3.358   0.729   3.235  2.5192 -0.4093  1.6476
  111SAPE   H2Y11509   3.368   0.897   3.151 -0.8030 -0.5510 -2.2274
  111SAPE   C2311510   2.718   0.814   3.128 -0.2231  0.3543  0.1064
  111SAPE   H3R11511   2.633   0.754   3.090  0.2310 -2.2545  2.8122
  111SAPE   H3S11512   2.675   0.912   3.160 -1.1897 -0.0456  0.0466
  111SAPE   C2411513   2.776   0.740   3.249  0.4014  0.0807 -0.0489
  111SAPE   H4R11514   2.865   0.793   3.289 -0.5986  1.0251  0.9829
  111SAPE   H4S11515   2.794   0.638   3.209 -3.6952  0.2351 -2.9136
  111SAPE   C2511516   2.683   0.723   3.363  0.3722  0.2137 -0.3083
  111SAPE   H5R11517   2.596   0.660   3.339 -0.4027  1.2069 -0.1381
  111SAPE   C2611518   2.681   0.786   3.485  0.5906 -0.0565 -0.3626
  111SAPE   H6R11519   2.609   0.771   3.566 -0.7892 -1.9367 -1.8505
  111SAPE   C2711520   2.792   0.881   3.524 -0.4237 -0.4114 -0.9126
  111SAPE   H7R11521   2.802   0.968   3.455 -0.1030  1.5286  1.4305
  111SAPE   H7S11522   2.892   0.833   3.520 -0.3019 -0.1351 -1.2414
  111SAPE   C2811523   2.781   0.955   3.657  0.2250  0.2799 -0.0660
  111SAPE   H8R11524   2.760   1.063   3.654  0.5124  0.3458  0.2306
  111SAPE   C2911525   2.780   0.891   3.776  0.2537 -1.0331  0.4395
  111SAPE   H9R11526   2.760   0.960   3.859  3.2779  1.9094 -1.0451
  111SAPE  C21011527   2.804   0.747   3.803 -0.3708 -0.0880 -0.0404
  111SAPE  H10R11528   2.911   0.725   3.783 -0.0078 -0.5325  2.1407
  111SAPE  H10S11529   2.757   0.681   3.727  0.5191  0.8513 -1.4568
  111SAPE  C21111530   2.760   0.687   3.937  0.1431 -0.4587  0.5301
  111SAPE  H11R11531   2.678   0.614   3.923 -0.6516  0.1839  1.7041
  111SAPE  C21211532   2.809   0.707   4.060 -0.8001  0.4577 -0.3211
  111SAPE  H12R11533   2.776   0.639   4.141  0.4321 -0.2230 -0.3612
  111SAPE  C21311534   2.922   0.799   4.093  0.2919 -0.6518 -0.2562
  111SAPE  H13R11535   2.863   0.886   4.129  0.0813 -0.0973 -1.8698
  111SAPE  H13S11536   2.976   0.844   4.006 -0.7895  1.2391  0.0057
  111SAPE  C21411537   3.023   0.745   4.194  0.1842  0.3661  0.3880
  111SAPE  H14R11538   3.072   0.655   4.156 -1.8996  0.1171 -1.9749
  111SAPE  C21511539   3.061   0.787   4.316  0.0645  0.3219 -0.5614
  111SAPE  H15R11540   3.141   0.737   4.373 -2.2713 -1.8216  1.0644
  111SAPE  C21611541   3.016   0.915   4.391  0.9117  1.4780  0.4620
  111SAPE  H16R11542   2.937   0.965   4.329  0.7193  0.0961 -0.4600
  111SAPE  H16S11543   3.102   0.982   4.411  1.7635  0.5217  0.0861
  111SAPE  C21711544   2.933   0.871   4.524 -0.4192 -0.5110  0.5236
  111SAPE  H17R11545   2.839   0.814   4.511 -1.4390  1.1424  0.3551
  111SAPE  H17S11546   2.909   0.976   4.551  2.2478  0.2088  0.3873
  111SAPE  C21811547   3.024   0.814   4.634  0.1976 -0.0973  0.7877
  111SAPE  H18R11548   3.120   0.869   4.631 -1.3772  3.3438  4.4600
  111SAPE  H18S11549   3.032   0.707   4.604 -1.1738 -0.3216  1.1284
  111SAPE  C21911550   2.973   0.824   4.779 -0.4530  0.1330  0.2424
  111SAPE  H19R11551   2.956   0.931   4.803 -1.1226 -0.0846  0.7593
  111SAPE  H19S11552   3.056   0.780   4.838  1.3219 -1.9165 -3.3947
  111SAPE  C22011553   2.851   0.737   4.811  0.3439  0.5028 -0.3422
  111SAPE  H20R11554   2.753   0.774   4.773  0.5484 -0.3239 -1.7346
  111SAPE  H20S11555   2.838   0.739   4.921 -0.5913  3.0756 -0.4235
  111SAPE  H20T11556   2.868   0.630   4.788 -2.8074 -0.6534  2.0848
  111SAPE   C3311557   3.559   0.801   3.193  0.8278 -0.4212  0.2682
  111SAPE   H3X11558   3.629   0.835   3.115  0.6587 -0.6559  0.0141
  111SAPE   H3Y11559   3.594   0.703   3.231 -1.4492 -1.8585 -1.1103
  111SAPE   C3411560   3.596   0.896   3.308  0.0078 -0.4519 -0.3345
  111SAPE   H4X11561   3.538   0.870   3.399  1.6672  0.1550  0.9395
  111SAPE   H4Y11562   3.580   1.004   3.287  1.6148 -0.3578 -1.2638
  111SAPE   C3511563   3.748   0.883   3.347 -0.2644 -0.2688  0.1312
  111SAPE   H5X11564   3.816   0.898   3.260  2.0775  0.1768  1.9398
  111SAPE   H5Y11565   3.761   0.778   3.381 -0.9282 -0.0263  1.1626
  111SAPE   C3611566   3.793   0.997   3.441 -0.8539  0.1642 -0.6706
  111SAPE   H6X11567   3.730   0.992   3.532 -2.6884  0.9204 -1.8353
  111SAPE   H6Y11568   3.783   1.093   3.386  2.0243  1.4888  0.9193
  111SAPE   C3711569   3.943   0.976   3.474  0.3684 -0.1389 -1.0502
  111SAPE   H7X11570   4.008   0.996   3.386  0.0566  2.4114 -0.7714
  111SAPE   H7Y11571   3.962   0.874   3.513 -1.8724 -0.2944 -0.2731
  111SAPE   C3811572   3.995   1.058   3.600  0.7520  0.5921  0.5790
  111SAPE   H8X11573   3.964   1.164   3.587 -1.3835  0.2352  2.1422
  111SAPE   H8Y11574   4.106   1.056   3.601  0.7792  1.4999  0.0749
  111SAPE   C3911575   3.936   1.007   3.732  0.2468  0.5737  0.5536
  111SAPE   H9X11576   3.943   0.896   3.730 -0.3016  0.4856  2.0520
  111SAPE   H9Y11577   3.828   1.033   3.735  0.1666  0.7218 -1.9099
  111SAPE  C31011578   4.009   1.066   3.854  0.3205  0.3706 -0.7668
  111SAPE  H10X11579   3.993   1.176   3.856 -0.6994  0.2246 -0.2642
  111SAPE  H10Y11580   4.117   1.041   3.841  0.3579 -0.8705  1.4495
  111SAPE  C31111581   3.958   1.001   3.983 -0.8794  0.1192  0.1876
  111SAPE  H11X11582   3.983   0.895   3.961 -0.1186  0.7101 -2.0723
  111SAPE  H11Y11583   3.849   1.011   4.006 -0.4374  0.5106  2.2150
  111SAPE  C31211584   4.039   1.043   4.110  0.3541 -0.1290  0.7142
  111SAPE  H12X11585   4.037   1.154   4.115  0.4299 -0.0009 -1.3136
  111SAPE  H12Y11586   4.145   1.011   4.114  0.7239  0.9663  0.0377
  111SAPE  C31311587   3.977   0.977   4.239 -0.4881  0.3126 -0.5301
  111SAPE  H13X11588   3.981   0.866   4.233  1.3508  0.3739 -0.8704
  111SAPE  H13Y11589   3.868   0.999   4.243 -0.3581  0.8959  2.3056
  111SAPE  C31411590   4.051   1.014   4.373 -0.2099 -0.0457 -0.5587
  111SAPE  H14X11591   4.161   1.005   4.360 -0.2602 -2.3606  0.0513
  111SAPE  H14Y11592   4.028   0.930   4.443  1.2818 -0.1276 -0.1166
  111SAPE  C31511593   4.002   1.147   4.435 -0.1436  0.0765  0.3340
  111SAPE  H15X11594   3.896   1.139   4.466 -0.3564  1.9240  0.2181
  111SAPE  H15Y11595   4.003   1.233   4.364  3.0991  2.0528  2.4987
  111SAPE  C31611596   4.094   1.186   4.555 -0.2888  0.1243 -0.2932
  111SAPE  H16X11597   4.061   1.290   4.578 -1.0650 -0.6174  2.3350
  111SAPE  H16Y11598   4.203   1.189   4.534 -0.2005  1.8124  0.1837
  111SAPE  C31711599   4.071   1.098   4.677 -0.4742 -0.1055 -0.5328
  111SAPE  H17X11600   4.048   0.991   4.656 -3.4390  0.3921 -0.3400
  111SAPE  H17Y11601   3.986   1.144   4.732 -0.1152 -0.8052  0.6207
  111SAPE  C31811602   4.195   1.091   4.768 -0.6042 -0.1601 -1.0065
  111SAPE  H18X11603   4.258   1.010   4.726 -1.1528 -2.0208  1.5412
  111SAPE  H18Y11604   4.161   1.049   4.865  0.2442  1.1273 -0.1122
  111SAPE  H18Z11605   4.250   1.187   4.782 -0.8424 -0.3099  1.2978
  112SAPE     N11606   0.804   6.527   2.798 -0.0102 -0.0246  0.1679
  112SAPE   HN111607   0.830   6.607   2.859  0.1236  0.3444 -0.3621
  112SAPE   HN211608   0.725   6.477   2.843 -1.3166  2.2693  0.6000
  112SAPE   HN311609   0.890   6.469   2.802  0.6861  0.8711 -0.9811
  112SAPE   C1211610   0.761   6.578   2.666  0.1121  0.4609  0.7627
  112SAPE  H12A11611   0.704   6.494   2.620 -0.1557  0.2963  1.3908
  112SAPE  H12B11612   0.854   6.598   2.609 -0.7595  1.7792 -0.2420
  112SAPE   C1111613   0.686   6.704   2.675  0.0103  0.2695 -0.7048
  112SAPE  H11A11614   0.577   6.698   2.696  0.1822  0.8590  0.4209
  112SAPE  H11B11615   0.680   6.742   2.570 -1.0926  1.0167 -0.3885
  112SAPE     P11616   0.841   6.905   2.718  0.3229  0.0766 -0.3266
  112SAPE   O1311617   0.980   6.849   2.732  0.2811 -0.4200  0.0728
  112SAPE   O1411618   0.812   6.947   2.584  0.0779 -0.2603  0.1945
  112SAPE   O1211619   0.740   6.795   2.772  0.0128  0.5064  0.0668
  112SAPE   O1111620   0.838   7.030   2.808 -0.3464 -0.4387  0.5944
  112SAPE    C111621   0.727   7.070   2.887 -0.0548 -0.0881  0.3812
  112SAPE    HA11622   0.631   7.033   2.846  1.2279 -0.9729 -2.0096
  112SAPE    HB11623   0.726   7.022   2.987 -1.2500  0.0365  0.4450
  112SAPE    C211624   0.722   7.228   2.905  0.7203 -1.0465  0.3786
  112SAPE    HS11625   0.751   7.271   2.807 -0.2302 -1.3811 -0.0581
  112SAPE   O2111626   0.808   7.269   3.010 -0.3347 -0.6615 -0.2988
  112SAPE   C2111627   0.806   7.395   3.027  0.8006  0.3343 -0.1144
  112SAPE   O2211628   0.775   7.476   2.939 -0.3318 -0.1252  0.6183
  112SAPE   C2211629   0.867   7.434   3.162  0.5361 -0.6296  0.4964
  112SAPE   H2R11630   0.826   7.372   3.244 -1.1272 -0.0557  0.1479
  112SAPE   H2S11631   0.977   7.422   3.163  0.5685 -0.3610  0.3459
  112SAPE    C311632   0.569   7.267   2.943  0.2487  0.7915 -0.2227
  112SAPE    HX11633   0.511   7.225   2.858 -0.4350 -3.2031  1.9532
  112SAPE    HY11634   0.557   7.376   2.959  1.9656  0.7462  1.8367
  112SAPE   O3111635   0.538   7.196   3.064  0.8639 -0.2217 -0.0074
  112SAPE   C3111636   0.536   7.259   3.176  0.4336  0.5754  0.0805
  112SAPE   O3211637   0.558   7.381   3.193  0.3663 -0.0356 -0.1911
  112SAPE   C3211638   0.480   7.163   3.282  0.3824 -0.5373  0.0998
  112SAPE   H2X11639   0.541   7.071   3.273  0.9027 -0.3508  1.5950
  112SAPE   H2Y11640   0.373   7.140   3.261  0.5668 -0.0809 -1.5320
  112SAPE   C2311641   0.832   7.585   3.204 -0.3636  0.1884  0.5059
  112SAPE   H3R11642   0.722   7.594   3.198 -0.3051  0.8139  0.3075
  112SAPE   H3S11643   0.886   7.660   3.142 -0.0712 -2.8421 -3.3093
  112SAPE   C2411644   0.869   7.608   3.353  0.0416  0.1793 -0.2401
  112SAPE   H4R11645   0.852   7.711   3.389  2.4951  0.3579  0.6175
  112SAPE   H4S11646   0.977   7.602   3.378  0.2730  1.6528 -0.7797
  112SAPE   C2511647   0.787   7.526   3.438 -0.1093 -0.2458  0.0604
  112SAPE   H5R11648   0.682   7.558   3.450  0.4339  0.9819  2.0166
  112SAPE   C2611649   0.835   7.433   3.518 -0.7429  0.4242 -0.4406
  112SAPE   H6R11650   0.768   7.382   3.589 -0.0138 -0.8415 -0.6489
  112SAPE   C2711651   0.975   7.393   3.528  0.2962 -0.1119  0.5601
  112SAPE   H7R11652   1.031   7.387   3.432 -0.0589 -1.0794  0.4071
  112SAPE   H7S11653   0.984   7.290   3.567 -2.2793  0.1219  1.9971
  112SAPE   C2811654   1.053   7.483   3.613  0.1466 -0.5349  0.1873
  112SAPE   H8R11655   1.129   7.542   3.559  0.5953 -0.9885  0.3207
  112SAPE   C2911656   1.053   7.495   3.748 -1.0739 -0.0597 -0.6309
  112SAPE   H9R11657   1.123   7.567   3.794  1.3760 -2.3780 -0.5125
  112SAPE  C21011658   0.958   7.418   3.843 -0.5537  0.4257 -0.6080
  112SAPE  H10R11659   0.881   7.355   3.793 -1.9742  1.4748  0.1711
  112SAPE  H10S11660   0.894   7.492   3.895 -1.2467  0.2252 -1.1606
  112SAPE  C21111661   1.047   7.349   3.950 -0.3723  0.3767  0.0988
  112SAPE  H11R11662   1.142   7.316   3.905 -0.1609 -0.2723  0.9889
  112SAPE  C21211663   1.003   7.309   4.076 -0.1573  0.5055 -0.4327
  112SAPE  H12R11664   1.078   7.264   4.142 -1.3591  1.1789  1.4780
  112SAPE  C21311665   0.870   7.344   4.146  0.1502 -0.1118 -0.0856
  112SAPE  H13R11666   0.805   7.253   4.152 -0.0106  0.0385  0.4724
  112SAPE  H13S11667   0.814   7.403   4.070  0.8285 -1.6886 -1.8814
  112SAPE  C21411668   0.885   7.439   4.265  0.2806 -0.4982  0.1977
  112SAPE  H14R11669   0.933   7.535   4.245 -1.5920  0.6387  0.9437
  112SAPE  C21511670   0.850   7.413   4.391  0.2646  0.5223  0.2009
  112SAPE  H15R11671   0.857   7.494   4.466 -0.2985 -0.5343  1.4280
  112SAPE  C21611672   0.805   7.280   4.444 -0.9528 -0.1341  0.3056
  112SAPE  H16R11673   0.872   7.205   4.397  0.0227  0.9042  0.0120
  112SAPE  H16S11674   0.700   7.269   4.409 -1.1796 -1.4481  1.3124
  112SAPE  C21711675   0.799   7.289   4.599 -0.1572  0.1808  0.6098
  112SAPE  H17R11676   0.773   7.184   4.625 -0.2148  0.1818  0.5572
  112SAPE  H17S11677   0.719   7.355   4.635  0.3512  2.9511 -2.7916
  112SAPE  C21811678   0.928   7.322   4.675 -0.2710  0.0095  0.4033
  112SAPE  H18R11679   0.976   7.421   4.657 -0.9133  0.1771 -0.4605
  112SAPE  H18S11680   0.995   7.243   4.635 -2.9499 -1.8741 -0.6085
  112SAPE  C21911681   0.913   7.308   4.823 -0.3097 -0.0413 -0.0556
  112SAPE  H19R11682   0.875   7.207   4.848 -0.1153  0.1429  1.0331
  112SAPE  H19S11683   0.831   7.379   4.847 -2.0781 -1.6395 -1.0551
  112SAPE  C22011684   1.043   7.312   4.895 -0.5893  0.0897 -0.1585
  112SAPE  H20R11685   1.119   7.246   4.847 -1.3164 -0.7460 -0.1978
  112SAPE  H20S11686   1.048   7.265   4.996  0.9101 -1.5277 -0.9201
  112SAPE  H20T11687   1.073   7.418   4.902 -0.7411  0.0550  1.7446
  112SAPE   C3311688   0.503   7.219   3.419 -0.4838  0.4275 -0.8382
  112SAPE   H3X11689   0.465   7.324   3.417 -1.9173 -0.0759 -1.1104
  112SAPE   H3Y11690   0.611   7.222   3.445 -0.0655 -2.2937 -1.9428
  112SAPE   C3411691   0.430   7.130   3.523  0.5194 -0.1604 -0.4622
  112SAPE   H4X11692   0.442   7.021   3.507 -2.4767 -0.3545 -2.0423
  112SAPE   H4Y11693   0.320   7.139   3.510  0.2350 -0.9128  1.1889
  112SAPE   C3511694   0.442   7.180   3.676  0.0482  0.0747  0.2444
  112SAPE   H5X11695   0.397   7.282   3.671 -0.2385 -0.0935 -1.1517
  112SAPE   H5Y11696   0.545   7.197   3.712  0.3851  1.2818 -1.1614
  112SAPE   C3611697   0.369   7.096   3.771 -0.2311  0.0271  0.6078
  112SAPE   H6X11698   0.411   6.993   3.765 -1.0586 -0.3473  1.0314
  112SAPE   H6Y11699   0.268   7.075   3.730 -0.1079 -0.5880  0.5985
  112SAPE   C3711700   0.388   7.142   3.911  0.1975 -0.0434  0.1429
  112SAPE   H7X11701   0.336   7.236   3.939  1.6794  0.0079  3.2010
  112SAPE   H7Y11702   0.495   7.168   3.925  0.1692  0.2882 -0.2544
  112SAPE   C3811703   0.340   7.043   4.020 -0.9529  0.1286 -0.8122
  112SAPE   H8X11704   0.397   6.948   4.012  2.0907  1.7455  0.2612
  112SAPE   H8Y11705   0.230   7.027   4.013 -1.0906  0.1203  0.9283
  112SAPE   C3911706   0.366   7.108   4.158  0.6351  0.1468 -0.3113
  112SAPE   H9X11707   0.320   7.209   4.166  0.8079  0.1609  0.5777
  112SAPE   H9Y11708   0.475   7.125   4.165  0.8982 -0.6689 -1.9338
  112SAPE  C31011709   0.323   7.015   4.278 -0.5097  0.6924 -0.1937
  112SAPE  H10X11710   0.399   6.934   4.281 -0.1879  1.0062  1.0638
  112SAPE  H10Y11711   0.223   6.972   4.255 -0.3125  0.4776 -0.6434
  112SAPE  C31111712   0.332   7.094   4.412 -0.1237  0.1104  0.3328
  112SAPE  H11X11713   0.258   7.177   4.409  0.6240  0.7537 -0.7908
  112SAPE  H11Y11714   0.435   7.130   4.429  1.2083 -3.0572 -0.3495
  112SAPE  C31211715   0.282   7.014   4.540  0.3821  0.2644 -0.8703
  112SAPE  H12X11716   0.348   6.933   4.577 -0.2432  0.0934 -0.0881
  112SAPE  H12Y11717   0.185   6.966   4.511 -0.1592  1.1112 -0.5032
  112SAPE  C31311718   0.257   7.108   4.659 -0.2457 -0.2394 -0.2749
  112SAPE  H13X11719   0.176   7.173   4.620 -1.7196 -2.5186 -1.2349
  112SAPE  H13Y11720   0.348   7.171   4.668  1.0479 -1.8803 -1.1449
  112SAPE  C31411721   0.211   7.025   4.779 -0.2436 -1.0170 -0.0554
  112SAPE  H14X11722   0.296   6.974   4.830  0.8406  0.9256  0.1879
  112SAPE  H14Y11723   0.140   6.945   4.748 -0.6973 -0.9541  0.8032
  112SAPE  C31511724   0.131   7.109   4.878 -0.8542  0.7336 -0.2257
  112SAPE  H15X11725   0.051   7.165   4.826 -1.3100 -0.9912 -1.4858
  112SAPE  H15Y11726   0.202   7.183   4.922  0.4803 -0.0935 -0.9145
  112SAPE  C31611727   0.060   7.037   4.997 -0.1065  0.5269 -0.4989
  112SAPE  H16X11728   0.123   6.966   5.055 -1.4099 -0.2852 -0.0217
  112SAPE  H16Y11729  -0.016   6.972   4.948  0.4630 -0.5486 -0.0021
  112SAPE  C31711730  -0.022   7.137   5.085  0.9067 -0.1526 -0.8199
  112SAPE  H17X11731  -0.064   7.069   5.162  0.1135  0.1115 -1.0165
  112SAPE  H17Y11732  -0.100   7.173   5.015 -0.3925 -1.8321 -0.2771
  112SAPE  C31811733   0.052   7.250   5.156 -0.2734 -0.3665 -0.4393
  112SAPE  H18X11734   0.153   7.212   5.180 -0.9457 -1.1662  1.3124
  112SAPE  H18Y11735   0.001   7.286   5.249 -0.0941 -3.2772  0.8931
  112SAPE  H18Z11736   0.062   7.332   5.082 -2.8544 -1.4935 -2.1694
  113SAPE     N11737   1.390   5.758   2.501  0.2240 -0.0214  0.4640
  113SAPE   HN111738   1.427   5.778   2.406  0.1026 -2.8565 -0.2972
  113SAPE   HN211739   1.309   5.692   2.496  0.0941  0.2072 -0.9491
  113SAPE   HN311740   1.361   5.853   2.530 -0.4854 -0.9736  3.1650
  113SAPE   C1211741   1.496   5.709   2.597  0.5206  0.5672  0.0316
  113SAPE  H12A11742   1.576   5.787   2.601  0.0211  1.0322  2.4840
  113SAPE  H12B11743   1.545   5.622   2.549 -1.6565 -1.1353  0.7336
  113SAPE   C1111744   1.432   5.683   2.735 -0.0261 -0.4656 -0.0317
  113SAPE  H11A11745   1.516   5.661   2.805  1.5575 -0.0540 -1.7217
  113SAPE  H11B11746   1.371   5.591   2.724 -1.2067  0.4646 -1.6393
  113SAPE     P11747   1.422   5.901   2.869 -0.3153  0.0560 -0.0827
  113SAPE   O1311748   1.567   5.902   2.850  0.0248  0.3213  0.1141
  113SAPE   O1411749   1.349   6.026   2.848 -0.0598  0.7147  0.3586
  113SAPE   O1211750   1.350   5.791   2.786  0.0511  0.0361  0.1735
  113SAPE   O1111751   1.400   5.843   3.012 -0.1304  0.3944  0.1963
  113SAPE    C111752   1.269   5.800   3.052 -0.0511 -0.1516 -0.6891
  113SAPE    HA11753   1.234   5.869   3.132 -3.2551  0.0054 -2.0742
  113SAPE    HB11754   1.192   5.789   2.972  0.7146 -1.2392 -1.3128
  113SAPE    C211755   1.272   5.669   3.135 -0.0435 -0.1551 -0.2215
  113SAPE    HS11756   1.171   5.655   3.178 -0.2844 -0.0484 -0.7509
  113SAPE   O2111757   1.364   5.664   3.247 -0.4682 -0.0526 -0.1831
  113SAPE   C2111758   1.332   5.740   3.349 -0.3352 -0.0272 -0.1212
  113SAPE   O2211759   1.223   5.801   3.366 -0.5805 -0.2592  0.6043
  113SAPE   C2211760   1.445   5.756   3.452  0.2003 -0.5146  0.4445
  113SAPE   H2R11761   1.527   5.814   3.405  1.0746 -1.6286  0.5794
  113SAPE   H2S11762   1.392   5.820   3.527  0.9768  0.4807  0.1685
  113SAPE    C311763   1.308   5.552   3.043 -0.1501  0.0416  0.7984
  113SAPE    HX11764   1.404   5.583   2.997 -0.5103 -0.2666 -0.1730
  113SAPE    HY11765   1.243   5.538   2.954  1.8596 -0.6943 -0.6242
  113SAPE   O3111766   1.320   5.428   3.120  0.3998  0.0513  0.2513
  113SAPE   C3111767   1.347   5.314   3.051 -0.4193  0.4435 -0.7992
  113SAPE   O3211768   1.358   5.299   2.928 -0.2932 -0.0756 -0.3625
  113SAPE   C3211769   1.380   5.198   3.144 -0.4275  0.1808  0.4036
  113SAPE   H2X11770   1.448   5.133   3.084  0.9372  1.7016  0.2379
  113SAPE   H2Y11771   1.282   5.147   3.150  0.0458 -0.9433 -0.8743
  113SAPE   C2311772   1.485   5.615   3.498 -0.5202 -0.0812 -0.0532
  113SAPE   H3R11773   1.523   5.568   3.404 -0.3765  0.7441 -0.4186
  113SAPE   H3S11774   1.402   5.554   3.540 -2.4966  1.4971 -1.4716
  113SAPE   C2411775   1.596   5.631   3.603 -0.4739 -0.9688  0.9663
  113SAPE   H4R11776   1.677   5.701   3.575  1.0827 -2.9538  0.2554
  113SAPE   H4S11777   1.644   5.530   3.606  0.0600 -0.7167  1.0288
  113SAPE   C2511778   1.534   5.659   3.732  0.9049  0.2189  0.2263
  113SAPE   H5R11779   1.433   5.702   3.738  0.7200 -0.2163  0.3057
  113SAPE   C2611780   1.592   5.663   3.856 -0.3269 -0.6082  0.3899
  113SAPE   H6R11781   1.530   5.696   3.940  0.5508 -1.5749  1.4476
  113SAPE   C2711782   1.733   5.621   3.891  0.0588  0.1682 -0.2789
  113SAPE   H7R11783   1.784   5.590   3.797  0.3270 -0.8822  0.1956
  113SAPE   H7S11784   1.732   5.527   3.950  1.9100 -0.3990 -1.0780
  113SAPE   C2811785   1.817   5.727   3.944  0.3697  0.1789  0.0474
  113SAPE   H8R11786   1.865   5.795   3.871  2.4790 -0.8497  0.4099
  113SAPE   C2911787   1.891   5.723   4.055 -0.5919 -0.4354  0.2662
  113SAPE   H9R11788   1.973   5.794   4.072 -1.1781 -0.1043  1.8433
  113SAPE  C21011789   1.874   5.612   4.155  0.2866 -0.2163  0.1019
  113SAPE  H10R11790   1.971   5.562   4.173 -0.8798 -2.4318  0.6657
  113SAPE  H10S11791   1.822   5.518   4.124  3.2838 -1.8395 -0.3590
  113SAPE  C21111792   1.811   5.654   4.288 -0.5346 -0.6809 -0.7790
  113SAPE  H11R11793   1.722   5.716   4.270 -1.1209 -1.1047  0.5968
  113SAPE  C21211794   1.863   5.647   4.414 -0.0107  0.2722  0.2498
  113SAPE  H12R11795   1.799   5.687   4.495  0.8559  0.1687  1.0014
  113SAPE  C21311796   1.977   5.563   4.457 -0.5959 -0.3652 -0.0433
  113SAPE  H13R11797   2.018   5.611   4.549  1.0968  1.4776 -1.6409
  113SAPE  H13S11798   2.057   5.566   4.380  1.0947 -2.7007  1.5156
  113SAPE  C21411799   1.934   5.417   4.484 -0.3336 -0.8022  0.0305
  113SAPE  H14R11800   1.867   5.371   4.410 -0.1797 -1.4853  0.3096
  113SAPE  C21511801   1.957   5.339   4.596 -1.1550 -0.4530  0.1855
  113SAPE  H15R11802   1.922   5.235   4.596 -0.5473 -0.6826  1.7077
  113SAPE  C21611803   2.042   5.378   4.720  0.3238  0.6806  0.3857
  113SAPE  H16R11804   2.008   5.311   4.802 -2.6695  0.6886 -0.7437
  113SAPE  H16S11805   2.018   5.484   4.744 -1.1759 -0.2080  3.3016
  113SAPE  C21711806   2.187   5.367   4.686 -0.4161 -0.8168  0.0792
  113SAPE  H17R11807   2.249   5.424   4.758 -0.3662 -0.9554  0.1444
  113SAPE  H17S11808   2.206   5.421   4.590 -1.5691 -0.1379  0.2057
  113SAPE  C21811809   2.235   5.226   4.690 -0.2625  0.0675 -0.3466
  113SAPE  H18R11810   2.176   5.155   4.629  1.6345 -2.0949  0.2319
  113SAPE  H18S11811   2.212   5.192   4.793 -0.4447 -0.1048 -0.4447
  113SAPE  C21911812   2.380   5.208   4.639 -0.0300  1.1462  0.3699
  113SAPE  H19R11813   2.438   5.281   4.700 -0.8100  1.7810  0.3755
  113SAPE  H19S11814   2.393   5.227   4.531  0.4823 -3.2806 -0.5277
  113SAPE  C22011815   2.442   5.067   4.666  0.7159  0.1907  0.1437
  113SAPE  H20R11816   2.540   5.056   4.614  0.9721  0.2661  0.6050
  113SAPE  H20S11817   2.364   5.007   4.615 -0.3193  1.9199 -0.3948
  113SAPE  H20T11818   2.455   5.029   4.769  2.1364  0.4306  0.0723
  113SAPE   C3311819   1.431   5.236   3.284 -0.3281  0.1880  1.6222
  113SAPE   H3X11820   1.346   5.245   3.355 -2.6971 -0.6980 -0.9301
  113SAPE   H3Y11821   1.492   5.329   3.276 -0.5396  0.3516  1.8736
  113SAPE   C3411822   1.519   5.128   3.338 -0.2137  0.1076 -0.1746
  113SAPE   H4X11823   1.595   5.097   3.264 -0.0095  1.9742 -0.7966
  113SAPE   H4Y11824   1.457   5.039   3.362  0.2862 -0.2446 -0.1867
  113SAPE   C3511825   1.572   5.169   3.478 -0.1507  0.1380 -0.4689
  113SAPE   H5X11826   1.646   5.249   3.457  0.4230  0.3034  1.8255
  113SAPE   H5Y11827   1.637   5.085   3.510  1.5564  0.9581 -1.6363
  113SAPE   C3611828   1.478   5.212   3.588 -0.3929  0.5894  0.6292
  113SAPE   H6X11829   1.392   5.142   3.600  0.1889 -0.5908 -1.4918
  113SAPE   H6Y11830   1.438   5.313   3.563 -0.7987  0.6334  1.4353
  113SAPE   C3711831   1.549   5.223   3.724  0.0585  0.2614 -0.1060
  113SAPE   H7X11832   1.640   5.280   3.694  0.2607  0.3091  0.5779
  113SAPE   H7Y11833   1.592   5.125   3.756  0.4643  0.9305  1.5588
  113SAPE   C3811834   1.461   5.283   3.838 -0.7296 -0.1134 -0.1137
  113SAPE   H8X11835   1.432   5.389   3.822 -0.9617 -0.2201 -0.4008
  113SAPE   H8Y11836   1.371   5.218   3.838 -1.3344  0.6912 -1.3304
  113SAPE   C3911837   1.530   5.279   3.977  0.2061 -1.3508 -0.3824
  113SAPE   H9X11838   1.632   5.322   3.963 -0.0382  0.3924  2.4036
  113SAPE   H9Y11839   1.546   5.175   4.015  0.7156 -0.5756  1.6579
  113SAPE  C31011840   1.460   5.351   4.096 -0.3912  0.1072 -0.1370
  113SAPE  H10X11841   1.364   5.300   4.116 -0.6865  0.2960 -1.0434
  113SAPE  H10Y11842   1.453   5.459   4.071  0.7495  0.1090 -0.5524
  113SAPE  C31111843   1.530   5.333   4.225  0.7629 -0.2172  0.7460
  113SAPE  H11X11844   1.619   5.400   4.226 -0.0595  0.9268  0.2922
  113SAPE  H11Y11845   1.583   5.238   4.243  0.8023 -0.5283 -0.8505
  113SAPE  C31211846   1.447   5.377   4.352  0.5048 -1.2445  0.8651
  113SAPE  H12X11847   1.357   5.313   4.367 -1.9133  1.7080 -0.0747
  113SAPE  H12Y11848   1.408   5.480   4.342  0.5831 -1.3169 -0.3288
  113SAPE  C31311849   1.535   5.372   4.472  1.2016 -0.1588 -0.1275
  113SAPE  H13X11850   1.625   5.432   4.449  0.4047  1.4414  0.7831
  113SAPE  H13Y11851   1.562   5.268   4.501  1.5287 -0.3098 -0.9741
  113SAPE  C31411852   1.474   5.437   4.598 -0.4561  0.1012 -0.7175
  113SAPE  H14X11853   1.414   5.356   4.645  1.6476 -1.7755 -1.1326
  113SAPE  H14Y11854   1.413   5.528   4.582 -0.8912  0.2234  1.3382
  113SAPE  C31511855   1.589   5.472   4.705  0.0460  0.0172 -0.7594
  113SAPE  H15X11856   1.646   5.565   4.682 -0.9114  0.7346 -0.2819
  113SAPE  H15Y11857   1.659   5.389   4.727  0.2188  0.8833  2.4438
  113SAPE  C31611858   1.530   5.486   4.846  1.0248 -0.4138 -0.1033
  113SAPE  H16X11859   1.490   5.393   4.892  0.6123 -0.4371 -0.5063
  113SAPE  H16Y11860   1.445   5.555   4.833 -0.9129 -2.6218  0.1949
  113SAPE  C31711861   1.636   5.554   4.939  0.0232 -0.7965  0.0105
  113SAPE  H17X11862   1.680   5.634   4.876  0.8058 -0.1800  1.2952
  113SAPE  H17Y11863   1.718   5.484   4.963  1.9481  1.9135  1.8848
  113SAPE  C31811864   1.578   5.620   5.060  0.0361  0.2395  0.1811
  113SAPE  H18X11865   1.524   5.717   5.044  0.4734  0.8398  2.0901
  113SAPE  H18Y11866   1.645   5.645   5.145 -1.0646 -1.8146  1.7310
  113SAPE  H18Z11867   1.506   5.552   5.110  1.1842  0.7498  2.6692
  114SAPE     N11868   4.072   0.254   2.466  0.0852  0.0761  0.2028
  114SAPE   HN111869   4.155   0.208   2.510  0.3330  0.4667  0.1462
  114SAPE   HN211870   4.058   0.342   2.519 -0.8612 -0.1432  0.3345
  114SAPE   HN311871   3.990   0.192   2.482  0.6443 -1.0906 -1.2477
  114SAPE   C1211872   4.100   0.314   2.327  0.0684 -0.3275 -0.1351
  114SAPE  H12A11873   4.015   0.383   2.311  1.4453  1.3164 -0.6974
  114SAPE  H12B11874   4.102   0.226   2.260 -0.7524 -0.6719  0.2839
  114SAPE   C1111875   4.226   0.400   2.340  0.4338  0.7487  0.3991
  114SAPE  H11A11876   4.240   0.448   2.241  2.1066  1.8057  1.1169
  114SAPE  H11B11877   4.317   0.338   2.354  0.0398 -0.3696 -1.6938
  114SAPE     P11878   4.245   0.652   2.424  0.0134 -0.3453  0.0571
  114SAPE   O1311879   4.387   0.692   2.420 -0.2623 -0.2254  0.5811
  114SAPE   O1411880   4.151   0.697   2.315 -0.6199 -0.2559 -0.1749
  114SAPE   O1211881   4.227   0.491   2.446 -0.2354 -0.4998 -0.9071
  114SAPE   O1111882   4.195   0.700   2.561 -0.2367 -0.0230 -0.4259
  114SAPE    C111883   4.264   0.682   2.684  0.4205  0.8950 -0.3116
  114SAPE    HA11884   4.374   0.667   2.679  0.3660 -0.3150  1.1662
  114SAPE    HB11885   4.255   0.764   2.759  0.0250  1.4867 -0.9975
  114SAPE    C211886   4.218   0.551   2.754 -0.1274  0.1956 -0.0458
  114SAPE    HS11887   4.224   0.471   2.677  0.2922 -0.0141  0.2041
  114SAPE   O2111888   4.091   0.573   2.801  0.4546 -0.3841  0.3079
  114SAPE   C2111889   3.990   0.512   2.737 -0.2249 -0.0791 -0.0696
  114SAPE   O2211890   4.001   0.426   2.648  0.3139  0.4011 -0.0848
  114SAPE   C2211891   3.863   0.564   2.796  0.3503  0.5111 -0.0018
  114SAPE   H2R11892   3.888   0.644   2.868  2.1262  0.1363 -0.1620
  114SAPE   H2S11893   3.796   0.612   2.722 -0.5047  0.3879  0.6698
  114SAPE    C311894   4.310   0.498   2.870 -0.4842  0.1512 -0.0386
  114SAPE    HX11895   4.312   0.580   2.945  0.0615  0.2333 -0.1323
  114SAPE    HY11896   4.410   0.499   2.821 -0.2993  1.4169  0.3233
  114SAPE   O3111897   4.285   0.372   2.925  0.0048 -0.0747 -0.9842
  114SAPE   C3111898   4.378   0.311   3.001  0.3030 -1.0850  0.5625
  114SAPE   O3211899   4.481   0.368   3.043  0.0159 -0.0739  0.2251
  114SAPE   C3211900   4.343   0.172   3.037 -0.1119 -0.3165  0.1780
  114SAPE   H2X11901   4.439   0.118   3.031 -0.3681 -0.6116 -2.5189
  114SAPE   H2Y11902   4.267   0.133   2.966 -0.6050  0.4795  0.2520
  114SAPE   C2311903   3.766   0.454   2.854 -0.1894  0.6921 -0.1052
  114SAPE   H3R11904   3.778   0.358   2.800 -1.3024  1.5821 -2.0434
  114SAPE   H3S11905   3.667   0.482   2.812  0.4068  1.3516 -1.1022
  114SAPE   C2411906   3.772   0.451   3.007  0.0367  0.6260 -0.8351
  114SAPE   H4R11907   3.692   0.376   3.021 -0.7027  1.0481 -2.5694
  114SAPE   H4S11908   3.742   0.542   3.064 -2.3947 -0.9526  0.5752
  114SAPE   C2511909   3.901   0.397   3.052 -0.1594 -0.2598  0.0260
  114SAPE   H5R11910   3.969   0.347   2.981  0.3135 -1.0958  1.0345
  114SAPE   C2611911   3.960   0.433   3.170 -0.2793  0.0449  0.3161
  114SAPE   H6R11912   4.052   0.377   3.194  0.0358  0.1787 -0.5632
  114SAPE   C2711913   3.884   0.496   3.283  0.5361 -0.1876 -0.4511
  114SAPE   H7R11914   3.792   0.435   3.299  1.0940 -0.5829  1.3698
  114SAPE   H7S11915   3.841   0.598   3.270 -1.3653 -0.7884  0.7385
  114SAPE   C2811916   3.975   0.502   3.406  0.3301  0.5322 -0.2882
  114SAPE   H8R11917   4.082   0.515   3.383  0.6668  0.0383  0.9361
  114SAPE   C2911918   3.930   0.498   3.538  0.2505  0.1342 -0.7146
  114SAPE   H9R11919   4.010   0.491   3.613 -0.9087 -0.0329  0.5469
  114SAPE  C21011920   3.788   0.482   3.593 -0.4084  0.2751  0.7343
  114SAPE  H10R11921   3.771   0.372   3.601  0.1461 -0.0217 -1.4817
  114SAPE  H10S11922   3.714   0.500   3.512 -0.5364  0.8166  0.9685
  114SAPE  C21111923   3.750   0.565   3.718 -0.3117 -0.3781  0.1262
  114SAPE  H11R11924   3.788   0.668   3.714  1.0006 -0.8527 -0.0318
  114SAPE  C21211925   3.671   0.526   3.824 -0.2451 -0.1637  0.5215
  114SAPE  H12R11926   3.653   0.594   3.909  1.3260 -1.8374  2.2879
  114SAPE  C21311927   3.614   0.387   3.848  0.1509 -0.3154  0.4442
  114SAPE  H13R11928   3.657   0.348   3.943 -1.4324  0.6030  1.5751
  114SAPE  H13S11929   3.632   0.314   3.766 -0.7071  0.2881 -0.2916
  114SAPE  C21411930   3.458   0.384   3.848 -0.5378  0.0306 -0.6559
  114SAPE  H14R11931   3.409   0.435   3.765  1.0866  2.5311 -0.1640
  114SAPE  C21511932   3.387   0.347   3.954  0.4416  0.3974 -0.7866
  114SAPE  H15R11933   3.277   0.355   3.948  0.1737 -0.3165  2.0010
  114SAPE  C21611934   3.437   0.291   4.084 -0.7450  0.0121 -0.1285
  114SAPE  H16R11935   3.546   0.276   4.091 -0.9396 -0.7540  1.6911
  114SAPE  H16S11936   3.403   0.188   4.108 -0.9317 -0.0811 -0.7571
  114SAPE  C21711937   3.410   0.379   4.205  0.9279  0.5441 -0.4969
  114SAPE  H17R11938   3.306   0.417   4.204  0.5023 -0.5853 -2.2974
  114SAPE  H17S11939   3.478   0.467   4.196  0.2956  1.0238 -0.5936
  114SAPE  C21811940   3.436   0.318   4.343  0.7077  0.8812  0.9168
  114SAPE  H18R11941   3.546   0.307   4.360  1.0893  0.3047 -1.5896
  114SAPE  H18S11942   3.398   0.213   4.344  0.6553  0.8615 -0.8684
  114SAPE  C21911943   3.377   0.417   4.450  0.4983  0.1324 -0.7204
  114SAPE  H19R11944   3.267   0.430   4.439  0.4446  0.7420  0.4106
  114SAPE  H19S11945   3.418   0.519   4.438  0.2812  0.4112  0.7259
  114SAPE  C22011946   3.409   0.370   4.590 -0.1976  0.0869  0.1967
  114SAPE  H20R11947   3.519   0.387   4.595 -0.2372  0.0073  2.3535
  114SAPE  H20S11948   3.390   0.262   4.609  0.4785  0.0845  0.9106
  114SAPE  H20T11949   3.367   0.442   4.664 -2.2497  1.1810 -1.9277
  114SAPE   C3311950   4.297   0.156   3.188 -0.1275 -1.0332 -0.3618
  114SAPE   H3X11951   4.225   0.238   3.203  1.2668  0.0701  0.5771
  114SAPE   H3Y11952   4.387   0.172   3.251 -1.4026  0.8048  1.0647
  114SAPE   C3411953   4.230   0.022   3.209 -0.3113 -0.2439 -0.4720
  114SAPE   H4X11954   4.300  -0.059   3.177 -0.8664 -0.9294  0.0160
  114SAPE   H4Y11955   4.142   0.013   3.143  1.3928 -0.6337 -2.8145
  114SAPE   C3511956   4.208   0.003   3.363  0.3335  0.8260 -0.5168
  114SAPE   H5X11957   4.292   0.015   3.434 -1.4468  1.7087  1.5581
  114SAPE   H5Y11958   4.177  -0.103   3.374  0.3156  0.5985 -2.4900
  114SAPE   C3611959   4.108   0.098   3.421  0.4572 -0.4183 -0.6271
  114SAPE   H6X11960   4.009   0.090   3.373 -0.5193  2.3215  0.7152
  114SAPE   H6Y11961   4.144   0.201   3.400  2.1850 -0.5882  1.1193
  114SAPE   C3711962   4.098   0.080   3.572 -0.0882 -0.5547  0.0687
  114SAPE   H7X11963   4.102  -0.029   3.593 -0.5562 -0.6385 -0.2450
  114SAPE   H7Y11964   4.000   0.119   3.607  0.4341  1.4345 -0.5506
  114SAPE   C3811965   4.206   0.152   3.659 -0.6126  0.0924  0.6750
  114SAPE   H8X11966   4.197   0.254   3.614 -2.5201 -0.9304 -1.4442
  114SAPE   H8Y11967   4.308   0.117   3.634 -0.6744  0.4452 -0.0892
  114SAPE   C3911968   4.187   0.158   3.815  0.8026  0.9417  0.7513
  114SAPE   H9X11969   4.188   0.058   3.862 -3.1418 -0.5080 -1.7139
  114SAPE   H9Y11970   4.089   0.203   3.844 -0.2181 -1.4268  1.1598
  114SAPE  C31011971   4.296   0.231   3.888 -0.0092 -0.3333  0.0468
  114SAPE  H10X11972   4.280   0.341   3.891  1.4230 -0.0876 -0.5819
  114SAPE  H10Y11973   4.394   0.199   3.847  0.9199 -0.0727  1.9902
  114SAPE  C31111974   4.303   0.189   4.034  0.3474 -0.3377  0.1837
  114SAPE  H11X11975   4.396   0.222   4.086 -1.1204  0.8277  2.2336
  114SAPE  H11Y11976   4.300   0.079   4.048 -1.8153  0.0035  3.4245
  114SAPE  C31211977   4.195   0.255   4.130 -0.2845 -0.4128 -0.1299
  114SAPE  H12X11978   4.094   0.238   4.087 -0.7450 -0.5640  0.9784
  114SAPE  H12Y11979   4.218   0.364   4.125  0.3279 -0.5570 -0.5893
  114SAPE  C31311980   4.201   0.207   4.274  0.2991  0.0777  0.2625
  114SAPE  H13X11981   4.305   0.179   4.301  0.5249  1.2361  0.6487
  114SAPE  H13Y11982   4.135   0.118   4.283 -3.7537  2.6416 -1.2631
  114SAPE  C31411983   4.152   0.304   4.379 -0.6918  0.0303 -0.0163
  114SAPE  H14X11984   4.137   0.244   4.471 -0.2455 -1.7732 -1.0688
  114SAPE  H14Y11985   4.052   0.343   4.349 -0.3349  0.8551 -0.1473
  114SAPE  C31511986   4.259   0.417   4.396  0.5517  0.3293 -0.2842
  114SAPE  H15X11987   4.309   0.443   4.300  1.9578 -0.5094  0.1959
  114SAPE  H15Y11988   4.338   0.379   4.465 -1.1895  0.9274  2.1529
  114SAPE  C31611989   4.211   0.552   4.458  0.1253  0.6878  0.5925
  114SAPE  H16X11990   4.162   0.526   4.555 -1.4476 -0.3780 -0.4437
  114SAPE  H16Y11991   4.126   0.588   4.397 -0.0257 -0.1625  0.2967
  114SAPE  C31711992   4.324   0.652   4.499 -0.0359  0.0867 -0.0195
  114SAPE  H17X11993   4.365   0.684   4.401 -0.0615 -0.9802 -0.3813
  114SAPE  H17Y11994   4.407   0.598   4.549 -0.2912  0.3979  0.7567
  114SAPE  C31811995   4.288   0.775   4.584  0.1897  0.3289 -0.3336
  114SAPE  H18X11996   4.189   0.799   4.540  0.3263  0.7582 -0.4159
  114SAPE  H18Y11997   4.368   0.850   4.564 -0.4178  1.5935  1.7409
  114SAPE  H18Z11998   4.279   0.758   4.693 -0.3540  1.2771 -0.2185
  115SAPE     N11999   0.873   2.341   2.685 -0.0939  0.2694 -0.7022
  115SAPE   HN112000   0.831   2.433   2.712 -2.1456 -0.2958 -1.7430
  115SAPE   HN212001   0.807   2.263   2.705 -1.1527  1.0236 -1.1614
  115SAPE   HN312002   0.958   2.320   2.741 -2.2354 -1.8265  2.0739
  115SAPE   C1212003   0.910   2.341   2.539  1.1385  0.3188  0.4183
  115SAPE  H12A12004   1.021   2.353   2.535  1.3974 -1.1498  2.2644
  115SAPE  H12B12005   0.854   2.428   2.497 -0.1194  1.1660  3.5546
  115SAPE   C1112006   0.862   2.205   2.482 -0.7378  0.4514 -0.6485
  115SAPE  H11A12007   0.882   2.206   2.373  1.4619  1.4302 -0.2790
  115SAPE  H11B12008   0.755   2.196   2.513 -0.0395  0.7994  2.1915
  115SAPE     P12009   1.043   2.006   2.488 -0.1479  0.8052 -0.0048
  115SAPE   O1312010   0.987   1.878   2.434  0.0219  0.0670 -0.8292
  115SAPE   O1412011   1.138   2.086   2.403 -0.4501  0.1658 -0.7812
  115SAPE   O1212012   0.935   2.099   2.552  0.2331 -0.3222 -0.6062
  115SAPE   O1112013   1.127   1.963   2.609  0.1337 -0.1462 -0.5447
  115SAPE    C112014   1.055   1.890   2.717 -0.4312  0.5257  0.1151
  115SAPE    HA12015   0.986   1.811   2.682 -0.4201 -0.5621  2.3710
  115SAPE    HB12016   1.137   1.835   2.768 -0.8581 -0.3384 -0.1114
  115SAPE    C212017   1.001   1.986   2.824  0.3745  0.1713  0.5318
  115SAPE    HS12018   0.942   2.062   2.768 -0.0821 -0.8180 -0.3589
  115SAPE   O2112019   1.114   2.039   2.887 -0.2879 -0.7743 -0.8937
  115SAPE   C2112020   1.143   2.171   2.884 -0.1842 -0.0640  0.0964
  115SAPE   O2212021   1.091   2.250   2.805  0.5930 -0.4087  0.2821
  115SAPE   C2212022   1.248   2.207   2.982 -0.5070 -0.4314 -0.3526
  115SAPE   H2R12023   1.285   2.115   3.033 -2.1390 -0.1642  1.4632
  115SAPE   H2S12024   1.343   2.250   2.944 -0.7479 -1.2417 -1.9344
  115SAPE    C312025   0.894   1.915   2.920 -0.5927  0.6807 -0.5142
  115SAPE    HX12026   0.925   1.815   2.958  1.6379  0.7692 -1.9281
  115SAPE    HY12027   0.808   1.907   2.851  1.0200  1.1186 -2.6659
  115SAPE   O3112028   0.867   2.003   3.030  0.4574  0.7569 -0.3036
  115SAPE   C3112029   0.783   1.951   3.127  0.5246  1.0717  0.4818
  115SAPE   O3212030   0.748   1.832   3.126 -0.2218 -0.9292  0.4998
  115SAPE   C3212031   0.736   2.054   3.230 -1.3117 -0.1916 -0.0318
  115SAPE   H2X12032   0.625   2.049   3.243 -1.5419  0.9960 -1.2072
  115SAPE   H2Y12033   0.764   2.153   3.188 -1.5647  1.1029  2.6731
  115SAPE   C2312034   1.194   2.318   3.079  0.1074  0.2396 -0.0659
  115SAPE   H3R12035   1.171   2.404   3.013  1.0525  1.7253  1.4361
  115SAPE   H3S12036   1.275   2.341   3.151  0.3346  1.9586 -0.8143
  115SAPE   C2412037   1.062   2.281   3.149 -0.1291 -0.3283 -0.5371
  115SAPE   H4R12038   1.074   2.193   3.215 -0.8276 -0.5959 -0.7603
  115SAPE   H4S12039   0.995   2.242   3.070  3.4689 -1.3636 -3.3753
  115SAPE   C2512040   0.983   2.387   3.231 -0.1119  0.1806  0.0222
  115SAPE   H5R12041   0.915   2.448   3.169  1.4930  0.8244 -1.1640
  115SAPE   C2612042   1.001   2.410   3.363 -0.0216  0.0927  0.5253
  115SAPE   H6R12043   0.932   2.485   3.404 -1.3050 -0.1046 -1.1538
  115SAPE   C2712044   1.098   2.337   3.450 -0.0896  1.1246 -0.2927
  115SAPE   H7R12045   1.192   2.321   3.393  0.9806 -1.0915  1.9075
  115SAPE   H7S12046   1.046   2.245   3.485 -0.1999  0.5642 -1.8571
  115SAPE   C2812047   1.136   2.413   3.574 -0.2900 -0.5927 -0.7386
  115SAPE   H8R12048   1.166   2.517   3.558  3.1893 -1.4032 -0.1687
  115SAPE   C2912049   1.146   2.378   3.707 -0.1205  0.3794 -0.1424
  115SAPE   H9R12050   1.158   2.459   3.780  1.5457 -2.0108  2.4417
  115SAPE  C21012051   1.130   2.232   3.755  0.4764  0.1008  0.2832
  115SAPE  H10R12052   1.228   2.190   3.784  1.3542 -1.5484 -4.2165
  115SAPE  H10S12053   1.089   2.167   3.675 -1.8514  1.0037  0.6535
  115SAPE  C21112054   1.022   2.224   3.857 -0.5168 -0.0668 -0.0293
  115SAPE  H11R12055   0.923   2.241   3.811 -0.2892  4.5269  0.7193
  115SAPE  C21212056   1.026   2.181   3.982 -0.0846 -0.1902 -0.2000
  115SAPE  H12R12057   0.931   2.177   4.038  0.8901 -2.2387  1.4197
  115SAPE  C21312058   1.151   2.152   4.062  0.3155  0.5765 -0.5694
  115SAPE  H13R12059   1.166   2.221   4.148  0.9495  1.1688 -1.1382
  115SAPE  H13S12060   1.242   2.159   3.998  0.0186 -2.2702 -1.4406
  115SAPE  C21412061   1.169   2.009   4.112  0.3510  0.2953  0.3416
  115SAPE  H14R12062   1.126   1.934   4.044  0.6493  1.4913 -1.2260
  115SAPE  C21512063   1.235   1.971   4.218 -0.8913  0.7340 -0.0966
  115SAPE  H15R12064   1.235   1.863   4.239 -0.5388  0.4665 -1.3490
  115SAPE  C21612065   1.304   2.056   4.318  0.6013 -0.0581  0.4273
  115SAPE  H16R12066   1.282   2.165   4.315  0.3816 -0.1187 -1.4604
  115SAPE  H16S12067   1.414   2.045   4.308  0.4888  0.2247 -1.5534
  115SAPE  C21712068   1.274   2.013   4.467  0.5810  0.0594 -0.0071
  115SAPE  H17R12069   1.328   1.918   4.486 -0.7073 -0.0708  3.8770
  115SAPE  H17S12070   1.167   1.992   4.487  0.7471 -0.0994  0.7562
  115SAPE  C21812071   1.331   2.103   4.569  0.1529 -0.5606 -0.6490
  115SAPE  H18R12072   1.300   2.209   4.552 -0.9939 -1.2341 -3.2460
  115SAPE  H18S12073   1.441   2.099   4.557  0.3778 -1.7118  1.4141
  115SAPE  C21912074   1.303   2.061   4.719 -0.2447  0.1621 -0.0417
  115SAPE  H19R12075   1.360   1.968   4.745  0.4494  0.4986 -0.3401
  115SAPE  H19S12076   1.195   2.046   4.738 -0.4219  0.8906 -0.4804
  115SAPE  C22012077   1.357   2.165   4.822 -0.2467 -0.9870  0.2419
  115SAPE  H20R12078   1.371   2.112   4.918 -2.2185  1.7034  2.1696
  115SAPE  H20S12079   1.274   2.233   4.851 -0.3243  0.4618 -2.9480
  115SAPE  H20T12080   1.445   2.227   4.790 -0.5201 -0.9567 -0.4726
  115SAPE   C3312081   0.817   2.043   3.362  0.1017  0.5886 -0.1057
  115SAPE   H3X12082   0.782   2.128   3.426  1.2636 -0.0730  1.4888
  115SAPE   H3Y12083   0.927   2.053   3.369  0.3331 -1.9138  0.6367
  115SAPE   C3412084   0.775   1.909   3.436 -0.4322 -0.5256 -0.0620
  115SAPE   H4X12085   0.827   1.833   3.374  0.6970  0.8670 -0.8854
  115SAPE   H4Y12086   0.664   1.907   3.434 -0.6625  3.3105  0.6681
  115SAPE   C3512087   0.833   1.908   3.571  0.5282 -0.5256  0.1702
  115SAPE   H5X12088   0.779   1.973   3.642  0.1987  2.7501 -2.8173
  115SAPE   H5Y12089   0.937   1.946   3.571  0.4582 -0.2774  1.7972
  115SAPE   C3612090   0.836   1.763   3.642  0.1192 -0.2853 -0.1934
  115SAPE   H6X12091   0.896   1.695   3.578  2.8946 -2.0062  3.7780
  115SAPE   H6Y12092   0.730   1.733   3.655 -0.0959  0.0603 -1.0758
  115SAPE   C3712093   0.894   1.764   3.782 -0.4243 -0.0022 -0.5320
  115SAPE   H7X12094   0.817   1.803   3.851 -0.9517 -3.2971  0.9621
  115SAPE   H7Y12095   0.976   1.838   3.792 -1.1771  0.4420  4.1075
  115SAPE   C3812096   0.942   1.631   3.835 -0.6893 -0.3749  0.0026
  115SAPE   H8X12097   1.005   1.578   3.760  2.3737  3.2759 -0.3133
  115SAPE   H8Y12098   0.853   1.571   3.864 -1.1558  0.8929  1.3349
  115SAPE   C3912099   1.023   1.657   3.957 -0.3530  1.0799 -0.0490
  115SAPE   H9X12100   0.954   1.702   4.031  0.6954  1.2170  0.8773
  115SAPE   H9Y12101   1.102   1.731   3.930 -0.2770  0.0913 -2.8169
  115SAPE  C31012102   1.082   1.527   4.018 -0.2748  0.0949  0.4415
  115SAPE  H10X12103   1.155   1.492   3.941 -0.8558  2.8660 -1.5144
  115SAPE  H10Y12104   0.993   1.461   4.017  0.0135 -0.6215 -4.5397
  115SAPE  C31112105   1.140   1.542   4.160  0.2064 -0.0029  0.1090
  115SAPE  H11X12106   1.224   1.615   4.154  0.7640 -0.6905 -0.5530
  115SAPE  H11Y12107   1.189   1.446   4.186 -0.5017 -0.4534 -0.2019
  115SAPE  C31212108   1.027   1.577   4.263  0.1622 -0.2847 -0.4025
  115SAPE  H12X12109   0.933   1.517   4.256  0.0782 -0.3710  1.1340
  115SAPE  H12Y12110   0.988   1.679   4.243  1.8944  1.1923  2.9192
  115SAPE  C31312111   1.079   1.577   4.413  0.5322  0.6535  0.2708
  115SAPE  H13X12112   1.165   1.647   4.415  2.1006 -1.1077 -1.2479
  115SAPE  H13Y12113   1.115   1.479   4.451 -0.3889 -0.4622 -1.5354
  115SAPE  C31412114   0.983   1.630   4.509 -0.0617 -0.0237 -0.4064
  115SAPE  H14X12115   0.906   1.556   4.540 -0.0507 -0.0698 -0.4887
  115SAPE  H14Y12116   0.922   1.706   4.456 -0.7269  0.9992  1.7167
  115SAPE  C31512117   1.037   1.696   4.632 -1.2449 -0.6394  0.1763
  115SAPE  H15X12118   1.130   1.746   4.598 -1.4514  0.0949  0.6672
  115SAPE  H15Y12119   1.082   1.623   4.703 -0.2021 -0.0676  0.1320
  115SAPE  C31612120   0.939   1.790   4.705 -0.0880 -0.3370 -0.4105
  115SAPE  H16X12121   0.894   1.863   4.634 -1.3170  0.6532  1.2877
  115SAPE  H16Y12122   0.985   1.852   4.786 -0.9163 -1.5763  1.0712
  115SAPE  C31712123   0.815   1.714   4.762  0.4319 -0.1881  0.4997
  115SAPE  H17X12124   0.840   1.671   4.861 -0.5590 -0.6031  0.5835
  115SAPE  H17Y12125   0.784   1.631   4.694 -0.5732 -2.2235  3.2352
  115SAPE  C31812126   0.686   1.802   4.775  0.0550  0.2270  0.9472
  115SAPE  H18X12127   0.726   1.895   4.823 -0.7431 -0.3904  2.9312
  115SAPE  H18Y12128   0.618   1.745   4.842  1.0143 -0.6277  1.2346
  115SAPE  H18Z12129   0.642   1.824   4.676  1.6004  0.4089  0.2715
  116SAPE     N12130   0.387   2.833   2.674 -0.0574 -0.0938 -0.0443
  116SAPE   HN112131   0.406   2.863   2.772  0.1597 -3.3758  1.0531
  116SAPE   HN212132   0.290   2.855   2.643  0.5828 -0.0444 -2.1522
  116SAPE   HN312133   0.402   2.730   2.676  0.7580  0.0137  1.7876
  116SAPE   C1212134   0.496   2.889   2.584  0.9265  0.2759 -0.2802
  116SAPE  H12A12135   0.464   2.990   2.550 -0.3201 -0.0580 -0.1492
  116SAPE  H12B12136   0.497   2.823   2.494 -2.4832 -1.2830  0.6804
  116SAPE   C1112137   0.631   2.892   2.656  0.0842 -0.4161  0.0171
  116SAPE  H11A12138   0.616   2.950   2.749  0.8206  0.2697 -0.2764
  116SAPE  H11B12139   0.699   2.940   2.582 -0.2562 -1.5567 -1.0834
  116SAPE     P12140   0.706   2.689   2.807  0.4596 -0.0882  0.1386
  116SAPE   O1312141   0.573   2.666   2.860 -0.5036 -0.1728  0.1756
  116SAPE   O1412142   0.796   2.571   2.794 -0.4661 -0.3785 -0.0773
  116SAPE   O1212143   0.698   2.768   2.673 -0.0499  0.3117  0.0378
  116SAPE   O1112144   0.773   2.798   2.906  0.0946  0.6401  0.0575
  116SAPE    C112145   0.907   2.836   2.888 -0.6089  0.1475  0.4007
  116SAPE    HA12146   0.979   2.754   2.909 -3.0796 -1.7786  1.7917
  116SAPE    HB12147   0.931   2.864   2.783  1.1329  0.2561  0.7921
  116SAPE    C212148   0.943   2.976   2.960  0.1657  0.4632 -0.6608
  116SAPE    HS12149   1.035   3.016   2.912  0.7438 -1.8402 -1.6182
  116SAPE   O2112150   0.979   2.955   3.098  0.1487  0.4463 -0.0528
  116SAPE   C2112151   1.064   2.863   3.141 -0.4881 -0.1138  0.0536
  116SAPE   O2212152   1.147   2.809   3.069 -0.0654 -0.2845 -0.7252
  116SAPE   C2212153   1.045   2.831   3.286 -0.0293 -0.1089 -0.2536
  116SAPE   H2R12154   0.947   2.875   3.311  0.2821  0.7363 -0.4842
  116SAPE   H2S12155   1.043   2.720   3.287 -0.0423 -0.1601  2.5308
  116SAPE    C312156   0.840   3.093   2.943 -0.0155  0.0356  0.0676
  116SAPE    HX12157   0.741   3.062   2.983 -0.7779  0.9498 -1.0435
  116SAPE    HY12158   0.830   3.107   2.834 -0.8044 -0.7981  0.0191
  116SAPE   O3112159   0.885   3.214   3.011  0.1944 -0.3542  0.0485
  116SAPE   C3112160   0.981   3.283   2.944 -1.0812  0.1087 -0.5630
  116SAPE   O3212161   1.019   3.268   2.833  0.2625  0.5189 -0.0008
  116SAPE   C3212162   1.042   3.397   3.027  0.5678 -0.1107  0.2136
  116SAPE   H2X12163   1.014   3.381   3.133 -1.9952 -0.2681 -0.4210
  116SAPE   H2Y12164   1.003   3.494   2.990 -1.1573 -0.9745 -0.3627
  116SAPE   C2312165   1.160   2.873   3.378 -0.6111 -0.2254 -0.6074
  116SAPE   H3R12166   1.162   2.983   3.386 -2.5975 -0.2780  3.1043
  116SAPE   H3S12167   1.262   2.842   3.346  0.8458  2.5299  0.9977
  116SAPE   C2412168   1.125   2.821   3.524 -0.4484  0.0017  0.6910
  116SAPE   H4R12169   1.221   2.824   3.580  0.8162  0.3232 -1.3905
  116SAPE   H4S12170   1.107   2.712   3.514  2.3695 -0.5365  0.6589
  116SAPE   C2512171   1.017   2.895   3.594  0.8998 -0.5147  0.0612
  116SAPE   H5R12172   0.918   2.900   3.547  1.3270 -0.0397 -0.8145
  116SAPE   C2612173   1.022   2.932   3.724  0.0084 -0.5201 -0.1873
  116SAPE   H6R12174   0.937   2.983   3.771  1.2268  1.3657  0.0602
  116SAPE   C2712175   1.145   2.920   3.820 -0.1656 -0.4772  0.5111
  116SAPE   H7R12176   1.145   3.008   3.888 -0.2615  0.2796 -0.4574
  116SAPE   H7S12177   1.246   2.929   3.775 -0.3601 -1.8240 -0.2480
  116SAPE   C2812178   1.150   2.785   3.884 -0.6630 -0.3640 -0.0177
  116SAPE   H8R12179   1.134   2.699   3.818 -0.8871 -1.5920  1.5798
  116SAPE   C2912180   1.188   2.755   4.007  0.3475 -0.1773 -0.2337
  116SAPE   H9R12181   1.186   2.653   4.047 -1.6465  0.4614  1.4414
  116SAPE  C21012182   1.221   2.858   4.112 -0.0214  0.1848  0.5822
  116SAPE  H10R12183   1.281   2.939   4.064 -0.0867  0.4975  1.0227
  116SAPE  H10S12184   1.277   2.808   4.195  0.0399 -1.0745 -0.1920
  116SAPE  C21112185   1.093   2.927   4.157 -0.1641 -0.2441 -0.8777
  116SAPE  H11R12186   1.051   3.004   4.091 -1.0254  0.2976  0.2674
  116SAPE  C21212187   1.039   2.937   4.280  0.0393  0.2295 -0.2330
  116SAPE  H12R12188   0.942   2.988   4.295  0.1511  0.6449 -0.9151
  116SAPE  C21312189   1.103   2.877   4.403 -0.5828  0.2020 -0.0527
  116SAPE  H13R12190   1.183   2.803   4.382  1.8938  2.2566  1.5426
  116SAPE  H13S12191   1.028   2.818   4.461  0.0607 -0.4672  0.1113
  116SAPE  C21412192   1.179   2.985   4.479  0.3602  0.1185  0.1104
  116SAPE  H14R12193   1.257   3.039   4.423 -0.5531  2.4168  0.9464
  116SAPE  C21512194   1.168   3.011   4.610 -0.1885 -0.4678 -0.5217
  116SAPE  H15R12195   1.237   3.088   4.647  0.8594 -1.9227  0.6457
  116SAPE  C21612196   1.069   2.960   4.708  0.2319 -0.1642 -0.9559
  116SAPE  H16R12197   1.110   2.937   4.809 -3.0770 -0.3933  0.4686
  116SAPE  H16S12198   1.015   2.871   4.669  0.5954  0.1279 -2.1733
  116SAPE  C21712199   0.951   3.058   4.736  0.2730  0.2876 -0.4857
  116SAPE  H17R12200   0.880   3.019   4.811  1.8107 -0.8572  0.4230
  116SAPE  H17S12201   0.890   3.102   4.654  1.5744  2.0525 -0.5593
  116SAPE  C21812202   1.010   3.186   4.806 -0.1326  0.1154  0.2282
  116SAPE  H18R12203   1.066   3.239   4.726 -2.1582  0.4488 -1.0444
  116SAPE  H18S12204   1.091   3.142   4.868 -1.9375 -1.0565  1.8809
  116SAPE  C21912205   0.912   3.277   4.873  0.4240 -0.1817  0.6850
  116SAPE  H19R12206   0.900   3.229   4.972  0.0073 -1.6877 -0.0564
  116SAPE  H19S12207   0.813   3.271   4.824  0.8508  2.6731 -0.6971
  116SAPE  C22012208   0.945   3.427   4.874 -0.1102  1.0105  0.2178
  116SAPE  H20R12209   0.926   3.464   4.771 -0.3496  1.5851  0.4640
  116SAPE  H20S12210   1.048   3.443   4.911  0.0028 -0.7379  0.7703
  116SAPE  H20T12211   0.874   3.491   4.930 -1.7676 -1.8528  1.6086
  116SAPE   C3312212   1.193   3.397   3.008 -0.6876  0.0584 -0.9176
  116SAPE   H3X12213   1.237   3.480   3.069 -0.7764  1.1553 -2.3107
  116SAPE   H3Y12214   1.217   3.427   2.904  1.7625  0.7517 -0.2245
  116SAPE   C3412215   1.264   3.268   3.047 -0.4315 -0.1717 -0.1427
  116SAPE   H4X12216   1.374   3.281   3.044 -0.3122 -1.1974 -0.8528
  116SAPE   H4Y12217   1.239   3.191   2.971  0.9838  0.9474 -1.8385
  116SAPE   C3512218   1.239   3.208   3.190  0.5070  0.2192 -0.0280
  116SAPE   H5X12219   1.320   3.136   3.214  0.6597  0.5864  0.5839
  116SAPE   H5Y12220   1.139   3.161   3.199  0.6607 -0.3784 -1.2134
  116SAPE   C3612221   1.249   3.314   3.305 -0.9260  0.1195  0.1112
  116SAPE   H6X12222   1.177   3.398   3.299  0.2549  1.1220 -0.3687
  116SAPE   H6Y12223   1.350   3.357   3.286 -1.2464  0.4769 -0.8449
  116SAPE   C3712224   1.237   3.241   3.434 -0.3308  0.2685  0.4670
  116SAPE   H7X12225   1.317   3.163   3.443 -1.8565 -1.2039  2.1994
  116SAPE   H7Y12226   1.144   3.180   3.426 -0.5193  0.6788 -0.6052
  116SAPE   C3812227   1.236   3.343   3.550 -0.1104 -0.2841  0.1448
  116SAPE   H8X12228   1.158   3.422   3.542  0.3433  0.1254 -0.2631
  116SAPE   H8Y12229   1.338   3.386   3.544 -0.2277 -0.1898 -1.6626
  116SAPE   C3912230   1.225   3.259   3.678 -0.5888  1.1245 -0.2947
  116SAPE   H9X12231   1.275   3.160   3.666 -2.2245 -0.0418  1.9524
  116SAPE   H9Y12232   1.121   3.231   3.704  0.3919 -4.5677 -1.3061
  116SAPE  C31012233   1.277   3.339   3.799  0.1003  0.0678 -0.5040
  116SAPE  H10X12234   1.213   3.429   3.801  0.9772  0.6784  0.6781
  116SAPE  H10Y12235   1.383   3.371   3.796 -0.0903  0.9074  0.8891
  116SAPE  C31112236   1.277   3.252   3.929 -0.3086  0.1133 -0.3142
  116SAPE  H11X12237   1.354   3.173   3.916 -0.3513  0.0439 -0.1470
  116SAPE  H11Y12238   1.178   3.210   3.956 -0.9454  1.9193  0.2739
  116SAPE  C31212239   1.313   3.337   4.057  0.4640  0.9407 -0.0628
  116SAPE  H12X12240   1.225   3.396   4.089 -0.2137  1.1837 -2.1777
  116SAPE  H12Y12241   1.388   3.419   4.045  1.5085 -0.1149 -1.2182
  116SAPE  C31312242   1.362   3.249   4.176 -0.3093 -0.3358  0.4114
  116SAPE  H13X12243   1.453   3.197   4.139 -0.3641  1.4362 -2.5029
  116SAPE  H13Y12244   1.290   3.166   4.192 -0.0529 -0.4750  0.8814
  116SAPE  C31412245   1.409   3.328   4.292  1.3393 -0.5003 -0.3560
  116SAPE  H14X12246   1.323   3.374   4.345 -0.4710 -0.2826 -3.2617
  116SAPE  H14Y12247   1.467   3.415   4.257  0.5373  1.1758  2.2314
  116SAPE  C31512248   1.495   3.238   4.383  0.3956 -0.8235  0.2570
  116SAPE  H15X12249   1.577   3.189   4.327  0.4209 -0.7841  0.2592
  116SAPE  H15Y12250   1.433   3.167   4.442  0.9469 -1.6757 -0.1874
  116SAPE  C31612251   1.563   3.323   4.496 -0.0934  0.5101 -0.0451
  116SAPE  H16X12252   1.642   3.391   4.458 -0.4606  0.3022 -1.2096
  116SAPE  H16Y12253   1.610   3.248   4.563  0.8001  0.7865 -0.3522
  116SAPE  C31712254   1.479   3.411   4.584 -0.3866 -1.3066  0.4479
  116SAPE  H17X12255   1.432   3.484   4.515 -0.4037 -1.5128  0.2415
  116SAPE  H17Y12256   1.548   3.462   4.655  1.2339 -0.6184 -1.5371
  116SAPE  C31812257   1.377   3.334   4.664 -0.2605  0.5627 -0.1451
  116SAPE  H18X12258   1.319   3.386   4.743 -0.8215 -0.9855  0.5041
  116SAPE  H18Y12259   1.430   3.252   4.718 -1.2253 -2.4862 -3.3799
  116SAPE  H18Z12260   1.302   3.288   4.596 -2.1884 -1.4231  3.0612
  117SOPE     N12261   5.053   5.602   6.855 -0.2535  0.3565  0.4736
  117SOPE   HN112262   4.968   5.630   6.909  0.5415 -0.0129  1.9674
  117SOPE   HN212263   5.127   5.661   6.898  0.8366 -0.8517  0.3184
  117SOPE   HN312264   5.051   5.628   6.755  1.6362 -1.3629 -0.0707
  117SOPE   C1212265   5.086   5.465   6.876  0.1116 -0.2623  0.9320
  117SOPE  H12A12266   5.105   5.451   6.984 -1.1495  0.1245  1.2251
  117SOPE  H12B12267   5.180   5.447   6.820  0.4197  1.5195  0.7950
  117SOPE   C1112268   4.975   5.371   6.823  0.8667  1.0748  0.1748
  117SOPE  H11A12269   5.029   5.275   6.812 -2.5733 -1.0091 -0.2513
  117SOPE  H11B12270   4.943   5.403   6.721  1.7788 -1.5317 -1.0032
  117SOPE     P12271   4.830   5.258   7.008 -0.5170  0.0273  0.4357
  117SOPE   O1312272   4.872   5.294   7.146 -0.4919 -0.0964  0.2021
  117SOPE   O1412273   4.884   5.131   6.953  0.5315 -0.5799 -0.7685
  117SOPE   O1212274   4.867   5.375   6.916 -0.3330 -0.2208 -0.0528
  117SOPE   O1112275   4.673   5.249   7.001 -0.1341  0.1025  0.0065
  117SOPE    C112276   4.601   5.319   6.897 -0.5870 -0.0384  0.0193
  117SOPE    HA12277   4.663   5.305   6.805  0.9679 -1.4030  1.2026
  117SOPE    HB12278   4.593   5.427   6.920  1.1852  0.0515  0.3701
  117SOPE    C212279   4.461   5.257   6.868 -0.6839  0.8988  0.0759
  117SOPE    HS12280   4.402   5.253   6.962 -2.8197 -3.5311 -1.2013
  117SOPE   O2112281   4.489   5.120   6.838 -0.2135  0.0948 -0.2414
  117SOPE   C2112282   4.393   5.029   6.839  0.1237  0.0631 -0.5340
  117SOPE   O2212283   4.281   5.049   6.872  0.2918  0.1823 -0.1298
  117SOPE   C2212284   4.466   4.894   6.797  0.0380 -0.4230 -0.4492
  117SOPE   H2R12285   4.490   4.838   6.889  0.9892  0.1017 -0.3611
  117SOPE   H2S12286   4.566   4.911   6.752  0.5514 -1.7872  0.1201
  117SOPE    C312287   4.394   5.324   6.745  0.3260  0.0908  0.0148
  117SOPE    HX12288   4.287   5.297   6.731  0.4406  0.4557 -1.8011
  117SOPE    HY12289   4.446   5.298   6.650  0.1598 -0.5878  0.1090
  117SOPE   O3112290   4.414   5.467   6.755  0.3234  0.5908 -0.1265
  117SOPE   C3112291   4.313   5.525   6.830 -0.3867 -0.5299  0.0564
  117SOPE   O3212292   4.222   5.467   6.880  0.2300  0.8034 -0.7100
  117SOPE   C3212293   4.340   5.678   6.834 -0.5365 -0.2560  0.3247
  117SOPE   H2X12294   4.447   5.694   6.862 -0.2193  0.9962 -1.4162
  117SOPE   H2Y12295   4.265   5.722   6.903  1.3281  3.2162  0.3683
  117SOPE   C2312296   4.383   4.831   6.686  1.0065 -0.3392  0.3505
  117SOPE   H3R12297   4.281   4.809   6.727  1.0684  0.1708  0.7861
  117SOPE   H3S12298   4.430   4.732   6.671 -0.1521 -0.5076 -2.7902
  117SOPE   C2412299   4.379   4.909   6.554 -0.1585  0.1826  0.3503
  117SOPE   H4R12300   4.337   5.011   6.560 -0.3900  0.0875  0.3615
  117SOPE   H4S12301   4.482   4.911   6.513 -0.5537  0.2545 -0.6837
  117SOPE   C2512302   4.314   4.824   6.446 -0.0001 -0.4096  0.0214
  117SOPE   H5R12303   4.355   4.720   6.443 -0.7666 -0.7949  1.5721
  117SOPE   H5S12304   4.207   4.818   6.472  0.1776  1.4478  1.4245
  117SOPE   C2612305   4.325   4.887   6.306 -0.1328 -0.0320  0.1982
  117SOPE   H6R12306   4.340   4.996   6.321  2.0325 -0.4141  1.2373
  117SOPE   H6S12307   4.418   4.857   6.252 -0.9381  0.1206 -1.3224
  117SOPE   C2712308   4.206   4.861   6.210  0.5945  0.3349  0.3315
  117SOPE   H7R12309   4.169   4.764   6.250 -1.7176  1.1192  0.2316
  117SOPE   H7S12310   4.123   4.930   6.236  0.8232  1.9274 -2.7796
  117SOPE   C2812311   4.235   4.847   6.059 -0.3700  0.0892  0.5423
  117SOPE   H8R12312   4.133   4.848   6.014  0.6982  0.5730 -1.9827
  117SOPE   H8S12313   4.279   4.939   6.016  0.8798 -1.1413 -0.9184
  117SOPE   C2912314   4.323   4.727   6.012  0.6661  0.3166 -0.1083
  117SOPE   H9112315   4.337   4.656   6.095 -2.2639 -0.8866 -0.5127
  117SOPE  C21012316   4.379   4.716   5.891 -0.4323  0.3017 -0.1516
  117SOPE  H10112317   4.423   4.619   5.864 -0.1752  0.6186 -0.9261
  117SOPE  C21112318   4.358   4.810   5.772  0.3662  0.1785  0.7508
  117SOPE  H11R12319   4.445   4.879   5.775  0.9458 -0.3282 -1.8908
  117SOPE  H11S12320   4.262   4.864   5.787  0.6538  0.5819  1.1845
  117SOPE  C21212321   4.361   4.734   5.636  0.0383 -0.6304 -0.5555
  117SOPE  H12R12322   4.288   4.651   5.628  1.2721 -1.6482 -1.7948
  117SOPE  H12S12323   4.459   4.685   5.617 -0.1552 -1.1487 -0.2442
  117SOPE  C21312324   4.320   4.824   5.522  0.0764  0.4767  0.2046
  117SOPE  H13R12325   4.405   4.893   5.503  0.7503 -0.8567 -2.0293
  117SOPE  H13S12326   4.230   4.880   5.553 -0.2287  0.6561 -0.9694
  117SOPE  C21412327   4.310   4.745   5.384 -0.2823  0.1074 -0.5587
  117SOPE  H14R12328   4.215   4.688   5.388 -0.2651  0.1436  1.0915
  117SOPE  H14S12329   4.383   4.661   5.380 -1.2829 -0.7734 -0.8330
  117SOPE  C21512330   4.305   4.831   5.267  0.2824  0.1555 -0.2038
  117SOPE  H15R12331   4.372   4.915   5.295 -0.5526 -0.0172  2.5618
  117SOPE  H15S12332   4.205   4.880   5.265  0.8802  1.4514  0.5226
  117SOPE  C21612333   4.350   4.758   5.139 -0.0136  0.3230  0.0174
  117SOPE  H16R12334   4.287   4.667   5.127  0.1705 -0.2594  2.8878
  117SOPE  H16S12335   4.452   4.723   5.167  0.9070 -0.1739 -3.4892
  117SOPE  C21712336   4.347   4.846   5.017  0.4631 -0.5007 -0.0843
  117SOPE  H17R12337   4.398   4.944   5.034 -1.2971  0.6019 -0.8359
  117SOPE  H17S12338   4.246   4.874   4.979  0.4548 -1.4937 -0.8406
  117SOPE  C21812339   4.403   4.774   4.892 -0.8846  0.2360  0.8760
  117SOPE  H18R12340   4.352   4.677   4.874  0.6208 -0.3848 -0.3211
  117SOPE  H18S12341   4.510   4.746   4.905 -1.2699 -2.6341 -1.1443
  117SOPE  H18T12342   4.388   4.829   4.796  1.3807  2.2944  1.5834
  117SOPE   C3312343   4.314   5.750   6.697 -0.0631 -0.5568  0.0522
  117SOPE   H3X12344   4.341   5.688   6.608 -0.7786 -0.9058  0.0704
  117SOPE   H3Y12345   4.387   5.833   6.684  0.5045 -1.1974 -1.0287
  117SOPE   C3412346   4.167   5.801   6.687 -0.6268 -0.9496 -0.4508
  117SOPE   H4X12347   4.128   5.849   6.780  2.0483  1.2493 -0.3433
  117SOPE   H4Y12348   4.113   5.709   6.657  0.7886 -2.8524  2.4364
  117SOPE   C3512349   4.139   5.915   6.585  0.6592  0.8096  0.0338
  117SOPE   H5X12350   4.213   5.995   6.607  1.2723  0.2612 -0.0195
  117SOPE   H5Y12351   4.045   5.968   6.612  1.2167  1.2510  1.1341
  117SOPE   C3612352   4.161   5.868   6.438 -0.5830 -0.5039 -0.5079
  117SOPE   H6X12353   4.091   5.786   6.410 -0.4626 -0.9983  0.5663
  117SOPE   H6Y12354   4.262   5.822   6.441 -1.1080 -1.7320  2.0807
  117SOPE   C3712355   4.144   5.986   6.333  0.4073  0.2001  0.3133
  117SOPE   H7X12356   4.206   6.069   6.372  0.8448  1.7567 -3.3195
  117SOPE   H7Y12357   4.037   6.016   6.336  0.3329  0.0373 -0.4224
  117SOPE   C3812358   4.178   5.953   6.189 -0.0096  1.0004  0.1178
  117SOPE   H8X12359   4.121   5.864   6.154  1.3156 -0.6539  1.9461
  117SOPE   H8Y12360   4.283   5.916   6.190 -0.6917 -1.1470  2.4154
  117SOPE   C3912361   4.176   6.068   6.086  0.0930  0.3711 -0.9539
  117SOPE   H9X12362   4.242   6.149   6.124  0.9640 -1.0005  0.5800
  117SOPE   H9Y12363   4.076   6.116   6.078 -0.8917 -1.8623 -3.1094
  117SOPE  C31012364   4.223   6.033   5.949  0.3906  0.3602 -1.4464
  117SOPE  H10X12365   4.164   5.951   5.901 -0.4841  0.3576 -0.4131
  117SOPE  H10Y12366   4.331   6.008   5.954  0.5875  1.3532 -0.2584
  117SOPE  C31112367   4.196   6.147   5.860  0.0618  0.0175 -0.2549
  117SOPE  H11X12368   4.265   6.232   5.881 -1.4963  1.0399  0.9027
  117SOPE  H11Y12369   4.099   6.201   5.865  0.3999  0.6434 -0.2638
  117SOPE  C31212370   4.213   6.100   5.722 -0.1980  0.6450 -0.9804
  117SOPE  H12X12371   4.139   6.022   5.694  0.8195 -0.9205  0.5120
  117SOPE  H12Y12372   4.310   6.045   5.723  0.8022  2.3231  0.6361
  117SOPE  C31312373   4.231   6.201   5.610  0.0324 -0.8982  0.0284
  117SOPE  H13X12374   4.308   6.276   5.638  0.9596 -2.2392  1.2684
  117SOPE  H13Y12375   4.135   6.254   5.592 -0.1128 -1.4343 -0.8569
  117SOPE  C31412376   4.284   6.138   5.477  0.8538 -0.2566 -0.2888
  117SOPE  H14X12377   4.199   6.075   5.444 -0.6887  1.6799 -0.2497
  117SOPE  H14Y12378   4.370   6.069   5.489  0.6977 -0.6565 -1.3928
  117SOPE  C31512379   4.317   6.244   5.364  0.8692 -0.1314 -0.4543
  117SOPE  H15X12380   4.401   6.311   5.389  1.8556 -0.9225 -1.4963
  117SOPE  H15Y12381   4.223   6.302   5.351  1.1561 -0.0289 -2.4252
  117SOPE  C31612382   4.359   6.188   5.231 -0.1365 -0.1424 -0.3858
  117SOPE  H16X12383   4.442   6.117   5.252  0.8015  0.0693 -3.0900
  117SOPE  H16Y12384   4.401   6.266   5.165  5.2387 -0.5854  1.9959
  117SOPE  C31712385   4.251   6.101   5.163  0.0993 -0.3661 -0.4300
  117SOPE  H17X12386   4.158   6.160   5.146 -1.4308 -2.3442  0.6365
  117SOPE  H17Y12387   4.224   6.026   5.241  1.4679  0.8695  1.3079
  117SOPE  C31812388   4.304   6.041   5.029  0.2659 -0.3458  0.7487
  117SOPE  H18X12389   4.345   6.125   4.969 -1.5306  0.5667  0.7289
  117SOPE  H18Y12390   4.214   5.994   4.984 -1.4847  1.3821  2.2257
  117SOPE  H18Z12391   4.377   5.960   5.050  0.9614  0.5742  2.0201
  118SOPE     N12392   4.544   6.673   7.392 -0.4614 -0.0073  0.3943
  118SOPE   HN112393   4.569   6.774   7.395  2.1255 -0.3045 -3.5005
  118SOPE   HN212394   4.452   6.658   7.439 -0.4869  1.2614  0.7987
  118SOPE   HN312395   4.621   6.613   7.427 -0.7142  0.2980  1.5044
  118SOPE   C1212396   4.523   6.656   7.245  0.0940  0.2046 -0.8980
  118SOPE  H12A12397   4.620   6.672   7.193  0.0042 -0.8835 -1.4191
  118SOPE  H12B12398   4.457   6.734   7.202 -0.3479  2.3610  3.2461
  118SOPE   C1112399   4.464   6.514   7.219  0.3630 -0.2452 -0.1400
  118SOPE  H11A12400   4.448   6.505   7.109 -0.1527  3.1068 -0.4449
  118SOPE  H11B12401   4.361   6.510   7.259 -1.0182  3.0169 -2.9311
  118SOPE     P12402   4.676   6.365   7.200  0.2932  0.1200 -0.2333
  118SOPE   O1312403   4.688   6.214   7.219 -0.0145 -0.1277  0.2507
  118SOPE   O1412404   4.787   6.450   7.248 -0.2845 -0.5269 -0.5126
  118SOPE   O1212405   4.539   6.407   7.268 -0.4383  0.2902  0.8007
  118SOPE   O1112406   4.655   6.389   7.045 -0.3522  0.7329  0.3077
  118SOPE    C112407   4.586   6.295   6.959 -0.3278 -0.2017 -0.5582
  118SOPE    HA12408   4.490   6.265   7.008 -0.4037  1.0187  0.1003
  118SOPE    HB12409   4.644   6.202   6.944  0.5222  0.2683 -0.2610
  118SOPE    C212410   4.555   6.351   6.819  0.9691  0.1355 -0.0013
  118SOPE    HS12411   4.542   6.262   6.754  1.3517 -0.7428  1.1013
  118SOPE   O2112412   4.663   6.436   6.763  1.0155  0.0836  0.0639
  118SOPE   C2112413   4.774   6.377   6.755  0.5059  0.0225 -0.5499
  118SOPE   O2212414   4.798   6.257   6.768 -0.3584  0.8529 -0.3209
  118SOPE   C2212415   4.886   6.474   6.720  0.1242  0.0845 -0.3826
  118SOPE   H2R12416   4.938   6.493   6.816 -1.2779 -0.0630  0.4352
  118SOPE   H2S12417   4.842   6.565   6.675  0.3981  0.1647 -0.4936
  118SOPE    C312418   4.419   6.434   6.819  0.0847  0.0973  0.1111
  118SOPE    HX12419   4.430   6.518   6.890  1.6556  0.2129 -0.2222
  118SOPE    HY12420   4.336   6.372   6.858  1.6098 -0.3307  2.9825
  118SOPE   O3112421   4.387   6.476   6.686 -0.1833 -0.3972 -0.2556
  118SOPE   C3112422   4.425   6.595   6.646 -0.3227 -0.7537  0.0981
  118SOPE   O3212423   4.476   6.678   6.722 -0.3864 -0.4346  0.1495
  118SOPE   C3212424   4.393   6.602   6.495 -0.5528 -0.4262  0.3844
  118SOPE   H2X12425   4.283   6.619   6.497 -0.8113 -1.3033 -2.3997
  118SOPE   H2Y12426   4.424   6.506   6.450  2.0055  0.8312 -0.6889
  118SOPE   C2312427   4.990   6.408   6.621 -0.0295 -0.4199 -0.0983
  118SOPE   H3R12428   4.943   6.362   6.531  2.3064  1.0002 -2.1603
  118SOPE   H3S12429   5.039   6.334   6.687 -0.3020  0.5056  1.1678
  118SOPE   C2412430   5.101   6.493   6.572 -0.5625 -0.3285  0.6803
  118SOPE   H4R12431   5.151   6.546   6.656 -0.4662  1.7519 -0.6079
  118SOPE   H4S12432   5.182   6.434   6.524 -0.3645 -0.3563  1.0443
  118SOPE   C2512433   5.047   6.597   6.475 -0.5833 -0.2536 -0.1817
  118SOPE   H5R12434   4.980   6.547   6.402 -3.1370 -1.8812  2.9711
  118SOPE   H5S12435   4.978   6.659   6.537 -0.8370  0.2824 -0.9914
  118SOPE   C2612436   5.152   6.695   6.426  0.2514 -0.2228 -0.2713
  118SOPE   H6R12437   5.196   6.743   6.516 -1.1463 -0.3426  0.4964
  118SOPE   H6S12438   5.241   6.644   6.383  0.8412  1.2253 -0.8033
  118SOPE   C2712439   5.102   6.791   6.317 -0.7068  0.4189 -0.6331
  118SOPE   H7R12440   5.072   6.732   6.228 -0.4011  1.5612 -1.5290
  118SOPE   H7S12441   5.008   6.840   6.350 -1.2145  0.3964 -1.9692
  118SOPE   C2812442   5.207   6.900   6.276 -0.2541 -0.0012 -0.3020
  118SOPE   H8R12443   5.239   6.948   6.371 -1.0595 -1.2283  0.6099
  118SOPE   H8S12444   5.291   6.844   6.231 -0.9984 -0.7530 -0.7696
  118SOPE   C2912445   5.144   6.994   6.177  0.1426  0.3482  0.1115
  118SOPE   H9112446   5.034   6.984   6.175  0.0875  1.0755 -0.7159
  118SOPE  C21012447   5.198   7.063   6.075 -0.9367 -0.1659 -0.0208
  118SOPE  H10112448   5.142   7.128   6.006 -0.0723  0.8059  0.1769
  118SOPE  C21112449   5.350   7.054   6.043 -0.5322  0.2540  0.1619
  118SOPE  H11R12450   5.366   6.978   5.964 -1.1005 -0.2241  0.4980
  118SOPE  H11S12451   5.409   7.019   6.130  0.1084 -1.5178 -0.9329
  118SOPE  C21212452   5.404   7.189   6.004 -0.3350 -0.4603 -0.5364
  118SOPE  H12R12453   5.514   7.178   6.005 -0.3530 -1.0435  1.6367
  118SOPE  H12S12454   5.377   7.255   6.089  1.8996  2.6296 -2.0511
  118SOPE  C21312455   5.371   7.259   5.872  0.2497  0.3137  0.1108
  118SOPE  H13R12456   5.418   7.360   5.872  0.9039  0.0139  0.4441
  118SOPE  H13S12457   5.262   7.279   5.866  0.0124 -1.1591 -1.1044
  118SOPE  C21412458   5.428   7.178   5.751  0.4630  0.2654 -0.1692
  118SOPE  H14R12459   5.380   7.078   5.758  1.1260  0.0282  1.4688
  118SOPE  H14S12460   5.538   7.172   5.770  0.3780  1.6193  0.9383
  118SOPE  C21512461   5.386   7.241   5.617  0.4392 -0.0067 -0.0149
  118SOPE  H15R12462   5.368   7.349   5.635  0.3003  0.1961 -1.2972
  118SOPE  H15S12463   5.288   7.193   5.595  2.1779 -3.7059 -0.6092
  118SOPE  C21612464   5.498   7.205   5.513 -0.2095 -0.0429  0.1044
  118SOPE  H16R12465   5.524   7.097   5.512 -0.3659 -0.0963 -1.4463
  118SOPE  H16S12466   5.583   7.270   5.543 -1.9228  1.9699  0.9012
  118SOPE  C21712467   5.462   7.235   5.372  0.2576  0.1239  0.3510
  118SOPE  H17R12468   5.437   7.343   5.373  0.4921  0.2384 -1.8715
  118SOPE  H17S12469   5.371   7.178   5.344  1.3993 -0.4802 -2.5243
  118SOPE  C21812470   5.575   7.213   5.273 -0.4343 -0.3099 -0.4701
  118SOPE  H18R12471   5.533   7.250   5.177  1.6316 -0.1224 -1.3486
  118SOPE  H18S12472   5.604   7.109   5.249  0.7562  0.0037 -0.4408
  118SOPE  H18T12473   5.660   7.284   5.279  0.1549 -1.0747  0.4161
  118SOPE   C3312474   4.472   6.707   6.415  0.5432  0.0829 -0.3158
  118SOPE   H3X12475   4.447   6.810   6.446  0.3102  0.4153 -1.5453
  118SOPE   H3Y12476   4.444   6.694   6.308  1.5457 -1.5783 -0.4250
  118SOPE   C3412477   4.628   6.689   6.422  0.0784 -0.6022 -0.4202
  118SOPE   H4X12478   4.659   6.594   6.374 -0.6999 -0.5112 -1.1351
  118SOPE   H4Y12479   4.669   6.694   6.525  2.9942 -1.9457 -1.4071
  118SOPE   C3512480   4.690   6.813   6.354 -0.1013 -0.3293  0.4468
  118SOPE   H5X12481   4.800   6.812   6.369 -0.0062 -0.5608 -0.2559
  118SOPE   H5Y12482   4.648   6.904   6.403  1.3365  0.8937 -0.4869
  118SOPE   C3612483   4.669   6.817   6.208  0.5261  0.3379  1.0084
  118SOPE   H6X12484   4.567   6.855   6.185 -0.6676 -2.4654  1.3107
  118SOPE   H6Y12485   4.677   6.714   6.168  3.1432  0.2885  1.4602
  118SOPE   C3712486   4.770   6.899   6.129 -0.8117 -1.0504  0.1584
  118SOPE   H7X12487   4.876   6.879   6.154 -0.5775 -0.9120 -0.6968
  118SOPE   H7Y12488   4.750   7.006   6.153 -1.0491 -0.5862 -1.9333
  118SOPE   C3812489   4.753   6.886   5.978  0.2975 -0.8251 -0.8854
  118SOPE   H8X12490   4.652   6.920   5.947  0.2772 -0.1745 -0.1486
  118SOPE   H8Y12491   4.766   6.779   5.948  0.0631 -1.4124  0.9738
  118SOPE   C3912492   4.856   6.974   5.909  0.1861 -0.6144  0.0342
  118SOPE   H9X12493   4.955   6.929   5.930  1.1917  0.6766 -1.6664
  118SOPE   H9Y12494   4.839   7.074   5.955 -2.4348 -1.3562  0.8490
  118SOPE  C31012495   4.834   6.986   5.758  0.3401  0.4741  0.0912
  118SOPE  H10X12496   4.741   7.042   5.734 -1.4567 -2.7359 -1.0156
  118SOPE  H10Y12497   4.814   6.884   5.721 -2.6186  0.3883  1.6366
  118SOPE  C31112498   4.947   7.058   5.685 -0.0065  0.2750  0.0002
  118SOPE  H11X12499   5.050   7.018   5.699  0.1865  0.6222 -0.3922
  118SOPE  H11Y12500   4.948   7.162   5.724 -0.0436  0.8893 -1.5487
  118SOPE  C31212501   4.917   7.055   5.534 -0.1315 -0.1406 -0.1994
  118SOPE  H12X12502   4.834   7.126   5.518 -0.1622 -0.2078 -0.3375
  118SOPE  H12Y12503   4.888   6.952   5.504  1.0358 -0.8456  0.9434
  118SOPE  C31312504   5.033   7.102   5.438  0.9041  0.3761 -0.1493
  118SOPE  H13X12505   5.117   7.035   5.465  0.5641  0.3809  0.9830
  118SOPE  H13Y12506   5.053   7.208   5.464 -1.6392  1.2898 -1.5088
  118SOPE  C31412507   4.981   7.091   5.290 -0.6881  0.0359  0.0274
  118SOPE  H14X12508   4.884   7.144   5.283 -0.9752 -0.4400  0.3453
  118SOPE  H14Y12509   4.986   6.989   5.247  3.2342  0.1349 -0.0819
  118SOPE  C31512510   5.082   7.166   5.199 -0.3552  0.4863  0.6815
  118SOPE  H15X12511   5.048   7.147   5.095 -0.0123 -0.4078  0.7249
  118SOPE  H15Y12512   5.183   7.119   5.200 -0.8636 -0.6806 -0.0163
  118SOPE  C31612513   5.080   7.316   5.226  0.5958  0.2311 -0.8390
  118SOPE  H16X12514   5.142   7.336   5.315  0.6839  1.7424 -1.2156
  118SOPE  H16Y12515   4.979   7.351   5.257  1.3696  1.6722  0.1834
  118SOPE  C31712516   5.123   7.408   5.103 -0.6818 -0.1741  0.1326
  118SOPE  H17X12517   5.117   7.515   5.135 -1.6052 -0.3244  0.5062
  118SOPE  H17Y12518   5.052   7.387   5.020 -0.4526 -1.2937  0.2162
  118SOPE  C31812519   5.266   7.377   5.051 -0.1501  0.0583 -0.0784
  118SOPE  H18X12520   5.293   7.269   5.048  0.9402  0.2871  0.8766
  118SOPE  H18Y12521   5.338   7.419   5.124 -2.6286 -0.0225  2.5655
  118SOPE  H18Z12522   5.299   7.419   4.953 -1.2107  1.4874  0.1506
  119SOPE     N12523   0.679   6.518   7.074 -0.1355  0.3748  0.3258
  119SOPE   HN112524   0.760   6.453   7.077 -0.3910  0.0462  0.0923
  119SOPE   HN212525   0.715   6.603   7.025  1.8371  0.1135  1.2331
  119SOPE   HN312526   0.640   6.543   7.167  0.1416  2.1878 -0.0075
  119SOPE   C1212527   0.574   6.466   6.983 -0.1291 -0.3193 -0.1396
  119SOPE  H12A12528   0.621   6.408   6.900 -0.6637 -1.0662  0.0595
  119SOPE  H12B12529   0.509   6.554   6.966 -1.2613 -0.8118  1.3539
  119SOPE   C1112530   0.484   6.361   7.052  0.1505 -0.6794 -0.0516
  119SOPE  H11A12531   0.422   6.323   6.968  0.5545 -1.1199 -0.1525
  119SOPE  H11B12532   0.401   6.400   7.114  0.3957 -2.5611  1.5540
  119SOPE     P12533   0.528   6.112   7.114  0.6440 -0.2597 -0.2628
  119SOPE   O1312534   0.391   6.081   7.171 -0.0997 -0.3207  0.2268
  119SOPE   O1412535   0.637   6.041   7.184  0.2336 -0.3753  0.3290
  119SOPE   O1212536   0.551   6.262   7.127 -0.5016 -0.1840  0.1846
  119SOPE   O1112537   0.540   6.078   6.959  0.3550 -0.4836 -0.2963
  119SOPE    C112538   0.535   5.938   6.923  0.1472 -0.2651 -1.0274
  119SOPE    HA12539   0.460   5.878   6.980  2.5357 -1.6025  0.8881
  119SOPE    HB12540   0.631   5.885   6.941 -0.5945 -1.1305  0.6475
  119SOPE    C212541   0.485   5.926   6.774 -0.2075 -0.2230 -0.7545
  119SOPE    HS12542   0.498   5.821   6.740 -2.4468 -0.9303  0.3653
  119SOPE   O2112543   0.551   6.023   6.690  0.5122 -0.7727  0.1154
  119SOPE   C2112544   0.681   5.989   6.693 -0.3205 -0.3586  0.1670
  119SOPE   O2212545   0.726   5.879   6.719  0.2331  0.1565 -0.0186
  119SOPE   C2212546   0.767   6.112   6.651  0.3066 -0.1962  0.0256
  119SOPE   H2R12547   0.827   6.137   6.741  1.4721  3.2525 -1.5402
  119SOPE   H2S12548   0.704   6.203   6.637 -0.0323 -0.3327  0.6530
  119SOPE    C312549   0.331   5.945   6.776  0.1747  0.3427 -0.0762
  119SOPE    HX12550   0.317   6.042   6.828 -2.3449 -1.0449  2.0746
  119SOPE    HY12551   0.286   5.871   6.845  0.0768 -1.1720 -1.7019
  119SOPE   O3112552   0.273   5.936   6.648  0.4243 -0.3127  0.7581
  119SOPE   C3112553   0.153   5.992   6.636  0.5761 -0.7056 -0.2711
  119SOPE   O3212554   0.091   6.043   6.729  0.0936  0.3450 -0.0372
  119SOPE   C3212555   0.095   5.961   6.504  0.0013  1.1844 -0.0052
  119SOPE   H2X12556   0.019   5.880   6.504  0.0068  1.1755  0.4197
  119SOPE   H2Y12557   0.177   5.922   6.441 -0.9599 -0.8980 -0.0547
  119SOPE   C2312558   0.851   6.094   6.526 -1.0210  0.3313  0.0899
  119SOPE   H3R12559   0.889   5.990   6.518  2.3234  1.5541 -1.4192
  119SOPE   H3S12560   0.936   6.166   6.519 -0.1067 -0.6892  0.4247
  119SOPE   C2412561   0.784   6.124   6.393 -0.2027  0.1014  0.5036
  119SOPE   H4R12562   0.697   6.055   6.382 -0.7682  1.0117 -1.1307
  119SOPE   H4S12563   0.730   6.219   6.375 -0.7585 -0.4851 -1.1419
  119SOPE   C2512564   0.877   6.106   6.270 -0.1652  0.1778  0.2452
  119SOPE   H5R12565   0.937   6.198   6.252  0.8322 -0.5590 -0.3096
  119SOPE   H5S12566   0.960   6.042   6.308 -0.6163 -0.2558  0.5074
  119SOPE   C2612567   0.813   6.053   6.138  0.5664  0.2639  0.5981
  119SOPE   H6R12568   0.798   5.944   6.151  1.5483 -0.0448 -0.6481
  119SOPE   H6S12569   0.715   6.103   6.126 -0.4554 -1.5244  1.2324
  119SOPE   C2712570   0.896   6.084   6.014  0.1102 -0.0510 -0.0945
  119SOPE   H7R12571   0.903   6.194   6.019 -2.3391  0.1498  0.1550
  119SOPE   H7S12572   1.000   6.048   6.026  0.8412  2.7296  3.1174
  119SOPE   C2812573   0.840   6.039   5.876  0.6457 -0.8648 -0.5429
  119SOPE   H8R12574   0.738   6.071   5.844  0.8905 -1.3109 -1.8136
  119SOPE   H8S12575   0.905   6.088   5.801  0.3285  1.1914  0.4565
  119SOPE   C2912576   0.851   5.889   5.850  0.2974  0.1814  0.2276
  119SOPE   H9112577   0.881   5.824   5.933  0.9592 -0.7915 -0.7531
  119SOPE  C21012578   0.815   5.834   5.733 -0.1228  0.0584 -0.2735
  119SOPE  H10112579   0.834   5.727   5.718 -0.0964  0.0205  0.0305
  119SOPE  C21112580   0.758   5.925   5.625  0.2496 -0.4403 -0.2430
  119SOPE  H11R12581   0.689   6.005   5.659 -0.3734 -0.1973 -1.9827
  119SOPE  H11S12582   0.685   5.866   5.564  0.0189  0.0385 -0.4341
  119SOPE  C21212583   0.866   5.988   5.545 -0.7452 -0.6302 -0.1421
  119SOPE  H12R12584   0.939   5.915   5.503 -1.0067 -2.1431  1.8548
  119SOPE  H12S12585   0.925   6.069   5.593 -0.0103 -0.2036 -1.6896
  119SOPE  C21312586   0.828   6.052   5.415 -0.6341 -0.4874 -0.6428
  119SOPE  H13R12587   0.759   6.137   5.432 -0.3154 -0.0046 -1.6906
  119SOPE  H13S12588   0.775   5.972   5.359 -0.9369 -0.4949 -0.3465
  119SOPE  C21412589   0.958   6.088   5.336 -0.2360  0.0350  0.5035
  119SOPE  H14R12590   1.014   5.992   5.339 -1.2358 -0.5257  2.6608
  119SOPE  H14S12591   0.998   6.172   5.397 -0.5534  0.6248 -0.0827
  119SOPE  C21512592   0.924   6.142   5.188 -0.3374  0.6579 -0.6296
  119SOPE  H15R12593   0.880   6.054   5.136  1.1322  0.3790 -1.4816
  119SOPE  H15S12594   1.018   6.169   5.136  0.6904 -2.5070 -0.6278
  119SOPE  C21612595   0.823   6.255   5.184  0.1319 -0.4714 -0.0286
  119SOPE  H16R12596   0.885   6.327   5.241  0.2828 -2.0179  1.9038
  119SOPE  H16S12597   0.735   6.223   5.245  0.4137 -1.2302 -0.0022
  119SOPE  C21712598   0.789   6.310   5.046 -0.1660  0.0516 -0.6536
  119SOPE  H17R12599   0.758   6.222   4.986 -1.1809 -0.6938  0.8782
  119SOPE  H17S12600   0.878   6.356   4.998  1.1239  0.4734  1.9482
  119SOPE  C21812601   0.675   6.405   5.026  0.3120 -0.4029  0.2975
  119SOPE  H18R12602   0.579   6.358   5.058 -0.3275  2.9087  4.0547
  119SOPE  H18S12603   0.677   6.445   4.922 -2.5193  0.4800  0.4723
  119SOPE  H18T12604   0.681   6.492   5.094 -0.9509  0.8952 -1.1496
  119SOPE   C3312605   0.033   6.082   6.432  0.1418  0.4349  0.4607
  119SOPE   H3X12606   0.090   6.178   6.439  0.1165  0.5125 -0.3661
  119SOPE   H3Y12607  -0.063   6.102   6.485  0.3553 -2.6828  2.2144
  119SOPE   C3412608   0.016   6.058   6.282 -0.9486  0.0632  0.6603
  119SOPE   H4X12609  -0.059   5.979   6.264  1.1516 -1.6379 -1.2415
  119SOPE   H4Y12610   0.103   6.009   6.234 -0.1047  0.2257  1.9467
  119SOPE   C3512611  -0.031   6.178   6.201  0.6063 -0.6852 -0.2218
  119SOPE   H5X12612   0.055   6.249   6.204  0.7792 -0.9197  0.5161
  119SOPE   H5Y12613  -0.112   6.236   6.251  0.9244  0.7512 -1.2754
  119SOPE   C3612614  -0.060   6.156   6.052 -0.3518 -0.5736  0.4139
  119SOPE   H6X12615  -0.151   6.094   6.039  0.6846 -1.7673 -1.7208
  119SOPE   H6Y12616   0.028   6.108   6.004  0.0773 -0.8434  1.4506
  119SOPE   C3712617  -0.098   6.294   5.981 -0.8612 -0.6196 -0.3019
  119SOPE   H7X12618  -0.043   6.377   6.031 -0.8401 -0.9503  0.2350
  119SOPE   H7Y12619  -0.206   6.313   5.998 -0.4366  0.6654  1.2863
  119SOPE   C3812620  -0.062   6.282   5.833 -0.1495 -0.4540 -0.1751
  119SOPE   H8X12621  -0.119   6.194   5.796 -2.9229  1.0189  0.3222
  119SOPE   H8Y12622   0.046   6.257   5.825 -0.0825 -0.6570  1.1417
  119SOPE   C3912623  -0.092   6.401   5.745 -0.7818 -0.2981  0.1272
  119SOPE   H9X12624  -0.020   6.484   5.763 -0.4773 -0.1279 -1.7610
  119SOPE   H9Y12625  -0.191   6.442   5.775 -0.3172  0.2857  0.8904
  119SOPE  C31012626  -0.084   6.353   5.598  0.0099  0.5338  0.0841
  119SOPE  H10X12627  -0.144   6.264   5.569  1.4998 -0.3199 -0.5188
  119SOPE  H10Y12628   0.017   6.309   5.582 -1.1233 -1.6695 -1.6506
  119SOPE  C31112629  -0.094   6.463   5.493  0.0785 -0.9959  0.3094
  119SOPE  H11X12630  -0.075   6.425   5.390 -0.4202 -1.0076  0.2183
  119SOPE  H11Y12631  -0.009   6.532   5.513  0.0817 -0.2299 -2.0317
  119SOPE  C31212632  -0.227   6.531   5.505 -0.1318  0.3885 -0.1036
  119SOPE  H12X12633  -0.230   6.630   5.556 -2.6583 -0.6240  2.0128
  119SOPE  H12Y12634  -0.295   6.476   5.573  1.3575 -0.6555  0.5766
  119SOPE  C31312635  -0.312   6.555   5.372  0.2752 -0.0816  0.7203
  119SOPE  H13X12636  -0.417   6.571   5.407  0.3593 -0.2821  1.0770
  119SOPE  H13Y12637  -0.305   6.464   5.309 -1.5382  1.1417 -1.3911
  119SOPE  C31412638  -0.264   6.671   5.284 -0.0678  0.5837  0.2976
  119SOPE  H14X12639  -0.155   6.661   5.264 -0.2724 -0.3605 -0.4317
  119SOPE  H14Y12640  -0.273   6.770   5.333  1.6895  1.5085 -1.1381
  119SOPE  C31512641  -0.333   6.669   5.149 -0.0485  0.5030  0.0692
  119SOPE  H15X12642  -0.439   6.637   5.156 -0.3408  1.3007 -0.5594
  119SOPE  H15Y12643  -0.281   6.595   5.084 -0.0709  0.6172 -0.0815
  119SOPE  C31612644  -0.323   6.799   5.070 -0.0581 -0.0590  0.2320
  119SOPE  H16X12645  -0.220   6.794   5.030 -0.1020  0.9398 -0.0338
  119SOPE  H16Y12646  -0.327   6.889   5.136 -0.6276 -0.5922  0.9386
  119SOPE  C31712647  -0.427   6.806   4.952 -0.1896 -0.3279  0.2673
  119SOPE  H17X12648  -0.529   6.831   4.988 -0.0897  0.9095 -0.2785
  119SOPE  H17Y12649  -0.431   6.713   4.891 -0.3152  0.6844 -1.2972
  119SOPE  C31812650  -0.392   6.920   4.855  0.5995  0.1804 -0.0077
  119SOPE  H18X12651  -0.440   6.907   4.755  0.4618 -1.0367  0.2047
  119SOPE  H18Y12652  -0.283   6.938   4.843  0.1763  2.1351 -1.3575
  119SOPE  H18Z12653  -0.422   7.019   4.894  1.3217 -0.0371  1.1206
  120SOPE     N12654   0.135   1.914   7.647  0.3662  0.0337  0.7219
  120SOPE   HN112655   0.159   1.814   7.632 -3.5724 -1.0485  0.4480
  120SOPE   HN212656   0.204   1.968   7.590 -0.0616 -2.0579 -2.0215
  120SOPE   HN312657   0.135   1.936   7.748  0.3605 -1.6318  1.1170
  120SOPE   C1212658  -0.003   1.938   7.584  0.1192 -0.6833 -0.2613
  120SOPE  H12A12659  -0.082   1.874   7.628 -0.3889  0.7210  0.9403
  120SOPE  H12B12660   0.005   1.899   7.480  1.8916 -0.1343 -0.3654
  120SOPE   C1112661  -0.043   2.087   7.597  0.8195  0.6326 -0.2593
  120SOPE  H11A12662  -0.062   2.105   7.705  1.6485  0.4936 -0.0810
  120SOPE  H11B12663  -0.139   2.100   7.543  0.6255  3.2746  0.5618
  120SOPE     P12664   0.034   2.325   7.578  0.0569 -0.5789  0.0520
  120SOPE   O1312665   0.140   2.380   7.669 -0.0998  0.3984 -0.4175
  120SOPE   O1412666  -0.104   2.340   7.632  0.4503  0.5587 -0.0632
  120SOPE   O1212667   0.053   2.170   7.539  0.7227  0.0038  0.3346
  120SOPE   O1112668   0.047   2.393   7.439  0.8092 -0.0336 -0.7879
  120SOPE    C112669   0.156   2.355   7.351  0.1911  0.0635  0.4174
  120SOPE    HA12670   0.224   2.282   7.399  2.0151  1.0306 -0.6020
  120SOPE    HB12671   0.218   2.444   7.325  0.0962 -0.6203 -2.4162
  120SOPE    C212672   0.116   2.275   7.217 -0.7723 -0.0559  0.4685
  120SOPE    HS12673   0.213   2.268   7.163 -0.6224  0.5503  0.6555
  120SOPE   O2112674   0.016   2.353   7.146 -0.2728  0.4715  0.4751
  120SOPE   C2112675   0.068   2.442   7.066  0.1572 -0.4400 -0.3084
  120SOPE   O2212676   0.185   2.480   7.068 -0.1032  0.4786  0.0482
  120SOPE   C2212677  -0.045   2.497   6.976 -0.2568 -0.3552  0.1972
  120SOPE   H2R12678  -0.028   2.607   6.980 -0.5844 -0.2682 -0.6474
  120SOPE   H2S12679  -0.139   2.461   7.022  1.3138 -2.8402  1.7161
  120SOPE    C312680   0.064   2.127   7.243 -0.2623 -0.2064 -0.3730
  120SOPE    HX12681  -0.038   2.143   7.285  0.2101 -0.7456  1.0672
  120SOPE    HY12682   0.124   2.083   7.326  1.1522  1.8844 -0.2326
  120SOPE   O3112683   0.058   2.038   7.127  0.7637  0.3150 -0.0545
  120SOPE   C3112684  -0.060   2.002   7.077  0.3776  0.5170  0.3939
  120SOPE   O3212685  -0.166   2.028   7.123  0.4341 -0.2685  0.4829
  120SOPE   C3212686  -0.040   1.934   6.940 -0.9101  0.6493 -0.2552
  120SOPE   H2X12687   0.060   1.886   6.930 -0.7793  0.9343 -0.3368
  120SOPE   H2Y12688  -0.035   2.016   6.865  1.7517  1.1865  0.3836
  120SOPE   C2312689  -0.045   2.440   6.841  0.1717 -0.6058  0.8059
  120SOPE   H3R12690   0.053   2.437   6.790 -0.3422 -1.1988 -0.1825
  120SOPE   H3S12691  -0.102   2.504   6.770  2.1257  0.1423 -0.1592
  120SOPE   C2412692  -0.085   2.290   6.832  0.2381 -0.6566  0.5484
  120SOPE   H4R12693   0.010   2.240   6.860  0.6501 -1.1026 -1.4746
  120SOPE   H4S12694  -0.164   2.263   6.904 -0.1483 -0.2456  0.2889
  120SOPE   C2512695  -0.128   2.249   6.697  0.7155 -0.1969 -0.0788
  120SOPE   H5R12696  -0.142   2.139   6.692  2.6157 -0.5204  0.6875
  120SOPE   H5S12697  -0.230   2.287   6.679  1.5358  1.5795 -1.2656
  120SOPE   C2612698  -0.055   2.280   6.571 -0.9365  0.1792 -0.2618
  120SOPE   H6R12699  -0.082   2.384   6.542 -1.4540  0.6462  1.7511
  120SOPE   H6S12700   0.054   2.268   6.585 -0.3953  3.1398 -1.0896
  120SOPE   C2712701  -0.104   2.185   6.463  0.6048  0.4813 -0.0034
  120SOPE   H7R12702  -0.074   2.081   6.487  0.8439  0.0779 -1.9026
  120SOPE   H7S12703  -0.215   2.184   6.461  0.6119  0.3754 -1.5316
  120SOPE   C2812704  -0.052   2.212   6.322 -0.2659 -0.2356  0.3662
  120SOPE   H8R12705  -0.056   2.322   6.303  1.3656  0.0177  1.3131
  120SOPE   H8S12706   0.054   2.180   6.326 -0.2408 -0.0759  1.0808
  120SOPE   C2912707  -0.109   2.133   6.206  0.4422 -0.0917  0.0349
  120SOPE   H9112708  -0.107   2.026   6.229 -1.3502  0.2090  1.7813
  120SOPE  C21012709  -0.153   2.171   6.083  0.0201  1.1460  0.3891
  120SOPE  H10112710  -0.200   2.093   6.021  2.5953  0.2431 -0.5470
  120SOPE  C21112711  -0.151   2.306   6.026 -0.3493  0.2500 -0.1186
  120SOPE  H11R12712  -0.074   2.371   6.073 -2.3998  1.9015  1.1535
  120SOPE  H11S12713  -0.247   2.353   6.055  0.3749  1.4710  0.3760
  120SOPE  C21212714  -0.152   2.309   5.872  0.0181  0.4271 -0.1114
  120SOPE  H12R12715  -0.170   2.416   5.847 -0.6691  0.3964  0.2317
  120SOPE  H12S12716  -0.245   2.258   5.839 -0.1554 -1.2721  2.7406
  120SOPE  C21312717  -0.021   2.267   5.813 -0.9471  0.4094  0.0354
  120SOPE  H13R12718  -0.035   2.158   5.826 -1.5116  0.3656 -0.8464
  120SOPE  H13S12719   0.057   2.309   5.880 -1.6152  0.7865  0.5929
  120SOPE  C21412720  -0.005   2.298   5.662  0.3929  0.6369 -0.0078
  120SOPE  H14R12721   0.081   2.246   5.615 -0.7078 -0.1696 -1.2157
  120SOPE  H14S12722   0.005   2.407   5.644  0.2266  1.0326  2.0503
  120SOPE  C21512723  -0.122   2.250   5.567  0.3955 -0.4651 -0.1755
  120SOPE  H15R12724  -0.219   2.301   5.587  0.4083 -0.8880  1.0520
  120SOPE  H15S12725  -0.147   2.143   5.584 -0.0739 -0.8050 -2.6636
  120SOPE  C21612726  -0.087   2.264   5.418 -0.3077 -0.0573  0.0708
  120SOPE  H16R12727   0.005   2.209   5.390  0.5677  0.9389  0.9020
  120SOPE  H16S12728  -0.078   2.371   5.390 -0.6252 -0.0103  0.1404
  120SOPE  C21712729  -0.192   2.198   5.326 -0.3371 -0.5965  0.2473
  120SOPE  H17R12730  -0.289   2.245   5.352  0.9104  2.9327 -0.9467
  120SOPE  H17S12731  -0.199   2.088   5.341  0.0648 -0.6749 -0.1141
  120SOPE  C21812732  -0.158   2.218   5.179 -0.4427 -0.3415 -0.1059
  120SOPE  H18R12733  -0.229   2.173   5.106 -1.7593  2.9364 -1.0505
  120SOPE  H18S12734  -0.051   2.193   5.163  0.2521  0.4645  2.7565
  120SOPE  H18T12735  -0.157   2.328   5.160  1.1710 -0.1025  1.1302
  120SOPE   C3312736  -0.144   1.819   6.916 -0.1924  0.1621  0.1362
  120SOPE   H3X12737  -0.180   1.764   7.005 -0.9813 -1.1200 -0.9465
  120SOPE   H3Y12738  -0.089   1.743   6.857 -0.0279  0.1116  0.3520
  120SOPE   C3412739  -0.262   1.864   6.832 -0.4018  0.1760  0.3289
  120SOPE   H4X12740  -0.223   1.938   6.759  0.0022 -0.6127 -0.2733
  120SOPE   H4Y12741  -0.339   1.916   6.893  0.8100 -1.1957  3.2341
  120SOPE   C3512742  -0.326   1.748   6.755 -0.1892  0.1912 -1.1411
  120SOPE   H5X12743  -0.345   1.680   6.840  0.5730  1.4951  0.1179
  120SOPE   H5Y12744  -0.256   1.699   6.683  0.3499  0.1476 -0.5966
  120SOPE   C3612745  -0.459   1.787   6.679  0.4299  0.0241 -0.2571
  120SOPE   H6X12746  -0.517   1.833   6.762  1.9484 -0.6551  1.2699
  120SOPE   H6Y12747  -0.507   1.693   6.644 -0.0906  0.2974 -0.2853
  120SOPE   C3712748  -0.449   1.876   6.560  0.0781 -0.2685  0.4245
  120SOPE   H7X12749  -0.419   1.979   6.593  1.4672 -0.6160  0.3228
  120SOPE   H7Y12750  -0.547   1.891   6.511  1.4334  2.4123 -1.7833
  120SOPE   C3812751  -0.348   1.818   6.454  0.6460 -0.2597  0.4876
  120SOPE   H8X12752  -0.254   1.775   6.494  2.4544  4.1792  1.5683
  120SOPE   H8Y12753  -0.319   1.905   6.391 -1.1678 -0.6819 -1.0624
  120SOPE   C3912754  -0.423   1.727   6.360 -0.6068  0.2866  1.0308
  120SOPE   H9X12755  -0.522   1.762   6.322 -0.4006 -2.0510 -2.1020
  120SOPE   H9Y12756  -0.449   1.636   6.418 -1.1966 -0.5739 -0.5063
  120SOPE  C31012757  -0.347   1.699   6.231  0.3320 -0.2340 -0.6301
  120SOPE  H10X12758  -0.244   1.663   6.251  0.7209 -0.3789 -2.6149
  120SOPE  H10Y12759  -0.325   1.794   6.178  1.5429 -1.0923 -1.7275
  120SOPE  C31112760  -0.391   1.585   6.141 -0.0116 -0.0761 -0.3631
  120SOPE  H11X12761  -0.496   1.593   6.105 -1.0059  1.0361  2.4368
  120SOPE  H11Y12762  -0.390   1.486   6.191 -1.8743 -1.7138 -3.3312
  120SOPE  C31212763  -0.301   1.574   6.015  0.2979 -0.1291 -0.2706
  120SOPE  H12X12764  -0.200   1.548   6.053 -1.0958  0.5786  4.6220
  120SOPE  H12Y12765  -0.288   1.669   5.959  4.0292 -1.2997 -1.6797
  120SOPE  C31312766  -0.365   1.485   5.905 -1.1039 -0.5933  0.3990
  120SOPE  H13X12767  -0.454   1.542   5.870 -0.4025  0.1687 -0.1939
  120SOPE  H13Y12768  -0.397   1.393   5.959 -1.6765 -0.0319  1.0403
  120SOPE  C31412769  -0.265   1.451   5.794  0.0573 -0.2348  0.0470
  120SOPE  H14X12770  -0.173   1.408   5.840 -0.2590 -1.5925 -0.5522
  120SOPE  H14Y12771  -0.232   1.544   5.743 -0.8979 -0.3268 -0.7687
  120SOPE  C31512772  -0.331   1.377   5.680 -0.3417 -0.2191 -0.7163
  120SOPE  H15X12773  -0.411   1.434   5.629  1.9295  0.4965 -3.7964
  120SOPE  H15Y12774  -0.367   1.276   5.710 -1.0510 -0.8291 -3.3483
  120SOPE  C31612775  -0.237   1.355   5.568  0.2103  0.2205  0.9593
  120SOPE  H16X12776  -0.159   1.288   5.609 -0.7276 -0.5447  1.5345
  120SOPE  H16Y12777  -0.192   1.450   5.532  0.6076 -0.3262 -0.0406
  120SOPE  C31712778  -0.303   1.274   5.453 -0.0545  0.7247 -0.2460
  120SOPE  H17X12779  -0.389   1.337   5.422  0.2417  1.7229  0.8674
  120SOPE  H17Y12780  -0.335   1.172   5.484  1.4753 -1.5228 -5.0561
  120SOPE  C31812781  -0.212   1.254   5.328 -0.2106  0.1451 -0.5434
  120SOPE  H18X12782  -0.107   1.248   5.365 -0.2879  1.0737 -0.1597
  120SOPE  H18Y12783  -0.226   1.339   5.258  2.8758 -0.2071 -1.7854
  120SOPE  H18Z12784  -0.242   1.161   5.275 -3.1851  0.3814  0.5728
  121SOPE     N12785   0.060   0.028   7.209 -0.2674  0.3974  0.2275
  121SOPE   HN112786   0.001   0.030   7.123  0.1811  0.2093 -0.0871
  121SOPE   HN212787  -0.000   0.020   7.294 -0.1175  0.9601  0.3945
  121SOPE   HN312788   0.113   0.117   7.222  1.3619 -0.1777 -1.9519
  121SOPE   C1212789   0.138  -0.100   7.183  0.0755 -0.1627  0.1097
  121SOPE  H12A12790   0.169  -0.125   7.286  0.0651 -0.3563  0.0655
  121SOPE  H12B12791   0.234  -0.074   7.133  0.0835  0.3612  0.3879
  121SOPE   C1112792   0.047  -0.199   7.116  0.5152  0.9708  0.5662
  121SOPE  H11A12793  -0.055  -0.213   7.159 -0.3561 -1.2813 -1.9934
  121SOPE  H11B12794   0.097  -0.298   7.119  1.7752  1.5250 -0.9670
  121SOPE     P12795  -0.094  -0.209   6.897 -0.0242  0.5346  0.2624
  121SOPE   O1312796  -0.204  -0.124   6.935  0.4584 -0.2429 -0.1025
  121SOPE   O1412797  -0.110  -0.354   6.909 -0.9976  0.3704 -0.8242
  121SOPE   O1212798   0.033  -0.159   6.982 -0.2118 -0.0538 -1.0865
  121SOPE   O1112799  -0.062  -0.179   6.747  0.3076 -0.1191  0.2873
  121SOPE    C112800   0.059  -0.120   6.691 -0.6380  0.0463  0.2172
  121SOPE    HA12801   0.111  -0.065   6.773 -1.5888  0.2914  0.6651
  121SOPE    HB12802   0.030  -0.043   6.616 -0.6203  1.8541  2.0028
  121SOPE    C212803   0.158  -0.230   6.621  0.1641 -0.1566  0.0786
  121SOPE    HS12804   0.263  -0.197   6.608  0.6796 -1.3594  0.9501
  121SOPE   O2112805   0.099  -0.277   6.496 -0.1240  0.0721 -0.0637
  121SOPE   C2112806   0.106  -0.187   6.403  0.3153  0.4448  0.2104
  121SOPE   O2212807   0.185  -0.090   6.405  0.2326 -0.3910 -1.1847
  121SOPE   C2212808  -0.003  -0.210   6.301 -0.8402  0.7619  0.1327
  121SOPE   H2R12809  -0.084  -0.263   6.355  1.5935 -0.6664  2.6230
  121SOPE   H2S12810   0.039  -0.277   6.222 -2.3371  0.1569 -0.1824
  121SOPE    C312811   0.174  -0.355   6.714  0.2125  0.6772 -0.3987
  121SOPE    HX12812   0.069  -0.390   6.728 -0.6696  2.5680 -1.7829
  121SOPE    HY12813   0.219  -0.309   6.805  1.2296  1.2248 -1.1596
  121SOPE   O3112814   0.253  -0.461   6.655  0.1232  0.7627 -0.0417
  121SOPE   C3112815   0.377  -0.430   6.641 -0.2922  0.3832  0.2344
  121SOPE   O3212816   0.432  -0.335   6.696  0.1842  0.2188  0.1873
  121SOPE   C3212817   0.438  -0.505   6.519  0.1922  0.7521 -0.0610
  121SOPE   H2X12818   0.428  -0.614   6.537 -1.4091  0.8915 -0.0214
  121SOPE   H2Y12819   0.547  -0.486   6.504  0.9606 -2.8227  0.0171
  121SOPE   C2312820  -0.063  -0.081   6.239  0.2658  0.5549  0.1381
  121SOPE   H3R12821   0.009  -0.004   6.204  0.4643 -0.3274 -1.5103
  121SOPE   H3S12822  -0.115  -0.042   6.329 -0.5931  1.1093 -0.5794
  121SOPE   C2412823  -0.178  -0.113   6.142 -0.5653 -0.5228  0.5677
  121SOPE   H4R12824  -0.129  -0.155   6.051 -2.1957  0.4724 -0.8279
  121SOPE   H4S12825  -0.241  -0.198   6.175 -0.4433  0.3300  3.2276
  121SOPE   C2512826  -0.256   0.000   6.085 -0.1082  0.6775 -0.1346
  121SOPE   H5R12827  -0.320   0.041   6.166 -0.1371 -0.1518  0.2667
  121SOPE   H5S12828  -0.189   0.079   6.044  1.9231 -0.3206  1.0955
  121SOPE   C2612829  -0.346  -0.050   5.960  0.0740  0.2621  0.5966
  121SOPE   H6R12830  -0.274  -0.072   5.878 -1.2914 -0.0513 -0.5471
  121SOPE   H6S12831  -0.389  -0.147   5.993  0.6788 -0.1962  0.0727
  121SOPE   C2712832  -0.464   0.047   5.936  0.1452 -0.5245 -0.3315
  121SOPE   H7R12833  -0.509   0.055   6.038  1.1692 -0.7902  0.1549
  121SOPE   H7S12834  -0.426   0.145   5.900 -0.8250 -0.1218 -0.2843
  121SOPE   C2812835  -0.559  -0.008   5.837 -0.6888 -0.5904  0.3025
  121SOPE   H8R12836  -0.611  -0.098   5.878 -1.3636  0.2505  1.3682
  121SOPE   H8S12837  -0.650   0.054   5.824  0.2192  0.7855  0.3532
  121SOPE   C2912838  -0.490  -0.038   5.707  0.2497  0.0075  0.3535
  121SOPE   H9112839  -0.427  -0.128   5.714 -1.9857 -1.7736 -0.7285
  121SOPE  C21012840  -0.506   0.014   5.590 -0.6494 -0.2520 -0.1464
  121SOPE  H10112841  -0.448  -0.023   5.504 -0.4564  0.6663 -0.4190
  121SOPE  C21112842  -0.598   0.128   5.549  0.6255 -0.3442 -0.7705
  121SOPE  H11R12843  -0.546   0.201   5.484  1.2269 -0.7014 -0.6969
  121SOPE  H11S12844  -0.639   0.184   5.636  0.3073 -2.1457  0.2860
  121SOPE  C21212845  -0.720   0.077   5.475  0.0056  0.4057  0.7245
  121SOPE  H12R12846  -0.794   0.160   5.479 -0.1153  0.2608  2.0145
  121SOPE  H12S12847  -0.761  -0.017   5.517 -0.2642  0.3221  0.2830
  121SOPE  C21312848  -0.690   0.047   5.326 -0.2867 -0.1140  0.3400
  121SOPE  H13R12849  -0.613  -0.033   5.315 -0.1963 -0.0000  0.1381
  121SOPE  H13S12850  -0.638   0.134   5.281  0.7760  0.0251  1.7554
  121SOPE  C21412851  -0.807   0.004   5.243  0.3275 -0.0533  0.1727
  121SOPE  H14R12852  -0.891   0.071   5.271 -0.4501 -1.3637  1.1338
  121SOPE  H14S12853  -0.830  -0.104   5.260 -1.7317  0.1715 -0.7660
  121SOPE  C21512854  -0.771  -0.002   5.087 -0.0563  0.4803  0.1122
  121SOPE  H15R12855  -0.691  -0.079   5.075 -0.6676  0.0859 -1.6975
  121SOPE  H15S12856  -0.729   0.092   5.046  0.0700  0.2377 -0.3157
  121SOPE  C21612857  -0.889  -0.043   5.001 -0.1619 -0.0383  0.2068
  121SOPE  H16R12858  -0.960   0.040   4.984  0.1568 -0.0091 -1.0081
  121SOPE  H16S12859  -0.950  -0.119   5.054 -0.0512  0.4536  1.0627
  121SOPE  C21712860  -0.846  -0.110   4.867 -0.0998 -0.5424  0.0891
  121SOPE  H17R12861  -0.933  -0.157   4.815 -0.1408  0.7728 -1.1233
  121SOPE  H17S12862  -0.766  -0.181   4.894 -0.7402 -0.9918  0.8572
  121SOPE  C21812863  -0.781  -0.021   4.759  0.1178  0.1575 -0.3576
  121SOPE  H18R12864  -0.683   0.011   4.801 -0.5076  2.2648 -0.4031
  121SOPE  H18S12865  -0.848   0.065   4.737  0.6207  0.9406  1.0414
  121SOPE  H18T12866  -0.782  -0.081   4.666  0.3559 -0.3980 -0.0075
  121SOPE   C3312867   0.373  -0.482   6.385 -0.1265  0.1470 -0.4204
  121SOPE   H3X12868   0.374  -0.381   6.339 -4.7962  0.8672  0.5757
  121SOPE   H3Y12869   0.267  -0.498   6.414  0.5171 -0.6870  1.6152
  121SOPE   C3412870   0.418  -0.599   6.291  0.4228  0.2178 -0.0046
  121SOPE   H4X12871   0.383  -0.690   6.344  1.3816  0.6695  1.4843
  121SOPE   H4Y12872   0.527  -0.609   6.271  0.6734  0.5731  1.0933
  121SOPE   C3512873   0.357  -0.595   6.149 -0.7825 -0.1615  0.5575
  121SOPE   H5X12874   0.247  -0.605   6.149 -0.8623  0.6637  1.2069
  121SOPE   H5Y12875   0.402  -0.679   6.091  2.4911  2.3651 -0.9266
  121SOPE   C3612876   0.377  -0.463   6.074 -0.2668  0.3073  0.5413
  121SOPE   H6X12877   0.485  -0.436   6.073  0.0480 -0.9021 -0.0337
  121SOPE   H6Y12878   0.318  -0.387   6.129 -0.0875  1.9192 -1.3930
  121SOPE   C3712879   0.328  -0.473   5.925 -0.0311  0.4442  0.7085
  121SOPE   H7X12880   0.326  -0.371   5.881 -0.2951  0.8139  1.5538
  121SOPE   H7Y12881   0.224  -0.512   5.926 -0.2104  0.8697 -0.4454
  121SOPE   C3812882   0.422  -0.548   5.829 -0.0558 -0.0938 -0.3228
  121SOPE   H8X12883   0.447  -0.650   5.866  0.7403  0.4699  0.7383
  121SOPE   H8Y12884   0.516  -0.496   5.802  0.3468 -0.9625 -0.6515
  121SOPE   C3912885   0.350  -0.580   5.697 -0.7199 -0.0402 -0.6284
  121SOPE   H9X12886   0.258  -0.639   5.716 -1.6957  0.6798 -2.8371
  121SOPE   H9Y12887   0.425  -0.646   5.650 -0.4289  0.8566 -1.4444
  121SOPE  C31012888   0.315  -0.463   5.607  0.3888  0.5085  0.5053
  121SOPE  H10X12889   0.390  -0.382   5.607  0.3156  0.6762  3.5891
  121SOPE  H10Y12890   0.228  -0.408   5.648 -0.7308 -0.2686 -0.7356
  121SOPE  C31112891   0.277  -0.502   5.456  0.5187 -0.4295 -0.3224
  121SOPE  H11X12892   0.253  -0.404   5.410 -1.6718 -0.2984  0.9686
  121SOPE  H11Y12893   0.186  -0.566   5.456  0.4826 -0.3857  0.0926
  121SOPE  C31212894   0.387  -0.580   5.384  0.6096  0.2009 -0.2300
  121SOPE  H12X12895   0.413  -0.672   5.442 -1.8367 -1.8350 -2.1162
  121SOPE  H12Y12896   0.477  -0.516   5.375  1.5538 -0.9436  0.7267
  121SOPE  C31312897   0.348  -0.640   5.253  0.5015  0.2481  0.5183
  121SOPE  H13X12898   0.330  -0.561   5.176  0.0271  0.0892  0.4660
  121SOPE  H13Y12899   0.257  -0.697   5.278  0.0035  1.1248  0.7583
  121SOPE  C31412900   0.441  -0.750   5.198  0.4024 -0.9613 -0.1099
  121SOPE  H14X12901   0.465  -0.811   5.287 -0.6801 -2.3286 -0.7139
  121SOPE  H14Y12902   0.531  -0.695   5.164  0.2821 -0.6940 -0.0001
  121SOPE  C31512903   0.373  -0.837   5.082  0.1369  1.1443  0.8349
  121SOPE  H15X12904   0.364  -0.783   4.985  2.0088  1.2480  0.6677
  121SOPE  H15Y12905   0.278  -0.877   5.121  1.0247  0.7136  2.6524
  121SOPE  C31612906   0.467  -0.952   5.048 -0.3210  0.2372 -0.0198
  121SOPE  H16X12907   0.418  -1.032   4.988  1.8324 -2.2777  1.3374
  121SOPE  H16Y12908   0.482  -0.991   5.151 -1.9326 -1.4535 -0.3640
  121SOPE  C31712909   0.603  -0.903   4.982  0.5591 -0.5605 -1.1234
  121SOPE  H17X12910   0.673  -0.854   5.052 -1.7661  1.4389 -0.0489
  121SOPE  H17Y12911   0.579  -0.807   4.931  3.1029  0.5831 -0.3369
  121SOPE  C31812912   0.671  -1.005   4.897  0.0491  0.5076  0.4213
  121SOPE  H18X12913   0.598  -1.032   4.817  1.5790 -1.7828 -0.3168
  121SOPE  H18Y12914   0.684  -1.103   4.949 -2.3855 -0.6114 -0.8869
  121SOPE  H18Z12915   0.769  -0.976   4.855  0.0762 -0.0111  0.1116
  122SOPE     N12916   1.243   1.436   7.250  0.3140  0.3375  0.7651
  122SOPE   HN112917   1.327   1.491   7.225  0.3138 -0.1103 -0.2920
  122SOPE   HN212918   1.165   1.503   7.265 -0.1586  0.0538 -0.3072
  122SOPE   HN312919   1.258   1.381   7.337 -1.4126 -0.3792  0.6607
  122SOPE   C1212920   1.202   1.348   7.129  0.2540  1.2207 -0.0233
  122SOPE  H12A12921   1.291   1.290   7.095 -0.6055 -2.0187  2.7301
  122SOPE  H12B12922   1.174   1.407   7.039  0.8610  0.9113 -0.4245
  122SOPE   C1112923   1.090   1.248   7.169  0.3494  0.4706  0.6969
  122SOPE  H11A12924   1.145   1.172   7.228 -0.0366 -1.9369 -1.8296
  122SOPE  H11B12925   1.052   1.198   7.078  1.4583 -0.3259  0.6451
  122SOPE     P12926   0.827   1.315   7.199  0.2272  0.5270  0.1058
  122SOPE   O1312927   0.766   1.429   7.260 -0.1912  0.2115 -0.4468
  122SOPE   O1412928   0.764   1.187   7.233  0.4230  0.3302  0.5436
  122SOPE   O1212929   0.980   1.300   7.247 -0.0936 -0.5360 -0.2477
  122SOPE   O1112930   0.842   1.324   7.041 -0.8604  0.4142  0.0563
  122SOPE    C112931   0.746   1.380   6.955 -0.4422  0.1136 -0.2073
  122SOPE    HA12932   0.663   1.421   7.017  0.1067 -0.1467  0.7101
  122SOPE    HB12933   0.707   1.290   6.903  3.0703 -0.7288 -1.6692
  122SOPE    C212934   0.797   1.498   6.860 -0.3851 -0.2810  0.0037
  122SOPE    HS12935   0.757   1.598   6.888  0.2675  1.0019 -3.2337
  122SOPE   O2112936   0.749   1.464   6.726 -0.0648  0.3515  0.3553
  122SOPE   C2112937   0.622   1.494   6.703  0.3790  0.2533  0.2559
  122SOPE   O2212938   0.543   1.555   6.772 -0.1536 -0.2307  0.0384
  122SOPE   C2212939   0.586   1.452   6.556 -0.4168 -0.8146 -0.3093
  122SOPE   H2R12940   0.619   1.346   6.552 -0.3771 -0.8130 -0.0344
  122SOPE   H2S12941   0.637   1.526   6.491  0.1104  1.1978  2.2070
  122SOPE    C312942   0.954   1.497   6.857 -0.2937  0.0151 -0.0486
  122SOPE    HX12943   0.974   1.388   6.852 -0.4804 -0.2116  2.6666
  122SOPE    HY12944   0.999   1.533   6.953 -0.1875 -1.4243  0.4693
  122SOPE   O3112945   1.000   1.574   6.748  0.5416 -0.4877 -0.1717
  122SOPE   C3112946   1.123   1.542   6.703  0.0475  0.2999 -0.2919
  122SOPE   O3212947   1.192   1.448   6.744  0.6248  0.0638 -0.1256
  122SOPE   C3212948   1.172   1.644   6.601 -0.0835  0.0211  0.0998
  122SOPE   H2X12949   1.276   1.615   6.573 -0.0252  0.1328  0.2002
  122SOPE   H2Y12950   1.175   1.745   6.647  0.5888  0.4995 -0.9451
  122SOPE   C2312951   0.432   1.480   6.538  0.2069 -0.4850 -1.2984
  122SOPE   H3R12952   0.395   1.584   6.547 -1.4383 -1.0250 -1.3913
  122SOPE   H3S12953   0.371   1.423   6.612 -2.9205  0.8924 -2.6205
  122SOPE   C2412954   0.401   1.439   6.390 -0.2797 -0.2525 -0.5459
  122SOPE   H4R12955   0.437   1.334   6.385 -1.2964 -0.7033  1.0411
  122SOPE   H4S12956   0.291   1.432   6.383 -0.4285 -0.4414  1.5676
  122SOPE   C2512957   0.452   1.532   6.283 -0.6278 -0.2098  0.9218
  122SOPE   H5R12958   0.407   1.633   6.294 -0.9432 -0.0813 -1.2115
  122SOPE   H5S12959   0.562   1.550   6.274 -1.2417  2.9112 -3.4195
  122SOPE   C2612960   0.421   1.492   6.138  0.0946  0.1571 -0.0471
  122SOPE   H6R12961   0.483   1.401   6.122  1.6252  0.7857  1.9379
  122SOPE   H6S12962   0.313   1.471   6.123  0.1416  0.0320 -0.2223
  122SOPE   C2712963   0.464   1.599   6.035 -0.5126 -0.0867 -0.2090
  122SOPE   H7R12964   0.409   1.691   6.064  1.8231  1.1147  0.7099
  122SOPE   H7S12965   0.569   1.633   6.028 -0.3740 -0.4914 -0.1088
  122SOPE   C2812966   0.420   1.553   5.895 -0.1760  0.3360 -1.1932
  122SOPE   H8R12967   0.468   1.454   5.878 -0.2521  0.0376  0.2216
  122SOPE   H8S12968   0.310   1.547   5.906 -0.1349 -1.2412 -1.3737
  122SOPE   C2912969   0.452   1.648   5.786 -0.6027 -0.5802  0.4152
  122SOPE   H9112970   0.413   1.751   5.792  1.1852  0.3714 -2.2786
  122SOPE  C21012971   0.525   1.620   5.675 -0.1954  0.4055 -0.2083
  122SOPE  H10112972   0.537   1.702   5.602  0.5177  1.1817  0.7515
  122SOPE  C21112973   0.591   1.491   5.638  0.5328 -0.7519 -0.7032
  122SOPE  H11R12974   0.546   1.404   5.691 -1.3857  0.3275 -0.4972
  122SOPE  H11S12975   0.695   1.494   5.679  0.0068  0.0084  0.6509
  122SOPE  C21212976   0.581   1.453   5.494  0.3518  0.0896  0.6725
  122SOPE  H12R12977   0.656   1.372   5.481  0.1516  0.1542 -1.0352
  122SOPE  H12S12978   0.609   1.531   5.421 -1.3029 -0.1326 -0.2478
  122SOPE  C21312979   0.441   1.396   5.462 -0.9978 -0.4009 -0.0175
  122SOPE  H13R12980   0.362   1.463   5.502 -0.3171  0.6400 -0.3680
  122SOPE  H13S12981   0.431   1.300   5.516 -0.3070 -1.4927 -1.7623
  122SOPE  C21412982   0.419   1.399   5.309 -0.2033 -0.1347 -0.5497
  122SOPE  H14R12983   0.417   1.499   5.259 -1.2765 -0.1395 -0.5399
  122SOPE  H14S12984   0.314   1.369   5.289  0.3408 -2.7277  0.1758
  122SOPE  C21512985   0.521   1.307   5.233 -0.2489  0.1358  0.6729
  122SOPE  H15R12986   0.497   1.201   5.257 -0.6982  0.4990  1.9269
  122SOPE  H15S12987   0.625   1.338   5.253 -0.5304  0.6044  1.4512
  122SOPE  C21612988   0.505   1.338   5.082  0.1323 -0.3946  0.6175
  122SOPE  H16R12989   0.441   1.428   5.069 -0.6783 -0.7675  1.8338
  122SOPE  H16S12990   0.464   1.249   5.029 -1.0272  1.1934 -1.3060
  122SOPE  C21712991   0.644   1.366   5.020  0.0958  0.4297  0.1691
  122SOPE  H17R12992   0.690   1.449   5.078  1.1215  0.3030 -0.4462
  122SOPE  H17S12993   0.626   1.412   4.921  1.1315  1.6492  0.5152
  122SOPE  C21812994   0.735   1.245   5.001 -0.1656  0.7013  0.1169
  122SOPE  H18R12995   0.681   1.176   4.934  1.2841 -1.3793  0.9951
  122SOPE  H18S12996   0.767   1.201   5.098  1.1411 -1.0894 -1.0755
  122SOPE  H18T12997   0.824   1.282   4.947  0.7779 -1.1422  0.3434
  122SOPE   C3312998   1.081   1.643   6.475  0.3297 -0.0271 -0.0129
  122SOPE   H3X12999   1.111   1.725   6.407 -0.3858  0.3198  0.0731
  122SOPE   H3Y13000   0.981   1.678   6.510 -0.9319 -3.7345  0.5434
  122SOPE   C3413001   1.056   1.519   6.390  0.0623  0.2058  0.5462
  122SOPE   H4X13002   1.067   1.426   6.450  1.3327 -1.4408 -2.0345
  122SOPE   H4Y13003   1.143   1.509   6.322 -1.2024  0.5990 -1.2004
  122SOPE   C3513004   0.923   1.508   6.312 -0.1242 -0.0822 -0.2623
  122SOPE   H5X13005   0.909   1.602   6.254 -2.9639 -0.1776  0.1064
  122SOPE   H5Y13006   0.840   1.498   6.385  0.6746 -0.7677  0.5677
  122SOPE   C3613007   0.920   1.395   6.207 -0.3550  0.0224 -0.1828
  122SOPE   H6X13008   0.947   1.294   6.245 -0.6871 -0.3193 -0.8270
  122SOPE   H6Y13009   0.974   1.427   6.115 -1.9645  1.2514 -0.7532
  122SOPE   C3713010   0.770   1.363   6.176 -0.6039 -0.1217  0.0832
  122SOPE   H7X13011   0.758   1.435   6.092  1.1241 -0.5497 -0.5753
  122SOPE   H7Y13012   0.707   1.388   6.264 -0.4914  1.1134 -0.1731
  122SOPE   C3813013   0.742   1.226   6.130  0.2549  0.1974 -0.2099
  122SOPE   H8X13014   0.633   1.207   6.128  0.4287 -0.9836  0.4574
  122SOPE   H8Y13015   0.780   1.147   6.199  2.6474  1.3405 -0.1422
  122SOPE   C3913016   0.789   1.209   5.982 -1.1492 -0.6197 -0.9057
  122SOPE   H9X13017   0.898   1.188   5.983 -0.6031  1.9794 -0.7572
  122SOPE   H9Y13018   0.773   1.299   5.920  1.4414 -1.2808 -2.7032
  122SOPE  C31013019   0.720   1.090   5.915 -0.0407  0.0969 -0.7264
  122SOPE  H10X13020   0.615   1.124   5.927 -0.3165 -0.9324 -0.1147
  122SOPE  H10Y13021   0.726   1.001   5.981 -1.1326  0.4486 -0.1274
  122SOPE  C31113022   0.765   1.057   5.771 -0.1234 -0.3184 -0.5016
  122SOPE  H11X13023   0.875   1.045   5.771 -0.0985 -0.0928 -0.3692
  122SOPE  H11Y13024   0.736   1.146   5.712  0.4299  3.2024  4.0023
  122SOPE  C31213025   0.698   0.934   5.714 -0.7702  0.5164 -0.4010
  122SOPE  H12X13026   0.589   0.956   5.714 -0.9955 -0.4223  1.2896
  122SOPE  H12Y13027   0.705   0.845   5.780 -0.1163 -2.0556 -3.6826
  122SOPE  C31313028   0.735   0.894   5.575  0.0368  0.2642  0.4727
  122SOPE  H13X13029   0.832   0.840   5.579 -0.8709 -1.3466  2.8508
  122SOPE  H13Y13030   0.746   0.982   5.508 -0.5526 -1.2458 -1.6976
  122SOPE  C31413031   0.629   0.809   5.500 -0.0193  0.1905 -0.2245
  122SOPE  H14X13032   0.527   0.848   5.516 -1.6583 -3.2628 -1.2254
  122SOPE  H14Y13033   0.624   0.704   5.537 -0.6241  0.6949  1.1795
  122SOPE  C31513034   0.648   0.799   5.344 -0.1551 -0.8266 -0.1423
  122SOPE  H15X13035   0.644   0.901   5.301 -0.8895 -1.3743 -1.4273
  122SOPE  H15Y13036   0.575   0.729   5.297 -2.0301 -0.2570  1.7854
  122SOPE  C31613037   0.785   0.759   5.290 -0.2047 -0.3334  0.0133
  122SOPE  H16X13038   0.813   0.667   5.346  0.1343  0.3937  1.0704
  122SOPE  H16Y13039   0.867   0.832   5.308  0.4828  0.1556 -4.1031
  122SOPE  C31713040   0.778   0.730   5.140 -0.4594  1.4461  0.1383
  122SOPE  H17X13041   0.708   0.646   5.118  1.0398  0.4942 -1.3335
  122SOPE  H17Y13042   0.881   0.704   5.107 -0.7434  0.8771 -0.3514
  122SOPE  C31813043   0.736   0.852   5.050  0.5094 -0.1174 -0.2102
  122SOPE  H18X13044   0.799   0.941   5.071  0.1525  0.1252 -0.1601
  122SOPE  H18Y13045   0.631   0.880   5.072  0.8362  0.7469  0.3376
  122SOPE  H18Z13046   0.749   0.814   4.947 -1.1878  2.6383 -1.5386
  123SOPE     N13047   4.784   2.527   2.773 -0.3707  0.0564 -0.7649
  123SOPE   HN113048   4.847   2.563   2.699  0.9592  0.0281  0.3119
  123SOPE   HN213049   4.835   2.517   2.864 -1.0622  0.3607 -0.3428
  123SOPE   HN313050   4.750   2.430   2.754  0.1507 -0.6253  1.4028
  123SOPE   C1213051   4.657   2.614   2.791  0.1292  0.6692 -0.1365
  123SOPE  H12A13052   4.689   2.694   2.861 -1.7553  3.5532 -2.3542
  123SOPE  H12B13053   4.585   2.543   2.836  1.1710 -0.8706 -0.7885
  123SOPE   C1113054   4.605   2.668   2.659 -0.2045 -0.8179  0.5290
  123SOPE  H11A13055   4.506   2.718   2.666 -0.5472 -1.6926  3.2887
  123SOPE  H11B13056   4.598   2.591   2.580  1.6393 -2.1502  1.5920
  123SOPE     P13057   4.746   2.901   2.667 -0.0507 -0.1552 -0.0173
  123SOPE   O1313058   4.727   3.019   2.575 -0.3536 -0.0857  0.4311
  123SOPE   O1413059   4.885   2.891   2.719  0.4996  0.6177 -0.3261
  123SOPE   O1213060   4.690   2.761   2.602 -0.4363 -0.1156 -0.1625
  123SOPE   O1113061   4.661   2.911   2.805 -0.4139 -0.3537  0.1413
  123SOPE    C113062   4.541   2.992   2.798 -0.3537 -0.1901  0.2699
  123SOPE    HA13063   4.452   2.932   2.825  0.3407 -0.8926  1.0473
  123SOPE    HB13064   4.507   3.037   2.702  0.1154 -0.8878 -0.2339
  123SOPE    C213065   4.542   3.103   2.908  0.8058 -0.7398  0.4620
  123SOPE    HS13066   4.591   3.190   2.860 -1.9928 -0.0476 -1.3842
  123SOPE   O2113067   4.598   3.057   3.027 -0.2674 -0.4736 -0.2963
  123SOPE   C2113068   4.623   3.139   3.117 -1.0892 -0.1798  0.0905
  123SOPE   O2213069   4.603   3.259   3.111  0.1723  0.3295  0.1104
  123SOPE   C2213070   4.696   3.067   3.239  0.1105 -0.4225  0.5295
  123SOPE   H2R13071   4.781   3.133   3.267 -1.9216  1.7635  1.9934
  123SOPE   H2S13072   4.717   2.963   3.207 -2.1703 -0.6256 -0.5152
  123SOPE    C313073   4.393   3.150   2.928 -0.1054 -0.4476  0.0218
  123SOPE    HX13074   4.359   3.184   2.829 -1.0024  4.4326  1.7596
  123SOPE    HY13075   4.396   3.246   2.983  1.6831  0.6014 -1.7837
  123SOPE   O3113076   4.317   3.046   2.988  0.4820  0.3658  0.8358
  123SOPE   C3113077   4.284   3.052   3.113  0.3702 -1.0141 -0.2744
  123SOPE   O3213078   4.287   3.156   3.179  0.1279 -0.2411 -0.3530
  123SOPE   C3213079   4.219   2.928   3.163 -0.0866  0.1786  0.2297
  123SOPE   H2X13080   4.258   2.841   3.106 -1.9960  1.2562 -3.0192
  123SOPE   H2Y13081   4.113   2.931   3.130 -0.5732 -0.5870  1.6415
  123SOPE   C2313082   4.598   3.057   3.358  0.3600  0.4223  0.1124
  123SOPE   H3R13083   4.634   2.974   3.423  1.1148  1.7980  1.5156
  123SOPE   H3S13084   4.500   3.025   3.317  0.7023 -2.5764  1.4123
  123SOPE   C2413085   4.578   3.194   3.429  0.3734  0.2200 -0.0067
  123SOPE   H4R13086   4.678   3.218   3.472 -0.1109 -1.7233  2.4224
  123SOPE   H4S13087   4.542   3.271   3.358 -0.4518 -0.7444 -0.6624
  123SOPE   C2513088   4.465   3.182   3.531  0.4874  0.3154 -0.1944
  123SOPE   H5R13089   4.370   3.212   3.481 -0.1341  0.9924  1.3097
  123SOPE   H5S13090   4.457   3.075   3.559  1.4849  0.1267 -0.5972
  123SOPE   C2613091   4.476   3.272   3.656 -0.3706 -0.6619 -0.2124
  123SOPE   H6R13092   4.379   3.262   3.709  0.8561 -0.3451  2.2489
  123SOPE   H6S13093   4.558   3.247   3.727  1.4373  3.4326 -0.5748
  123SOPE   C2713094   4.497   3.424   3.624 -0.3310  0.7512 -0.1085
  123SOPE   H7R13095   4.582   3.415   3.553  0.2121 -1.0252  0.7040
  123SOPE   H7S13096   4.408   3.467   3.574  1.3445  2.1549 -2.1110
  123SOPE   C2813097   4.547   3.502   3.749 -0.2036  0.7495 -0.0439
  123SOPE   H8R13098   4.623   3.439   3.800 -1.5525 -1.7907 -0.9934
  123SOPE   H8S13099   4.603   3.585   3.702 -0.8282 -0.0033 -2.2651
  123SOPE   C2913100   4.427   3.542   3.843 -0.8624 -0.3276  0.8422
  123SOPE   H9113101   4.336   3.480   3.843 -2.3965  1.7583  2.7506
  123SOPE  C21013102   4.433   3.641   3.932  0.0192 -0.6048 -0.1104
  123SOPE  H10113103   4.341   3.676   3.982 -0.9277 -1.4323 -1.1875
  123SOPE  C21113104   4.548   3.733   3.964  0.4734 -0.3003 -0.1077
  123SOPE  H11R13105   4.606   3.765   3.875 -1.3549 -1.5691 -1.8416
  123SOPE  H11S13106   4.615   3.682   4.037 -0.0879 -0.1397  0.5299
  123SOPE  C21213107   4.500   3.865   4.033  0.0310 -0.1131 -0.2518
  123SOPE  H12R13108   4.409   3.900   3.979 -2.2502 -2.9723  1.4669
  123SOPE  H12S13109   4.584   3.937   4.022  1.6250 -1.8231  0.0853
  123SOPE  C21313110   4.483   3.846   4.185 -0.0945  0.5339  0.4213
  123SOPE  H13R13111   4.575   3.806   4.233 -0.1462  0.6211  0.5951
  123SOPE  H13S13112   4.397   3.787   4.222 -0.3454  2.2008  2.7491
  123SOPE  C21413113   4.494   3.973   4.272  0.8224 -0.0380 -0.6626
  123SOPE  H14R13114   4.428   4.051   4.228 -0.0300  1.0343  2.2793
  123SOPE  H14S13115   4.600   4.004   4.288 -0.0684  2.6288  0.8262
  123SOPE  C21513116   4.429   3.938   4.404  0.9057  0.5361 -0.5759
  123SOPE  H15R13117   4.457   3.840   4.449 -1.6354 -0.1103 -0.2481
  123SOPE  H15S13118   4.319   3.934   4.389  0.7545  2.0540 -0.0653
  123SOPE  C21613119   4.441   4.045   4.523  0.4037  0.1815  0.4195
  123SOPE  H16R13120   4.372   4.131   4.513 -1.0014 -1.0101 -0.7485
  123SOPE  H16S13121   4.543   4.085   4.507  2.1211 -4.1963 -1.2013
  123SOPE  C21713122   4.412   3.976   4.658 -0.0789 -0.4034  0.5924
  123SOPE  H17R13123   4.478   3.888   4.668  0.7310  0.2198  0.8302
  123SOPE  H17S13124   4.306   3.945   4.666 -0.4429  1.0183  1.6896
  123SOPE  C21813125   4.442   4.070   4.771 -0.0993 -0.4677 -0.4078
  123SOPE  H18R13126   4.443   4.013   4.866 -1.7683  1.2369  0.6999
  123SOPE  H18S13127   4.368   4.153   4.777 -1.9544 -1.9262 -2.0839
  123SOPE  H18T13128   4.541   4.116   4.748  0.5373 -1.5509  0.0773
  123SOPE   C3313129   4.213   2.911   3.321  0.8743 -0.3716 -0.0809
  123SOPE   H3X13130   4.311   2.897   3.369  0.4612 -1.1010  0.5549
  123SOPE   H3Y13131   4.153   2.820   3.339  2.5346 -1.8837 -1.7710
  123SOPE   C3413132   4.127   3.020   3.404  0.4637 -0.2400  0.3791
  123SOPE   H4X13133   4.031   3.003   3.351  0.0677 -0.7714  1.2388
  123SOPE   H4Y13134   4.172   3.121   3.396 -0.3993  0.2028  0.9596
  123SOPE   C3513135   4.110   2.981   3.560  0.3081 -0.5200 -0.1654
  123SOPE   H5X13136   4.085   3.082   3.597 -1.1867 -0.2060 -1.8647
  123SOPE   H5Y13137   4.204   2.948   3.609 -0.0455  0.4586  1.2106
  123SOPE   C3613138   4.008   2.872   3.593 -0.4122  0.1110  0.2701
  123SOPE   H6X13139   4.040   2.778   3.544 -1.0192  0.4778 -0.8789
  123SOPE   H6Y13140   3.911   2.896   3.545  0.1083 -0.3564 -1.0573
  123SOPE   C3713141   4.001   2.843   3.740  0.3587  0.2238  0.8702
  123SOPE   H7X13142   4.095   2.800   3.781 -0.3959  0.1685  2.6053
  123SOPE   H7Y13143   3.933   2.758   3.761  0.3662 -0.3918 -1.3373
  123SOPE   C3813144   3.949   2.961   3.819 -0.5116 -0.0554 -0.4935
  123SOPE   H8X13145   3.864   3.000   3.759 -1.4017 -2.2830 -0.7926
  123SOPE   H8Y13146   4.043   3.020   3.830  0.4529 -1.7362  0.9237
  123SOPE   C3913147   3.910   2.924   3.957  0.7560  0.1924  1.2201
  123SOPE   H9X13148   3.848   2.832   3.955  2.5725 -1.0710  1.0822
  123SOPE   H9Y13149   3.862   3.017   3.996  2.2978  1.4473  0.2371
  123SOPE  C31013150   4.028   2.894   4.050  0.4730  0.0932  0.4167
  123SOPE  H10X13151   4.094   2.982   4.063  1.5271 -0.6817  0.4300
  123SOPE  H10Y13152   4.082   2.810   4.002  0.6624  1.1148 -1.2441
  123SOPE  C31113153   3.987   2.849   4.196  0.0419 -0.1000  0.1269
  123SOPE  H11X13154   4.075   2.792   4.234  0.8094  0.3692 -0.8877
  123SOPE  H11Y13155   3.905   2.775   4.204 -0.5247  0.5346  0.2096
  123SOPE  C31213156   3.975   2.969   4.294  0.0406  0.2947 -0.2469
  123SOPE  H12X13157   3.882   3.021   4.260 -1.2075 -1.6832 -0.0429
  123SOPE  H12Y13158   4.061   3.038   4.296  2.5865 -2.6138  2.9410
  123SOPE  C31313159   3.936   2.924   4.437 -0.5307  0.0323  0.0338
  123SOPE  H13X13160   4.006   2.849   4.478 -0.5671 -1.2658 -2.1747
  123SOPE  H13Y13161   3.832   2.885   4.435 -0.0355 -1.2624 -1.3515
  123SOPE  C31413162   3.940   3.037   4.541  0.1484  0.0470 -0.4035
  123SOPE  H14X13163   3.883   3.124   4.503  1.1318  1.7884  1.9050
  123SOPE  H14Y13164   4.041   3.074   4.567 -0.6684  0.5050  2.4830
  123SOPE  C31513165   3.886   2.996   4.678  0.1661  0.9612 -0.1748
  123SOPE  H15X13166   3.946   2.917   4.728 -1.3500 -1.6328 -2.1918
  123SOPE  H15Y13167   3.795   2.935   4.661 -0.3582  2.0843 -1.6176
  123SOPE  C31613168   3.854   3.107   4.778 -0.3753 -0.0380  0.5232
  123SOPE  H16X13169   3.788   3.177   4.722  0.6090  0.3386 -0.1856
  123SOPE  H16Y13170   3.944   3.165   4.808  0.3676 -0.6842 -0.4163
  123SOPE  C31713171   3.774   3.066   4.900 -0.3124 -0.6119 -1.2150
  123SOPE  H17X13172   3.753   3.149   4.971  0.3211 -1.3533 -0.1218
  123SOPE  H17Y13173   3.826   2.986   4.958 -1.7674 -0.7689 -0.0640
  123SOPE  C31813174   3.635   3.011   4.861 -0.0084 -0.0599  0.9057
  123SOPE  H18X13175   3.651   2.919   4.801 -0.8342 -0.3336  1.0888
  123SOPE  H18Y13176   3.565   3.078   4.807 -0.7224 -1.7226 -0.3143
  123SOPE  H18Z13177   3.589   2.966   4.952 -2.7254 -1.9454 -1.2188
  124SOPE     N13178   0.541   4.487   2.297  0.2333  0.0065 -1.2212
  124SOPE   HN113179   0.587   4.428   2.369 -0.1619  1.7758  0.5564
  124SOPE   HN213180   0.476   4.537   2.360 -0.5517 -4.0573  1.6051
  124SOPE   HN313181   0.487   4.437   2.223  1.6521 -0.6881 -1.8322
  124SOPE   C1213182   0.637   4.584   2.227 -0.0025 -0.1790 -0.3753
  124SOPE  H12A13183   0.565   4.653   2.176  1.0300  1.9662  0.9149
  124SOPE  H12B13184   0.694   4.525   2.153 -0.7704 -0.7941 -0.4942
  124SOPE   C1113185   0.734   4.653   2.328 -0.1331  0.7806  0.5368
  124SOPE  H11A13186   0.809   4.716   2.277 -0.9879  0.0959 -1.6580
  124SOPE  H11B13187   0.790   4.562   2.360 -0.8754 -0.1121 -0.6218
  124SOPE     P13188   0.600   4.861   2.424 -0.1216 -0.3096 -0.2384
  124SOPE   O1313189   0.454   4.852   2.391 -0.4626 -0.3056 -0.5295
  124SOPE   O1413190   0.678   4.932   2.318  0.4114 -0.1874  0.3442
  124SOPE   O1213191   0.668   4.719   2.437  0.5035 -0.2524 -0.0510
  124SOPE   O1113192   0.621   4.943   2.566  0.0194 -0.9892  0.8128
  124SOPE    C113193   0.542   4.891   2.678  0.8803 -0.6813 -0.0473
  124SOPE    HA13194   0.590   4.802   2.724  1.6789 -0.0404  0.3628
  124SOPE    HB13195   0.437   4.865   2.648  1.0524  0.3815 -1.7094
  124SOPE    C213196   0.510   4.999   2.784  0.3651  0.1364  0.2466
  124SOPE    HS13197   0.460   5.078   2.723  1.4024  1.7439  1.3881
  124SOPE   O2113198   0.629   5.038   2.846 -0.7130  0.3630 -0.1102
  124SOPE   C2113199   0.630   5.164   2.892  0.7007 -0.1701  0.2952
  124SOPE   O2213200   0.541   5.249   2.874 -0.1723 -0.5213  0.0617
  124SOPE   C2213201   0.749   5.199   2.976  0.1269  0.0069  0.0922
  124SOPE   H2R13202   0.840   5.152   2.933  1.0865  0.4362  1.5803
  124SOPE   H2S13203   0.720   5.148   3.070 -0.6181  1.0589  0.4530
  124SOPE    C313204   0.402   4.944   2.887 -0.3127 -0.6107 -0.2418
  124SOPE    HX13205   0.307   4.922   2.833 -0.1821  0.1579 -0.7956
  124SOPE    HY13206   0.394   5.032   2.954 -0.8109 -1.1791  0.4612
  124SOPE   O3113207   0.453   4.823   2.950 -0.1703 -0.1830  0.1515
  124SOPE   C3113208   0.500   4.818   3.069 -0.2849 -0.0034  0.3898
  124SOPE   O3213209   0.489   4.907   3.151 -0.2926 -0.5307  0.4821
  124SOPE   C3213210   0.548   4.672   3.088 -0.0001  0.2259 -0.6441
  124SOPE   H2X13211   0.629   4.646   3.018  0.0358 -3.0792  0.4746
  124SOPE   H2Y13212   0.456   4.612   3.074  1.2501 -2.3408  1.3003
  124SOPE   C2313213   0.773   5.347   3.016  0.5462 -0.3837  0.4783
  124SOPE   H3R13214   0.679   5.398   3.045 -0.0363 -0.5011 -1.0938
  124SOPE   H3S13215   0.796   5.398   2.920  0.9318 -0.8850  0.3026
  124SOPE   C2413216   0.861   5.375   3.135 -0.1428  0.0715  0.1562
  124SOPE   H4R13217   0.806   5.326   3.218 -0.1178  1.1332  0.8151
  124SOPE   H4S13218   0.947   5.308   3.112 -0.3585  0.5199 -2.2102
  124SOPE   C2513219   0.898   5.519   3.169 -0.0107  0.1978  0.0262
  124SOPE   H5R13220   0.990   5.542   3.111 -0.4570  1.4212 -0.2370
  124SOPE   H5S13221   0.821   5.592   3.136 -0.0541  0.2124  0.1598
  124SOPE   C2613222   0.918   5.540   3.321  0.8069 -0.5893  0.5293
  124SOPE   H6R13223   0.947   5.644   3.345  0.6537 -1.1692  3.7189
  124SOPE   H6S13224   0.818   5.518   3.362  0.3136  0.6740  0.0522
  124SOPE   C2713225   1.015   5.449   3.401  0.3447 -0.4808 -0.3972
  124SOPE   H7R13226   0.991   5.343   3.376 -1.7294  0.0379 -0.8250
  124SOPE   H7S13227   1.120   5.453   3.364  1.3521 -1.0443  2.1989
  124SOPE   C2813228   1.013   5.468   3.550 -0.1550 -0.1161  0.0702
  124SOPE   H8R13229   0.911   5.464   3.592  0.3267  1.4674  1.4920
  124SOPE   H8S13230   1.051   5.372   3.591  0.8687 -0.1361 -0.8782
  124SOPE   C2913231   1.077   5.598   3.602 -0.5412 -0.5128  0.4552
  124SOPE   H9113232   1.068   5.681   3.530  2.2998  0.0529  0.6290
  124SOPE  C21013233   1.147   5.617   3.717  0.5724  0.3800 -0.0299
  124SOPE  H10113234   1.175   5.716   3.755  1.2385  0.1615  0.0674
  124SOPE  C21113235   1.183   5.510   3.818 -0.5216  0.1322  0.0894
  124SOPE  H11R13236   1.284   5.537   3.856 -0.0567 -0.6423 -0.5643
  124SOPE  H11S13237   1.176   5.407   3.779  0.0701 -0.6459  1.9294
  124SOPE  C21213238   1.093   5.515   3.951  0.1230  0.8458 -0.3658
  124SOPE  H12R13239   1.132   5.442   4.024  0.0051  0.7874 -0.3599
  124SOPE  H12S13240   0.990   5.486   3.920 -0.1037  0.3506  0.8144
  124SOPE  C21313241   1.084   5.644   4.020 -0.3457 -0.2326 -0.0154
  124SOPE  H13R13242   1.059   5.726   3.949  0.4288 -0.4453 -0.5528
  124SOPE  H13S13243   1.188   5.663   4.055  0.6146  1.3204 -3.3096
  124SOPE  C21413244   0.988   5.643   4.139 -0.0585  0.2180  0.4047
  124SOPE  H14R13245   0.892   5.620   4.090  0.7097 -1.8866 -0.2261
  124SOPE  H14S13246   0.994   5.750   4.166  0.8232  0.1408  0.5642
  124SOPE  C21513247   1.026   5.545   4.252  0.0627 -0.2900 -0.3930
  124SOPE  H15R13248   1.135   5.552   4.268 -0.1267 -1.7819  1.9948
  124SOPE  H15S13249   1.002   5.438   4.239 -1.1149 -0.0530 -0.3202
  124SOPE  C21613250   0.955   5.585   4.384  0.0022 -0.1467 -0.1204
  124SOPE  H16R13251   0.849   5.572   4.350 -0.1024 -0.3484  0.2815
  124SOPE  H16S13252   0.968   5.694   4.400 -0.0530 -0.0374 -0.7701
  124SOPE  C21713253   0.989   5.511   4.508 -0.4467 -0.1798  0.0637
  124SOPE  H17R13254   1.094   5.522   4.543 -0.6545 -2.3451  1.6003
  124SOPE  H17S13255   0.964   5.410   4.468  0.7859  0.1059 -1.4924
  124SOPE  C21813256   0.893   5.542   4.628  0.0406 -0.0463 -0.3468
  124SOPE  H18R13257   0.927   5.474   4.709 -1.2696  1.7312  1.7971
  124SOPE  H18S13258   0.788   5.525   4.596 -0.1067  1.4395 -0.6984
  124SOPE  H18T13259   0.922   5.641   4.666  0.3200 -0.7261  1.2918
  124SOPE   C3313260   0.587   4.656   3.239 -0.2046  0.4219  0.2352
  124SOPE   H3X13261   0.511   4.703   3.305 -0.2713 -0.1080  0.5470
  124SOPE   H3Y13262   0.685   4.703   3.259 -0.0580  0.9033 -1.4506
  124SOPE   C3413263   0.606   4.502   3.257 -0.0680 -0.5575  0.4351
  124SOPE   H4X13264   0.631   4.465   3.155  0.8625 -0.9527  0.7943
  124SOPE   H4Y13265   0.504   4.459   3.267 -0.5849  0.2027 -1.3176
  124SOPE   C3513266   0.695   4.447   3.366  0.7986 -0.3514  1.0833
  124SOPE   H5X13267   0.786   4.510   3.363  0.7974 -0.3755  0.5963
  124SOPE   H5Y13268   0.716   4.338   3.359 -0.8655 -0.6015 -1.0621
  124SOPE   C3613269   0.636   4.467   3.505 -0.1235 -0.2421  0.5854
  124SOPE   H6X13270   0.530   4.435   3.500 -0.2377  0.1926  0.0836
  124SOPE   H6Y13271   0.639   4.578   3.517 -1.7708  0.0251 -1.0681
  124SOPE   C3713272   0.712   4.393   3.616 -0.0162 -0.5965  0.2966
  124SOPE   H7X13273   0.814   4.433   3.597 -0.6106  0.5747 -0.6023
  124SOPE   H7Y13274   0.714   4.282   3.610  0.9771 -0.5848  0.2217
  124SOPE   C3813275   0.655   4.436   3.752  0.0303  0.1627 -0.7777
  124SOPE   H8X13276   0.559   4.383   3.767  0.4700 -0.5084 -0.2955
  124SOPE   H8Y13277   0.634   4.545   3.753  1.2230  0.3997 -0.0082
  124SOPE   C3913278   0.722   4.402   3.889  0.5132  0.5627 -0.3152
  124SOPE   H9X13279   0.822   4.451   3.886 -0.6041  2.9459 -1.9544
  124SOPE   H9Y13280   0.739   4.292   3.894 -0.2863  0.4648  0.7792
  124SOPE  C31013281   0.635   4.452   4.000  0.1535 -0.5194 -0.4111
  124SOPE  H10X13282   0.536   4.402   4.003 -0.5121  0.6799 -1.5622
  124SOPE  H10Y13283   0.617   4.559   3.975 -0.7659 -0.1280  1.6446
  124SOPE  C31113284   0.706   4.433   4.134  0.1547  0.2701  0.1749
  124SOPE  H11X13285   0.727   4.324   4.128 -3.2674 -0.4868  0.1833
  124SOPE  H11Y13286   0.654   4.453   4.229  1.3722  0.7154  0.7741
  124SOPE  C31213287   0.841   4.515   4.147  0.3916 -0.1114  0.4516
  124SOPE  H12X13288   0.816   4.623   4.154  2.0364  0.3593 -0.3764
  124SOPE  H12Y13289   0.910   4.503   4.061 -0.0513 -0.6050  0.1594
  124SOPE  C31313290   0.898   4.479   4.291  0.4832 -0.2582 -0.0746
  124SOPE  H13X13291   0.912   4.371   4.313  1.1693 -0.3325 -0.8016
  124SOPE  H13Y13292   0.820   4.512   4.363 -0.3174  0.8908 -1.4206
  124SOPE  C31413293   1.023   4.565   4.322 -0.2013 -0.3541  0.0082
  124SOPE  H14X13294   0.995   4.672   4.308 -0.4980 -0.0830  2.3428
  124SOPE  H14Y13295   1.091   4.533   4.240 -1.1645  1.9381 -1.8251
  124SOPE  C31513296   1.084   4.554   4.456  0.1503 -0.0120 -0.3666
  124SOPE  H15X13297   1.172   4.622   4.450  0.1925  0.3078  2.3281
  124SOPE  H15Y13298   1.120   4.451   4.476  0.4323 -0.0675 -1.1609
  124SOPE  C31613299   0.988   4.586   4.570  0.1983 -0.5171 -1.4168
  124SOPE  H16X13300   0.916   4.504   4.594  1.2602 -0.3949  3.1137
  124SOPE  H16Y13301   0.932   4.678   4.544  0.1884 -0.4566 -1.1837
  124SOPE  C31713302   1.055   4.614   4.710  0.4290 -0.1365  0.1736
  124SOPE  H17X13303   1.134   4.691   4.693  1.7022 -0.7878  2.6674
  124SOPE  H17Y13304   1.104   4.523   4.750  0.4422 -0.8178 -1.3351
  124SOPE  C31813305   0.952   4.662   4.818  0.0317 -0.0988 -0.3695
  124SOPE  H18X13306   0.995   4.645   4.919 -0.1422 -1.3951 -0.4992
  124SOPE  H18Y13307   0.854   4.613   4.797 -0.3439  0.7476 -0.6360
  124SOPE  H18Z13308   0.935   4.770   4.801  0.4115  0.3139  1.6116
  125SOPE     N13309   1.230   0.104   2.804 -0.5164  0.8863  0.2321
  125SOPE   HN113310   1.246   0.179   2.733 -1.7590 -0.2273 -1.3145
  125SOPE   HN213311   1.136   0.064   2.785  0.5505 -1.6711 -0.0510
  125SOPE   HN313312   1.245   0.134   2.902 -0.6914  1.5864  0.0551
  125SOPE   C1213313   1.320  -0.010   2.785 -0.1449  0.0514 -0.3803
  125SOPE  H12A13314   1.424   0.023   2.762 -1.1139  3.4840 -0.2767
  125SOPE  H12B13315   1.294  -0.062   2.690  0.8658 -1.5955  0.1953
  125SOPE   C1113316   1.310  -0.108   2.907 -0.6128 -0.1044 -0.0961
  125SOPE  H11A13317   1.312  -0.047   3.000 -0.8901 -0.1394 -0.0658
  125SOPE  H11B13318   1.398  -0.176   2.901 -1.3962 -1.3811  1.7590
  125SOPE     P13319   1.172  -0.324   2.843 -0.6858  0.2233 -0.3731
  125SOPE   O1313320   1.204  -0.324   2.701  0.3885 -0.2461  0.5381
  125SOPE   O1413321   1.035  -0.378   2.874 -0.2427 -0.2665  0.1061
  125SOPE   O1213322   1.184  -0.182   2.913 -0.2878  0.4760  0.1502
  125SOPE   O1113323   1.281  -0.408   2.919  0.0558  0.0493 -0.2167
  125SOPE    C113324   1.265  -0.424   3.060  0.0886 -0.0445 -0.4499
  125SOPE    HA13325   1.188  -0.497   3.095  0.2978  0.1815  0.5324
  125SOPE    HB13326   1.261  -0.330   3.118  0.7392 -0.7274  0.7421
  125SOPE    C213327   1.395  -0.486   3.121  0.1980 -0.0030  0.1311
  125SOPE    HS13328   1.398  -0.590   3.082 -2.2125 -0.2300  0.4176
  125SOPE   O2113329   1.368  -0.486   3.264  0.5304  0.5329  0.0909
  125SOPE   C2113330   1.421  -0.573   3.340 -0.6300  0.5572  0.9118
  125SOPE   O2213331   1.503  -0.657   3.305 -0.1205  0.2788 -0.0866
  125SOPE   C2213332   1.370  -0.545   3.477  0.6315 -0.4480 -0.4160
  125SOPE   H2R13333   1.275  -0.487   3.482  0.2974 -0.9343 -0.9704
  125SOPE   H2S13334   1.448  -0.488   3.531 -1.1413  2.8918 -1.0974
  125SOPE    C313335   1.528  -0.411   3.087 -0.3247  0.8108  0.1782
  125SOPE    HX13336   1.532  -0.409   2.976  1.4424  0.2378  0.2047
  125SOPE    HY13337   1.615  -0.469   3.124 -2.1192 -0.9168  1.9213
  125SOPE   O3113338   1.528  -0.275   3.126 -0.0319 -0.2743  0.1521
  125SOPE   C3113339   1.642  -0.236   3.187  0.7124  0.0006 -0.1183
  125SOPE   O3213340   1.740  -0.302   3.213  0.1506  0.7778  0.1470
  125SOPE   C3213341   1.629  -0.092   3.223  0.1715 -0.2822  0.4335
  125SOPE   H2X13342   1.597  -0.048   3.126 -1.9719 -1.1237  0.7060
  125SOPE   H2Y13343   1.729  -0.051   3.252 -0.7657  0.7039  2.4746
  125SOPE   C2313344   1.335  -0.668   3.564 -0.6719 -0.7748  0.3151
  125SOPE   H3R13345   1.415  -0.743   3.575 -1.5671 -1.5730  1.5312
  125SOPE   H3S13346   1.252  -0.724   3.516 -1.4463  0.7749 -0.2323
  125SOPE   C2413347   1.298  -0.629   3.710  0.0509 -0.4843  0.1602
  125SOPE   H4R13348   1.392  -0.579   3.743 -1.3933  1.7096  1.1869
  125SOPE   H4S13349   1.205  -0.568   3.709  0.3252  0.0460  2.3235
  125SOPE   C2513350   1.284  -0.753   3.802  0.4116  0.1014 -0.0714
  125SOPE   H5R13351   1.225  -0.826   3.743  0.6772 -3.0178  3.1456
  125SOPE   H5S13352   1.383  -0.803   3.815  1.6871  2.0130 -1.8575
  125SOPE   C2613353   1.220  -0.710   3.928 -0.5537 -0.1203 -0.4644
  125SOPE   H6R13354   1.284  -0.632   3.974 -0.0671  0.2654 -1.7591
  125SOPE   H6S13355   1.126  -0.653   3.912  0.5988  1.2336 -2.9183
  125SOPE   C2713356   1.201  -0.822   4.034  0.6157 -0.0325 -0.0483
  125SOPE   H7R13357   1.126  -0.896   3.999 -0.0304  0.8786 -0.6299
  125SOPE   H7S13358   1.293  -0.884   4.045  1.0224  0.3401 -1.2068
  125SOPE   C2813359   1.152  -0.775   4.175  0.8981 -0.1186  0.0606
  125SOPE   H8R13360   1.082  -0.691   4.156  1.6247  0.1792 -1.4564
  125SOPE   H8S13361   1.093  -0.858   4.219  1.4867 -1.0453 -0.8436
  125SOPE   C2913362   1.265  -0.734   4.263  0.5236  0.1142  0.2891
  125SOPE   H9113363   1.295  -0.632   4.235 -0.6925 -0.1260 -2.1591
  125SOPE  C21013364   1.336  -0.808   4.351 -0.7855  0.0584  0.5257
  125SOPE  H10113365   1.415  -0.759   4.411  0.4608 -1.1888 -0.0468
  125SOPE  C21113366   1.313  -0.946   4.392  0.3225 -0.1032 -0.4462
  125SOPE  H11R13367   1.410  -1.000   4.382 -0.2020 -1.2201  0.2988
  125SOPE  H11S13368   1.237  -0.997   4.328 -0.0924  0.3436 -0.3151
  125SOPE  C21213369   1.267  -0.969   4.541 -0.1119  0.0090 -0.2306
  125SOPE  H12R13370   1.357  -0.958   4.605 -1.1157 -2.1571  1.6861
  125SOPE  H12S13371   1.245  -1.075   4.566  0.0097 -0.0387 -0.3224
  125SOPE  C21313372   1.157  -0.877   4.584  1.3936 -1.1415  0.5470
  125SOPE  H13R13373   1.067  -0.884   4.519 -0.1549  0.3796  2.4068
  125SOPE  H13S13374   1.196  -0.773   4.572 -0.7787 -0.5342 -2.4201
  125SOPE  C21413375   1.118  -0.920   4.720 -0.3458 -0.2693  0.1277
  125SOPE  H14R13376   1.085  -1.026   4.721 -1.7901  0.1612 -0.0975
  125SOPE  H14S13377   1.032  -0.863   4.761 -1.6877 -0.6549 -2.0013
  125SOPE  C21513378   1.232  -0.927   4.827  0.3845 -0.5139 -0.0082
  125SOPE  H15R13379   1.301  -0.844   4.800 -2.2914  1.5963 -0.7558
  125SOPE  H15S13380   1.293  -1.018   4.808  2.0601 -0.0218  2.5012
  125SOPE  C21613381   1.204  -0.909   4.973  0.3957  0.2823 -0.0358
  125SOPE  H16R13382   1.126  -0.830   4.983 -1.7700 -1.9054  1.6409
  125SOPE  H16S13383   1.298  -0.886   5.026 -1.0914 -0.0872  2.9671
  125SOPE  C21713384   1.153  -1.046   5.040  0.3511 -0.4564  0.0352
  125SOPE  H17R13385   1.207  -1.129   4.991 -1.3753 -0.7219 -1.5632
  125SOPE  H17S13386   1.044  -1.067   5.028  0.3081 -0.5935  0.6510
  125SOPE  C21813387   1.195  -1.050   5.188  0.3074  0.0931 -0.7910
  125SOPE  H18R13388   1.304  -1.037   5.200  0.4761 -0.0269 -2.0647
  125SOPE  H18S13389   1.159  -1.148   5.226  0.1879  0.3391 -0.2672
  125SOPE  H18T13390   1.151  -0.963   5.242  0.1228 -0.8295  0.5949
  125SOPE   C3313391   1.512  -0.045   3.310 -0.4909  0.7291  0.5352
  125SOPE   H3X13392   1.429  -0.112   3.279  1.7941 -1.0676 -2.3364
  125SOPE   H3Y13393   1.490   0.060   3.281 -0.5392  0.1645 -1.6899
  125SOPE   C3413394   1.519  -0.050   3.465  0.3065 -0.3224  0.2992
  125SOPE   H4X13395   1.415  -0.041   3.504  0.0450 -3.1164  0.4816
  125SOPE   H4Y13396   1.582   0.034   3.499  0.9164 -1.0490  1.0089
  125SOPE   C3513397   1.563  -0.187   3.521  0.0330 -0.0767 -0.1777
  125SOPE   H5X13398   1.667  -0.200   3.485  1.8971 -2.7075  5.0787
  125SOPE   H5Y13399   1.496  -0.266   3.482 -1.4439  0.9668  0.1439
  125SOPE   C3613400   1.557  -0.188   3.672  0.3869  0.2306  0.4669
  125SOPE   H6X13401   1.539  -0.087   3.713 -3.5252  0.1369 -0.5401
  125SOPE   H6Y13402   1.655  -0.224   3.710  0.6532 -1.3892 -1.5102
  125SOPE   C3713403   1.444  -0.274   3.728  0.0972 -0.3619 -0.3540
  125SOPE   H7X13404   1.472  -0.381   3.720  1.0874 -0.0800 -0.9124
  125SOPE   H7Y13405   1.349  -0.255   3.673  0.3122  0.9293 -0.3150
  125SOPE   C3813406   1.423  -0.247   3.877 -0.0220  0.6222 -1.1719
  125SOPE   H8X13407   1.395  -0.142   3.902  2.0702  1.8349 -3.5618
  125SOPE   H8Y13408   1.524  -0.263   3.922 -0.7919  0.4202  0.5993
  125SOPE   C3913409   1.317  -0.337   3.947  1.2966  0.4566 -0.1892
  125SOPE   H9X13410   1.358  -0.441   3.942  2.2388  0.7283  1.1553
  125SOPE   H9Y13411   1.225  -0.327   3.887  0.0278 -1.3736  1.3288
  125SOPE  C31013412   1.293  -0.313   4.091 -0.4530  0.4202 -1.4180
  125SOPE  H10X13413   1.322  -0.209   4.120  0.4787  0.0106 -0.8437
  125SOPE  H10Y13414   1.368  -0.376   4.142 -1.6059 -0.2013 -0.4368
  125SOPE  C31113415   1.156  -0.354   4.142 -0.5045 -0.1814 -0.1465
  125SOPE  H11X13416   1.137  -0.458   4.111  1.4842 -0.9145  0.8874
  125SOPE  H11Y13417   1.085  -0.279   4.102 -1.1398 -0.6069  0.1775
  125SOPE  C31213418   1.157  -0.343   4.291 -0.3541  0.0917  0.0399
  125SOPE  H12X13419   1.178  -0.244   4.336  0.1103  0.3236 -0.6660
  125SOPE  H12Y13420   1.231  -0.414   4.333  0.3584 -0.6229 -2.2690
  125SOPE  C31313421   1.018  -0.379   4.350 -0.6090  0.0358 -0.1753
  125SOPE  H13X13422   1.001  -0.487   4.335  1.5694 -0.6865  1.8674
  125SOPE  H13Y13423   0.937  -0.325   4.296  0.0520  0.8910 -0.3454
  125SOPE  C31413424   1.012  -0.349   4.502  0.7083 -0.4309  0.3407
  125SOPE  H14X13425   0.905  -0.365   4.528  0.4916  0.8411  0.2833
  125SOPE  H14Y13426   1.039  -0.243   4.521  0.2717 -0.0329 -1.0864
  125SOPE  C31513427   1.089  -0.443   4.592  0.3192 -0.7010 -0.7402
  125SOPE  H15X13428   1.199  -0.442   4.576  0.2966 -1.2443 -0.9440
  125SOPE  H15Y13429   1.058  -0.546   4.566 -0.0669 -0.4817 -1.1702
  125SOPE  C31613430   1.062  -0.407   4.736 -0.0283  0.2454  0.0486
  125SOPE  H16X13431   0.956  -0.410   4.769 -0.5400  1.3899 -1.3786
  125SOPE  H16Y13432   1.102  -0.305   4.752  1.5769 -0.1388 -1.1471
  125SOPE  C31713433   1.147  -0.505   4.825 -0.9289  0.7424  0.1112
  125SOPE  H17X13434   1.234  -0.551   4.773  0.1522 -0.0273  2.4105
  125SOPE  H17Y13435   1.076  -0.584   4.859 -2.4471  2.7733  1.9551
  125SOPE  C31813436   1.194  -0.439   4.958  0.8138 -0.2781  0.4853
  125SOPE  H18X13437   1.279  -0.369   4.942 -0.3524  1.0363 -0.1852
  125SOPE  H18Y13438   1.214  -0.521   5.030  1.5094  1.6687  2.6410
  125SOPE  H18Z13439   1.105  -0.379   4.989  0.0654  0.1470 -2.2398
  126SOPE     N13440   3.688   2.650   2.165 -0.7570  0.2336 -0.1209
  126SOPE   HN113441   3.597   2.638   2.215 -0.9618  1.3397 -0.2210
  126SOPE   HN213442   3.664   2.700   2.078 -0.8429 -0.1221 -0.3025
  126SOPE   HN313443   3.727   2.558   2.135 -2.8670 -0.8985  0.3838
  126SOPE   C1213444   3.785   2.739   2.248 -0.1961  0.9770 -0.4372
  126SOPE  H12A13445   3.886   2.734   2.203 -0.4871 -1.1926 -0.9762
  126SOPE  H12B13446   3.795   2.700   2.352 -2.6959  2.1757  0.3228
  126SOPE   C1113447   3.744   2.884   2.233 -0.4768 -0.3109 -0.4258
  126SOPE  H11A13448   3.771   2.919   2.132 -0.5052  0.7321 -0.0869
  126SOPE  H11B13449   3.810   2.942   2.302  0.4338 -0.7605 -0.9023
  126SOPE     P13450   3.525   3.020   2.295  0.3562  0.2410  0.2958
  126SOPE   O1313451   3.380   2.989   2.295 -0.0026 -0.6169  0.8203
  126SOPE   O1413452   3.566   3.137   2.217 -0.3459  0.2008  0.0979
  126SOPE   O1213453   3.602   2.891   2.256 -0.0071  0.0681  0.5531
  126SOPE   O1113454   3.568   3.043   2.439  0.3259  0.3504  0.2427
  126SOPE    C113455   3.581   2.935   2.537  0.0686  0.3146 -0.0561
  126SOPE    HA13456   3.688   2.905   2.547  0.1819  0.5186 -0.6208
  126SOPE    HB13457   3.515   2.847   2.520  1.2610 -0.8616  1.1093
  126SOPE    C213458   3.528   2.986   2.677  0.0566  0.4305 -0.6946
  126SOPE    HS13459   3.429   3.031   2.654  0.6478  1.8001 -0.6527
  126SOPE   O2113460   3.604   3.090   2.750 -0.0503  1.1065  0.0890
  126SOPE   C2113461   3.580   3.212   2.717  0.5872  0.7432  1.3364
  126SOPE   O2213462   3.510   3.254   2.625 -0.4354  0.1216 -0.3091
  126SOPE   C2213463   3.632   3.304   2.821 -0.8209 -0.1888 -0.3209
  126SOPE   H2R13464   3.641   3.405   2.777 -2.2981 -0.3220 -0.9812
  126SOPE   H2S13465   3.729   3.271   2.864 -1.1857 -2.8098 -1.3025
  126SOPE    C313466   3.494   2.865   2.773 -1.0167  0.2845 -0.1298
  126SOPE    HX13467   3.597   2.844   2.808 -0.5105  0.0968 -1.6755
  126SOPE    HY13468   3.458   2.775   2.720  0.2982 -0.5841  0.4186
  126SOPE   O3113469   3.400   2.901   2.874  0.2022 -0.0313  0.5097
  126SOPE   C3113470   3.459   2.921   2.991  0.6622  0.4219 -0.4430
  126SOPE   O3213471   3.575   2.896   3.020 -0.4304  0.3017 -0.1930
  126SOPE   C3213472   3.351   2.981   3.079 -0.0054 -0.0160 -0.5248
  126SOPE   H2X13473   3.276   3.038   3.020 -1.0760 -2.1778 -1.3908
  126SOPE   H2Y13474   3.400   3.055   3.145 -0.0986 -0.4815  0.0770
  126SOPE   C2313475   3.518   3.318   2.930  0.4446 -0.0964  0.3788
  126SOPE   H3R13476   3.478   3.219   2.961 -1.6274  0.6666  0.3244
  126SOPE   H3S13477   3.429   3.369   2.885 -0.0479  0.1623  1.6062
  126SOPE   C2413478   3.573   3.406   3.036  0.2219  0.5633 -0.7531
  126SOPE   H4R13479   3.679   3.392   3.064  0.0777  0.4120 -0.2726
  126SOPE   H4S13480   3.581   3.505   2.987  0.3118  1.2349  0.5739
  126SOPE   C2513481   3.507   3.420   3.173 -0.1141  0.7069 -0.1557
  126SOPE   H5R13482   3.404   3.461   3.167  0.1812  1.4133 -0.5228
  126SOPE   H5S13483   3.501   3.315   3.208 -0.4399  1.0397  0.8272
  126SOPE   C2613484   3.592   3.510   3.264  0.0413 -0.6713  1.0014
  126SOPE   H6R13485   3.700   3.484   3.260  0.0497 -0.5928  0.6778
  126SOPE   H6S13486   3.575   3.618   3.248  0.5031 -0.7110  0.2038
  126SOPE   C2713487   3.538   3.495   3.408 -0.0323  0.4083 -0.8085
  126SOPE   H7R13488   3.452   3.425   3.419 -0.9677  1.5298 -0.8137
  126SOPE   H7S13489   3.617   3.450   3.473 -0.5809 -0.1554 -0.5220
  126SOPE   C2813490   3.500   3.630   3.472  0.1811  0.8413 -0.0890
  126SOPE   H8R13491   3.575   3.707   3.444 -0.8301  2.7286  2.1122
  126SOPE   H8S13492   3.401   3.662   3.433 -1.0368 -1.0286  1.2831
  126SOPE   C2913493   3.515   3.628   3.620 -0.0861 -0.7076  0.2114
  126SOPE   H9113494   3.622   3.621   3.645  0.2343  0.1259 -0.8268
  126SOPE  C21013495   3.419   3.645   3.720 -0.2826  0.4875  0.0459
  126SOPE  H10113496   3.459   3.634   3.822 -0.0565  0.6067 -0.0309
  126SOPE  C21113497   3.275   3.666   3.706  0.2493  0.0881  0.0732
  126SOPE  H11R13498   3.256   3.684   3.598 -1.7002 -0.3789  0.3037
  126SOPE  H11S13499   3.237   3.755   3.762 -1.2716 -0.5387  0.0875
  126SOPE  C21213500   3.206   3.536   3.763 -0.5056 -0.1528 -0.9646
  126SOPE  H12R13501   3.236   3.440   3.717 -0.9746 -0.8104  0.0650
  126SOPE  H12S13502   3.098   3.553   3.742 -0.2797 -1.0303 -3.0481
  126SOPE  C21313503   3.231   3.519   3.913  0.7621 -0.9121 -0.7652
  126SOPE  H13R13504   3.206   3.613   3.968 -1.2729 -0.5959 -2.1195
  126SOPE  H13S13505   3.334   3.484   3.934  0.8360  0.4051  1.4413
  126SOPE  C21413506   3.133   3.412   3.978 -0.3223 -0.2817 -0.2957
  126SOPE  H14R13507   3.152   3.314   3.928  0.4542 -0.5560  0.5269
  126SOPE  H14S13508   3.031   3.434   3.939 -0.1631  1.3986  0.1627
  126SOPE  C21513509   3.125   3.393   4.129 -0.5868  0.3881 -0.0078
  126SOPE  H15R13510   3.221   3.351   4.167 -0.6768 -0.5225 -0.7523
  126SOPE  H15S13511   3.050   3.315   4.152  0.1589 -0.7474 -1.2798
  126SOPE  C21613512   3.098   3.517   4.215  0.2636  0.0596 -0.4960
  126SOPE  H16R13513   3.176   3.595   4.199  0.6990  0.6491  3.6248
  126SOPE  H16S13514   3.100   3.483   4.320 -0.4632  3.0096  0.5704
  126SOPE  C21713515   2.959   3.578   4.196 -0.0333 -0.5944 -0.7280
  126SOPE  H17R13516   2.961   3.626   4.095  2.0859 -1.8277 -1.3396
  126SOPE  H17S13517   2.950   3.648   4.282 -0.1466 -3.1964  1.5207
  126SOPE  C21813518   2.846   3.478   4.214 -0.8402  0.2656 -0.1911
  126SOPE  H18R13519   2.749   3.532   4.208 -1.4174 -0.8255 -0.9717
  126SOPE  H18S13520   2.852   3.409   4.301 -1.0144 -0.8526 -1.0390
  126SOPE  H18T13521   2.840   3.416   4.122  2.8578 -0.0765 -0.3359
  126SOPE   C3313522   3.274   2.874   3.163 -0.1793  0.2314 -0.6848
  126SOPE   H3X13523   3.354   2.803   3.191 -0.0825 -0.2087 -2.0191
  126SOPE   H3Y13524   3.204   2.820   3.097  2.3942 -1.7098 -1.9938
  126SOPE   C3413525   3.208   2.940   3.286  0.0639 -0.0959 -0.2770
  126SOPE   H4X13526   3.136   3.019   3.257 -1.0195  0.1006  2.6221
  126SOPE   H4Y13527   3.293   2.980   3.344  0.2129 -1.4677  0.5164
  126SOPE   C3513528   3.136   2.842   3.381  0.1685  0.4952  0.5067
  126SOPE   H5X13529   3.177   2.740   3.364  1.3382  1.3975 -3.0475
  126SOPE   H5Y13530   3.035   2.820   3.340 -0.2623  1.0750  1.2230
  126SOPE   C3613531   3.134   2.884   3.529  0.9177 -0.0434  0.0209
  126SOPE   H6X13532   3.118   2.994   3.530 -0.7290 -0.2548  0.3149
  126SOPE   H6Y13533   3.234   2.859   3.571  2.1639  4.0851 -0.0940
  126SOPE   C3713534   3.017   2.818   3.612 -0.5224  0.0236  0.3050
  126SOPE   H7X13535   3.010   2.710   3.584 -4.2224  0.5545 -1.5110
  126SOPE   H7Y13536   2.919   2.849   3.569  0.3183  0.4104 -1.4391
  126SOPE   C3813537   3.018   2.843   3.764  0.1976  0.2567 -0.2141
  126SOPE   H8X13538   2.925   2.798   3.806  0.2893  2.2822  2.4491
  126SOPE   H8Y13539   3.013   2.953   3.779 -0.5986  0.0258  1.5214
  126SOPE   C3913540   3.142   2.790   3.834 -0.5062  0.6197 -1.2560
  126SOPE   H9X13541   3.234   2.816   3.778  2.3740 -2.4960  1.5522
  126SOPE   H9Y13542   3.138   2.679   3.832  2.5192  0.4303 -2.1860
  126SOPE  C31013543   3.150   2.815   3.981 -0.0944  0.9655 -0.5943
  126SOPE  H10X13544   3.243   2.759   4.003  0.7767  1.7750 -1.9993
  126SOPE  H10Y13545   3.063   2.774   4.035  0.5437 -1.4304 -1.2876
  126SOPE  C31113546   3.162   2.956   4.030  0.4159 -0.3668 -1.2355
  126SOPE  H11X13547   3.058   2.995   4.035  1.4350  2.4542 -0.5787
  126SOPE  H11Y13548   3.215   3.019   3.956 -3.9837  0.7213 -3.8406
  126SOPE  C31213549   3.212   2.968   4.178  0.1520  0.1877 -0.2336
  126SOPE  H12X13550   3.205   3.074   4.209 -2.7426 -0.5020  1.9735
  126SOPE  H12Y13551   3.319   2.940   4.192  0.0836 -0.9808 -1.8589
  126SOPE  C31313552   3.122   2.898   4.279  0.2986 -0.6055  0.1955
  126SOPE  H13X13553   3.156   2.794   4.297 -0.2728 -0.7380  0.5243
  126SOPE  H13Y13554   3.018   2.892   4.239  0.4759  1.2763 -0.6900
  126SOPE  C31413555   3.118   2.957   4.421 -0.1288  0.0532 -0.8506
  126SOPE  H14X13556   3.223   2.988   4.436  0.3969 -2.5488  1.6108
  126SOPE  H14Y13557   3.090   2.878   4.494 -0.0345  2.0026  1.4427
  126SOPE  C31513558   3.030   3.080   4.428 -0.2321  0.0910 -0.4041
  126SOPE  H15X13559   2.927   3.056   4.397 -0.0048  0.4873 -1.4877
  126SOPE  H15Y13560   3.071   3.167   4.372  0.1760 -0.4597 -0.9693
  126SOPE  C31613561   3.031   3.141   4.574  0.1084  0.5396  0.1611
  126SOPE  H16X13562   3.132   3.164   4.614  0.1843  1.3905 -0.4871
  126SOPE  H16Y13563   2.976   3.071   4.640  0.3360  1.0077  0.8450
  126SOPE  C31713564   2.952   3.266   4.569 -0.2637 -0.0560 -0.2843
  126SOPE  H17X13565   3.004   3.333   4.498  2.0515 -2.7216 -1.3118
  126SOPE  H17Y13566   2.962   3.307   4.671 -3.4360  0.2147  0.0068
  126SOPE  C31813567   2.800   3.265   4.539  0.1207 -0.0998  0.7606
  126SOPE  H18X13568   2.738   3.215   4.617 -2.0452 -1.4377 -1.6959
  126SOPE  H18Y13569   2.777   3.225   4.439  3.0533  1.5330 -0.7192
  126SOPE  H18Z13570   2.773   3.373   4.532 -0.2619 -0.2846 -0.8348
  127SOPE     N13571   5.374   4.113   2.826  0.4443 -0.0710  0.2450
  127SOPE   HN113572   5.320   4.157   2.749 -0.9579 -0.3039  1.0672
  127SOPE   HN213573   5.441   4.173   2.878  0.0236 -0.3474  1.1243
  127SOPE   HN313574   5.438   4.048   2.775 -0.0481 -0.1710 -0.2560
  127SOPE   C1213575   5.280   4.035   2.920 -0.2158 -0.1934  0.2417
  127SOPE  H12A13576   5.203   3.978   2.864 -0.1333  0.0392 -0.1126
  127SOPE  H12B13577   5.219   4.104   2.982 -2.6014  0.2082 -2.3235
  127SOPE   C1113578   5.356   3.924   2.994  0.1816 -0.0667  1.0189
  127SOPE  H11A13579   5.285   3.892   3.073 -0.7455  1.2444  0.7331
  127SOPE  H11B13580   5.438   3.969   3.055 -0.8673 -0.9683  3.2324
  127SOPE     P13581   5.545   3.814   2.831  0.5115 -0.0779  0.0522
  127SOPE   O1313582   5.550   3.927   2.740  0.1189  0.2857  0.1719
  127SOPE   O1413583   5.560   3.674   2.788 -0.1549  0.2433 -0.8769
  127SOPE   O1213584   5.404   3.823   2.905  0.3038  0.4702 -0.0000
  127SOPE   O1113585   5.643   3.848   2.945 -0.6636  0.1094  0.0198
  127SOPE    C113586   5.677   3.766   3.054  0.5246 -0.0234  0.8053
  127SOPE    HA13587   5.778   3.723   3.036  0.8320  1.6650 -2.2750
  127SOPE    HB13588   5.598   3.690   3.069  0.7932 -1.2537 -2.8967
  127SOPE    C213589   5.681   3.852   3.183 -0.0513 -0.5805 -0.4434
  127SOPE    HS13590   5.727   3.782   3.256 -1.5189 -0.7494  0.3724
  127SOPE   O2113591   5.546   3.872   3.231  0.3356  0.6755  0.3192
  127SOPE   C2113592   5.527   3.888   3.366 -0.4323  0.0272  0.2433
  127SOPE   O2213593   5.610   3.882   3.455  0.5690  0.2942 -0.3566
  127SOPE   C2213594   5.384   3.945   3.388  0.2408  0.0346 -0.1989
  127SOPE   H2R13595   5.348   4.013   3.309 -0.7407 -0.3209 -0.0754
  127SOPE   H2S13596   5.388   4.007   3.480  2.1065  0.5759 -0.5973
  127SOPE    C313597   5.757   3.983   3.154 -0.3973  0.4431  0.1061
  127SOPE    HX13598   5.697   4.045   3.085  0.7321 -0.9739 -2.2795
  127SOPE    HY13599   5.840   3.950   3.088 -1.3274 -0.3192 -0.7168
  127SOPE   O3113600   5.806   4.054   3.267  0.0800 -0.1921  0.1838
  127SOPE   C3113601   5.927   4.024   3.313 -0.8321  0.3110 -0.1273
  127SOPE   O3213602   5.997   3.932   3.272  0.1696 -0.8417 -0.3350
  127SOPE   C3213603   5.976   4.124   3.423 -1.0761  0.0042 -0.4518
  127SOPE   H2X13604   5.915   4.217   3.419  1.3438  1.7928  1.5848
  127SOPE   H2Y13605   6.078   4.156   3.396 -1.4722  1.1645 -0.6523
  127SOPE   C2313606   5.278   3.828   3.399 -0.4645 -0.2335 -0.3007
  127SOPE   H3R13607   5.322   3.733   3.360  2.8433  0.8872  0.3744
  127SOPE   H3S13608   5.186   3.854   3.343  0.0717 -0.4997 -1.3447
  127SOPE   C2413609   5.234   3.807   3.544 -0.1390  0.3135  0.1143
  127SOPE   H4R13610   5.216   3.901   3.600  1.2827  0.9130 -0.3807
  127SOPE   H4S13611   5.149   3.736   3.540  1.6478 -1.9137 -0.8622
  127SOPE   C2513612   5.347   3.731   3.613  0.3670 -0.1500 -0.5740
  127SOPE   H5R13613   5.370   3.639   3.555 -0.1172 -1.3572  1.0757
  127SOPE   H5S13614   5.443   3.787   3.602  0.0377  0.3224 -1.1035
  127SOPE   C2613615   5.327   3.687   3.767 -0.1727  0.1372 -0.2464
  127SOPE   H6R13616   5.255   3.603   3.757 -1.1278  0.5971  2.1729
  127SOPE   H6S13617   5.420   3.637   3.798 -0.4737  0.5688  1.4144
  127SOPE   C2713618   5.275   3.785   3.864 -0.2584 -0.2476 -0.0919
  127SOPE   H7R13619   5.324   3.879   3.831  0.7412 -0.7655 -0.1178
  127SOPE   H7S13620   5.170   3.812   3.842 -0.0073 -0.1011 -1.1786
  127SOPE   C2813621   5.287   3.740   4.006  0.6302 -0.5513  0.3842
  127SOPE   H8R13622   5.247   3.822   4.068  0.3173 -0.6819  0.3561
  127SOPE   H8S13623   5.217   3.655   4.020  0.2106 -0.1681  0.6398
  127SOPE   C2913624   5.429   3.715   4.048  0.0402 -0.3045 -0.3004
  127SOPE   H9113625   5.508   3.777   4.003  0.4233 -1.1286 -0.7752
  127SOPE  C21013626   5.459   3.597   4.105 -0.2118 -0.2726 -0.5543
  127SOPE  H10113627   5.565   3.580   4.133  0.1207 -1.0747 -2.1975
  127SOPE  C21113628   5.371   3.485   4.153 -0.0798 -0.0196 -0.7699
  127SOPE  H11R13629   5.419   3.384   4.147 -0.8190 -0.6267  2.2089
  127SOPE  H11S13630   5.270   3.491   4.106 -0.4394  2.2825  0.1707
  127SOPE  C21213631   5.341   3.500   4.299  0.1690 -0.6283  0.0405
  127SOPE  H12R13632   5.283   3.407   4.318 -0.0549 -0.8977 -1.8003
  127SOPE  H12S13633   5.288   3.591   4.335  1.2312 -0.7177  1.9774
  127SOPE  C21313634   5.469   3.478   4.378 -0.0372 -0.2389 -0.1301
  127SOPE  H13R13635   5.534   3.567   4.365  3.8791 -2.7802  0.6224
  127SOPE  H13S13636   5.540   3.404   4.336  0.2626 -0.7839  1.2702
  127SOPE  C21413637   5.447   3.430   4.523 -0.3080 -0.6442 -0.5103
  127SOPE  H14R13638   5.383   3.339   4.532  0.0716 -0.7219  2.7604
  127SOPE  H14S13639   5.382   3.506   4.571  0.1051  0.1541 -1.2044
  127SOPE  C21513640   5.576   3.412   4.594 -0.9599  0.0307  0.4557
  127SOPE  H15R13641   5.625   3.511   4.602 -0.5039 -0.0196 -1.4233
  127SOPE  H15S13642   5.649   3.354   4.534 -1.2529 -2.3206  2.2067
  127SOPE  C21613643   5.572   3.353   4.738  0.3024 -0.1035  0.3263
  127SOPE  H16R13644   5.531   3.250   4.736 -1.0626  0.3587  2.1907
  127SOPE  H16S13645   5.505   3.423   4.791  0.0483 -0.5656  0.6200
  127SOPE  C21713646   5.704   3.355   4.807 -0.0664  0.1023  0.3268
  127SOPE  H17R13647   5.683   3.337   4.914  0.1935 -1.2528  0.1662
  127SOPE  H17S13648   5.747   3.458   4.809  1.5602 -0.5518  1.1661
  127SOPE  C21813649   5.814   3.257   4.758  0.5452 -0.1096  0.5687
  127SOPE  H18R13650   5.905   3.288   4.813  0.0656  2.1443  0.1843
  127SOPE  H18S13651   5.833   3.261   4.648  1.1245  0.7197  0.6957
  127SOPE  H18T13652   5.782   3.153   4.780 -1.4967  0.4825  0.6311
  127SOPE   C3313653   5.981   4.064   3.565  0.3445 -0.0084 -0.0903
  127SOPE   H3X13654   6.048   3.976   3.573  0.0578 -0.1355  1.1993
  127SOPE   H3Y13655   5.876   4.033   3.582  0.1499 -1.7979 -3.6123
  127SOPE   C3413656   6.017   4.171   3.671  0.1336  0.4769  0.4427
  127SOPE   H4X13657   5.933   4.244   3.670 -0.0212  0.4065 -2.5668
  127SOPE   H4Y13658   6.111   4.227   3.649 -0.1289  0.4675 -0.7723
  127SOPE   C3513659   6.027   4.101   3.810  0.3452 -0.0254  0.1783
  127SOPE   H5X13660   6.117   4.036   3.802 -1.0563 -2.0262  0.0303
  127SOPE   H5Y13661   5.944   4.028   3.819  0.3226 -0.1312 -0.7700
  127SOPE   C3613662   6.035   4.206   3.922 -0.4115  0.3639  0.0666
  127SOPE   H6X13663   5.933   4.251   3.917 -1.0921 -1.2324 -1.5684
  127SOPE   H6Y13664   6.115   4.279   3.898  0.4066 -0.3125  0.7076
  127SOPE   C3713665   6.058   4.146   4.062 -0.0362  0.3320  0.2542
  127SOPE   H7X13666   6.158   4.101   4.076 -1.1363 -1.5976  2.7811
  127SOPE   H7Y13667   5.985   4.063   4.074 -0.1825  0.1522 -1.5930
  127SOPE   C3813668   6.023   4.244   4.171  0.4756  0.2530 -0.4653
  127SOPE   H8X13669   5.913   4.260   4.181  0.6449  1.0114  0.3663
  127SOPE   H8Y13670   6.062   4.346   4.153  1.3823  0.1391  0.6892
  127SOPE   C3913671   6.066   4.197   4.314  0.4029 -0.5638 -0.5388
  127SOPE   H9X13672   6.175   4.175   4.312  0.8136  1.2265  0.3463
  127SOPE   H9Y13673   6.004   4.106   4.332 -1.9886  1.0855  0.0009
  127SOPE  C31013674   6.051   4.307   4.424  0.0896  0.7960  0.3513
  127SOPE  H10X13675   5.945   4.339   4.415  0.3286  1.2827 -1.0278
  127SOPE  H10Y13676   6.122   4.388   4.394  2.3617 -0.4614  1.9900
  127SOPE  C31113677   6.082   4.266   4.572  0.0726  0.1119  0.1076
  127SOPE  H11X13678   6.012   4.185   4.602 -0.0580 -0.8619 -2.5620
  127SOPE  H11Y13679   6.069   4.355   4.638 -1.6745 -0.3091  0.3900
  127SOPE  C31213680   6.228   4.228   4.593  0.4173 -0.4929 -0.1821
  127SOPE  H12X13681   6.292   4.304   4.544  1.6282  0.1257  2.2231
  127SOPE  H12Y13682   6.254   4.129   4.548  0.3214  0.5170 -2.5784
  127SOPE  C31313683   6.261   4.226   4.746 -0.0288  0.4027  0.0463
  127SOPE  H13X13684   6.207   4.143   4.796  3.2452 -1.8474  0.1760
  127SOPE  H13Y13685   6.233   4.328   4.780 -0.2294  0.3647 -0.0072
  127SOPE  C31413686   6.420   4.207   4.759 -0.7367 -0.1419  0.1348
  127SOPE  H14X13687   6.483   4.285   4.712 -0.8570  0.6288  1.2050
  127SOPE  H14Y13688   6.447   4.108   4.715 -0.9871  0.4383 -1.3912
  127SOPE  C31513689   6.461   4.187   4.910  0.0254 -0.0989  0.2764
  127SOPE  H15X13690   6.392   4.131   4.977 -1.1619  2.3452  1.2088
  127SOPE  H15Y13691   6.480   4.287   4.954 -0.2904 -0.4236  1.1755
  127SOPE  C31613692   6.595   4.110   4.919  0.2905 -0.3495  0.3608
  127SOPE  H16X13693   6.662   4.176   4.859 -1.2933 -0.4927 -1.6918
  127SOPE  H16Y13694   6.580   4.012   4.868 -1.6064 -0.5065  1.1161
  127SOPE  C31713695   6.640   4.092   5.065  0.0571 -0.1256  0.5104
  127SOPE  H17X13696   6.634   4.191   5.115 -0.2688  0.5614 -0.8666
  127SOPE  H17Y13697   6.749   4.071   5.061 -0.0234 -0.4479 -3.1290
  127SOPE  C31813698   6.563   3.980   5.144  0.3884  0.0943 -0.1278
  127SOPE  H18X13699   6.605   3.884   5.105  0.2124 -2.1049  4.4624
  127SOPE  H18Y13700   6.456   3.986   5.116 -0.2595  1.1726  2.3043
  127SOPE  H18Z13701   6.572   3.971   5.254 -1.5082  1.8326  0.2269
  128SOPE     N13702   2.124   3.007   2.838  0.2492 -0.5279  0.2360
  128SOPE   HN113703   2.161   3.070   2.765 -2.9744  2.1274  0.6714
  128SOPE   HN213704   2.164   2.913   2.817 -0.2882 -0.4937 -1.0072
  128SOPE   HN313705   2.023   3.006   2.816  0.5096  0.0697 -1.0326
  128SOPE   C1213706   2.154   3.066   2.971  0.2518  0.7591 -0.3437
  128SOPE  H12A13707   2.106   3.000   3.045  0.1463  2.9346  1.6366
  128SOPE  H12B13708   2.117   3.171   2.965  2.8157  1.8904  1.5920
  128SOPE   C1113709   2.300   3.074   2.990 -0.4530  0.1332  0.5715
  128SOPE  H11A13710   2.337   2.971   3.010 -0.2158  0.5249  2.3182
  128SOPE  H11B13711   2.339   3.136   3.073  0.3567  0.0705  0.2396
  128SOPE     P13712   2.526   3.126   2.862  0.2817 -0.0987 -0.1028
  128SOPE   O1313713   2.553   3.188   2.732  0.3202  0.0584 -0.3655
  128SOPE   O1413714   2.597   2.998   2.898  0.0665  0.6387  0.4510
  128SOPE   O1213715   2.370   3.110   2.871  0.2385 -0.1852  0.2372
  128SOPE   O1113716   2.559   3.234   2.975  0.0536  1.0796 -0.0554
  128SOPE    C113717   2.477   3.355   2.988 -0.0943 -0.0720  0.6405
  128SOPE    HA13718   2.441   3.373   3.092 -2.1588 -0.6250  0.0581
  128SOPE    HB13719   2.386   3.354   2.926 -0.6113  1.3792  1.3368
  128SOPE    C213720   2.551   3.487   2.966 -0.2069  0.1285 -0.0550
  128SOPE    HS13721   2.625   3.461   2.887  0.1725 -1.7173  0.8425
  128SOPE   O2113722   2.624   3.512   3.089  0.2339 -0.0677  0.0492
  128SOPE   C2113723   2.706   3.616   3.079  0.5996 -0.3682  0.2802
  128SOPE   O2213724   2.739   3.677   2.977  0.0370 -0.1495 -0.6220
  128SOPE   C2213725   2.765   3.649   3.221  0.3579 -0.5635 -0.6750
  128SOPE   H2R13726   2.875   3.650   3.207  0.5178 -1.2357  0.4177
  128SOPE   H2S13727   2.757   3.553   3.277 -1.9841 -0.1367 -0.1981
  128SOPE    C313728   2.449   3.606   2.923  0.3570  0.5602 -0.1877
  128SOPE    HX13729   2.388   3.570   2.838  1.2497  0.1579 -0.6687
  128SOPE    HY13730   2.513   3.690   2.886  1.6331 -0.7737 -1.1280
  128SOPE   O3113731   2.372   3.668   3.025  0.7214  0.5744 -0.2425
  128SOPE   C3113732   2.243   3.647   3.042  0.5174 -0.1253  0.4046
  128SOPE   O3213733   2.175   3.582   2.964  0.0578  0.2169 -0.3949
  128SOPE   C3213734   2.190   3.705   3.171 -0.1157  0.0011  0.4456
  128SOPE   H2X13735   2.174   3.815   3.162 -1.9214 -0.3278 -0.8556
  128SOPE   H2Y13736   2.265   3.686   3.251  0.1934 -0.0782  0.1359
  128SOPE   C2313737   2.714   3.778   3.293  0.0997 -0.1248 -0.6604
  128SOPE   H3R13738   2.603   3.785   3.287 -0.1287  0.5095  2.6892
  128SOPE   H3S13739   2.768   3.865   3.250  2.8706 -1.2118  0.3928
  128SOPE   C2413740   2.738   3.778   3.449 -0.1584 -0.3849 -0.4178
  128SOPE   H4R13741   2.820   3.708   3.476 -0.8187 -0.1633  2.5957
  128SOPE   H4S13742   2.784   3.874   3.481 -0.9700  0.1782 -0.9174
  128SOPE   C2513743   2.611   3.735   3.526 -0.2164 -0.5456 -0.1904
  128SOPE   H5R13744   2.641   3.756   3.631 -0.9073  2.0804 -0.4354
  128SOPE   H5S13745   2.518   3.794   3.513  0.5448  0.6268 -0.5042
  128SOPE   C2613746   2.590   3.589   3.522  0.4116  0.0979 -0.1302
  128SOPE   H6R13747   2.573   3.565   3.415  1.8395  0.9264 -0.5523
  128SOPE   H6S13748   2.677   3.531   3.558  0.8339 -0.9312 -2.6096
  128SOPE   C2713749   2.465   3.550   3.604 -0.3046  0.1258 -0.0657
  128SOPE   H7R13750   2.486   3.580   3.709  1.2113 -0.1550 -0.2587
  128SOPE   H7S13751   2.381   3.612   3.566 -1.5775 -1.5048 -0.0119
  128SOPE   C2813752   2.445   3.403   3.590  0.6706 -0.0961  0.4106
  128SOPE   H8R13753   2.424   3.383   3.482 -0.2122 -0.0094  0.5566
  128SOPE   H8S13754   2.537   3.347   3.615  0.8192 -1.0640 -2.0193
  128SOPE   C2913755   2.324   3.357   3.669 -0.2405  0.2298  0.4239
  128SOPE   H9113756   2.250   3.309   3.604  2.1672 -0.9340 -1.6304
  128SOPE  C21013757   2.304   3.364   3.807  0.0828 -1.0882 -0.3540
  128SOPE  H10113758   2.211   3.331   3.854  0.3124  0.7651  1.5301
  128SOPE  C21113759   2.391   3.421   3.915  0.1722 -0.0851  0.2697
  128SOPE  H11R13760   2.365   3.529   3.913  0.4295 -0.0333 -0.9814
  128SOPE  H11S13761   2.498   3.416   3.885  0.3980 -0.1454  1.0385
  128SOPE  C21213762   2.356   3.362   4.046  0.6376 -0.1367 -0.1271
  128SOPE  H12R13763   2.362   3.252   4.045 -1.8530 -0.3197 -1.3045
  128SOPE  H12S13764   2.250   3.388   4.068  0.9669  2.8969 -1.4844
  128SOPE  C21313765   2.444   3.422   4.158  0.7065  0.4227 -1.0885
  128SOPE  H13R13766   2.445   3.531   4.137 -1.2328  0.2459 -2.3386
  128SOPE  H13S13767   2.546   3.380   4.141  1.8030  2.7666 -0.6644
  128SOPE  C21413768   2.393   3.384   4.300 -0.6270 -0.6745  0.1059
  128SOPE  H14R13769   2.387   3.273   4.301 -0.2544 -0.7187  2.4091
  128SOPE  H14S13770   2.292   3.423   4.325 -0.4911 -0.6583  0.6292
  128SOPE  C21513771   2.490   3.428   4.415  0.2435  0.0211  0.0788
  128SOPE  H15R13772   2.585   3.371   4.402 -0.4656 -1.2741  0.3801
  128SOPE  H15S13773   2.450   3.380   4.507  2.1572 -0.9319  0.4872
  128SOPE  C21613774   2.503   3.578   4.439 -0.8386  0.2601 -0.1372
  128SOPE  H16R13775   2.409   3.624   4.477 -0.6420  0.5619 -0.0207
  128SOPE  H16S13776   2.506   3.630   4.341  0.3468 -0.1636 -0.3398
  128SOPE  C21713777   2.626   3.616   4.510 -0.0243  0.1288  0.4471
  128SOPE  H17R13778   2.708   3.575   4.448 -0.8795  0.2361 -0.8044
  128SOPE  H17S13779   2.647   3.544   4.592  1.7389 -1.1846 -1.0564
  128SOPE  C21813780   2.649   3.754   4.550  0.4172  0.2460 -0.2626
  128SOPE  H18R13781   2.561   3.801   4.599  0.3549  0.9080 -0.9791
  128SOPE  H18S13782   2.682   3.826   4.472 -1.0314  1.6481  0.3534
  128SOPE  H18T13783   2.736   3.754   4.619 -0.2470 -1.5065  0.6309
  128SOPE   C3313784   2.062   3.640   3.209  0.1520 -0.1667  0.3717
  128SOPE   H3X13785   2.085   3.531   3.216 -0.2340 -0.1684  1.9792
  128SOPE   H3Y13786   1.983   3.655   3.132  0.4127  1.2509  0.3528
  128SOPE   C3413787   2.011   3.678   3.356  0.1961 -0.4220 -0.1141
  128SOPE   H4X13788   1.914   3.624   3.368  0.2183 -0.0360  2.1724
  128SOPE   H4Y13789   1.997   3.788   3.361 -2.5250 -0.7162  0.4769
  128SOPE   C3513790   2.095   3.640   3.478 -0.5141  0.3969  1.0626
  128SOPE   H5X13791   2.197   3.679   3.456 -0.7488  0.6378  0.3875
  128SOPE   H5Y13792   2.106   3.529   3.471 -1.6442  0.3184  0.3664
  128SOPE   C3613793   2.028   3.693   3.607 -0.8469  0.3455  0.6900
  128SOPE   H6X13794   1.930   3.642   3.619 -0.1994 -0.6587  1.8629
  128SOPE   H6Y13795   2.018   3.803   3.590  1.9761  0.4764 -0.7767
  128SOPE   C3713796   2.100   3.650   3.738  0.1869  0.3352 -0.6120
  128SOPE   H7X13797   2.208   3.669   3.719  0.5613 -1.8039 -0.8869
  128SOPE   H7Y13798   2.083   3.541   3.736  0.9911  0.1912 -3.2172
  128SOPE   C3813799   2.050   3.733   3.861  0.4443  0.3541  0.1511
  128SOPE   H8X13800   1.941   3.714   3.870  0.7252 -1.6618 -0.2353
  128SOPE   H8Y13801   2.070   3.842   3.850 -3.7612  1.2934  0.1342
  128SOPE   C3913802   2.114   3.705   3.994  0.2373 -0.0007  0.6008
  128SOPE   H9X13803   2.223   3.723   3.981 -0.0594  0.8968 -0.9664
  128SOPE   H9Y13804   2.095   3.596   4.002 -1.4459 -0.0140 -2.1509
  128SOPE  C31013805   2.059   3.765   4.119  1.0078  0.1617  0.2746
  128SOPE  H10X13806   1.949   3.759   4.126  0.9426  2.1538  1.8151
  128SOPE  H10Y13807   2.079   3.874   4.119 -1.3968  0.7303 -2.5142
  128SOPE  C31113808   2.126   3.708   4.242 -0.8711 -0.0503 -0.0184
  128SOPE  H11X13809   2.235   3.719   4.223 -0.5494 -0.8488  1.2281
  128SOPE  H11Y13810   2.094   3.601   4.237  0.3089 -0.4334  0.4113
  128SOPE  C31213811   2.082   3.767   4.377  0.1656 -0.3992  0.9929
  128SOPE  H12X13812   1.982   3.723   4.399  0.6035 -0.9927  1.8480
  128SOPE  H12Y13813   2.058   3.873   4.355  2.6317  0.0004 -0.1037
  128SOPE  C31313814   2.172   3.733   4.493  0.8909 -0.3012  0.1141
  128SOPE  H13X13815   2.269   3.786   4.475  0.5546  0.6994  1.1788
  128SOPE  H13Y13816   2.191   3.624   4.492  1.9851 -0.1468  1.2975
  128SOPE  C31413817   2.121   3.769   4.631 -0.9384 -0.3420  0.4692
  128SOPE  H14X13818   2.029   3.710   4.651 -1.0845  0.1488  1.2677
  128SOPE  H14Y13819   2.095   3.877   4.620  0.3560 -0.1645 -1.2967
  128SOPE  C31513820   2.235   3.742   4.742  0.8294  0.5645 -0.0864
  128SOPE  H15X13821   2.329   3.784   4.699  1.4335 -2.1001 -1.5916
  128SOPE  H15Y13822   2.254   3.634   4.760 -0.8156  0.4672  1.3615
  128SOPE  C31613823   2.208   3.813   4.870  0.1265  0.3413 -0.6523
  128SOPE  H16X13824   2.122   3.761   4.918 -0.5122  0.5760 -1.5210
  128SOPE  H16Y13825   2.177   3.917   4.847 -2.9298 -0.4197 -0.4319
  128SOPE  C31713826   2.333   3.806   4.955  1.2563 -0.1288 -0.1214
  128SOPE  H17X13827   2.360   3.698   4.954  0.2536 -0.4247 -2.7318
  128SOPE  H17Y13828   2.294   3.819   5.058 -1.8715 -0.3980 -1.1547
  128SOPE  C31813829   2.450   3.891   4.924 -0.6076 -0.1792 -0.0940
  128SOPE  H18X13830   2.524   3.880   5.006 -1.4457 -3.5767  0.3262
  128SOPE  H18Y13831   2.411   3.995   4.933  0.2670  0.1491 -0.0002
  128SOPE  H18Z13832   2.484   3.880   4.819 -1.2263  0.4155 -0.3661
  129OSM      N13833   6.147   5.428   6.766 -0.9560  0.0316  0.0140
  129OSM    C1513834   6.285   5.372   6.724  0.1011  0.0776  0.0733
  129OSM   H15A13835   6.340   5.439   6.660 -0.3599 -1.4319 -1.9864
  129OSM   H15B13836   6.270   5.279   6.671 -0.2971  0.5095 -0.5882
  129OSM   H15C13837   6.349   5.348   6.807  1.6306  1.8019 -0.5233
  129OSM    C1413838   6.095   5.344   6.879  0.1768 -0.0124  0.4697
  129OSM   H14A13839   6.153   5.355   6.969  0.0516 -0.6526  0.6285
  129OSM   H14B13840   6.096   5.238   6.858 -2.0926  0.1644 -0.8013
  129OSM   H14C13841   5.992   5.369   6.899 -0.3783 -0.7155 -1.3450
  129OSM    C1313842   6.177   5.558   6.828  0.2337 -0.3242 -0.5245
  129OSM   H13A13843   6.184   5.637   6.754 -1.5119 -0.4582 -0.8755
  129OSM   H13B13844   6.266   5.559   6.888  0.9646  1.2254 -1.5430
  129OSM   H13C13845   6.095   5.578   6.895 -0.3227 -0.2095 -1.2180
  129OSM    C1213846   6.047   5.429   6.644 -0.1680  0.2401 -0.5073
  129OSM   H12A13847   6.003   5.332   6.626  0.1654 -0.1509  0.6987
  129OSM   H12B13848   6.099   5.462   6.555  0.8125 -2.3187 -0.9814
  129OSM    C1113849   5.927   5.521   6.670 -0.0264  0.6116  0.1295
  129OSM   H11A13850   5.855   5.502   6.587 -2.5180  0.9660  2.0957
  129OSM   H11B13851   5.958   5.628   6.666 -1.3809  1.0109 -0.0613
  129OSM      P13852   5.804   5.587   6.891  0.0525 -0.1273  0.0672
  129OSM    O1313853   5.780   5.510   7.016 -0.3767 -0.5893  0.1231
  129OSM    O1413854   5.892   5.705   6.911  1.0911  0.0195 -0.6369
  129OSM    O1113855   5.661   5.615   6.825 -1.0801  0.1248 -0.0840
  129OSM    O1213856   5.859   5.480   6.793 -0.3401  0.1110 -0.4757
  129OSM    C1S13857   5.642   5.731   6.738  0.1471 -0.0029  0.3287
  129OSM    H1S13858   5.738   5.779   6.710 -0.3027  0.0695 -1.1784
  129OSM    H1T13859   5.576   5.802   6.791  0.9370  0.1220  1.1716
  129OSM     NF13860   5.584   5.765   6.496  0.5627  0.4820 -0.5511
  129OSM    HNF13861   5.499   5.793   6.452 -1.2041 -3.1306  0.2526
  129OSM    C2S13862   5.567   5.671   6.612  0.3559  0.1145 -0.2325
  129OSM    H2S13863   5.613   5.575   6.581 -2.8856 -1.9062  0.6201
  129OSM    C3S13864   5.419   5.630   6.656  0.5447 -0.7078 -0.0320
  129OSM    H3S13865   5.372   5.730   6.669  1.9866  0.0904 -0.7495
  129OSM     O313866   5.404   5.557   6.777  0.3996  0.0405  0.3902
  129OSM    HO313867   5.494   5.571   6.809  0.5016 -0.7907  0.4807
  129OSM    C4S13868   5.344   5.566   6.533  0.0353 -0.5078 -0.5026
  129OSM    H4S13869   5.309   5.642   6.462 -0.2323  0.3982  0.5824
  129OSM    C5S13870   5.327   5.437   6.500 -0.0728 -0.3692 -0.2017
  129OSM    H5S13871   5.367   5.357   6.564  0.9210  1.6933  1.8870
  129OSM    C6S13872   5.266   5.395   6.374 -0.5389 -0.0141  0.3217
  129OSM    H6S13873   5.161   5.366   6.392 -0.1513 -1.5247  0.3157
  129OSM    H6T13874   5.316   5.299   6.347 -0.8835 -0.6076  1.7259
  129OSM    C7S13875   5.254   5.495   6.251 -0.0179  1.0232  1.3666
  129OSM    H7S13876   5.353   5.542   6.229  0.4316 -1.1909 -2.3245
  129OSM    H7T13877   5.181   5.573   6.283 -1.0622  0.3206  0.7440
  129OSM    C8S13878   5.210   5.418   6.126 -0.2572 -0.1076 -0.1373
  129OSM    H8S13879   5.120   5.361   6.155 -0.5460  0.6428  0.4853
  129OSM    H8T13880   5.283   5.347   6.083  1.0887  0.6460  0.8278
  129OSM    C9S13881   5.167   5.520   6.014  0.3773 -0.1681  0.1965
  129OSM    H9S13882   5.262   5.571   5.988  3.0064 -2.8555  3.6261
  129OSM    H9T13883   5.096   5.600   6.044 -0.3466 -0.7511  0.0688
  129OSM   C10S13884   5.117   5.450   5.884 -0.4708  0.1540 -0.8380
  129OSM   H10S13885   5.029   5.384   5.902  1.0530 -1.5605  0.6763
  129OSM   H10T13886   5.198   5.382   5.848 -1.3977 -2.6158  1.8540
  129OSM   C11S13887   5.086   5.554   5.771  0.6450 -0.4599  0.0638
  129OSM   H11S13888   5.174   5.602   5.723  1.6156  1.1813  3.1902
  129OSM   H11T13889   5.029   5.637   5.820  1.3831  0.0236  0.1225
  129OSM   C12S13890   4.993   5.505   5.664 -0.3667 -0.2131 -0.6263
  129OSM   H12S13891   4.891   5.483   5.703 -0.4680 -1.1243 -1.3757
  129OSM   H12T13892   5.029   5.410   5.618 -0.0854 -1.8024  2.5854
  129OSM   C13S13893   4.982   5.605   5.549  0.5636  0.0326  0.1179
  129OSM   H13S13894   5.081   5.634   5.509 -0.4723  1.6385 -1.4036
  129OSM   H13T13895   4.937   5.699   5.588  0.3480 -0.0201  0.0004
  129OSM   C14S13896   4.889   5.550   5.438 -0.2299 -0.1870  0.7150
  129OSM   H14S13897   4.871   5.631   5.363  0.0922 -0.3425  0.4708
  129OSM   H14T13898   4.796   5.522   5.492 -0.1505 -0.8406  0.5164
  129OSM   C15S13899   4.950   5.430   5.362 -0.3294  0.6087 -0.2174
  129OSM   H15S13900   4.971   5.336   5.418 -0.3711  1.0989  0.6232
  129OSM   H15T13901   5.049   5.470   5.332 -0.6748  1.7691  0.1333
  129OSM   C16S13902   4.867   5.385   5.242 -0.1207 -0.5741  0.4522
  129OSM   H16S13903   4.923   5.316   5.176 -0.3871 -1.5483  1.2363
  129OSM   H16T13904   4.831   5.471   5.180 -0.5872 -0.9018  0.2607
  129OSM   C17S13905   4.745   5.305   5.290  0.7338 -0.1119  0.0715
  129OSM   H17S13906   4.675   5.377   5.337  0.7692  1.1093 -1.6339
  129OSM   H17T13907   4.785   5.226   5.357  0.6298 -1.5390 -1.4626
  129OSM   C18S13908   4.672   5.242   5.171  0.6577  0.0849  0.3336
  129OSM   H18S13909   4.738   5.173   5.116  1.7380  1.6836 -0.4447
  129OSM   H18T13910   4.626   5.318   5.105 -0.3947 -0.7536  0.0675
  129OSM   H18U13911   4.573   5.200   5.200  0.7534 -0.0355  0.4889
  129OSM    C1F13912   5.702   5.772   6.440 -0.0096 -0.3162  0.7990
  129OSM     OF13913   5.801   5.735   6.485 -0.3712 -0.5190 -0.6416
  129OSM    C2F13914   5.701   5.824   6.301 -0.0025 -0.8141 -0.6406
  129OSM    H2F13915   5.802   5.813   6.256 -0.0880  2.0097 -1.7584
  129OSM    H2G13916   5.666   5.929   6.311 -0.4948 -0.9768 -0.6161
  129OSM    C3F13917   5.602   5.759   6.206  0.3989  0.4645 -0.4898
  129OSM    H3F13918   5.501   5.747   6.251  0.6783  0.9871  0.2885
  129OSM    H3G13919   5.634   5.659   6.168  0.7052  0.7845 -1.0869
  129OSM    C4F13920   5.578   5.831   6.072 -0.1922 -0.2405  0.4274
  129OSM    H4F13921   5.666   5.828   6.004 -1.3339 -0.7430 -1.0846
  129OSM    H4G13922   5.549   5.938   6.067 -2.5952 -0.8781 -0.3746
  129OSM    C5F13923   5.475   5.744   5.990 -0.4647 -0.5711  0.4695
  129OSM    H5F13924   5.377   5.763   6.039  0.3444  3.5768  0.8209
  129OSM    H5G13925   5.514   5.641   6.004  1.0445  0.1582  2.0157
  129OSM    C6F13926   5.469   5.778   5.842  0.5258 -0.6032 -0.4004
  129OSM    H6F13927   5.445   5.685   5.786  2.0966 -1.8484  0.8876
  129OSM    H6G13928   5.571   5.805   5.807  0.9684  0.4473  1.5813
  129OSM    C7F13929   5.362   5.885   5.800 -0.1901  0.6808 -0.0262
  129OSM    H7F13930   5.379   5.985   5.845 -0.4736  0.5537  0.3714
  129OSM    H7G13931   5.259   5.851   5.824 -0.5335 -0.4318 -2.7618
  129OSM    C8F13932   5.360   5.892   5.647 -0.3562  0.4582 -0.2521
  129OSM    H8F13933   5.346   5.791   5.602  1.7814  0.2916 -0.6495
  129OSM    H8G13934   5.460   5.922   5.610  0.5297 -1.1522  0.7251
  129OSM    C9F13935   5.255   5.990   5.596 -0.4893  0.5798 -0.3520
  129OSM    H9F13936   5.158   5.943   5.578 -0.8973  1.2720 -0.0186
  129OSM   C10F13937   5.272   6.122   5.572  0.1441  0.0265 -0.5682
  129OSM   H10F13938   5.192   6.176   5.519  0.6765 -0.2473 -1.6744
  129OSM   C11F13939   5.385   6.214   5.582 -0.8440  0.0988 -0.4923
  129OSM   H11F13940   5.477   6.151   5.575  0.1006  1.4005 -0.2596
  129OSM   H11G13941   5.387   6.272   5.677 -1.2201  0.4716 -0.7077
  129OSM   C12F13942   5.402   6.330   5.480 -0.3125  0.0530 -0.1967
  129OSM   H12F13943   5.481   6.397   5.521 -0.8357  1.1161 -0.8888
  129OSM   H12G13944   5.310   6.391   5.491 -0.6984 -0.6459  0.5881
  129OSM   C13F13945   5.405   6.283   5.336  0.1918  0.2538  0.1032
  129OSM   H13F13946   5.314   6.222   5.320  0.0221  0.2703  0.9751
  129OSM   H13G13947   5.494   6.219   5.320 -1.1116 -1.0244 -2.9142
  129OSM   C14F13948   5.406   6.388   5.225  0.0293  0.3203 -0.5165
  129OSM   H14F13949   5.482   6.465   5.251  0.6121 -0.3771 -0.1378
  129OSM   H14G13950   5.312   6.444   5.202  1.3348  2.2951 -1.3046
  129OSM   C15F13951   5.456   6.332   5.093 -0.2073 -0.0752  0.2019
  129OSM   H15F13952   5.380   6.253   5.071  1.8142 -2.2855  0.7214
  129OSM   H15G13953   5.551   6.275   5.107 -0.9170 -1.3527 -0.0054
  129OSM   C16F13954   5.470   6.444   4.993 -0.2834  0.8027  0.1833
  129OSM   H16F13955   5.549   6.511   5.033  0.4687 -0.6983  1.3354
  129OSM   H16G13956   5.387   6.517   4.985  0.7777  1.9916 -0.5076
  129OSM   C17F13957   5.514   6.403   4.847 -0.0295  0.0267 -0.7366
  129OSM   H17F13958   5.556   6.493   4.796  0.4786 -1.1664 -2.5458
  129OSM   H17G13959   5.425   6.364   4.791 -0.9814  0.6227  0.3224
  129OSM   C18F13960   5.620   6.291   4.838  0.0168 -0.7470 -0.1886
  129OSM   H18F13961   5.713   6.322   4.890 -1.8767  2.0441  1.8181
  129OSM   H18G13962   5.627   6.265   4.730 -1.1627  1.0957 -0.7478
  129OSM   H18H13963   5.590   6.202   4.896 -0.6269 -0.0922  0.4946
  130OSM      N13964   5.751   6.198   6.939 -0.6158 -0.0924  0.1714
  130OSM    C1513965   5.831   6.299   7.001 -0.5421 -0.5554 -0.0540
  130OSM   H15A13966   5.828   6.383   6.933 -0.1092 -0.4991 -0.0073
  130OSM   H15B13967   5.935   6.276   7.021 -0.2753  2.0421  2.1690
  130OSM   H15C13968   5.788   6.335   7.093 -0.0621  1.6736 -0.6436
  130OSM    C1413969   5.817   6.163   6.806 -0.0571  0.1334  0.1323
  130OSM   H14A13970   5.922   6.146   6.826 -0.6151 -4.7966 -0.0838
  130OSM   H14B13971   5.804   6.251   6.745  0.1271 -0.3335 -0.5952
  130OSM   H14C13972   5.775   6.078   6.755 -1.2987  1.2368 -0.7435
  130OSM    C1313973   5.745   6.070   7.016  0.0879 -0.7875 -0.3956
  130OSM   H13A13974   5.711   5.991   6.950  1.4036 -2.0520  0.3963
  130OSM   H13B13975   5.689   6.068   7.108  1.7503  0.4783  0.6908
  130OSM   H13C13976   5.840   6.040   7.057 -1.0696 -0.8502  2.4614
  130OSM    C1213977   5.615   6.248   6.899 -0.1660 -0.3368  0.1073
  130OSM   H12A13978   5.561   6.167   6.852  0.3735 -1.1583  0.8787
  130OSM   H12B13979   5.633   6.335   6.837  2.4301 -0.5989  0.4053
  130OSM    C1113980   5.526   6.292   7.016 -0.1500  0.3730  0.2578
  130OSM   H11A13981   5.496   6.200   7.071  0.2304 -0.0448 -0.2226
  130OSM   H11B13982   5.437   6.337   6.968  0.5070  1.4637  0.0140
  130OSM      P13983   5.551   6.542   7.113 -0.1890  0.3833 -0.6529
  130OSM    O1313984   5.458   6.560   7.226  0.1407 -0.2899  0.2212
  130OSM    O1413985   5.676   6.620   7.116 -0.3940 -0.2181  0.2446
  130OSM    O1113986   5.457   6.580   6.990 -0.5204 -0.4083  0.0931
  130OSM    O1213987   5.590   6.387   7.100  0.7907  0.0688  0.1400
  130OSM    C1S13988   5.512   6.654   6.881 -0.1597 -0.4250 -0.3842
  130OSM    H1S13989   5.577   6.586   6.821  0.5732 -0.7972  0.7957
  130OSM    H1T13990   5.576   6.736   6.921 -0.2251 -1.2820  1.5717
  130OSM     NF13991   5.468   6.761   6.663  0.6650  0.3217  0.0229
  130OSM    HNF13992   5.503   6.854   6.665  0.9711  0.2023  0.5511
  130OSM    C2S13993   5.397   6.717   6.785 -0.1181 -0.4016  0.6086
  130OSM    H2S13994   5.328   6.632   6.770 -1.0484  0.0019  2.3097
  130OSM    C3S13995   5.317   6.829   6.855  0.1017 -0.5680 -0.1398
  130OSM    H3S13996   5.377   6.922   6.848  0.8371 -1.0999 -1.1679
  130OSM     O313997   5.293   6.803   6.988  0.0884 -0.1582  0.1977
  130OSM    HO313998   5.323   6.713   7.000 -1.0919 -0.6418 -0.3668
  130OSM    C4S13999   5.190   6.859   6.777 -0.3538 -0.4909 -0.1928
  130OSM    H4S14000   5.192   6.958   6.731 -0.3522 -0.5540 -0.3291
  130OSM    C5S14001   5.071   6.801   6.790 -0.2135 -0.2571 -0.7594
  130OSM    H5S14002   5.063   6.712   6.855 -0.8536  0.1236 -0.3017
  130OSM    C6S14003   4.942   6.864   6.744  0.5987  0.2228 -1.0004
  130OSM    H6S14004   4.902   6.914   6.834  0.1756 -0.4426 -0.8130
  130OSM    H6T14005   4.871   6.780   6.723 -0.7509  1.4017 -1.3231
  130OSM    C7S14006   4.938   6.953   6.623 -0.6029  0.4543 -0.0535
  130OSM    H7S14007   4.844   6.935   6.567 -0.3832 -0.8660 -0.0374
  130OSM    H7T14008   5.018   6.925   6.551 -1.9676  0.0713 -1.4889
  130OSM    C8S14009   4.964   7.106   6.642 -0.2387 -0.4284  0.3732
  130OSM    H8S14010   5.069   7.127   6.670  0.0223  2.0612 -2.0441
  130OSM    H8T14011   4.891   7.139   6.720 -2.1655  0.2692 -1.6164
  130OSM    C9S14012   4.954   7.193   6.514 -0.7702 -0.2646 -0.0547
  130OSM    H9S14013   4.861   7.172   6.457  0.3641  1.7247 -2.8886
  130OSM    H9T14014   5.038   7.169   6.445  0.9184  1.8848  1.1279
  130OSM   C10S14015   4.968   7.343   6.549 -0.4875  0.3745  0.3363
  130OSM   H10S14016   5.051   7.367   6.620 -1.0226  1.2640  0.6787
  130OSM   H10T14017   4.871   7.370   6.597  0.4665  0.1593  2.4946
  130OSM   C11S14018   4.981   7.435   6.425  0.1400  0.3846 -0.3273
  130OSM   H11S14019   4.978   7.542   6.453 -2.4084  1.0295 -2.6371
  130OSM   H11T14020   4.889   7.423   6.364 -0.4532 -2.3923  0.9524
  130OSM   C12S14021   5.109   7.405   6.338 -0.2213 -0.1223 -0.5273
  130OSM   H12S14022   5.096   7.301   6.301 -0.8457 -0.6419  1.0891
  130OSM   H12T14023   5.196   7.402   6.406 -0.7117 -1.7602  0.0653
  130OSM   C13S14024   5.130   7.497   6.212 -0.6936  0.1269  0.2751
  130OSM   H13S14025   5.240   7.505   6.196 -0.5890 -0.7523  0.4931
  130OSM   H13T14026   5.082   7.595   6.233  0.0284  0.1816  1.9019
  130OSM   C14S14027   5.065   7.433   6.085  0.2622  0.1293  0.2638
  130OSM   H14S14028   4.965   7.404   6.125  0.4920 -1.7757 -0.4582
  130OSM   H14T14029   5.119   7.339   6.062  0.0666  0.3164 -1.0175
  130OSM   C15S14030   5.063   7.522   5.962  0.3543 -0.5246  0.5299
  130OSM   H15S14031   5.166   7.552   5.935 -0.1512  0.0700 -0.8225
  130OSM   H15T14032   5.008   7.617   5.977  3.8362  1.5498  1.1142
  130OSM   C16S14033   5.009   7.456   5.833  0.2201  0.5743  0.2367
  130OSM   H16S14034   4.915   7.402   5.859  0.0113  1.6114  1.7787
  130OSM   H16T14035   5.079   7.373   5.808 -1.1306 -0.6491  0.3630
  130OSM   C17S14036   4.984   7.546   5.718 -0.4900  1.1620 -0.3001
  130OSM   H17S14037   5.066   7.621   5.726  0.5817 -0.0902  1.0986
  130OSM   H17T14038   4.890   7.606   5.718 -1.3915 -0.1219 -2.5768
  130OSM   C18S14039   4.993   7.478   5.584 -0.3969 -0.1562 -0.7559
  130OSM   H18S14040   4.967   7.556   5.510  0.5507  0.8428 -0.0612
  130OSM   H18T14041   4.917   7.399   5.566  0.3914 -1.0144 -0.4144
  130OSM   H18U14042   5.097   7.440   5.577 -0.4419 -0.7888  1.3596
  130OSM    C1F14043   5.521   6.679   6.570  0.3199 -0.7092 -0.8589
  130OSM     OF14044   5.521   6.556   6.582 -0.0383 -0.2448 -0.0513
  130OSM    C2F14045   5.593   6.746   6.454 -0.5427  0.3095  1.2419
  130OSM    H2F14046   5.662   6.823   6.495  0.7031  2.8004 -4.5628
  130OSM    H2G14047   5.524   6.803   6.388  1.0059  0.2119 -0.5452
  130OSM    C3F14048   5.677   6.641   6.375  0.1284 -0.1437  0.1120
  130OSM    H3F14049   5.609   6.559   6.346 -0.2731 -0.1791  1.1073
  130OSM    H3G14050   5.756   6.605   6.444  0.3880  0.9371  0.4011
  130OSM    C4F14051   5.733   6.695   6.242  0.0859 -0.3330  0.5677
  130OSM    H4F14052   5.784   6.607   6.197  0.0353  0.3958 -0.9713
  130OSM    H4G14053   5.803   6.780   6.258 -1.3891  0.7456  1.5936
  130OSM    C5F14054   5.619   6.735   6.146  0.2355  0.5030 -0.7235
  130OSM    H5F14055   5.566   6.821   6.191 -2.2577 -1.7497  0.9103
  130OSM    H5G14056   5.542   6.655   6.139  2.2643 -1.8108  1.4756
  130OSM    C6F14057   5.672   6.763   6.010  0.3785 -0.5343  0.2783
  130OSM    H6F14058   5.584   6.808   5.960  0.8476  0.7358  0.5500
  130OSM    H6G14059   5.699   6.669   5.958 -0.3509 -0.1335 -0.8520
  130OSM    C7F14060   5.785   6.870   5.991  0.7891  0.1967  0.3993
  130OSM    H7F14061   5.875   6.851   6.053  0.3965  0.7022  1.1479
  130OSM    H7G14062   5.750   6.974   6.012  2.9338  0.7099  1.7093
  130OSM    C8F14063   5.845   6.868   5.856 -0.3805 -0.1756  0.2183
  130OSM    H8F14064   5.871   6.762   5.833 -0.7531 -0.0583 -0.7835
  130OSM    H8G14065   5.936   6.931   5.848  0.3510 -1.3142 -0.7802
  130OSM    C9F14066   5.738   6.913   5.759 -0.6776 -0.2029  0.3913
  130OSM    H9F14067   5.700   7.012   5.788 -0.9275 -0.2148  0.0963
  130OSM   C10F14068   5.691   6.849   5.654 -0.4098 -0.4259  0.3552
  130OSM   H10F14069   5.608   6.887   5.592 -0.4892 -0.8888  0.1709
  130OSM   C11F14070   5.730   6.715   5.614  0.6506  0.5111 -0.1698
  130OSM   H11F14071   5.829   6.690   5.658  0.3467  0.2390  0.3619
  130OSM   H11G14072   5.733   6.711   5.503  0.6433 -1.3805 -0.1234
  130OSM   C12F14073   5.642   6.598   5.673  0.2527 -0.0324  0.5077
  130OSM   H12F14074   5.544   6.590   5.621  0.8469  1.7255 -0.9945
  130OSM   H12G14075   5.615   6.624   5.778  0.1374 -1.4021  0.8364
  130OSM   C13F14076   5.711   6.459   5.646  0.2220 -0.6275 -0.0446
  130OSM   H13F14077   5.638   6.375   5.656  0.1387 -0.5519 -0.0119
  130OSM   H13G14078   5.786   6.432   5.723 -0.2550  0.8363  0.9687
  130OSM   C14F14079   5.775   6.450   5.503 -1.0838  0.2501 -0.0966
  130OSM   H14F14080   5.869   6.509   5.504 -0.5209 -0.6399 -0.3828
  130OSM   H14G14081   5.707   6.497   5.428 -0.0488 -0.0550 -1.2444
  130OSM   C15F14082   5.789   6.305   5.462  0.2591 -0.2021  0.4557
  130OSM   H15F14083   5.696   6.246   5.475 -0.1008  0.2507 -0.0822
  130OSM   H15G14084   5.867   6.262   5.529 -0.1289  1.1408  1.8139
  130OSM   C16F14085   5.839   6.287   5.317 -0.3781 -1.1120 -0.2988
  130OSM   H16F14086   5.766   6.332   5.246 -0.2118  0.6185  0.5889
  130OSM   H16G14087   5.844   6.177   5.298 -1.1163 -1.2038 -0.0047
  130OSM   C17F14088   5.972   6.359   5.274 -0.7228 -0.1962 -0.1536
  130OSM   H17F14089   6.048   6.315   5.342 -1.6705  0.1380  1.1597
  130OSM   H17G14090   5.960   6.469   5.280  0.6960  0.0943 -1.9868
  130OSM   C18F14091   6.019   6.338   5.133  0.0604 -0.4251 -0.1910
  130OSM   H18F14092   6.121   6.381   5.128 -0.1794  0.1229 -0.4754
  130OSM   H18G14093   5.960   6.374   5.046  1.6651 -0.7070 -1.4508
  130OSM   H18H14094   6.035   6.230   5.112  1.6655 -0.1522 -0.5016
  131OSM      N14095   5.769   2.745   7.092 -0.3999  0.1416  0.0374
  131OSM    C1514096   5.697   2.620   7.052  0.2011  0.3967 -0.7416
  131OSM   H15A14097   5.753   2.528   7.046 -1.9251 -1.0317  0.0830
  131OSM   H15B14098   5.670   2.634   6.949  0.4486 -0.2330 -0.8973
  131OSM   H15C14099   5.609   2.591   7.107 -1.0938  2.2443 -1.7049
  131OSM    C1414100   5.895   2.759   7.022  0.1905  0.1262 -0.0681
  131OSM   H14A14101   5.959   2.677   7.052  1.9584  0.4715 -2.5413
  131OSM   H14B14102   5.938   2.858   7.029 -1.7417  0.9096  2.5751
  131OSM   H14C14103   5.874   2.736   6.918 -4.1383 -1.4356  0.9254
  131OSM    C1314104   5.685   2.863   7.076 -0.1348  0.3261 -0.3802
  131OSM   H13A14105   5.646   2.873   6.976 -1.8049  2.9488  0.4040
  131OSM   H13B14106   5.731   2.958   7.097 -1.0583  0.9022 -0.8649
  131OSM   H13C14107   5.602   2.862   7.145  1.1321  0.3055  1.1926
  131OSM    C1214108   5.794   2.728   7.243 -0.7325  0.1533  0.2694
  131OSM   H12A14109   5.881   2.785   7.272  1.5014 -2.4294 -0.9565
  131OSM   H12B14110   5.838   2.631   7.261  0.7283  0.6628 -0.3968
  131OSM    C1114111   5.683   2.770   7.342  0.3290  0.3551  0.3642
  131OSM   H11A14112   5.703   2.880   7.342  0.1417  0.3989 -0.5080
  131OSM   H11B14113   5.708   2.735   7.444  0.3728  1.0423  0.5967
  131OSM      P14114   5.433   2.813   7.359  0.1827  0.4550  0.4518
  131OSM    O1314115   5.443   2.820   7.506 -0.4252 -0.6067 -0.3282
  131OSM    O1414116   5.444   2.944   7.290  0.3235  0.1121 -0.5562
  131OSM    O1114117   5.294   2.741   7.323 -0.2432 -0.3189  0.3048
  131OSM    O1214118   5.552   2.722   7.303  0.0390  0.4008  0.1957
  131OSM    C1S14119   5.214   2.755   7.203 -0.2055 -0.0884 -0.3712
  131OSM    H1S14120   5.183   2.861   7.191  0.2701  0.4109  2.2224
  131OSM    H1T14121   5.123   2.695   7.220 -0.2167  0.0159 -0.0613
  131OSM     NF14122   5.162   2.742   6.966  0.5167  0.6350  0.2027
  131OSM    HNF14123   5.094   2.674   6.940  0.4016  0.3832  1.1273
  131OSM    C2S14124   5.263   2.700   7.063  0.5248 -0.1132  0.8918
  131OSM    H2S14125   5.352   2.759   7.031  0.6519 -0.2193  1.0494
  131OSM    C3S14126   5.288   2.548   7.067  0.0805  0.5124  0.2604
  131OSM    H3S14127   5.204   2.493   7.113  1.7411 -0.9762  1.6367
  131OSM     O314128   5.399   2.505   7.150  0.3089 -0.0498 -0.0804
  131OSM    HO314129   5.409   2.582   7.206 -2.3780  0.4548 -0.1673
  131OSM    C4S14130   5.309   2.501   6.923 -0.5322  0.3496 -0.0419
  131OSM    H4S14131   5.381   2.560   6.864  1.2315  0.5614  2.2008
  131OSM    C5S14132   5.260   2.382   6.880 -1.0654 -0.5948 -0.4466
  131OSM    H5S14133   5.193   2.323   6.944 -1.3298 -1.1089 -1.1913
  131OSM    C6S14134   5.280   2.328   6.738  0.1431 -0.4586  0.3506
  131OSM    H6S14135   5.181   2.309   6.691  0.6211 -0.7841 -0.5613
  131OSM    H6T14136   5.324   2.226   6.745 -2.3313 -1.5469  1.3514
  131OSM    C7S14137   5.355   2.422   6.644  0.1683 -0.8513  0.4447
  131OSM    H7S14138   5.446   2.460   6.697  0.4222 -3.7721  2.3295
  131OSM    H7T14139   5.304   2.518   6.619  1.8796  1.0869  3.6975
  131OSM    C8S14140   5.382   2.363   6.503 -0.2356 -0.9109 -0.0285
  131OSM    H8S14141   5.423   2.260   6.513 -0.8071 -1.2261 -0.8779
  131OSM    H8T14142   5.457   2.422   6.446 -0.8892  1.2050  1.1917
  131OSM    C9S14143   5.258   2.347   6.414  0.0256  0.0201 -0.5629
  131OSM    H9S14144   5.213   2.448   6.408 -0.7386 -0.3858 -2.4642
  131OSM    H9T14145   5.188   2.282   6.472 -1.6264 -0.3987 -2.8857
  131OSM   C10S14146   5.291   2.293   6.273  0.3300 -0.0442 -0.3116
  131OSM   H10S14147   5.318   2.185   6.276  1.0719  0.1450  2.5565
  131OSM   H10T14148   5.397   2.318   6.252  0.6380 -1.5503 -0.7220
  131OSM   C11S14149   5.196   2.326   6.154 -0.1818 -0.1020  0.3847
  131OSM   H11S14150   5.189   2.435   6.135  1.7584  0.5530  2.8558
  131OSM   H11T14151   5.101   2.276   6.182 -0.7468  0.3147 -0.7264
  131OSM   C12S14152   5.270   2.265   6.031 -0.3241  0.8074  0.8079
  131OSM   H12S14153   5.267   2.156   6.052 -0.3527  0.7565  0.5417
  131OSM   H12T14154   5.373   2.306   6.020 -0.1548  0.4841  1.1422
  131OSM   C13S14155   5.203   2.294   5.894 -0.3134  0.2069 -0.4161
  131OSM   H13S14156   5.186   2.404   5.891 -0.7206  0.1748  0.4734
  131OSM   H13T14157   5.101   2.251   5.893  0.5367 -1.8821 -0.5094
  131OSM   C14S14158   5.268   2.247   5.771 -0.1879 -0.2034  0.6084
  131OSM   H14S14159   5.289   2.138   5.771  1.2192  0.0379  0.3012
  131OSM   H14T14160   5.366   2.300   5.773  0.5953 -1.6120  1.2247
  131OSM   C15S14161   5.196   2.281   5.647  0.0981 -0.3816  0.2770
  131OSM   H15S14162   5.176   2.390   5.658  1.3749 -0.0954  0.0098
  131OSM   H15T14163   5.111   2.210   5.652  2.3944 -3.3895 -0.4967
  131OSM   C16S14164   5.280   2.272   5.522 -0.1423 -0.2009 -0.0019
  131OSM   H16S14165   5.297   2.165   5.498 -2.6408 -0.6019 -0.1994
  131OSM   H16T14166   5.381   2.313   5.542 -0.1897 -0.0420 -0.0891
  131OSM   C17S14167   5.210   2.327   5.396  0.1265 -0.4190  0.2604
  131OSM   H17S14168   5.204   2.435   5.419 -0.9364 -0.0258 -1.6791
  131OSM   H17T14169   5.112   2.280   5.377 -0.5175  0.5614  1.0476
  131OSM   C18S14170   5.300   2.308   5.274  0.3663 -0.7215 -0.3384
  131OSM   H18S14171   5.317   2.198   5.264  0.4719 -0.9950  2.1972
  131OSM   H18T14172   5.395   2.364   5.282 -1.2382  1.8976  4.1050
  131OSM   H18U14173   5.248   2.343   5.183  2.5744  1.3639 -0.9001
  131OSM    C1F14174   5.146   2.866   6.924  0.1098  0.6454 -0.6034
  131OSM     OF14175   5.212   2.957   6.972 -0.2190  0.3477  0.4244
  131OSM    C2F14176   5.047   2.889   6.807 -0.4072  0.2427 -0.8307
  131OSM    H2F14177   4.944   2.907   6.847 -0.0595  1.2831 -0.3569
  131OSM    H2G14178   5.050   2.789   6.759  1.3557 -0.7242  1.1671
  131OSM    C3F14179   5.104   3.000   6.724  0.6623 -0.1760 -0.0779
  131OSM    H3F14180   5.104   3.094   6.783 -0.8693  0.6894 -1.3919
  131OSM    H3G14181   5.025   3.017   6.648  1.3230 -0.6787 -0.9051
  131OSM    C4F14182   5.239   2.974   6.660  0.1243 -0.3213  0.0842
  131OSM    H4F14183   5.316   2.945   6.736 -0.3014  0.2066  0.7245
  131OSM    H4G14184   5.279   3.070   6.621  0.2880 -1.3848 -2.5922
  131OSM    C5F14185   5.218   2.876   6.542 -0.0242  0.3244 -0.1257
  131OSM    H5F14186   5.135   2.902   6.472  1.2665 -0.9815 -2.2156
  131OSM    H5G14187   5.198   2.775   6.583 -0.0491  1.2304  2.3023
  131OSM    C6F14188   5.344   2.871   6.459  0.0361  0.7689 -0.1279
  131OSM    H6F14189   5.427   2.831   6.522 -1.0343  0.0510  0.8690
  131OSM    H6G14190   5.355   2.967   6.404 -2.0067  1.2116  0.1505
  131OSM    C7F14191   5.334   2.766   6.345  0.4238 -0.4103 -0.0143
  131OSM    H7F14192   5.244   2.780   6.280 -0.1172 -0.8713  0.6330
  131OSM    H7G14193   5.330   2.664   6.387 -1.6458 -1.7898 -3.1292
  131OSM    C8F14194   5.460   2.762   6.257 -0.0743 -0.4628  0.3620
  131OSM    H8F14195   5.553   2.755   6.317  1.6406  1.0469 -1.9176
  131OSM    H8G14196   5.481   2.850   6.191  0.4194 -0.9220 -0.1061
  131OSM    C9F14197   5.457   2.627   6.185 -0.4482 -0.1624 -0.0867
  131OSM    H9F14198   5.424   2.542   6.248 -2.3698  0.0722 -0.7130
  131OSM   C10F14199   5.486   2.612   6.057  0.0707  0.0578 -0.2492
  131OSM   H10F14200   5.474   2.515   6.006  3.7148  1.1060 -3.6160
  131OSM   C11F14201   5.535   2.712   5.958  0.0042 -0.1860  0.3408
  131OSM   H11F14202   5.636   2.680   5.923 -0.1097 -1.5206  1.1565
  131OSM   H11G14203   5.556   2.807   6.011 -0.0316  0.1259 -0.1937
  131OSM   C12F14204   5.447   2.757   5.841  0.1389 -0.9485 -0.0018
  131OSM   H12F14205   5.486   2.846   5.787 -2.5990 -1.0341 -2.3858
  131OSM   H12G14206   5.348   2.788   5.881  0.1908 -0.8924  0.0854
  131OSM   C13F14207   5.456   2.656   5.730 -0.8022  0.9335 -0.0762
  131OSM   H13F14208   5.371   2.673   5.660 -1.0944  0.5567  0.1850
  131OSM   H13G14209   5.454   2.555   5.775  0.4946 -0.1228 -2.2095
  131OSM   C14F14210   5.590   2.665   5.659 -0.5043  0.1506  0.7440
  131OSM   H14F14211   5.681   2.658   5.722  0.2825  2.5652 -0.0174
  131OSM   H14G14212   5.607   2.765   5.614  2.3011 -1.4077 -2.0520
  131OSM   C15F14213   5.605   2.564   5.534 -0.0519 -0.3196  0.1441
  131OSM   H15F14214   5.518   2.565   5.466 -0.5365  3.0122  0.6862
  131OSM   H15G14215   5.614   2.459   5.572  0.3500  0.1361  1.3636
  131OSM   C16F14216   5.735   2.584   5.448 -0.0056 -0.5863  0.2697
  131OSM   H16F14217   5.816   2.587   5.523  0.9590 -2.9507 -0.5792
  131OSM   H16G14218   5.729   2.683   5.399  0.0294 -0.1267  1.1812
  131OSM   C17F14219   5.767   2.473   5.342  0.0151 -0.5197 -0.0628
  131OSM   H17F14220   5.759   2.376   5.396 -3.0040 -2.2866 -3.2625
  131OSM   H17G14221   5.876   2.493   5.330 -0.1338  0.0632 -0.4443
  131OSM   C18F14222   5.687   2.460   5.210  0.7022  0.4756 -0.0916
  131OSM   H18F14223   5.599   2.395   5.229 -0.0005  1.5794  0.5647
  131OSM   H18G14224   5.741   2.401   5.133  1.0662  0.0341  0.4960
  131OSM   H18H14225   5.652   2.556   5.165 -1.6372 -0.1422  0.2744
  132OSM      N14226   0.184   5.837   7.363 -0.0832 -0.4630  0.6806
  132OSM    C1514227   0.161   5.945   7.468 -0.8657  0.2956 -0.5722
  132OSM   H15A14228   0.212   6.036   7.444  0.2264 -0.1147  0.1294
  132OSM   H15B14229   0.207   5.916   7.561  2.2027  0.1648 -1.9905
  132OSM   H15C14230   0.059   5.954   7.501 -0.1576  0.7150  1.6106
  132OSM    C1414231   0.335   5.826   7.351  0.1878  0.2525 -0.2364
  132OSM   H14A14232   0.385   5.792   7.440  0.9724  1.2047 -0.2991
  132OSM   H14B14233   0.383   5.916   7.315 -2.2981  1.2957 -1.1381
  132OSM   H14C14234   0.364   5.749   7.280  1.9787 -0.5468  1.3013
  132OSM    C1314235   0.128   5.709   7.398 -0.2049  0.6643 -0.6320
  132OSM   H13A14236   0.162   5.663   7.490  1.8179 -0.4511 -1.8633
  132OSM   H13B14237   0.145   5.635   7.321  0.1541  0.4833 -0.3791
  132OSM   H13C14238   0.022   5.720   7.414 -0.1632 -1.2572  1.4124
  132OSM    C1214239   0.126   5.893   7.232 -0.1268 -0.0530 -0.5180
  132OSM   H12A14240   0.190   5.978   7.213 -1.2695  1.1060  0.6234
  132OSM   H12B14241   0.027   5.933   7.250 -0.0064  0.1414 -0.2763
  132OSM    C1114242   0.141   5.804   7.105  0.2615 -0.0825 -0.0368
  132OSM   H11A14243   0.095   5.870   7.029 -0.9217  0.4365  1.0810
  132OSM   H11B14244   0.083   5.709   7.109  2.9325 -1.9572 -2.4690
  132OSM      P14245   0.336   5.618   7.071 -0.3383 -0.0960 -0.0803
  132OSM    O1314246   0.477   5.625   7.016  0.3677  0.5407 -0.3381
  132OSM    O1414247   0.327   5.548   7.199  0.2526 -0.1432 -0.8261
  132OSM    O1114248   0.251   5.545   6.968  0.2137  0.5084  0.0726
  132OSM    O1214249   0.276   5.760   7.078  0.1105 -0.3841 -0.3178
  132OSM    C1S14250   0.221   5.610   6.843  0.2650 -0.2590 -0.3472
  132OSM    H1S14251   0.299   5.678   6.803 -1.0035  0.5708 -1.5021
  132OSM    H1T14252   0.130   5.672   6.857  0.0948 -0.2138 -1.5427
  132OSM     NF14253   0.209   5.566   6.593  0.5411  0.2347 -0.0157
  132OSM    HNF14254   0.121   5.596   6.557  0.2262  0.9943  1.2972
  132OSM    C2S14255   0.197   5.510   6.724  0.1455 -0.4197 -0.0978
  132OSM    H2S14256   0.284   5.445   6.749  2.1738  1.8795 -0.7750
  132OSM    C3S14257   0.073   5.421   6.759  0.2276  0.7809  0.2500
  132OSM    H3S14258  -0.018   5.482   6.740 -1.9993 -2.6252 -1.1489
  132OSM     O314259   0.062   5.375   6.893 -0.2331  0.7218  0.5387
  132OSM    HO314260   0.122   5.441   6.929  0.7961 -0.3680  0.9153
  132OSM    C4S14261   0.062   5.301   6.660 -0.1149  0.6193 -0.3993
  132OSM    H4S14262   0.135   5.220   6.675  0.2582  1.2459  1.3962
  132OSM    C5S14263  -0.032   5.291   6.569  0.1673  0.1571  0.7104
  132OSM    H5S14264  -0.090   5.382   6.548  2.4766  1.1238 -2.1968
  132OSM    C6S14265  -0.022   5.183   6.458  0.6277  0.0749  0.0565
  132OSM    H6S14266  -0.014   5.243   6.365  0.0156  1.0347  0.6006
  132OSM    H6T14267  -0.111   5.117   6.450 -0.8571  2.1273 -1.5817
  132OSM    C7S14268   0.102   5.090   6.460  0.0976 -0.3903  0.1146
  132OSM    H7S14269   0.099   5.030   6.553  1.3148 -1.2898 -0.3925
  132OSM    H7T14270   0.192   5.155   6.462 -0.9140  1.1576 -1.7131
  132OSM    C8S14271   0.122   5.001   6.335  0.7693 -0.8140  0.8515
  132OSM    H8S14272   0.044   4.922   6.327 -1.7190  1.3488  2.0036
  132OSM    H8T14273   0.220   4.950   6.336  0.9367 -0.5002  0.5240
  132OSM    C9S14274   0.099   5.072   6.200 -0.1851  0.7086  0.1152
  132OSM    H9S14275   0.154   5.168   6.196  0.5400  0.2729 -2.7524
  132OSM    H9T14276  -0.010   5.089   6.189 -0.2953 -1.1362 -3.0740
  132OSM   C10S14277   0.146   4.981   6.083  0.0360  0.8568  0.2368
  132OSM   H10S14278   0.108   4.880   6.112  1.6750  0.4846  1.2048
  132OSM   H10T14279   0.256   4.968   6.088 -0.1436 -0.5656  2.2465
  132OSM   C11S14280   0.106   5.017   5.947  0.6817  0.0704  0.8753
  132OSM   H11S14281   0.141   5.120   5.926 -1.4574  0.9397  1.3553
  132OSM   H11T14282  -0.004   5.025   5.951  0.7792  1.6393  1.0930
  132OSM   C12S14283   0.155   4.921   5.834  0.2967 -0.0377 -0.1614
  132OSM   H12S14284   0.149   4.813   5.859 -0.0972 -0.3809 -1.6299
  132OSM   H12T14285   0.258   4.940   5.796 -0.1941 -2.0671 -2.8082
  132OSM   C13S14286   0.074   4.940   5.698  0.0285  0.6003  0.2317
  132OSM   H13S14287   0.092   5.035   5.645  0.2898  0.1093 -0.5800
  132OSM   H13T14288  -0.035   4.929   5.719 -0.3296 -1.1800 -2.1596
  132OSM   C14S14289   0.099   4.814   5.604  0.1147 -0.8091  0.7585
  132OSM   H14S14290   0.045   4.724   5.641  0.7548 -1.3241  0.4773
  132OSM   H14T14291   0.208   4.789   5.604  1.0121  1.9200  4.9721
  132OSM   C15S14292   0.037   4.833   5.459  0.9940  0.0756 -0.6405
  132OSM   H15S14293   0.087   4.901   5.387  0.2294  1.6562  0.2607
  132OSM   H15T14294  -0.069   4.858   5.480  1.0584 -1.1644  1.5530
  132OSM   C16S14295   0.021   4.694   5.395 -0.4779 -0.2663 -0.5414
  132OSM   H16S14296  -0.050   4.711   5.311  0.3313  0.5545 -1.0758
  132OSM   H16T14297  -0.024   4.616   5.460 -1.8682  0.1257 -0.9998
  132OSM   C17S14298   0.150   4.650   5.333 -0.6404  0.8082  0.1034
  132OSM   H17S14299   0.215   4.598   5.405 -0.7797 -0.6618 -0.7929
  132OSM   H17T14300   0.202   4.730   5.275  1.8105 -0.4372  0.4605
  132OSM   C18S14301   0.131   4.544   5.216 -0.5977  0.1702  0.2358
  132OSM   H18S14302   0.092   4.593   5.125  2.3298  0.3182 -1.0650
  132OSM   H18T14303   0.061   4.463   5.244 -2.8384  2.3725  1.4633
  132OSM   H18U14304   0.234   4.513   5.188 -0.2895  2.2769 -1.2147
  132OSM    C1F14305   0.321   5.601   6.545  0.1247 -0.2063 -0.2047
  132OSM     OF14306   0.419   5.591   6.614 -0.3513  0.0619  0.1366
  132OSM    C2F14307   0.321   5.647   6.402  0.0103 -0.1071 -0.6324
  132OSM    H2F14308   0.221   5.678   6.364  1.0071  3.1718 -0.8556
  132OSM    H2G14309   0.350   5.565   6.333  1.3034 -0.2159  0.0301
  132OSM    C3F14310   0.425   5.760   6.378  0.3737  0.5697 -0.2743
  132OSM    H3F14311   0.527   5.719   6.398 -0.1559  0.0240  1.4685
  132OSM    H3G14312   0.410   5.835   6.459 -3.9217 -0.2177 -0.1234
  132OSM    C4F14313   0.414   5.827   6.239 -0.3873  0.2008  0.4617
  132OSM    H4F14314   0.485   5.911   6.229 -0.1294 -0.0007  0.5967
  132OSM    H4G14315   0.310   5.861   6.219 -0.3518  1.2949  2.0142
  132OSM    C5F14316   0.444   5.728   6.128 -0.4254  0.7023  0.2762
  132OSM    H5F14317   0.382   5.637   6.142  0.2712  0.4692  2.1172
  132OSM    H5G14318   0.551   5.700   6.129 -0.6510 -0.3176 -1.4788
  132OSM    C6F14319   0.433   5.796   5.991  0.0618  0.1269  0.4143
  132OSM    H6F14320   0.518   5.775   5.923  1.3712  2.5501  1.1554
  132OSM    H6G14321   0.452   5.904   6.010  0.5806 -0.0091  0.6677
  132OSM    C7F14322   0.294   5.775   5.924  0.8019  0.5909  0.2323
  132OSM    H7F14323   0.221   5.755   6.006  0.5400 -1.6194 -0.4813
  132OSM    H7G14324   0.295   5.693   5.849 -1.8337  2.5301 -2.1658
  132OSM    C8F14325   0.257   5.910   5.857  0.0739 -0.0404 -0.0608
  132OSM    H8F14326   0.336   5.917   5.779 -0.2596 -2.1226 -0.6377
  132OSM    H8G14327   0.269   5.994   5.928  2.0214 -1.0785  0.9220
  132OSM    C9F14328   0.119   5.915   5.803 -0.1570 -0.0199  0.0210
  132OSM    H9F14329   0.040   5.910   5.879 -0.0115  2.0593  0.3700
  132OSM   C10F14330   0.082   5.941   5.674 -0.0477  0.7106  0.5856
  132OSM   H10F14331  -0.025   5.942   5.649  0.4443 -1.2983 -2.0225
  132OSM   C11F14332   0.179   5.960   5.554 -0.8734 -0.0690 -0.0209
  132OSM   H11F14333   0.287   5.958   5.581 -0.6930  1.1162 -0.5807
  132OSM   H11G14334   0.152   6.055   5.502  1.0614 -0.3590 -1.6662
  132OSM   C12F14335   0.183   5.844   5.452  0.1622  0.2410  0.0708
  132OSM   H12F14336   0.251   5.888   5.377 -1.3688 -0.3928 -1.7663
  132OSM   H12G14337   0.082   5.841   5.406 -0.1408  5.1886 -0.0773
  132OSM   C13F14338   0.238   5.703   5.501  0.1538  0.1770 -0.3671
  132OSM   H13F14339   0.163   5.667   5.575 -1.1672  0.5449 -1.4655
  132OSM   H13G14340   0.336   5.710   5.552  0.0420  2.7223 -0.3637
  132OSM   C14F14341   0.232   5.592   5.393 -1.1079  0.3483  0.3670
  132OSM   H14F14342   0.278   5.498   5.428 -0.3752  1.0576  1.3670
  132OSM   H14G14343   0.298   5.637   5.316 -1.6001  2.3566  1.0603
  132OSM   C15F14344   0.100   5.564   5.328  0.5113 -0.4022  0.1376
  132OSM   H15F14345   0.044   5.659   5.310  1.8766  0.4456  0.2392
  132OSM   H15G14346   0.031   5.512   5.397 -2.4906  1.4024 -1.2964
  132OSM   C16F14347   0.117   5.488   5.194 -0.0727  0.1789 -0.7025
  132OSM   H16F14348   0.204   5.535   5.144 -0.0612  0.2294 -0.6352
  132OSM   H16G14349   0.026   5.490   5.129  1.7828  0.9928 -3.4453
  132OSM   C17F14350   0.144   5.331   5.196  1.1981 -0.4805  0.1573
  132OSM   H17F14351   0.226   5.312   5.269  2.0828  1.8562 -0.1580
  132OSM   H17G14352   0.174   5.297   5.095 -1.1375 -0.5911 -0.5783
  132OSM   C18F14353   0.023   5.241   5.240  0.3381 -0.3758  0.2805
  132OSM   H18F14354  -0.050   5.238   5.157 -0.6344 -4.5035  1.0562
  132OSM   H18G14355  -0.020   5.293   5.329 -0.8500  1.2982 -1.1961
  132OSM   H18H14356   0.047   5.135   5.260 -3.3997 -0.9763  2.5258
  133OSM      N14357   3.324   6.167   7.421  0.2442  0.0036  0.3700
  133OSM    C1514358   3.459   6.095   7.439 -0.1465 -0.5566  0.8294
  133OSM   H15A14359   3.518   6.140   7.518 -0.4545  0.0527  0.7195
  133OSM   H15B14360   3.523   6.094   7.352  1.8116  1.7835  2.1015
  133OSM   H15C14361   3.444   5.992   7.466 -0.7130 -0.2159  1.8632
  133OSM    C1414362   3.245   6.139   7.545  0.1303 -0.1868  0.1210
  133OSM   H14A14363   3.161   6.206   7.553  0.6190  0.5806 -0.9458
  133OSM   H14B14364   3.315   6.138   7.627  2.0763 -3.7928 -1.3057
  133OSM   H14C14365   3.208   6.038   7.550  2.0300 -0.9592 -0.4842
  133OSM    C1314366   3.343   6.313   7.409 -0.1130 -0.3573 -0.6657
  133OSM   H13A14367   3.394   6.339   7.317  1.2721  1.3854  0.5330
  133OSM   H13B14368   3.397   6.349   7.495 -0.1461 -1.9469  0.0471
  133OSM   H13C14369   3.248   6.365   7.402 -0.9818 -2.1149 -3.2095
  133OSM    C1214370   3.250   6.108   7.305 -0.1114  0.9154  0.5641
  133OSM   H12A14371   3.151   6.152   7.306 -1.5692 -2.1234  0.4296
  133OSM   H12B14372   3.232   6.002   7.314  1.1818  0.3832 -2.2490
  133OSM    C1114373   3.311   6.131   7.166 -0.0004 -0.1744 -0.0559
  133OSM   H11A14374   3.266   6.064   7.090  2.4687  0.5822 -2.3621
  133OSM   H11B14375   3.421   6.117   7.169  0.2165  1.4729  2.2123
  133OSM      P14376   3.391   6.354   7.050  0.1027  0.1588  0.4541
  133OSM    O1314377   3.308   6.455   6.979 -0.0945 -0.4315 -0.4899
  133OSM    O1414378   3.491   6.396   7.147  0.0026  0.0492 -0.6110
  133OSM    O1114379   3.452   6.256   6.937  1.1533  0.5252  0.2358
  133OSM    O1214380   3.285   6.262   7.120 -0.4363 -0.3930  0.0015
  133OSM    C1S14381   3.355   6.209   6.833 -0.4277 -0.9124 -0.3388
  133OSM    H1S14382   3.276   6.285   6.817  0.9141  0.7663  0.6285
  133OSM    H1T14383   3.306   6.113   6.858 -1.0853  0.0202  2.3764
  133OSM     NF14384   3.322   6.200   6.579  0.0383  0.3136  0.0018
  133OSM    HNF14385   3.310   6.111   6.535  0.0399  0.8833 -1.1951
  133OSM    C2S14386   3.416   6.203   6.690 -0.0615 -0.0181 -0.4934
  133OSM    H2S14387   3.477   6.295   6.680  0.3054  0.1222  2.3170
  133OSM    C3S14388   3.530   6.092   6.694  0.6005  0.3488  0.5520
  133OSM    H3S14389   3.473   5.997   6.700  0.6199  0.2044 -1.1249
  133OSM     O314390   3.621   6.092   6.806  0.3526 -0.0261 -0.5242
  133OSM    HO314391   3.574   6.134   6.878  1.6900  4.1613 -1.7850
  133OSM    C4S14392   3.595   6.080   6.562  0.1081  0.0918 -0.2292
  133OSM    H4S14393   3.560   5.994   6.504  0.7106 -0.6308  0.4609
  133OSM    C5S14394   3.700   6.157   6.520  0.7272 -0.7570 -0.6690
  133OSM    H5S14395   3.755   6.224   6.587 -1.6512  1.2319 -0.5365
  133OSM    C6S14396   3.759   6.159   6.386 -0.0445  0.1100  0.6572
  133OSM    H6S14397   3.853   6.100   6.394 -1.4031 -2.0776  1.4343
  133OSM    H6T14398   3.790   6.263   6.364  2.2600 -0.7323 -0.4029
  133OSM    C7S14399   3.680   6.116   6.263  0.1402 -0.2474  0.1036
  133OSM    H7S14400   3.590   6.182   6.254 -0.0241 -0.3809  0.7230
  133OSM    H7T14401   3.632   6.019   6.287 -3.0094  0.8559 -1.0570
  133OSM    C8S14402   3.770   6.121   6.143  0.1007 -0.2012  0.6741
  133OSM    H8S14403   3.857   6.052   6.151  0.2538 -0.8510 -3.9139
  133OSM    H8T14404   3.823   6.218   6.124 -0.5689  0.0180 -0.1187
  133OSM    C9S14405   3.704   6.093   6.004  0.4462  0.1947  0.4400
  133OSM    H9S14406   3.616   6.157   5.984  0.8429  0.0287 -2.1586
  133OSM    H9T14407   3.669   5.988   6.010 -1.4446  0.8399  1.7913
  133OSM   C10S14408   3.803   6.125   5.892 -0.8685 -0.0505 -0.0982
  133OSM   H10S14409   3.884   6.050   5.905 -0.9095  0.0588  0.8867
  133OSM   H10T14410   3.844   6.228   5.897 -0.3107  0.0751 -4.0698
  133OSM   C11S14411   3.746   6.084   5.751  0.0681  0.2395 -0.3569
  133OSM   H11S14412   3.640   6.117   5.743 -0.7127 -1.9046  0.5114
  133OSM   H11T14413   3.755   5.974   5.736  0.8442  0.3917 -1.1365
  133OSM   C12S14414   3.825   6.138   5.628 -0.3386  0.1383  0.2744
  133OSM   H12S14415   3.928   6.102   5.645  0.9208  3.5487  0.6230
  133OSM   H12T14416   3.818   6.248   5.639 -1.7905 -0.1862  4.4651
  133OSM   C13S14417   3.769   6.103   5.487 -0.7410 -0.0828  0.3045
  133OSM   H13S14418   3.675   6.161   5.491  0.2767  1.5639  2.8576
  133OSM   H13T14419   3.753   5.994   5.475  0.6947 -0.3246  0.4334
  133OSM   C14S14420   3.857   6.158   5.382 -0.4110  0.1521 -0.2609
  133OSM   H14S14421   3.955   6.106   5.378  0.7978  2.3175  0.0814
  133OSM   H14T14422   3.869   6.266   5.403  0.3375 -0.2735  1.7482
  133OSM   C15S14423   3.790   6.143   5.247  0.1496  0.0901 -0.2096
  133OSM   H15S14424   3.694   6.199   5.254 -0.1230 -0.4666  0.6201
  133OSM   H15T14425   3.763   6.038   5.224  0.5251 -0.2862  0.9675
  133OSM   C16S14426   3.874   6.195   5.129 -0.1647 -0.6639  0.0591
  133OSM   H16S14427   3.950   6.114   5.126  1.9856  1.2647 -0.1780
  133OSM   H16T14428   3.924   6.293   5.146  1.0516 -1.0038 -1.3739
  133OSM   C17S14429   3.796   6.195   4.997 -0.6751 -0.2689  0.5541
  133OSM   H17S14430   3.735   6.104   4.980  0.2087 -0.6386 -0.8313
  133OSM   H17T14431   3.867   6.198   4.911 -0.2886 -2.6124  0.7302
  133OSM   C18S14432   3.703   6.314   4.974  0.0056 -0.6646  0.3717
  133OSM   H18S14433   3.755   6.412   4.976 -0.3828 -0.4640  0.6326
  133OSM   H18T14434   3.626   6.310   5.054  0.6169 -0.1450  1.0015
  133OSM   H18U14435   3.652   6.302   4.876  0.7273  2.0690 -0.4365
  133OSM    C1F14436   3.239   6.302   6.549 -0.6533 -0.2343 -1.2360
  133OSM     OF14437   3.277   6.417   6.586  0.4352 -0.3315  0.8409
  133OSM    C2F14438   3.105   6.262   6.486  0.7290 -0.7247 -0.0813
  133OSM    H2F14439   3.026   6.279   6.562 -0.2306 -0.5700 -1.0834
  133OSM    H2G14440   3.113   6.153   6.469  0.0091 -1.2633  2.6835
  133OSM    C3F14441   3.072   6.346   6.357 -0.5241 -0.2037  0.4390
  133OSM    H3F14442   3.143   6.319   6.276 -1.0347 -0.7594  0.1724
  133OSM    H3G14443   3.071   6.456   6.375 -2.1867 -0.0312 -0.4691
  133OSM    C4F14444   2.927   6.320   6.319 -0.6890  1.0068 -0.0296
  133OSM    H4F14445   2.859   6.358   6.398  0.0744  1.5515  0.3789
  133OSM    H4G14446   2.906   6.212   6.302 -0.4341  0.9701 -0.1159
  133OSM    C5F14447   2.888   6.398   6.188  0.2849 -0.0555 -0.6365
  133OSM    H5F14448   2.905   6.507   6.205 -0.6136 -0.1787  1.1884
  133OSM    H5G14449   2.779   6.379   6.179  0.5085 -1.7497 -0.0187
  133OSM    C6F14450   2.948   6.345   6.062 -0.3777  0.4694  0.7973
  133OSM    H6F14451   2.948   6.236   6.079  1.2851  0.4104  0.5783
  133OSM    H6G14452   3.049   6.384   6.038 -0.6308  0.0126 -1.1776
  133OSM    C7F14453   2.873   6.393   5.944  0.3529  0.1368  0.4242
  133OSM    H7F14454   2.892   6.499   5.914  0.4613  0.5118  1.7402
  133OSM    H7G14455   2.764   6.381   5.961  0.4414 -0.3423  0.6494
  133OSM    C8F14456   2.908   6.302   5.821 -0.3065  0.2234 -0.4565
  133OSM    H8F14457   2.866   6.200   5.837 -1.9086  1.0766  1.1144
  133OSM    H8G14458   3.018   6.307   5.805 -0.3687  0.7834 -0.7377
  133OSM    C9F14459   2.839   6.347   5.699  0.4092  0.2350 -0.1597
  133OSM    H9F14460   2.734   6.369   5.721  0.1379 -1.2922  0.2145
  133OSM   C10F14461   2.867   6.336   5.569 -0.6679  0.1002 -0.6597
  133OSM   H10F14462   2.793   6.367   5.494 -1.4870 -1.9237 -0.7528
  133OSM   C11F14463   3.004   6.299   5.525 -0.3005  0.0880  1.0157
  133OSM   H11F14464   3.017   6.189   5.532 -1.5927 -0.0715  1.3547
  133OSM   H11G14465   3.085   6.349   5.582  1.6733 -0.5989 -1.0869
  133OSM   C12F14466   3.037   6.338   5.381  0.5212 -0.9289 -0.3834
  133OSM   H12F14467   3.045   6.448   5.371 -1.1908 -0.4606  2.4187
  133OSM   H12G14468   2.947   6.308   5.323 -1.3777  0.2015  1.8146
  133OSM   C13F14469   3.150   6.251   5.335  0.3446  0.6452  0.4886
  133OSM   H13F14470   3.116   6.145   5.332  2.6532 -0.1358 -0.5539
  133OSM   H13G14471   3.225   6.257   5.416  0.9444  1.9877 -0.1481
  133OSM   C14F14472   3.196   6.274   5.194 -0.1797  0.0444  0.6558
  133OSM   H14F14473   3.239   6.376   5.195  0.0744 -0.0588  1.1822
  133OSM   H14G14474   3.104   6.278   5.132 -0.5865 -0.4013  1.2105
  133OSM   C15F14475   3.284   6.157   5.136  0.7548  0.1187 -0.0697
  133OSM   H15F14476   3.243   6.058   5.165  0.4503  0.7888  1.8878
  133OSM   H15G14477   3.382   6.160   5.189  0.9274 -2.6260 -0.0856
  133OSM   C16F14478   3.307   6.169   4.985 -0.0797  0.6056  0.5833
  133OSM   H16F14479   3.381   6.247   4.958  0.5869 -0.3960 -0.6101
  133OSM   H16G14480   3.215   6.212   4.942  0.1191  2.2687  1.7289
  133OSM   C17F14481   3.348   6.039   4.919  0.4069  0.0041  0.1552
  133OSM   H17F14482   3.450   6.007   4.949 -0.3490 -1.8588  0.8517
  133OSM   H17G14483   3.358   6.056   4.809  0.1270 -0.9188 -0.0226
  133OSM   C18F14484   3.256   5.916   4.931 -0.5028  0.1713 -0.0660
  133OSM   H18F14485   3.297   5.835   4.868 -1.0374  1.1286 -1.6899
  133OSM   H18G14486   3.153   5.938   4.898 -0.4931 -1.2866 -1.1450
  133OSM   H18H14487   3.254   5.884   5.038  3.3745 -1.8719 -0.4115
  134OSM      N14488   3.893   5.053   7.328 -0.1780 -0.6011  0.6583
  134OSM    C1514489   3.930   4.911   7.305  0.3297 -0.1280 -0.2270
  134OSM   H15A14490   4.016   4.898   7.241  1.5039  0.4436  1.1640
  134OSM   H15B14491   3.850   4.846   7.272 -1.7096  0.8667  2.3647
  134OSM   H15C14492   3.957   4.868   7.400  3.5020  3.1031  0.5279
  134OSM    C1414493   3.780   5.060   7.425 -0.1426  0.1200 -0.2569
  134OSM   H14A14494   3.784   4.983   7.500  0.4367 -1.4841 -1.8795
  134OSM   H14B14495   3.691   5.022   7.378 -0.0686 -0.8202  0.3451
  134OSM   H14C14496   3.775   5.160   7.467 -1.8446  0.8104 -1.9682
  134OSM    C1314497   4.017   5.120   7.388 -0.5139 -0.2654 -0.2883
  134OSM   H13A14498   4.052   5.054   7.466  1.1058  2.8374  1.7895
  134OSM   H13B14499   3.986   5.211   7.438 -0.1052 -0.4409  0.2941
  134OSM   H13C14500   4.097   5.135   7.318  0.6654 -0.8321  0.8899
  134OSM    C1214501   3.858   5.132   7.201  0.3934 -0.0649 -0.4309
  134OSM   H12A14502   3.950   5.142   7.146  1.1130 -1.3258  0.5062
  134OSM   H12B14503   3.831   5.231   7.235 -0.1769 -0.1271 -0.6884
  134OSM    C1114504   3.741   5.099   7.103  0.4791 -0.2773  0.0345
  134OSM   H11A14505   3.766   5.002   7.055  0.7062 -0.0684 -0.2709
  134OSM   H11B14506   3.739   5.157   7.009 -0.1471 -1.6162 -0.8082
  134OSM      P14507   3.530   5.222   7.180 -0.2327  0.0703 -0.3514
  134OSM    O1314508   3.414   5.195   7.268  0.2876 -0.4460  0.2289
  134OSM    O1414509   3.622   5.327   7.229 -0.3306  0.1439 -0.6019
  134OSM    O1114510   3.479   5.255   7.034 -0.1077 -0.1725 -0.0592
  134OSM    O1214511   3.614   5.088   7.169  0.3420 -0.1387 -0.2601
  134OSM    C1S14512   3.442   5.143   6.946  0.2775  0.0409 -1.1502
  134OSM    H1S14513   3.345   5.100   6.977  1.9866 -3.1012  0.3156
  134OSM    H1T14514   3.515   5.059   6.943 -0.7746 -0.8806 -1.3360
  134OSM     NF14515   3.374   5.081   6.713  0.0402  0.1796  0.3939
  134OSM    HNF14516   3.448   5.045   6.656 -0.5493  2.2228 -1.8251
  134OSM    C2S14517   3.428   5.189   6.798  0.5033  0.3162  0.6195
  134OSM    H2S14518   3.354   5.272   6.795 -0.2386 -0.3330  0.6455
  134OSM    C3S14519   3.561   5.244   6.740  0.6830  0.2520  0.4491
  134OSM    H3S14520   3.614   5.148   6.725  0.8747  0.5773 -1.0609
  134OSM     O314521   3.641   5.317   6.828 -0.4849 -0.6926 -0.1549
  134OSM    HO314522   3.608   5.313   6.918 -0.3422  0.1907 -0.0517
  134OSM    C4S14523   3.530   5.318   6.614 -0.1784 -0.3071  0.1182
  134OSM    H4S14524   3.471   5.411   6.622 -0.0324 -0.1955 -0.0946
  134OSM    C5S14525   3.572   5.275   6.491  0.0864 -0.7905  0.4675
  134OSM    H5S14526   3.621   5.177   6.485 -0.9238 -1.2532 -0.5185
  134OSM    C6S14527   3.562   5.361   6.360  0.3131  0.1041  0.0400
  134OSM    H6S14528   3.664   5.384   6.324  0.4144 -0.7926 -0.2856
  134OSM    H6T14529   3.504   5.454   6.376  0.6851  0.6127 -1.4123
  134OSM    C7S14530   3.472   5.283   6.261 -0.4572 -0.2340  0.3097
  134OSM    H7S14531   3.369   5.270   6.301 -1.3084 -0.9083 -1.9295
  134OSM    H7T14532   3.515   5.183   6.239 -0.4009 -0.1815  0.1831
  134OSM    C8S14533   3.462   5.366   6.132  0.4489  0.0379  0.6569
  134OSM    H8S14534   3.560   5.398   6.090  2.1217 -1.7988  2.9221
  134OSM    H8T14535   3.411   5.460   6.162 -3.1234  0.4513 -5.1733
  134OSM    C9S14536   3.358   5.305   6.027  0.1913 -0.6563  0.2647
  134OSM    H9S14537   3.312   5.387   5.968 -2.3747 -0.1403  2.7735
  134OSM    H9T14538   3.264   5.280   6.081  0.6048 -3.4012 -0.1607
  134OSM   C10S14539   3.397   5.195   5.928 -0.6351 -0.7631 -0.4027
  134OSM   H10S14540   3.321   5.185   5.847 -1.2170 -1.1229  0.1775
  134OSM   H10T14541   3.406   5.094   5.974 -1.8195  0.5277  3.0002
  134OSM   C11S14542   3.536   5.222   5.857  0.2986  1.5019 -1.0515
  134OSM   H11S14543   3.613   5.177   5.924 -3.7167  0.9270  3.8404
  134OSM   H11T14544   3.543   5.332   5.847 -2.5531  1.8471 -0.2123
  134OSM   C12S14545   3.553   5.160   5.722 -0.8193 -0.2904  0.0038
  134OSM   H12S14546   3.491   5.209   5.645 -0.2844 -0.7804 -0.7489
  134OSM   H12T14547   3.535   5.050   5.723  0.6382 -0.5689 -0.6467
  134OSM   C13S14548   3.696   5.191   5.672  0.9057  0.0032 -0.6251
  134OSM   H13S14549   3.758   5.132   5.744 -1.0128  0.4726  1.5197
  134OSM   H13T14550   3.719   5.298   5.690 -0.9549 -0.1542  3.8744
  134OSM   C14S14551   3.718   5.130   5.536 -0.3129  0.3595  0.1236
  134OSM   H14S14552   3.661   5.195   5.466 -1.0355  0.6511  0.9644
  134OSM   H14T14553   3.671   5.030   5.527 -1.3947  0.8791 -0.1635
  134OSM   C15S14554   3.869   5.139   5.502  0.6427  0.1079 -0.1453
  134OSM   H15S14555   3.915   5.063   5.435  0.3001 -0.1776 -0.0570
  134OSM   H15T14556   3.923   5.125   5.599  2.0777  0.4321 -0.8626
  134OSM   C16S14557   3.899   5.272   5.436 -0.2683 -0.0867 -1.0373
  134OSM   H16S14558   4.005   5.302   5.448 -0.5488  0.6567 -0.4184
  134OSM   H16T14559   3.843   5.353   5.488  0.9139 -0.7006  1.3155
  134OSM   C17S14560   3.862   5.274   5.281  0.4122  0.2123  0.0078
  134OSM   H17S14561   3.757   5.245   5.261  0.5447  0.2670 -0.7983
  134OSM   H17T14562   3.932   5.201   5.233  1.6170  1.6791 -0.5690
  134OSM   C18S14563   3.901   5.407   5.218  0.3146  0.0571 -0.7164
  134OSM   H18S14564   3.841   5.488   5.265 -0.3823 -0.2885 -1.0063
  134OSM   H18T14565   3.880   5.417   5.109 -1.2248  2.5803 -0.2892
  134OSM   H18U14566   4.009   5.426   5.234  0.7699 -2.8366  0.0741
  134OSM    C1F14567   3.256   5.018   6.732 -0.0386  0.2769 -0.0597
  134OSM     OF14568   3.167   5.055   6.808  0.5933 -0.1758  0.0305
  134OSM    C2F14569   3.237   4.880   6.667  0.7230 -0.5380 -0.6318
  134OSM    H2F14570   3.263   4.809   6.748  3.7055  0.3203 -0.7196
  134OSM    H2G14571   3.311   4.860   6.587 -1.7906 -0.0414 -3.2326
  134OSM    C3F14572   3.098   4.874   6.604  0.9340  0.3465 -0.2827
  134OSM    H3F14573   3.022   4.927   6.665  1.0346  1.4378 -1.0813
  134OSM    H3G14574   3.070   4.768   6.586  0.2519  0.6316 -0.9254
  134OSM    C4F14575   3.093   4.935   6.462 -0.1391 -0.4337 -0.1562
  134OSM    H4F14576   3.102   5.045   6.472  1.0026 -0.6661  1.9963
  134OSM    H4G14577   2.999   4.921   6.404 -0.3203  2.4881 -0.6861
  134OSM    C5F14578   3.212   4.894   6.363  0.1156  0.3530  0.5445
  134OSM    H5F14579   3.248   4.794   6.398  1.0400  1.2175  2.1624
  134OSM    H5G14580   3.298   4.963   6.376  1.1570 -0.8574  0.3562
  134OSM    C6F14581   3.165   4.896   6.217  0.3690 -0.7698  0.2723
  134OSM    H6F14582   3.132   4.997   6.183 -0.1947 -0.3986  1.7971
  134OSM    H6G14583   3.073   4.834   6.210 -0.0613 -0.3669  1.9147
  134OSM    C7F14584   3.275   4.845   6.128 -0.7531  0.1497  0.4403
  134OSM    H7F14585   3.331   4.763   6.179 -2.2157 -1.3160 -0.2375
  134OSM    H7G14586   3.351   4.923   6.103 -1.5605  0.3968 -1.3447
  134OSM    C8F14587   3.199   4.807   5.997  0.0695  0.2415  0.1221
  134OSM    H8F14588   3.154   4.900   5.956 -1.8330 -1.5185 -2.1017
  134OSM    H8G14589   3.116   4.736   6.017 -1.0800  1.7198  0.6788
  134OSM    C9F14590   3.289   4.741   5.899  0.5626  0.5303  0.2133
  134OSM    H9F14591   3.363   4.684   5.957 -0.0505  0.1610  0.6446
  134OSM   C10F14592   3.281   4.732   5.765  0.9010  0.4403  0.3036
  134OSM   H10F14593   3.357   4.674   5.710  0.4257 -1.1651  1.2558
  134OSM   C11F14594   3.169   4.798   5.681 -0.2914 -0.4173 -0.0890
  134OSM   H11F14595   3.099   4.836   5.759 -0.6528 -1.9704  0.3792
  134OSM   H11G14596   3.110   4.732   5.614  0.7526 -1.3965 -0.0700
  134OSM   C12F14597   3.223   4.910   5.595 -0.5230 -0.4023 -0.2218
  134OSM   H12F14598   3.291   4.981   5.646 -0.0016  1.0930 -2.8383
  134OSM   H12G14599   3.128   4.956   5.561  0.2438  2.1812  0.9152
  134OSM   C13F14600   3.300   4.849   5.478  0.3242 -0.6366  0.7422
  134OSM   H13F14601   3.236   4.781   5.418 -1.0923 -0.6441  2.1909
  134OSM   H13G14602   3.380   4.782   5.515  1.9529  0.1833 -1.1181
  134OSM   C14F14603   3.371   4.948   5.385 -0.1568  0.0306 -0.3330
  134OSM   H14F14604   3.431   4.899   5.305 -0.3245 -0.0021 -0.4400
  134OSM   H14G14605   3.444   5.005   5.446 -2.3630 -0.0061  2.5356
  134OSM   C15F14606   3.277   5.059   5.321 -0.5166  0.3440 -0.5641
  134OSM   H15F14607   3.271   5.130   5.406  0.2605 -0.4526  0.1764
  134OSM   H15G14608   3.174   5.021   5.302  0.0988 -2.5463  1.1951
  134OSM   C16F14609   3.333   5.128   5.198  0.0317  0.2790  0.7075
  134OSM   H16F14610   3.357   5.049   5.123 -2.9801  0.1021 -0.2202
  134OSM   H16G14611   3.426   5.181   5.227 -1.4419  2.5709  1.5033
  134OSM   C17F14612   3.221   5.217   5.145 -0.7010  0.3623  0.3288
  134OSM   H17F14613   3.211   5.296   5.223  2.3372 -0.7521  2.0165
  134OSM   H17G14614   3.124   5.164   5.140 -1.2573  1.3109  0.7802
  134OSM   C18F14615   3.256   5.271   5.005  0.1300 -0.0126 -0.5778
  134OSM   H18F14616   3.161   5.298   4.954  1.2189  0.6446 -2.3510
  134OSM   H18G14617   3.293   5.187   4.943 -1.9967  0.4629 -2.6296
  134OSM   H18H14618   3.322   5.357   5.026  0.9696 -1.1567  1.8834
  135OSM      N14619   4.145   4.275   7.045 -0.0044  0.4939 -0.4593
  135OSM    C1514620   4.279   4.232   6.999  0.1962 -0.4073 -0.6139
  135OSM   H15A14621   4.362   4.243   7.067 -2.1137 -0.9585  2.5015
  135OSM   H15B14622   4.300   4.275   6.902  0.5983 -0.7062 -0.6635
  135OSM   H15C14623   4.273   4.126   6.979  0.9719 -0.0213 -3.3842
  135OSM    C1414624   4.166   4.418   7.093  0.6570 -0.7070  0.0156
  135OSM   H14A14625   4.253   4.421   7.156  0.1058 -1.3483  0.8352
  135OSM   H14B14626   4.085   4.464   7.148  1.6062  1.0391  0.0308
  135OSM   H14C14627   4.173   4.481   7.006  0.3004  0.0731  0.5335
  135OSM    C1314628   4.057   4.276   6.927 -0.2957  0.3336 -0.3515
  135OSM   H13A14629   4.066   4.184   6.871  1.3633 -0.8960  1.7867
  135OSM   H13B14630   4.086   4.358   6.863  0.2797  0.7626  0.4493
  135OSM   H13C14631   3.952   4.285   6.951 -0.7912 -2.3784 -1.0854
  135OSM    C1214632   4.103   4.180   7.154  0.5719 -0.3546  0.5062
  135OSM   H12A14633   4.009   4.220   7.190  0.4681  0.4072 -0.5758
  135OSM   H12B14634   4.175   4.197   7.233  0.1735 -0.3706  0.8785
  135OSM    C1114635   4.090   4.029   7.123  0.1395 -0.4440  0.1568
  135OSM   H11A14636   4.102   3.987   7.225  0.1036  2.5768  1.4803
  135OSM   H11B14637   4.163   3.990   7.049  0.8556  0.9730  0.0855
  135OSM      P14638   3.906   3.866   7.065  0.3784 -0.2169  0.0274
  135OSM    O1314639   4.010   3.770   7.118  0.4693 -0.0974 -0.0100
  135OSM    O1414640   3.770   3.861   7.120  0.2973  0.2010 -0.0435
  135OSM    O1114641   3.892   3.845   6.911  0.2201 -0.3409  0.1699
  135OSM    O1214642   3.957   4.014   7.078  0.1519 -0.7712 -0.4646
  135OSM    C1S14643   3.931   3.951   6.821 -0.1413 -0.6793  0.4631
  135OSM    H1S14644   4.039   3.979   6.826 -0.6179  2.0906 -1.9886
  135OSM    H1T14645   3.876   4.044   6.848  1.3268  0.8039 -1.2989
  135OSM     NF14646   3.934   4.061   6.595  0.3950 -0.0653  0.4006
  135OSM    HNF14647   3.859   4.125   6.580  0.9878  0.6058  0.2274
  135OSM    C2S14648   3.896   3.936   6.668  0.5299  0.2196 -0.1988
  135OSM    H2S14649   3.947   3.849   6.622  1.3473  0.2984  0.5255
  135OSM    C3S14650   3.744   3.902   6.655 -0.2992  0.2187  0.7168
  135OSM    H3S14651   3.690   3.997   6.672  1.1569  0.8949  1.7312
  135OSM     O314652   3.696   3.815   6.751 -0.4240  0.3799 -0.4540
  135OSM    HO314653   3.755   3.808   6.826 -0.9810 -2.1172 -0.1494
  135OSM    C4S14654   3.723   3.865   6.505 -0.2660 -0.4865  0.2308
  135OSM    H4S14655   3.716   3.957   6.446  0.3650  0.7106  1.9233
  135OSM    C5S14656   3.711   3.742   6.448 -0.7084 -1.2252 -0.3519
  135OSM    H5S14657   3.708   3.651   6.510 -0.4038 -1.3839 -0.5638
  135OSM    C6S14658   3.699   3.715   6.298 -0.3204 -0.0045  0.3839
  135OSM    H6S14659   3.620   3.637   6.295  0.9420 -1.3152  0.0385
  135OSM    H6T14660   3.793   3.670   6.261 -0.3244 -0.2222  0.6352
  135OSM    C7S14661   3.652   3.829   6.212  0.0932 -0.3222 -0.7375
  135OSM    H7S14662   3.740   3.890   6.179  0.7473  0.0179  1.4680
  135OSM    H7T14663   3.596   3.905   6.270 -0.8486 -2.7948  1.7700
  135OSM    C8S14664   3.558   3.788   6.093 -0.0943 -0.7897  0.5481
  135OSM    H8S14665   3.462   3.766   6.145 -0.7692  0.6933 -0.0124
  135OSM    H8T14666   3.578   3.689   6.046 -0.2308 -1.8072  2.5445
  135OSM    C9S14667   3.528   3.887   5.973 -0.1282  0.2411 -0.4347
  135OSM    H9S14668   3.486   3.982   6.013 -2.1219 -0.6037 -0.4388
  135OSM    H9T14669   3.455   3.835   5.908  0.8819 -2.3603  0.3724
  135OSM   C10S14670   3.656   3.912   5.884  0.0660  0.4700 -0.9158
  135OSM   H10S14671   3.686   3.821   5.828 -0.3308 -0.0128 -0.3491
  135OSM   H10T14672   3.738   3.938   5.954 -1.1371 -2.1407  1.6629
  135OSM   C11S14673   3.629   4.026   5.777  0.0177 -0.2453 -0.5742
  135OSM   H11S14674   3.599   4.113   5.839  0.5589 -1.3161  1.2529
  135OSM   H11T14675   3.538   3.999   5.719 -1.0478 -0.7537  1.2777
  135OSM   C12S14676   3.738   4.053   5.674 -0.9144  0.4625 -0.3045
  135OSM   H12S14677   3.769   3.956   5.629  0.6410  1.3301 -1.2002
  135OSM   H12T14678   3.826   4.095   5.727 -1.3626  0.2012  0.6671
  135OSM   C13S14679   3.696   4.133   5.554  0.2842  0.0266 -0.1078
  135OSM   H13S14680   3.634   4.215   5.596  1.3206 -0.6722  3.1373
  135OSM   H13T14681   3.627   4.070   5.495  0.4162  0.2827 -0.5413
  135OSM   C14S14682   3.822   4.175   5.480  0.7305 -0.1268 -0.3113
  135OSM   H14S14683   3.880   4.089   5.441 -2.4223 -2.0884 -1.0567
  135OSM   H14T14684   3.889   4.244   5.537  0.5557 -0.2638  0.0646
  135OSM   C15S14685   3.774   4.245   5.349 -0.6152  0.8197  0.0304
  135OSM   H15S14686   3.692   4.313   5.378 -0.7728  0.0842  1.3728
  135OSM   H15T14687   3.736   4.170   5.277 -1.5768 -1.6165  2.9057
  135OSM   C16S14688   3.891   4.314   5.277  0.0931 -0.1266  0.7906
  135OSM   H16S14689   3.968   4.239   5.249 -0.6837 -0.8836  0.6290
  135OSM   H16T14690   3.941   4.376   5.354  1.9850 -0.2066 -0.3097
  135OSM   C17S14691   3.864   4.393   5.156  0.1513  0.2361  0.7395
  135OSM   H17S14692   3.793   4.471   5.192  0.1922 -0.0933  1.5599
  135OSM   H17T14693   3.805   4.344   5.076  0.3310  1.4255 -0.1495
  135OSM   C18S14694   3.982   4.456   5.096 -0.2014  0.3236  0.1734
  135OSM   H18S14695   3.947   4.507   5.004 -0.2946 -1.4647 -0.8172
  135OSM   H18T14696   4.056   4.377   5.073 -0.6195 -0.3799  1.1421
  135OSM   H18U14697   4.014   4.541   5.160 -1.2342  0.1855  0.9055
  135OSM    C1F14698   4.057   4.103   6.579 -1.1495  0.0504 -0.2195
  135OSM     OF14699   4.151   4.035   6.614 -0.3051 -0.6707 -0.1073
  135OSM    C2F14700   4.083   4.246   6.516 -0.3896  0.0958  0.3155
  135OSM    H2F14701   4.030   4.322   6.578 -1.0852 -0.4618  0.4167
  135OSM    H2G14702   4.026   4.243   6.421 -0.5305 -0.7208  0.4201
  135OSM    C3F14703   4.233   4.273   6.501  0.3665 -0.2399 -0.6680
  135OSM    H3F14704   4.282   4.193   6.442  0.7133  0.2809 -1.0977
  135OSM    H3G14705   4.284   4.269   6.600  1.4602  0.6333 -1.1715
  135OSM    C4F14706   4.267   4.409   6.441  0.1085 -0.1615 -0.0496
  135OSM    H4F14707   4.239   4.490   6.511 -0.9004  0.9316 -1.6472
  135OSM    H4G14708   4.376   4.410   6.418  0.3458  0.7704  1.0504
  135OSM    C5F14709   4.193   4.429   6.314  0.0999  0.1142 -0.2272
  135OSM    H5F14710   4.233   4.527   6.279  0.6547  0.2876  0.8668
  135OSM    H5G14711   4.083   4.424   6.330  0.2127 -0.3373  0.4269
  135OSM    C6F14712   4.229   4.319   6.207  0.3146  0.2731 -0.1157
  135OSM    H6F14713   4.219   4.217   6.250 -0.2685 -0.2424 -1.4166
  135OSM    H6G14714   4.333   4.342   6.178  0.4707 -0.1429  0.0975
  135OSM    C7F14715   4.143   4.323   6.082 -0.5417  0.4131  0.4510
  135OSM    H7F14716   4.148   4.418   6.025 -0.2443  0.8046  1.1072
  135OSM    H7G14717   4.038   4.312   6.119 -0.7739 -1.3397 -0.6269
  135OSM    C8F14718   4.168   4.209   5.981 -0.7669  0.9340  0.0691
  135OSM    H8F14719   4.160   4.114   6.037 -0.3471  1.3854  0.9088
  135OSM    H8G14720   4.273   4.216   5.943 -0.3519 -3.0869 -0.0223
  135OSM    C9F14721   4.054   4.221   5.878 -0.7148  0.0012 -0.9364
  135OSM    H9F14722   3.964   4.164   5.902 -1.9180  2.3407  0.3819
  135OSM   C10F14723   4.064   4.313   5.775  0.6560  0.4013 -0.3446
  135OSM   H10F14724   3.989   4.309   5.694  1.1306 -0.1294 -0.7627
  135OSM   C11F14725   4.179   4.405   5.743 -0.1186 -0.4772 -0.0014
  135OSM   H11F14726   4.244   4.420   5.833  0.1175 -0.4513 -0.1745
  135OSM   H11G14727   4.142   4.506   5.715  0.9977  0.1589  0.6896
  135OSM   C12F14728   4.264   4.342   5.637 -0.6854 -0.3142  0.6282
  135OSM   H12F14729   4.269   4.233   5.660  1.0979 -0.4522 -0.2788
  135OSM   H12G14730   4.368   4.380   5.633 -0.6023 -0.5409  0.6254
  135OSM   C13F14731   4.208   4.361   5.495 -0.3066 -0.3113  0.2033
  135OSM   H13F14732   4.204   4.469   5.469  1.7007 -0.4069 -0.6333
  135OSM   H13G14733   4.108   4.313   5.483 -0.0872 -0.2864 -2.1179
  135OSM   C14F14734   4.302   4.291   5.393 -0.0374 -0.1643  0.0405
  135OSM   H14F14735   4.300   4.182   5.415 -0.7768  0.2512  2.1995
  135OSM   H14G14736   4.401   4.335   5.416 -0.6633  0.7510  1.0428
  135OSM   C15F14737   4.268   4.326   5.251 -0.2946 -1.0866 -0.0247
  135OSM   H15F14738   4.242   4.433   5.259  3.8120 -0.0568  2.9464
  135OSM   H15G14739   4.179   4.264   5.227 -0.3912 -1.0415  0.2211
  135OSM   C16F14740   4.392   4.308   5.147  0.5764  0.1343 -0.9269
  135OSM   H16F14741   4.418   4.201   5.139 -0.6545 -0.2528 -0.0455
  135OSM   H16G14742   4.473   4.374   5.185  0.3459 -0.9693  1.6657
  135OSM   C17F14743   4.351   4.359   5.005 -0.5015 -0.0338  0.3798
  135OSM   H17F14744   4.289   4.451   5.011  3.8360  3.3796 -1.5685
  135OSM   H17G14745   4.294   4.282   4.948 -1.4336  0.2071  0.9544
  135OSM   C18F14746   4.471   4.397   4.916  0.8261 -0.1622  0.0822
  135OSM   H18F14747   4.435   4.400   4.811  2.3417 -1.7054 -0.5269
  135OSM   H18G14748   4.555   4.326   4.933  0.3860 -0.1155  2.9766
  135OSM   H18H14749   4.504   4.497   4.949 -4.7692  1.6442  1.2576
  136OSM      N14750   0.205   4.374   7.449  0.2288 -0.2645 -0.9515
  136OSM    C1514751   0.231   4.422   7.592  0.8728  0.0239  0.5402
  136OSM   H15A14752   0.142   4.409   7.651 -1.4081 -0.2689 -2.6773
  136OSM   H15B14753   0.245   4.529   7.597 -0.9292  0.2581  1.4484
  136OSM   H15C14754   0.313   4.368   7.636  0.4426 -0.5712  0.6130
  136OSM    C1414755   0.084   4.442   7.405  0.1870  0.1086  0.1387
  136OSM   H14A14756   0.104   4.547   7.388  1.8903 -0.3591 -1.1469
  136OSM   H14B14757   0.004   4.410   7.469 -0.5919  0.1731 -0.7801
  136OSM   H14C14758   0.059   4.423   7.302 -0.0044  0.2407  0.1613
  136OSM    C1314759   0.321   4.414   7.369 -0.5428  0.4941  0.7262
  136OSM   H13A14760   0.416   4.377   7.405  1.5693  2.2264 -2.6075
  136OSM   H13B14761   0.320   4.522   7.370  3.2558  0.6866 -0.6595
  136OSM   H13C14762   0.312   4.373   7.270 -0.1132 -2.5837  1.8497
  136OSM    C1214763   0.178   4.221   7.447 -0.5586  0.1151 -0.2705
  136OSM   H12A14764   0.082   4.208   7.495 -0.8124 -0.3806 -0.9017
  136OSM   H12B14765   0.248   4.163   7.505  0.8264  0.8250 -1.1835
  136OSM    C1114766   0.189   4.150   7.314  0.2951  0.5208 -0.3117
  136OSM   H11A14767   0.176   4.041   7.331  2.0739  0.3693  0.2962
  136OSM   H11B14768   0.293   4.154   7.277  0.5963 -3.1028 -0.2531
  136OSM      P14769  -0.046   4.164   7.184  0.0125  0.4413 -0.1806
  136OSM    O1314770  -0.067   4.018   7.195  0.0335  0.6157  0.0216
  136OSM    O1414771  -0.137   4.245   7.261  0.5882  0.6133  0.4794
  136OSM    O1114772  -0.056   4.197   7.034  0.3492 -0.2653  0.0757
  136OSM    O1214773   0.103   4.211   7.221 -0.0060  0.3713 -0.2769
  136OSM    C1S14774  -0.084   4.328   6.986  0.3432  0.2473  0.3150
  136OSM    H1S14775  -0.013   4.394   7.039 -1.2108  0.1744  2.6172
  136OSM    H1T14776  -0.182   4.359   7.027 -0.0150 -2.7508  1.9984
  136OSM     NF14777  -0.036   4.500   6.821 -0.5156 -0.4713 -0.2043
  136OSM    HNF14778  -0.110   4.565   6.835 -1.4230 -1.1613 -1.5652
  136OSM    C2S14779  -0.073   4.357   6.832 -0.6464  0.1346  0.1170
  136OSM    H2S14780   0.009   4.296   6.789  1.1123  2.7647 -0.5167
  136OSM    C3S14781  -0.210   4.314   6.774 -0.2581  0.2745 -0.1243
  136OSM    H3S14782  -0.285   4.373   6.831  1.5124  0.1040  2.5548
  136OSM     O314783  -0.228   4.176   6.809 -0.4281 -0.6099 -0.5343
  136OSM    HO314784  -0.154   4.157   6.867 -0.2028 -0.9337 -0.9293
  136OSM    C4S14785  -0.230   4.345   6.626 -0.2403 -0.3376 -0.5999
  136OSM    H4S14786  -0.280   4.442   6.611  0.3592 -0.1562 -1.4661
  136OSM    C5S14787  -0.183   4.273   6.522 -0.4825 -0.1936  0.3735
  136OSM    H5S14788  -0.126   4.180   6.535  1.5081  1.0157  0.7182
  136OSM    C6S14789  -0.227   4.286   6.376 -0.2550 -0.6528  0.6950
  136OSM    H6S14790  -0.137   4.311   6.316 -0.4967 -1.4567 -0.0237
  136OSM    H6T14791  -0.304   4.365   6.367  1.7469  1.4447  1.0192
  136OSM    C7S14792  -0.287   4.152   6.334  1.3086 -0.6789 -0.1521
  136OSM    H7S14793  -0.377   4.125   6.394  0.1677 -1.6218 -2.1841
  136OSM    H7T14794  -0.208   4.076   6.352  1.9144 -0.2658 -0.9915
  136OSM    C8S14795  -0.326   4.143   6.187  0.6907  0.5031  0.7181
  136OSM    H8S14796  -0.241   4.130   6.117  0.1518  2.4273 -0.3663
  136OSM    H8T14797  -0.383   4.237   6.168 -0.5130 -0.5148 -0.9914
  136OSM    C9S14798  -0.428   4.023   6.166  0.2963  0.1655 -0.3163
  136OSM    H9S14799  -0.521   4.022   6.228 -0.7658 -2.8631 -1.7559
  136OSM    H9T14800  -0.377   3.927   6.190 -0.4305 -0.2584 -0.4188
  136OSM   C10S14801  -0.492   4.015   6.019 -0.0140  0.2461  0.1897
  136OSM   H10S14802  -0.560   4.102   6.003  0.2476  0.1639 -1.6376
  136OSM   H10T14803  -0.554   3.924   6.021  0.2424  0.0767  0.4607
  136OSM   C11S14804  -0.396   4.008   5.903 -0.0485  0.6025  0.4971
  136OSM   H11S14805  -0.360   3.903   5.910 -0.2613  0.5281  0.5010
  136OSM   H11T14806  -0.317   4.083   5.921  0.4699 -0.2087  1.7236
  136OSM   C12S14807  -0.464   4.026   5.762 -0.4200  0.6794 -0.6371
  136OSM   H12S14808  -0.490   4.134   5.754 -0.9395  0.8076  2.1054
  136OSM   H12T14809  -0.560   3.973   5.776  0.7246 -1.0213  1.1845
  136OSM   C13S14810  -0.382   3.976   5.640  0.3024  0.4103 -0.2041
  136OSM   H13S14811  -0.361   3.869   5.660  2.6316  0.4275 -2.1244
  136OSM   H13T14812  -0.289   4.038   5.634 -0.3838  1.4932  0.0701
  136OSM   C14S14813  -0.452   3.978   5.508  0.4268 -0.2943 -0.1119
  136OSM   H14S14814  -0.545   3.917   5.514  1.5254 -2.4123 -2.8110
  136OSM   H14T14815  -0.390   3.926   5.432  0.1376  0.4595 -0.8827
  136OSM   C15S14816  -0.486   4.120   5.466  0.3253  0.1389 -0.4153
  136OSM   H15S14817  -0.552   4.170   5.540 -0.9695 -1.3111 -0.5299
  136OSM   H15T14818  -0.538   4.124   5.368 -0.5668  1.3525  0.0754
  136OSM   C16S14819  -0.362   4.210   5.435 -0.0225  0.0111 -0.1664
  136OSM   H16S14820  -0.289   4.167   5.363  0.6200 -1.2321  1.1860
  136OSM   H16T14821  -0.298   4.206   5.525  0.0235 -2.2885 -0.2366
  136OSM   C17S14822  -0.408   4.341   5.392 -0.0347 -0.3308 -0.6973
  136OSM   H17S14823  -0.470   4.393   5.468  1.6274 -0.8183  1.0750
  136OSM   H17T14824  -0.477   4.331   5.306  2.0426 -0.4088 -2.4480
  136OSM   C18S14825  -0.296   4.435   5.360 -0.0703  0.1816 -0.8485
  136OSM   H18S14826  -0.243   4.389   5.274  1.1826 -1.1368  0.5717
  136OSM   H18T14827  -0.227   4.439   5.447  0.1418 -0.1536 -0.9990
  136OSM   H18U14828  -0.321   4.542   5.344  1.9750  0.5815 -1.7665
  136OSM    C1F14829   0.088   4.548   6.826  0.3574 -0.2158  0.4543
  136OSM     OF14830   0.180   4.480   6.853 -0.4968  0.1751 -0.0720
  136OSM    C2F14831   0.100   4.694   6.800 -0.4521 -0.8895  0.0302
  136OSM    H2F14832   0.093   4.752   6.894  1.0901  3.7569 -2.3875
  136OSM    H2G14833   0.012   4.724   6.740 -0.7484 -0.8141  0.5028
  136OSM    C3F14834   0.237   4.732   6.734 -0.0776 -0.1735 -0.7924
  136OSM    H3F14835   0.320   4.679   6.784 -0.0368 -0.1252 -0.8081
  136OSM    H3G14836   0.250   4.843   6.742  1.5070 -0.3071 -1.1128
  136OSM    C4F14837   0.243   4.682   6.587  0.2208 -0.0944  0.6196
  136OSM    H4F14838   0.153   4.711   6.529  1.8809  0.8227 -1.6525
  136OSM    H4G14839   0.244   4.571   6.591  2.3706 -0.2985 -2.1615
  136OSM    C5F14840   0.368   4.734   6.512  0.5885 -0.1790  1.1404
  136OSM    H5F14841   0.442   4.749   6.595 -0.0934  1.6092  1.4826
  136OSM    H5G14842   0.340   4.837   6.480 -1.4052 -1.3325 -1.0839
  136OSM    C6F14843   0.402   4.643   6.392 -0.2036  0.7881  0.5186
  136OSM    H6F14844   0.396   4.534   6.414  0.2921  0.8293  0.8950
  136OSM    H6G14845   0.511   4.661   6.382 -0.3797  1.7407  0.2398
  136OSM    C7F14846   0.322   4.669   6.258  0.0295 -0.0421  0.0314
  136OSM    H7F14847   0.317   4.778   6.235 -1.3350 -0.3710 -1.4201
  136OSM    H7G14848   0.217   4.633   6.270 -0.3701  0.5841 -1.4186
  136OSM    C8F14849   0.389   4.616   6.134 -0.2956  0.4701  0.1708
  136OSM    H8F14850   0.313   4.630   6.055 -0.5203  0.9180  0.4580
  136OSM    H8G14851   0.407   4.507   6.128 -0.1597  0.5278 -0.5722
  136OSM    C9F14852   0.515   4.685   6.096 -0.1180  0.5196  0.2510
  136OSM    H9F14853   0.557   4.753   6.170 -0.5222  0.2562  0.7297
  136OSM   C10F14854   0.566   4.677   5.973 -0.3461 -0.1230  0.0881
  136OSM   H10F14855   0.665   4.724   5.966 -1.0433  1.5004  0.6777
  136OSM   C11F14856   0.520   4.600   5.852  0.2375 -0.6694 -0.1018
  136OSM   H11F14857   0.412   4.575   5.863  0.3750 -1.6397 -0.7917
  136OSM   H11G14858   0.583   4.508   5.849  1.2799  0.0383 -0.4860
  136OSM   C12F14859   0.548   4.684   5.718  0.9226 -0.7087  0.2137
  136OSM   H12F14860   0.654   4.717   5.710  0.6659  0.0541 -0.0782
  136OSM   H12G14861   0.473   4.765   5.711  0.9166 -0.8051 -1.0879
  136OSM   C13F14862   0.505   4.590   5.597  0.4784  0.0012 -0.2992
  136OSM   H13F14863   0.398   4.564   5.588  0.8275 -1.5078 -0.4848
  136OSM   H13G14864   0.565   4.497   5.613 -0.4386 -0.7476 -1.0989
  136OSM   C14F14865   0.518   4.661   5.462 -0.7058 -0.8542  0.3827
  136OSM   H14F14866   0.460   4.755   5.456 -0.0091 -0.2944  1.8629
  136OSM   H14G14867   0.482   4.600   5.376 -0.6132 -2.1771  1.2458
  136OSM   C15F14868   0.667   4.687   5.448 -0.0207 -0.2991  1.4310
  136OSM   H15F14869   0.737   4.605   5.475  0.1699 -1.5509 -2.3244
  136OSM   H15G14870   0.701   4.765   5.520  1.7003 -0.1174  0.4726
  136OSM   C16F14871   0.704   4.730   5.303  0.3079 -0.1720  0.2284
  136OSM   H16F14872   0.618   4.772   5.247 -0.5093  0.8308  2.1438
  136OSM   H16G14873   0.728   4.639   5.244 -0.4228  0.3391 -0.8934
  136OSM   C17F14874   0.821   4.833   5.307 -0.0985  0.0487  0.2223
  136OSM   H17F14875   0.893   4.789   5.380 -1.7464 -1.5072  0.9895
  136OSM   H17G14876   0.788   4.923   5.363  1.9743 -0.1279  1.8500
  136OSM   C18F14877   0.889   4.864   5.176 -0.8282 -0.4556  0.1398
  136OSM   H18F14878   0.981   4.920   5.202 -0.6358 -1.5059  1.8758
  136OSM   H18G14879   0.820   4.908   5.102 -0.4471 -0.2426 -0.0925
  136OSM   H18H14880   0.945   4.779   5.131 -0.5122  0.8319 -2.0293
  137OSM      N14881   3.691   2.624   7.109  0.1813  0.1404  0.0844
  137OSM    C1514882   3.672   2.473   7.100 -0.2667 -0.5087 -0.1282
  137OSM   H15A14883   3.695   2.429   7.196 -1.9940 -1.1131  0.0546
  137OSM   H15B14884   3.738   2.432   7.025  1.2304  0.7774  0.4467
  137OSM   H15C14885   3.570   2.453   7.071  0.4731  0.4428 -3.9244
  137OSM    C1414886   3.586   2.694   7.192  0.0072  0.4144 -0.5621
  137OSM   H14A14887   3.492   2.703   7.139 -1.1941  1.2602  1.5679
  137OSM   H14B14888   3.628   2.788   7.224  1.7104 -0.7794  0.9095
  137OSM   H14C14889   3.575   2.635   7.282  1.9861  0.2784 -0.3646
  137OSM    C1314890   3.822   2.656   7.178  0.4188  0.0227  0.0827
  137OSM   H13A14891   3.917   2.638   7.130  1.3468  3.0287  0.5740
  137OSM   H13B14892   3.825   2.594   7.266 -0.4336 -0.1956 -0.0254
  137OSM   H13C14893   3.824   2.756   7.218  0.0396 -0.4480  1.3265
  137OSM    C1214894   3.679   2.688   6.968 -0.1798  0.5695 -0.4201
  137OSM   H12A14895   3.759   2.650   6.907 -0.6444  2.4063 -2.2889
  137OSM   H12B14896   3.683   2.795   6.984  1.5999  0.3557  0.8075
  137OSM    C1114897   3.551   2.650   6.898  0.5871 -0.4971 -0.2819
  137OSM   H11A14898   3.542   2.541   6.883 -3.4484 -0.0306 -2.6640
  137OSM   H11B14899   3.559   2.696   6.797  1.8601  0.6184  0.2805
  137OSM      P14900   3.299   2.616   6.989  0.3245 -0.0390 -0.3312
  137OSM    O1314901   3.360   2.507   7.069  0.2543 -0.0847 -0.7485
  137OSM    O1414902   3.191   2.696   7.047 -0.9662 -0.0457  0.3318
  137OSM    O1114903   3.264   2.549   6.854 -0.2781  0.2197  0.2176
  137OSM    O1214904   3.425   2.713   6.946  0.2814  0.3955 -0.2002
  137OSM    C1S14905   3.194   2.607   6.748  0.1024  0.1415 -0.6909
  137OSM    H1S14906   3.205   2.717   6.757  0.7599 -0.0485  1.5783
  137OSM    H1T14907   3.084   2.590   6.755  0.0457  0.5486 -0.5723
  137OSM     NF14908   3.162   2.600   6.501  0.3368 -0.0773 -0.2123
  137OSM    HNF14909   3.110   2.532   6.450 -0.3177  0.8869 -0.8390
  137OSM    C2S14910   3.233   2.546   6.611 -0.0029  0.2674 -0.6388
  137OSM    H2S14911   3.340   2.572   6.595  0.2608  0.0966  0.7693
  137OSM    C3S14912   3.233   2.387   6.606  0.3835  0.1244  0.5020
  137OSM    H3S14913   3.127   2.356   6.594  0.6468  0.1056 -2.5736
  137OSM     O314914   3.262   2.314   6.724 -0.4726 -0.1719  0.0862
  137OSM    HO314915   3.280   2.390   6.779  1.3097  0.1433 -0.8718
  137OSM    C4S14916   3.306   2.331   6.484  0.2003  0.7765 -0.0989
  137OSM    H4S14917   3.248   2.317   6.392 -2.2347  1.1026  1.3015
  137OSM    C5S14918   3.441   2.307   6.487  0.7066 -0.3344  0.5272
  137OSM    H5S14919   3.499   2.309   6.580  0.8917  0.8121  0.3984
  137OSM    C6S14920   3.519   2.259   6.362  0.1621  0.3313 -0.6452
  137OSM    H6S14921   3.548   2.156   6.392 -1.7971 -0.3112 -0.8150
  137OSM    H6T14922   3.611   2.319   6.342  0.0010  0.8251  0.0469
  137OSM    C7S14923   3.453   2.254   6.222  0.2273 -0.1358  0.2375
  137OSM    H7S14924   3.346   2.223   6.228 -0.0412  0.5044 -1.0417
  137OSM    H7T14925   3.503   2.170   6.169  0.5444  1.0261 -1.3696
  137OSM    C8S14926   3.479   2.378   6.142 -0.1288  0.8654  0.3041
  137OSM    H8S14927   3.587   2.386   6.121  0.0282 -2.7746 -0.9718
  137OSM    H8T14928   3.446   2.470   6.195  0.5098  0.2439  1.8003
  137OSM    C9S14929   3.416   2.381   6.000 -0.0290 -0.5530  0.7599
  137OSM    H9S14930   3.307   2.358   6.004 -0.3638 -0.0270 -2.5273
  137OSM    H9T14931   3.452   2.300   5.933 -3.1716 -0.9624 -0.6085
  137OSM   C10S14932   3.447   2.508   5.920 -0.1982  0.6129 -0.4066
  137OSM   H10S14933   3.554   2.526   5.901 -0.1678  2.3736  1.0516
  137OSM   H10T14934   3.416   2.595   5.983 -1.5034  0.0897 -0.2832
  137OSM   C11S14935   3.363   2.504   5.792  0.3595 -0.8627 -0.0076
  137OSM   H11S14936   3.259   2.481   5.822 -0.2782  0.6846 -0.8921
  137OSM   H11T14937   3.402   2.415   5.738  1.0728  0.5877 -2.0144
  137OSM   C12S14938   3.373   2.630   5.701 -0.1547  0.0264  0.3628
  137OSM   H12S14939   3.477   2.668   5.697 -0.6931  1.4393 -1.1146
  137OSM   H12T14940   3.315   2.710   5.751 -0.0520  0.3127  0.0251
  137OSM   C13S14941   3.327   2.601   5.560  0.3598 -0.6388  0.7395
  137OSM   H13S14942   3.230   2.546   5.565 -0.4241  0.6588  0.2053
  137OSM   H13T14943   3.394   2.531   5.506  0.5598 -0.1735  0.3865
  137OSM   C14S14944   3.304   2.734   5.488 -0.0197 -0.2849 -0.7991
  137OSM   H14S14945   3.396   2.795   5.478 -1.1575  1.7569  0.4396
  137OSM   H14T14946   3.230   2.800   5.538 -1.4285 -1.1404 -1.6936
  137OSM   C15S14947   3.242   2.701   5.349 -0.7426 -0.3160  0.4129
  137OSM   H15S14948   3.205   2.797   5.308  1.3272  1.0904  1.6288
  137OSM   H15T14949   3.150   2.642   5.363 -1.6232  0.3860 -1.9508
  137OSM   C16S14950   3.332   2.631   5.251 -0.2023 -0.2541 -0.1538
  137OSM   H16S14951   3.283   2.645   5.153  0.5832  1.6820 -0.3037
  137OSM   H16T14952   3.337   2.523   5.277  0.2032 -0.2245 -0.0940
  137OSM   C17S14953   3.471   2.682   5.245 -0.2594  0.2367  0.2606
  137OSM   H17S14954   3.524   2.612   5.178 -0.5112 -1.1701  1.4798
  137OSM   H17T14955   3.511   2.672   5.348 -3.3473  3.0886  1.9368
  137OSM   C18S14956   3.484   2.824   5.194 -0.2930  0.3929  0.1965
  137OSM   H18S14957   3.412   2.850   5.113  0.6375  0.0739 -0.7559
  137OSM   H18T14958   3.585   2.836   5.150 -0.0136 -2.4074 -0.0623
  137OSM   H18U14959   3.465   2.889   5.282 -0.3751 -1.0377  1.2675
  137OSM    C1F14960   3.148   2.729   6.473 -0.0836 -1.1796 -0.3090
  137OSM     OF14961   3.214   2.816   6.540 -0.2077  0.4298 -0.2761
  137OSM    C2F14962   3.068   2.762   6.352  0.2699 -0.7091 -0.4288
  137OSM    H2F14963   2.964   2.762   6.390  0.9112 -1.2863  1.4566
  137OSM    H2G14964   3.076   2.673   6.287 -3.4545 -0.8834 -0.8558
  137OSM    C3F14965   3.106   2.893   6.271 -0.1046  0.3336 -0.2371
  137OSM    H3F14966   3.110   2.983   6.337 -1.5271  1.2851 -1.3897
  137OSM    H3G14967   3.032   2.908   6.189  0.0918  1.9893 -0.1483
  137OSM    C4F14968   3.246   2.886   6.206 -0.1961  0.6384  0.1140
  137OSM    H4F14969   3.250   2.801   6.134  0.6602  1.3017 -0.6376
  137OSM    H4G14970   3.319   2.859   6.286  1.5662 -1.0143 -1.9310
  137OSM    C5F14971   3.293   3.030   6.153  0.4836  0.4146  0.1385
  137OSM    H5F14972   3.312   3.085   6.247 -1.3232 -2.4596  2.3790
  137OSM    H5G14973   3.203   3.079   6.108  0.2052  0.9160  1.2056
  137OSM    C6F14974   3.417   3.030   6.065  0.0601 -0.1198 -0.2150
  137OSM    H6F14975   3.503   2.988   6.122 -0.2248  1.3304  1.3507
  137OSM    H6G14976   3.445   3.135   6.039  0.5553  0.3627  2.0669
  137OSM    C7F14977   3.404   2.937   5.938  0.4602 -0.5901 -0.4414
  137OSM    H7F14978   3.328   2.858   5.957 -1.7135  0.8162 -2.5998
  137OSM    H7G14979   3.500   2.885   5.915  0.0455 -0.7623 -1.9252
  137OSM    C8F14980   3.349   3.022   5.826 -0.5813 -0.7401  0.3265
  137OSM    H8F14981   3.258   3.076   5.859  0.0075  2.1243 -2.2981
  137OSM    H8G14982   3.322   2.956   5.740 -1.0187  1.2704 -1.1369
  137OSM    C9F14983   3.441   3.135   5.778  0.1090 -0.8709  0.6438
  137OSM    H9F14984   3.531   3.146   5.840  0.1034  1.3989  0.3176
  137OSM   C10F14985   3.415   3.223   5.673 -0.5915  0.6091 -0.0237
  137OSM   H10F14986   3.499   3.283   5.637  2.0887 -2.5610  0.4283
  137OSM   C11F14987   3.309   3.208   5.568 -0.1675 -0.0076  0.0861
  137OSM   H11F14988   3.216   3.264   5.591 -1.4464 -1.8401 -0.4393
  137OSM   H11G14989   3.278   3.102   5.566  0.9325 -0.3492 -1.7353
  137OSM   C12F14990   3.359   3.260   5.429 -0.2241 -0.0904 -0.3233
  137OSM   H12F14991   3.375   3.370   5.435 -1.9610  0.3113 -2.0996
  137OSM   H12G14992   3.277   3.245   5.356 -0.4906  2.1530 -0.5613
  137OSM   C13F14993   3.477   3.189   5.382 -0.3166 -0.3199  0.3289
  137OSM   H13F14994   3.466   3.079   5.387  2.4946 -0.7178 -0.1674
  137OSM   H13G14995   3.569   3.219   5.437 -1.3366  1.2599  1.2246
  137OSM   C14F14996   3.497   3.224   5.228 -0.2317 -0.3226  0.6905
  137OSM   H14F14997   3.402   3.184   5.185 -0.2119 -0.2213  0.5512
  137OSM   H14G14998   3.573   3.164   5.175 -1.2364 -0.3327 -0.8095
  137OSM   C15F14999   3.504   3.373   5.192 -0.2493 -0.5769 -0.2529
  137OSM   H15F15000   3.595   3.426   5.229 -1.5205  0.5170  1.4583
  137OSM   H15G15001   3.419   3.436   5.225 -1.0821 -1.1601 -1.2098
  137OSM   C16F15002   3.508   3.404   5.042  0.3220 -0.5503  0.7520
  137OSM   H16F15003   3.576   3.330   4.996  0.2986  0.5639 -1.1876
  137OSM   H16G15004   3.553   3.505   5.031 -0.3882 -0.4702 -2.1217
  137OSM   C17F15005   3.373   3.397   4.959  0.0465 -0.4373 -0.2469
  137OSM   H17F15006   3.287   3.448   5.006 -0.3557  1.4320 -2.7824
  137OSM   H17G15007   3.338   3.291   4.957 -3.0682  0.4876 -0.3930
  137OSM   C18F15008   3.403   3.452   4.823 -0.5759 -0.3779  0.3515
  137OSM   H18F15009   3.376   3.559   4.814  1.8151  0.4279  1.5626
  137OSM   H18G15010   3.344   3.392   4.751 -0.4746 -0.0009 -0.0421
  137OSM   H18H15011   3.510   3.442   4.794 -0.4024  0.2474  0.7650
  138OSM      N15012   5.057   2.538   7.566  0.5023 -0.1416 -0.7262
  138OSM    C1515013   5.036   2.681   7.588 -0.0425  0.1213  0.0317
  138OSM   H15A15014   4.964   2.699   7.667  0.2642 -0.3876  0.4313
  138OSM   H15B15015   4.999   2.740   7.505  2.7032 -0.5192 -1.7895
  138OSM   H15C15016   5.122   2.738   7.619  0.0352  0.9258 -1.5378
  138OSM    C1415017   5.175   2.522   7.476 -0.2227  0.1691 -0.8551
  138OSM   H14A15018   5.151   2.575   7.385 -1.7086  1.1493  0.0740
  138OSM   H14B15019   5.196   2.417   7.462 -1.7983 -0.2712 -0.1546
  138OSM   H14C15020   5.265   2.556   7.525  0.6294 -3.4758  0.4443
  138OSM    C1315021   5.092   2.482   7.707  0.4174 -0.0248 -0.1569
  138OSM   H13A15022   5.028   2.524   7.782  0.8154 -0.1470  0.2576
  138OSM   H13B15023   5.188   2.520   7.738  0.3734 -0.7868  0.9735
  138OSM   H13C15024   5.086   2.375   7.720  0.5526  0.0503  0.5656
  138OSM    C1215025   4.927   2.471   7.519 -0.2217 -0.1671 -0.1088
  138OSM   H12A15026   4.842   2.491   7.583 -1.5940  1.2211 -2.2138
  138OSM   H12B15027   4.959   2.368   7.520  0.9345 -0.0074  4.9842
  138OSM    C1115028   4.881   2.506   7.380 -0.2650 -0.8817 -0.1466
  138OSM   H11A15029   4.947   2.464   7.301  0.5513  0.1277 -0.0183
  138OSM   H11B15030   4.886   2.617   7.369 -0.6429 -0.7992  0.5047
  138OSM      P15031   4.709   2.298   7.336  0.0967 -0.3934 -0.1257
  138OSM    O1315032   4.772   2.217   7.444  0.0921 -0.3271 -0.1900
  138OSM    O1415033   4.565   2.292   7.316  0.2959  0.0019  0.0982
  138OSM    O1115034   4.785   2.269   7.203 -0.0702  0.2922  0.0715
  138OSM    O1215035   4.745   2.452   7.360  0.1745 -0.0775 -0.4393
  138OSM    C1S15036   4.746   2.342   7.083 -0.8733  0.0123  0.5753
  138OSM    H1S15037   4.765   2.449   7.103  0.3237 -0.5196  2.6336
  138OSM    H1T15038   4.638   2.336   7.058 -0.1949 -1.2463 -2.4815
  138OSM     NF15039   4.806   2.401   6.847 -0.0547 -0.0885 -0.0567
  138OSM    HNF15040   4.762   2.355   6.771 -0.1785 -1.9634  1.0661
  138OSM    C2S15041   4.827   2.307   6.955  0.0140  0.3456 -0.0064
  138OSM    H2S15042   4.935   2.314   6.981 -0.1462  0.3637  0.6856
  138OSM    C3S15043   4.794   2.156   6.913 -0.1095  0.4843  0.0563
  138OSM    H3S15044   4.689   2.163   6.877 -0.3101 -0.9558  0.3096
  138OSM     O315045   4.779   2.059   7.017  0.0804 -0.0228 -0.1030
  138OSM    HO315046   4.780   2.118   7.093  0.0350  0.4924 -0.4976
  138OSM    C4S15047   4.886   2.105   6.807  0.8607 -0.5546 -0.0102
  138OSM    H4S15048   4.856   2.141   6.707 -1.9752  1.4947  1.4093
  138OSM    C5S15049   4.992   2.025   6.825 -0.2067  0.0598  0.2629
  138OSM    H5S15050   5.015   1.990   6.926 -1.0032  1.0109  0.7901
  138OSM    C6S15051   5.088   1.979   6.708  0.5861 -0.3095 -0.0757
  138OSM    H6S15052   5.110   1.872   6.730 -3.3537 -1.6361 -1.6638
  138OSM    H6T15053   5.183   2.036   6.710  0.7601 -0.5563  2.4628
  138OSM    C7S15054   5.027   1.978   6.563  0.3136  0.2641 -0.6021
  138OSM    H7S15055   5.010   2.086   6.541  4.2490  0.8886 -1.3766
  138OSM    H7T15056   4.929   1.927   6.558  0.4357 -0.1106  0.3916
  138OSM    C8S15057   5.121   1.920   6.456  0.1213 -0.6401  0.2010
  138OSM    H8S15058   5.147   1.813   6.476 -0.4713 -0.9386 -0.5712
  138OSM    H8T15059   5.207   1.988   6.468 -1.9551  2.3222 -0.5493
  138OSM    C9S15060   5.068   1.935   6.312 -0.1249  0.6173 -0.2519
  138OSM    H9S15061   5.064   2.045   6.293  0.5081  0.3912 -1.9183
  138OSM    H9T15062   4.966   1.892   6.310 -1.0986  2.7037  1.3376
  138OSM   C10S15063   5.148   1.869   6.203 -0.6086  0.6628 -0.7203
  138OSM   H10S15064   5.135   1.762   6.232  1.9334  0.6791  0.7816
  138OSM   H10T15065   5.257   1.888   6.212 -0.3730 -0.5551 -0.7687
  138OSM   C11S15066   5.095   1.896   6.063  0.2297  0.4129 -0.4313
  138OSM   H11S15067   5.063   2.000   6.040 -1.5699  0.3062  1.3148
  138OSM   H11T15068   4.995   1.850   6.053  0.8081 -0.8551 -0.6233
  138OSM   C12S15069   5.191   1.837   5.957 -0.2021 -0.2270 -0.7772
  138OSM   H12S15070   5.211   1.730   5.976  0.6819 -0.1328 -1.1030
  138OSM   H12T15071   5.285   1.891   5.982 -0.3340 -1.2476  2.2342
  138OSM   C13S15072   5.144   1.874   5.812  0.1002  0.1197 -0.1401
  138OSM   H13S15073   5.151   1.985   5.810 -2.2895  0.3061 -0.8582
  138OSM   H13T15074   5.044   1.826   5.810 -0.0496  0.2469  2.2002
  138OSM   C14S15075   5.245   1.810   5.716 -0.2910 -0.5573  0.3780
  138OSM   H14S15076   5.262   1.705   5.748  0.1699 -0.6708 -0.2165
  138OSM   H14T15077   5.345   1.850   5.740  0.2344 -2.0563  0.7882
  138OSM   C15S15078   5.204   1.822   5.575  0.3109 -0.4240  0.2071
  138OSM   H15S15079   5.187   1.926   5.538  0.8322 -0.9216 -1.5255
  138OSM   H15T15080   5.105   1.772   5.566 -0.4133  0.3577  2.8820
  138OSM   C16S15081   5.302   1.759   5.477  0.5146 -0.2778 -0.3946
  138OSM   H16S15082   5.319   1.651   5.498 -1.5264 -0.6619 -0.4988
  138OSM   H16T15083   5.402   1.797   5.509  0.0464  0.1306  0.6414
  138OSM   C17S15084   5.278   1.775   5.322 -0.4981 -0.4752 -0.8514
  138OSM   H17S15085   5.379   1.760   5.278  0.9903  0.2131  2.0585
  138OSM   H17T15086   5.242   1.878   5.301 -2.6704 -1.0004  0.0464
  138OSM   C18S15087   5.173   1.672   5.262  0.2962  0.1753  0.0345
  138OSM   H18S15088   5.079   1.666   5.321  0.7804 -1.6289  0.6750
  138OSM   H18T15089   5.222   1.573   5.264  1.1389  0.5889  0.8635
  138OSM   H18U15090   5.141   1.703   5.160 -0.7305  1.2290  0.6402
  138OSM    C1F15091   4.835   2.531   6.848 -0.0371 -0.4964 -0.2367
  138OSM     OF15092   4.893   2.588   6.942 -0.7082  0.1119 -0.0912
  138OSM    C2F15093   4.804   2.607   6.723 -0.2515 -0.3172  0.2423
  138OSM    H2F15094   4.812   2.714   6.753  1.6147 -0.7185  1.3573
  138OSM    H2G15095   4.699   2.583   6.699 -1.1947  3.0840  0.4877
  138OSM    C3F15096   4.902   2.581   6.603 -0.0227  0.7646 -0.0518
  138OSM    H3F15097   4.894   2.472   6.585 -0.8604  0.1540  3.4494
  138OSM    H3G15098   5.010   2.590   6.630 -0.3321  0.8032  1.1946
  138OSM    C4F15099   4.864   2.662   6.481 -0.2022 -0.3712 -0.0526
  138OSM    H4F15100   4.855   2.771   6.502 -1.4454 -0.4434 -0.1166
  138OSM    H4G15101   4.763   2.622   6.456  0.0881 -1.8848  1.0610
  138OSM    C5F15102   4.954   2.648   6.355  0.4965 -0.2071 -0.1269
  138OSM    H5F15103   4.954   2.539   6.329  0.8162 -0.9286  2.6154
  138OSM    H5G15104   5.058   2.678   6.383 -0.3726  2.6271  0.3407
  138OSM    C6F15105   4.904   2.739   6.246 -0.2528  0.3672 -0.3985
  138OSM    H6F15106   4.894   2.841   6.288 -1.2342 -0.5524  1.8018
  138OSM    H6G15107   4.803   2.701   6.219 -1.2989  0.8607  2.4771
  138OSM    C7F15108   4.989   2.754   6.118  0.1353  0.5145 -0.5650
  138OSM    H7F15109   5.091   2.783   6.150  0.5720  0.0125 -1.4655
  138OSM    H7G15110   4.945   2.841   6.065  0.1708  0.4562 -0.6889
  138OSM    C8F15111   4.987   2.640   6.027 -0.0262 -0.1519 -0.5517
  138OSM    H8F15112   4.889   2.637   5.976 -0.5349 -2.2313  0.4551
  138OSM    H8G15113   4.999   2.541   6.076  0.1043 -0.7567 -1.7579
  138OSM    C9F15114   5.094   2.661   5.919 -0.3976  0.1977  0.0545
  138OSM    H9F15115   5.198   2.664   5.953 -0.2031  2.5603 -0.5445
  138OSM   C10F15116   5.068   2.688   5.789  0.3830 -0.2084  0.2583
  138OSM   H10F15117   5.148   2.707   5.717  1.2433 -0.2127  1.1820
  138OSM   C11F15118   4.929   2.698   5.721 -0.3735  0.1871 -0.6384
  138OSM   H11F15119   4.888   2.798   5.745 -1.5068 -0.3156 -0.4444
  138OSM   H11G15120   4.873   2.615   5.768  1.6989 -0.6397  0.5200
  138OSM   C12F15121   4.931   2.672   5.574  0.1418 -0.3210  0.1547
  138OSM   H12F15122   4.826   2.660   5.539  0.7540  0.2412 -2.0066
  138OSM   H12G15123   4.969   2.574   5.536 -2.5220 -0.5809 -2.1701
  138OSM   C13F15124   4.999   2.786   5.491 -0.3703 -0.0459  0.4434
  138OSM   H13F15125   5.083   2.822   5.553  0.5908 -1.9334  0.2968
  138OSM   H13G15126   4.928   2.872   5.480 -2.0176 -0.9245  3.1286
  138OSM   C14F15127   5.054   2.749   5.356  0.1038 -0.2040 -0.5207
  138OSM   H14F15128   5.128   2.667   5.361  0.5860  0.1841 -1.2156
  138OSM   H14G15129   5.106   2.840   5.320  0.5806 -0.3283 -0.1565
  138OSM   C15F15130   4.955   2.688   5.247  0.5087  0.0909  0.0783
  138OSM   H15F15131   4.867   2.756   5.241  0.9520  0.5375 -3.3251
  138OSM   H15G15132   4.914   2.592   5.284  1.7237 -0.2187  0.6460
  138OSM   C16F15133   5.023   2.660   5.112 -0.2459  0.4633  0.7397
  138OSM   H16F15134   5.123   2.616   5.137  0.1966  0.4952 -0.8892
  138OSM   H16G15135   5.034   2.757   5.060 -1.0461  0.1629  0.0004
  138OSM   C17F15136   4.940   2.563   5.021 -0.0613  0.2971  0.5936
  138OSM   H17F15137   4.951   2.611   4.921 -1.6897  1.7734  1.0838
  138OSM   H17G15138   4.832   2.563   5.046  0.0219 -0.4060  0.9585
  138OSM   C18F15139   4.990   2.410   5.024 -0.1196 -0.6537  0.2705
  138OSM   H18F15140   4.999   2.368   5.127 -3.1530 -0.7109  0.6237
  138OSM   H18G15141   5.089   2.403   4.975  1.2639  3.2554  2.1059
  138OSM   H18H15142   4.904   2.356   4.978 -1.1081  0.5798  0.6048
  139OSM      N15143   1.411   4.914   7.700 -0.0062 -0.3327 -0.5826
  139OSM    C1515144   1.292   4.842   7.772  0.0036  0.1394 -0.0775
  139OSM   H15A15145   1.333   4.749   7.806  0.4228  0.1119 -0.6438
  139OSM   H15B15146   1.204   4.831   7.710  0.0032 -0.8178  0.0869
  139OSM   H15C15147   1.265   4.898   7.861 -1.1526  1.0644 -0.9664
  139OSM    C1415148   1.348   5.037   7.645  0.0441  0.0632 -0.1539
  139OSM   H14A15149   1.416   5.083   7.574  1.0177 -2.4428 -0.9497
  139OSM   H14B15150   1.327   5.110   7.722 -0.4476  0.5135 -0.7015
  139OSM   H14C15151   1.251   5.018   7.601 -0.4469  0.7379  0.6093
  139OSM    C1315152   1.505   4.961   7.809  0.2820  0.3925  0.6086
  139OSM   H13A15153   1.462   5.011   7.894  0.1155 -1.5219  1.7027
  139OSM   H13B15154   1.567   5.034   7.759  1.9803 -2.2487 -1.4865
  139OSM   H13C15155   1.572   4.881   7.837 -0.4531 -0.5174 -0.1287
  139OSM    C1215156   1.478   4.829   7.595  0.9442  0.2122  0.6612
  139OSM   H12A15157   1.501   4.732   7.637 -0.1903 -0.0282  0.7637
  139OSM   H12B15158   1.569   4.882   7.571 -0.0908  1.3275 -1.0252
  139OSM    C1115159   1.399   4.815   7.460 -0.1383  0.1607 -0.7658
  139OSM   H11A15160   1.439   4.728   7.404  0.6250 -0.9758  1.4547
  139OSM   H11B15161   1.424   4.908   7.404 -0.8179  0.4212 -0.6533
  139OSM      P15162   1.194   4.654   7.486 -0.3556 -0.1550 -0.3269
  139OSM    O1315163   1.217   4.599   7.621 -0.8158  0.4137 -0.2265
  139OSM    O1415164   1.051   4.664   7.440  0.0821  0.1482 -0.4307
  139OSM    O1115165   1.270   4.565   7.381  0.4244 -0.1725 -0.5349
  139OSM    O1215166   1.257   4.796   7.482 -0.4511 -0.2746  0.5547
  139OSM    C1S15167   1.221   4.596   7.248  0.3476  0.7017 -0.5999
  139OSM    H1S15168   1.187   4.701   7.236  0.4700  0.8598  0.3638
  139OSM    H1T15169   1.130   4.535   7.232  0.2050  0.8841 -0.4928
  139OSM     NF15170   1.262   4.592   7.006  0.2250 -0.0123  0.7417
  139OSM    HNF15171   1.243   4.508   6.955  1.2146  0.4374 -0.4185
  139OSM    C2S15172   1.327   4.566   7.135  0.3820 -1.7188  0.2757
  139OSM    H2S15173   1.412   4.637   7.146  1.6172 -2.7623 -1.9650
  139OSM    C3S15174   1.387   4.421   7.140 -0.1048  0.4408 -0.4918
  139OSM    H3S15175   1.300   4.353   7.123  0.1730 -0.1665  0.4700
  139OSM     O315176   1.447   4.386   7.271 -0.0282 -0.8656  0.0419
  139OSM    HO315177   1.402   4.451   7.326 -0.8142 -2.3033  1.1943
  139OSM    C4S15178   1.486   4.403   7.032 -0.3256 -0.4738  0.4799
  139OSM    H4S15179   1.565   4.479   7.028  0.0775 -0.8476  1.1931
  139OSM    C5S15180   1.490   4.304   6.943 -0.5065 -0.4097 -0.0062
  139OSM    H5S15181   1.422   4.219   6.959  0.1911 -1.0696 -0.4773
  139OSM    C6S15182   1.581   4.274   6.825 -0.5621  0.1167 -0.5312
  139OSM    H6S15183   1.532   4.293   6.727  0.7358 -1.5609 -1.5495
  139OSM    H6T15184   1.622   4.171   6.834  0.8351  0.7253  0.5241
  139OSM    C7S15185   1.709   4.364   6.812 -0.3145 -0.3830  0.1295
  139OSM    H7S15186   1.777   4.359   6.900 -0.5581  0.2332  0.3606
  139OSM    H7T15187   1.667   4.467   6.812  1.2756  0.3062 -1.0413
  139OSM    C8S15188   1.795   4.343   6.680 -0.1419  0.2122  0.2286
  139OSM    H8S15189   1.849   4.246   6.685  0.3520  0.5514  2.5227
  139OSM    H8T15190   1.886   4.407   6.678  0.7837 -1.0030  1.6089
  139OSM    C9S15191   1.705   4.366   6.553 -0.5239  0.3441 -0.3444
  139OSM    H9S15192   1.648   4.459   6.572 -3.0576 -1.0102 -0.8567
  139OSM    H9T15193   1.637   4.279   6.540  0.2508 -0.0492 -1.9529
  139OSM   C10S15194   1.806   4.377   6.432  0.2508 -0.5486 -0.0861
  139OSM   H10S15195   1.881   4.295   6.434 -0.0402 -0.8057  0.3291
  139OSM   H10T15196   1.870   4.467   6.443 -0.3870  0.0939 -1.3507
  139OSM   C11S15197   1.732   4.380   6.299  0.1178 -0.2258 -0.0922
  139OSM   H11S15198   1.677   4.476   6.295  2.2862  1.0684 -0.3636
  139OSM   H11T15199   1.662   4.293   6.293  1.1991 -1.2802  1.6887
  139OSM   C12S15200   1.839   4.379   6.185  0.3202 -0.4297 -0.3884
  139OSM   H12S15201   1.858   4.270   6.171 -1.3998 -0.7134 -0.7691
  139OSM   H12T15202   1.927   4.437   6.219  1.0925 -1.1202 -1.1582
  139OSM   C13S15203   1.796   4.429   6.048 -0.3833  0.3578  0.4171
  139OSM   H13S15204   1.776   4.537   6.032  0.3828  0.4245 -0.1163
  139OSM   H13T15205   1.712   4.369   6.007 -1.9389  1.2403  2.1334
  139OSM   C14S15206   1.903   4.401   5.941 -0.0705  0.0246 -0.3789
  139OSM   H14S15207   1.937   4.296   5.939 -0.4800 -0.2019  1.8843
  139OSM   H14T15208   1.985   4.475   5.958  0.4542 -0.7439  0.5296
  139OSM   C15S15209   1.845   4.430   5.798  0.5443  0.3964 -0.0686
  139OSM   H15S15210   1.829   4.540   5.808  0.0944  0.1542  2.6681
  139OSM   H15T15211   1.752   4.370   5.795  1.3364 -1.7188  5.5393
  139OSM   C16S15212   1.935   4.403   5.683 -0.0894  0.4954  0.0546
  139OSM   H16S15213   1.955   4.295   5.674 -2.0572  0.1124 -0.1129
  139OSM   H16T15214   2.035   4.451   5.696 -0.1144  0.5992 -0.1387
  139OSM   C17S15215   1.889   4.453   5.545  0.6526 -0.7148  0.2472
  139OSM   H17S15216   1.913   4.560   5.530 -2.0282 -0.2322 -1.1173
  139OSM   H17T15217   1.779   4.442   5.556  0.3401  2.4577  1.1121
  139OSM   C18S15218   1.955   4.363   5.442 -0.2757  0.3399 -0.7454
  139OSM   H18S15219   1.918   4.394   5.341  0.9214  0.8737 -1.0329
  139OSM   H18T15220   1.956   4.256   5.470 -0.8256  0.4063 -0.4538
  139OSM   H18U15221   2.065   4.375   5.441 -0.2814  0.5955  0.4356
  139OSM    C1F15222   1.228   4.713   6.961 -0.0175 -0.1008 -0.4777
  139OSM     OF15223   1.261   4.815   7.025  0.4685 -0.1255  0.2591
  139OSM    C2F15224   1.162   4.731   6.825 -0.6242 -0.2454 -0.2542
  139OSM    H2F15225   1.094   4.643   6.821 -0.5507 -0.2659 -1.0844
  139OSM    H2G15226   1.235   4.712   6.743  1.0258 -1.7462  1.4518
  139OSM    C3F15227   1.082   4.856   6.811 -0.9559  0.1817  0.3867
  139OSM    H3F15228   1.151   4.941   6.795  0.3566 -0.6702  1.2892
  139OSM    H3G15229   1.022   4.890   6.899  0.4072  0.3821  1.2650
  139OSM    C4F15230   0.990   4.863   6.688 -0.1825 -0.2653  0.3833
  139OSM    H4F15231   1.052   4.868   6.596 -3.0675 -0.9929 -1.7508
  139OSM    H4G15232   0.935   4.960   6.692 -0.2673 -0.2539 -0.7152
  139OSM    C5F15233   0.880   4.753   6.680  0.0692  0.6644  0.4131
  139OSM    H5F15234   0.811   4.786   6.761 -2.2419 -0.3407 -1.0465
  139OSM    H5G15235   0.918   4.649   6.693 -2.4461 -0.4026 -0.0416
  139OSM    C6F15236   0.809   4.755   6.547  0.7071 -0.0674  0.2775
  139OSM    H6F15237   0.773   4.854   6.511 -0.6537 -0.6170  0.0702
  139OSM    H6G15238   0.712   4.704   6.564  0.3645  0.2198 -0.6894
  139OSM    C7F15239   0.891   4.687   6.434  0.1706  0.3507  0.2758
  139OSM    H7F15240   0.919   4.586   6.470  0.6533  0.5047  0.3328
  139OSM    H7G15241   0.987   4.741   6.420 -1.1061  1.9215 -4.1709
  139OSM    C8F15242   0.826   4.670   6.294  0.7751 -0.5535 -0.2663
  139OSM    H8F15243   0.740   4.600   6.309  0.9173 -0.3632  1.7140
  139OSM    H8G15244   0.888   4.615   6.219 -0.1459 -0.4141 -1.1455
  139OSM    C9F15245   0.795   4.810   6.243  0.3146 -0.1288 -0.3999
  139OSM    H9F15246   0.741   4.876   6.313 -0.8495 -1.1872 -0.2609
  139OSM   C10F15247   0.833   4.855   6.116 -0.6669  0.5700  0.1618
  139OSM   H10F15248   0.811   4.959   6.087  1.2756  1.7877  2.6418
  139OSM   C11F15249   0.931   4.788   6.016  0.6683 -0.0808 -0.3045
  139OSM   H11F15250   0.894   4.687   5.989 -0.9724  0.5017 -0.3233
  139OSM   H11G15251   1.027   4.765   6.067  0.0662  0.1370  0.9772
  139OSM   C12F15252   0.962   4.882   5.907  0.3310 -0.0169  0.6164
  139OSM   H12F15253   1.022   4.963   5.954  0.2698 -1.5031  3.4936
  139OSM   H12G15254   0.868   4.918   5.860  0.3054 -0.8847 -0.0350
  139OSM   C13F15255   1.034   4.806   5.786  0.2858  0.0515 -0.0782
  139OSM   H13F15256   0.970   4.723   5.750  0.8601 -1.5575  2.3865
  139OSM   H13G15257   1.121   4.755   5.832 -0.1182 -2.1950 -1.6720
  139OSM   C14F15258   1.083   4.902   5.682  0.4703  0.8787 -0.6087
  139OSM   H14F15259   1.159   4.973   5.721  1.4832 -0.3008 -0.3698
  139OSM   H14G15260   1.000   4.946   5.624 -1.6283 -1.2943  0.5687
  139OSM   C15F15261   1.166   4.819   5.569 -0.0232 -0.3794  0.7611
  139OSM   H15F15262   1.093   4.753   5.517 -1.5091  0.9082  1.1366
  139OSM   H15G15263   1.257   4.777   5.617  0.6894  2.0029  1.6844
  139OSM   C16F15264   1.220   4.906   5.455  0.5501  0.4526 -0.9597
  139OSM   H16F15265   1.282   4.981   5.510 -1.0146 -0.0471  1.6652
  139OSM   H16G15266   1.131   4.958   5.413 -0.0310 -1.9930 -2.9674
  139OSM   C17F15267   1.295   4.829   5.347 -0.0620 -0.4881  0.0135
  139OSM   H17F15268   1.395   4.792   5.378 -0.9108 -0.2990  3.4196
  139OSM   H17G15269   1.312   4.890   5.256 -0.8234 -0.3263 -0.0320
  139OSM   C18F15270   1.215   4.716   5.292 -0.8103  0.2646 -0.6808
  139OSM   H18F15271   1.213   4.628   5.359  1.0502 -0.9786 -2.1511
  139OSM   H18G15272   1.277   4.686   5.205 -0.3071 -0.0641 -0.2109
  139OSM   H18H15273   1.112   4.753   5.274 -0.7074 -0.0224 -2.0052
  140OSM      N15274   2.255   3.456   7.117  0.4677  0.3761 -0.4013
  140OSM    C1515275   2.234   3.568   7.215 -0.6866 -0.0456 -0.6572
  140OSM   H15A15276   2.322   3.586   7.276 -1.1081 -0.2315  0.0105
  140OSM   H15B15277   2.155   3.538   7.282 -2.2385  1.6332 -1.6556
  140OSM   H15C15278   2.201   3.660   7.169  1.2394  0.9582 -0.1592
  140OSM    C1415279   2.345   3.354   7.184  0.3982  0.1346 -0.0748
  140OSM   H14A15280   2.318   3.305   7.276 -0.5880 -0.7730 -0.8180
  140OSM   H14B15281   2.438   3.405   7.204  0.8721 -1.2403  1.4545
  140OSM   H14C15282   2.364   3.278   7.109 -1.9936 -0.2389 -0.3923
  140OSM    C1315283   2.117   3.398   7.088 -0.8894 -0.1562  0.0200
  140OSM   H13A15284   2.125   3.341   6.996 -1.5945  0.5009 -0.4605
  140OSM   H13B15285   2.042   3.473   7.069 -0.2913  0.1940 -1.0037
  140OSM   H13C15286   2.077   3.338   7.169 -0.7741  2.0235  1.7734
  140OSM    C1215287   2.310   3.504   6.985 -0.3378  0.3993 -0.4770
  140OSM   H12A15288   2.407   3.547   7.008  0.2351 -0.9403 -0.3063
  140OSM   H12B15289   2.242   3.584   6.959 -0.0533  0.7104 -0.2785
  140OSM    C1115290   2.318   3.413   6.860 -0.3335 -0.0436  0.7336
  140OSM   H11A15291   2.344   3.463   6.765  0.9340  1.8845  2.0097
  140OSM   H11B15292   2.215   3.375   6.844 -0.3684  1.0243 -1.9825
  140OSM      P15293   2.557   3.312   6.858 -0.4829  0.0567 -0.1951
  140OSM    O1315294   2.606   3.446   6.888 -0.2427 -0.5097 -0.1356
  140OSM    O1415295   2.633   3.199   6.927  0.2659  0.1777  0.7629
  140OSM    O1115296   2.573   3.296   6.701 -1.0205  0.0409 -0.3827
  140OSM    O1215297   2.402   3.308   6.885 -0.0186 -0.2205  0.0313
  140OSM    C1S15298   2.516   3.184   6.637  0.1106 -0.1141  0.6718
  140OSM    H1S15299   2.416   3.221   6.606 -1.4656 -1.0630  4.0638
  140OSM    H1T15300   2.501   3.091   6.696 -0.1122 -0.5058  0.0080
  140OSM     NF15301   2.516   3.047   6.423  0.2422  0.1177 -0.3171
  140OSM    HNF15302   2.561   2.961   6.401 -0.3904 -0.0216 -1.1009
  140OSM    C2S15303   2.585   3.156   6.497 -0.4166 -0.6327  0.1213
  140OSM    H2S15304   2.579   3.248   6.435  2.5172 -0.5940 -0.2256
  140OSM    C3S15305   2.734   3.136   6.510 -0.4986 -0.3710  0.0791
  140OSM    H3S15306   2.740   3.037   6.560 -0.2060 -0.2051  0.3768
  140OSM     O315307   2.808   3.225   6.598  0.1236  0.4303 -0.3211
  140OSM    HO315308   2.731   3.272   6.631 -0.3710 -0.6017  0.0517
  140OSM    C4S15309   2.813   3.124   6.371  0.6648 -0.0209  0.1604
  140OSM    H4S15310   2.800   3.023   6.330  1.1425 -0.6378  1.4816
  140OSM    C5S15311   2.856   3.230   6.300  0.0464 -0.0433 -0.4978
  140OSM    H5S15312   2.830   3.326   6.347  0.1619 -0.6367  0.8199
  140OSM    C6S15313   2.903   3.227   6.156  0.3355  0.1897 -0.1710
  140OSM    H6S15314   3.014   3.226   6.144  0.5847  2.8935  1.1954
  140OSM    H6T15315   2.860   3.321   6.115  0.7081 -0.2418 -1.6329
  140OSM    C7S15316   2.846   3.117   6.064  0.1995  0.2520 -0.3448
  140OSM    H7S15317   2.892   3.019   6.090 -0.9349 -0.0840  0.4605
  140OSM    H7T15318   2.875   3.144   5.960 -0.3489 -1.3117 -0.9281
  140OSM    C8S15319   2.697   3.106   6.074 -0.2291 -0.1268  0.4691
  140OSM    H8S15320   2.663   3.211   6.062  2.1507  0.4999 -1.8572
  140OSM    H8T15321   2.654   3.059   6.164 -1.4699 -2.0833 -1.0712
  140OSM    C9S15322   2.633   3.043   5.948 -0.1076  1.1993  0.0692
  140OSM    H9S15323   2.689   2.952   5.919  2.5233  2.5274  0.6895
  140OSM    H9T15324   2.649   3.112   5.862 -2.4570  0.8145 -0.7632
  140OSM   C10S15325   2.483   3.024   5.955  0.6823 -0.4905  0.2723
  140OSM   H10S15326   2.425   3.119   5.949  0.2438 -0.6400  1.7485
  140OSM   H10T15327   2.439   2.980   6.047 -2.2866 -0.1095 -0.8619
  140OSM   C11S15328   2.420   2.957   5.831  0.7184 -0.2144  0.0342
  140OSM   H11S15329   2.450   3.013   5.740 -0.4718 -0.3811 -0.4808
  140OSM   H11T15330   2.309   2.967   5.837  0.6505 -0.2823 -0.9056
  140OSM   C12S15331   2.468   2.813   5.802 -0.3577 -0.9926  0.3933
  140OSM   H12S15332   2.445   2.750   5.890  0.2199 -0.8143  0.6831
  140OSM   H12T15333   2.578   2.819   5.786 -0.1422  0.8714  2.2042
  140OSM   C13S15334   2.403   2.756   5.678  0.2529 -0.0886  0.8417
  140OSM   H13S15335   2.372   2.836   5.608  2.5931 -0.8938 -1.2535
  140OSM   H13T15336   2.307   2.707   5.702 -0.3875  0.2206 -0.9783
  140OSM   C14S15337   2.492   2.653   5.609 -0.1038  0.0651  0.5630
  140OSM   H14S15338   2.507   2.568   5.680 -1.8079 -2.2701 -1.6751
  140OSM   H14T15339   2.591   2.691   5.577  0.0085 -0.6115  0.0650
  140OSM   C15S15340   2.425   2.581   5.495  0.2122  0.1426 -0.7742
  140OSM   H15S15341   2.327   2.557   5.541  0.3101  3.1310  1.2465
  140OSM   H15T15342   2.480   2.487   5.473 -0.3409 -0.0116 -1.5308
  140OSM   C16S15343   2.404   2.672   5.373 -1.0994  0.1359  0.9211
  140OSM   H16S15344   2.501   2.724   5.358 -0.7697 -0.9404 -1.1377
  140OSM   H16T15345   2.322   2.745   5.382 -1.2303 -0.0334  1.1034
  140OSM   C17S15346   2.386   2.593   5.241  0.1465  0.8581  0.0741
  140OSM   H17S15347   2.432   2.493   5.253 -0.6098  0.4151 -0.5943
  140OSM   H17T15348   2.437   2.639   5.154  0.4479  0.0235 -0.1938
  140OSM   C18S15349   2.236   2.578   5.202  0.2020 -0.5908  0.3457
  140OSM   H18S15350   2.235   2.516   5.109  2.3261  0.2342 -0.2912
  140OSM   H18T15351   2.189   2.678   5.194  2.2416  0.3266 -1.2422
  140OSM   H18U15352   2.173   2.525   5.276 -0.4227 -0.5391 -0.1383
  140OSM    C1F15353   2.397   3.053   6.375 -0.4961 -0.5305 -0.7558
  140OSM     OF15354   2.339   3.164   6.356  0.7539 -0.3560  0.0048
  140OSM    C2F15355   2.336   2.914   6.329 -0.4510 -0.3600  0.2176
  140OSM    H2F15356   2.317   2.850   6.418 -2.0909  0.3270  0.3914
  140OSM    H2G15357   2.409   2.885   6.251 -0.6204  3.7825 -1.7955
  140OSM    C3F15358   2.210   2.939   6.248 -0.2298 -0.5224 -0.0539
  140OSM    H3F15359   2.229   2.990   6.151 -2.2968 -1.3786 -0.9694
  140OSM    H3G15360   2.134   2.992   6.310  1.5754  3.4742 -0.9290
  140OSM    C4F15361   2.164   2.805   6.189 -0.2725 -0.5216  0.4636
  140OSM    H4F15362   2.127   2.738   6.270 -3.0484  1.2565  0.8174
  140OSM    H4G15363   2.253   2.758   6.141  0.4326  1.3791 -0.1667
  140OSM    C5F15364   2.043   2.815   6.080 -0.5843 -0.2995 -0.0233
  140OSM    H5F15365   2.071   2.896   6.010  0.8309 -0.4308  0.3540
  140OSM    H5G15366   1.949   2.840   6.133 -1.5672  1.0725 -2.2950
  140OSM    C6F15367   2.020   2.696   5.994  0.3517  0.4519 -0.1994
  140OSM    H6F15368   2.021   2.600   6.051 -2.0694 -0.6158 -1.7952
  140OSM    H6G15369   2.116   2.691   5.937  0.8637  0.6662  0.6169
  140OSM    C7F15370   1.890   2.703   5.912 -0.6495 -0.5475  0.9754
  140OSM    H7F15371   1.805   2.710   5.984 -0.4026  0.6337  1.1565
  140OSM    H7G15372   1.876   2.614   5.847  0.3316  0.4336 -0.6190
  140OSM    C8F15373   1.886   2.826   5.815  0.1633  0.2750  0.5566
  140OSM    H8F15374   1.856   2.909   5.882 -1.2439  0.4832 -0.2990
  140OSM    H8G15375   1.802   2.807   5.744 -0.3420  0.0462  1.2079
  140OSM    C9F15376   2.022   2.850   5.740 -0.2456  0.2230 -0.1986
  140OSM    H9F15377   2.091   2.906   5.805  0.6218 -1.7319  0.6625
  140OSM   C10F15378   2.063   2.811   5.617  0.2203  0.2538 -0.4555
  140OSM   H10F15379   2.172   2.815   5.604  0.4482 -2.3699 -0.0504
  140OSM   C11F15380   1.975   2.743   5.517 -0.0054  0.7638  0.5779
  140OSM   H11F15381   1.870   2.714   5.539 -0.2417 -0.5862 -1.8915
  140OSM   H11G15382   2.030   2.653   5.482  1.1086  1.5687  0.2388
  140OSM   C12F15383   1.973   2.820   5.384  0.7453 -0.7632  0.1805
  140OSM   H12F15384   2.063   2.827   5.320  1.9083  1.3746  1.9333
  140OSM   H12G15385   1.941   2.924   5.405  0.3861 -0.4193 -1.8016
  140OSM   C13F15386   1.876   2.747   5.281 -0.3639  0.0183  0.2672
  140OSM   H13F15387   1.785   2.730   5.341  1.2167 -2.9097  2.0407
  140OSM   H13G15388   1.920   2.651   5.248 -0.5533  0.4289 -1.3001
  140OSM   C14F15389   1.843   2.826   5.152 -0.2484 -0.5323 -0.4083
  140OSM   H14F15390   1.760   2.770   5.104  0.4487 -3.5011  1.5808
  140OSM   H14G15391   1.935   2.816   5.089 -0.5947 -0.5027 -0.9271
  140OSM   C15F15392   1.790   2.972   5.166  0.3298 -0.3565  0.4151
  140OSM   H15F15393   1.882   3.031   5.185 -0.1337 -0.0721  1.9241
  140OSM   H15G15394   1.730   2.972   5.260  1.5081  2.3547  1.2724
  140OSM   C16F15395   1.700   3.021   5.053 -0.0786  0.3246  0.3629
  140OSM   H16F15396   1.596   2.984   5.068 -1.1108  2.2112 -1.5372
  140OSM   H16G15397   1.723   2.968   4.959  2.2659  2.6095 -0.4534
  140OSM   C17F15398   1.684   3.172   5.039 -0.0337 -0.1208  0.3591
  140OSM   H17F15399   1.791   3.200   5.040  0.5040 -1.9904  2.1485
  140OSM   H17G15400   1.634   3.212   5.130  0.3414 -2.4009  1.6455
  140OSM   C18F15401   1.616   3.212   4.904 -0.9378 -0.7071 -0.0183
  140OSM   H18F15402   1.589   3.319   4.915  1.7942  0.5500 -3.6077
  140OSM   H18G15403   1.526   3.150   4.882 -0.8637  0.2059 -3.4569
  140OSM   H18H15404   1.691   3.198   4.824  0.1135 -2.1235  1.1784
  141OSM      N15405   1.642   3.137   7.411 -0.1534 -0.0674 -0.5284
  141OSM    C1515406   1.541   3.153   7.302 -0.3771 -0.3390 -0.4892
  141OSM   H15A15407   1.584   3.112   7.212  2.4674  1.1992  0.0653
  141OSM   H15B15408   1.508   3.256   7.294 -3.5551 -1.3267 -1.7489
  141OSM   H15C15409   1.456   3.089   7.320  0.1411 -0.9276 -0.1059
  141OSM    C1415410   1.573   3.160   7.542  0.7423  0.1227  0.7862
  141OSM   H14A15411   1.637   3.167   7.628  0.1822 -2.4857  1.5212
  141OSM   H14B15412   1.504   3.080   7.565  0.7198  0.1811  0.9226
  141OSM   H14C15413   1.507   3.244   7.527 -2.5127 -2.2734  0.3676
  141OSM    C1315414   1.709   3.009   7.428  0.4915 -0.0894 -0.6318
  141OSM   H13A15415   1.767   2.980   7.342  1.0476 -0.0445 -0.2860
  141OSM   H13B15416   1.637   2.931   7.450 -0.0181  0.6192  0.2683
  141OSM   H13C15417   1.780   3.008   7.510 -3.0658  2.2715  2.8453
  141OSM    C1215418   1.749   3.232   7.388  0.5504  0.3437 -0.8239
  141OSM   H12A15419   1.817   3.211   7.469 -0.6537 -1.4346 -0.2256
  141OSM   H12B15420   1.717   3.333   7.408  1.0728  0.7923 -2.1370
  141OSM    C1115421   1.829   3.228   7.262 -0.1455  0.5865  0.1296
  141OSM   H11A15422   1.908   3.307   7.270 -1.3950  2.2318 -2.5437
  141OSM   H11B15423   1.754   3.256   7.185 -0.0083 -0.7530 -0.5080
  141OSM      P15424   1.942   3.056   7.088 -0.2784  0.1010 -0.2526
  141OSM    O1315425   2.085   3.066   7.097 -0.3018 -0.0706  0.0183
  141OSM    O1415426   1.900   2.923   7.045 -0.2296 -0.4908  0.3942
  141OSM    O1115427   1.892   3.170   6.990  0.1579 -0.3019  0.7549
  141OSM    O1215428   1.876   3.098   7.227 -0.6756  0.2960 -0.4409
  141OSM    C1S15429   1.891   3.163   6.845 -0.4838  0.5139 -0.4925
  141OSM    H1S15430   1.876   3.058   6.809 -2.4681  1.1517 -1.6847
  141OSM    H1T15431   1.989   3.189   6.798  0.3059 -1.5480 -0.1113
  141OSM     NF15432   1.756   3.186   6.638  0.5052  0.2529  0.0973
  141OSM    HNF15433   1.783   3.254   6.570 -0.1690  0.0340 -0.4040
  141OSM    C2S15434   1.776   3.241   6.773  0.9085  0.2315 -0.1442
  141OSM    H2S15435   1.685   3.208   6.828  1.9412 -0.7017  1.0830
  141OSM    C3S15436   1.792   3.393   6.780  0.5036  0.1960 -0.1183
  141OSM    H3S15437   1.880   3.428   6.722  0.7409  4.4305  2.3625
  141OSM     O315438   1.820   3.426   6.919  0.1085 -0.4610  0.0547
  141OSM    HO315439   1.844   3.345   6.964  1.8613  0.1213  0.2252
  141OSM    C4S15440   1.670   3.469   6.740 -0.8319  0.1670 -0.6950
  141OSM    H4S15441   1.608   3.482   6.830 -0.6941 -0.8062 -0.4565
  141OSM    C5S15442   1.635   3.500   6.611  0.1028 -0.0495 -0.1898
  141OSM    H5S15443   1.694   3.460   6.527 -0.3786 -0.0237 -0.5417
  141OSM    C6S15444   1.506   3.559   6.573 -0.4713 -0.1125 -0.0785
  141OSM    H6S15445   1.494   3.650   6.636  2.7644 -1.3509  2.6055
  141OSM    H6T15446   1.426   3.482   6.587 -0.0818 -0.1709  2.4139
  141OSM    C7S15447   1.500   3.587   6.417 -0.1077  0.6926 -0.5084
  141OSM    H7S15448   1.592   3.644   6.391  0.4447 -0.4129 -1.0673
  141OSM    H7T15449   1.413   3.654   6.405 -0.9837 -0.4082 -0.4358
  141OSM    C8S15450   1.518   3.460   6.335  0.1676 -0.3806  0.8582
  141OSM    H8S15451   1.445   3.386   6.373 -1.3817  1.1041  0.8643
  141OSM    H8T15452   1.611   3.412   6.374 -0.0953  0.5061  2.7059
  141OSM    C9S15453   1.522   3.480   6.184  0.3343 -0.4601 -0.0757
  141OSM    H9S15454   1.415   3.483   6.152 -0.1362  0.6569  1.5274
  141OSM    H9T15455   1.554   3.386   6.133 -0.8031  0.1481 -2.0425
  141OSM   C10S15456   1.595   3.600   6.125  0.4279 -0.4859 -0.0180
  141OSM   H10S15457   1.699   3.605   6.163  0.8543 -0.9340 -1.0865
  141OSM   H10T15458   1.549   3.698   6.147 -1.0630 -1.0901 -0.3001
  141OSM   C11S15459   1.624   3.585   5.979 -0.3239  0.7369 -0.1212
  141OSM   H11S15460   1.531   3.578   5.919 -0.3287  0.7739 -0.1182
  141OSM   H11T15461   1.673   3.486   5.968 -1.1593  0.3834 -0.7815
  141OSM   C12S15462   1.723   3.689   5.929  0.1058  0.0436 -0.0651
  141OSM   H12S15463   1.825   3.679   5.973 -0.4567  1.6409  1.7373
  141OSM   H12T15464   1.691   3.792   5.955 -1.2311 -0.4780  0.4573
  141OSM   C13S15465   1.737   3.674   5.772 -0.3481  0.1682  0.2044
  141OSM   H13S15466   1.647   3.708   5.716 -0.3711 -2.1476 -1.3153
  141OSM   H13T15467   1.759   3.567   5.754  0.7932  0.2011  1.2981
  141OSM   C14S15468   1.862   3.737   5.704  0.0821  0.6090 -0.6001
  141OSM   H14S15469   1.953   3.682   5.738 -0.5471 -1.2583 -1.8172
  141OSM   H14T15470   1.870   3.844   5.731  0.5317  0.2084  1.0130
  141OSM   C15S15471   1.849   3.713   5.548 -0.0794 -0.7510  0.7337
  141OSM   H15S15472   1.748   3.749   5.519  1.2609  0.9800 -2.1675
  141OSM   H15T15473   1.851   3.604   5.528  1.1892 -0.6891  0.4033
  141OSM   C16S15474   1.975   3.753   5.469 -0.2704  0.3810 -0.5474
  141OSM   H16S15475   2.054   3.683   5.503 -1.1929 -1.3434 -1.7540
  141OSM   H16T15476   1.995   3.859   5.495  1.0329  0.6703 -2.5344
  141OSM   C17S15477   1.951   3.740   5.324  0.6888  0.2838 -0.6839
  141OSM   H17S15478   1.857   3.790   5.294  1.3974  1.2972 -1.2879
  141OSM   H17T15479   1.942   3.639   5.280  1.3175 -0.1069  0.0495
  141OSM   C18S15480   2.070   3.800   5.248  0.2938 -0.2404 -0.2248
  141OSM   H18S15481   2.055   3.798   5.138  0.9634 -0.4879 -0.3130
  141OSM   H18T15482   2.161   3.738   5.262  0.2412 -0.0870  0.8663
  141OSM   H18U15483   2.091   3.905   5.276 -0.5850  0.4069 -1.8893
  141OSM    C1F15484   1.716   3.060   6.608  0.2775  0.5053  0.4551
  141OSM     OF15485   1.673   2.986   6.694 -0.1347  0.1143 -0.0433
  141OSM    C2F15486   1.726   3.009   6.472 -0.6805 -0.5408  0.1075
  141OSM    H2F15487   1.827   3.006   6.428 -1.4787 -0.1693 -1.8400
  141OSM    H2G15488   1.661   3.073   6.408  0.9342  0.2269 -0.8155
  141OSM    C3F15489   1.668   2.865   6.455 -0.7106  0.0346 -0.0578
  141OSM    H3F15490   1.565   2.861   6.496 -0.8676 -0.2951 -0.4630
  141OSM    H3G15491   1.743   2.799   6.503  0.9172  1.0707 -1.0777
  141OSM    C4F15492   1.677   2.825   6.306  0.3778 -0.0869  0.0822
  141OSM    H4F15493   1.706   2.718   6.294  1.9834  0.6171 -3.4817
  141OSM    H4G15494   1.767   2.876   6.266 -0.7797  2.4405  0.5393
  141OSM    C5F15495   1.558   2.868   6.214 -0.2776 -0.5765  0.0433
  141OSM    H5F15496   1.543   2.978   6.217  2.3686 -0.1698  1.1715
  141OSM    H5G15497   1.463   2.821   6.248 -0.4917 -0.8016 -0.8395
  141OSM    C6F15498   1.574   2.824   6.070  0.3744  0.6737 -0.3942
  141OSM    H6F15499   1.568   2.713   6.072  1.4584  0.4821 -3.3689
  141OSM    H6G15500   1.668   2.869   6.031  1.0200 -0.4542 -0.1754
  141OSM    C7F15501   1.460   2.883   5.979 -0.2932 -0.3406  0.0831
  141OSM    H7F15502   1.448   2.982   6.028 -0.2270 -0.5462  0.5181
  141OSM    H7G15503   1.365   2.826   5.986 -0.2374 -0.3648  0.7135
  141OSM    C8F15504   1.499   2.906   5.833 -0.0872  0.5627  0.4829
  141OSM    H8F15505   1.578   2.984   5.828 -1.0333  1.5534  0.7815
  141OSM    H8G15506   1.416   2.968   5.794  0.0809  0.6065  0.1890
  141OSM    C9F15507   1.530   2.781   5.755  0.0700 -0.2177 -0.3203
  141OSM    H9F15508   1.539   2.689   5.815 -1.9819  0.9110  1.8873
  141OSM   C10F15509   1.557   2.779   5.620 -1.1979  0.1579 -0.3470
  141OSM   H10F15510   1.594   2.687   5.572  2.1726  2.0076 -1.5708
  141OSM   C11F15511   1.549   2.890   5.520 -0.7040  0.1438  0.2014
  141OSM   H11F15512   1.652   2.918   5.488 -1.6721  2.4467 -1.1105
  141OSM   H11G15513   1.502   2.979   5.567 -1.0092 -0.3173  0.7932
  141OSM   C12F15514   1.484   2.851   5.389  0.1260 -0.1212  0.0745
  141OSM   H12F15515   1.424   2.760   5.405  3.2662 -2.2030  0.8635
  141OSM   H12G15516   1.559   2.821   5.312  0.4054  1.5158 -0.3517
  141OSM   C13F15517   1.404   2.972   5.335 -0.4963  0.2434  0.1004
  141OSM   H13F15518   1.482   3.050   5.328  0.1660 -0.3184  0.9829
  141OSM   H13G15519   1.335   2.987   5.421  0.8444 -4.0950  2.2749
  141OSM   C14F15520   1.337   2.940   5.203  0.7479 -0.0727 -0.0030
  141OSM   H14F15521   1.330   2.831   5.181  2.3969  0.1310 -1.8204
  141OSM   H14G15522   1.390   2.975   5.112  0.6370 -3.3081 -1.4452
  141OSM   C15F15523   1.206   3.028   5.183 -0.1143  0.2581  0.1384
  141OSM   H15F15524   1.126   3.014   5.259 -2.3576  0.8149 -1.9618
  141OSM   H15G15525   1.167   3.002   5.082 -0.0873 -0.8188  0.3927
  141OSM   C16F15526   1.233   3.181   5.195 -0.0229 -0.3306  0.1846
  141OSM   H16F15527   1.286   3.198   5.099 -1.9575  0.1571 -0.8655
  141OSM   H16G15528   1.297   3.203   5.283  0.8489 -2.6279  0.2052
  141OSM   C17F15529   1.114   3.270   5.216  0.0443 -0.2735  0.1433
  141OSM   H17F15530   1.078   3.255   5.320  0.4924 -0.5521  0.2643
  141OSM   H17G15531   1.034   3.264   5.140  0.1670 -1.1284  0.0652
  141OSM   C18F15532   1.153   3.424   5.208  0.3828  0.2219  0.3113
  141OSM   H18F15533   1.062   3.486   5.192  1.3983  1.1668 -2.3310
  141OSM   H18G15534   1.205   3.434   5.110  1.2019 -2.6928  0.3531
  141OSM   H18H15535   1.197   3.452   5.306 -0.1852  1.1103  0.3197
  142OSM      N15536   1.061   2.566   7.479  0.3336 -0.1365 -0.0569
  142OSM    C1515537   1.000   2.443   7.420 -0.1621  1.0292  0.3606
  142OSM   H15A15538   0.900   2.449   7.381  0.0990 -1.1633 -0.7963
  142OSM   H15B15539   0.998   2.367   7.496 -0.6974  1.0113  0.3329
  142OSM   H15C15540   1.060   2.395   7.344 -2.5422 -0.5108 -0.6468
  142OSM    C1415541   0.968   2.613   7.592 -0.4932  0.3688 -0.0348
  142OSM   H14A15542   0.871   2.637   7.551 -0.2608 -2.2772 -2.4716
  142OSM   H14B15543   1.002   2.699   7.648  0.7179  0.2633 -0.5759
  142OSM   H14C15544   0.961   2.530   7.661  2.6104 -0.0459 -0.1104
  142OSM    C1315545   1.192   2.520   7.543 -0.3069 -0.1533  0.0147
  142OSM   H13A15546   1.242   2.605   7.588  0.7507 -0.5995 -0.2882
  142OSM   H13B15547   1.259   2.473   7.472 -1.0309  0.3304 -0.9943
  142OSM   H13C15548   1.175   2.451   7.624  0.2366 -0.9461 -0.5368
  142OSM    C1215549   1.092   2.679   7.390  0.3208 -0.0239  0.4619
  142OSM   H12A15550   1.134   2.763   7.443 -0.8969  0.2679  1.0101
  142OSM   H12B15551   1.000   2.720   7.349  0.1879 -0.1502  0.6314
  142OSM    C1115552   1.195   2.660   7.277  0.8763  0.0194  0.1404
  142OSM   H11A15553   1.177   2.741   7.203  0.6688  1.0493  1.2764
  142OSM   H11B15554   1.176   2.560   7.233  1.7478  0.5947 -1.6407
  142OSM      P15555   1.405   2.793   7.357  0.2986  0.5523  0.0424
  142OSM    O1315556   1.318   2.875   7.454 -0.4777  0.3138  0.0760
  142OSM    O1415557   1.541   2.758   7.397  0.0316 -0.9911 -0.1913
  142OSM    O1115558   1.418   2.872   7.223 -0.2948 -0.1194  0.0880
  142OSM    O1215559   1.322   2.658   7.330 -0.4216  0.2231  0.6285
  142OSM    C1S15560   1.504   2.832   7.117 -0.2227  0.2079 -0.0546
  142OSM    H1S15561   1.531   2.724   7.117 -1.5899 -0.1546  0.1034
  142OSM    H1T15562   1.601   2.886   7.126  0.5038 -1.0861  0.2218
  142OSM     NF15563   1.500   2.784   6.879 -0.1383  0.1845 -0.7604
  142OSM    HNF15564   1.557   2.830   6.811  0.8148  1.3459  0.7690
  142OSM    C2S15565   1.434   2.861   6.979  0.2838  0.4749 -0.1871
  142OSM    H2S15566   1.330   2.823   6.984 -0.1017  1.6055  1.1695
  142OSM    C3S15567   1.438   3.015   6.959 -0.1498 -0.4277 -0.1281
  142OSM    H3S15568   1.545   3.045   6.965  0.1424 -1.2969 -0.7097
  142OSM     O315569   1.369   3.084   7.067  0.2608  0.4317 -0.3586
  142OSM    HO315570   1.361   3.012   7.129 -1.8732 -1.8795 -3.0080
  142OSM    C4S15571   1.382   3.059   6.824 -0.5322  1.0805 -0.1600
  142OSM    H4S15572   1.456   3.074   6.743 -1.9175  0.0470 -1.6918
  142OSM    C5S15573   1.255   3.086   6.793 -0.2256  0.1468 -0.3591
  142OSM    H5S15574   1.188   3.066   6.878  0.3118 -0.0133  0.0331
  142OSM    C6S15575   1.195   3.142   6.670  0.2037  1.1007  0.4884
  142OSM    H6S15576   1.169   3.250   6.680  0.7768  1.4452 -1.2627
  142OSM    H6T15577   1.097   3.093   6.657 -1.0055  3.7594 -1.4561
  142OSM    C7S15578   1.270   3.117   6.535  0.4002 -0.1883  0.1377
  142OSM    H7S15579   1.287   3.008   6.533 -1.1480 -0.6826  4.4849
  142OSM    H7T15580   1.370   3.165   6.522  0.2183  0.3729  0.7415
  142OSM    C8S15581   1.179   3.164   6.413 -0.4460  0.2406  0.5317
  142OSM    H8S15582   1.169   3.274   6.417 -0.8700  0.1679  1.7295
  142OSM    H8T15583   1.076   3.126   6.431  0.7640 -1.8642  3.9027
  142OSM    C9S15584   1.233   3.129   6.272  0.0194  0.1630  0.1862
  142OSM    H9S15585   1.223   3.022   6.244  2.8752  0.0743 -0.8206
  142OSM    H9T15586   1.341   3.153   6.273  0.4123 -1.4369 -1.0823
  142OSM   C10S15587   1.178   3.215   6.161 -0.1478  0.2806  0.7735
  142OSM   H10S15588   1.197   3.321   6.188  2.0806 -0.1974  1.2725
  142OSM   H10T15589   1.068   3.197   6.161  0.0242 -1.0755  2.7436
  142OSM   C11S15590   1.222   3.184   6.010  0.0285  0.4238 -0.2955
  142OSM   H11S15591   1.195   3.080   5.984 -0.6405  0.4001  0.4794
  142OSM   H11T15592   1.332   3.195   6.000 -0.0432  1.5844  0.0982
  142OSM   C12S15593   1.145   3.262   5.905 -0.1667 -0.0276  0.0002
  142OSM   H12S15594   1.167   3.369   5.927  1.5015 -0.5565  1.1157
  142OSM   H12T15595   1.036   3.240   5.916  0.2149 -2.2097 -0.0860
  142OSM   C13S15596   1.206   3.233   5.766 -0.0393  0.4126 -0.5020
  142OSM   H13S15597   1.138   3.279   5.692 -0.5170  1.3591  0.4960
  142OSM   H13T15598   1.214   3.125   5.738  0.5630  0.6057 -1.1010
  142OSM   C14S15599   1.350   3.282   5.734 -0.1899  0.1102  0.6652
  142OSM   H14S15600   1.423   3.203   5.761  0.5769  0.0268 -1.5142
  142OSM   H14T15601   1.369   3.382   5.780 -0.3891  0.0160  0.9627
  142OSM   C15S15602   1.366   3.312   5.582 -0.2597 -0.5822  0.3265
  142OSM   H15S15603   1.276   3.372   5.557 -0.9899 -1.9460 -0.4548
  142OSM   H15T15604   1.371   3.215   5.528  0.5509 -1.0581  1.2423
  142OSM   C16S15605   1.487   3.404   5.552 -0.3630  1.0239  0.5394
  142OSM   H16S15606   1.580   3.371   5.604  0.6966  2.4934 -0.3443
  142OSM   H16T15607   1.469   3.508   5.587 -0.5058  0.8439  1.0132
  142OSM   C17S15608   1.519   3.398   5.409 -0.6466 -0.3476  0.5621
  142OSM   H17S15609   1.433   3.414   5.340 -0.2453 -1.9655 -0.3687
  142OSM   H17T15610   1.572   3.306   5.376  0.1928  0.5450 -0.7500
  142OSM   C18S15611   1.623   3.504   5.381  0.3084 -0.5749 -0.0163
  142OSM   H18S15612   1.716   3.481   5.437  0.0297 -0.1797  0.6371
  142OSM   H18T15613   1.574   3.603   5.398  0.2660 -0.4001 -1.1120
  142OSM   H18U15614   1.649   3.501   5.274 -1.2862 -1.7435 -0.4134
  142OSM    C1F15615   1.483   2.655   6.871 -0.0909  0.6591  0.7783
  142OSM     OF15616   1.437   2.578   6.953  0.1768  0.3817 -0.2103
  142OSM    C2F15617   1.538   2.589   6.741 -0.4421  0.1035 -0.6703
  142OSM    H2F15618   1.574   2.489   6.775  1.4153  0.5518 -1.2317
  142OSM    H2G15619   1.621   2.649   6.700 -0.6077  1.4858  0.9099
  142OSM    C3F15620   1.426   2.576   6.635  0.5177 -0.0542 -0.0080
  142OSM    H3F15621   1.373   2.674   6.627 -2.0073 -1.2254  1.1198
  142OSM    H3G15622   1.351   2.499   6.665 -0.2948  0.3067 -1.0422
  142OSM    C4F15623   1.463   2.555   6.489 -0.2741 -0.1158 -0.5980
  142OSM    H4F15624   1.504   2.451   6.485 -1.0141 -0.4542  0.2856
  142OSM    H4G15625   1.551   2.618   6.465  0.7737 -0.4705  1.9850
  142OSM    C5F15626   1.348   2.581   6.395  0.1094 -0.2561  0.5226
  142OSM    H5F15627   1.321   2.687   6.375  2.4189  0.2088 -0.4543
  142OSM    H5G15628   1.259   2.519   6.420 -1.0766  0.2749 -2.0583
  142OSM    C6F15629   1.389   2.522   6.261  0.0249  0.0536  0.5165
  142OSM    H6F15630   1.411   2.414   6.275  0.3421  0.2589  1.7499
  142OSM    H6G15631   1.477   2.575   6.219  0.5866 -1.3378 -0.1255
  142OSM    C7F15632   1.267   2.532   6.159 -0.1170  0.0890 -0.5301
  142OSM    H7F15633   1.225   2.635   6.165  0.4111  0.3750 -1.4728
  142OSM    H7G15634   1.181   2.470   6.191  1.2467 -1.4197  0.3258
  142OSM    C8F15635   1.307   2.497   6.016  0.5338  0.0156 -0.2157
  142OSM    H8F15636   1.395   2.551   5.976  1.4213  0.7605  2.5229
  142OSM    H8G15637   1.218   2.532   5.959 -0.3723 -0.6468  0.7550
  142OSM    C9F15638   1.344   2.355   5.996  0.1197 -0.2105  0.9726
  142OSM    H9F15639   1.391   2.295   6.076  1.7573  0.7328  0.7524
  142OSM   C10F15640   1.334   2.301   5.873  0.0422  0.2492 -0.0090
  142OSM   H10F15641   1.374   2.200   5.855  0.2573  0.4019 -0.4196
  142OSM   C11F15642   1.295   2.366   5.742 -0.1288  0.1518 -0.3828
  142OSM   H11F15643   1.226   2.451   5.761  1.0438  0.8554  0.8792
  142OSM   H11G15644   1.235   2.290   5.688 -0.9980  0.4518  0.1243
  142OSM   C12F15645   1.397   2.422   5.640  0.3528  0.0603 -0.2801
  142OSM   H12F15646   1.473   2.342   5.626 -1.6875 -2.0321  0.0233
  142OSM   H12G15647   1.444   2.512   5.684  3.0465 -1.1955 -0.4236
  142OSM   C13F15648   1.331   2.463   5.506  0.5651  0.1499 -0.4480
  142OSM   H13F15649   1.297   2.380   5.441  0.6066  1.4227 -2.1953
  142OSM   H13G15650   1.407   2.513   5.441 -0.6435  0.4863 -1.6523
  142OSM   C14F15651   1.204   2.556   5.511 -0.4295 -0.2987  0.5641
  142OSM   H14F15652   1.221   2.649   5.568 -1.9432  0.4909 -0.2106
  142OSM   H14G15653   1.116   2.522   5.571 -2.0454  1.4086 -0.7427
  142OSM   C15F15654   1.151   2.606   5.375  0.5521  0.0327  0.5845
  142OSM   H15F15655   1.243   2.650   5.330  1.3158 -0.2403  1.8084
  142OSM   H15G15656   1.072   2.683   5.387 -0.1683 -0.6177  0.1269
  142OSM   C16F15657   1.101   2.494   5.278  0.0473  0.1221  0.1323
  142OSM   H16F15658   1.022   2.432   5.324 -0.8412  1.0342 -0.1303
  142OSM   H16G15659   1.188   2.426   5.263 -0.5144 -0.7192  0.5862
  142OSM   C17F15660   1.059   2.541   5.138  0.2664 -0.3547 -0.2001
  142OSM   H17F15661   1.145   2.592   5.091  2.4366 -0.2880  3.4846
  142OSM   H17G15662   0.980   2.618   5.151  1.5871  0.8050  1.3358
  142OSM   C18F15663   1.015   2.433   5.037 -0.2949  0.3092 -0.3530
  142OSM   H18F15664   0.956   2.352   5.085 -0.1133  0.5438  0.2710
  142OSM   H18G15665   1.104   2.374   5.009  0.0232 -0.5465  2.2033
  142OSM   H18H15666   0.958   2.476   4.952 -1.5194 -0.8887 -0.1776
  143OSM      N15667   1.989   5.673   7.040 -0.6383  0.5301 -0.4842
  143OSM    C1515668   1.889   5.595   6.965  0.4898 -0.0143 -0.2512
  143OSM   H15A15669   1.915   5.573   6.862  0.8025 -1.3409  0.0866
  143OSM   H15B15670   1.793   5.645   6.961 -0.0720 -0.7736  2.0210
  143OSM   H15C15671   1.879   5.497   7.011  2.0036 -0.1348 -0.1318
  143OSM    C1415672   2.126   5.611   7.033 -0.0435 -0.5517  0.6172
  143OSM   H14A15673   2.151   5.604   6.928 -0.7149  0.0682  0.4113
  143OSM   H14B15674   2.116   5.520   7.089 -0.9441  0.4071  2.0627
  143OSM   H14C15675   2.203   5.673   7.077  0.6085 -1.4778  0.8161
  143OSM    C1315676   1.995   5.807   6.980 -0.1648  0.0697 -0.5679
  143OSM   H13A15677   2.024   5.807   6.876 -3.1352  2.7260 -1.5487
  143OSM   H13B15678   2.072   5.867   7.028  1.2356  0.5830 -3.2119
  143OSM   H13C15679   1.896   5.849   6.984  0.1445  0.7322  0.4953
  143OSM    C1215680   1.935   5.682   7.188 -0.5233  0.5599 -0.2304
  143OSM   H12A15681   1.848   5.744   7.173 -0.9537  0.0557  0.1729
  143OSM   H12B15682   2.004   5.740   7.248 -1.5130  0.0475  1.4780
  143OSM    C1115683   1.901   5.554   7.265 -0.7494  0.1660 -0.6095
  143OSM   H11A15684   1.824   5.501   7.205  2.1009  0.2521 -4.7329
  143OSM   H11B15685   1.875   5.586   7.368  0.2853  0.5132 -0.4460
  143OSM      P15686   1.993   5.309   7.271 -0.2303  0.0788 -0.1352
  143OSM    O1315687   2.121   5.233   7.252 -0.4172  0.2325  1.1920
  143OSM    O1415688   1.927   5.275   7.399 -0.3038  0.2335  0.0816
  143OSM    O1115689   1.901   5.285   7.145  0.0398  0.0612 -0.4715
  143OSM    O1215690   2.018   5.471   7.271  0.0492 -0.0755 -0.6312
  143OSM    C1S15691   1.961   5.255   7.016 -0.8881  0.6905  0.5579
  143OSM    H1S15692   2.034   5.172   7.024  0.2068  1.8308  4.1844
  143OSM    H1T15693   2.020   5.337   6.971  0.7838 -0.1207  1.2168
  143OSM     NF15694   1.908   5.167   6.783 -0.1907 -0.1458  0.0774
  143OSM    HNF15695   1.904   5.240   6.716  0.2666 -0.1430  0.0489
  143OSM    C2S15696   1.849   5.195   6.921  0.4566 -0.2512  0.2716
  143OSM    H2S15697   1.823   5.096   6.963  1.6302 -1.4182 -1.5920
  143OSM    C3S15698   1.720   5.291   6.914  0.3124  0.0587  0.2457
  143OSM    H3S15699   1.734   5.387   6.860 -0.5902 -0.7867 -1.5895
  143OSM     O315700   1.679   5.328   7.043 -0.4553 -0.1196  0.2658
  143OSM    HO315701   1.757   5.295   7.089 -0.5226  0.6183  0.9241
  143OSM    C4S15702   1.613   5.203   6.852  0.0211 -0.6286  0.6879
  143OSM    H4S15703   1.579   5.119   6.914 -0.5688 -3.0877 -2.7082
  143OSM    C5S15704   1.558   5.222   6.733 -0.1341 -0.1239  0.3844
  143OSM    H5S15705   1.590   5.310   6.675  1.2134 -0.9314 -0.1579
  143OSM    C6S15706   1.452   5.144   6.664  0.1037  0.2369 -0.0039
  143OSM    H6S15707   1.382   5.119   6.746 -1.9795  0.6212 -1.5748
  143OSM    H6T15708   1.487   5.056   6.607 -1.6542 -0.4880 -0.0340
  143OSM    C7S15709   1.366   5.233   6.568 -0.2435  0.3716  0.6868
  143OSM    H7S15710   1.427   5.295   6.499  0.4317  0.6727  1.5366
  143OSM    H7T15711   1.311   5.306   6.630  0.4251  0.0145  1.7199
  143OSM    C8S15712   1.265   5.147   6.491 -0.0596 -0.0587 -0.7985
  143OSM    H8S15713   1.225   5.078   6.569  2.1976 -0.5253  0.0049
  143OSM    H8T15714   1.318   5.071   6.430 -0.8208 -1.2992  0.0335
  143OSM    C9S15715   1.165   5.221   6.410  0.3756  0.6236 -0.3392
  143OSM    H9S15716   1.221   5.306   6.365 -0.3590  0.9347 -0.7010
  143OSM    H9T15717   1.092   5.267   6.481 -0.2644 -3.2876  1.7971
  143OSM   C10S15718   1.081   5.129   6.319  0.1624 -0.3389  0.1611
  143OSM   H10S15719   1.027   5.058   6.386  1.8371 -0.0674  1.8793
  143OSM   H10T15720   1.144   5.066   6.253  0.8895  1.5145 -0.9927
  143OSM   C11S15721   0.972   5.199   6.234 -0.3829 -0.1589  0.5850
  143OSM   H11S15722   0.903   5.262   6.293  0.2863 -0.2681  1.5045
  143OSM   H11T15723   0.911   5.117   6.190 -0.8375  1.3333 -1.7243
  143OSM   C12S15724   1.029   5.275   6.114 -0.6829  0.2039 -0.0265
  143OSM   H12S15725   1.130   5.233   6.093 -0.6067  1.0643 -1.4591
  143OSM   H12T15726   1.024   5.384   6.131 -3.1468  0.0547  0.5195
  143OSM   C13S15727   0.936   5.267   5.990 -0.3002  0.5921 -0.1301
  143OSM   H13S15728   0.837   5.310   6.015 -1.0621 -0.1779 -1.7058
  143OSM   H13T15729   0.907   5.164   5.958 -1.9753  1.6041 -2.0465
  143OSM   C14S15730   1.000   5.348   5.873 -0.7022  0.6755 -0.0831
  143OSM   H14S15731   1.070   5.278   5.824  2.2409  2.0797  1.8357
  143OSM   H14T15732   1.062   5.431   5.912 -0.4313  0.2907  0.3169
  143OSM   C15S15733   0.892   5.400   5.776 -0.9054  0.6570 -0.2246
  143OSM   H15S15734   0.805   5.457   5.817 -1.2974  1.0807 -1.5932
  143OSM   H15T15735   0.852   5.306   5.732 -3.3017  1.0783  0.9043
  143OSM   C16S15736   0.963   5.489   5.677  0.0810 -0.7539  0.5452
  143OSM   H16S15737   1.061   5.440   5.662  0.2973 -0.5440  1.2351
  143OSM   H16T15738   0.990   5.591   5.711  0.5347 -0.2661 -1.1977
  143OSM   C17S15739   0.890   5.495   5.546 -0.5527  0.1611  0.0371
  143OSM   H17S15740   0.785   5.530   5.561 -0.0251  1.1590  1.6591
  143OSM   H17T15741   0.877   5.391   5.510  1.3812  0.2580 -1.0649
  143OSM   C18S15742   0.957   5.595   5.444 -0.1623 -0.1900  0.2273
  143OSM   H18S15743   0.890   5.621   5.359  0.3745 -0.5659 -0.3222
  143OSM   H18T15744   1.056   5.556   5.415  0.5336 -0.7483  3.0750
  143OSM   H18U15745   0.975   5.689   5.501 -2.2883  1.2306 -1.2568
  143OSM    C1F15746   1.997   5.066   6.769 -0.2318 -0.3615 -0.9338
  143OSM     OF15747   1.994   4.978   6.846  0.2696  0.9206  0.0738
  143OSM    C2F15748   2.087   5.056   6.646  0.3699 -0.2578  0.4084
  143OSM    H2F15749   2.190   5.059   6.689  0.2321  0.6867  0.7229
  143OSM    H2G15750   2.069   5.147   6.585  1.0426  0.4865  1.2673
  143OSM    C3F15751   2.072   4.916   6.578  0.3223 -0.5345 -0.4583
  143OSM    H3F15752   1.964   4.905   6.553  0.1160 -0.5411  0.3965
  143OSM    H3G15753   2.094   4.840   6.657  1.4054 -0.4941 -0.7072
  143OSM    C4F15754   2.178   4.889   6.461  0.1233 -1.1043  0.0849
  143OSM    H4F15755   2.265   4.830   6.498  1.8861  0.1611 -1.8827
  143OSM    H4G15756   2.219   4.984   6.422 -0.8648  0.2280  2.0580
  143OSM    C5F15757   2.097   4.829   6.338  0.1360 -0.4672 -0.2650
  143OSM    H5F15758   1.998   4.877   6.333 -0.3168 -1.4019 -0.4726
  143OSM    H5G15759   2.080   4.724   6.370 -0.1770 -0.5279 -0.6346
  143OSM    C6F15760   2.169   4.826   6.202  0.1092  0.1485 -0.7864
  143OSM    H6F15761   2.119   4.754   6.134  0.4021 -0.1556 -0.6816
  143OSM    H6G15762   2.273   4.801   6.231 -0.2641  0.0376  0.5172
  143OSM    C7F15763   2.144   4.956   6.127 -0.1331  0.3482 -0.2613
  143OSM    H7F15764   2.176   5.036   6.197 -2.4163  0.8637  0.2547
  143OSM    H7G15765   2.037   4.956   6.101 -0.5423 -0.3159  1.2831
  143OSM    C8F15766   2.236   4.970   5.995 -0.0248  0.5070  0.2217
  143OSM    H8F15767   2.332   4.915   6.005 -0.2781 -0.2410 -1.1708
  143OSM    H8G15768   2.265   5.076   5.977  4.6755 -0.5928  0.0987
  143OSM    C9F15769   2.178   4.913   5.871  0.4161 -0.8633  0.3527
  143OSM    H9F15770   2.162   4.804   5.871 -1.7418 -0.6613 -2.5156
  143OSM   C10F15771   2.154   4.974   5.758 -0.5786 -0.3531  0.1824
  143OSM   H10F15772   2.126   4.921   5.666  1.4761  0.0995 -0.7648
  143OSM   C11F15773   2.181   5.125   5.750 -0.3016  0.2405  0.2547
  143OSM   H11F15774   2.280   5.151   5.795 -1.1568  1.9025  1.2784
  143OSM   H11G15775   2.112   5.197   5.799  1.0894 -0.0089  2.7575
  143OSM   C12F15776   2.186   5.167   5.606  0.2121  0.2263  0.3920
  143OSM   H12F15777   2.206   5.276   5.610 -1.1734  0.4951  0.3482
  143OSM   H12G15778   2.091   5.139   5.556  0.4814 -1.9128  0.9446
  143OSM   C13F15779   2.328   5.121   5.550  0.7955 -0.5156 -0.4161
  143OSM   H13F15780   2.322   5.011   5.534 -2.1680 -0.6577  0.9655
  143OSM   H13G15781   2.406   5.141   5.626  1.4330  1.3216 -1.4818
  143OSM   C14F15782   2.364   5.170   5.411  0.1396 -0.3262  0.2618
  143OSM   H14F15783   2.473   5.152   5.400  0.4031  0.5110  1.2985
  143OSM   H14G15784   2.355   5.281   5.402  0.9586 -0.3050 -0.3973
  143OSM   C15F15785   2.303   5.095   5.292 -0.2262 -0.1037  0.5089
  143OSM   H15F15786   2.193   5.102   5.300 -0.2668  1.3312 -0.7815
  143OSM   H15G15787   2.343   4.992   5.300  0.7485  0.1883 -0.3184
  143OSM   C16F15788   2.335   5.143   5.148 -0.1154 -0.0418  0.4822
  143OSM   H16F15789   2.445   5.145   5.133 -0.3569  0.6178 -1.3750
  143OSM   H16G15790   2.294   5.247   5.144 -0.6996 -0.1544  2.4677
  143OSM   C17F15791   2.281   5.052   5.038  0.2624  0.1618  0.6055
  143OSM   H17F15792   2.332   4.955   5.060  0.5169  0.5818  1.9604
  143OSM   H17G15793   2.325   5.091   4.944 -1.0589  0.1017 -0.0518
  143OSM   C18F15794   2.135   5.034   5.013 -0.5296  0.5482  0.2038
  143OSM   H18F15795   2.079   5.125   4.981 -1.5009 -0.6571 -1.7441
  143OSM   H18G15796   2.096   5.009   5.114  2.4337 -0.9285  1.0973
  143OSM   H18H15797   2.117   4.958   4.933  0.5020  0.1338  0.3482
  144OSM      N15798   2.184   4.462   7.496 -0.4751 -0.4211 -0.0212
  144OSM    C1515799   2.271   4.403   7.403  0.1391 -0.6754  0.2437
  144OSM   H15A15800   2.369   4.448   7.407  0.2606 -0.8018 -0.9693
  144OSM   H15B15801   2.221   4.431   7.312  0.2004  0.7641  0.6271
  144OSM   H15C15802   2.276   4.295   7.399  2.1516 -0.5896 -1.2337
  144OSM    C1415803   2.239   4.424   7.635  0.9575 -0.4663 -0.2032
  144OSM   H14A15804   2.196   4.499   7.699 -3.4349 -0.5578 -2.6593
  144OSM   H14B15805   2.347   4.422   7.633  1.1225  1.3856 -4.3809
  144OSM   H14C15806   2.194   4.327   7.648  0.6323 -0.0704  2.0824
  144OSM    C1315807   2.202   4.606   7.487  0.2133  0.0258 -0.8532
  144OSM   H13A15808   2.220   4.639   7.386 -1.0441  2.3342 -0.3919
  144OSM   H13B15809   2.288   4.645   7.540 -0.2367  0.6877 -0.5912
  144OSM   H13C15810   2.119   4.664   7.523 -0.3392 -0.6645 -0.9908
  144OSM    C1215811   2.037   4.425   7.476  0.3259  0.1626  0.1155
  144OSM   H12A15812   2.023   4.318   7.486  2.7751 -0.0768  1.9410
  144OSM   H12B15813   1.994   4.457   7.382  2.1661 -0.9625 -1.1843
  144OSM    C1115814   1.936   4.485   7.584 -0.4343 -0.3716  0.6184
  144OSM   H11A15815   1.973   4.464   7.687  0.8579  1.4784  0.5726
  144OSM   H11B15816   1.837   4.434   7.577 -1.1293  0.2775  4.0399
  144OSM      P15817   1.810   4.702   7.503  0.3847  0.5989 -0.5642
  144OSM    O1315818   1.684   4.642   7.560 -0.1518  0.6416  0.3069
  144OSM    O1415819   1.812   4.853   7.516  0.1896  0.2877 -0.1952
  144OSM    O1115820   1.821   4.649   7.350 -0.2013 -0.3028 -0.2199
  144OSM    O1215821   1.934   4.632   7.583 -0.1189 -0.2544 -0.3303
  144OSM    C1S15822   1.915   4.726   7.267  0.2041 -0.4651 -0.5530
  144OSM    H1S15823   2.019   4.688   7.284 -0.8947 -2.4074  2.9229
  144OSM    H1T15824   1.902   4.834   7.291 -1.9199 -0.6203 -0.8564
  144OSM     NF15825   1.983   4.756   7.033  0.1267  0.1841 -0.1672
  144OSM    HNF15826   1.978   4.830   6.966  3.2023  0.8414  0.1842
  144OSM    C2S15827   1.870   4.722   7.116  0.0288  0.5085 -0.4347
  144OSM    H2S15828   1.833   4.619   7.096 -3.5187  1.5529  0.1316
  144OSM    C3S15829   1.742   4.813   7.097  0.3335 -0.0336 -0.3364
  144OSM    H3S15830   1.780   4.912   7.129  0.7375 -0.5463  0.8394
  144OSM     O315831   1.629   4.791   7.187  0.8206  0.0388  0.2848
  144OSM    HO315832   1.683   4.761   7.260 -0.0961  0.8802  1.3389
  144OSM    C4S15833   1.694   4.818   6.951 -0.1311 -0.6649  0.4290
  144OSM    H4S15834   1.767   4.876   6.893 -1.3815  0.2746 -0.2437
  144OSM    C5S15835   1.587   4.765   6.889 -0.7468  0.1732 -0.0640
  144OSM    H5S15836   1.512   4.722   6.957  1.1672 -0.9439  1.4357
  144OSM    C6S15837   1.539   4.781   6.742  0.4172  0.0658  0.7402
  144OSM    H6S15838   1.459   4.855   6.717  0.4949 -0.5402 -1.6026
  144OSM    H6T15839   1.504   4.678   6.718 -0.4913  0.4994  0.1237
  144OSM    C7S15840   1.647   4.802   6.637 -1.4424  0.4746 -0.2239
  144OSM    H7S15841   1.717   4.717   6.650  1.0998  2.6918  1.5877
  144OSM    H7T15842   1.693   4.902   6.651 -0.0795 -0.4115  2.3445
  144OSM    C8S15843   1.594   4.790   6.490  0.0337  0.6708  0.1772
  144OSM    H8S15844   1.510   4.859   6.466 -0.2414  0.0756 -0.5786
  144OSM    H8T15845   1.551   4.690   6.468  0.1974  0.9740 -1.6879
  144OSM    C9S15846   1.710   4.815   6.387  0.3248 -0.0631  0.8673
  144OSM    H9S15847   1.776   4.726   6.397 -0.9003 -1.1023 -0.0232
  144OSM    H9T15848   1.756   4.911   6.420 -4.2497  1.5886  3.2847
  144OSM   C10S15849   1.653   4.819   6.239 -0.2316 -0.6406  0.0461
  144OSM   H10S15850   1.562   4.881   6.225 -0.8054 -0.7494  2.7681
  144OSM   H10T15851   1.630   4.712   6.220  1.9364 -1.0177 -0.7259
  144OSM   C11S15852   1.754   4.852   6.142 -0.1695  0.0088 -0.6984
  144OSM   H11S15853   1.842   4.788   6.164 -1.2085 -1.4816 -0.7773
  144OSM   H11T15854   1.776   4.960   6.156  2.7541 -0.5981  0.2631
  144OSM   C12S15855   1.709   4.826   5.995  0.2196  0.6413 -0.4667
  144OSM   H12S15856   1.617   4.886   5.979 -0.9329 -0.7744  0.4834
  144OSM   H12T15857   1.681   4.720   5.976 -2.9903  1.2130  0.4121
  144OSM   C13S15858   1.809   4.875   5.897  0.1225  0.2374  0.3670
  144OSM   H13S15859   1.905   4.822   5.911 -1.2785 -2.3071  0.9657
  144OSM   H13T15860   1.822   4.984   5.911  0.3659  0.2154  0.2951
  144OSM   C14S15861   1.759   4.852   5.751  0.8450 -0.1665 -0.0055
  144OSM   H14S15862   1.676   4.923   5.733 -0.0452 -0.6403  1.9623
  144OSM   H14T15863   1.704   4.756   5.736 -0.3262  0.5698 -0.5831
  144OSM   C15S15864   1.855   4.870   5.638 -0.5255 -0.5614 -0.4952
  144OSM   H15S15865   1.953   4.819   5.651  0.0941  1.3202  3.6721
  144OSM   H15T15866   1.871   4.979   5.624 -0.4629 -0.7190 -1.8124
  144OSM   C16S15867   1.795   4.820   5.502  0.1607 -0.2627  0.5164
  144OSM   H16S15868   1.716   4.885   5.458  1.4363  0.6695 -0.4865
  144OSM   H16T15869   1.756   4.717   5.513 -0.9615  0.2274  1.2619
  144OSM   C17S15870   1.903   4.819   5.385 -0.1963  0.1624  0.0448
  144OSM   H17S15871   1.990   4.762   5.424  1.1665  2.9547  1.3938
  144OSM   H17T15872   1.943   4.922   5.373  0.7101 -0.3789 -1.9334
  144OSM   C18S15873   1.871   4.778   5.241  0.0091 -0.1333 -0.1758
  144OSM   H18S15874   1.781   4.834   5.211  2.1085  2.2337 -2.5846
  144OSM   H18T15875   1.851   4.669   5.230  0.3970 -0.1066 -1.2430
  144OSM   H18U15876   1.960   4.800   5.178 -0.1202  0.8490 -0.0344
  144OSM    C1F15877   2.091   4.665   7.029  1.1398 -0.7097 -0.4279
  144OSM     OF15878   2.073   4.557   7.079  0.0488 -0.1814  0.5810
  144OSM    C2F15879   2.208   4.712   6.950 -0.4197 -0.0370  0.7364
  144OSM    H2F15880   2.278   4.774   7.011  0.0344  1.0347 -0.8185
  144OSM    H2G15881   2.176   4.785   6.872  0.3889  1.0773  1.4110
  144OSM    C3F15882   2.287   4.597   6.880 -0.1768 -0.1125  0.0681
  144OSM    H3F15883   2.337   4.523   6.947  1.0072  0.9033  0.3383
  144OSM    H3G15884   2.375   4.644   6.831 -1.3577 -0.2573 -2.3459
  144OSM    C4F15885   2.198   4.527   6.774  0.0543 -0.4215 -0.8471
  144OSM    H4F15886   2.089   4.536   6.796  0.1182  1.3998 -1.0759
  144OSM    H4G15887   2.221   4.420   6.790 -2.2210 -1.2710 -2.6034
  144OSM    C5F15888   2.220   4.555   6.621 -1.1124 -0.1655 -0.4363
  144OSM    H5F15889   2.185   4.660   6.612 -1.4648 -0.3634 -1.5043
  144OSM    H5G15890   2.159   4.480   6.567 -1.6131 -1.6428  2.0477
  144OSM    C6F15891   2.368   4.546   6.579  0.7003 -0.0422  0.7784
  144OSM    H6F15892   2.428   4.634   6.611  0.2833  0.8717 -0.8379
  144OSM    H6G15893   2.375   4.534   6.469  0.5447 -1.0786  0.8700
  144OSM    C7F15894   2.434   4.414   6.626 -0.5329 -0.7676  0.4744
  144OSM    H7F15895   2.379   4.322   6.598  0.2383 -0.9319 -0.5617
  144OSM    H7G15896   2.449   4.408   6.736  1.1714 -4.4498  0.1727
  144OSM    C8F15897   2.574   4.395   6.572 -0.4256 -0.2506 -0.7769
  144OSM    H8F15898   2.556   4.405   6.463 -1.1138  3.0804 -0.4651
  144OSM    H8G15899   2.609   4.291   6.590 -1.6791 -1.3654 -3.9269
  144OSM    C9F15900   2.681   4.494   6.620 -0.1094 -0.3305 -0.3714
  144OSM    H9F15901   2.693   4.502   6.729 -0.6690 -0.1565 -0.3178
  144OSM   C10F15902   2.753   4.577   6.550  0.2739 -0.5485 -0.8563
  144OSM   H10F15903   2.819   4.646   6.605 -2.4448  2.3574 -0.9350
  144OSM   C11F15904   2.771   4.588   6.403  0.5762 -0.0070 -0.0263
  144OSM   H11F15905   2.749   4.690   6.367  0.3369  0.5322  1.5465
  144OSM   H11G15906   2.706   4.515   6.351 -1.5766  0.3981  1.9334
  144OSM   C12F15907   2.914   4.563   6.361 -0.6119  0.3778  0.1903
  144OSM   H12F15908   2.938   4.455   6.375  1.7357  0.5308 -1.9695
  144OSM   H12G15909   2.984   4.625   6.420  0.2781 -1.9532  1.7468
  144OSM   C13F15910   2.917   4.581   6.208 -0.2686  0.4789  0.2955
  144OSM   H13F15911   3.018   4.560   6.167 -1.1098 -0.5879 -1.3619
  144OSM   H13G15912   2.888   4.687   6.192 -1.9544 -0.3409 -3.0145
  144OSM   C14F15913   2.808   4.503   6.138  0.5123  0.6350  0.6442
  144OSM   H14F15914   2.708   4.550   6.145 -0.9524 -2.2607  0.6705
  144OSM   H14G15915   2.793   4.410   6.197 -0.2371  0.1390 -0.3070
  144OSM   C15F15916   2.842   4.459   5.995  0.2470  0.0091 -0.2438
  144OSM   H15F15917   2.769   4.384   5.957 -0.3655  0.2323  0.4727
  144OSM   H15G15918   2.940   4.407   5.996  0.5862  0.6389 -0.0777
  144OSM   C16F15919   2.845   4.584   5.899  0.4654 -0.2935 -1.0053
  144OSM   H16F15920   2.884   4.670   5.957  0.4536 -0.9300 -0.0361
  144OSM   H16G15921   2.736   4.604   5.890  1.0813  2.5166 -4.2256
  144OSM   C17F15922   2.901   4.578   5.760  0.1642 -0.0920  0.2708
  144OSM   H17F15923   3.009   4.550   5.756 -0.0786 -1.1533  0.6961
  144OSM   H17G15924   2.902   4.681   5.720 -0.6466 -0.3263 -0.3915
  144OSM   C18F15925   2.824   4.490   5.663 -0.0462  0.0563  0.2350
  144OSM   H18F15926   2.849   4.384   5.684  0.0559  0.2229  0.9496
  144OSM   H18G15927   2.856   4.514   5.559 -0.2743 -0.3544  0.0661
  144OSM   H18H15928   2.714   4.503   5.672  0.2697  2.5213  1.0868
  145OSM      N15929   2.843   1.396   7.441  0.3257  0.0494 -0.4718
  145OSM    C1515930   2.822   1.255   7.468 -0.1826  0.9151 -0.5637
  145OSM   H15A15931   2.896   1.182   7.441 -1.6113 -0.9100  0.2617
  145OSM   H15B15932   2.731   1.223   7.420 -1.4162  0.4046  1.9870
  145OSM   H15C15933   2.814   1.250   7.575  0.0933  1.7113 -0.4980
  145OSM    C1415934   2.721   1.482   7.472  0.1847  1.1002 -0.1167
  145OSM   H14A15935   2.685   1.463   7.572  3.0741 -1.0010  0.6793
  145OSM   H14B15936   2.646   1.457   7.399 -1.7841 -0.5586  2.3059
  145OSM   H14C15937   2.741   1.588   7.464  3.0147  0.5143 -2.1573
  145OSM    C1315938   2.957   1.440   7.531  0.2757 -0.0973 -0.4276
  145OSM   H13A15939   2.939   1.427   7.637  1.8258  2.1070  0.1618
  145OSM   H13B15940   2.965   1.547   7.522 -2.4655  0.1757 -0.6381
  145OSM   H13C15941   3.044   1.384   7.501 -1.3073 -1.5728 -2.6174
  145OSM    C1215942   2.889   1.426   7.300  0.7374  0.0467  0.6846
  145OSM   H12A15943   2.985   1.383   7.276 -0.1368 -2.3592  1.1391
  145OSM   H12B15944   2.919   1.529   7.287  2.3315 -0.3250  1.1909
  145OSM    C1115945   2.785   1.380   7.186 -0.1173  0.1512 -0.1241
  145OSM   H11A15946   2.743   1.281   7.214 -0.5192  0.1480 -0.7104
  145OSM   H11B15947   2.832   1.378   7.085 -0.8169 -0.9929 -0.4439
  145OSM      P15948   2.536   1.414   7.117  0.3304 -0.2334 -0.1641
  145OSM    O1315949   2.474   1.299   7.180 -0.4750  0.2822 -0.7748
  145OSM    O1415950   2.451   1.534   7.105  0.2735 -0.0486 -0.3226
  145OSM    O1115951   2.581   1.373   6.970 -0.6369 -0.2087 -0.1280
  145OSM    O1215952   2.673   1.464   7.180  0.1615 -0.4673 -0.0147
  145OSM    C1S15953   2.582   1.238   6.918 -0.5215 -0.4752 -0.3685
  145OSM    H1S15954   2.497   1.184   6.965 -2.0599 -0.1960 -2.6494
  145OSM    H1T15955   2.682   1.192   6.932 -0.7802 -0.8726  0.2484
  145OSM     NF15956   2.577   1.103   6.723 -0.7178 -0.2249 -0.3082
  145OSM    HNF15957   2.661   1.093   6.671 -0.0478  1.6159  0.3382
  145OSM    C2S15958   2.562   1.238   6.761  0.4144 -0.0731  1.0345
  145OSM    H2S15959   2.460   1.276   6.739 -0.6298 -2.9522  0.3788
  145OSM    C3S15960   2.659   1.343   6.691  0.3725  0.5793 -0.9930
  145OSM    H3S15961   2.766   1.321   6.707 -0.4622 -1.6685  2.5011
  145OSM     O315962   2.639   1.478   6.717 -0.3890 -0.4912  0.2339
  145OSM    HO315963   2.556   1.486   6.766 -1.7515 -1.2176 -1.8136
  145OSM    C4S15964   2.634   1.328   6.544 -0.1894 -0.1542  0.3709
  145OSM    H4S15965   2.533   1.360   6.512 -0.0108  2.7197  2.2710
  145OSM    C5S15966   2.726   1.294   6.448  0.7018 -0.2841  0.0796
  145OSM    H5S15967   2.832   1.287   6.475  0.6428  1.4358  0.9200
  145OSM    C6S15968   2.681   1.271   6.310 -0.2806 -0.1091  0.9827
  145OSM    H6S15969   2.749   1.322   6.238  0.6396 -0.3975  1.6246
  145OSM    H6T15970   2.582   1.316   6.286  1.1963  2.0811 -1.6107
  145OSM    C7S15971   2.670   1.118   6.271 -0.0654  0.6094 -0.3687
  145OSM    H7S15972   2.596   1.070   6.338 -0.7446  0.7610 -0.9928
  145OSM    H7T15973   2.772   1.080   6.290 -0.9078 -1.4634  0.3308
  145OSM    C8S15974   2.624   1.082   6.128  0.9129 -0.4076 -0.2175
  145OSM    H8S15975   2.531   1.138   6.105  0.3638 -1.5001 -0.7450
  145OSM    H8T15976   2.620   0.972   6.112  0.7790 -0.1981 -1.8131
  145OSM    C9S15977   2.726   1.132   6.027  0.0033 -0.1593 -0.0623
  145OSM    H9S15978   2.823   1.085   6.051  1.7005  3.2233  0.2331
  145OSM    H9T15979   2.728   1.242   6.039  0.1921 -0.4220  3.1718
  145OSM   C10S15980   2.689   1.107   5.880 -0.4144  0.0239 -1.0403
  145OSM   H10S15981   2.615   1.188   5.860  2.2022  2.2529 -2.3230
  145OSM   H10T15982   2.636   1.009   5.883  0.4243 -0.4214  1.2086
  145OSM   C11S15983   2.802   1.118   5.781  0.8044  0.5315 -0.1808
  145OSM   H11S15984   2.853   1.023   5.757 -0.0492  0.2577 -1.0166
  145OSM   H11T15985   2.876   1.196   5.808  0.7648  0.4233  0.2384
  145OSM   C12S15986   2.750   1.148   5.639  0.4276 -0.5144 -0.5228
  145OSM   H12S15987   2.694   1.243   5.646 -0.9720 -1.0873 -2.8518
  145OSM   H12T15988   2.680   1.065   5.615  0.0134 -0.1257 -0.6737
  145OSM   C13S15989   2.854   1.156   5.531 -0.3628 -0.1811 -0.3773
  145OSM   H13S15990   2.919   1.066   5.531 -0.3870 -0.2033 -1.5212
  145OSM   H13T15991   2.925   1.240   5.544  0.0432 -0.3515 -1.4521
  145OSM   C14S15992   2.798   1.178   5.392 -0.1258  0.0541  0.1142
  145OSM   H14S15993   2.709   1.112   5.382 -1.6058  2.1068 -1.1397
  145OSM   H14T15994   2.857   1.145   5.305 -0.2588  0.4825 -0.1412
  145OSM   C15S15995   2.751   1.324   5.368  0.2947 -0.0893 -0.5530
  145OSM   H15S15996   2.842   1.387   5.354 -0.4594  0.8084 -1.5403
  145OSM   H15T15997   2.696   1.361   5.457  0.2111 -0.5592 -0.4047
  145OSM   C16S15998   2.665   1.339   5.250  0.1495  0.1214  0.4739
  145OSM   H16S15999   2.612   1.437   5.253 -1.2774 -0.5482 -1.4301
  145OSM   H16T16000   2.592   1.256   5.260  0.5201 -0.4809 -1.3919
  145OSM   C17S16001   2.752   1.331   5.125  0.7866  0.0697 -0.3574
  145OSM   H17S16002   2.801   1.231   5.123  1.9551  0.4723  2.8935
  145OSM   H17T16003   2.837   1.399   5.146 -0.0985  1.0919 -0.0187
  145OSM   C18S16004   2.695   1.385   4.990 -0.1093 -1.1331  0.0067
  145OSM   H18S16005   2.761   1.393   4.901 -0.4126  0.5433 -0.0892
  145OSM   H18T16006   2.677   1.494   4.993 -1.9171 -1.3218 -1.6409
  145OSM   H18U16007   2.602   1.326   4.969 -1.8449  0.9276  1.5201
  145OSM    C1F16008   2.487   1.003   6.755 -0.4698 -0.0168 -0.0744
  145OSM     OF16009   2.381   1.029   6.810 -0.0087  0.2246  0.2853
  145OSM    C2F16010   2.517   0.867   6.700  0.2237  0.2345  0.0254
  145OSM    H2F16011   2.516   0.797   6.786  0.8104  0.5619  0.3087
  145OSM    H2G16012   2.624   0.871   6.669 -0.4109  2.2502 -2.2248
  145OSM    C3F16013   2.423   0.843   6.581  0.3798 -0.1276 -0.5573
  145OSM    H3F16014   2.469   0.911   6.507  1.4799 -0.5559 -0.3037
  145OSM    H3G16015   2.326   0.886   6.615  0.5934 -0.4560  0.5233
  145OSM    C4F16016   2.402   0.700   6.550  0.2349  0.0212  0.1570
  145OSM    H4F16017   2.331   0.659   6.626 -0.5855  0.7449 -0.1970
  145OSM    H4G16018   2.501   0.652   6.569  1.2055  2.0130  0.3755
  145OSM    C5F16019   2.346   0.664   6.411  0.6080  0.8210  0.2150
  145OSM    H5F16020   2.238   0.689   6.405  0.4217 -0.1785 -1.1059
  145OSM    H5G16021   2.357   0.555   6.393 -0.5959  0.9547 -1.6411
  145OSM    C6F16022   2.417   0.736   6.295 -0.2969 -1.1369  0.3726
  145OSM    H6F16023   2.516   0.690   6.272 -0.9335 -3.5226  2.0632
  145OSM    H6G16024   2.425   0.843   6.324 -1.0684 -0.7585 -0.7169
  145OSM    C7F16025   2.330   0.745   6.166  0.3262 -0.4281  1.1431
  145OSM    H7F16026   2.339   0.849   6.127  2.6583 -1.5095 -1.5807
  145OSM    H7G16027   2.223   0.734   6.194  0.4030 -0.0782  1.5816
  145OSM    C8F16028   2.377   0.655   6.051  0.1482  0.0145 -0.0139
  145OSM    H8F16029   2.302   0.638   5.970  0.8148 -1.0376 -0.4388
  145OSM    H8G16030   2.375   0.554   6.097 -1.0093 -0.3271 -0.7800
  145OSM    C9F16031   2.517   0.680   5.997  0.5682  0.3832  0.0483
  145OSM    H9F16032   2.590   0.661   6.077 -0.5474 -1.0770  0.7807
  145OSM   C10F16033   2.558   0.730   5.880  0.1141  0.0184  0.5775
  145OSM   H10F16034   2.664   0.748   5.861 -0.1186  0.1787 -0.5970
  145OSM   C11F16035   2.448   0.771   5.776  0.4333  0.2764 -0.0716
  145OSM   H11F16036   2.395   0.865   5.800 -0.5247 -0.9587  3.2450
  145OSM   H11G16037   2.367   0.697   5.760 -0.5925  1.5416 -0.9266
  145OSM   C12F16038   2.524   0.784   5.637 -0.3056  0.7396 -0.3464
  145OSM   H12F16039   2.569   0.685   5.612 -2.0520 -0.4141  0.8400
  145OSM   H12G16040   2.597   0.867   5.647  3.4102 -2.1250 -1.3106
  145OSM   C13F16041   2.421   0.823   5.528  0.1784  0.1408  0.2572
  145OSM   H13F16042   2.368   0.917   5.554 -1.5097 -0.4030 -1.0551
  145OSM   H13G16043   2.353   0.735   5.528  0.5614 -0.2369 -2.8341
  145OSM   C14F16044   2.485   0.841   5.392  0.0274 -0.3861  0.0973
  145OSM   H14F16045   2.545   0.751   5.369 -2.0625 -1.4036 -1.8117
  145OSM   H14G16046   2.544   0.935   5.392  1.1316 -1.0338 -1.4501
  145OSM   C15F16047   2.371   0.849   5.283 -0.2993 -0.0763  0.4154
  145OSM   H15F16048   2.304   0.937   5.294 -1.7507 -0.9991 -0.6761
  145OSM   H15G16049   2.304   0.761   5.291 -1.0671  0.6742  3.2814
  145OSM   C16F16050   2.426   0.846   5.139 -0.1118 -0.7649 -0.5102
  145OSM   H16F16051   2.346   0.841   5.062  1.9624  0.2885 -2.8309
  145OSM   H16G16052   2.486   0.752   5.138  0.6193 -0.2978 -0.7781
  145OSM   C17F16053   2.522   0.956   5.098 -0.0658  0.1051  0.4868
  145OSM   H17F16054   2.625   0.931   5.132 -0.4249 -0.5800  1.1081
  145OSM   H17G16055   2.490   1.054   5.137  2.0385  2.3638 -2.9059
  145OSM   C18F16056   2.523   0.966   4.940  0.3571  0.0255  0.4406
  145OSM   H18F16057   2.429   1.010   4.900 -0.2880 -1.5316  0.1564
  145OSM   H18G16058   2.542   0.869   4.889 -0.5721  0.0570  0.0250
  145OSM   H18H16059   2.602   1.037   4.907 -0.7694  1.7035  1.2289
  146OSM      N16060   0.463   2.288   7.858  0.5756 -0.5861  0.5823
  146OSM    C1516061   0.463   2.385   7.976 -0.7771 -0.3177 -0.1337
  146OSM   H15A16062   0.463   2.329   8.069  0.8277 -0.8820 -0.4401
  146OSM   H15B16063   0.377   2.450   7.970  0.4245  1.3059 -0.2487
  146OSM   H15C16064   0.550   2.448   7.973 -0.1882 -1.1038 -0.0061
  146OSM    C1416065   0.581   2.196   7.869  0.4182  0.0721 -0.3693
  146OSM   H14A16066   0.595   2.148   7.964 -0.8402 -1.9882 -1.1623
  146OSM   H14B16067   0.679   2.232   7.840  0.6882 -2.3931 -3.0435
  146OSM   H14C16068   0.565   2.121   7.793 -0.6615  0.3465 -0.4164
  146OSM    C1316069   0.337   2.208   7.869 -0.7133  0.5138  0.3896
  146OSM   H13A16070   0.255   2.270   7.833 -1.8589 -1.8407 -1.3206
  146OSM   H13B16071   0.315   2.180   7.971  1.5001 -4.2060 -0.1840
  146OSM   H13C16072   0.339   2.127   7.798 -1.0887  2.3141 -1.8123
  146OSM    C1216073   0.460   2.364   7.728 -0.4092 -0.2029  0.1526
  146OSM   H12A16074   0.539   2.438   7.724 -0.3864 -0.1193  1.5601
  146OSM   H12B16075   0.369   2.423   7.725 -0.0832  0.2866 -0.3106
  146OSM    C1116076   0.462   2.283   7.595 -0.2536  0.8338  0.7242
  146OSM   H11A16077   0.458   2.361   7.516  1.3076  0.0884 -0.1519
  146OSM   H11B16078   0.371   2.220   7.606 -0.2150  0.6484  0.0211
  146OSM      P16079   0.712   2.226   7.536  0.2038 -0.1837 -0.1204
  146OSM    O1316080   0.783   2.298   7.650  0.2219 -0.1275  0.4275
  146OSM    O1416081   0.778   2.105   7.484  0.1583  0.0717 -0.3231
  146OSM    O1116082   0.690   2.323   7.417 -0.1945  0.3466  0.1800
  146OSM    O1216083   0.569   2.187   7.575  0.0727 -0.0803  0.4714
  146OSM    C1S16084   0.682   2.265   7.287 -0.7321  0.0907  0.2389
  146OSM    H1S16085   0.598   2.193   7.291 -0.9996  0.3893  0.0353
  146OSM    H1T16086   0.775   2.209   7.262  0.1442  2.0169 -1.1454
  146OSM     NF16087   0.608   2.316   7.045 -0.1605 -0.2088 -0.1491
  146OSM    HNF16088   0.651   2.339   6.958 -0.3374 -0.5887 -0.3387
  146OSM    C2S16089   0.646   2.375   7.174  0.6766 -0.1704  0.9009
  146OSM    H2S16090   0.553   2.420   7.215 -0.1259 -1.0937  0.1266
  146OSM    C3S16091   0.754   2.484   7.178  1.3688 -0.6154  0.8236
  146OSM    H3S16092   0.848   2.426   7.190  0.2628 -2.9682 -0.8881
  146OSM     O316093   0.742   2.569   7.292 -0.3621  0.1673 -0.0514
  146OSM    HO316094   0.685   2.521   7.352  0.4993 -4.1221 -2.2427
  146OSM    C4S16095   0.761   2.571   7.053  0.3754  0.3989 -0.8252
  146OSM    H4S16096   0.672   2.590   6.990 -0.0185 -0.3640 -0.5107
  146OSM    C5S16097   0.874   2.637   7.017  0.3668 -1.6623 -0.2217
  146OSM    H5S16098   0.967   2.631   7.075  1.6352  0.1683 -1.9359
  146OSM    C6S16099   0.877   2.729   6.898  0.5185 -0.6400  0.4567
  146OSM    H6S16100   0.900   2.832   6.932 -0.1178 -0.4805  0.4155
  146OSM    H6T16101   0.781   2.723   6.841  0.8341  0.9896 -0.3219
  146OSM    C7S16102   0.979   2.702   6.782 -0.0747 -0.4902  0.2564
  146OSM    H7S16103   0.958   2.601   6.741 -0.6961 -0.6334  0.8993
  146OSM    H7T16104   1.087   2.696   6.803  0.1215 -0.4666 -0.6943
  146OSM    C8S16105   0.965   2.792   6.661 -0.4008 -0.0491 -0.4699
  146OSM    H8S16106   1.017   2.889   6.675 -0.7650  0.0985 -0.1082
  146OSM    H8T16107   0.855   2.811   6.660 -0.9225 -2.6647 -0.5969
  146OSM    C9S16108   1.004   2.724   6.528  0.0351 -0.1063 -0.0816
  146OSM    H9S16109   0.950   2.627   6.517 -1.8476  0.6239  1.8186
  146OSM    H9T16110   1.109   2.689   6.529 -0.6405 -2.3748 -1.5443
  146OSM   C10S16111   0.974   2.809   6.403  0.7026 -0.4692 -0.6057
  146OSM   H10S16112   1.025   2.907   6.409  0.8271 -0.5859  0.5255
  146OSM   H10T16113   0.863   2.813   6.404  0.6553 -0.6072 -2.2994
  146OSM   C11S16114   1.025   2.742   6.273 -0.1710  0.5782 -0.2782
  146OSM   H11S16115   1.015   2.633   6.285  0.0926  0.5890  0.0546
  146OSM   H11T16116   1.130   2.774   6.254  0.1232 -0.8949 -1.2406
  146OSM   C12S16117   0.943   2.782   6.153 -0.5022  0.0393  0.0267
  146OSM   H12S16118   0.942   2.893   6.151 -1.1575  0.0407  0.1304
  146OSM   H12T16119   0.842   2.736   6.168 -0.3808 -0.2056  0.0947
  146OSM   C13S16120   1.010   2.743   6.013  0.9328 -0.1641 -0.5409
  146OSM   H13S16121   1.009   2.632   6.003  1.6973 -0.2144 -0.1449
  146OSM   H13T16122   1.115   2.777   6.023  0.1710  1.7776  1.8814
  146OSM   C14S16123   0.945   2.809   5.890 -0.4033  0.4763  0.4722
  146OSM   H14S16124   0.960   2.916   5.916 -0.1528  0.4801  0.3157
  146OSM   H14T16125   0.835   2.794   5.890 -0.1548 -1.7479  0.9581
  146OSM   C15S16126   1.017   2.777   5.765 -0.5513 -0.6048  0.5416
  146OSM   H15S16127   1.039   2.668   5.756 -2.9071 -1.2428  1.7963
  146OSM   H15T16128   1.121   2.817   5.759 -1.1125  0.9935  1.0318
  146OSM   C16S16129   0.951   2.829   5.634  0.2574  0.0872 -0.2847
  146OSM   H16S16130   0.848   2.789   5.641  0.8014 -1.1689  0.8660
  146OSM   H16T16131   1.002   2.783   5.546 -3.1081  1.4792 -3.2245
  146OSM   C17S16132   0.948   2.980   5.628  0.5071  0.5883  0.4986
  146OSM   H17S16133   1.056   3.006   5.620  0.9154 -1.3847 -1.6915
  146OSM   H17T16134   0.912   3.029   5.721 -1.2287  0.1304  0.0926
  146OSM   C18S16135   0.869   3.036   5.510  0.3530 -0.0109 -0.5461
  146OSM   H18S16136   0.893   3.143   5.493 -0.6212 -0.0029 -2.0264
  146OSM   H18T16137   0.762   3.008   5.524  0.6673 -0.4613  1.2309
  146OSM   H18U16138   0.915   2.988   5.421 -1.4425  1.2165 -2.2221
  146OSM    C1F16139   0.505   2.233   7.037  0.4981  0.5075 -0.4270
  146OSM     OF16140   0.432   2.207   7.134 -0.4331  0.1617  0.1170
  146OSM    C2F16141   0.484   2.165   6.910 -0.4093  0.1461 -0.1907
  146OSM    H2F16142   0.525   2.062   6.913  1.4519  0.7937 -1.6169
  146OSM    H2G16143   0.534   2.227   6.832 -0.4173  0.9460  0.4179
  146OSM    C3F16144   0.335   2.165   6.886 -0.3822  0.2326 -0.2789
  146OSM    H3F16145   0.302   2.271   6.894 -2.3471 -0.2515 -1.4268
  146OSM    H3G16146   0.281   2.095   6.953  0.9861 -0.3127  0.2926
  146OSM    C4F16147   0.298   2.116   6.741 -0.4142 -0.3112  0.3329
  146OSM    H4F16148   0.329   2.183   6.658  0.8147 -0.5132  0.6045
  146OSM    H4G16149   0.188   2.109   6.724 -0.5024  0.4154  0.5906
  146OSM    C5F16150   0.358   1.981   6.703 -0.3764  0.4159 -0.0120
  146OSM    H5F16151   0.327   1.911   6.784  1.9961  0.2112  0.7917
  146OSM    H5G16152   0.468   1.976   6.708 -0.3859 -0.5504 -0.3944
  146OSM    C6F16153   0.329   1.935   6.565  0.5373  0.2294  0.2768
  146OSM    H6F16154   0.399   1.854   6.533 -0.3458 -0.3253 -0.3074
  146OSM    H6G16155   0.342   2.022   6.497 -3.0827 -0.0762 -1.0063
  146OSM    C7F16156   0.190   1.876   6.532 -0.0742 -0.2186 -0.1464
  146OSM    H7F16157   0.118   1.955   6.562 -0.4206 -0.5144 -0.1944
  146OSM    H7G16158   0.167   1.797   6.607 -3.1620  0.6767 -0.0088
  146OSM    C8F16159   0.163   1.846   6.390  0.3655  0.0364 -0.0105
  146OSM    H8F16160   0.260   1.832   6.338  0.6963  1.2801  0.2494
  146OSM    H8G16161   0.119   1.940   6.350 -0.8386 -0.6239 -0.2968
  146OSM    C9F16162   0.054   1.744   6.363 -0.5853  0.0657  0.4760
  146OSM    H9F16163  -0.011   1.713   6.446  1.3204  0.9245  2.4137
  146OSM   C10F16164   0.036   1.693   6.236 -0.9404 -0.1059 -0.2109
  146OSM   H10F16165  -0.042   1.616   6.229 -0.0944 -1.0954  0.9384
  146OSM   C11F16166   0.111   1.736   6.110 -0.1218 -0.1992  0.5788
  146OSM   H11F16167   0.165   1.658   6.053 -0.4199 -0.0478  0.0764
  146OSM   H11G16168   0.181   1.818   6.138  0.0726 -0.7630  1.7790
  146OSM   C12F16169   0.007   1.786   6.003 -0.0286 -0.1525 -0.0274
  146OSM   H12F16170  -0.062   1.854   6.056  1.0612  0.2514  0.9217
  146OSM   H12G16171  -0.054   1.699   5.972  0.1598 -0.0414 -0.7234
  146OSM   C13F16172   0.071   1.842   5.877  0.0561 -0.2207 -0.4770
  146OSM   H13F16173   0.147   1.776   5.830 -0.7900 -0.8300 -1.0141
  146OSM   H13G16174   0.118   1.938   5.909  1.2270 -0.9963  0.1678
  146OSM   C14F16175  -0.035   1.861   5.760 -0.1272  0.2404  0.2273
  146OSM   H14F16176  -0.087   1.763   5.749  1.2581 -0.5036  0.1077
  146OSM   H14G16177  -0.119   1.923   5.797  0.9530  2.6447 -1.1660
  146OSM   C15F16178   0.014   1.923   5.628  0.6008 -0.1622 -1.0600
  146OSM   H15F16179   0.044   2.025   5.660 -2.4098  0.1585  1.2177
  146OSM   H15G16180  -0.068   1.935   5.554  0.5233 -0.3351 -1.0013
  146OSM   C16F16181   0.119   1.835   5.555 -0.2319  0.3992  0.5822
  146OSM   H16F16182   0.205   1.810   5.622  1.1573  1.3284 -0.7859
  146OSM   H16G16183   0.168   1.899   5.478 -2.0321  0.8105 -0.2653
  146OSM   C17F16184   0.068   1.706   5.495 -0.3594 -0.0065  0.2266
  146OSM   H17F16185  -0.032   1.725   5.451 -0.0772  1.2675  0.1090
  146OSM   H17G16186   0.058   1.627   5.572  1.8405 -1.4348 -0.8301
  146OSM   C18F16187   0.156   1.659   5.388 -0.2854  0.3322 -0.7098
  146OSM   H18F16188   0.262   1.648   5.417 -0.1931  0.1774 -1.1013
  146OSM   H18G16189   0.144   1.725   5.300  0.4903  0.9138 -0.3820
  146OSM   H18H16190   0.117   1.561   5.351  0.0587 -0.0376 -0.1113
  147OSM      N16191   5.338   5.055   2.667  0.0925 -0.0001  0.2984
  147OSM    C1516192   5.383   4.985   2.790 -0.6776 -0.1051 -0.0401
  147OSM   H15A16193   5.299   4.955   2.850  0.4888  1.0930  2.3569
  147OSM   H15B16194   5.449   5.053   2.842 -0.2579  1.5611 -2.5878
  147OSM   H15C16195   5.434   4.896   2.757  0.9745  0.4025  0.9683
  147OSM    C1416196   5.442   5.164   2.637 -0.1464  0.2892 -0.5737
  147OSM   H14A16197   5.440   5.242   2.711  2.4141 -1.1952  1.2153
  147OSM   H14B16198   5.420   5.225   2.550  0.6616  1.4688  0.0164
  147OSM   H14C16199   5.541   5.125   2.620 -0.4430 -0.0807 -1.4936
  147OSM    C1316200   5.341   4.954   2.559 -0.2143  0.2048  0.2351
  147OSM   H13A16201   5.357   4.999   2.462  0.7084  0.9316  0.7121
  147OSM   H13B16202   5.267   4.876   2.572  1.3096 -1.1921  0.7790
  147OSM   H13C16203   5.434   4.899   2.563 -0.7108 -0.9080 -1.9105
  147OSM    C1216204   5.203   5.119   2.689 -0.4040  0.0979 -0.4783
  147OSM   H12A16205   5.122   5.048   2.678 -1.3262  0.8665  1.0404
  147OSM   H12B16206   5.196   5.189   2.607  2.3091  0.2844 -0.6311
  147OSM    C1116207   5.182   5.200   2.818  0.0327 -0.1185  0.1471
  147OSM   H11A16208   5.270   5.268   2.825 -0.6940  0.8979 -0.2572
  147OSM   H11B16209   5.175   5.139   2.910  1.1546  0.6547  0.7752
  147OSM      P16210   4.951   5.295   2.911 -0.2799  0.0601 -0.3082
  147OSM    O1316211   4.867   5.412   2.888 -0.4244  0.1952  0.7193
  147OSM    O1416212   4.875   5.163   2.919 -0.3280 -0.5098 -0.0842
  147OSM    O1116213   5.036   5.316   3.044  0.4533  0.1234 -0.5408
  147OSM    O1216214   5.069   5.287   2.803 -0.5454 -0.4197  0.0887
  147OSM    C1S16215   5.143   5.403   3.072  0.2755  0.4804  0.3260
  147OSM    H1S16216   5.119   5.511   3.063  0.9866  0.6807  0.7816
  147OSM    H1T16217   5.230   5.386   3.006 -0.7907  1.1881 -1.3278
  147OSM     NF16218   5.316   5.464   3.242  0.1150  0.1150 -0.1606
  147OSM    HNF16219   5.397   5.407   3.225 -1.2459 -1.3892 -2.0838
  147OSM    C2S16220   5.197   5.376   3.217 -0.4596 -0.9510 -0.3026
  147OSM    H2S16221   5.110   5.401   3.283 -0.6566  0.0988 -0.9488
  147OSM    C3S16222   5.246   5.234   3.234  0.8908 -0.0451 -0.2324
  147OSM    H3S16223   5.338   5.222   3.173  2.5804  1.4503  1.8948
  147OSM     O316224   5.156   5.138   3.179  0.3954 -0.2446 -0.4226
  147OSM    HO316225   5.097   5.191   3.125  1.5321 -0.9954 -2.5160
  147OSM    C4S16226   5.294   5.204   3.378  0.2710  0.0435 -0.1031
  147OSM    H4S16227   5.397   5.233   3.401  1.3477 -2.9952 -0.6475
  147OSM    C5S16228   5.227   5.157   3.480  0.5892 -0.4552 -0.1485
  147OSM    H5S16229   5.119   5.142   3.466  0.6835 -0.3469 -1.0526
  147OSM    C6S16230   5.292   5.144   3.614  0.4493 -0.3018  0.0304
  147OSM    H6S16231   5.369   5.217   3.644  0.0548 -1.0734  3.3226
  147OSM    H6T16232   5.343   5.046   3.621  0.0591 -0.5680 -0.7290
  147OSM    C7S16233   5.174   5.156   3.715  0.4110  0.0361  0.5933
  147OSM    H7S16234   5.100   5.073   3.712  0.5123 -0.0432  0.2425
  147OSM    H7T16235   5.127   5.257   3.703  2.5106  1.1865  1.5834
  147OSM    C8S16236   5.217   5.176   3.862 -0.0682 -0.2406 -0.0938
  147OSM    H8S16237   5.244   5.283   3.877  0.5632 -0.2100 -1.2878
  147OSM    H8T16238   5.303   5.107   3.880 -0.6328 -0.7483  0.7256
  147OSM    C9S16239   5.104   5.140   3.960 -0.1278  0.2303 -0.8190
  147OSM    H9S16240   5.081   5.033   3.941  1.2586 -0.4529  1.0564
  147OSM    H9T16241   5.018   5.208   3.940 -0.6203 -0.3446 -0.6792
  147OSM   C10S16242   5.129   5.151   4.117 -0.3977  0.2465 -0.4778
  147OSM   H10S16243   5.193   5.066   4.150  0.6507  1.3547  0.4596
  147OSM   H10T16244   5.041   5.161   4.184 -0.2888  2.4211 -0.5809
  147OSM   C11S16245   5.213   5.273   4.151  0.0725 -0.2894  0.3312
  147OSM   H11S16246   5.163   5.362   4.108 -1.9521 -1.1331  0.8522
  147OSM   H11T16247   5.311   5.273   4.099 -1.3949  1.4486 -2.6597
  147OSM   C12S16248   5.219   5.312   4.298 -0.0229 -0.5263  0.3158
  147OSM   H12S16249   5.297   5.391   4.303  0.7247 -1.1855 -0.4922
  147OSM   H12T16250   5.257   5.220   4.348  0.7565 -1.7709 -2.3275
  147OSM   C13S16251   5.084   5.367   4.350 -0.0839  0.5256 -0.0292
  147OSM   H13S16252   5.024   5.274   4.354 -0.9208  0.8833 -2.5158
  147OSM   H13T16253   5.032   5.435   4.280  1.2009  1.5735 -0.0183
  147OSM   C14S16254   5.089   5.403   4.502 -0.3685  0.1795  0.2551
  147OSM   H14S16255   5.151   5.496   4.500  0.5883 -0.4508  0.0036
  147OSM   H14T16256   5.148   5.326   4.556  0.5630 -0.7736 -1.9939
  147OSM   C15S16257   4.955   5.429   4.566  0.0522  0.1860 -0.0495
  147OSM   H15S16258   4.882   5.346   4.571 -0.6597  0.8477  1.0295
  147OSM   H15T16259   4.897   5.505   4.509  0.7340  0.3005 -0.6069
  147OSM   C16S16260   4.988   5.473   4.716  0.6486 -0.1731  0.1935
  147OSM   H16S16261   4.902   5.527   4.761 -1.2127 -2.8087  0.0007
  147OSM   H16T16262   5.074   5.544   4.711 -1.5271  2.6626  0.0945
  147OSM   C17S16263   5.027   5.355   4.810 -0.0509  0.4422 -0.1378
  147OSM   H17S16264   5.091   5.279   4.760 -1.4856 -1.9718  1.4970
  147OSM   H17T16265   4.928   5.307   4.824 -0.1234 -0.1114 -2.1552
  147OSM   C18S16266   5.085   5.400   4.944 -0.5296  0.1664  0.2387
  147OSM   H18S16267   5.060   5.325   5.022 -0.6718 -0.1620 -0.1197
  147OSM   H18T16268   5.035   5.489   4.989  3.1301  0.7332  3.7604
  147OSM   H18U16269   5.193   5.427   4.937 -0.7831  2.3064  2.8550
  147OSM    C1F16270   5.315   5.592   3.271  0.0256  0.1600 -0.1894
  147OSM     OF16271   5.211   5.655   3.250  0.9315 -0.2881 -0.3600
  147OSM    C2F16272   5.445   5.656   3.309 -0.1235 -0.6629  0.0727
  147OSM    H2F16273   5.423   5.757   3.350 -2.8159 -0.1642 -2.3793
  147OSM    H2G16274   5.512   5.661   3.221  1.2370  0.3027  1.1039
  147OSM    C3F16275   5.526   5.567   3.415 -0.2687 -0.1295 -0.3986
  147OSM    H3F16276   5.605   5.631   3.460 -1.3318  0.7028  0.3308
  147OSM    H3G16277   5.572   5.478   3.366  0.8032  1.0741 -1.6660
  147OSM    C4F16278   5.438   5.531   3.542 -0.4918  0.4201 -0.1495
  147OSM    H4F16279   5.503   5.471   3.609 -1.6344 -0.3755  0.2984
  147OSM    H4G16280   5.349   5.465   3.527 -0.3157  0.3513 -0.9177
  147OSM    C5F16281   5.386   5.665   3.597 -0.6435  0.5261  0.9862
  147OSM    H5F16282   5.286   5.694   3.560 -0.1146  0.3473 -0.6848
  147OSM    H5G16283   5.457   5.747   3.570 -0.8065 -0.3333 -2.6008
  147OSM    C6F16284   5.376   5.663   3.754 -0.9559  0.1039 -0.6865
  147OSM    H6F16285   5.469   5.610   3.785 -1.5856 -0.8552 -0.3807
  147OSM    H6G16286   5.287   5.601   3.779 -1.3948  1.2498  0.7365
  147OSM    C7F16287   5.372   5.804   3.810 -0.0882  0.7878 -0.0368
  147OSM    H7F16288   5.278   5.849   3.772 -1.4036 -1.6051  0.1869
  147OSM    H7G16289   5.455   5.860   3.761  0.9076 -0.9379 -0.4149
  147OSM    C8F16290   5.391   5.808   3.961 -0.1265  0.2726 -0.3256
  147OSM    H8F16291   5.314   5.752   4.018  0.9420  0.8030  1.7272
  147OSM    H8G16292   5.383   5.914   3.992 -0.1401 -0.1834  1.3103
  147OSM    C9F16293   5.530   5.760   3.996 -0.2061 -0.3519 -0.1723
  147OSM    H9F16294   5.600   5.742   3.912  1.9779  0.7527  1.3096
  147OSM   C10F16295   5.585   5.746   4.118  0.2410  0.1264 -0.0087
  147OSM   H10F16296   5.684   5.699   4.132  1.2044  2.1902  0.6280
  147OSM   C11F16297   5.513   5.756   4.254 -0.5320 -0.4365 -0.4279
  147OSM   H11F16298   5.409   5.795   4.247 -0.3208  0.4036  0.8247
  147OSM   H11G16299   5.570   5.823   4.322  0.8505  1.3215 -3.1345
  147OSM   C12F16300   5.505   5.622   4.332  0.3497 -0.6013 -0.7891
  147OSM   H12F16301   5.610   5.589   4.348  0.1622  0.1317  2.6436
  147OSM   H12G16302   5.446   5.544   4.279  1.5335 -3.1849  1.4574
  147OSM   C13F16303   5.444   5.637   4.479  0.0027  0.2408 -0.9900
  147OSM   H13F16304   5.334   5.642   4.466 -0.6718 -1.0909  2.9084
  147OSM   H13G16305   5.470   5.736   4.524 -0.0731 -0.2853  0.2580
  147OSM   C14F16306   5.484   5.509   4.563 -0.8680 -0.0959 -0.5773
  147OSM   H14F16307   5.591   5.522   4.589 -0.8835 -0.1668 -0.4771
  147OSM   H14G16308   5.463   5.414   4.510 -0.9243  0.3755 -1.4129
  147OSM   C15F16309   5.419   5.501   4.702  0.0361  0.0127 -0.0821
  147OSM   H15F16310   5.311   5.493   4.677 -0.0654  1.4547 -0.1965
  147OSM   H15G16311   5.441   5.596   4.756  1.0789 -1.0473  1.4821
  147OSM   C16F16312   5.461   5.386   4.794 -0.2719  0.0810 -1.3138
  147OSM   H16F16313   5.459   5.287   4.744  1.0258  0.8909 -3.0875
  147OSM   H16G16314   5.392   5.378   4.881 -1.8848  0.0905 -2.5366
  147OSM   C17F16315   5.600   5.417   4.858  0.5683  0.8741 -0.0122
  147OSM   H17F16316   5.582   5.503   4.926  3.0780  0.1256  1.6927
  147OSM   H17G16317   5.665   5.431   4.769 -0.0932 -0.0575 -0.6677
  147OSM   C18F16318   5.660   5.302   4.928 -0.5747  0.0806 -0.6365
  147OSM   H18F16319   5.763   5.338   4.951 -1.0250  2.6724 -2.2833
  147OSM   H18G16320   5.677   5.207   4.874  1.3417 -1.7010  2.7553
  147OSM   H18H16321   5.612   5.272   5.023  0.4401 -0.5419 -0.3045
  148OSM      N16322   2.976   5.989   2.308  0.2879 -0.1947  0.1597
  148OSM    C1516323   2.908   5.870   2.368  0.5056 -0.2902 -0.2640
  148OSM   H15A16324   2.990   5.803   2.392  0.5445 -0.2345 -0.2396
  148OSM   H15B16325   2.843   5.831   2.292 -0.4575  0.1036  0.3396
  148OSM   H15C16326   2.862   5.898   2.462 -0.2591 -0.0592 -0.7062
  148OSM    C1416327   3.047   5.944   2.184  0.2778  0.2245  0.1622
  148OSM   H14A16328   3.132   5.885   2.214  0.3361 -0.3688 -1.0897
  148OSM   H14B16329   3.083   6.026   2.122  1.7945 -0.0796  0.5983
  148OSM   H14C16330   2.982   5.875   2.134  0.6728 -0.7498  0.9673
  148OSM    C1316331   2.877   6.091   2.259  0.7248  0.2843 -0.3948
  148OSM   H13A16332   2.801   6.118   2.330 -0.8932 -0.2394 -1.8741
  148OSM   H13B16333   2.828   6.059   2.169  0.0944 -1.4795  0.5206
  148OSM   H13C16334   2.934   6.174   2.219  1.2185  1.1579  1.9294
  148OSM    C1216335   3.073   6.061   2.409 -0.0776  0.4715 -0.0137
  148OSM   H12A16336   3.008   6.119   2.472  0.7525  0.5032  0.8485
  148OSM   H12B16337   3.138   6.123   2.350 -1.6497  1.0023 -1.2521
  148OSM    C1116338   3.161   5.976   2.497  0.0969 -0.5153 -0.3553
  148OSM   H11A16339   3.094   5.922   2.568 -1.0536  0.6512 -0.5113
  148OSM   H11B16340   3.213   6.044   2.567 -0.3655 -1.3444  0.8337
  148OSM      P16341   3.270   5.742   2.446 -0.2505  0.1780 -0.1429
  148OSM    O1316342   3.145   5.669   2.420 -0.6092 -0.4419 -0.2549
  148OSM    O1416343   3.386   5.693   2.368 -0.8107 -0.3699 -0.2375
  148OSM    O1116344   3.308   5.737   2.606  0.7522  0.7430 -0.2500
  148OSM    O1216345   3.252   5.894   2.422  0.0849  0.0645  0.0103
  148OSM    C1S16346   3.292   5.605   2.657 -0.2263 -0.3611 -0.1584
  148OSM    H1S16347   3.378   5.548   2.618 -1.1902 -1.8014 -0.2532
  148OSM    H1T16348   3.192   5.560   2.641  0.3652 -2.0576  0.6782
  148OSM     NF16349   3.292   5.471   2.866  0.2326 -0.3997 -0.5040
  148OSM    HNF16350   3.208   5.418   2.876  0.3677 -0.7062 -0.9582
  148OSM    C2S16351   3.293   5.608   2.813 -0.0909 -0.1760  0.0227
  148OSM    H2S16352   3.392   5.647   2.845 -0.5835 -0.1213  1.5379
  148OSM    C3S16353   3.189   5.710   2.868 -0.1475  0.7072  0.6490
  148OSM    H3S16354   3.088   5.679   2.836 -1.3749  1.4780  3.4505
  148OSM     O316355   3.194   5.843   2.821  0.2576 -0.1770  0.2108
  148OSM    HO316356   3.246   5.830   2.741  0.2357 -0.0361  0.1739
  148OSM    C4S16357   3.191   5.703   3.017 -0.4389 -0.0747 -0.3055
  148OSM    H4S16358   3.146   5.618   3.071  0.4228  0.8445  1.9960
  148OSM    C5S16359   3.280   5.771   3.095 -0.6677 -0.2676  0.1088
  148OSM    H5S16360   3.357   5.829   3.042 -1.1963  1.7084  1.3706
  148OSM    C6S16361   3.286   5.756   3.247 -1.1284 -0.2590 -0.0999
  148OSM    H6S16362   3.387   5.724   3.279 -0.5442  0.7900 -0.8229
  148OSM    H6T16363   3.219   5.675   3.282  1.9236 -2.6480  0.6004
  148OSM    C7S16364   3.255   5.892   3.316 -0.4571  1.0653  0.1857
  148OSM    H7S16365   3.153   5.929   3.291 -0.5388  1.0992  0.5638
  148OSM    H7T16366   3.330   5.968   3.283 -2.0780  2.4158 -0.5727
  148OSM    C8S16367   3.275   5.878   3.474  0.3502  1.1254 -0.5204
  148OSM    H8S16368   3.346   5.793   3.488 -1.2534 -0.4867 -1.6415
  148OSM    H8T16369   3.179   5.846   3.521  1.9533 -0.6675  1.7393
  148OSM    C9S16370   3.335   5.998   3.539 -0.4768 -0.5246 -0.3765
  148OSM    H9S16371   3.270   6.086   3.518  0.7348  0.2081 -1.2016
  148OSM    H9T16372   3.426   6.021   3.480 -2.0530  2.2312 -1.9476
  148OSM   C10S16373   3.367   5.997   3.695  0.3008  0.7377  0.1207
  148OSM   H10S16374   3.273   5.969   3.747  0.9274 -0.9470  0.3969
  148OSM   H10T16375   3.398   6.103   3.713 -0.1383  0.7533  0.8109
  148OSM   C11S16376   3.485   5.894   3.729  0.1446  0.2593 -0.5803
  148OSM   H11S16377   3.566   5.901   3.653  1.0957 -3.1857 -0.0695
  148OSM   H11T16378   3.445   5.792   3.707  0.8982  0.2210 -1.8786
  148OSM   C12S16379   3.516   5.904   3.880  0.2573 -0.1676  0.0911
  148OSM   H12S16380   3.590   5.832   3.921  0.0833 -0.0944  0.5363
  148OSM   H12T16381   3.424   5.883   3.937 -0.5336  2.0513 -0.2822
  148OSM   C13S16382   3.570   6.041   3.919  0.3509  0.0621  0.2400
  148OSM   H13S16383   3.508   6.130   3.893  0.1145  0.0533  0.7514
  148OSM   H13T16384   3.659   6.051   3.853  0.7030  3.4985  1.0423
  148OSM   C14S16385   3.609   6.062   4.067  0.2254 -0.4612 -0.0165
  148OSM   H14S16386   3.671   5.973   4.091 -0.7663 -1.2127 -0.1717
  148OSM   H14T16387   3.509   6.064   4.116 -0.1164  2.4531 -0.6495
  148OSM   C15S16388   3.700   6.190   4.094 -0.2243  0.3447  0.6706
  148OSM   H15S16389   3.638   6.267   4.043  0.3243 -0.0489 -0.6480
  148OSM   H15T16390   3.786   6.188   4.023 -1.5786  2.3238 -1.1760
  148OSM   C16S16391   3.732   6.212   4.237  0.0270  0.0586 -0.9885
  148OSM   H16S16392   3.796   6.127   4.269 -1.6403 -1.5037 -1.6418
  148OSM   H16T16393   3.640   6.199   4.299 -0.7159 -0.6457 -2.2165
  148OSM   C17S16394   3.783   6.352   4.278 -0.7044  0.4590  0.2944
  148OSM   H17S16395   3.749   6.438   4.217 -2.2177 -0.5354 -0.3461
  148OSM   H17T16396   3.893   6.360   4.262 -0.7143  0.4980  0.2450
  148OSM   C18S16397   3.762   6.368   4.430  0.8941 -0.7002  0.5290
  148OSM   H18S16398   3.657   6.400   4.447  1.0613  0.0122  0.2603
  148OSM   H18T16399   3.831   6.446   4.468 -1.4062  1.0334  1.3608
  148OSM   H18U16400   3.789   6.274   4.483  1.9089  0.3458  1.9417
  148OSM    C1F16401   3.406   5.394   2.867  0.7527  0.2203  0.1606
  148OSM     OF16402   3.513   5.439   2.832 -0.6588 -0.3207  0.1348
  148OSM    C2F16403   3.381   5.256   2.914  0.6832  0.6593  0.4484
  148OSM    H2F16404   3.473   5.195   2.931  0.2290 -0.0759  0.3028
  148OSM    H2G16405   3.326   5.198   2.837  2.3558 -1.5468  0.8027
  148OSM    C3F16406   3.313   5.246   3.056 -1.1871 -0.4731  0.4919
  148OSM    H3F16407   3.318   5.137   3.079 -1.8163 -0.8473 -1.0185
  148OSM    H3G16408   3.203   5.266   3.056 -1.1043 -0.0272  0.6377
  148OSM    C4F16409   3.386   5.328   3.164 -0.4552 -0.0934  0.1700
  148OSM    H4F16410   3.349   5.433   3.160 -0.4965  0.0255  2.3936
  148OSM    H4G16411   3.496   5.332   3.149 -0.8586 -0.5766 -3.9303
  148OSM    C5F16412   3.328   5.303   3.305  0.3470  0.0564 -0.1305
  148OSM    H5F16413   3.352   5.197   3.326  0.0111 -0.3820 -1.7831
  148OSM    H5G16414   3.218   5.318   3.298  0.6322  1.6408 -2.6105
  148OSM    C6F16415   3.389   5.389   3.414 -0.5778  0.7415  0.2831
  148OSM    H6F16416   3.388   5.496   3.384  1.0769  0.2046 -1.9634
  148OSM    H6G16417   3.497   5.365   3.428 -0.9548 -0.7923  0.7142
  148OSM    C7F16418   3.330   5.366   3.551 -0.0129  0.5143 -0.4692
  148OSM    H7F16419   3.346   5.261   3.584  1.9809  0.3784 -1.7378
  148OSM    H7G16420   3.221   5.378   3.535  0.0665 -0.2443 -1.6488
  148OSM    C8F16421   3.385   5.463   3.653 -0.0128  0.4127 -0.5990
  148OSM    H8F16422   3.398   5.565   3.610 -0.8356  0.6485 -0.3001
  148OSM    H8G16423   3.484   5.436   3.696  0.7505  1.5480 -1.5590
  148OSM    C9F16424   3.287   5.465   3.767 -1.0177  0.3037  1.1218
  148OSM    H9F16425   3.188   5.511   3.759 -0.2181  1.9041 -0.6283
  148OSM   C10F16426   3.313   5.425   3.898  0.7057  0.3260  0.5556
  148OSM   H10F16427   3.240   5.450   3.976 -1.7401 -0.3653 -1.3774
  148OSM   C11F16428   3.439   5.365   3.957  0.0484 -0.1169  0.3280
  148OSM   H11F16429   3.529   5.393   3.898  1.0945  0.7055  2.2191
  148OSM   H11G16430   3.438   5.253   3.959  2.2682 -0.1868 -0.3240
  148OSM   C12F16431   3.451   5.428   4.102 -0.1331  0.5892 -0.4391
  148OSM   H12F16432   3.529   5.364   4.148 -0.3253 -0.3948 -1.4606
  148OSM   H12G16433   3.358   5.407   4.159  1.3823 -0.9440  1.6483
  148OSM   C13F16434   3.476   5.575   4.108 -0.2213  0.0087  0.2713
  148OSM   H13F16435   3.416   5.622   4.027 -0.2598 -1.0021 -0.3065
  148OSM   H13G16436   3.583   5.604   4.099  0.5303 -2.5970 -0.1744
  148OSM   C14F16437   3.444   5.634   4.247 -0.0030 -0.4295 -0.1498
  148OSM   H14F16438   3.471   5.566   4.330  0.6533 -2.0223 -1.6073
  148OSM   H14G16439   3.334   5.638   4.267 -0.0331 -0.6821 -0.2596
  148OSM   C15F16440   3.500   5.773   4.275 -0.6354 -0.6893  0.4497
  148OSM   H15F16441   3.452   5.845   4.205 -2.4740 -1.8262  0.4838
  148OSM   H15G16442   3.609   5.767   4.253 -0.5091  2.2060 -0.0089
  148OSM   C16F16443   3.476   5.813   4.415 -0.0963  0.5471 -0.1854
  148OSM   H16F16444   3.525   5.743   4.486 -0.0486  1.5335  0.7711
  148OSM   H16G16445   3.366   5.813   4.430 -0.2598  1.7877 -1.2085
  148OSM   C17F16446   3.536   5.950   4.444  0.0319 -1.7169 -0.1935
  148OSM   H17F16447   3.498   6.024   4.370  1.6351  0.3735  0.9670
  148OSM   H17G16448   3.645   5.957   4.419 -0.0158  0.3863  0.0210
  148OSM   C18F16449   3.516   6.008   4.587  0.6356 -0.8442 -0.1192
  148OSM   H18F16450   3.579   5.956   4.663  0.9815 -0.1934  0.0483
  148OSM   H18G16451   3.409   6.004   4.617  0.8689 -0.3352  0.8448
  148OSM   H18H16452   3.539   6.117   4.582  1.5901 -0.9814  0.8230
  149OSM      N16453   4.258   4.534   2.215 -0.4658 -0.3415 -0.0180
  149OSM    C1516454   4.307   4.654   2.126  0.3790  0.7341  0.2878
  149OSM   H15A16455   4.284   4.752   2.167  0.4875  0.7692  0.2631
  149OSM   H15B16456   4.271   4.634   2.026 -1.8445 -1.1246  1.3547
  149OSM   H15C16457   4.414   4.647   2.117  0.4782  0.2913  1.5691
  149OSM    C1416458   4.109   4.533   2.255  0.1120 -0.2282  0.2776
  149OSM   H14A16459   4.073   4.627   2.295 -1.8850 -0.0536 -1.7845
  149OSM   H14B16460   4.093   4.449   2.321  1.6685 -0.9752 -0.2431
  149OSM   H14C16461   4.053   4.508   2.167  0.7017 -0.3215 -0.0719
  149OSM    C1316462   4.286   4.403   2.152 -1.0785 -0.5422  0.4275
  149OSM   H13A16463   4.218   4.385   2.070 -0.2923  0.7493 -0.5543
  149OSM   H13B16464   4.276   4.318   2.217 -2.9246 -0.4330  0.3215
  149OSM   H13C16465   4.388   4.397   2.114 -1.3390 -1.3916 -0.1778
  149OSM    C1216466   4.339   4.558   2.343  0.1750  0.1131  0.6499
  149OSM   H12A16467   4.316   4.660   2.371 -1.0420  1.1089 -3.3470
  149OSM   H12B16468   4.444   4.564   2.318  1.0021  0.0472  3.6900
  149OSM    C1116469   4.341   4.469   2.473  0.8040 -0.9422  0.2473
  149OSM   H11A16470   4.240   4.459   2.518  0.3372 -0.4570 -0.6520
  149OSM   H11B16471   4.406   4.511   2.553  1.6336 -1.0580 -0.3566
  149OSM      P16472   4.542   4.307   2.429 -0.3243  0.1896 -0.4088
  149OSM    O1316473   4.569   4.187   2.349  0.3704  0.1635 -0.0587
  149OSM    O1416474   4.621   4.423   2.385  0.3502  0.2284  0.4857
  149OSM    O1116475   4.591   4.263   2.576  0.8943  0.4255 -0.1066
  149OSM    O1216476   4.389   4.343   2.441 -0.3254 -0.6691  0.1864
  149OSM    C1S16477   4.512   4.174   2.650 -0.1276  0.2131  0.4016
  149OSM    H1S16478   4.554   4.077   2.617  1.0670  0.1596  1.9883
  149OSM    H1T16479   4.409   4.177   2.609  1.4089  1.0782 -4.0257
  149OSM     NF16480   4.421   4.113   2.871 -1.0757 -0.7518 -0.5296
  149OSM    HNF16481   4.329   4.140   2.901 -1.1414  1.4001 -2.4213
  149OSM    C2S16482   4.512   4.202   2.804 -0.1690  0.1635  0.2647
  149OSM    H2S16483   4.618   4.200   2.837  0.0741  1.8164 -0.3412
  149OSM    C3S16484   4.482   4.353   2.835  0.3635  0.3158  0.3685
  149OSM    H3S16485   4.375   4.370   2.808  0.5702 -0.1996 -0.8598
  149OSM     O316486   4.561   4.444   2.760  0.5799 -0.7933 -0.1904
  149OSM    HO316487   4.594   4.385   2.693  1.4389 -2.8552  1.9026
  149OSM    C4S16488   4.497   4.383   2.978  0.5548  0.0800 -0.2528
  149OSM    H4S16489   4.395   4.406   3.011  0.5660  0.8668 -0.7281
  149OSM    C5S16490   4.603   4.394   3.053 -0.1742 -0.2739  0.1194
  149OSM    H5S16491   4.702   4.383   3.007 -1.1088 -0.4761 -2.0020
  149OSM    C6S16492   4.609   4.407   3.204 -0.1763 -0.3911  0.5716
  149OSM    H6S16493   4.687   4.480   3.235 -1.4244  1.3195 -0.1761
  149OSM    H6T16494   4.620   4.307   3.251 -3.0974 -0.7946  0.6064
  149OSM    C7S16495   4.477   4.466   3.269  0.2220 -0.5167  0.6797
  149OSM    H7S16496   4.384   4.408   3.250  1.3040 -2.2793  0.6527
  149OSM    H7T16497   4.450   4.567   3.230  0.3932 -0.3001  1.1133
  149OSM    C8S16498   4.496   4.501   3.418 -0.1589  0.2216 -0.3248
  149OSM    H8S16499   4.405   4.563   3.434 -1.5840 -1.5921 -0.9861
  149OSM    H8T16500   4.587   4.564   3.424  0.4289 -0.4549 -1.7116
  149OSM    C9S16501   4.505   4.372   3.506  0.1214 -0.1412 -0.2555
  149OSM    H9S16502   4.588   4.309   3.470  2.4013  1.7547  1.3394
  149OSM    H9T16503   4.415   4.312   3.484 -0.5457  1.6434 -2.8940
  149OSM   C10S16504   4.520   4.398   3.654 -0.2524  0.0593 -0.1760
  149OSM   H10S16505   4.456   4.483   3.688  1.7232  1.7994 -0.5911
  149OSM   H10T16506   4.624   4.435   3.666  0.1457 -1.6264  2.4154
  149OSM   C11S16507   4.506   4.265   3.732 -0.3467  0.0160  0.7507
  149OSM   H11S16508   4.593   4.200   3.710 -1.7466 -2.4757  2.1057
  149OSM   H11T16509   4.416   4.209   3.700  0.2503 -0.6497  0.2203
  149OSM   C12S16510   4.508   4.273   3.887  0.1475  0.2032  0.5732
  149OSM   H12S16511   4.522   4.172   3.930  0.0704 -0.1520 -0.2153
  149OSM   H12T16512   4.408   4.312   3.918  0.1189 -0.4367  1.2947
  149OSM   C13S16513   4.626   4.361   3.928 -0.2660 -0.2142  0.1661
  149OSM   H13S16514   4.606   4.461   3.884  0.2859 -0.0735  0.2242
  149OSM   H13T16515   4.717   4.322   3.876  0.0998  1.8023 -0.8197
  149OSM   C14S16516   4.652   4.379   4.080  0.2815 -0.4008 -0.5479
  149OSM   H14S16517   4.737   4.450   4.080  0.2800 -0.3584 -1.9425
  149OSM   H14T16518   4.678   4.279   4.122  1.2275  0.7784  1.8311
  149OSM   C15S16519   4.532   4.434   4.160  0.7987 -0.3517  0.5603
  149OSM   H15S16520   4.480   4.341   4.194 -0.0791 -0.2983 -0.6033
  149OSM   H15T16521   4.464   4.493   4.096 -0.1164 -0.5082  1.3533
  149OSM   C16S16522   4.573   4.514   4.281  0.2957  0.3250 -0.0521
  149OSM   H16S16523   4.613   4.609   4.241 -1.3107  0.9112 -0.3559
  149OSM   H16T16524   4.665   4.464   4.317  0.6004  0.6608 -0.3611
  149OSM   C17S16525   4.475   4.525   4.401 -0.3084 -0.2173 -0.3660
  149OSM   H17S16526   4.442   4.420   4.417  1.2556 -0.5691  0.7542
  149OSM   H17T16527   4.389   4.581   4.359  0.1846 -0.4229 -1.6873
  149OSM   C18S16528   4.515   4.589   4.536 -0.3047  0.1859 -0.7615
  149OSM   H18S16529   4.539   4.695   4.513  1.3650 -0.0595 -0.3033
  149OSM   H18T16530   4.597   4.538   4.592 -1.0130 -0.7144 -0.5184
  149OSM   H18U16531   4.426   4.588   4.602 -0.2720 -0.8908 -0.7114
  149OSM    C1F16532   4.450   3.984   2.885 -0.6527  0.2585  0.4165
  149OSM     OF16533   4.558   3.934   2.856 -0.6981  0.6100 -1.0095
  149OSM    C2F16534   4.329   3.899   2.904 -0.0947  0.3885 -0.9778
  149OSM    H2F16535   4.330   3.831   2.817  2.9986 -2.5539  1.1485
  149OSM    H2G16536   4.235   3.959   2.902 -0.1193  0.6770  2.5617
  149OSM    C3F16537   4.346   3.816   3.027  0.1715  0.3146  0.1295
  149OSM    H3F16538   4.449   3.779   3.038 -0.1160 -0.6747 -0.3928
  149OSM    H3G16539   4.283   3.725   3.026  0.7846 -0.1459  1.2871
  149OSM    C4F16540   4.308   3.893   3.161  0.1175  0.8209 -0.2986
  149OSM    H4F16541   4.199   3.910   3.153 -0.1777 -0.3779  0.8274
  149OSM    H4G16542   4.374   3.983   3.164  0.3308  0.6492  0.5026
  149OSM    C5F16543   4.340   3.805   3.282 -1.2423 -0.5521 -0.5677
  149OSM    H5F16544   4.433   3.748   3.259 -2.0655 -3.4766  2.6089
  149OSM    H5G16545   4.251   3.741   3.296 -0.2555 -1.4711  2.2074
  149OSM    C6F16546   4.341   3.879   3.419 -0.3178 -0.2712 -0.2633
  149OSM    H6F16547   4.268   3.962   3.414 -0.2470 -0.1290  0.7925
  149OSM    H6G16548   4.439   3.927   3.442 -1.4729  1.4437  1.4015
  149OSM    C7F16549   4.307   3.784   3.536  0.5147  0.1312  0.1149
  149OSM    H7F16550   4.381   3.701   3.533 -2.0920 -2.3108 -0.9991
  149OSM    H7G16551   4.205   3.743   3.520  0.7735 -0.7364  0.6496
  149OSM    C8F16552   4.302   3.845   3.678  0.0787 -0.0645 -0.1145
  149OSM    H8F16553   4.399   3.897   3.695  0.8444 -1.2809 -0.6093
  149OSM    H8G16554   4.283   3.758   3.745  1.8950 -0.0898  0.4332
  149OSM    C9F16555   4.187   3.940   3.682  0.0009 -0.0962 -0.5214
  149OSM    H9F16556   4.165   3.999   3.592 -2.9432  1.1984  0.9092
  149OSM   C10F16557   4.099   3.946   3.782 -0.0256 -0.1953 -0.1759
  149OSM   H10F16558   4.012   4.013   3.792 -0.6238 -1.0258  0.3269
  149OSM   C11F16559   4.124   3.872   3.911 -0.1995  0.6111 -0.8698
  149OSM   H11F16560   4.217   3.904   3.961 -0.5670 -0.7774  0.7820
  149OSM   H11G16561   4.133   3.764   3.888  2.6630  0.9728 -1.7758
  149OSM   C12F16562   4.016   3.887   4.017  0.5684  0.9199 -0.4157
  149OSM   H12F16563   3.982   3.993   4.019 -1.1645  0.4297 -1.2914
  149OSM   H12G16564   4.054   3.860   4.118  0.1008 -0.1844 -0.5187
  149OSM   C13F16565   3.894   3.795   3.979  0.2249 -0.0209 -0.0985
  149OSM   H13F16566   3.919   3.688   3.991  0.1850 -0.0490 -0.2577
  149OSM   H13G16567   3.867   3.819   3.873 -1.3374  0.8253  0.4632
  149OSM   C14F16568   3.780   3.821   4.077  0.2149  0.5988  0.6861
  149OSM   H14F16569   3.733   3.919   4.057  0.7394  0.4574 -1.5243
  149OSM   H14G16570   3.816   3.811   4.181 -2.9831 -1.7339  1.7357
  149OSM   C15F16571   3.667   3.717   4.047 -0.2030 -0.1787  0.7660
  149OSM   H15F16572   3.708   3.616   4.067  0.3080 -0.2150 -0.4300
  149OSM   H15G16573   3.641   3.715   3.939 -2.1997 -3.4415  1.1744
  149OSM   C16F16574   3.541   3.750   4.123  0.6292  0.9969  0.0206
  149OSM   H16F16575   3.451   3.702   4.079  2.7403 -1.4703 -1.8430
  149OSM   H16G16576   3.530   3.861   4.116  0.4987  0.9242 -1.0309
  149OSM   C17F16577   3.553   3.707   4.270  0.4381 -0.0833  0.3952
  149OSM   H17F16578   3.647   3.749   4.312  1.6466 -0.0353 -2.1491
  149OSM   H17G16579   3.573   3.598   4.263 -1.1382 -0.4337  0.8963
  149OSM   C18F16580   3.447   3.735   4.369 -0.4503  0.5120  0.8037
  149OSM   H18F16581   3.357   3.684   4.328  0.7597 -1.7904  0.8471
  149OSM   H18G16582   3.417   3.841   4.383  0.0206  0.6368  0.8785
  149OSM   H18H16583   3.470   3.697   4.471  1.5579  0.3454  0.3291
  150OSM      N16584   2.108   5.432   2.391 -0.3217  0.3211 -0.4475
  150OSM    C1516585   2.218   5.398   2.305  0.5128 -0.1941 -0.1238
  150OSM   H15A16586   2.297   5.470   2.319  0.9115 -0.2048 -2.0627
  150OSM   H15B16587   2.192   5.413   2.201  0.0643  2.1963  0.2669
  150OSM   H15C16588   2.262   5.302   2.327 -2.0946 -1.2751  0.7943
  150OSM    C1416589   2.065   5.566   2.354  0.1780  0.6863 -0.2211
  150OSM   H14A16590   1.967   5.581   2.395  1.1115  2.6776  1.4732
  150OSM   H14B16591   2.067   5.586   2.248 -1.6472  0.0392 -0.4170
  150OSM   H14C16592   2.133   5.633   2.405 -0.2398  0.0201  1.2654
  150OSM    C1316593   1.994   5.337   2.364 -0.5413  0.2927 -0.5044
  150OSM   H13A16594   1.911   5.343   2.432 -0.5173 -0.4755 -0.4040
  150OSM   H13B16595   2.030   5.235   2.361  0.9101  0.7692  0.0210
  150OSM   H13C16596   1.958   5.360   2.265  0.0892  0.3250 -0.7322
  150OSM    C1216597   2.147   5.425   2.532 -0.4161 -0.5828 -1.1091
  150OSM   H12A16598   2.240   5.479   2.546 -1.0267  0.0913  0.6877
  150OSM   H12B16599   2.167   5.321   2.555  0.0084 -0.6547 -1.7690
  150OSM    C1116600   2.048   5.473   2.644  0.0342 -0.1863  0.4625
  150OSM   H11A16601   2.030   5.582   2.627 -0.9943 -0.2863  0.8069
  150OSM   H11B16602   2.112   5.449   2.732  1.8248 -2.9871 -1.4605
  150OSM      P16603   1.789   5.450   2.703 -0.2181  0.2293 -0.2784
  150OSM    O1316604   1.798   5.594   2.732  0.3684 -0.8747 -0.3115
  150OSM    O1416605   1.679   5.399   2.618  0.2093 -0.3898 -0.5320
  150OSM    O1116606   1.775   5.374   2.839 -0.9145 -0.4854  0.0965
  150OSM    O1216607   1.925   5.396   2.644 -0.1845 -0.4158  0.3442
  150OSM    C1S16608   1.873   5.411   2.939  0.1128 -0.0197 -1.3051
  150OSM    H1S16609   1.841   5.501   2.995  0.7433  0.9889 -2.5102
  150OSM    H1T16610   1.978   5.417   2.904  0.7418 -1.4338  0.2401
  150OSM     NF16611   1.959   5.368   3.170 -0.1998 -0.1981  0.1913
  150OSM    HNF16612   2.058   5.368   3.156 -0.4903 -1.5884 -2.5811
  150OSM    C2S16613   1.889   5.304   3.050 -0.4181  0.0620 -0.4939
  150OSM    H2S16614   1.789   5.273   3.088 -0.3849  0.0122 -0.4463
  150OSM    C3S16615   1.960   5.185   2.989  0.1905  0.2307 -0.3144
  150OSM    H3S16616   2.054   5.215   2.938  0.6146  0.7284  0.7279
  150OSM     O316617   1.885   5.131   2.885  0.6952 -0.2839 -0.5274
  150OSM    HO316618   1.830   5.205   2.857 -1.3424 -2.0233 -1.3517
  150OSM    C4S16619   1.985   5.083   3.091  0.2052  0.2647  0.1246
  150OSM    H4S16620   2.058   5.112   3.168  0.4373 -3.4937  1.5294
  150OSM    C5S16621   1.926   4.966   3.106 -0.2647 -0.2425  0.1710
  150OSM    H5S16622   1.848   4.941   3.032  0.7419  1.3857 -1.5256
  150OSM    C6S16623   1.945   4.860   3.218  0.1338 -0.0386  1.1226
  150OSM    H6S16624   1.985   4.767   3.172 -2.7991 -0.5025 -0.6832
  150OSM    H6T16625   1.850   4.848   3.274 -0.3028  1.5509  0.7732
  150OSM    C7S16626   2.042   4.893   3.340 -0.2798 -0.1544 -0.1500
  150OSM    H7S16627   2.136   4.928   3.293  1.0816 -1.0529  1.8106
  150OSM    H7T16628   2.058   4.800   3.397 -1.2954 -0.5061 -0.4052
  150OSM    C8S16629   1.971   4.999   3.434  0.0151 -0.3068 -1.0372
  150OSM    H8S16630   1.882   4.948   3.476  0.9631  0.7621  2.5774
  150OSM    H8T16631   1.920   5.072   3.367 -1.1318 -0.6528 -0.5580
  150OSM    C9S16632   2.057   5.081   3.543  0.1221 -0.1812 -0.1945
  150OSM    H9S16633   2.142   5.135   3.497  0.2430  2.2334  2.5926
  150OSM    H9T16634   2.108   5.011   3.612  0.5442  1.5494  1.2977
  150OSM   C10S16635   1.963   5.176   3.621  0.0150  0.5514  0.3093
  150OSM   H10S16636   1.871   5.118   3.641 -0.0478  0.3024 -0.6643
  150OSM   H10T16637   1.922   5.269   3.577 -1.5869 -0.0411  0.4794
  150OSM   C11S16638   2.027   5.226   3.756 -0.6547  0.4242 -0.1409
  150OSM   H11S16639   2.092   5.311   3.726 -1.3843  1.8033  1.9486
  150OSM   H11T16640   2.079   5.130   3.777 -3.1750 -1.4887 -2.0932
  150OSM   C12S16641   1.918   5.259   3.864  0.5162  0.0199  0.1329
  150OSM   H12S16642   1.852   5.170   3.870 -0.4073  0.7203  0.4558
  150OSM   H12T16643   1.844   5.335   3.832 -1.8097 -2.7709 -1.6670
  150OSM   C13S16644   1.968   5.284   4.000  0.1296  0.8717 -0.2278
  150OSM   H13S16645   1.885   5.304   4.072  0.2017 -0.8361  0.3705
  150OSM   H13T16646   2.039   5.370   4.003  0.9753  0.1829  1.8217
  150OSM   C14S16647   2.051   5.171   4.061  1.0679 -0.1110  0.2170
  150OSM   H14S16648   2.142   5.161   3.998  0.7318 -0.0945 -0.2755
  150OSM   H14T16649   1.999   5.073   4.052  1.3363 -0.1500 -1.1628
  150OSM   C15S16650   2.087   5.205   4.207  0.0276 -0.7504  0.2287
  150OSM   H15S16651   1.992   5.205   4.265  0.7653  0.9729  1.5050
  150OSM   H15T16652   2.104   5.314   4.197  1.5976 -1.0901 -1.4426
  150OSM   C16S16653   2.194   5.124   4.275 -0.6040  0.2266  0.2423
  150OSM   H16S16654   2.184   5.148   4.383  0.2277  0.5880  0.2512
  150OSM   H16T16655   2.293   5.165   4.245  0.2497 -1.4876  0.5701
  150OSM   C17S16656   2.173   4.975   4.249 -0.0191  0.3642 -0.2441
  150OSM   H17S16657   2.189   4.943   4.144 -3.0707 -3.8868  0.3125
  150OSM   H17T16658   2.064   4.954   4.262  0.3665 -1.3170  0.5199
  150OSM   C18S16659   2.245   4.880   4.355  0.1538 -0.5434  0.2520
  150OSM   H18S16660   2.209   4.901   4.458 -1.0909 -2.8382  0.3446
  150OSM   H18T16661   2.355   4.886   4.340 -0.0842  0.0880 -1.5561
  150OSM   H18U16662   2.223   4.773   4.335  0.4771 -0.1461 -2.8182
  150OSM    C1F16663   1.895   5.428   3.264 -0.6069 -0.4543 -0.2473
  150OSM     OF16664   1.774   5.431   3.274  0.1607  0.1290 -0.4922
  150OSM    C2F16665   1.985   5.504   3.353 -0.0529 -0.0572 -0.7759
  150OSM    H2F16666   2.027   5.584   3.289 -1.1980  1.5936  0.4639
  150OSM    H2G16667   2.071   5.443   3.387  1.5920  1.7476 -1.5718
  150OSM    C3F16668   1.895   5.565   3.472  0.2053 -0.2533 -0.0823
  150OSM    H3F16669   1.841   5.481   3.521 -1.2151  1.0035  0.5674
  150OSM    H3G16670   1.820   5.631   3.425  0.0582 -1.4960 -1.7037
  150OSM    C4F16671   1.984   5.632   3.576 -0.9290  0.1092 -0.3533
  150OSM    H4F16672   2.042   5.548   3.620  0.6543  2.0896  1.5554
  150OSM    H4G16673   1.913   5.678   3.648 -2.3319 -0.2994 -1.4159
  150OSM    C5F16674   2.081   5.737   3.519  0.8639 -0.2143  0.2398
  150OSM    H5F16675   2.025   5.795   3.442  2.0692  1.9040  0.8839
  150OSM    H5G16676   2.164   5.675   3.480 -0.1783 -1.8596  0.5329
  150OSM    C6F16677   2.125   5.839   3.625 -1.1599 -0.1605 -0.1181
  150OSM    H6F16678   2.036   5.901   3.647 -2.5011 -2.1426  0.3133
  150OSM    H6G16679   2.204   5.895   3.571 -0.2797 -2.3982 -1.2882
  150OSM    C7F16680   2.163   5.776   3.759 -0.2023  0.2886  0.0658
  150OSM    H7F16681   2.258   5.719   3.764 -0.7901 -0.6618  0.8140
  150OSM    H7G16682   2.089   5.697   3.784 -0.6199  1.0964  1.5019
  150OSM    C8F16683   2.149   5.886   3.864  0.7434 -0.6358 -0.4210
  150OSM    H8F16684   2.162   5.832   3.960  1.9275  0.0528 -0.1766
  150OSM    H8G16685   2.046   5.927   3.870  1.0681  0.0419  0.8973
  150OSM    C9F16686   2.256   6.000   3.846 -0.4884  0.7892  0.3600
  150OSM    H9F16687   2.267   6.038   3.744 -0.3756  0.0494  0.0902
  150OSM   C10F16688   2.363   6.022   3.931 -0.1141  0.3508 -0.3034
  150OSM   H10F16689   2.437   6.100   3.908 -0.5177  0.4614 -1.2778
  150OSM   C11F16690   2.372   5.967   4.076 -0.0007  0.2518 -0.1015
  150OSM   H11F16691   2.464   6.003   4.127  0.6239 -1.1803 -0.1830
  150OSM   H11G16692   2.370   5.857   4.063 -0.6501  0.3376 -0.8034
  150OSM   C12F16693   2.254   6.034   4.149  0.3544  0.8783 -0.1120
  150OSM   H12F16694   2.161   6.000   4.098  0.4277  0.9703 -0.3109
  150OSM   H12G16695   2.260   6.145   4.148 -1.7668  1.0952  2.1866
  150OSM   C13F16696   2.241   5.986   4.294  0.2642  0.3645 -0.5788
  150OSM   H13F16697   2.250   5.875   4.290  2.3843  0.5095 -0.7814
  150OSM   H13G16698   2.141   6.020   4.329 -0.9244 -2.5453 -0.8329
  150OSM   C14F16699   2.334   6.033   4.401 -0.7006  0.1692 -0.7840
  150OSM   H14F16700   2.438   5.997   4.385 -1.4536 -2.9190  0.4172
  150OSM   H14G16701   2.309   5.988   4.499  1.2581 -0.3875 -0.4925
  150OSM   C15F16702   2.327   6.189   4.420 -0.1468  0.0125  0.0576
  150OSM   H15F16703   2.224   6.228   4.404 -0.1517 -0.7028 -1.9621
  150OSM   H15G16704   2.384   6.234   4.335 -1.0708 -0.0713 -0.6144
  150OSM   C16F16705   2.408   6.228   4.547  0.7351  0.5415  0.0080
  150OSM   H16F16706   2.515   6.203   4.536  0.7929  0.8903 -0.2420
  150OSM   H16G16707   2.368   6.170   4.633  2.5478 -0.7016  0.0549
  150OSM   C17F16708   2.403   6.373   4.596  0.2532 -0.3050 -0.2490
  150OSM   H17F16709   2.295   6.395   4.611  0.2797 -0.9679  1.0051
  150OSM   H17G16710   2.446   6.437   4.515 -0.3249  1.0698  0.4945
  150OSM   C18F16711   2.476   6.411   4.732  0.4705  0.4494  0.5628
  150OSM   H18F16712   2.585   6.392   4.719  0.3043 -1.2772  1.4116
  150OSM   H18G16713   2.431   6.346   4.810 -1.3405  0.1821 -0.6680
  150OSM   H18H16714   2.449   6.519   4.741  3.8061  1.6231 -1.5667
  151OSM      N16715   2.357   3.941   2.129 -0.1841  0.7515 -0.3709
  151OSM    C1516716   2.489   3.976   2.068  0.1307  0.1106  0.2877
  151OSM   H15A16717   2.567   3.915   2.109  0.9146  1.3930  0.7640
  151OSM   H15B16718   2.509   4.078   2.098  0.5075  0.0154  0.3614
  151OSM   H15C16719   2.484   3.975   1.960  1.4125  1.6452  0.1808
  151OSM    C1416720   2.255   4.041   2.083 -0.0238 -0.3875 -0.4031
  151OSM   H14A16721   2.273   4.059   1.978  2.0265  1.9184  0.2292
  151OSM   H14B16722   2.275   4.134   2.135 -1.2786  0.4586 -1.3881
  151OSM   H14C16723   2.155   4.002   2.095  0.6035 -1.3714  2.3849
  151OSM    C1316724   2.318   3.800   2.084  0.2001  0.0646  0.7599
  151OSM   H13A16725   2.376   3.723   2.133 -1.0629 -1.6059 -0.2462
  151OSM   H13B16726   2.325   3.801   1.976  0.3592  2.9154  0.7200
  151OSM   H13C16727   2.213   3.782   2.103 -0.0034 -0.8920 -1.0107
  151OSM    C1216728   2.368   3.947   2.281  0.6327 -0.1046 -0.2852
  151OSM   H12A16729   2.423   3.860   2.314  0.1429  0.9368  3.7631
  151OSM   H12B16730   2.268   3.931   2.319 -0.0903 -1.3844 -2.4919
  151OSM    C1116731   2.423   4.076   2.353  0.5511  0.4145  0.0921
  151OSM   H11A16732   2.410   4.072   2.463 -2.5474  3.7026  0.0626
  151OSM   H11B16733   2.355   4.157   2.319  0.1706  0.7350  1.5468
  151OSM      P16734   2.682   4.079   2.403  0.5670 -0.0349  0.2850
  151OSM    O1316735   2.666   3.950   2.472  0.1291 -0.1575 -0.0991
  151OSM    O1416736   2.800   4.089   2.318 -0.3640  0.2014 -0.0923
  151OSM    O1116737   2.691   4.201   2.500 -0.4853 -0.3601 -0.1233
  151OSM    O1216738   2.556   4.111   2.316  0.2781  0.1344 -0.1554
  151OSM    C1S16739   2.612   4.208   2.618  0.1270  0.2738  0.3003
  151OSM    H1S16740   2.547   4.120   2.639 -0.2234  0.1729 -1.0813
  151OSM    H1T16741   2.554   4.304   2.613 -0.3765  0.0167  0.9591
  151OSM     NF16742   2.641   4.208   2.871  0.4155  0.6612  0.3555
  151OSM    HNF16743   2.605   4.295   2.906 -3.2412  0.7429 -2.9648
  151OSM    C2S16744   2.707   4.228   2.743  0.0503  0.2197 -0.4863
  151OSM    H2S16745   2.791   4.156   2.734  0.6118  0.8008  0.0488
  151OSM    C3S16746   2.792   4.362   2.720 -0.5269  0.4543 -0.5987
  151OSM    H3S16747   2.720   4.445   2.736  0.5259  1.7079 -2.0368
  151OSM     O316748   2.856   4.380   2.594 -0.3092 -0.2854 -0.0654
  151OSM    HO316749   2.815   4.313   2.539 -3.0175  2.3146 -1.5241
  151OSM    C4S16750   2.899   4.376   2.825 -0.8202  0.3612 -0.0166
  151OSM    H4S16751   2.918   4.280   2.874 -0.5916 -0.5330 -1.7799
  151OSM    C5S16752   2.954   4.489   2.868  0.3341  0.0336  0.4081
  151OSM    H5S16753   2.930   4.581   2.813  2.6668 -0.1579 -1.0577
  151OSM    C6S16754   3.050   4.502   2.983 -0.3650 -0.3240  0.5025
  151OSM    H6S16755   2.996   4.561   3.060 -1.3034  1.1396 -1.2077
  151OSM    H6T16756   3.138   4.559   2.948  0.4740 -1.2491  1.0269
  151OSM    C7S16757   3.106   4.372   3.037  0.2141  0.3179 -0.3423
  151OSM    H7S16758   3.135   4.297   2.961 -0.6226  0.6414 -0.9916
  151OSM    H7T16759   3.020   4.313   3.077  0.2042  1.4735  1.4899
  151OSM    C8S16760   3.214   4.389   3.146 -0.5582  0.7595  0.2581
  151OSM    H8S16761   3.312   4.433   3.119 -0.6363  0.6282 -0.2384
  151OSM    H8T16762   3.252   4.291   3.181  0.9427  0.4212 -2.1599
  151OSM    C9S16763   3.164   4.455   3.274  0.1874 -0.9271 -0.6826
  151OSM    H9S16764   3.074   4.403   3.313 -0.6025  2.2349  2.2124
  151OSM    H9T16765   3.128   4.558   3.254 -0.1230 -0.5674  1.4975
  151OSM   C10S16766   3.270   4.470   3.397  0.2301 -0.6233  0.2047
  151OSM   H10S16767   3.365   4.503   3.351 -0.2677  1.5811  0.6211
  151OSM   H10T16768   3.286   4.367   3.434 -0.1339 -2.0052 -3.1153
  151OSM   C11S16769   3.217   4.559   3.509 -0.2085 -0.1206 -0.5613
  151OSM   H11S16770   3.108   4.553   3.525 -0.0497 -0.8121  0.3332
  151OSM   H11T16771   3.230   4.666   3.480  2.7492 -0.5718 -1.2938
  151OSM   C12S16772   3.279   4.514   3.639 -1.1108  0.5391 -0.0825
  151OSM   H12S16773   3.389   4.527   3.626 -1.1473 -0.5702 -1.7404
  151OSM   H12T16774   3.258   4.406   3.655  1.0087 -0.0513 -0.9200
  151OSM   C13S16775   3.228   4.579   3.768 -0.1476  0.3082 -0.0049
  151OSM   H13S16776   3.119   4.587   3.749 -0.7061 -1.5934  1.9871
  151OSM   H13T16777   3.282   4.676   3.776 -0.2766  0.4288 -0.5522
  151OSM   C14S16778   3.253   4.513   3.902  0.1837  0.0851  0.4193
  151OSM   H14S16779   3.357   4.478   3.918 -0.3140 -1.5713  0.2118
  151OSM   H14T16780   3.195   4.419   3.888  1.2839 -1.1397  3.3934
  151OSM   C15S16781   3.188   4.577   4.027 -0.9779 -0.0116 -0.1615
  151OSM   H15S16782   3.082   4.594   3.999 -0.6461 -1.3415 -2.4560
  151OSM   H15T16783   3.237   4.674   4.049 -1.4656  0.2519 -0.2199
  151OSM   C16S16784   3.197   4.491   4.156 -0.3155  0.6180 -0.1230
  151OSM   H16S16785   3.305   4.469   4.168  0.0500  0.9074 -2.4546
  151OSM   H16T16786   3.153   4.391   4.141 -1.7924  0.9163  1.7311
  151OSM   C17S16787   3.130   4.572   4.275  0.0935  0.7687  0.4484
  151OSM   H17S16788   3.183   4.669   4.289 -0.4881  0.9718  1.2991
  151OSM   H17T16789   3.167   4.506   4.356  0.5773 -0.5565 -0.8267
  151OSM   C18S16790   2.977   4.589   4.258 -0.6515  0.0355  0.4231
  151OSM   H18S16791   2.927   4.637   4.344  1.7795  2.6785  0.5049
  151OSM   H18T16792   2.933   4.487   4.247  1.1861 -0.9419  1.4079
  151OSM   H18U16793   2.950   4.650   4.169  0.3875  1.0323  0.7677
  151OSM    C1F16794   2.586   4.090   2.917  0.2095 -0.2633 -0.0567
  151OSM     OF16795   2.577   3.986   2.851  0.1612 -0.3011  0.2373
  151OSM    C2F16796   2.545   4.095   3.057  0.0155  0.1359  0.1171
  151OSM    H2F16797   2.479   4.182   3.078 -1.8798 -0.9479 -1.0440
  151OSM    H2G16798   2.631   4.091   3.126  1.5800  1.5090 -1.6544
  151OSM    C3F16799   2.459   3.970   3.098 -0.1633  0.2751  0.2517
  151OSM    H3F16800   2.518   3.878   3.081 -1.0791 -0.7619  2.2953
  151OSM    H3G16801   2.364   3.973   3.040 -0.1706  2.7201  0.2876
  151OSM    C4F16802   2.425   3.976   3.244  0.2990 -0.0645 -0.4210
  151OSM    H4F16803   2.513   3.987   3.310 -0.4034 -1.3231  0.7866
  151OSM    H4G16804   2.382   3.877   3.272  2.3403 -1.0498 -0.5828
  151OSM    C5F16805   2.334   4.089   3.289  0.0543 -0.0240 -0.3337
  151OSM    H5F16806   2.246   4.097   3.220  0.3785 -0.4154 -0.8056
  151OSM    H5G16807   2.377   4.189   3.305  1.4005 -0.9032  1.9470
  151OSM    C6F16808   2.289   4.042   3.434  0.6518  0.1661  0.0643
  151OSM    H6F16809   2.385   4.028   3.488  1.0158 -0.3799 -0.6950
  151OSM    H6G16810   2.220   3.955   3.435 -0.1650  0.6747 -2.7587
  151OSM    C7F16811   2.210   4.156   3.499  0.0417 -0.0590  0.4406
  151OSM    H7F16812   2.141   4.194   3.421 -0.6527 -0.4304  0.8628
  151OSM    H7G16813   2.273   4.244   3.523 -2.3653  1.9783 -0.1920
  151OSM    C8F16814   2.141   4.116   3.629 -0.4983 -0.1844  0.3283
  151OSM    H8F16815   2.215   4.059   3.690  1.9082  0.3795 -1.8907
  151OSM    H8G16816   2.061   4.042   3.607 -0.1417 -0.0473 -1.5904
  151OSM    C9F16817   2.075   4.219   3.708 -0.1263  0.1312 -0.2507
  151OSM    H9F16818   1.985   4.249   3.653 -0.7945 -0.9386  0.2151
  151OSM   C10F16819   2.115   4.290   3.818  0.5563  0.1583 -0.1457
  151OSM   H10F16820   2.032   4.346   3.863  0.8278  0.2371  0.2654
  151OSM   C11F16821   2.227   4.254   3.903  0.0361 -0.4457 -0.0229
  151OSM   H11F16822   2.319   4.302   3.863 -0.4042  1.8705  1.5694
  151OSM   H11G16823   2.234   4.143   3.909 -3.3312 -0.8176 -1.0014
  151OSM   C12F16824   2.213   4.307   4.048  0.0366 -0.4105 -0.4875
  151OSM   H12F16825   2.303   4.290   4.112  0.4560 -1.3470 -1.3011
  151OSM   H12G16826   2.122   4.261   4.090 -0.2048  0.4902  0.0085
  151OSM   C13F16827   2.203   4.459   4.046 -0.4465 -0.3168  0.1983
  151OSM   H13F16828   2.113   4.502   3.996 -0.6223  1.6313  2.0641
  151OSM   H13G16829   2.295   4.504   4.002  0.0126 -0.3020  1.1661
  151OSM   C14F16830   2.191   4.513   4.186  0.1474 -0.2893  0.4873
  151OSM   H14F16831   2.226   4.617   4.169 -3.6565  0.9734 -0.5598
  151OSM   H14G16832   2.272   4.461   4.242  0.5874 -1.1409 -0.9051
  151OSM   C15F16833   2.054   4.498   4.255  0.4360  0.2304  0.6405
  151OSM   H15F16834   2.031   4.390   4.255  0.4007  0.2252  1.5395
  151OSM   H15G16835   1.975   4.542   4.192 -0.0077  2.5805  2.6617
  151OSM   C16F16836   2.048   4.551   4.400 -1.0718  0.1506  0.4481
  151OSM   H16F16837   2.051   4.662   4.393 -0.5049  0.0124 -3.0525
  151OSM   H16G16838   2.142   4.526   4.454  0.5432 -0.2899 -2.3859
  151OSM   C17F16839   1.921   4.516   4.473  0.0759  1.2606 -0.1887
  151OSM   H17F16840   1.910   4.410   4.505  0.0089  0.8879 -1.3758
  151OSM   H17G16841   1.834   4.529   4.404  1.1368 -4.0846 -3.0388
  151OSM   C18F16842   1.910   4.596   4.603  0.3970 -0.7175  0.0514
  151OSM   H18F16843   1.895   4.701   4.568 -3.5986 -0.9161  0.7188
  151OSM   H18G16844   2.007   4.588   4.657 -0.7346 -2.7979  1.9448
  151OSM   H18H16845   1.832   4.564   4.674  1.1859 -1.3343  0.6637
  152OSM      N16846   5.155   5.982   2.629 -1.1044 -0.0154  0.0109
  152OSM    C1516847   5.252   5.874   2.614 -0.7579 -0.3961  0.2620
  152OSM   H15A16848   5.335   5.881   2.683 -1.0828  0.0688  0.6158
  152OSM   H15B16849   5.288   5.894   2.515  0.0175  1.0749  0.8069
  152OSM   H15C16850   5.214   5.773   2.608 -0.5119 -0.4632 -0.2354
  152OSM    C1416851   5.227   6.112   2.642 -0.5898 -0.7909 -0.2527
  152OSM   H14A16852   5.168   6.200   2.625  1.9584  1.4042  1.3744
  152OSM   H14B16853   5.304   6.113   2.566  0.9548  0.5737  1.2657
  152OSM   H14C16854   5.272   6.108   2.740 -0.8527 -0.9609 -0.1363
  152OSM    C1316855   5.079   5.983   2.502  0.3799 -0.1458 -0.0866
  152OSM   H13A16856   4.999   6.054   2.520 -0.1223 -0.6828 -0.1916
  152OSM   H13B16857   5.035   5.888   2.477  0.6212 -0.5949  1.1407
  152OSM   H13C16858   5.141   6.021   2.422 -0.8141 -1.6676 -1.8050
  152OSM    C1216859   5.062   5.957   2.749 -0.6584  0.3917  0.4977
  152OSM   H12A16860   5.110   5.923   2.840 -1.8312  3.4248  2.4249
  152OSM   H12B16861   4.988   5.881   2.731  0.3520 -0.7414  0.9929
  152OSM    C1116862   4.991   6.077   2.805 -0.0119  0.1918  0.0218
  152OSM   H11A16863   5.063   6.145   2.855 -0.8157 -0.4778  2.2049
  152OSM   H11B16864   4.935   6.047   2.896 -1.1557  1.5236 -0.2046
  152OSM      P16865   4.782   6.242   2.747 -0.3008 -0.2175 -0.1879
  152OSM    O1316866   4.835   6.379   2.762 -0.2044  0.0054  0.0876
  152OSM    O1416867   4.668   6.232   2.654  0.5007  0.3366  0.6975
  152OSM    O1116868   4.739   6.196   2.901  0.4277  0.1465 -0.4174
  152OSM    O1216869   4.905   6.140   2.711 -0.3945 -0.2296  0.0601
  152OSM    C1S16870   4.671   6.075   2.932  0.8777 -0.4478  0.5067
  152OSM    H1S16871   4.727   5.988   2.893  2.7886  0.4170  1.2303
  152OSM    H1T16872   4.565   6.077   2.898  0.7004  0.1101  1.0714
  152OSM     NF16873   4.651   5.906   3.120 -0.4161  0.1641  0.2184
  152OSM    HNF16874   4.553   5.897   3.132 -0.7401  2.8197  0.1655
  152OSM    C2S16875   4.677   6.041   3.084 -0.3924  0.1543 -0.0491
  152OSM    H2S16876   4.778   6.067   3.121 -0.5951  0.6023  0.1973
  152OSM    C3S16877   4.575   6.134   3.158 -0.2992 -0.1327 -0.4152
  152OSM    H3S16878   4.473   6.100   3.131 -0.8394  0.7056  0.5312
  152OSM     O316879   4.576   6.269   3.102 -0.4805 -0.6076  0.2444
  152OSM    HO316880   4.630   6.255   3.024 -0.2423  0.9043  0.1107
  152OSM    C4S16881   4.600   6.134   3.309  0.3970  0.1038 -0.0650
  152OSM    H4S16882   4.702   6.102   3.334  1.2184  0.0992 -3.0431
  152OSM    C5S16883   4.505   6.135   3.405  0.2151 -0.2583  0.0819
  152OSM    H5S16884   4.397   6.132   3.384  0.1211  0.7268  0.3557
  152OSM    C6S16885   4.524   6.113   3.551 -0.4912 -1.0281 -0.2514
  152OSM    H6S16886   4.464   6.035   3.602 -3.4048  2.7490  2.7220
  152OSM    H6T16887   4.489   6.207   3.599 -1.1068 -1.7313  0.7008
  152OSM    C7S16888   4.666   6.075   3.589  0.2104 -0.3076 -0.0902
  152OSM    H7S16889   4.741   6.154   3.565 -0.4195  0.3503  0.0875
  152OSM    H7T16890   4.689   5.980   3.537  1.9651 -0.3492  0.6887
  152OSM    C8S16891   4.688   6.039   3.746 -0.3137  0.0687  0.2247
  152OSM    H8S16892   4.784   5.983   3.760 -0.4778 -0.5781 -1.0941
  152OSM    H8T16893   4.607   5.971   3.780 -0.2350  0.0413  0.3608
  152OSM    C9S16894   4.697   6.162   3.832  0.9353  0.1849 -0.0166
  152OSM    H9S16895   4.637   6.242   3.782  2.5774  1.8452  0.5552
  152OSM    H9T16896   4.801   6.201   3.836 -0.0600  3.3465 -1.6962
  152OSM   C10S16897   4.645   6.152   3.979 -0.1796  0.3128 -0.5856
  152OSM   H10S16898   4.702   6.075   4.036 -1.8561 -0.0934  0.6127
  152OSM   H10T16899   4.540   6.116   3.977  0.1635 -0.7488 -0.4001
  152OSM   C11S16900   4.652   6.285   4.057  0.6390  0.3929 -0.9000
  152OSM   H11S16901   4.606   6.366   3.997  0.7099  1.9974  1.0805
  152OSM   H11T16902   4.755   6.314   4.086  0.5816 -0.5575  0.3923
  152OSM   C12S16903   4.566   6.279   4.188  0.4821 -0.1072 -0.7409
  152OSM   H12S16904   4.478   6.216   4.165 -0.1521  0.8837 -1.0639
  152OSM   H12T16905   4.530   6.380   4.214  2.1198  0.6054 -1.1244
  152OSM   C13S16906   4.658   6.220   4.298  0.3994  0.2462  0.6751
  152OSM   H13S16907   4.751   6.280   4.306  0.9590 -0.5027  0.0538
  152OSM   H13T16908   4.692   6.115   4.281 -0.8965  0.1598 -1.7522
  152OSM   C14S16909   4.585   6.230   4.440 -0.5035 -0.1733 -0.0656
  152OSM   H14S16910   4.481   6.192   4.428 -0.7461  0.0725  1.0875
  152OSM   H14T16911   4.580   6.340   4.454 -0.4353  0.0004 -1.3134
  152OSM   C15S16912   4.659   6.162   4.556  0.3003  0.2956 -0.5630
  152OSM   H15S16913   4.757   6.213   4.557  1.0917 -1.1755 -0.2846
  152OSM   H15T16914   4.679   6.054   4.545 -0.5120  0.1491 -0.7329
  152OSM   C16S16915   4.600   6.186   4.700 -0.3397 -0.1513  0.4935
  152OSM   H16S16916   4.523   6.106   4.700 -1.1435  0.5191 -1.8771
  152OSM   H16T16917   4.549   6.282   4.721  0.7651  1.1182 -2.1425
  152OSM   C17S16918   4.712   6.158   4.805  0.7859 -0.1991 -0.3299
  152OSM   H17S16919   4.675   6.203   4.900 -1.1803  1.6180 -1.8340
  152OSM   H17T16920   4.802   6.224   4.797  1.6726 -1.5829 -3.0716
  152OSM   C18S16921   4.756   6.011   4.826 -0.5081  0.3754  0.5259
  152OSM   H18S16922   4.849   6.005   4.886  0.6635  4.4348 -0.5305
  152OSM   H18T16923   4.766   5.980   4.720  0.8083  1.1650  0.3995
  152OSM   H18U16924   4.682   5.951   4.883  0.8930 -0.9292  1.0171
  152OSM    C1F16925   4.741   5.810   3.084  0.1539 -0.4350 -0.1772
  152OSM     OF16926   4.851   5.848   3.043  0.2894 -0.1647 -0.3319
  152OSM    C2F16927   4.714   5.661   3.104 -0.3399  0.2659  0.0144
  152OSM    H2F16928   4.732   5.611   3.006 -0.9158 -0.8901  0.4899
  152OSM    H2G16929   4.606   5.641   3.125 -0.1989 -0.2640  0.2388
  152OSM    C3F16930   4.796   5.596   3.219 -1.1182  0.4237 -0.1556
  152OSM    H3F16931   4.904   5.621   3.219 -1.2587  1.0579  0.1812
  152OSM    H3G16932   4.800   5.485   3.211 -1.1154  0.4348 -0.3066
  152OSM    C4F16933   4.762   5.636   3.367  0.2938 -0.0474  0.2791
  152OSM    H4F16934   4.660   5.599   3.392  0.3364 -0.7141 -0.4723
  152OSM    H4G16935   4.770   5.746   3.365  3.6176 -0.1685  1.4471
  152OSM    C5F16936   4.865   5.591   3.468 -0.1717  0.7126  0.1358
  152OSM    H5F16937   4.966   5.628   3.439 -0.4331  0.5107 -1.0514
  152OSM    H5G16938   4.875   5.481   3.472  1.2428  0.8491  1.8138
  152OSM    C6F16939   4.824   5.644   3.613 -0.5429 -0.0503  0.5213
  152OSM    H6F16940   4.733   5.584   3.636 -1.9761  1.6884 -0.3758
  152OSM    H6G16941   4.795   5.751   3.616 -1.5636 -0.2587 -1.0228
  152OSM    C7F16942   4.930   5.628   3.721  0.1424 -0.5102  0.3622
  152OSM    H7F16943   5.017   5.694   3.698  0.9984 -1.4090  0.9594
  152OSM    H7G16944   4.965   5.523   3.722  1.8366  0.0281  1.3238
  152OSM    C8F16945   4.865   5.660   3.858  0.0780  0.3991  0.8586
  152OSM    H8F16946   4.778   5.594   3.878 -0.1983  0.6342  0.4289
  152OSM    H8G16947   4.814   5.756   3.835  0.1661  0.6952  1.8203
  152OSM    C9F16948   4.960   5.653   3.969 -0.4780  0.5036  0.5235
  152OSM    H9F16949   5.068   5.652   3.947 -0.2065 -0.1502  1.7611
  152OSM   C10F16950   4.927   5.680   4.097  0.3398 -0.7128  0.5096
  152OSM   H10F16951   5.008   5.695   4.170  1.6880  0.4670 -1.1446
  152OSM   C11F16952   4.786   5.676   4.140  0.5500  0.1100  0.6604
  152OSM   H11F16953   4.784   5.652   4.249 -1.7608 -1.3944  0.3508
  152OSM   H11G16954   4.727   5.592   4.098  2.2160 -0.5627 -0.4723
  152OSM   C12F16955   4.708   5.806   4.130 -0.3417 -0.0315 -0.3471
  152OSM   H12F16956   4.753   5.855   4.041 -1.6400  2.3576  0.2095
  152OSM   H12G16957   4.724   5.878   4.213  0.1342 -0.6981  0.1476
  152OSM   C13F16958   4.556   5.780   4.117  0.1426 -0.1987 -0.5455
  152OSM   H13F16959   4.528   5.719   4.028 -0.3889  0.3323 -0.7501
  152OSM   H13G16960   4.504   5.877   4.101  1.4367  0.7277  0.6935
  152OSM   C14F16961   4.492   5.714   4.246 -0.0516 -0.1876 -0.0428
  152OSM   H14F16962   4.533   5.611   4.257 -0.3458 -0.7618 -3.1636
  152OSM   H14G16963   4.382   5.714   4.235 -0.1157  0.9898  0.5715
  152OSM   C15F16964   4.530   5.785   4.376  0.6126 -0.6305 -0.3705
  152OSM   H15F16965   4.527   5.894   4.356 -0.7324 -0.8808 -1.7140
  152OSM   H15G16966   4.635   5.756   4.398  1.8510  2.7641 -1.1860
  152OSM   C16F16967   4.446   5.744   4.494  0.1585 -0.5611 -0.1454
  152OSM   H16F16968   4.459   5.635   4.510 -1.6191 -0.7255  0.4508
  152OSM   H16G16969   4.336   5.745   4.474  0.0149 -2.2779  0.3769
  152OSM   C17F16970   4.465   5.821   4.623 -0.3092  0.0736 -0.0632
  152OSM   H17F16971   4.460   5.931   4.612 -1.2278  0.1013  0.4675
  152OSM   H17G16972   4.563   5.809   4.672 -2.7027  0.3170  5.5128
  152OSM   C18F16973   4.370   5.786   4.730 -0.4207  0.5057 -0.7848
  152OSM   H18F16974   4.265   5.812   4.702 -0.2906  0.4191 -1.3583
  152OSM   H18G16975   4.398   5.838   4.824  1.1182  1.0961 -1.5405
  152OSM   H18H16976   4.369   5.680   4.762 -2.3233  1.1048  1.4403
  153OSM      N16977   2.045   6.148   2.516 -0.6797  0.1725 -0.0218
  153OSM    C1516978   2.038   6.032   2.415 -0.1546 -0.3028 -0.2738
  153OSM   H15A16979   2.022   5.947   2.480 -0.3582  0.1755  0.3112
  153OSM   H15B16980   2.117   6.021   2.343  1.0315  0.9433  0.7872
  153OSM   H15C16981   1.943   6.037   2.363  0.4903 -0.5162 -1.5083
  153OSM    C1416982   2.050   6.282   2.453 -0.0153  0.0376  0.2928
  153OSM   H14A16983   1.972   6.293   2.380 -0.9695 -1.8366  0.9576
  153OSM   H14B16984   2.148   6.292   2.411  1.1316 -0.9588  2.5239
  153OSM   H14C16985   2.039   6.359   2.528 -0.2317  1.2866 -0.9904
  153OSM    C1316986   1.927   6.142   2.605 -0.6956 -0.2371 -0.1809
  153OSM   H13A16987   1.939   6.058   2.672  3.6146  0.2003 -0.1381
  153OSM   H13B16988   1.834   6.136   2.550 -1.0930  1.5107  0.2257
  153OSM   H13C16989   1.917   6.233   2.662  0.2039  0.2693 -0.8001
  153OSM    C1216990   2.179   6.142   2.594  0.3413 -0.1404  0.3772
  153OSM   H12A16991   2.184   6.055   2.658  3.0466 -1.7126 -1.7544
  153OSM   H12B16992   2.175   6.228   2.659 -0.5904  0.6413 -0.6678
  153OSM    C1116993   2.305   6.147   2.502  0.3585  0.1541 -0.8868
  153OSM   H11A16994   2.292   6.090   2.407  0.2120 -1.3575  0.0220
  153OSM   H11B16995   2.380   6.093   2.564 -1.4638 -1.4085  0.0443
  153OSM      P16996   2.439   6.373   2.545  0.4442  0.3735 -0.3313
  153OSM    O1316997   2.566   6.310   2.546 -0.0730  0.3236  0.0907
  153OSM    O1416998   2.431   6.506   2.485 -0.1057  0.1680 -0.5895
  153OSM    O1116999   2.381   6.368   2.697 -0.1193 -0.0443  0.3468
  153OSM    O1217000   2.343   6.281   2.470  0.1733  0.1329  0.7965
  153OSM    C1S17001   2.391   6.480   2.786  0.0085 -0.1110  0.6450
  153OSM    H1S17002   2.311   6.544   2.745 -2.4107 -4.9212 -3.1887
  153OSM    H1T17003   2.491   6.529   2.789  0.4964 -0.8655 -1.4129
  153OSM     NF17004   2.334   6.555   3.015 -0.4494 -0.8067 -0.4506
  153OSM    HNF17005   2.397   6.600   3.078 -1.7450  4.6881 -2.4405
  153OSM    C2S17006   2.368   6.437   2.935 -0.4733  0.4363  0.0741
  153OSM    H2S17007   2.276   6.375   2.936  0.8914 -1.7482  2.3295
  153OSM    C3S17008   2.484   6.348   2.991  0.6266 -0.8306 -0.4040
  153OSM    H3S17009   2.568   6.415   3.019  0.5450 -1.1533  0.6848
  153OSM     O317010   2.543   6.251   2.910  0.0749 -0.2317 -0.3575
  153OSM    HO317011   2.512   6.266   2.821 -0.1666 -1.3982 -0.4768
  153OSM    C4S17012   2.443   6.287   3.124 -0.2107 -0.1264  0.0792
  153OSM    H4S17013   2.391   6.191   3.117 -1.4639  0.5817 -0.6754
  153OSM    C5S17014   2.502   6.324   3.241  0.2494  0.5132 -0.6129
  153OSM    H5S17015   2.566   6.413   3.240  0.1780  0.5651 -1.5644
  153OSM    C6S17016   2.489   6.245   3.368 -0.1498 -0.3100  0.6342
  153OSM    H6S17017   2.586   6.206   3.406  0.1265  1.1727  1.5384
  153OSM    H6T17018   2.415   6.162   3.358  0.0939 -0.3408 -1.2375
  153OSM    C7S17019   2.445   6.344   3.480  0.9598 -0.0669  0.0768
  153OSM    H7S17020   2.352   6.401   3.458  0.1609 -1.1912  0.4862
  153OSM    H7T17021   2.517   6.427   3.499  1.6798 -0.4643 -0.8398
  153OSM    C8S17022   2.418   6.288   3.621  0.3742 -0.1506 -0.7137
  153OSM    H8S17023   2.513   6.245   3.660  1.4453  1.8395 -1.0071
  153OSM    H8T17024   2.341   6.208   3.612 -2.3375  2.2746 -0.3369
  153OSM    C9S17025   2.346   6.397   3.710  0.2408  0.2937 -0.0440
  153OSM    H9S17026   2.252   6.431   3.660  1.1897  2.8519 -0.2438
  153OSM    H9T17027   2.406   6.490   3.699 -2.3398  2.0038 -0.8054
  153OSM   C10S17028   2.332   6.367   3.861  0.4362 -0.4634  0.7722
  153OSM   H10S17029   2.434   6.340   3.896  0.5615 -0.1627  0.6420
  153OSM   H10T17030   2.256   6.287   3.875  0.8375 -0.8640  0.6605
  153OSM   C11S17031   2.269   6.485   3.933 -0.0903 -0.4606 -0.3599
  153OSM   H11S17032   2.168   6.493   3.889  0.1718 -2.7643 -1.5397
  153OSM   H11T17033   2.322   6.580   3.910  1.0780 -1.1437 -0.6057
  153OSM   C12S17034   2.262   6.463   4.084  0.2673 -0.1756 -1.0370
  153OSM   H12S17035   2.369   6.446   4.110  0.5192  0.5222 -1.5724
  153OSM   H12T17036   2.207   6.369   4.108 -0.2299  0.4988  0.6632
  153OSM   C13S17037   2.214   6.589   4.158 -0.4378  0.5372  0.0765
  153OSM   H13S17038   2.104   6.592   4.143 -0.2853  2.2285 -0.8644
  153OSM   H13T17039   2.269   6.663   4.096  0.7107 -2.4094 -2.7224
  153OSM   C14S17040   2.247   6.583   4.307 -0.2953 -0.4853  0.1842
  153OSM   H14S17041   2.356   6.573   4.319 -0.2053  1.0897  0.9554
  153OSM   H14T17042   2.208   6.489   4.353 -3.2019  0.0175 -1.0043
  153OSM   C15S17043   2.196   6.704   4.380 -0.2285 -0.7170  0.7167
  153OSM   H15S17044   2.086   6.696   4.384 -0.1512 -1.9668  0.8170
  153OSM   H15T17045   2.213   6.794   4.318  0.0704  0.1319  1.9919
  153OSM   C16S17046   2.268   6.717   4.512 -0.5459  0.9780 -0.8880
  153OSM   H16S17047   2.376   6.694   4.495 -0.5903  0.1449 -0.1272
  153OSM   H16T17048   2.228   6.640   4.581 -0.6497 -1.2716 -3.2930
  153OSM   C17S17049   2.258   6.859   4.565  0.5284  0.5375 -0.6032
  153OSM   H17S17050   2.152   6.890   4.568  0.7649  1.6053 -2.2391
  153OSM   H17T17051   2.312   6.926   4.496  3.0010 -0.9527 -0.2516
  153OSM   C18S17052   2.326   6.885   4.701 -0.0699  0.1706 -0.3358
  153OSM   H18S17053   2.302   6.992   4.718 -1.6566 -0.1771 -0.2200
  153OSM   H18T17054   2.435   6.862   4.698  0.2517  1.4474  0.5764
  153OSM   H18U17055   2.285   6.820   4.781  0.3606  0.7647  0.3810
  153OSM    C1F17056   2.224   6.629   3.001 -0.9299  0.5131 -0.2076
  153OSM     OF17057   2.132   6.585   2.933 -0.0314  0.4125 -0.0469
  153OSM    C2F17058   2.230   6.769   3.055  0.4525  0.0303 -0.0304
  153OSM    H2F17059   2.244   6.842   2.972 -0.0351  0.0066 -0.1373
  153OSM    H2G17060   2.302   6.787   3.138 -2.1111 -1.0326  2.5902
  153OSM    C3F17061   2.091   6.795   3.116  0.1096 -0.1663 -0.1834
  153OSM    H3F17062   2.023   6.828   3.034  0.6021  0.1712 -0.4613
  153OSM    H3G17063   2.099   6.889   3.176 -2.4644  0.0777 -0.1002
  153OSM    C4F17064   2.027   6.693   3.207  0.0840 -0.7152  0.5066
  153OSM    H4F17065   2.032   6.591   3.163  0.6850  0.5140 -2.4556
  153OSM    H4G17066   1.919   6.719   3.221 -0.6330 -1.4975 -2.7229
  153OSM    C5F17067   2.087   6.696   3.351  0.4674  0.3159 -0.0972
  153OSM    H5F17068   2.097   6.804   3.376 -2.4915  0.4415  1.0204
  153OSM    H5G17069   2.183   6.641   3.352 -0.8902 -2.2519 -1.3811
  153OSM    C6F17070   1.983   6.644   3.460 -0.0860 -0.0260  0.3647
  153OSM    H6F17071   1.973   6.534   3.444 -0.8014  0.2285 -1.0967
  153OSM    H6G17072   1.881   6.685   3.445  0.0196  0.7234  1.6065
  153OSM    C7F17073   2.037   6.670   3.601  0.3375  0.1743 -0.7249
  153OSM    H7F17074   2.140   6.632   3.611 -0.1959 -1.3761 -0.8231
  153OSM    H7G17075   1.987   6.592   3.662 -0.6923 -0.1586 -1.9331
  153OSM    C8F17076   2.015   6.814   3.646 -0.4982 -0.4076 -0.9773
  153OSM    H8F17077   1.911   6.838   3.614 -0.6515 -0.6168 -0.6356
  153OSM    H8G17078   2.085   6.887   3.600  0.7700 -0.3032  1.0054
  153OSM    C9F17079   2.044   6.828   3.796 -0.2698 -0.7038 -0.3007
  153OSM    H9F17080   2.151   6.830   3.819 -0.3639  3.7499  0.5614
  153OSM   C10F17081   1.959   6.831   3.897 -0.2015 -0.3544  0.8188
  153OSM   H10F17082   1.993   6.842   4.001 -1.8290  0.1672  1.3416
  153OSM   C11F17083   1.814   6.808   3.892 -0.1521 -0.0480 -0.1030
  153OSM   H11F17084   1.795   6.716   3.833  2.4893 -0.6658 -0.0999
  153OSM   H11G17085   1.760   6.885   3.833  1.5963  1.1169 -0.2282
  153OSM   C12F17086   1.733   6.803   4.023 -0.4206 -0.3980  0.0558
  153OSM   H12F17087   1.624   6.799   4.004 -0.5392  0.0134  0.6383
  153OSM   H12G17088   1.730   6.907   4.062  0.2919 -0.5011  0.3981
  153OSM   C13F17089   1.788   6.698   4.122 -0.3792 -0.0702 -0.1881
  153OSM   H13F17090   1.895   6.725   4.137 -0.5204 -0.3681  1.6087
  153OSM   H13G17091   1.777   6.599   4.073  0.9399 -0.1332 -0.3981
  153OSM   C14F17092   1.716   6.677   4.259 -0.3372 -0.2989 -0.0394
  153OSM   H14F17093   1.715   6.783   4.291 -0.3432  0.1308 -1.4026
  153OSM   H14G17094   1.775   6.615   4.329 -0.1635 -1.2753 -1.0152
  153OSM   C15F17095   1.567   6.635   4.259  0.0835  0.4093  0.1988
  153OSM   H15F17096   1.535   6.537   4.217 -2.7650  1.9834 -1.6182
  153OSM   H15G17097   1.512   6.699   4.187 -2.6142 -4.4783 -2.5877
  153OSM   C16F17098   1.499   6.649   4.399 -0.2627 -0.3186  0.1575
  153OSM   H16F17099   1.389   6.658   4.384 -0.3405  1.9861  1.5469
  153OSM   H16G17100   1.525   6.745   4.448  1.4848 -0.8716  0.3846
  153OSM   C17F17101   1.527   6.528   4.493  0.3877 -0.3608  0.2832
  153OSM   H17F17102   1.637   6.533   4.507  0.4650 -0.5179 -0.2657
  153OSM   H17G17103   1.500   6.440   4.431  2.1600 -1.2491  0.7089
  153OSM   C18F17104   1.450   6.544   4.624  0.7738  0.1636  0.6017
  153OSM   H18F17105   1.507   6.590   4.708  2.6653 -1.4014  0.2537
  153OSM   H18G17106   1.416   6.444   4.660 -1.5529  0.0399 -1.7100
  153OSM   H18H17107   1.359   6.598   4.592  1.0767 -1.1223 -2.7474
  154OSM      N17108   1.802   4.531   2.510  0.2842  0.1133  0.1705
  154OSM    C1517109   1.909   4.514   2.603 -0.1549  0.2967 -0.0193
  154OSM   H15A17110   1.896   4.571   2.695 -1.9416 -0.7243  0.4053
  154OSM   H15B17111   2.004   4.530   2.556  0.2459  1.1152  1.0218
  154OSM   H15C17112   1.919   4.412   2.637  0.8562 -0.6699 -2.9918
  154OSM    C1417113   1.674   4.527   2.585  0.2484  0.2232  0.3775
  154OSM   H14A17114   1.667   4.616   2.645 -1.3909 -0.2417  0.9356
  154OSM   H14B17115   1.666   4.444   2.654 -1.3957  2.4491  3.0486
  154OSM   H14C17116   1.582   4.526   2.529  0.3369 -1.4791  0.2166
  154OSM    C1317117   1.794   4.660   2.447 -0.2690  0.2667 -0.1434
  154OSM   H13A17118   1.780   4.741   2.517  0.6560 -0.0598  0.4420
  154OSM   H13B17119   1.704   4.667   2.388 -0.8139  1.9676  0.8227
  154OSM   H13C17120   1.878   4.690   2.386 -0.7799  0.2082 -0.8910
  154OSM    C1217121   1.817   4.426   2.399  0.0922  1.1094 -0.7350
  154OSM   H12A17122   1.914   4.461   2.368 -0.5088  2.5273 -1.1130
  154OSM   H12B17123   1.749   4.450   2.319  1.0499  1.6145 -1.4245
  154OSM    C1117124   1.812   4.273   2.437 -0.1556 -0.5458  0.0091
  154OSM   H11A17125   1.811   4.206   2.349 -0.6450 -2.1951  1.2105
  154OSM   H11B17126   1.710   4.270   2.481  0.5050  0.0345  1.7065
  154OSM      P17127   2.057   4.212   2.504 -0.1197  0.2801  0.2137
  154OSM    O1317128   2.078   4.075   2.450  0.5368  0.3460  0.1134
  154OSM    O1417129   2.111   4.326   2.424  0.3348  0.4885  0.5721
  154OSM    O1117130   2.128   4.215   2.644 -0.1183 -0.4172 -0.3295
  154OSM    O1217131   1.913   4.234   2.538  0.6587  0.1359 -0.3076
  154OSM    C1S17132   2.062   4.178   2.769 -0.1930 -0.0209 -0.1348
  154OSM    H1S17133   2.014   4.078   2.765 -1.7125  0.7250 -2.4372
  154OSM    H1T17134   1.980   4.250   2.788 -1.1400 -0.3154 -2.6994
  154OSM     NF17135   2.084   4.159   3.012  0.1777  0.7156 -0.4731
  154OSM    HNF17136   2.031   4.231   3.057 -0.4958  0.3092 -0.5994
  154OSM    C2S17137   2.156   4.205   2.893  0.5743 -0.2785  0.2482
  154OSM    H2S17138   2.252   4.150   2.878  1.7836  1.6908  0.4043
  154OSM    C3S17139   2.189   4.354   2.892  0.6357  0.0339  0.6225
  154OSM    H3S17140   2.099   4.417   2.879  1.9689  1.6335 -1.6337
  154OSM     O317141   2.269   4.394   2.775 -0.7945  0.2244  0.2091
  154OSM    HO317142   2.246   4.324   2.714  0.0658  0.1540 -0.0391
  154OSM    C4S17143   2.269   4.390   3.014 -0.5993 -0.0398 -0.0088
  154OSM    H4S17144   2.364   4.338   3.033 -0.9612  0.2090  3.1046
  154OSM    C5S17145   2.234   4.497   3.092 -0.1094  0.9043  0.5593
  154OSM    H5S17146   2.141   4.545   3.058 -1.6819 -2.1021  0.2017
  154OSM    C6S17147   2.312   4.547   3.210 -0.7431 -0.4959 -0.6284
  154OSM    H6S17148   2.323   4.657   3.192 -1.4305 -0.1583  0.8612
  154OSM    H6T17149   2.414   4.503   3.205 -0.7815 -0.8259  1.0696
  154OSM    C7S17150   2.251   4.543   3.352  0.4441 -0.1509 -0.8085
  154OSM    H7S17151   2.245   4.434   3.372 -0.6654 -0.2112 -1.3847
  154OSM    H7T17152   2.145   4.571   3.336 -0.0602 -1.9510 -0.8050
  154OSM    C8S17153   2.320   4.623   3.462  0.4508 -0.2572  0.2150
  154OSM    H8S17154   2.325   4.723   3.413 -0.8966 -0.6925 -0.8997
  154OSM    H8T17155   2.425   4.590   3.482  0.2235 -0.4720  1.0816
  154OSM    C9S17156   2.237   4.613   3.589  0.0676 -0.0845 -0.4385
  154OSM    H9S17157   2.268   4.534   3.660  1.5830 -0.9676 -2.0077
  154OSM    H9T17158   2.132   4.600   3.554 -1.2680  3.6424  1.5695
  154OSM   C10S17159   2.215   4.740   3.664 -0.8682  0.7577  0.1823
  154OSM   H10S17160   2.127   4.730   3.731 -0.9001 -0.0768  0.0256
  154OSM   H10T17161   2.219   4.826   3.593  0.8042  0.0571 -0.6411
  154OSM   C11S17162   2.334   4.782   3.752  0.4643  0.0965  0.7396
  154OSM   H11S17163   2.428   4.778   3.692  1.7867  0.0718  2.7261
  154OSM   H11T17164   2.353   4.702   3.827  2.0518 -0.5114 -0.2516
  154OSM   C12S17165   2.314   4.914   3.823  0.3778  0.2889 -0.0432
  154OSM   H12S17166   2.217   4.908   3.879 -0.7038 -0.2687 -1.9054
  154OSM   H12T17167   2.288   4.998   3.755 -1.3934 -0.5988 -0.5307
  154OSM   C13S17168   2.438   4.962   3.900 -0.6423  0.3035 -0.6952
  154OSM   H13S17169   2.394   5.047   3.957 -1.4265 -0.3486 -0.3039
  154OSM   H13T17170   2.525   4.999   3.842  0.4104  1.0120  1.2446
  154OSM   C14S17171   2.495   4.858   4.010  0.4893  0.4360  0.0662
  154OSM   H14S17172   2.510   4.762   3.956  2.0851  1.6240 -1.7295
  154OSM   H14T17173   2.412   4.832   4.079  1.9670 -3.0560  0.7467
  154OSM   C15S17174   2.622   4.905   4.078 -0.2192  0.6079  0.9144
  154OSM   H15S17175   2.685   4.934   3.991  0.4342 -1.8606  0.4982
  154OSM   H15T17176   2.656   4.819   4.139  1.5857 -0.7079 -1.7423
  154OSM   C16S17177   2.604   5.037   4.159 -0.1346 -0.1952  0.5015
  154OSM   H16S17178   2.504   5.033   4.208 -0.4360  1.5081  0.0591
  154OSM   H16T17179   2.608   5.129   4.098  1.8332 -0.1319  0.6774
  154OSM   C17S17180   2.705   5.066   4.270 -0.0155 -0.0525  0.7387
  154OSM   H17S17181   2.799   5.056   4.212 -0.8855  0.1637 -0.7401
  154OSM   H17T17182   2.697   4.985   4.346 -4.3696  0.5427  1.1531
  154OSM   C18S17183   2.704   5.204   4.337  1.0136 -0.8369 -0.4415
  154OSM   H18S17184   2.686   5.289   4.267 -1.7647 -0.8068  0.1892
  154OSM   H18T17185   2.795   5.229   4.394 -0.4727  0.5393  1.4334
  154OSM   H18U17186   2.619   5.207   4.408  1.1286  1.0078 -0.3543
  154OSM    C1F17187   2.068   4.030   3.042 -1.0368 -0.4186  0.6081
  154OSM     OF17188   2.130   3.944   2.980 -0.1117 -0.2387 -0.4983
  154OSM    C2F17189   1.973   3.999   3.149 -0.0633 -0.4712 -0.3760
  154OSM    H2F17190   2.028   3.957   3.236  3.9357 -0.4347 -2.6696
  154OSM    H2G17191   1.892   3.930   3.118 -2.1333  0.4303  2.5596
  154OSM    C3F17192   1.892   4.116   3.217 -0.1805 -0.1763  0.4172
  154OSM    H3F17193   1.822   4.155   3.140  4.1350  2.5954 -2.5056
  154OSM    H3G17194   1.962   4.196   3.248 -0.7278  0.1463  0.8443
  154OSM    C4F17195   1.792   4.077   3.333 -0.1276 -0.0131  0.1723
  154OSM    H4F17196   1.843   4.003   3.399 -0.3179 -0.9538 -0.6969
  154OSM    H4G17197   1.705   4.031   3.281  0.8716 -1.5953 -0.1909
  154OSM    C5F17198   1.755   4.204   3.409  0.3373 -0.5295  0.0808
  154OSM    H5F17199   1.706   4.270   3.334  0.4818  1.2057  1.4381
  154OSM    H5G17200   1.848   4.252   3.445  1.2104 -0.8210 -1.6809
  154OSM    C6F17201   1.661   4.177   3.530  0.3427  0.2164 -0.3303
  154OSM    H6F17202   1.667   4.267   3.595  1.0420 -0.4916  0.6011
  154OSM    H6G17203   1.711   4.095   3.586 -0.1014 -0.4918 -0.9441
  154OSM    C7F17204   1.517   4.130   3.501 -0.6245  0.1712  0.0291
  154OSM    H7F17205   1.523   4.041   3.435  1.4067 -1.0554  1.7742
  154OSM    H7G17206   1.457   4.211   3.452 -2.2919  0.6871  2.6999
  154OSM    C8F17207   1.453   4.076   3.626 -0.4294 -0.0449  0.0266
  154OSM    H8F17208   1.513   3.984   3.643  3.8987  2.4599  0.0946
  154OSM    H8G17209   1.350   4.046   3.601  0.0720 -0.1841 -2.0483
  154OSM    C9F17210   1.445   4.179   3.739 -0.0491 -0.4308  0.1189
  154OSM    H9F17211   1.376   4.262   3.714 -0.5923 -0.4305  1.4745
  154OSM   C10F17212   1.504   4.176   3.859 -0.8372 -0.2905  0.0149
  154OSM   H10F17213   1.451   4.230   3.938 -1.5883 -3.0200  1.5260
  154OSM   C11F17214   1.603   4.074   3.907  0.3565 -0.2779  0.4959
  154OSM   H11F17215   1.629   3.998   3.831 -0.5928 -0.1848  0.0644
  154OSM   H11G17216   1.568   4.036   4.006  1.4158 -0.8972  0.6484
  154OSM   C12F17217   1.741   4.133   3.949 -0.5587 -0.2347  0.1817
  154OSM   H12F17218   1.731   4.243   3.960 -0.4859 -0.1910 -0.1718
  154OSM   H12G17219   1.821   4.130   3.872  0.0358 -0.6438  0.7961
  154OSM   C13F17220   1.810   4.070   4.078 -0.4533 -0.1974  0.6423
  154OSM   H13F17221   1.919   4.091   4.077 -1.1045  4.0563 -0.0844
  154OSM   H13G17222   1.801   3.960   4.078 -0.5846 -0.1998  1.8031
  154OSM   C14F17223   1.754   4.138   4.209 -0.9932  0.6915 -0.2865
  154OSM   H14F17224   1.643   4.139   4.213 -0.9768  0.1063  1.2576
  154OSM   H14G17225   1.793   4.242   4.208 -2.0618  1.1474  1.3142
  154OSM   C15F17226   1.794   4.059   4.336 -0.4634  0.0408 -0.1730
  154OSM   H15F17227   1.901   4.032   4.332 -0.7740 -1.2562 -0.3579
  154OSM   H15G17228   1.726   3.970   4.332 -2.1637  1.3176 -0.8005
  154OSM   C16F17229   1.766   4.150   4.455  0.6158  0.0410 -0.1645
  154OSM   H16F17230   1.769   4.260   4.435 -1.2387  0.2248  0.4384
  154OSM   H16G17231   1.829   4.128   4.544 -0.2481 -1.0880  0.1879
  154OSM   C17F17232   1.625   4.114   4.506 -0.3085  0.3223  0.2260
  154OSM   H17F17233   1.608   4.005   4.512  1.9609 -0.1356 -0.9491
  154OSM   H17G17234   1.541   4.158   4.446  1.1552  0.2849 -1.9518
  154OSM   C18F17235   1.607   4.163   4.655  0.3288  0.3765  0.0874
  154OSM   H18F17236   1.570   4.268   4.662  0.9052  0.5938  0.0065
  154OSM   H18G17237   1.689   4.136   4.725 -0.6709 -1.9510  0.4468
  154OSM   H18H17238   1.520   4.106   4.694 -0.4288  1.3108 -0.1888
  155OSM      N17239   4.482   2.909   2.062  0.2611  0.2068  0.0993
  155OSM    C1517240   4.478   2.765   2.093  0.7712  0.0778  0.0768
  155OSM   H15A17241   4.450   2.708   2.006 -0.2866  1.1464 -0.3019
  155OSM   H15B17242   4.396   2.748   2.161 -0.8705  3.1411 -0.9492
  155OSM   H15C17243   4.575   2.726   2.121  0.9299 -1.1482 -1.9833
  155OSM    C1417244   4.579   2.926   1.948 -0.3557 -0.4245 -1.0465
  155OSM   H14A17245   4.673   2.896   1.992  0.6919  3.8743  0.1088
  155OSM   H14B17246   4.596   3.029   1.920  0.2049  0.8220  3.2670
  155OSM   H14C17247   4.556   2.856   1.869  0.0963 -0.1920 -1.3899
  155OSM    C1317248   4.350   2.945   2.007  0.2686 -0.5911 -0.2076
  155OSM   H13A17249   4.272   2.932   2.080  0.5159  1.2212  0.4249
  155OSM   H13B17250   4.331   2.887   1.917 -3.8007  0.1710 -0.0120
  155OSM   H13C17251   4.346   3.048   1.975 -1.8369  0.0265  1.8426
  155OSM    C1217252   4.512   2.993   2.184 -0.2825 -0.5586 -0.2414
  155OSM   H12A17253   4.516   3.098   2.159  1.5091 -0.5872 -0.2261
  155OSM   H12B17254   4.613   2.979   2.220 -0.2297  1.1970  0.4072
  155OSM    C1117255   4.431   2.950   2.310 -0.0130 -0.3435 -0.4250
  155OSM   H11A17256   4.480   3.018   2.383 -1.3139  0.4762 -0.2770
  155OSM   H11B17257   4.455   2.843   2.329  1.1303 -0.5264 -2.6251
  155OSM      P17258   4.199   3.059   2.384 -0.1609 -0.0040 -0.3101
  155OSM    O1317259   4.245   3.198   2.363 -0.2812  0.0325  0.5553
  155OSM    O1417260   4.058   3.024   2.344  0.3576 -0.4904  0.5629
  155OSM    O1117261   4.223   3.015   2.537  0.4491 -0.1960  0.2244
  155OSM    O1217262   4.289   2.960   2.305  0.4328  0.1296  0.0313
  155OSM    C1S17263   4.161   2.899   2.590 -0.4266  0.1454  0.2747
  155OSM    H1S17264   4.233   2.815   2.597  0.9883  1.3906  2.0631
  155OSM    H1T17265   4.066   2.873   2.540  0.9153 -1.2582 -1.6649
  155OSM     NF17266   4.104   2.785   2.799 -0.5732 -0.5813  0.0114
  155OSM    HNF17267   4.014   2.746   2.816 -1.1181  1.3473  2.1192
  155OSM    C2S17268   4.120   2.921   2.740 -0.5194 -0.3222  0.2630
  155OSM    H2S17269   4.194   2.982   2.795 -2.1753  2.2716 -0.1876
  155OSM    C3S17270   3.995   3.011   2.739  0.6434  0.4570  0.3741
  155OSM    H3S17271   3.914   2.948   2.697  0.3335 -0.2844  2.0170
  155OSM     O317272   4.001   3.121   2.647  0.0444 -1.0259 -0.3068
  155OSM    HO317273   4.084   3.100   2.603  0.8354 -0.4019  0.8342
  155OSM    C4S17274   3.941   3.057   2.870  0.5192  0.9184  0.1561
  155OSM    H4S17275   3.873   2.984   2.916  0.4014  1.1390  0.3351
  155OSM    C5S17276   3.985   3.155   2.952  1.2804  0.2203 -0.1586
  155OSM    H5S17277   4.069   3.213   2.911  1.8043 -1.1830 -1.1479
  155OSM    C6S17278   3.923   3.178   3.087 -0.3172 -0.1322 -0.3803
  155OSM    H6S17279   3.896   3.285   3.093 -1.9573 -0.5426  0.1409
  155OSM    H6T17280   4.005   3.173   3.162 -0.9117  2.0144  0.4610
  155OSM    C7S17281   3.819   3.085   3.152  0.3284  0.0088  0.1541
  155OSM    H7S17282   3.862   2.983   3.166  2.2250  0.9497  1.6821
  155OSM    H7T17283   3.726   3.076   3.092 -1.9647  0.0348  3.4586
  155OSM    C8S17284   3.763   3.144   3.275  0.9950 -0.0636 -0.0000
  155OSM    H8S17285   3.715   3.243   3.258 -0.0025 -0.8598 -2.3290
  155OSM    H8T17286   3.851   3.166   3.339  1.7438  0.4630 -1.1833
  155OSM    C9S17287   3.683   3.050   3.366 -0.3320  0.1860  0.0210
  155OSM    H9S17288   3.745   2.958   3.365  1.1807  1.1194  1.8201
  155OSM    H9T17289   3.585   3.029   3.318 -1.7649  3.6454  1.0856
  155OSM   C10S17290   3.653   3.099   3.515 -0.4027 -0.2969  0.2434
  155OSM   H10S17291   3.715   3.185   3.548 -0.5704  0.5192 -1.4462
  155OSM   H10T17292   3.663   3.018   3.590 -3.1494 -0.0775  0.9419
  155OSM   C11S17293   3.510   3.145   3.534 -0.7514  0.2599 -0.3736
  155OSM   H11S17294   3.445   3.056   3.519 -1.3634  0.7786 -0.8401
  155OSM   H11T17295   3.495   3.213   3.449 -0.0818  1.2380  0.2733
  155OSM   C12S17296   3.480   3.207   3.673 -0.1636 -0.2408 -0.0113
  155OSM   H12S17297   3.379   3.251   3.685 -0.4218 -0.2470 -1.9339
  155OSM   H12T17298   3.558   3.285   3.682  1.2504 -1.0506 -3.5601
  155OSM   C13S17299   3.493   3.112   3.792  0.6320 -0.1522  0.1397
  155OSM   H13S17300   3.590   3.057   3.792  1.0920  0.6469 -0.2314
  155OSM   H13T17301   3.422   3.027   3.781 -0.2571  0.7078 -1.0951
  155OSM   C14S17302   3.469   3.184   3.927  0.5710  0.1195 -0.0154
  155OSM   H14S17303   3.450   3.102   4.000 -0.0907 -1.8473 -2.2455
  155OSM   H14T17304   3.375   3.243   3.919  1.2427  1.7176  2.6869
  155OSM   C15S17305   3.591   3.259   3.982 -0.0545 -0.2760 -0.5575
  155OSM   H15S17306   3.617   3.351   3.926  3.3181 -0.5573  0.3339
  155OSM   H15T17307   3.686   3.203   3.969  0.6499  0.7455  0.0748
  155OSM   C16S17308   3.576   3.301   4.128  0.0391 -0.8544 -0.1956
  155OSM   H16S17309   3.473   3.339   4.147  0.5595  0.7874 -0.5688
  155OSM   H16T17310   3.652   3.378   4.150  0.8218 -1.7680  0.4024
  155OSM   C17S17311   3.624   3.192   4.224  0.4998 -0.2603 -0.6381
  155OSM   H17S17312   3.733   3.200   4.248 -0.0151  1.2969  1.4924
  155OSM   H17T17313   3.606   3.091   4.180  0.4743 -0.4272 -0.2476
  155OSM   C18S17314   3.552   3.204   4.362  0.2361 -0.0127  0.4797
  155OSM   H18S17315   3.569   3.308   4.398 -1.0080  0.5291 -0.3827
  155OSM   H18T17316   3.602   3.136   4.433 -1.0357 -0.1526  1.2803
  155OSM   H18U17317   3.444   3.184   4.344  0.7670 -1.4833 -1.4132
  155OSM    C1F17318   4.201   2.697   2.833  0.6777 -0.6118  0.7360
  155OSM     OF17319   4.318   2.729   2.815  0.3959  0.1481  0.3970
  155OSM    C2F17320   4.150   2.565   2.877 -0.7640 -0.2591  0.0336
  155OSM    H2F17321   4.152   2.495   2.791  0.4645  2.8096 -2.6427
  155OSM    H2G17322   4.045   2.575   2.912 -0.4227 -0.2500  1.0696
  155OSM    C3F17323   4.245   2.500   2.986  0.3187  0.2704  0.5471
  155OSM    H3F17324   4.275   2.564   3.072 -0.9882 -0.0070  1.2222
  155OSM    H3G17325   4.336   2.471   2.929  0.9265 -2.4336  2.6878
  155OSM    C4F17326   4.176   2.375   3.038 -0.1742 -0.2475  0.0473
  155OSM    H4F17327   4.249   2.302   3.079  1.6145  0.4136 -1.7879
  155OSM    H4G17328   4.112   2.322   2.963  0.0115 -1.3568  0.6452
  155OSM    C5F17329   4.079   2.419   3.147  0.7604 -0.7626  0.5822
  155OSM    H5F17330   3.998   2.344   3.153 -1.1850  1.2086  0.3509
  155OSM    H5G17331   4.029   2.516   3.123 -1.2721 -1.8032  0.4186
  155OSM    C6F17332   4.148   2.434   3.280  0.5777  0.4532 -0.9469
  155OSM    H6F17333   4.190   2.537   3.272 -0.3039  0.7885 -1.4736
  155OSM    H6G17334   4.235   2.366   3.281 -0.5588 -1.0381  0.0953
  155OSM    C7F17335   4.050   2.427   3.397 -0.3328  0.4888 -0.5072
  155OSM    H7F17336   4.010   2.324   3.411 -0.5971  1.0211  4.6310
  155OSM    H7G17337   3.956   2.478   3.368 -2.6383 -1.6427  2.5624
  155OSM    C8F17338   4.085   2.474   3.541 -0.0964  0.2222  0.2380
  155OSM    H8F17339   3.994   2.468   3.604 -0.2784 -1.8177 -0.1456
  155OSM    H8G17340   4.114   2.581   3.539 -0.1583  0.2521  0.7354
  155OSM    C9F17341   4.196   2.395   3.601  0.2990 -0.5362 -0.0136
  155OSM    H9F17342   4.277   2.360   3.535  1.9436  1.5398  0.7617
  155OSM   C10F17343   4.192   2.348   3.730 -0.4447  0.7609  0.0741
  155OSM   H10F17344   4.273   2.288   3.773 -0.9873  0.4083  0.6236
  155OSM   C11F17345   4.093   2.372   3.840  1.2056 -0.4716 -0.2422
  155OSM   H11F17346   4.029   2.283   3.858 -0.8459  0.6362 -1.6218
  155OSM   H11G17347   4.029   2.459   3.811 -0.1132 -1.1795  0.4531
  155OSM   C12F17348   4.176   2.419   3.959 -0.3099 -0.0936 -0.0396
  155OSM   H12F17349   4.224   2.514   3.930 -2.0125  1.0538  0.7445
  155OSM   H12G17350   4.262   2.351   3.979 -0.2845  0.2955  1.3034
  155OSM   C13F17351   4.087   2.447   4.081 -0.0936 -0.3669  0.0919
  155OSM   H13F17352   4.020   2.360   4.097  0.2065 -0.2480  2.2774
  155OSM   H13G17353   4.016   2.530   4.059 -2.3206 -2.0773  0.4261
  155OSM   C14F17354   4.164   2.492   4.210 -0.7324  0.0599  0.0617
  155OSM   H14F17355   4.223   2.586   4.204 -0.3128 -0.1776  0.4737
  155OSM   H14G17356   4.232   2.409   4.238 -0.1019  1.1741  2.0328
  155OSM   C15F17357   4.067   2.499   4.330 -0.1427 -0.2120  0.3853
  155OSM   H15F17358   4.012   2.404   4.348 -1.3470  0.2142 -0.8298
  155OSM   H15G17359   3.989   2.578   4.320 -1.3452 -1.6139 -2.5331
  155OSM   C16F17360   4.137   2.532   4.468  0.3821 -0.3053 -0.3705
  155OSM   H16F17361   4.209   2.615   4.449 -0.4708 -0.3822 -5.2408
  155OSM   H16G17362   4.198   2.450   4.512  1.1854  0.6357  0.3195
  155OSM   C17F17363   4.026   2.565   4.575 -0.0525 -0.3479 -0.2284
  155OSM   H17F17364   3.955   2.480   4.568  0.1082 -0.3833 -1.7526
  155OSM   H17G17365   3.983   2.658   4.532 -1.4138 -1.1035 -0.5802
  155OSM   C18F17366   4.070   2.594   4.715 -1.1569  0.1332 -0.0415
  155OSM   H18F17367   4.059   2.511   4.788  0.6206 -1.0184 -1.0129
  155OSM   H18G17368   4.011   2.671   4.768 -1.1574 -1.7460  2.9533
  155OSM   H18H17369   4.171   2.642   4.715 -1.3121  0.4918  0.7873
  156OSM      N17370   6.023   0.059   2.140  0.1558  0.1796  0.1653
  156OSM    C1517371   5.985   0.043   1.996 -0.5394 -0.0061  0.3280
  156OSM   H15A17372   6.001   0.137   1.947 -2.6798 -0.1816 -0.8398
  156OSM   H15B17373   5.879   0.023   1.993 -0.6860  0.5957  1.1234
  156OSM   H15C17374   6.041  -0.036   1.949 -0.1035 -0.6984  1.9470
  156OSM    C1417375   6.168   0.087   2.134 -0.0950 -0.1543  0.1274
  156OSM   H14A17376   6.200   0.094   2.237  0.6114  0.3248 -0.1185
  156OSM   H14B17377   6.195   0.179   2.084  1.1477 -1.3250 -1.4661
  156OSM   H14C17378   6.216   0.003   2.085 -0.1643 -0.3150  0.3333
  156OSM    C1317379   5.949   0.172   2.196  0.4212 -0.7781 -0.2766
  156OSM   H13A17380   6.004   0.196   2.285  3.1057 -0.1278 -1.9906
  156OSM   H13B17381   5.847   0.140   2.215 -0.1873  1.2501  0.1393
  156OSM   H13C17382   5.950   0.257   2.128  0.4245  0.1061  0.8020
  156OSM    C1217383   5.990  -0.064   2.226  0.0558 -0.4297 -0.1328
  156OSM   H12A17384   6.038  -0.148   2.176 -1.0217  0.7521 -3.3929
  156OSM   H12B17385   5.884  -0.083   2.231 -0.5413  2.6804  0.6824
  156OSM    C1117386   6.046  -0.053   2.368  0.5827 -0.3063 -0.4532
  156OSM   H11A17387   5.994  -0.137   2.419 -2.3520  1.3607 -0.5438
  156OSM   H11B17388   6.011   0.038   2.421  1.8511 -1.3048  2.3271
  156OSM      P17389   6.248  -0.208   2.369 -0.8158  0.5431 -0.3007
  156OSM    O1317390   6.156  -0.299   2.299 -0.6560  0.3532  0.3642
  156OSM    O1417391   6.384  -0.199   2.306 -0.3550  0.1380 -0.6507
  156OSM    O1117392   6.271  -0.251   2.518 -0.0903 -0.2014 -0.2898
  156OSM    O1217393   6.187  -0.062   2.390 -0.1237 -0.0090  0.2641
  156OSM    C1S17394   6.243  -0.155   2.620 -0.3812  0.3364 -0.1098
  156OSM    H1S17395   6.133  -0.135   2.622 -0.7393 -1.4239 -0.2166
  156OSM    H1T17396   6.295  -0.058   2.608 -1.7084  1.4261  2.2409
  156OSM     NF17397   6.227  -0.135   2.862 -0.5982 -0.0420  0.0871
  156OSM    HNF17398   6.288  -0.065   2.899  0.1845 -0.9861  0.6110
  156OSM    C2S17399   6.287  -0.217   2.757  0.0984  0.1292 -0.2347
  156OSM    H2S17400   6.230  -0.313   2.759 -2.9247  1.8180 -0.3049
  156OSM    C3S17401   6.438  -0.229   2.751 -0.7243  0.4596 -0.2780
  156OSM    H3S17402   6.481  -0.126   2.748  1.0527 -0.2514  0.0906
  156OSM     O317403   6.494  -0.312   2.644 -0.3525 -0.6297  0.0585
  156OSM    HO317404   6.415  -0.346   2.600 -0.5805 -0.7503  0.5567
  156OSM    C4S17405   6.489  -0.275   2.888 -0.1630 -0.3816  0.5218
  156OSM    H4S17406   6.505  -0.189   2.955  1.3300 -2.0551  2.4365
  156OSM    C5S17407   6.522  -0.394   2.943  0.0642 -0.0798  0.2958
  156OSM    H5S17408   6.521  -0.489   2.889 -1.3141  0.0551  0.0277
  156OSM    C6S17409   6.549  -0.421   3.084  0.7618  0.9386 -0.6734
  156OSM    H6S17410   6.656  -0.432   3.114  0.6257 -0.0702 -0.5280
  156OSM    H6T17411   6.504  -0.522   3.089 -1.8421  1.9198 -2.3161
  156OSM    C7S17412   6.472  -0.333   3.186 -0.4425  0.1243  0.3483
  156OSM    H7S17413   6.367  -0.362   3.209  0.1109 -0.9633  1.6246
  156OSM    H7T17414   6.485  -0.227   3.156  1.1227  0.3819  1.7638
  156OSM    C8S17415   6.550  -0.328   3.320 -0.8723  0.2162  0.1868
  156OSM    H8S17416   6.656  -0.297   3.313 -1.1958  0.9035 -4.1919
  156OSM    H8T17417   6.548  -0.422   3.379 -1.4290  0.5898  0.7843
  156OSM    C9S17418   6.495  -0.229   3.428  0.3619 -0.1678  0.4061
  156OSM    H9S17419   6.389  -0.253   3.450  0.1427 -0.8085 -1.1805
  156OSM    H9T17420   6.509  -0.127   3.385  2.8180  0.3201  2.1583
  156OSM   C10S17421   6.574  -0.236   3.555 -0.3327  0.0835 -0.3594
  156OSM   H10S17422   6.680  -0.207   3.542 -0.3774 -0.2304 -1.5548
  156OSM   H10T17423   6.580  -0.339   3.595 -0.5873  1.5215  3.7920
  156OSM   C11S17424   6.518  -0.135   3.659  0.4067 -0.3144 -0.2002
  156OSM   H11S17425   6.410  -0.114   3.640  0.2742  0.6740  1.4781
  156OSM   H11T17426   6.571  -0.038   3.654 -1.7573  0.9662  0.3029
  156OSM   C12S17427   6.529  -0.199   3.798  0.2257 -0.3159 -0.3554
  156OSM   H12S17428   6.639  -0.199   3.814  0.4683  3.4493 -0.9672
  156OSM   H12T17429   6.490  -0.303   3.799 -1.2710  0.2205  1.2802
  156OSM   C13S17430   6.463  -0.109   3.907  0.0636 -0.5195  0.2661
  156OSM   H13S17431   6.356  -0.106   3.877 -0.0008 -1.8281  0.3150
  156OSM   H13T17432   6.492  -0.002   3.907 -1.1527 -0.1308 -1.7602
  156OSM   C14S17433   6.480  -0.168   4.044  0.4426  0.5447  0.4063
  156OSM   H14S17434   6.578  -0.150   4.092 -0.1097 -1.7369  2.5792
  156OSM   H14T17435   6.482  -0.279   4.041  0.0047  0.5227  0.6927
  156OSM   C15S17436   6.373  -0.119   4.132 -0.7026 -0.2282 -0.5649
  156OSM   H15S17437   6.276  -0.153   4.090  0.8971 -3.7037 -1.8049
  156OSM   H15T17438   6.377  -0.008   4.124  0.7093 -0.2378 -0.2097
  156OSM   C16S17439   6.374  -0.156   4.275 -0.1058  0.4887  0.0433
  156OSM   H16S17440   6.477  -0.173   4.313 -0.4052  0.0872  0.6914
  156OSM   H16T17441   6.318  -0.251   4.288  2.7869 -1.2074  1.1629
  156OSM   C17S17442   6.310  -0.048   4.353  0.1046  0.3494  0.0316
  156OSM   H17S17443   6.206  -0.024   4.322  0.4667  1.4155 -0.4157
  156OSM   H17T17444   6.371   0.043   4.330  0.2425  1.0236  2.7068
  156OSM   C18S17445   6.327  -0.065   4.506  0.0943 -0.3673  0.4158
  156OSM   H18S17446   6.308  -0.167   4.545 -0.5997 -1.5912 -2.8703
  156OSM   H18T17447   6.253   0.002   4.555  0.7202  1.9265 -1.5872
  156OSM   H18U17448   6.426  -0.031   4.543 -1.2763  2.2133  2.0764
  156OSM    C1F17449   6.103  -0.146   2.897  0.8835  0.1797 -0.4524
  156OSM     OF17450   6.024  -0.229   2.848  0.8993  0.1380 -0.4407
  156OSM    C2F17451   6.061  -0.059   3.010  1.0096  0.0980  0.1101
  156OSM    H2F17452   6.039   0.047   2.985  0.7763  0.1016  0.3282
  156OSM    H2G17453   6.141  -0.069   3.085 -0.7987 -0.0233  2.1202
  156OSM    C3F17454   5.925  -0.106   3.087  0.2841  0.0798  1.0401
  156OSM    H3F17455   5.931  -0.211   3.123 -0.7450 -0.8654 -1.3491
  156OSM    H3G17456   5.846  -0.107   3.010  1.1289  1.4292  0.1147
  156OSM    C4F17457   5.894  -0.015   3.206  0.0864  0.0004 -0.0805
  156OSM    H4F17458   5.788  -0.025   3.237 -0.1310  0.8757 -0.5121
  156OSM    H4G17459   5.910   0.087   3.166 -0.2560  0.2848  0.4953
  156OSM    C5F17460   5.979  -0.037   3.328 -1.0266 -0.3646 -0.9734
  156OSM    H5F17461   6.079   0.007   3.309 -0.7798 -0.8589 -0.8521
  156OSM    H5G17462   5.982  -0.144   3.357  0.4032  0.0441  0.5530
  156OSM    C6F17463   5.928   0.024   3.454 -0.0032 -0.3363 -0.6543
  156OSM    H6F17464   5.824  -0.010   3.470 -0.2371  0.7320  0.2119
  156OSM    H6G17465   5.927   0.134   3.444  0.9782  0.1796  3.1565
  156OSM    C7F17466   6.008  -0.015   3.577  0.2984  0.1264 -0.1491
  156OSM    H7F17467   6.010   0.066   3.653 -0.7322 -2.2554  2.5733
  156OSM    H7G17468   6.114  -0.039   3.554  0.8636  0.0109  2.3318
  156OSM    C8F17469   5.941  -0.150   3.642 -0.2591  0.1989  0.5012
  156OSM    H8F17470   5.907  -0.225   3.567 -0.2036  1.0914 -0.4296
  156OSM    H8G17471   5.850  -0.108   3.689 -0.5144 -1.3687  1.4918
  156OSM    C9F17472   6.016  -0.223   3.751 -0.1391 -0.3356 -0.3360
  156OSM    H9F17473   6.079  -0.299   3.703 -2.3863 -1.3007 -1.9125
  156OSM   C10F17474   6.015  -0.200   3.890 -0.0188 -0.0274  0.3103
  156OSM   H10F17475   6.079  -0.260   3.955 -1.7629 -1.9042  0.3917
  156OSM   C11F17476   5.936  -0.100   3.963  0.2056 -0.4769  0.4297
  156OSM   H11F17477   5.868  -0.042   3.897 -1.4820 -2.7867  0.0164
  156OSM   H11G17478   5.995  -0.014   4.001 -0.4162 -0.3255  1.0607
  156OSM   C12F17479   5.878  -0.178   4.076  0.6749  0.6276  0.4350
  156OSM   H12F17480   5.954  -0.251   4.111  0.3147 -0.0446 -0.1448
  156OSM   H12G17481   5.798  -0.248   4.044  2.8352 -1.6761 -0.3425
  156OSM   C13F17482   5.843  -0.078   4.191  0.1192  0.8775 -0.9135
  156OSM   H13F17483   5.787   0.009   4.152 -1.0233  0.1681 -0.9100
  156OSM   H13G17484   5.929  -0.044   4.253 -0.0523  0.4005 -0.4037
  156OSM   C14F17485   5.752  -0.149   4.298 -0.0603 -0.3257  0.3429
  156OSM   H14F17486   5.809  -0.225   4.356  1.6789 -0.7549 -1.7760
  156OSM   H14G17487   5.661  -0.188   4.249  0.6903 -0.8355 -0.6921
  156OSM   C15F17488   5.697  -0.040   4.395  0.3748  0.2938  0.1509
  156OSM   H15F17489   5.624   0.025   4.342  1.6009  1.3192 -0.3196
  156OSM   H15G17490   5.779   0.027   4.428  0.6623  0.7427 -1.4022
  156OSM   C16F17491   5.620  -0.083   4.523 -0.2125  0.1746 -0.0462
  156OSM   H16F17492   5.688  -0.148   4.583 -0.0384  0.3058 -0.1008
  156OSM   H16G17493   5.531  -0.143   4.494 -0.5239  0.7200 -0.2377
  156OSM   C17F17494   5.576   0.030   4.616 -0.7888  0.1137 -0.6339
  156OSM   H17F17495   5.477   0.074   4.592 -1.2040  0.4270  1.4355
  156OSM   H17G17496   5.659   0.103   4.626  1.5511 -2.3994 -0.5079
  156OSM   C18F17497   5.561  -0.026   4.761  0.3229  0.1459 -0.3908
  156OSM   H18F17498   5.653  -0.070   4.806  0.5470 -1.2021 -2.0547
  156OSM   H18G17499   5.488  -0.110   4.753  0.2139  0.3270 -1.4776
  156OSM   H18H17500   5.542   0.055   4.834 -1.0818 -1.3195  0.9538
  157OSM      N17501   5.020   0.824   2.480 -0.7234 -0.1669 -0.8197
  157OSM    C1517502   4.898   0.748   2.493 -0.3968  0.1932  0.0840
  157OSM   H15A17503   4.838   0.726   2.406 -0.6881 -0.5785  0.4688
  157OSM   H15B17504   4.829   0.792   2.564 -0.1737  1.0762 -0.2304
  157OSM   H15C17505   4.916   0.651   2.537 -1.9824  0.0908  0.5852
  157OSM    C1417506   5.123   0.752   2.402  0.4418  0.7267  0.3257
  157OSM   H14A17507   5.155   0.662   2.452 -1.4284 -0.2016 -0.0495
  157OSM   H14B17508   5.210   0.816   2.394 -0.1194  1.4575 -0.1747
  157OSM   H14C17509   5.081   0.719   2.308 -2.2669  0.4569  1.5593
  157OSM    C1317510   5.002   0.957   2.412  0.0065  0.4595 -0.0290
  157OSM   H13A17511   5.095   1.010   2.427  0.8328 -0.6276 -1.0927
  157OSM   H13B17512   4.923   1.017   2.455 -1.5718 -0.4056 -1.5910
  157OSM   H13C17513   4.981   0.953   2.306  0.2511  2.7218 -0.2065
  157OSM    C1217514   5.059   0.850   2.627 -0.9331  0.4543 -0.5712
  157OSM   H12A17515   4.965   0.878   2.671 -1.8180  1.5883 -3.0301
  157OSM   H12B17516   5.139   0.922   2.624 -0.5768  0.2482  1.8693
  157OSM    C1117517   5.100   0.734   2.726 -0.3411 -0.4805 -0.9683
  157OSM   H11A17518   5.021   0.655   2.733  0.7041 -1.5532 -0.9993
  157OSM   H11B17519   5.108   0.767   2.832  0.2989 -1.5979 -0.6531
  157OSM      P17520   5.356   0.686   2.745 -0.0568  0.3653  0.7195
  157OSM    O1317521   5.440   0.588   2.667  0.6219  0.6484 -0.2961
  157OSM    O1417522   5.406   0.827   2.740  0.0437 -0.0371  0.2624
  157OSM    O1117523   5.351   0.638   2.893  0.1302 -0.5993 -0.3396
  157OSM    O1217524   5.214   0.675   2.685  0.0284 -0.4254 -1.0654
  157OSM    C1S17525   5.273   0.518   2.921  0.6312  0.5840 -0.4297
  157OSM    H1S17526   5.330   0.432   2.879 -0.7791 -2.3408  3.0799
  157OSM    H1T17527   5.178   0.520   2.863  1.1223 -2.0243 -1.4856
  157OSM     NF17528   5.186   0.355   3.088 -0.8373 -0.0358  0.3764
  157OSM    HNF17529   5.092   0.360   3.119 -0.0403  2.4743  2.8911
  157OSM    C2S17530   5.250   0.483   3.069  0.2705  0.9551 -0.1450
  157OSM    H2S17531   5.347   0.471   3.120 -0.5146 -0.2766  1.1095
  157OSM    C3S17532   5.177   0.593   3.139  0.7329 -0.8163 -0.3339
  157OSM    H3S17533   5.070   0.592   3.110 -0.7488  1.8654  4.1054
  157OSM     O317534   5.214   0.728   3.113  0.0155 -0.9417 -0.5493
  157OSM    HO317535   5.267   0.719   3.033  1.3855 -0.8299  0.3220
  157OSM    C4S17536   5.162   0.571   3.285 -0.0157 -0.5443 -0.3260
  157OSM    H4S17537   5.064   0.527   3.309 -0.4648  0.2861 -0.6062
  157OSM    C5S17538   5.249   0.619   3.377 -0.0314  0.0020 -0.3225
  157OSM    H5S17539   5.337   0.671   3.337  0.0911  0.0747  0.0369
  157OSM    C6S17540   5.235   0.624   3.529  0.2548 -0.2243  0.4736
  157OSM    H6S17541   5.197   0.722   3.565  2.3090  1.7708 -2.3083
  157OSM    H6T17542   5.333   0.602   3.577  0.8940  2.0844  0.3068
  157OSM    C7S17543   5.121   0.528   3.579 -0.5079 -0.2203 -0.3336
  157OSM    H7S17544   5.155   0.423   3.567 -0.8741 -0.2966 -0.7670
  157OSM    H7T17545   5.033   0.537   3.511 -1.1790 -1.0932  0.3962
  157OSM    C8S17546   5.094   0.542   3.729  0.4880 -0.0769  0.4143
  157OSM    H8S17547   5.027   0.458   3.757  0.2284 -0.3523 -0.9522
  157OSM    H8T17548   5.046   0.639   3.754  0.3797 -0.1981  0.6819
  157OSM    C9S17549   5.224   0.528   3.804 -0.2209 -0.2614  0.5785
  157OSM    H9S17550   5.277   0.625   3.795 -2.3108  0.6926 -4.3279
  157OSM    H9T17551   5.286   0.447   3.760 -1.2891 -1.0017  0.4088
  157OSM   C10S17552   5.203   0.484   3.950 -0.6400 -0.5325  0.6045
  157OSM   H10S17553   5.299   0.444   3.987 -0.4960  0.2129  1.0658
  157OSM   H10T17554   5.111   0.421   3.952 -0.1345 -1.3374 -0.5223
  157OSM   C11S17555   5.179   0.600   4.052  0.2958 -0.1031  0.0467
  157OSM   H11S17556   5.078   0.640   4.028  0.1840  0.1782  0.9364
  157OSM   H11T17557   5.253   0.682   4.036  0.4042 -0.7158 -3.1227
  157OSM   C12S17558   5.204   0.559   4.197  0.3604 -0.1666  0.0586
  157OSM   H12S17559   5.209   0.649   4.262  0.8874 -0.3871  0.3306
  157OSM   H12T17560   5.306   0.517   4.214  0.4897  0.3715  0.6583
  157OSM   C13S17561   5.110   0.449   4.253  0.7377 -0.1429  0.6373
  157OSM   H13S17562   5.132   0.359   4.191 -1.6291 -0.8727  0.7387
  157OSM   H13T17563   5.005   0.485   4.240  1.6658  2.5075 -0.2332
  157OSM   C14S17564   5.126   0.412   4.403 -0.3413  0.4520  0.3579
  157OSM   H14S17565   5.059   0.328   4.433 -1.1839  1.8256  2.5550
  157OSM   H14T17566   5.093   0.491   4.473 -1.8953 -0.1269  0.3175
  157OSM   C15S17567   5.266   0.374   4.452 -0.1715 -0.2983 -0.4724
  157OSM   H15S17568   5.329   0.464   4.443 -0.1374 -0.3553 -0.8368
  157OSM   H15T17569   5.307   0.302   4.377 -0.4792  1.0590 -1.9932
  157OSM   C16S17570   5.278   0.312   4.592 -0.4421  0.1285 -0.3211
  157OSM   H16S17571   5.260   0.402   4.655  0.3224 -0.8957  1.4050
  157OSM   H16T17572   5.386   0.294   4.609 -0.0275  1.6917 -1.1289
  157OSM   C17S17573   5.184   0.205   4.624  0.2150  0.6475  0.3415
  157OSM   H17S17574   5.174   0.128   4.545 -2.2830 -0.2402  1.4164
  157OSM   H17T17575   5.083   0.251   4.626  0.7358  1.8096  0.5812
  157OSM   C18S17576   5.219   0.141   4.761  0.3233  0.7862  0.3462
  157OSM   H18S17577   5.157   0.055   4.794  1.5457 -0.8826 -1.4998
  157OSM   H18T17578   5.203   0.217   4.841  1.1261 -1.5400  2.8425
  157OSM   H18U17579   5.325   0.110   4.762  0.6239  1.7473  0.1524
  157OSM    C1F17580   5.262   0.244   3.085  0.6158 -0.4308  0.3551
  157OSM     OF17581   5.377   0.252   3.040 -0.4383  0.5457 -0.1830
  157OSM    C2F17582   5.202   0.113   3.131 -1.1502 -0.4885  0.4955
  157OSM    H2F17583   5.240   0.032   3.064 -0.8911 -2.1427  2.5358
  157OSM    H2G17584   5.092   0.125   3.131 -0.9498  1.6401  0.2351
  157OSM    C3F17585   5.248   0.074   3.280  0.3402 -0.0663  0.5276
  157OSM    H3F17586   5.358   0.061   3.278  0.3788  0.1169  1.1608
  157OSM    H3G17587   5.191  -0.018   3.306 -0.6172  0.1291 -0.7562
  157OSM    C4F17588   5.209   0.186   3.377  0.9555 -0.4705 -0.4311
  157OSM    H4F17589   5.100   0.199   3.360  1.1378  1.2140 -0.5263
  157OSM    H4G17590   5.261   0.280   3.350 -0.0629  0.2110 -0.0881
  157OSM    C5F17591   5.240   0.142   3.520  0.1829 -0.3946 -0.7909
  157OSM    H5F17592   5.213   0.036   3.534 -2.0753  0.3833  1.4901
  157OSM    H5G17593   5.168   0.197   3.585  2.9795 -0.2090  2.4120
  157OSM    C6F17594   5.378   0.170   3.577 -0.3027  0.8850  0.0915
  157OSM    H6F17595   5.387   0.271   3.623  1.0495  0.5690  0.5877
  157OSM    H6G17596   5.450   0.161   3.492 -2.0760 -1.1895 -1.2919
  157OSM    C7F17597   5.418   0.063   3.681  0.4739  0.0580 -0.8228
  157OSM    H7F17598   5.435  -0.037   3.635  0.1487 -0.0465 -0.7218
  157OSM    H7G17599   5.332   0.055   3.751 -0.5421  2.0800 -1.7632
  157OSM    C8F17600   5.551   0.097   3.760 -0.3307  0.0163 -0.0525
  157OSM    H8F17601   5.535   0.203   3.789 -0.3217  0.2306 -0.7991
  157OSM    H8G17602   5.648   0.096   3.705  0.9653 -0.2326  2.1433
  157OSM    C9F17603   5.571   0.001   3.881 -0.5778  0.1853 -0.7607
  157OSM    H9F17604   5.652  -0.070   3.860 -0.2079  0.3468  0.0754
  157OSM   C10F17605   5.524   0.011   4.008  0.4714  0.6287  0.6450
  157OSM   H10F17606   5.554  -0.080   4.061  0.0351 -1.6463 -2.7042
  157OSM   C11F17607   5.430   0.107   4.075 -0.0768 -0.9756  0.3339
  157OSM   H11F17608   5.366   0.170   4.011  0.3554  0.9162  1.6667
  157OSM   H11G17609   5.488   0.180   4.136 -2.0661 -0.4303  1.6552
  157OSM   C12F17610   5.332   0.042   4.174 -0.1497  0.1572  0.4144
  157OSM   H12F17611   5.265   0.122   4.213 -0.9686 -0.2024 -0.2227
  157OSM   H12G17612   5.397   0.009   4.258  0.9316 -0.1322 -0.5233
  157OSM   C13F17613   5.270  -0.083   4.117 -0.1194 -0.2307 -0.7349
  157OSM   H13F17614   5.349  -0.144   4.069  2.6026  0.9385  1.9188
  157OSM   H13G17615   5.188  -0.059   4.046 -0.9508 -0.0933  0.2530
  157OSM   C14F17616   5.214  -0.170   4.236  0.6145 -0.0185 -0.2336
  157OSM   H14F17617   5.311  -0.189   4.285 -0.1555  0.3503  1.5192
  157OSM   H14G17618   5.175  -0.266   4.196 -0.3553 -0.0363  0.7149
  157OSM   C15F17619   5.120  -0.093   4.340 -0.5278 -0.8044 -0.3604
  157OSM   H15F17620   5.017  -0.099   4.299 -0.0806 -1.6083 -1.4324
  157OSM   H15G17621   5.153   0.011   4.358 -0.3959 -1.2346  2.1599
  157OSM   C16F17622   5.120  -0.166   4.476  0.4538 -0.2549  0.2717
  157OSM   H16F17623   5.050  -0.105   4.538 -0.2579  4.2722 -4.3151
  157OSM   H16G17624   5.219  -0.137   4.517 -0.4269  0.4375  2.0589
  157OSM   C17F17625   5.080  -0.315   4.493 -0.3560 -0.3967  0.5071
  157OSM   H17F17626   5.081  -0.342   4.601 -0.9439  2.4299  1.2986
  157OSM   H17G17627   5.153  -0.384   4.446 -1.4966 -0.6241 -1.0007
  157OSM   C18F17628   4.938  -0.345   4.434 -0.6999  0.6039 -0.3462
  157OSM   H18F17629   4.854  -0.293   4.484 -0.4757  0.3974  0.2569
  157OSM   H18G17630   4.912  -0.450   4.412  1.1443 -0.0251  0.3023
  157OSM   H18H17631   4.945  -0.308   4.329  0.5860  3.0801  0.5149
  158OSM      N17632   2.738   0.293   2.522 -0.0645 -0.1818  0.4035
  158OSM    C1517633   2.731   0.362   2.388 -0.0891  0.3154 -0.4488
  158OSM   H15A17634   2.779   0.305   2.310 -1.1729 -0.1480 -0.8084
  158OSM   H15B17635   2.777   0.459   2.380  0.3905 -0.0374 -2.3355
  158OSM   H15C17636   2.627   0.370   2.360  0.4544  2.4146 -2.0566
  158OSM    C1417637   2.881   0.284   2.568  0.7497 -0.1509  0.2901
  158OSM   H14A17638   2.919   0.385   2.569  0.8489 -0.1865  1.4826
  158OSM   H14B17639   2.940   0.234   2.493  0.1720  0.6161 -0.7052
  158OSM   H14C17640   2.895   0.240   2.665 -0.4834  1.3152  1.1845
  158OSM    C1317641   2.668   0.377   2.625 -0.7197 -0.7139  0.0259
  158OSM   H13A17642   2.561   0.361   2.616 -0.4994 -2.5912  0.2470
  158OSM   H13B17643   2.683   0.481   2.602  1.7978 -0.6520  1.6283
  158OSM   H13C17644   2.696   0.360   2.727  1.9125  0.6708 -0.3962
  158OSM    C1217645   2.671   0.153   2.513  0.9255 -0.1244 -0.1326
  158OSM   H12A17646   2.681   0.090   2.601 -0.3537 -0.2429 -0.0518
  158OSM   H12B17647   2.713   0.106   2.426 -2.5214 -0.9337 -1.5265
  158OSM    C1117648   2.518   0.144   2.477 -0.6080  0.3959  0.2324
  158OSM   H11A17649   2.503   0.034   2.472 -0.2451  0.4002 -1.8726
  158OSM   H11B17650   2.486   0.176   2.376 -1.2199  0.0279  0.3076
  158OSM      P17651   2.382   0.122   2.706 -0.3473 -0.1606  0.0407
  158OSM    O1317652   2.370   0.221   2.813 -0.2084 -0.3532  0.3990
  158OSM    O1417653   2.258   0.058   2.660  0.3923  0.2186 -0.3245
  158OSM    O1117654   2.497   0.014   2.750  0.0253  0.0216 -0.2200
  158OSM    O1217655   2.440   0.201   2.580  0.4001  0.2675  0.2309
  158OSM    C1S17656   2.566   0.040   2.876 -0.5349  0.0851  0.1835
  158OSM    H1S17657   2.496   0.062   2.959 -1.1224 -0.6036 -0.1264
  158OSM    H1T17658   2.630   0.130   2.860 -1.4052  0.2352 -3.4124
  158OSM     NF17659   2.725  -0.057   3.034  0.2972 -0.3413  0.0555
  158OSM    HNF17660   2.817  -0.019   3.043 -0.1957  0.5409  1.7764
  158OSM    C2S17661   2.669  -0.072   2.903 -0.3808 -0.4039  0.2752
  158OSM    H2S17662   2.622  -0.173   2.902  2.1690 -1.6733  0.8729
  158OSM    C3S17663   2.774  -0.079   2.790 -0.6663  0.0466 -0.1039
  158OSM    H3S17664   2.823   0.020   2.778 -1.0749 -0.0583 -3.7567
  158OSM     O317665   2.708  -0.108   2.670 -0.3164  0.2120  0.7532
  158OSM    HO317666   2.620  -0.076   2.692  0.6061  4.3630 -0.6637
  158OSM    C4S17667   2.890  -0.178   2.818  0.5095  0.0939 -0.8334
  158OSM    H4S17668   2.972  -0.130   2.874 -0.0328 -0.4809  0.4937
  158OSM    C5S17669   2.887  -0.316   2.800  0.2137  0.5354  0.0597
  158OSM    H5S17670   2.796  -0.364   2.760  0.7473 -2.4363  2.0624
  158OSM    C6S17671   3.006  -0.404   2.844 -0.1472 -0.1374  0.0710
  158OSM    H6S17672   3.102  -0.350   2.834  0.4040 -0.9816  0.7633
  158OSM    H6T17673   3.020  -0.495   2.781 -1.4622  0.6604 -1.4770
  158OSM    C7S17674   2.978  -0.450   2.987 -0.3310 -0.5679 -0.1914
  158OSM    H7S17675   2.894  -0.522   2.982  0.1716 -1.1569 -0.1876
  158OSM    H7T17676   2.939  -0.362   3.043  0.3188  0.8580 -1.8556
  158OSM    C8S17677   3.100  -0.503   3.060 -0.1269 -0.0966 -0.0585
  158OSM    H8S17678   3.172  -0.424   3.090 -0.3261 -0.8494  2.6822
  158OSM    H8T17679   3.161  -0.570   2.996  0.9578  0.1996  0.6446
  158OSM    C9S17680   3.067  -0.594   3.184  1.1208 -0.5606  0.8967
  158OSM    H9S17681   3.166  -0.631   3.218  2.4834  1.6215 -0.4432
  158OSM    H9T17682   2.998  -0.673   3.148 -0.1145  0.1478  1.6442
  158OSM   C10S17683   2.998  -0.507   3.299 -0.0460 -0.1353  0.2877
  158OSM   H10S17684   2.946  -0.423   3.248  0.1871  0.7901  1.5385
  158OSM   H10T17685   3.085  -0.459   3.349  0.8117 -1.2863 -0.0585
  158OSM   C11S17686   2.901  -0.567   3.400  0.1628 -0.2393 -0.4038
  158OSM   H11S17687   2.918  -0.677   3.408  2.0354  0.0431  0.0709
  158OSM   H11T17688   2.802  -0.548   3.353  0.4927  0.7278 -0.7389
  158OSM   C12S17689   2.916  -0.503   3.534  0.0887 -0.7825  0.0010
  158OSM   H12S17690   2.823  -0.510   3.595  0.4452 -0.9061  0.5394
  158OSM   H12T17691   2.935  -0.395   3.512 -0.9859 -0.0866  2.2232
  158OSM   C13S17692   3.036  -0.558   3.619  0.7990  0.0940 -0.1430
  158OSM   H13S17693   3.135  -0.543   3.570  1.5468  0.1908  1.3461
  158OSM   H13T17694   3.034  -0.664   3.651 -1.0014 -0.4601 -1.9207
  158OSM   C14S17695   3.045  -0.476   3.749  0.4968  0.3248  0.0920
  158OSM   H14S17696   2.953  -0.488   3.809  0.5877 -2.8215 -0.2659
  158OSM   H14T17697   3.061  -0.368   3.726 -3.0355  1.4071  2.0681
  158OSM   C15S17698   3.169  -0.517   3.833 -0.2703  0.1248 -0.0651
  158OSM   H15S17699   3.249  -0.538   3.759 -1.3076  0.4579 -1.3092
  158OSM   H15T17700   3.144  -0.617   3.876 -2.1429  1.2991  1.7449
  158OSM   C16S17701   3.221  -0.412   3.939  0.0804  0.4748 -0.0101
  158OSM   H16S17702   3.143  -0.375   4.008  0.8191  1.5283  0.2747
  158OSM   H16T17703   3.246  -0.331   3.868 -0.4103 -0.6210 -1.4965
  158OSM   C17S17704   3.341  -0.471   4.011 -0.1061 -0.3197 -0.1388
  158OSM   H17S17705   3.402  -0.507   3.925  0.4108 -1.5413  0.7042
  158OSM   H17T17706   3.306  -0.556   4.074 -0.5822 -0.7852 -1.0141
  158OSM   C18S17707   3.401  -0.366   4.107 -0.5472  0.5310  0.3146
  158OSM   H18S17708   3.479  -0.415   4.169 -1.8130 -3.1457 -0.7468
  158OSM   H18T17709   3.323  -0.347   4.183 -0.8389 -1.9928  0.7155
  158OSM   H18U17710   3.442  -0.273   4.061  1.0521 -0.2212  0.1577
  158OSM    C1F17711   2.657  -0.072   3.151  0.5254  0.8206 -0.1032
  158OSM     OF17712   2.536  -0.108   3.155  0.0620 -0.1812  0.2995
  158OSM    C2F17713   2.729  -0.042   3.277 -0.2834  0.2579  0.0833
  158OSM    H2F17714   2.691   0.052   3.322 -1.2213  1.0479 -2.2207
  158OSM    H2G17715   2.838  -0.029   3.259 -0.2691 -1.0432 -0.9370
  158OSM    C3F17716   2.707  -0.154   3.381  0.1219  0.2678  0.0410
  158OSM    H3F17717   2.768  -0.243   3.358  1.4947  0.8844  1.1705
  158OSM    H3G17718   2.602  -0.191   3.389  0.2663 -0.0913  0.2605
  158OSM    C4F17719   2.733  -0.109   3.530 -0.6359 -0.4697  0.2954
  158OSM    H4F17720   2.677  -0.015   3.549 -0.2131 -0.0384 -0.5427
  158OSM    H4G17721   2.839  -0.077   3.533 -0.3969 -1.1421 -0.7688
  158OSM    C5F17722   2.682  -0.212   3.633 -0.2167 -0.1735  0.0257
  158OSM    H5F17723   2.699  -0.315   3.593  1.6693  0.5269 -1.1133
  158OSM    H5G17724   2.574  -0.200   3.655  0.0614  1.5826  0.5375
  158OSM    C6F17725   2.750  -0.196   3.771 -0.6306  0.3455 -0.1735
  158OSM    H6F17726   2.755  -0.085   3.782 -0.0169  0.3473 -0.4110
  158OSM    H6G17727   2.854  -0.232   3.760 -1.0962 -0.2978 -3.3554
  158OSM    C7F17728   2.681  -0.260   3.899  0.2944 -0.2891 -0.2810
  158OSM    H7F17729   2.703  -0.368   3.881  1.6311  0.2636 -2.3263
  158OSM    H7G17730   2.573  -0.235   3.892  0.5744  1.1187  0.1968
  158OSM    C8F17731   2.746  -0.196   4.021  0.1238  0.5019 -0.8081
  158OSM    H8F17732   2.724  -0.088   4.031 -1.3240  0.4694 -3.0805
  158OSM    H8G17733   2.856  -0.205   4.006  0.0555 -2.5586 -0.1670
  158OSM    C9F17734   2.711  -0.278   4.147  0.8008 -0.0018  0.6552
  158OSM    H9F17735   2.722  -0.387   4.138  1.5572  0.2048 -1.3213
  158OSM   C10F17736   2.643  -0.222   4.249  0.0592 -0.0416 -0.3676
  158OSM   H10F17737   2.613  -0.282   4.335 -0.2897 -0.2704 -0.6449
  158OSM   C11F17738   2.611  -0.069   4.278 -0.0801  0.5804 -0.0115
  158OSM   H11F17739   2.502  -0.063   4.300 -0.0156 -0.0466  0.5093
  158OSM   H11G17740   2.633   0.003   4.197 -1.6100  2.8534  1.4551
  158OSM   C12F17741   2.686  -0.016   4.403  0.7363 -0.4539  0.2632
  158OSM   H12F17742   2.647   0.085   4.428 -0.9918 -1.0557  0.0850
  158OSM   H12G17743   2.785   0.024   4.373  0.9501 -0.8499  0.4381
  158OSM   C13F17744   2.715  -0.114   4.511  0.5117 -0.1304  0.0159
  158OSM   H13F17745   2.774  -0.201   4.474 -0.5062 -1.2449  0.9316
  158OSM   H13G17746   2.621  -0.143   4.563  0.2656 -2.4953 -1.5696
  158OSM   C14F17747   2.807  -0.065   4.622 -0.4779  1.0305  0.4929
  158OSM   H14F17748   2.751   0.005   4.688 -0.6233  1.4548 -0.0700
  158OSM   H14G17749   2.893  -0.013   4.576 -0.2220  0.6417  0.5306
  158OSM   C15F17750   2.846  -0.186   4.716 -0.4647 -0.3771 -0.5607
  158OSM   H15F17751   2.909  -0.262   4.666  2.4469  1.0926  0.6339
  158OSM   H15G17752   2.746  -0.230   4.736 -0.3244 -0.8068 -0.7969
  158OSM   C16F17753   2.912  -0.137   4.854 -0.4430 -0.0352  0.1522
  158OSM   H16F17754   2.831  -0.079   4.904 -0.3779  2.0670 -2.0126
  158OSM   H16G17755   3.000  -0.075   4.827 -0.3702  0.2944  1.1041
  158OSM   C17F17756   2.962  -0.244   4.937 -0.1561  0.1390 -0.0758
  158OSM   H17F17757   3.035  -0.306   4.881 -2.7591 -0.0006 -3.6813
  158OSM   H17G17758   2.871  -0.305   4.953 -0.5597  1.0504  1.2196
  158OSM   C18F17759   3.017  -0.210   5.078  0.8942  0.3871  0.3671
  158OSM   H18F17760   3.033  -0.303   5.137  1.2186  0.7435  0.8531
  158OSM   H18G17761   2.943  -0.153   5.138 -0.7762 -0.4832 -0.7821
  158OSM   H18H17762   3.107  -0.145   5.071  1.0055  0.0783 -1.9317
  159OSM      N17763   5.257   0.035   2.578  0.7781 -0.2495  0.2807
  159OSM    C1517764   5.262  -0.078   2.678  0.6032 -0.2034  0.2210
  159OSM   H15A17765   5.349  -0.063   2.740  1.8994  0.0006 -1.5768
  159OSM   H15B17766   5.271  -0.175   2.630 -4.1866 -0.9010  0.2706
  159OSM   H15C17767   5.164  -0.080   2.723  0.3747  0.0216 -0.2630
  159OSM    C1417768   5.387   0.040   2.513 -0.3560  0.3707  0.6049
  159OSM   H14A17769   5.471   0.044   2.582  0.7189 -1.3060 -0.5538
  159OSM   H14B17770   5.383   0.127   2.449 -0.7253 -1.1481 -1.4851
  159OSM   H14C17771   5.400  -0.049   2.455 -1.2163  0.7499 -0.1753
  159OSM    C1317772   5.150   0.008   2.480  0.6759  0.5889  0.0160
  159OSM   H13A17773   5.152   0.088   2.407  4.0055  1.7039  1.1289
  159OSM   H13B17774   5.051   0.000   2.524  0.6496  2.7125  0.4642
  159OSM   H13C17775   5.173  -0.086   2.433 -0.4321  0.6485 -0.6826
  159OSM    C1217776   5.242   0.164   2.652  0.2055  0.6019 -0.0166
  159OSM   H12A17777   5.253   0.248   2.585  2.1736  1.5596  1.4068
  159OSM   H12B17778   5.323   0.169   2.724  1.6451 -0.0498 -1.5359
  159OSM    C1117779   5.114   0.184   2.730  0.7181 -0.7941 -0.6324
  159OSM   H11A17780   5.137   0.269   2.798  0.2829 -0.8584 -0.4009
  159OSM   H11B17781   5.098   0.096   2.797 -3.0555  0.6647  0.6313
  159OSM      P17782   4.929   0.337   2.627 -0.4639 -0.1980  0.0350
  159OSM    O1317783   5.008   0.415   2.535 -0.6945 -0.0843  0.5361
  159OSM    O1417784   4.786   0.314   2.597 -0.2762 -0.1222  0.3010
  159OSM    O1117785   4.947   0.415   2.769 -0.0974 -0.1253  0.5885
  159OSM    O1217786   4.999   0.199   2.647 -0.0179  0.5247 -0.1808
  159OSM    C1S17787   4.867   0.358   2.879  0.2222  0.5909 -0.5249
  159OSM    H1S17788   4.947   0.312   2.941 -2.1136 -1.9845  0.7827
  159OSM    H1T17789   4.785   0.287   2.856 -0.0971  0.9114 -0.3877
  159OSM     NF17790   4.745   0.401   3.097  0.0323  0.0948  0.4608
  159OSM    HNF17791   4.646   0.401   3.092 -0.0605 -1.4684  1.5822
  159OSM    C2S17792   4.811   0.468   2.983  0.3033 -0.0041 -0.2597
  159OSM    H2S17793   4.889   0.535   3.025 -0.0105 -0.0175  0.3603
  159OSM    C3S17794   4.714   0.572   2.916  0.0134  0.4867 -0.7051
  159OSM    H3S17795   4.624   0.527   2.869 -1.4965  2.2012  0.3849
  159OSM     O317796   4.770   0.639   2.803  0.2709  0.1565  0.2835
  159OSM    HO317797   4.839   0.582   2.768 -1.4925 -0.0258 -3.3623
  159OSM    C4S17798   4.667   0.669   3.025  0.2677 -0.0651  0.5418
  159OSM    H4S17799   4.571   0.636   3.067 -0.2716 -0.6897 -1.0999
  159OSM    C5S17800   4.722   0.786   3.067  0.4039 -0.2638 -0.6227
  159OSM    H5S17801   4.817   0.818   3.024  0.5783 -1.6781 -1.3347
  159OSM    C6S17802   4.653   0.869   3.172  0.5743 -0.8462 -0.5057
  159OSM    H6S17803   4.566   0.817   3.217  1.6648 -0.4813  2.1800
  159OSM    H6T17804   4.613   0.957   3.116  0.0747 -0.6811  0.1028
  159OSM    C7S17805   4.747   0.909   3.285 -0.2945  0.0727  0.3116
  159OSM    H7S17806   4.685   0.983   3.340  0.0613  2.8332 -2.7210
  159OSM    H7T17807   4.835   0.963   3.244  2.3409 -4.5039 -0.8032
  159OSM    C8S17808   4.809   0.785   3.366  0.5202 -0.3925  0.3754
  159OSM    H8S17809   4.872   0.719   3.303  2.1758 -0.9059  2.4737
  159OSM    H8T17810   4.729   0.720   3.408  2.2830 -2.9870 -0.0413
  159OSM    C9S17811   4.901   0.841   3.469  0.1436  0.2636  0.4921
  159OSM    H9S17812   4.980   0.906   3.425  0.8220  0.6362  2.1825
  159OSM    H9T17813   4.940   0.755   3.528 -1.5477 -1.5597 -0.8929
  159OSM   C10S17814   4.836   0.923   3.570 -0.0542 -0.4585 -0.8019
  159OSM   H10S17815   4.765   0.854   3.620 -0.3873 -0.4104 -1.1998
  159OSM   H10T17816   4.775   0.998   3.514 -0.6523 -0.6785 -0.4496
  159OSM   C11S17817   4.927   0.992   3.670  0.1075  0.0498  0.1973
  159OSM   H11S17818   4.863   1.068   3.720  2.1977  1.6263  0.6116
  159OSM   H11T17819   5.005   1.064   3.637  0.4983  0.6520  2.2841
  159OSM   C12S17820   4.996   0.893   3.776  0.2328 -0.1448 -0.5080
  159OSM   H12S17821   5.078   0.836   3.730  0.0992 -0.1901 -0.6903
  159OSM   H12T17822   4.911   0.828   3.807  0.2861  0.1648  0.3308
  159OSM   C13S17823   5.047   0.947   3.907  0.2950  0.8227 -0.5137
  159OSM   H13S17824   5.110   0.875   3.964  2.5930  2.6139 -0.6578
  159OSM   H13T17825   4.970   0.988   3.977  0.7534  1.5879 -0.4412
  159OSM   C14S17826   5.159   1.047   3.868 -0.2336  0.0001 -0.4841
  159OSM   H14S17827   5.111   1.137   3.825 -2.6993 -0.6206  0.7652
  159OSM   H14T17828   5.227   0.987   3.804 -0.6793 -0.7298 -0.2818
  159OSM   C15S17829   5.244   1.084   3.986  0.3563  0.6100 -0.1186
  159OSM   H15S17830   5.347   1.116   3.958  1.8454 -3.5001  0.0705
  159OSM   H15T17831   5.263   0.992   4.045  0.1572  0.5350 -0.1728
  159OSM   C16S17832   5.177   1.194   4.078 -0.1756  0.1015  0.9537
  159OSM   H16S17833   5.089   1.148   4.127 -0.0046  0.1098  1.2705
  159OSM   H16T17834   5.143   1.275   4.009 -1.6887 -1.3054 -0.0087
  159OSM   C17S17835   5.275   1.242   4.182 -0.4035 -0.2920  0.1279
  159OSM   H17S17836   5.260   1.349   4.208 -0.8881 -0.6023  1.1769
  159OSM   H17T17837   5.379   1.225   4.147 -0.3862  0.8442 -0.4305
  159OSM   C18S17838   5.280   1.155   4.307  0.0238 -0.3337 -0.6638
  159OSM   H18S17839   5.243   1.052   4.285 -2.0949  0.0995  0.6011
  159OSM   H18T17840   5.217   1.199   4.387 -0.1922  1.3822 -1.7172
  159OSM   H18U17841   5.379   1.134   4.354  0.7214 -4.1172 -3.2906
  159OSM    C1F17842   4.821   0.326   3.182 -0.5356  0.5068  0.3889
  159OSM     OF17843   4.939   0.341   3.186  0.3138 -0.3428  0.5765
  159OSM    C2F17844   4.747   0.220   3.255 -0.0834  0.3379  0.0519
  159OSM    H2F17845   4.827   0.160   3.304  1.3625 -0.1821 -2.6995
  159OSM    H2G17846   4.697   0.155   3.179  0.7529 -1.1622  0.7362
  159OSM    C3F17847   4.635   0.275   3.351  0.1677 -0.2157 -0.6467
  159OSM    H3F17848   4.593   0.186   3.403  1.6383 -0.3482  0.4000
  159OSM    H3G17849   4.552   0.313   3.287 -0.6275 -0.8230 -0.0027
  159OSM    C4F17850   4.686   0.375   3.453  0.1925 -0.0652 -1.0720
  159OSM    H4F17851   4.676   0.481   3.421 -1.2127  0.0925 -0.2068
  159OSM    H4G17852   4.788   0.362   3.493 -0.2049  0.7901  0.2878
  159OSM    C5F17853   4.623   0.351   3.599  0.4626 -0.4855 -0.8330
  159OSM    H5F17854   4.637   0.249   3.642 -3.1905 -0.7841 -0.0592
  159OSM    H5G17855   4.513   0.355   3.591  0.4055  1.2978  0.3988
  159OSM    C6F17856   4.681   0.454   3.702  0.1557 -0.1419 -0.0686
  159OSM    H6F17857   4.667   0.556   3.659  0.0997 -0.5838 -1.1376
  159OSM    H6G17858   4.791   0.441   3.708  0.1220  0.1631  2.4995
  159OSM    C7F17859   4.640   0.433   3.847 -0.2479 -0.2579 -0.1485
  159OSM    H7F17860   4.663   0.328   3.875  3.1122  0.3150 -0.2919
  159OSM    H7G17861   4.534   0.463   3.858 -0.1703  1.0969 -2.4215
  159OSM    C8F17862   4.728   0.525   3.938  0.2762  0.3751  0.4693
  159OSM    H8F17863   4.738   0.625   3.891 -0.5628  1.6332  2.7994
  159OSM    H8G17864   4.833   0.490   3.950 -0.0684 -0.7662  0.2829
  159OSM    C9F17865   4.672   0.524   4.078  0.6117  0.1864  0.1079
  159OSM    H9F17866   4.619   0.433   4.111  1.8440 -0.5707  0.0560
  159OSM   C10F17867   4.699   0.623   4.162 -0.4301  0.2565  0.0712
  159OSM   H10F17868   4.647   0.623   4.259 -0.7092  0.8961 -0.0738
  159OSM   C11F17869   4.771   0.749   4.133 -0.2125  0.0107 -0.2508
  159OSM   H11F17870   4.696   0.807   4.075 -1.1623 -1.0948 -0.1531
  159OSM   H11G17871   4.848   0.738   4.055 -1.3954  1.4170 -1.6987
  159OSM   C12F17872   4.816   0.843   4.248 -0.0626 -0.0084 -0.2965
  159OSM   H12F17873   4.728   0.864   4.312  0.4524 -0.0026  0.4214
  159OSM   H12G17874   4.858   0.941   4.216 -0.7756 -0.0892 -1.5631
  159OSM   C13F17875   4.919   0.780   4.343 -0.1860  0.5792 -0.4049
  159OSM   H13F17876   5.006   0.736   4.290  0.5110 -1.3635  2.1005
  159OSM   H13G17877   4.865   0.696   4.391  1.9220 -1.2056 -0.9886
  159OSM   C14F17878   4.954   0.876   4.462 -0.1220  0.7585  0.4918
  159OSM   H14F17879   4.868   0.914   4.522 -2.5425 -2.5417 -0.5627
  159OSM   H14G17880   4.995   0.968   4.415  1.6811 -0.0515  0.4280
  159OSM   C15F17881   5.062   0.817   4.556  0.5966 -0.8957  0.5165
  159OSM   H15F17882   5.146   0.791   4.487  1.3831  0.0841  1.0748
  159OSM   H15G17883   5.027   0.725   4.607  1.2426 -1.0995  0.6036
  159OSM   C16F17884   5.121   0.916   4.652  0.5868  0.0423  0.5427
  159OSM   H16F17885   5.043   0.980   4.699  0.3116 -1.6327  2.5220
  159OSM   H16G17886   5.186   0.977   4.586 -2.0500  0.3753 -1.9793
  159OSM   C17F17887   5.200   0.855   4.769  0.1928  0.3376 -0.5796
  159OSM   H17F17888   5.299   0.820   4.732  0.8673  0.9761  0.6036
  159OSM   H17G17889   5.146   0.769   4.815  1.4790 -0.8336 -1.1790
  159OSM   C18F17890   5.245   0.957   4.869  0.6437  0.3662  0.4255
  159OSM   H18F17891   5.325   1.024   4.831  1.1676 -0.7494 -0.5313
  159OSM   H18G17892   5.273   0.910   4.966 -0.9827  0.2605  0.8674
  159OSM   H18H17893   5.160   1.019   4.904 -0.4163 -0.5870 -0.3655
  160OSM      N17894   2.246   1.979   2.200 -0.2651  0.1963 -0.0915
  160OSM    C1517895   2.184   1.921   2.073  0.2882 -0.3059  0.0181
  160OSM   H15A17896   2.091   1.868   2.088 -1.0348  1.3503 -1.8830
  160OSM   H15B17897   2.241   1.859   2.005  0.6022 -2.1743  1.8557
  160OSM   H15C17898   2.143   2.004   2.019  0.2669  0.1531  0.7259
  160OSM    C1417899   2.174   2.107   2.229 -0.2539 -0.4080  0.0949
  160OSM   H14A17900   2.070   2.102   2.259 -0.3701 -1.8633 -0.4954
  160OSM   H14B17901   2.177   2.175   2.146  1.9135 -0.4776  0.0796
  160OSM   H14C17902   2.223   2.148   2.316 -1.2824 -0.5019  0.7454
  160OSM    C1317903   2.205   1.878   2.306  0.4200 -0.5688 -0.0798
  160OSM   H13A17904   2.245   1.781   2.279  0.8363 -0.2076 -0.7903
  160OSM   H13B17905   2.097   1.877   2.313  0.4482 -0.0750  0.4531
  160OSM   H13C17906   2.246   1.907   2.402  2.3006  1.6056 -1.4495
  160OSM    C1217907   2.395   1.999   2.190  0.2128  0.1553  0.4044
  160OSM   H12A17908   2.419   2.039   2.093 -1.1734 -2.3260 -1.0545
  160OSM   H12B17909   2.440   1.901   2.203 -3.2623 -1.6206  0.1041
  160OSM    C1117910   2.460   2.087   2.290 -0.2662 -0.8698 -0.8970
  160OSM   H11A17911   2.444   2.192   2.257 -1.9258 -1.2592 -1.4506
  160OSM   H11B17912   2.570   2.071   2.282  0.0145 -1.5429  2.7260
  160OSM      P17913   2.432   2.190   2.532  0.2393 -0.1451  0.3486
  160OSM    O1317914   2.569   2.237   2.524 -0.5271  0.0146  0.4370
  160OSM    O1417915   2.336   2.299   2.501 -0.0942  0.1494 -0.1706
  160OSM    O1117916   2.414   2.123   2.682 -0.2147 -0.4336  0.5192
  160OSM    O1217917   2.414   2.063   2.428  0.3709 -0.2335  0.1078
  160OSM    C1S17918   2.370   2.221   2.782 -0.1089 -0.3003 -0.6388
  160OSM    H1S17919   2.259   2.217   2.796 -0.3009  1.3016 -1.4323
  160OSM    H1T17920   2.401   2.324   2.752 -0.5569  0.3103  0.8967
  160OSM     NF17921   2.357   2.266   3.034  0.5194 -0.0646  0.1076
  160OSM    HNF17922   2.385   2.350   3.080  1.5926  0.2854 -1.1178
  160OSM    C2S17923   2.436   2.210   2.925 -0.7088  0.0287  0.2668
  160OSM    H2S17924   2.436   2.104   2.959 -2.9660 -0.0254  0.2197
  160OSM    C3S17925   2.588   2.257   2.918  0.1655  0.4993 -0.4935
  160OSM    H3S17926   2.592   2.367   2.911  0.1855  0.4519 -1.4546
  160OSM     O317927   2.652   2.212   2.800 -0.1163 -0.0846 -0.0291
  160OSM    HO317928   2.580   2.178   2.746  1.3166 -0.3651 -1.8829
  160OSM    C4S17929   2.678   2.231   3.035 -0.1722 -0.3162  0.0058
  160OSM    H4S17930   2.705   2.325   3.086  1.1414 -0.2799 -0.6973
  160OSM    C5S17931   2.706   2.110   3.073 -0.0387 -0.0545  0.0219
  160OSM    H5S17932   2.658   2.024   3.022 -2.7072  1.5469 -0.3736
  160OSM    C6S17933   2.804   2.076   3.190 -0.0425  0.1526 -0.2083
  160OSM    H6S17934   2.906   2.060   3.149  0.3463  0.5721  0.5702
  160OSM    H6T17935   2.765   1.977   3.222 -1.3258  0.5974 -0.3333
  160OSM    C7S17936   2.812   2.177   3.306 -0.0807 -0.1984  0.5145
  160OSM    H7S17937   2.711   2.202   3.343 -0.1514  2.0671 -1.0382
  160OSM    H7T17938   2.857   2.268   3.260  0.7554 -0.7469  0.2138
  160OSM    C8S17939   2.902   2.140   3.424 -0.4516  0.3806 -0.1965
  160OSM    H8S17940   3.011   2.132   3.405 -0.3727  0.3087  0.2567
  160OSM    H8T17941   2.861   2.049   3.473  0.0153  1.3971  2.2497
  160OSM    C9S17942   2.885   2.248   3.541 -0.8156  0.5003 -0.1944
  160OSM    H9S17943   2.783   2.242   3.587 -1.0025  1.3356 -0.4750
  160OSM    H9T17944   2.905   2.340   3.482 -0.5952 -0.3439 -1.4656
  160OSM   C10S17945   2.992   2.218   3.649  0.0785 -0.9907 -0.2525
  160OSM   H10S17946   3.094   2.215   3.606  0.0923  0.7335 -0.4007
  160OSM   H10T17947   2.973   2.113   3.681  1.0905 -1.0221  0.2531
  160OSM   C11S17948   2.992   2.316   3.764  0.0654  0.0824 -0.1240
  160OSM   H11S17949   2.884   2.330   3.787  0.3213  3.5937 -0.4778
  160OSM   H11T17950   3.026   2.414   3.724  0.9005  0.0866  0.5758
  160OSM   C12S17951   3.075   2.277   3.881 -0.3565 -0.1009 -1.4990
  160OSM   H12S17952   3.184   2.269   3.862  0.0797  1.8712 -0.1477
  160OSM   H12T17953   3.042   2.173   3.903 -0.4704  0.0897 -0.7222
  160OSM   C13S17954   3.064   2.381   3.994  0.2484  0.1150  0.6206
  160OSM   H13S17955   3.067   2.485   3.955 -0.0936  0.3224  1.1504
  160OSM   H13T17956   3.148   2.376   4.066  1.3063 -0.4750 -0.6018
  160OSM   C14S17957   2.940   2.365   4.089  0.1586  0.5003  0.1552
  160OSM   H14S17958   2.964   2.280   4.156  1.2987  1.6425  1.2497
  160OSM   H14T17959   2.852   2.355   4.021  0.1990  0.6678  0.0792
  160OSM   C15S17960   2.909   2.466   4.195  0.4685  0.3039 -0.1021
  160OSM   H15S17961   2.813   2.434   4.241 -0.0059 -0.2201 -1.4151
  160OSM   H15T17962   2.894   2.560   4.138  0.1668 -0.7053 -1.7293
  160OSM   C16S17963   3.018   2.474   4.294  0.0252 -0.2190 -0.1079
  160OSM   H16S17964   3.109   2.495   4.234 -0.2175  0.0329 -0.3852
  160OSM   H16T17965   3.055   2.385   4.350 -0.4576  0.0120  0.5916
  160OSM   C17S17966   2.987   2.580   4.399  0.0904  0.5380 -0.4465
  160OSM   H17S17967   2.929   2.658   4.345  0.6023  0.0013 -1.8337
  160OSM   H17T17968   3.085   2.623   4.430  0.8399 -0.5865 -1.1804
  160OSM   C18S17969   2.909   2.523   4.522 -0.6612  0.4608  1.1308
  160OSM   H18S17970   2.898   2.608   4.592  1.4590  2.2248 -0.5135
  160OSM   H18T17971   2.984   2.453   4.567  2.1471  1.6207 -1.4006
  160OSM   H18U17972   2.821   2.466   4.486  1.8481 -1.7044 -2.1516
  160OSM    C1F17973   2.247   2.196   3.079 -0.5115  0.4431 -0.0402
  160OSM     OF17974   2.204   2.098   3.021 -0.1983 -0.2851  0.0015
  160OSM    C2F17975   2.170   2.249   3.192 -0.0758  0.3078 -0.1613
  160OSM    H2F17976   2.061   2.237   3.174 -0.3488  1.2424  0.8044
  160OSM    H2G17977   2.198   2.356   3.199 -1.5140  0.8120 -1.5150
  160OSM    C3F17978   2.203   2.167   3.318  0.4642 -0.4827  0.2674
  160OSM    H3F17979   2.309   2.185   3.346  0.1839  0.4704  0.7800
  160OSM    H3G17980   2.174   2.063   3.295 -2.6928  0.5555 -1.0013
  160OSM    C4F17981   2.106   2.203   3.430 -0.7604  0.1456  0.2725
  160OSM    H4F17982   2.002   2.220   3.395 -0.4287  0.7016 -0.4595
  160OSM    H4G17983   2.135   2.301   3.475 -1.4547  1.1798 -1.4250
  160OSM    C5F17984   2.110   2.104   3.544  0.1858 -0.1893 -0.4369
  160OSM    H5F17985   2.208   2.088   3.593  0.1241  0.3092 -0.1423
  160OSM    H5G17986   2.088   2.003   3.504  2.2866 -1.3327  1.1106
  160OSM    C6F17987   2.002   2.130   3.654 -0.1724 -0.4937  0.1069
  160OSM    H6F17988   1.908   2.163   3.604  0.4386 -1.6357 -1.9045
  160OSM    H6G17989   2.032   2.213   3.721 -0.7517  0.8252 -1.2253
  160OSM    C7F17990   1.963   2.008   3.732 -0.1470  0.1820 -0.3279
  160OSM    H7F17991   2.055   1.971   3.782  0.8995  2.4180 -0.4660
  160OSM    H7G17992   1.912   1.933   3.668  2.0440 -0.7862 -1.0280
  160OSM    C8F17993   1.864   2.039   3.844 -0.3092  0.0744  1.0273
  160OSM    H8F17994   1.833   1.939   3.884 -0.3335 -1.0488 -1.6141
  160OSM    H8G17995   1.777   2.089   3.797  2.2328  2.4384 -1.4812
  160OSM    C9F17996   1.914   2.126   3.955 -0.2025  1.2433 -0.2043
  160OSM    H9F17997   1.875   2.229   3.956 -0.8434  1.0045  1.0258
  160OSM   C10F17998   1.965   2.091   4.074  0.4470 -0.7296  0.1987
  160OSM   H10F17999   1.998   2.175   4.137 -2.6071 -0.6051  1.8224
  160OSM   C11F18000   2.009   1.951   4.121 -0.2026  0.1437  0.3084
  160OSM   H11F18001   1.994   1.874   4.043  2.6706 -0.8906  0.6629
  160OSM   H11G18002   1.948   1.925   4.210 -1.7594  1.9955 -0.1610
  160OSM   C12F18003   2.158   1.941   4.150 -0.6356 -0.2512  0.5438
  160OSM   H12F18004   2.204   1.969   4.053  0.5166  0.1037  1.1834
  160OSM   H12G18005   2.175   1.834   4.174  1.1161 -0.0864  0.1621
  160OSM   C13F18006   2.203   2.026   4.267  0.0916 -0.0494  0.3211
  160OSM   H13F18007   2.174   2.133   4.260  0.3653 -0.0185 -0.5178
  160OSM   H13G18008   2.313   2.015   4.264 -0.0095 -1.3276  0.7157
  160OSM   C14F18009   2.163   1.987   4.407  0.0302  0.6520 -0.3396
  160OSM   H14F18010   2.206   1.887   4.428 -0.4420  0.3429 -0.8212
  160OSM   H14G18011   2.053   1.976   4.410  0.2817 -2.3827  1.3763
  160OSM   C15F18012   2.204   2.089   4.515 -0.2736  0.1449 -0.0323
  160OSM   H15F18013   2.169   2.074   4.619 -1.4145 -0.0002 -0.4216
  160OSM   H15G18014   2.166   2.189   4.484 -0.0645 -0.2616 -1.6783
  160OSM   C16F18015   2.353   2.097   4.523 -0.2697  0.3922  0.5999
  160OSM   H16F18016   2.399   2.099   4.423 -0.4723  1.9975  0.5082
  160OSM   H16G18017   2.387   2.008   4.581  0.1549 -0.1346 -0.4479
  160OSM   C17F18018   2.397   2.232   4.586  0.4151 -0.3376 -0.4714
  160OSM   H17F18019   2.345   2.234   4.685  1.5644  0.2827  0.1328
  160OSM   H17G18020   2.353   2.312   4.523  1.1826 -1.2619 -2.2383
  160OSM   C18F18021   2.546   2.241   4.612  0.4066 -0.3270  0.0994
  160OSM   H18F18022   2.575   2.345   4.639  0.7515 -1.1673  3.4713
  160OSM   H18G18023   2.603   2.219   4.519 -0.5660  0.8924 -0.8189
  160OSM   H18H18024   2.584   2.177   4.695 -0.7036 -1.1851 -0.0421
  161OSM      N18025   0.733   1.003   2.781 -0.6855 -0.3599  0.4844
  161OSM    C1518026   0.832   0.991   2.896 -0.5075 -0.2185 -0.7090
  161OSM   H15A18027   0.931   0.969   2.861  0.5338  1.0823  1.2202
  161OSM   H15B18028   0.807   0.915   2.970 -0.0258  0.6785  0.3999
  161OSM   H15C18029   0.828   1.083   2.953 -3.0019  1.0316 -2.6961
  161OSM    C1418030   0.595   1.031   2.835  0.1753  0.2971 -0.5281
  161OSM   H14A18031   0.599   1.109   2.911 -3.1727  0.7691 -0.6960
  161OSM   H14B18032   0.558   0.941   2.882  0.1009  0.0872 -0.9923
  161OSM   H14C18033   0.519   1.059   2.764  2.4659  0.9152 -2.9124
  161OSM    C1318034   0.777   1.131   2.708  0.9438 -0.5690  0.6708
  161OSM   H13A18035   0.833   1.195   2.774  0.1399  1.3548 -0.4395
  161OSM   H13B18036   0.695   1.185   2.662  0.6220  0.9850  2.9371
  161OSM   H13C18037   0.839   1.112   2.621 -0.9357 -0.4066 -0.7815
  161OSM    C1218038   0.741   0.878   2.703 -0.1824 -0.4725  0.0309
  161OSM   H12A18039   0.748   0.793   2.769 -2.3168 -2.1081 -1.6813
  161OSM   H12B18040   0.834   0.876   2.648 -0.9048 -1.6554 -1.2145
  161OSM    C1118041   0.624   0.843   2.610 -0.1390  0.8215  0.6091
  161OSM   H11A18042   0.532   0.803   2.659  0.4062 -0.9216  0.2529
  161OSM   H11B18043   0.661   0.755   2.555  0.8375  0.2997  2.0320
  161OSM      P18044   0.465   1.018   2.489 -0.0622 -0.2366  0.3073
  161OSM    O1318045   0.504   1.161   2.465  0.1306  0.0501 -0.0820
  161OSM    O1418046   0.386   0.956   2.377  0.2357 -0.0623  0.6507
  161OSM    O1118047   0.388   0.993   2.620 -0.0570 -0.4447  0.2938
  161OSM    O1218048   0.604   0.936   2.506  0.2813 -0.1037 -0.4578
  161OSM    C1S18049   0.286   0.892   2.637 -0.6266 -0.3419  0.0592
  161OSM    H1S18050   0.321   0.793   2.599 -1.0526 -0.5250  0.1289
  161OSM    H1T18051   0.192   0.917   2.582 -1.3044 -0.5680  1.0783
  161OSM     NF18052   0.175   0.778   2.811  0.1931  0.3434  0.4955
  161OSM    HNF18053   0.079   0.802   2.793  0.4903  1.3466  0.1655
  161OSM    C2S18054   0.263   0.893   2.789  0.2416 -0.4511 -0.0915
  161OSM    H2S18055   0.354   0.869   2.848 -0.2955 -0.1532  0.8653
  161OSM    C3S18056   0.207   1.025   2.846 -0.2611 -0.0613 -0.3095
  161OSM    H3S18057   0.099   1.032   2.821 -0.3564  0.6620  0.2799
  161OSM     O318058   0.274   1.140   2.794  0.3155  0.3120  0.1683
  161OSM    HO318059   0.335   1.107   2.727  1.5755  0.8137  1.0451
  161OSM    C4S18060   0.231   1.029   2.995  0.1200 -0.0495 -0.7108
  161OSM    H4S18061   0.335   1.055   3.019  0.5818 -3.3995  1.5156
  161OSM    C5S18062   0.139   1.015   3.092  0.0146 -0.1373  0.3705
  161OSM    H5S18063   0.036   1.016   3.052 -0.2742 -0.2630  1.0881
  161OSM    C6S18064   0.164   0.998   3.239  0.3029  0.4067 -0.3426
  161OSM    H6S18065   0.151   0.892   3.272  1.7235 -0.2272 -1.6491
  161OSM    H6T18066   0.104   1.058   3.310 -2.1501 -2.4566  0.2118
  161OSM    C7S18067   0.313   1.020   3.286  0.6734  0.4862 -0.4351
  161OSM    H7S18068   0.329   1.129   3.278 -2.7479  1.4286  2.8037
  161OSM    H7T18069   0.385   0.970   3.218  1.7099  1.1937  0.1087
  161OSM    C8S18070   0.336   0.981   3.437  0.5225 -0.0849  0.5928
  161OSM    H8S18071   0.243   1.002   3.495 -0.8159 -2.3526 -0.6074
  161OSM    H8T18072   0.411   1.047   3.485 -0.6035 -0.2679  2.7687
  161OSM    C9S18073   0.382   0.841   3.458 -0.0085 -0.0879  1.0282
  161OSM    H9S18074   0.482   0.816   3.416 -0.5218 -2.1094  0.8910
  161OSM    H9T18075   0.309   0.776   3.404 -0.6600 -0.9899  2.8871
  161OSM   C10S18076   0.385   0.795   3.606  0.2600 -0.1826 -1.0486
  161OSM   H10S18077   0.408   0.687   3.594  0.0864 -0.1118 -2.1499
  161OSM   H10T18078   0.281   0.811   3.642  0.5819 -1.7598  0.7089
  161OSM   C11S18079   0.490   0.861   3.696  0.4221 -0.3727  0.6136
  161OSM   H11S18080   0.484   0.970   3.678 -1.9026 -0.7955 -1.6794
  161OSM   H11T18081   0.590   0.837   3.654 -0.4008  0.7598 -2.2601
  161OSM   C12S18082   0.473   0.840   3.847  0.1021 -0.0950  0.1559
  161OSM   H12S18083   0.367   0.853   3.876 -0.8891 -0.4605 -2.8649
  161OSM   H12T18084   0.535   0.921   3.889  1.0424 -0.1145 -1.1325
  161OSM   C13S18085   0.513   0.699   3.893 -0.9924  0.4145 -0.3710
  161OSM   H13S18086   0.623   0.698   3.880 -1.1365 -0.2670 -1.7495
  161OSM   H13T18087   0.469   0.617   3.832  1.0010  0.7491 -2.3812
  161OSM   C14S18088   0.478   0.671   4.040 -0.2039 -0.0674  0.1891
  161OSM   H14S18089   0.519   0.572   4.068 -0.3129 -0.7251 -1.8660
  161OSM   H14T18090   0.368   0.664   4.054 -0.6492  1.5462 -1.8673
  161OSM   C15S18091   0.552   0.768   4.135  0.1114  0.1967  0.0399
  161OSM   H15S18092   0.516   0.871   4.116 -1.1065 -0.4184 -1.1914
  161OSM   H15T18093   0.658   0.769   4.103 -0.7260 -1.9645 -3.2496
  161OSM   C16S18094   0.542   0.733   4.286 -0.1499  0.0292  0.3667
  161OSM   H16S18095   0.586   0.632   4.302 -1.6174 -0.6338  0.3986
  161OSM   H16T18096   0.433   0.724   4.308 -0.4975 -1.9582 -1.7927
  161OSM   C17S18097   0.589   0.842   4.382 -0.8543 -0.1195  0.0857
  161OSM   H17S18098   0.536   0.934   4.348 -0.5893 -0.0123 -0.0436
  161OSM   H17T18099   0.697   0.858   4.361 -0.9481  2.4586  1.2152
  161OSM   C18S18100   0.564   0.819   4.530 -0.6800  0.1925  0.1210
  161OSM   H18S18101   0.597   0.912   4.581 -0.2717  0.0580  0.1012
  161OSM   H18T18102   0.625   0.737   4.573  1.4338  0.5761 -1.9060
  161OSM   H18U18103   0.458   0.792   4.552  0.2302 -1.9959  2.2220
  161OSM    C1F18104   0.212   0.651   2.822 -0.3966 -0.1404  0.3705
  161OSM     OF18105   0.332   0.614   2.817  0.2540 -0.2381  0.4364
  161OSM    C2F18106   0.107   0.546   2.831 -0.1163 -1.0668  0.7267
  161OSM    H2F18107   0.093   0.500   2.730 -0.3991  1.4647 -0.4797
  161OSM    H2G18108   0.011   0.589   2.868 -0.4138  0.3407 -1.4930
  161OSM    C3F18109   0.142   0.438   2.932 -0.8770  0.6239 -0.0016
  161OSM    H3F18110   0.229   0.376   2.900 -0.6512  0.4535  0.9137
  161OSM    H3G18111   0.060   0.363   2.929 -0.1664 -0.2222 -3.8457
  161OSM    C4F18112   0.168   0.481   3.076  0.5667  0.1002 -0.0541
  161OSM    H4F18113   0.248   0.558   3.069 -0.8945  1.5587 -2.5757
  161OSM    H4G18114   0.220   0.391   3.114 -2.8333 -2.7519 -1.5112
  161OSM    C5F18115   0.041   0.505   3.152 -0.2737 -0.2137 -0.6294
  161OSM    H5F18116  -0.013   0.410   3.166 -2.8380  1.4979  2.4230
  161OSM    H5G18117  -0.027   0.581   3.107 -0.0596 -0.0289 -0.6485
  161OSM    C6F18118   0.066   0.553   3.300 -0.5424  0.0279  0.1254
  161OSM    H6F18119   0.132   0.642   3.303  1.3795 -1.2383 -1.5226
  161OSM    H6G18120   0.103   0.461   3.349 -0.9758 -1.4948 -2.2431
  161OSM    C7F18121  -0.072   0.582   3.365  0.2682 -0.8820  0.2787
  161OSM    H7F18122  -0.147   0.499   3.362 -1.1394  0.3331  0.3994
  161OSM    H7G18123  -0.113   0.661   3.299 -0.2720 -1.0182  0.4412
  161OSM    C8F18124  -0.069   0.628   3.514  0.8323  0.6715 -0.2909
  161OSM    H8F18125  -0.163   0.674   3.551  0.3053 -0.7247  0.1648
  161OSM    H8G18126   0.011   0.705   3.512 -1.3108  3.2509  2.9629
  161OSM    C9F18127  -0.013   0.514   3.606  0.1986 -0.0949  0.4464
  161OSM    H9F18128   0.022   0.425   3.551 -0.9236 -0.1213 -0.2729
  161OSM   C10F18129   0.002   0.522   3.739 -0.5545  0.9591  0.4428
  161OSM   H10F18130   0.051   0.439   3.791  0.5977  1.7101  0.5737
  161OSM   C11F18131  -0.048   0.629   3.831  0.3808 -0.3734 -0.2734
  161OSM   H11F18132  -0.141   0.586   3.872  0.5399  0.2962  0.8359
  161OSM   H11G18133  -0.080   0.721   3.777 -3.3821 -1.5221 -0.2969
  161OSM   C12F18134   0.055   0.665   3.941  0.1443  0.2068  0.2203
  161OSM   H12F18135   0.030   0.770   3.967  1.0379  0.5960 -0.4365
  161OSM   H12G18136   0.152   0.677   3.889  0.3563 -0.2746  0.4935
  161OSM   C13F18137   0.068   0.575   4.061 -0.5234 -0.0787 -0.2684
  161OSM   H13F18138   0.141   0.610   4.138  1.4783 -0.2010 -2.0328
  161OSM   H13G18139   0.121   0.485   4.024 -2.3060 -2.2950  2.1321
  161OSM   C14F18140  -0.061   0.531   4.133 -0.4183  0.0543  0.6964
  161OSM   H14F18141  -0.097   0.447   4.070  1.1552  0.5702 -0.9802
  161OSM   H14G18142  -0.140   0.609   4.135  0.0051  0.5149  3.0579
  161OSM   C15F18143  -0.026   0.485   4.275 -0.0985  0.3735  0.1068
  161OSM   H15F18144   0.011   0.571   4.334  2.2422 -0.7987  0.4681
  161OSM   H15G18145   0.067   0.424   4.279 -0.3723 -0.1683 -1.1735
  161OSM   C16F18146  -0.143   0.414   4.342  0.2805 -0.1806 -0.2314
  161OSM   H16F18147  -0.191   0.333   4.284 -1.1171 -0.0684  0.7181
  161OSM   H16G18148  -0.229   0.484   4.354 -0.3158 -1.1203  1.1875
  161OSM   C17F18149  -0.103   0.365   4.482  0.3195 -0.6006  1.1777
  161OSM   H17F18150  -0.050   0.438   4.547  1.1053  1.5130 -1.6287
  161OSM   H17G18151  -0.021   0.295   4.453 -0.5138 -0.3449 -2.1537
  161OSM   C18F18152  -0.205   0.277   4.549  0.2148  0.7371 -0.0308
  161OSM   H18F18153  -0.293   0.333   4.587 -0.9361 -0.5575 -0.6755
  161OSM   H18G18154  -0.156   0.208   4.620 -0.5204 -1.5840 -1.6496
  161OSM   H18H18155  -0.248   0.207   4.473 -2.6689  1.5674  0.6988
  162OSM      N18156   1.234   1.055   2.125  0.4358  0.2404 -0.3110
  162OSM    C1518157   1.217   0.915   2.186 -0.1089  0.7760 -0.7014
  162OSM   H15A18158   1.315   0.872   2.202 -0.6464  0.2016  1.3982
  162OSM   H15B18159   1.170   0.845   2.118  0.1094 -0.0468 -0.0297
  162OSM   H15C18160   1.160   0.920   2.278 -1.3047 -1.2579 -1.2671
  162OSM    C1418161   1.266   1.034   1.985  0.5004 -0.0501  0.6390
  162OSM   H14A18162   1.252   1.119   1.920  1.7805 -2.4430 -3.1292
  162OSM   H14B18163   1.207   0.952   1.947 -0.7673  0.8619  0.6135
  162OSM   H14C18164   1.370   1.002   1.982  0.0128 -1.6674 -0.4956
  162OSM    C1318165   1.096   1.116   2.136  0.1585 -0.3836 -0.3474
  162OSM   H13A18166   1.020   1.056   2.088 -4.5244  3.1043  1.8643
  162OSM   H13B18167   1.098   1.211   2.084 -0.8394 -0.9937 -1.5543
  162OSM   H13C18168   1.068   1.129   2.240  1.3369  2.2557 -0.2814
  162OSM    C1218169   1.334   1.145   2.189  0.3581  0.3556 -0.2324
  162OSM   H12A18170   1.330   1.244   2.147  1.6024  0.1847 -0.7888
  162OSM   H12B18171   1.432   1.111   2.161 -0.4984 -1.8140 -0.8064
  162OSM    C1118172   1.328   1.145   2.353  0.5748 -0.3002  0.6920
  162OSM   H11A18173   1.414   1.206   2.390 -0.6260  0.3709  2.5023
  162OSM   H11B18174   1.337   1.039   2.383 -3.9447 -0.9879  0.2978
  162OSM      P18175   1.112   1.158   2.517  0.5334 -0.5508 -0.0476
  162OSM    O1318176   1.054   1.267   2.601 -0.2867 -0.4351  0.2491
  162OSM    O1418177   1.021   1.064   2.455  0.1886 -0.8230 -0.4228
  162OSM    O1118178   1.198   1.065   2.612 -0.5080 -0.8718  0.0674
  162OSM    O1218179   1.206   1.205   2.400 -0.1151 -0.2342 -0.1761
  162OSM    C1S18180   1.313   1.111   2.686  0.1693 -1.2481  0.6384
  162OSM    H1S18181   1.336   1.218   2.665  1.3965 -1.6894 -0.4185
  162OSM    H1T18182   1.397   1.048   2.648 -1.3488 -2.8047 -0.2998
  162OSM     NF18183   1.414   1.145   2.908 -0.0740  0.4827  0.0827
  162OSM    HNF18184   1.507   1.112   2.901  0.5884  2.3858 -0.9654
  162OSM    C2S18185   1.309   1.074   2.833  0.3950 -0.6142  0.2377
  162OSM    H2S18186   1.209   1.111   2.864 -0.0773 -0.3754 -1.4746
  162OSM    C3S18187   1.295   0.925   2.866 -0.5107  0.4426 -0.0323
  162OSM    H3S18188   1.376   0.869   2.815  1.4045  2.0874  1.0614
  162OSM     O318189   1.172   0.873   2.811  0.0108  0.0815 -0.4569
  162OSM    HO318190   1.159   0.926   2.733 -1.0254 -1.3466 -1.2939
  162OSM    C4S18191   1.306   0.889   3.013 -0.1820  0.9579 -0.4220
  162OSM    H4S18192   1.410   0.862   3.035 -0.7528  0.4736  2.0269
  162OSM    C5S18193   1.212   0.871   3.112 -0.5030  0.3511  0.7077
  162OSM    H5S18194   1.104   0.889   3.107 -0.6557 -0.1497  1.9200
  162OSM    C6S18195   1.243   0.827   3.251  0.1884 -0.6712  0.1303
  162OSM    H6S18196   1.244   0.716   3.254  0.4180 -0.7725 -2.0456
  162OSM    H6T18197   1.171   0.868   3.325  1.3553  2.8702 -0.5362
  162OSM    C7S18198   1.369   0.890   3.314 -0.8419  0.4597 -0.1248
  162OSM    H7S18199   1.367   1.001   3.311  0.8463  0.5002 -0.8190
  162OSM    H7T18200   1.456   0.859   3.252 -1.3159  0.2715 -0.7137
  162OSM    C8S18201   1.405   0.858   3.461  0.6508  1.0210 -1.1338
  162OSM    H8S18202   1.340   0.914   3.531  1.2034  0.6369 -0.3034
  162OSM    H8T18203   1.507   0.892   3.491  0.6728 -0.6742  0.9315
  162OSM    C9S18204   1.406   0.707   3.507  0.1895 -0.0319  0.0301
  162OSM    H9S18205   1.488   0.660   3.449  0.5985  2.0199 -1.1674
  162OSM    H9T18206   1.313   0.656   3.473  1.7201 -1.6042 -2.0272
  162OSM   C10S18207   1.426   0.687   3.662  0.0029 -0.2649 -0.3746
  162OSM   H10S18208   1.455   0.582   3.682 -0.2878 -0.2534  0.1332
  162OSM   H10T18209   1.332   0.716   3.714 -0.0334  0.4057 -0.8037
  162OSM   C11S18210   1.545   0.749   3.742  0.1025  0.0373 -0.1707
  162OSM   H11S18211   1.544   0.860   3.735  0.9751  0.0440 -0.3024
  162OSM   H11T18212   1.637   0.712   3.693 -0.1150  0.8545 -1.2256
  162OSM   C12S18213   1.552   0.705   3.891  0.1205  0.3321  0.3097
  162OSM   H12S18214   1.653   0.735   3.930  1.0407  0.5882 -2.1248
  162OSM   H12T18215   1.550   0.595   3.903  1.2470  0.1554 -0.8905
  162OSM   C13S18216   1.441   0.783   3.971 -0.5589  0.0927 -0.5573
  162OSM   H13S18217   1.344   0.757   3.922 -0.7368 -1.6362  0.6233
  162OSM   H13T18218   1.462   0.891   3.962 -0.8363  0.2856  0.9808
  162OSM   C14S18219   1.450   0.741   4.116 -0.9744 -0.3813  0.4303
  162OSM   H14S18220   1.544   0.776   4.163 -1.9822  0.2157  2.0811
  162OSM   H14T18221   1.450   0.630   4.123  6.3630 -0.9164 -0.7114
  162OSM   C15S18222   1.338   0.821   4.187 -0.6741 -0.0502 -0.5229
  162OSM   H15S18223   1.246   0.821   4.124 -0.4870 -0.0846 -0.7969
  162OSM   H15T18224   1.357   0.931   4.190  0.9006 -0.2419 -1.9247
  162OSM   C16S18225   1.308   0.772   4.330 -0.5904 -0.6617  0.0935
  162OSM   H16S18226   1.399   0.770   4.393  0.6303  0.7953 -1.5424
  162OSM   H16T18227   1.260   0.672   4.323  0.9406 -1.5032  1.1397
  162OSM   C17S18228   1.188   0.847   4.413  0.2059  0.5234  0.9307
  162OSM   H17S18229   1.111   0.865   4.335  2.6213 -0.7324 -1.9579
  162OSM   H17T18230   1.231   0.944   4.445  1.6971  0.5812 -1.1120
  162OSM   C18S18231   1.143   0.767   4.527  0.3277  0.3448  1.3772
  162OSM   H18S18232   1.214   0.788   4.610  1.0981 -2.2981  1.4879
  162OSM   H18T18233   1.149   0.658   4.508  1.5032  0.5485  0.5125
  162OSM   H18U18234   1.037   0.786   4.557  0.3287 -1.8389  3.0564
  162OSM    C1F18235   1.413   1.282   2.924  0.6047 -0.3505  0.4555
  162OSM     OF18236   1.320   1.352   2.884 -0.3636 -0.7244  0.6720
  162OSM    C2F18237   1.530   1.343   2.992  0.1619  0.2429  0.4874
  162OSM    H2F18238   1.557   1.444   2.953 -1.3228  1.1689  1.7342
  162OSM    H2G18239   1.616   1.273   2.988  0.2890  0.3104  1.8426
  162OSM    C3F18240   1.505   1.376   3.141 -0.5676 -0.6010 -0.6465
  162OSM    H3F18241   1.400   1.406   3.159 -0.0547  0.2552  1.0903
  162OSM    H3G18242   1.582   1.451   3.168  1.2650 -1.7211 -2.4137
  162OSM    C4F18243   1.531   1.256   3.228  0.4988 -0.2382  0.0141
  162OSM    H4F18244   1.632   1.214   3.206  1.0791  1.1144 -0.0230
  162OSM    H4G18245   1.451   1.185   3.197 -0.9059  0.9796  0.7215
  162OSM    C5F18246   1.515   1.314   3.361 -0.2535  0.1584  0.6080
  162OSM    H5F18247   1.414   1.358   3.377  0.1229  2.3419 -2.1897
  162OSM    H5G18248   1.585   1.399   3.366 -0.8340  1.1663 -4.0118
  162OSM    C6F18249   1.547   1.208   3.472 -0.4479 -0.2158 -0.3285
  162OSM    H6F18250   1.657   1.191   3.469 -0.3357  0.5771 -1.4407
  162OSM    H6G18251   1.494   1.113   3.450 -0.2002 -0.4599  0.1339
  162OSM    C7F18252   1.499   1.266   3.613  0.3517  0.3832  0.1159
  162OSM    H7F18253   1.393   1.298   3.605  0.2926  0.1151 -0.1620
  162OSM    H7G18254   1.556   1.356   3.645 -0.1370  0.6536  0.2405
  162OSM    C8F18255   1.519   1.152   3.724  0.9618  0.2901  0.5662
  162OSM    H8F18256   1.622   1.114   3.709  1.0743  1.1132 -0.9028
  162OSM    H8G18257   1.452   1.066   3.704  0.1188  1.1637 -0.5071
  162OSM    C9F18258   1.500   1.203   3.862 -0.3855  0.7738 -0.8217
  162OSM    H9F18259   1.407   1.257   3.886 -1.1480 -0.4027 -1.0876
  162OSM   C10F18260   1.601   1.206   3.950 -0.1215  0.0605 -0.1829
  162OSM   H10F18261   1.586   1.251   4.050  0.2794  0.2099 -0.1860
  162OSM   C11F18262   1.747   1.158   3.930  0.1023  0.0800  0.2720
  162OSM   H11F18263   1.808   1.232   3.874  0.1001 -1.7749 -2.3834
  162OSM   H11G18264   1.750   1.065   3.869  1.1177  0.8798 -0.9341
  162OSM   C12F18265   1.817   1.120   4.059  0.1936  0.1835 -0.3671
  162OSM   H12F18266   1.810   1.210   4.124 -0.1078  0.9114 -1.3782
  162OSM   H12G18267   1.923   1.100   4.036  0.7996  0.3288  2.0868
  162OSM   C13F18268   1.750   1.006   4.146 -0.7709 -0.5688  0.7712
  162OSM   H13F18269   1.717   0.920   4.084  0.1123 -0.3910  0.0414
  162OSM   H13G18270   1.650   1.043   4.177  0.3546  2.3773  1.2153
  162OSM   C14F18271   1.821   0.968   4.273  0.2960 -0.7671  0.3143
  162OSM   H14F18272   1.916   0.910   4.266  0.2845 -0.6426 -1.3603
  162OSM   H14G18273   1.749   0.905   4.328 -0.5957  0.2538  0.3363
  162OSM   C15F18274   1.858   1.087   4.372  0.3140  0.0834 -0.1337
  162OSM   H15F18275   1.759   1.130   4.397 -1.6340 -3.5701 -0.8364
  162OSM   H15G18276   1.929   1.157   4.323 -0.1606 -0.7569 -2.0882
  162OSM   C16F18277   1.919   1.044   4.505 -0.5040 -0.0429 -0.5175
  162OSM   H16F18278   2.017   1.000   4.474 -1.1817 -0.4247 -2.1968
  162OSM   H16G18279   1.861   0.967   4.559  2.1892  0.8097  4.1490
  162OSM   C17F18280   1.935   1.160   4.609  0.3327  0.0729  0.0997
  162OSM   H17F18281   1.964   1.107   4.703 -1.9067  1.1558  1.4848
  162OSM   H17G18282   1.835   1.208   4.622  1.0875  1.5232  0.7673
  162OSM   C18F18283   2.020   1.283   4.574 -0.0878  0.3378 -0.6779
  162OSM   H18F18284   2.107   1.248   4.514 -0.9567 -1.4061 -0.9782
  162OSM   H18G18285   2.050   1.350   4.657  0.5608 -0.0765 -0.5654
  162OSM   H18H18286   1.955   1.349   4.513 -1.0742  0.8370  0.8561
  163OSM      N18287   5.710   0.409   2.776 -0.0218 -0.0563 -0.1549
  163OSM    C1518288   5.642   0.339   2.663 -0.3004 -0.0778  0.5055
  163OSM   H15A18289   5.711   0.354   2.581  2.1115  2.5341  2.8292
  163OSM   H15B18290   5.549   0.388   2.640  0.1188  0.0164 -1.1762
  163OSM   H15C18291   5.630   0.235   2.690 -0.7266 -0.4290 -0.9360
  163OSM    C1418292   5.608   0.442   2.887  0.7568  0.7307  0.3320
  163OSM   H14A18293   5.532   0.506   2.846  1.9814  1.1492 -1.4071
  163OSM   H14B18294   5.649   0.511   2.960 -0.3728  1.4532  0.2984
  163OSM   H14C18295   5.564   0.351   2.925 -1.5794  0.6391 -2.3355
  163OSM    C1318296   5.808   0.315   2.837  0.6491  0.5833 -0.2689
  163OSM   H13A18297   5.897   0.367   2.868  0.9140 -0.1530  0.2321
  163OSM   H13B18298   5.833   0.241   2.763 -0.5789 -2.0234  1.7533
  163OSM   H13C18299   5.754   0.254   2.909 -0.9078  1.3022 -0.7821
  163OSM    C1218300   5.778   0.538   2.726 -0.0580  0.2421  0.2147
  163OSM   H12A18301   5.707   0.602   2.677  0.6419  1.8750  1.2538
  163OSM   H12B18302   5.850   0.512   2.649 -0.1431 -0.3178  0.3166
  163OSM    C1118303   5.840   0.632   2.830 -0.5126  0.0545  0.1357
  163OSM   H11A18304   5.762   0.649   2.907 -1.3809 -0.9478 -0.4999
  163OSM   H11B18305   5.854   0.736   2.793  1.6028 -0.4108 -0.5052
  163OSM      P18306   6.100   0.618   2.817 -0.4221 -0.4343 -0.1576
  163OSM    O1318307   6.198   0.535   2.886  0.0745 -0.4447 -0.0575
  163OSM    O1418308   6.095   0.597   2.669 -0.1258 -0.0468 -0.8236
  163OSM    O1118309   6.146   0.777   2.846  0.1669 -0.2096  0.7099
  163OSM    O1218310   5.963   0.590   2.892  0.8640 -0.6367  0.0332
  163OSM    C1S18311   6.113   0.841   2.960  0.0149 -0.7149 -0.1917
  163OSM    H1S18312   6.008   0.814   2.984 -0.6776 -0.4371 -2.5643
  163OSM    H1T18313   6.103   0.951   2.950 -1.6261 -0.6039  2.0031
  163OSM     NF18314   6.146   0.862   3.202  0.0611 -0.2575 -0.5523
  163OSM    HNF18315   6.182   0.943   3.247 -0.3691 -0.2123 -0.2834
  163OSM    C2S18316   6.206   0.818   3.080  0.3431  0.0033 -0.1948
  163OSM    H2S18317   6.218   0.708   3.086 -2.4265 -0.3422  0.0379
  163OSM    C3S18318   6.351   0.868   3.060 -0.3599  0.2932  0.2357
  163OSM    H3S18319   6.349   0.977   3.035 -2.1350 -0.2586 -2.3538
  163OSM     O318320   6.416   0.803   2.954 -0.5331  0.5410 -0.1038
  163OSM    HO318321   6.344   0.765   2.903 -0.1708  2.4943 -2.2875
  163OSM    C4S18322   6.443   0.851   3.178 -0.2528  1.0235 -0.8244
  163OSM    H4S18323   6.454   0.746   3.210  2.6167  1.1164 -1.2621
  163OSM    C5S18324   6.491   0.952   3.254  0.5927 -0.5099 -0.3316
  163OSM    H5S18325   6.459   1.053   3.224 -2.4188 -1.8073 -1.9577
  163OSM    C6S18326   6.556   0.930   3.391  0.0675  0.4322  0.2057
  163OSM    H6S18327   6.648   0.993   3.387 -0.5047  1.2646 -0.1297
  163OSM    H6T18328   6.587   0.825   3.413 -0.0009  0.1450 -1.0004
  163OSM    C7S18329   6.463   0.971   3.508  0.2881  0.4279 -0.1845
  163OSM    H7S18330   6.377   0.902   3.511  0.1452  0.4749 -2.0815
  163OSM    H7T18331   6.424   1.074   3.489 -0.3511  0.1303 -0.5092
  163OSM    C8S18332   6.530   0.964   3.651 -0.0375 -0.0883  0.3349
  163OSM    H8S18333   6.605   1.046   3.656 -0.4559  0.2580  1.1160
  163OSM    H8T18334   6.583   0.867   3.641  0.4275  0.3096 -1.7347
  163OSM    C9S18335   6.432   0.964   3.770 -0.2991 -0.1559  0.3186
  163OSM    H9S18336   6.366   0.875   3.762  2.7492 -2.3574 -2.8407
  163OSM    H9T18337   6.371   1.057   3.761  2.8774  2.1027  0.5366
  163OSM   C10S18338   6.505   0.971   3.906  0.2985 -0.2509  0.5046
  163OSM   H10S18339   6.584   1.048   3.896  1.0967 -1.0558  0.5162
  163OSM   H10T18340   6.557   0.874   3.923 -0.8901 -1.1066 -0.4637
  163OSM   C11S18341   6.417   0.979   4.024  0.1049  0.2601  0.5481
  163OSM   H11S18342   6.348   0.893   4.027  2.4896 -1.7429  1.1552
  163OSM   H11T18343   6.348   1.063   4.001  0.1725 -0.2556 -1.9195
  163OSM   C12S18344   6.493   0.991   4.152 -0.1082  0.6734 -0.4977
  163OSM   H12S18345   6.421   0.990   4.237  1.4135  4.2128  1.0161
  163OSM   H12T18346   6.556   1.082   4.154  0.3041  0.4175  2.2754
  163OSM   C13S18347   6.596   0.877   4.181 -0.0809 -0.0566  0.8196
  163OSM   H13S18348   6.672   0.876   4.099 -2.1857  2.2743 -1.3342
  163OSM   H13T18349   6.539   0.782   4.179 -0.4666  0.1789  0.1032
  163OSM   C14S18350   6.664   0.886   4.317  0.2537  0.8977  0.4191
  163OSM   H14S18351   6.697   0.990   4.339  1.0847  0.6946  0.1733
  163OSM   H14T18352   6.743   0.808   4.322 -0.7653 -0.1012  1.1624
  163OSM   C15S18353   6.559   0.839   4.423 -0.5054  0.0834 -0.5112
  163OSM   H15S18354   6.482   0.764   4.395  0.6480 -0.4558 -2.3803
  163OSM   H15T18355   6.498   0.920   4.469 -0.3595 -1.2227  2.2298
  163OSM   C16S18356   6.629   0.766   4.537  0.6559  0.2595  0.3810
  163OSM   H16S18357   6.668   0.669   4.499  1.8378  0.4416  1.0758
  163OSM   H16T18358   6.557   0.749   4.619  0.0492  0.3303 -0.1324
  163OSM   C17S18359   6.736   0.852   4.612 -0.1996  0.1979  0.7667
  163OSM   H17S18360   6.683   0.917   4.685  1.1416  0.3821  1.6219
  163OSM   H17T18361   6.793   0.910   4.537  0.8004  1.0608  2.1450
  163OSM   C18S18362   6.848   0.766   4.680  0.1888  0.0733  0.0410
  163OSM   H18S18363   6.903   0.822   4.759  0.0642  0.8546 -0.4103
  163OSM   H18T18364   6.913   0.739   4.594 -0.9524  0.0219 -0.8253
  163OSM   H18U18365   6.820   0.664   4.714  5.8353 -1.5522  0.9635
  163OSM    C1F18366   6.034   0.812   3.249 -1.2207 -0.6641  0.1537
  163OSM     OF18367   5.995   0.709   3.203  0.4190  0.3630 -0.4141
  163OSM    C2F18368   5.962   0.885   3.350 -0.1691  0.6323  0.1255
  163OSM    H2F18369   5.865   0.833   3.366  0.9920 -0.8199  3.3001
  163OSM    H2G18370   5.957   0.995   3.332  2.5383  0.5372 -1.8010
  163OSM    C3F18371   6.033   0.875   3.487 -0.1794  0.1823  0.5295
  163OSM    H3F18372   6.139   0.908   3.480 -0.4761  0.9662 -0.5009
  163OSM    H3G18373   6.041   0.770   3.523  2.9766  0.1030 -0.1022
  163OSM    C4F18374   5.960   0.940   3.607 -0.1177 -0.0899  0.0160
  163OSM    H4F18375   5.852   0.914   3.603 -0.2711  0.6330 -0.8610
  163OSM    H4G18376   5.972   1.049   3.592 -0.4685 -0.0288  0.1661
  163OSM    C5F18377   6.028   0.897   3.734  0.7654 -0.4857  0.1380
  163OSM    H5F18378   6.131   0.937   3.730  1.2697 -1.6133  1.0982
  163OSM    H5G18379   6.032   0.786   3.743  2.0308 -0.4354  0.2568
  163OSM    C6F18380   5.962   0.957   3.863  0.1726  0.3497 -0.1285
  163OSM    H6F18381   5.868   0.901   3.885 -0.4661  2.0406  1.7941
  163OSM    H6G18382   5.942   1.066   3.854  1.3699  0.5853 -0.1109
  163OSM    C7F18383   6.062   0.943   3.978  0.4748 -0.3256 -0.4064
  163OSM    H7F18384   6.165   0.973   3.948 -0.2212  0.8829 -1.6666
  163OSM    H7G18385   6.082   0.837   4.005  1.2045  0.3070  1.7509
  163OSM    C8F18386   6.033   1.014   4.110 -0.2324  0.2825 -0.2030
  163OSM    H8F18387   5.966   1.099   4.087 -1.0304  0.5469  2.6933
  163OSM    H8G18388   6.119   1.073   4.148 -0.6693 -0.1484  1.5611
  163OSM    C9F18389   5.964   0.920   4.210 -0.1285  0.4330  0.2176
  163OSM    H9F18390   5.859   0.898   4.183 -0.6580 -2.5649  3.9660
  163OSM   C10F18391   6.023   0.868   4.318 -0.7973  0.7613  0.2892
  163OSM   H10F18392   5.967   0.792   4.375 -2.5316  2.7832  1.3828
  163OSM   C11F18393   6.165   0.879   4.360 -0.2031 -0.0935 -0.2270
  163OSM   H11F18394   6.212   0.956   4.295 -1.1003  0.4416 -0.2490
  163OSM   H11G18395   6.219   0.781   4.363 -0.3146 -0.1408  0.1750
  163OSM   C12F18396   6.184   0.918   4.507  0.3844 -0.8540  0.2629
  163OSM   H12F18397   6.295   0.922   4.513  0.4258  1.4938 -0.8781
  163OSM   H12G18398   6.161   0.843   4.585 -0.3968 -0.7036  0.1801
  163OSM   C13F18399   6.113   1.051   4.550 -0.6300  0.6644  0.4624
  163OSM   H13F18400   6.007   1.020   4.548  0.3529 -3.1696 -1.4114
  163OSM   H13G18401   6.137   1.114   4.461  0.7607  0.7668  0.8757
  163OSM   C14F18402   6.155   1.114   4.682 -0.5902  0.2924  0.2073
  163OSM   H14F18403   6.266   1.110   4.687 -0.5746 -0.6745 -0.5198
  163OSM   H14G18404   6.114   1.056   4.767  0.8982  0.6412  1.1886
  163OSM   C15F18405   6.109   1.262   4.691 -0.3245 -0.2384  0.1021
  163OSM   H15F18406   6.145   1.320   4.603  1.4978 -1.3006  0.0902
  163OSM   H15G18407   6.157   1.309   4.779 -0.8312  1.3690 -0.4377
  163OSM   C16F18408   5.960   1.277   4.710  0.4530 -0.3534  0.2520
  163OSM   H16F18409   5.921   1.225   4.800  2.0748 -0.5040  0.8899
  163OSM   H16G18410   5.911   1.238   4.618 -0.5980  1.9197 -0.2290
  163OSM   C17F18411   5.913   1.419   4.725  0.2096  0.7198  0.7870
  163OSM   H17F18412   5.962   1.459   4.817  2.7516 -0.3978  0.0141
  163OSM   H17G18413   5.804   1.426   4.744  0.2701  3.8520  0.5234
  163OSM   C18F18414   5.947   1.505   4.608  0.1621 -0.3577 -0.0205
  163OSM   H18F18415   5.875   1.472   4.530  1.0944 -0.5821 -0.7993
  163OSM   H18G18416   6.049   1.501   4.564  0.1717 -0.6637  0.0321
  163OSM   H18H18417   5.926   1.611   4.636 -1.1885  0.0897 -2.4525
  164OSM      N18418   1.436   1.633   2.637  0.3959  0.3323 -0.1153
  164OSM    C1518419   1.404   1.768   2.583  0.3344 -0.1946  0.7942
  164OSM   H15A18420   1.454   1.796   2.492 -0.6092  0.0933  0.3553
  164OSM   H15B18421   1.434   1.845   2.653  0.0003  0.0444  0.6767
  164OSM   H15C18422   1.296   1.772   2.585  0.2459 -1.1971 -0.5420
  164OSM    C1418423   1.391   1.614   2.782  0.0259  0.0078  0.2830
  164OSM   H14A18424   1.457   1.670   2.846  0.9396 -0.6620 -0.0535
  164OSM   H14B18425   1.386   1.509   2.810  0.0885 -0.2489 -0.6337
  164OSM   H14C18426   1.291   1.650   2.801 -1.1085 -2.6576 -0.1609
  164OSM    C1318427   1.363   1.531   2.554 -0.3827  0.0007 -0.2569
  164OSM   H13A18428   1.260   1.557   2.535  0.2713  0.7115 -3.4413
  164OSM   H13B18429   1.376   1.442   2.614  0.7790  3.2611  5.0051
  164OSM   H13C18430   1.398   1.522   2.453  0.1716 -0.5949 -0.0220
  164OSM    C1218431   1.580   1.598   2.611 -0.7823 -0.0595 -0.0418
  164OSM   H12A18432   1.600   1.597   2.505  0.0115  0.1135  0.0995
  164OSM   H12B18433   1.598   1.499   2.652  0.7921  0.7009  1.2275
  164OSM    C1118434   1.685   1.696   2.672 -0.2007  0.1543 -0.2977
  164OSM   H11A18435   1.675   1.674   2.781 -0.7215 -2.3283 -0.7665
  164OSM   H11B18436   1.657   1.793   2.626 -0.8989 -0.2545 -0.7537
  164OSM      P18437   1.892   1.694   2.508 -0.1995 -0.4065  0.0018
  164OSM    O1318438   2.014   1.614   2.491 -0.6097 -0.0704 -0.3079
  164OSM    O1418439   1.787   1.703   2.405 -0.3359 -0.2963  0.1164
  164OSM    O1118440   1.935   1.836   2.543  0.4009  0.1738  0.2609
  164OSM    O1218441   1.811   1.646   2.630  0.6001 -0.3304  0.3945
  164OSM    C1S18442   1.937   1.914   2.662  0.4365  0.4313 -0.9358
  164OSM    H1S18443   1.839   1.902   2.713 -0.7445 -0.0672 -3.1851
  164OSM    H1T18444   1.960   2.023   2.657 -0.2406  0.6242 -0.0964
  164OSM     NF18445   2.027   1.897   2.895  0.1300  0.3402  0.0360
  164OSM    HNF18446   2.102   1.955   2.924  0.9954 -0.4876 -0.4796
  164OSM    C2S18447   2.041   1.846   2.763 -0.2660  0.0752  0.1887
  164OSM    H2S18448   2.008   1.741   2.776 -0.0860 -0.0261 -0.1590
  164OSM    C3S18449   2.192   1.845   2.704 -0.3696  0.2260 -0.1763
  164OSM    H3S18450   2.203   1.943   2.652 -0.4702 -0.6462 -1.8795
  164OSM     O318451   2.232   1.750   2.601 -0.2329  0.0485  0.3483
  164OSM    HO318452   2.153   1.698   2.585  0.7556 -1.4263  0.0101
  164OSM    C4S18453   2.288   1.834   2.821  0.2048  0.5434 -0.0416
  164OSM    H4S18454   2.319   1.935   2.853 -1.6626  0.4014  2.5317
  164OSM    C5S18455   2.340   1.720   2.875 -0.0265  0.1660  0.3796
  164OSM    H5S18456   2.299   1.623   2.845  0.7540 -0.2718  0.6878
  164OSM    C6S18457   2.427   1.705   2.998  0.4123  0.1149 -0.2705
  164OSM    H6S18458   2.532   1.698   2.960 -0.3993 -0.3118 -2.6105
  164OSM    H6T18459   2.399   1.614   3.054 -2.2465  0.4886 -0.8633
  164OSM    C7S18460   2.420   1.817   3.095  0.0953  0.2579 -1.1961
  164OSM    H7S18461   2.316   1.831   3.131  0.6368  0.2772  0.4602
  164OSM    H7T18462   2.450   1.915   3.051  2.1487  0.7762  1.0758
  164OSM    C8S18463   2.512   1.792   3.215  0.1118 -0.5109  0.0405
  164OSM    H8S18464   2.618   1.779   3.186  0.7385 -1.5555  2.4753
  164OSM    H8T18465   2.478   1.700   3.267  0.9765 -0.9871 -0.2192
  164OSM    C9S18466   2.487   1.908   3.306 -0.5249 -0.7178  0.2190
  164OSM    H9S18467   2.379   1.922   3.331 -0.2395  1.0442  0.6306
  164OSM    H9T18468   2.523   2.002   3.258 -1.0814 -0.1067  0.9585
  164OSM   C10S18469   2.558   1.894   3.443 -0.3035 -0.0011 -0.3858
  164OSM   H10S18470   2.667   1.911   3.431 -0.1799 -0.4823  0.0032
  164OSM   H10T18471   2.547   1.792   3.486 -0.3452  0.3941  0.5779
  164OSM   C11S18472   2.515   2.003   3.544 -0.5965  0.1764 -0.0685
  164OSM   H11S18473   2.406   1.982   3.553 -0.3808 -1.0263 -0.0813
  164OSM   H11T18474   2.530   2.102   3.495 -3.6340  1.1321  0.7381
  164OSM   C12S18475   2.596   2.001   3.683 -0.0081  0.0464  0.0275
  164OSM   H12S18476   2.705   2.000   3.661 -0.2898 -0.0865 -1.4464
  164OSM   H12T18477   2.577   1.903   3.732  0.2104 -0.0389 -0.0591
  164OSM   C13S18478   2.572   2.122   3.774  0.1538  0.4995  0.1419
  164OSM   H13S18479   2.583   2.218   3.719  1.1454 -0.9677 -2.4049
  164OSM   H13T18480   2.645   2.121   3.858 -2.3052  1.3124  2.4177
  164OSM   C14S18481   2.436   2.114   3.853 -0.5112  0.1058  0.1545
  164OSM   H14S18482   2.424   2.012   3.895 -2.1693 -0.3466 -1.2650
  164OSM   H14T18483   2.361   2.122   3.771  1.1735 -1.7983 -1.6766
  164OSM   C15S18484   2.408   2.230   3.948  0.1150  0.0364 -0.2360
  164OSM   H15S18485   2.303   2.223   3.982 -0.2111  0.1695 -1.1826
  164OSM   H15T18486   2.409   2.326   3.891 -1.2812 -0.0188 -0.3723
  164OSM   C16S18487   2.497   2.236   4.070 -0.2733  0.6365 -0.4830
  164OSM   H16S18488   2.597   2.276   4.041 -0.1451 -0.4309 -1.5949
  164OSM   H16T18489   2.507   2.139   4.123  2.6569  1.8455  1.4075
  164OSM   C17S18490   2.449   2.328   4.179 -0.2025 -0.4826  1.2344
  164OSM   H17S18491   2.498   2.286   4.269 -0.1699  0.1068  1.4991
  164OSM   H17T18492   2.339   2.314   4.185 -0.3857  1.1456  2.1864
  164OSM   C18S18493   2.494   2.473   4.169  0.1164 -0.2532 -0.1626
  164OSM   H18S18494   2.454   2.524   4.079 -1.3068  0.9472  1.0789
  164OSM   H18T18495   2.605   2.474   4.171  0.1584 -0.1365  2.8325
  164OSM   H18U18496   2.476   2.528   4.264  0.6715 -1.4920  0.6942
  164OSM    C1F18497   1.923   1.890   2.974 -0.0897  0.9254  0.1630
  164OSM     OF18498   1.845   1.798   2.963  0.0921  0.1596  0.2962
  164OSM    C2F18499   1.906   1.993   3.074  0.2539  1.0384 -0.0202
  164OSM    H2F18500   1.923   2.087   3.017  1.9155  0.4009 -0.6329
  164OSM    H2G18501   1.971   1.979   3.163 -0.9278 -0.3460  0.6520
  164OSM    C3F18502   1.758   1.996   3.142  0.3935 -0.2109 -0.1489
  164OSM    H3F18503   1.730   1.900   3.189 -2.1753  1.4704  1.9937
  164OSM    H3G18504   1.691   2.018   3.056 -0.4240 -4.3988 -0.7949
  164OSM    C4F18505   1.760   2.098   3.257 -0.3275 -0.1185 -0.3242
  164OSM    H4F18506   1.806   2.192   3.221 -0.7989 -0.9200 -3.2838
  164OSM    H4G18507   1.817   2.064   3.346 -1.4158  1.3273  0.9857
  164OSM    C5F18508   1.627   2.120   3.319  0.8108 -0.4499  0.1376
  164OSM    H5F18509   1.571   2.026   3.334 -0.1201 -0.1163 -1.0162
  164OSM    H5G18510   1.569   2.179   3.245 -0.2123 -1.4504  0.1179
  164OSM    C6F18511   1.645   2.197   3.448  0.3248  0.0980 -0.6457
  164OSM    H6F18512   1.689   2.298   3.433  0.9285 -0.4024 -2.6112
  164OSM    H6G18513   1.704   2.137   3.521  1.6506  1.4550 -0.5512
  164OSM    C7F18514   1.512   2.230   3.510 -0.2907 -0.1262 -0.4423
  164OSM    H7F18515   1.452   2.137   3.516 -0.8161 -0.0285 -3.0336
  164OSM    H7G18516   1.460   2.307   3.449 -0.1688 -0.8409 -1.4638
  164OSM    C8F18517   1.513   2.300   3.645  0.4904 -0.3579 -0.3512
  164OSM    H8F18518   1.414   2.351   3.649  1.1336  0.8682  0.9259
  164OSM    H8G18519   1.598   2.370   3.633 -1.8188  2.5039 -1.4671
  164OSM    C9F18520   1.528   2.208   3.765  0.1391 -0.1811 -0.0009
  164OSM    H9F18521   1.545   2.102   3.742 -1.5476 -0.8725  1.7268
  164OSM   C10F18522   1.525   2.256   3.893  0.0738 -0.2519 -0.6007
  164OSM   H10F18523   1.517   2.184   3.976 -2.3737  1.4730  0.8021
  164OSM   C11F18524   1.494   2.403   3.936  0.0624  0.2401 -0.2259
  164OSM   H11F18525   1.445   2.453   3.849 -0.4459  2.4417  1.2572
  164OSM   H11G18526   1.590   2.459   3.940  0.1581  0.2101 -1.5741
  164OSM   C12F18527   1.432   2.430   4.073 -0.0215 -0.0583  0.3166
  164OSM   H12F18528   1.323   2.414   4.056 -0.0891  0.4283  0.2700
  164OSM   H12G18529   1.444   2.541   4.080  0.4808  0.1459 -2.5213
  164OSM   C13F18530   1.491   2.351   4.193  0.0034 -0.7802 -0.1052
  164OSM   H13F18531   1.460   2.244   4.190 -1.1966 -0.4432 -2.5333
  164OSM   H13G18532   1.435   2.386   4.283 -0.4058 -2.0683  0.1621
  164OSM   C14F18533   1.644   2.371   4.202 -0.2049  0.0519  0.3802
  164OSM   H14F18534   1.661   2.476   4.169  0.0969  0.0406  0.5018
  164OSM   H14G18535   1.697   2.299   4.136  1.1493 -0.8534  2.3471
  164OSM   C15F18536   1.693   2.343   4.341 -0.3933  0.1745 -0.5838
  164OSM   H15F18537   1.629   2.386   4.421  0.4409 -0.5531  0.4938
  164OSM   H15G18538   1.789   2.399   4.338  0.3143 -1.0352 -2.3920
  164OSM   C16F18539   1.724   2.196   4.374 -0.2602 -0.0464 -0.2747
  164OSM   H16F18540   1.824   2.181   4.329  0.8485  2.6919  1.0835
  164OSM   H16G18541   1.655   2.122   4.328 -1.7174  1.4295 -0.5714
  164OSM   C17F18542   1.719   2.168   4.528  0.0774  0.2015  0.8896
  164OSM   H17F18543   1.624   2.204   4.572  0.4561  2.1624  0.2228
  164OSM   H17G18544   1.797   2.233   4.573 -0.0355  1.5210 -0.7110
  164OSM   C18F18545   1.747   2.024   4.556  0.5246  0.3373  0.8080
  164OSM   H18F18546   1.827   1.981   4.492  0.9730  0.9201  0.9716
  164OSM   H18G18547   1.652   1.970   4.535 -0.6115  2.5401  0.0040
  164OSM   H18H18548   1.778   2.006   4.661  0.5167  0.6789  0.8706
  165SAPS     N18549   5.377   4.064   6.810 -0.2781 -0.0292  0.5362
  165SAPS   HN118550   5.339   4.118   6.730 -0.9440 -0.4870  0.5384
  165SAPS   HN218551   5.424   3.981   6.769 -1.4214  1.1080 -3.4635
  165SAPS   HN318552   5.302   4.041   6.879  0.4095  2.2776  2.1643
  165SAPS   C1218553   5.481   4.133   6.881 -0.5759  0.3649 -0.3580
  165SAPS  H12A18554   5.449   4.132   6.984 -1.4762 -1.1408 -0.6143
  165SAPS   C1318555   5.619   4.061   6.864 -0.1920 -0.1970  0.0581
  165SAPS  O13A18556   5.613   3.940   6.841 -0.0698 -0.1344 -0.0711
  165SAPS  O13B18557   5.720   4.112   6.920 -0.1972 -0.5091  0.0026
  165SAPS   C1118558   5.492   4.279   6.833 -0.2781 -0.0743 -0.3572
  165SAPS  H11A18559   5.492   4.278   6.721 -0.1385  1.5975 -0.3952
  165SAPS  H11B18560   5.593   4.320   6.855 -0.5137  0.6502 -0.5906
  165SAPS     P18561   5.416   4.458   7.007  0.0132  0.0856  0.0850
  165SAPS   O1318562   5.298   4.547   7.037 -0.1296 -0.3534 -0.1477
  165SAPS   O1418563   5.465   4.369   7.118 -0.9353 -0.6497  0.7166
  165SAPS   O1218564   5.389   4.366   6.888  0.3556 -0.3652 -0.3464
  165SAPS   O1118565   5.539   4.543   6.955 -0.6958 -0.0274  0.2701
  165SAPS    C118566   5.517   4.670   6.894  0.5400 -0.3055 -0.2516
  165SAPS    HA18567   5.444   4.731   6.951  1.4398  1.5679 -1.0201
  165SAPS    HB18568   5.607   4.734   6.882  1.2810 -1.0940  0.9859
  165SAPS    C218569   5.465   4.657   6.750  0.3232 -0.1466 -0.5728
  165SAPS    HS18570   5.374   4.593   6.758 -0.4445  1.0415  0.5963
  165SAPS   O2118571   5.568   4.602   6.675 -0.0757 -0.5391  0.2374
  165SAPS   C2118572   5.535   4.544   6.558 -0.3095  0.1441 -0.1767
  165SAPS   O2218573   5.419   4.526   6.527  0.4063 -0.1739 -0.5831
  165SAPS   C2218574   5.663   4.494   6.478 -0.0865  0.2324  0.1953
  165SAPS   H2R18575   5.639   4.496   6.370  0.5303 -2.7960 -0.1054
  165SAPS   H2S18576   5.748   4.561   6.502  1.6696 -2.2178  1.2988
  165SAPS    C318577   5.420   4.804   6.701 -0.3650 -0.2941 -0.3182
  165SAPS    HX18578   5.333   4.827   6.765 -1.7162 -0.5616 -1.9941
  165SAPS    HY18579   5.391   4.795   6.594  0.3993  1.8020 -0.7329
  165SAPS   O3118580   5.529   4.899   6.725  0.2893 -0.2125  0.3143
  165SAPS   C3118581   5.561   4.985   6.631 -0.2072  0.1098 -0.5872
  165SAPS   O3218582   5.498   5.003   6.529 -0.0755  0.2678  0.2585
  165SAPS   C3218583   5.683   5.073   6.679 -0.1413 -0.3190 -0.6447
  165SAPS   H2X18584   5.786   5.031   6.679  0.8937  2.0389  0.8309
  165SAPS   H2Y18585   5.651   5.115   6.777 -1.3080 -2.3354 -0.0956
  165SAPS   C2318586   5.704   4.347   6.518 -0.4374  0.0650 -0.2511
  165SAPS   H3R18587   5.698   4.338   6.629  1.9840  2.5691  0.1921
  165SAPS   H3S18588   5.814   4.339   6.507 -0.3582  0.1351  0.4238
  165SAPS   C2418589   5.634   4.243   6.426  0.1118 -0.2285  0.1388
  165SAPS   H4R18590   5.648   4.286   6.325  0.4775 -2.1999 -0.7079
  165SAPS   H4S18591   5.523   4.246   6.433  0.0352 -0.3209 -0.8895
  165SAPS   C2518592   5.669   4.101   6.443 -0.6115  0.2665  0.2863
  165SAPS   H5R18593   5.757   4.090   6.509  0.2223  0.3119 -0.7917
  165SAPS   C2618594   5.608   4.001   6.383  0.2171  0.1656 -0.3215
  165SAPS   H6R18595   5.640   3.901   6.415 -3.1429 -0.6359  0.9909
  165SAPS   C2718596   5.487   3.995   6.289 -0.0597  0.1008 -0.5083
  165SAPS   H7R18597   5.431   4.090   6.298  0.3827  0.5416 -2.0690
  165SAPS   H7S18598   5.413   3.932   6.342 -0.2253  1.2084  0.6297
  165SAPS   C2818599   5.527   3.972   6.147  0.6667 -0.1530  0.5639
  165SAPS   H8R18600   5.605   4.044   6.119 -0.0811  0.3314 -0.3054
  165SAPS   C2918601   5.466   3.900   6.054 -0.2837 -0.2415 -0.0162
  165SAPS   H9R18602   5.505   3.898   5.951 -2.0321  0.6559 -0.7336
  165SAPS  C21018603   5.353   3.804   6.084 -0.3690 -0.3106  0.2310
  165SAPS  H10R18604   5.285   3.834   6.167  0.1405 -0.8250  0.8453
  165SAPS  H10S18605   5.388   3.706   6.125  0.9110  0.5312  1.2330
  165SAPS  C21118606   5.276   3.771   5.963  0.1444  1.2095  0.0879
  165SAPS  H11R18607   5.179   3.818   5.943  1.0849  2.3368 -2.3619
  165SAPS  C21218608   5.311   3.677   5.874 -0.4002  0.0708  0.0528
  165SAPS  H12R18609   5.247   3.653   5.788  0.5118  2.6214 -1.4288
  165SAPS  C21318610   5.445   3.600   5.868  0.5612 -0.4569 -0.5443
  165SAPS  H13R18611   5.479   3.582   5.972  2.2811 -0.4304 -1.0761
  165SAPS  H13S18612   5.534   3.657   5.834  0.6207 -0.7392 -0.8652
  165SAPS  C21418613   5.439   3.461   5.799  0.2871 -0.0693  0.0622
  165SAPS  H14R18614   5.413   3.372   5.857  0.4750 -0.0654  0.1542
  165SAPS  C21518615   5.491   3.436   5.674 -0.1125  0.6097 -0.4455
  165SAPS  H15R18616   5.472   3.332   5.643  0.9138  0.5541 -0.9249
  165SAPS  C21618617   5.544   3.530   5.568  0.1482  0.8233 -0.1861
  165SAPS  H16R18618   5.653   3.528   5.545 -0.1466 -0.3856 -1.6211
  165SAPS  H16S18619   5.521   3.638   5.580  0.8016  0.8516  0.9632
  165SAPS  C21718620   5.473   3.508   5.434 -0.3400 -0.0507  0.8186
  165SAPS  H17R18621   5.378   3.565   5.428 -0.3259  0.0241  1.2703
  165SAPS  H17S18622   5.455   3.399   5.428  1.1261 -0.2860  0.3555
  165SAPS  C21818623   5.558   3.544   5.315 -0.4305 -0.3882  0.5371
  165SAPS  H18R18624   5.637   3.466   5.309  1.8978  1.6160  2.9225
  165SAPS  H18S18625   5.604   3.643   5.335 -0.4473  0.2098 -2.0706
  165SAPS  C21918626   5.490   3.539   5.178  0.2031  0.3410  0.1325
  165SAPS  H19R18627   5.398   3.602   5.171 -0.9202 -0.9019  2.6758
  165SAPS  H19S18628   5.446   3.438   5.168  1.0440 -0.3146  2.4188
  165SAPS  C22018629   5.573   3.594   5.070 -0.0245 -0.2918  0.0209
  165SAPS  H20R18630   5.555   3.546   4.971  1.2250  0.0674 -0.4016
  165SAPS  H20S18631   5.681   3.577   5.088 -0.0220  0.2140  0.5282
  165SAPS  H20T18632   5.559   3.703   5.052  1.0738 -0.2316 -0.5695
  165SAPS   C3318633   5.691   5.204   6.593 -0.3811 -0.2144  0.3917
  165SAPS   H3X18634   5.748   5.273   6.660 -2.4846 -0.0721  2.1631
  165SAPS   H3Y18635   5.591   5.244   6.567 -0.5446 -0.4684  0.6235
  165SAPS   C3418636   5.761   5.181   6.457  0.1705 -0.2698 -0.2308
  165SAPS   H4X18637   5.714   5.095   6.405 -0.3837  0.4896 -1.0294
  165SAPS   H4Y18638   5.867   5.154   6.476  1.0376  2.4226 -0.8169
  165SAPS   C3518639   5.726   5.308   6.376 -0.2807  0.4100  0.1720
  165SAPS   H5X18640   5.764   5.404   6.417 -1.3576  1.1886 -0.5943
  165SAPS   H5Y18641   5.617   5.323   6.356 -0.3435  1.2239  1.0394
  165SAPS   C3618642   5.796   5.283   6.248 -0.3452  0.3688  0.8720
  165SAPS   H6X18643   5.761   5.193   6.192 -1.4575  1.6315 -0.5716
  165SAPS   H6Y18644   5.903   5.277   6.275 -0.0437 -2.1716 -0.5328
  165SAPS   C3718645   5.775   5.417   6.165 -0.0153 -0.0854 -0.3211
  165SAPS   H7X18646   5.764   5.509   6.226 -0.2198 -0.5556  0.3646
  165SAPS   H7Y18647   5.673   5.408   6.122 -0.2667 -0.2184  0.3014
  165SAPS   C3818648   5.877   5.428   6.051  1.2897  0.4082 -0.4016
  165SAPS   H8X18649   5.846   5.356   5.973 -0.5187  0.4290  0.2590
  165SAPS   H8Y18650   5.975   5.390   6.088  0.5428 -0.7284  0.4902
  165SAPS   C3918651   5.875   5.564   5.991 -0.3553 -0.6185 -0.4661
  165SAPS   H9X18652   5.864   5.644   6.067  0.2837  1.2553 -2.2691
  165SAPS   H9Y18653   5.784   5.564   5.928 -1.4031 -0.1538  1.0029
  165SAPS  C31018654   6.000   5.592   5.907 -0.6412  0.1325  0.2552
  165SAPS  H10X18655   6.085   5.601   5.978 -2.2746  1.9028  2.1244
  165SAPS  H10Y18656   5.993   5.688   5.852  0.4124 -0.7018 -1.4070
  165SAPS  C31118657   6.021   5.486   5.800  0.3304 -0.2813  1.0386
  165SAPS  H11X18658   5.924   5.451   5.760 -1.4143  1.2074  3.6318
  165SAPS  H11Y18659   6.071   5.402   5.853 -0.2542 -0.8111  0.7551
  165SAPS  C31218660   6.115   5.535   5.690 -0.0388 -0.4863 -0.0696
  165SAPS  H12X18661   6.214   5.576   5.719 -1.1810  2.7580 -0.3057
  165SAPS  H12Y18662   6.061   5.618   5.640  0.2627 -0.1257  0.1964
  165SAPS  C31318663   6.138   5.423   5.582 -0.4454  0.9149 -0.6575
  165SAPS  H13X18664   6.185   5.337   5.635  0.1439  1.4324 -0.3251
  165SAPS  H13Y18665   6.219   5.450   5.510  0.0904 -1.1395 -0.8871
  165SAPS  C31418666   6.019   5.390   5.494  0.4899 -0.5273 -1.4966
  165SAPS  H14X18667   5.999   5.489   5.448  3.0472  1.6880  1.7023
  165SAPS  H14Y18668   5.929   5.350   5.547  1.5363 -0.7232  0.2185
  165SAPS  C31518669   6.055   5.285   5.393 -0.2699  0.0465  0.1272
  165SAPS  H15X18670   6.088   5.194   5.447  0.5892 -0.1072 -0.6243
  165SAPS  H15Y18671   6.132   5.331   5.326 -0.2503 -0.1520  0.0122
  165SAPS  C31618672   5.941   5.248   5.295 -0.5013 -0.2462  0.7771
  165SAPS  H16X18673   5.895   5.330   5.236 -0.4814 -0.1473  0.8971
  165SAPS  H16Y18674   5.860   5.206   5.358 -0.6475 -2.3479 -0.7244
  165SAPS  C31718675   5.989   5.148   5.194 -0.3143 -0.7213  0.3984
  165SAPS  H17X18676   5.913   5.068   5.197  0.6995 -1.7637 -0.7577
  165SAPS  H17Y18677   6.083   5.103   5.234  0.3182  0.5105  0.3413
  165SAPS  C31818678   6.023   5.196   5.058 -0.0921  0.4645  1.2165
  165SAPS  H18X18679   5.942   5.256   5.012 -0.8860 -0.1392  1.8059
  165SAPS  H18Y18680   6.046   5.111   4.990 -2.3622  1.3390 -0.7931
  165SAPS  H18Z18681   6.113   5.261   5.062  0.0306  0.3115  0.9956
  166SAPS     N18682   2.412   0.470   7.549  0.0038 -0.1046  0.6396
  166SAPS   HN118683   2.358   0.454   7.636 -1.1571 -0.8780 -0.1937
  166SAPS   HN218684   2.493   0.527   7.579 -0.0251  0.2396  0.0876
  166SAPS   HN318685   2.356   0.527   7.482 -1.6090 -1.7360  0.5475
  166SAPS   C1218686   2.463   0.346   7.483  1.1760 -0.0811 -0.5524
  166SAPS  H12A18687   2.492   0.376   7.383 -0.9750 -1.0915 -1.5427
  166SAPS   C1318688   2.592   0.296   7.547 -0.4210 -0.1365  0.0461
  166SAPS  O13A18689   2.630   0.360   7.654  0.3022  0.0965  0.3216
  166SAPS  O13B18690   2.652   0.194   7.500 -0.0237  0.5109 -0.0591
  166SAPS   C1118691   2.347   0.249   7.451 -0.2533  0.0454 -0.1803
  166SAPS  H11A18692   2.298   0.237   7.550 -0.2741 -0.1131 -0.2092
  166SAPS  H11B18693   2.387   0.156   7.406 -3.9130 -0.6180 -2.5269
  166SAPS     P18694   2.194   0.249   7.235  0.2421  0.6143  0.1584
  166SAPS   O1318695   2.114   0.128   7.271  0.7383  0.4224  0.3901
  166SAPS   O1418696   2.129   0.354   7.155  0.6651 -0.4362 -0.6262
  166SAPS   O1218697   2.259   0.310   7.361  0.4901 -0.7154 -0.1808
  166SAPS   O1118698   2.330   0.212   7.164  0.6270  0.5531  0.0248
  166SAPS    C118699   2.393   0.312   7.086  0.1211 -0.3821  0.6173
  166SAPS    HA18700   2.387   0.417   7.123  0.9191  0.6092 -1.8125
  166SAPS    HB18701   2.500   0.283   7.093  0.6064  1.0622 -0.1926
  166SAPS    C218702   2.355   0.306   6.934 -0.2326 -0.3287 -0.9078
  166SAPS    HS18703   2.250   0.342   6.931 -1.4340 -3.5001 -0.3980
  166SAPS   O2118704   2.362   0.168   6.898  1.2025  0.3768  0.1898
  166SAPS   C2118705   2.277   0.124   6.807 -0.3196 -0.5608  0.0074
  166SAPS   O2218706   2.194   0.190   6.751  0.5020 -0.1244  1.1322
  166SAPS   C2218707   2.297  -0.028   6.785 -0.0914  0.2973  0.0897
  166SAPS   H2R18708   2.355  -0.069   6.870 -0.4194 -2.2230 -0.8103
  166SAPS   H2S18709   2.195  -0.074   6.782  1.2196 -2.8893  0.1638
  166SAPS    C318710   2.452   0.398   6.847  0.4128  0.0491 -0.3378
  166SAPS    HX18711   2.556   0.368   6.873  0.7745  1.2049 -0.4188
  166SAPS    HY18712   2.431   0.501   6.882  0.5034 -0.0978  0.1595
  166SAPS   O3118713   2.443   0.391   6.705 -0.2966 -0.4250  0.0156
  166SAPS   C3118714   2.512   0.293   6.650 -0.5106 -0.3916  0.3575
  166SAPS   O3218715   2.583   0.209   6.705  0.6789  0.2115 -0.1588
  166SAPS   C3218716   2.497   0.306   6.495  0.0521  0.1149 -0.9816
  166SAPS   H2X18717   2.564   0.231   6.448  1.0780  0.3929 -0.0225
  166SAPS   H2Y18718   2.518   0.411   6.467  1.0945  0.1716 -0.0717
  166SAPS   C2318719   2.379  -0.066   6.657  0.4554  0.0246 -0.1486
  166SAPS   H3R18720   2.473  -0.007   6.659  1.3352 -1.1527 -2.6184
  166SAPS   H3S18721   2.331  -0.039   6.560  1.3106 -2.4545 -1.3343
  166SAPS   C2418722   2.429  -0.210   6.658  0.0070  0.5781 -0.3485
  166SAPS   H4R18723   2.456  -0.237   6.762  0.6590  0.3169 -0.5791
  166SAPS   H4S18724   2.520  -0.219   6.595 -0.1337  0.1454 -0.4996
  166SAPS   C2518725   2.327  -0.305   6.605 -0.3583  0.2899 -0.7215
  166SAPS   H5R18726   2.258  -0.348   6.679 -1.9553  1.9621 -1.1350
  166SAPS   C2618727   2.315  -0.351   6.476  0.2479 -0.4816  0.3696
  166SAPS   H6R18728   2.220  -0.404   6.464  0.5551 -1.2474  1.2482
  166SAPS   C2718729   2.403  -0.324   6.357 -0.6069  0.6491 -0.2012
  166SAPS   H7R18730   2.459  -0.418   6.334 -1.5993 -0.4924  1.7825
  166SAPS   H7S18731   2.481  -0.253   6.391  0.1478 -0.3620  0.2467
  166SAPS   C2818732   2.331  -0.275   6.234 -0.0605 -0.0524  0.3783
  166SAPS   H8R18733   2.227  -0.240   6.242 -0.1955 -0.4894  0.5728
  166SAPS   C2918734   2.384  -0.271   6.108 -0.1421 -0.4502  0.0144
  166SAPS   H9R18735   2.315  -0.238   6.029  0.3636 -0.1030 -0.2917
  166SAPS  C21018736   2.525  -0.319   6.067  0.4392 -0.1238 -0.0317
  166SAPS  H10R18737   2.516  -0.395   5.987  3.1029  1.6228 -2.1716
  166SAPS  H10S18738   2.581  -0.351   6.157 -0.2289  1.8612  1.1618
  166SAPS  C21118739   2.613  -0.202   6.019  0.7062 -0.3442  0.0472
  166SAPS  H11R18740   2.690  -0.163   6.087 -1.0021  0.0513  1.8212
  166SAPS  C21218741   2.611  -0.146   5.896  0.1796 -0.0615 -0.1426
  166SAPS  H12R18742   2.702  -0.089   5.871  0.7788 -1.4415 -1.2555
  166SAPS  C21318743   2.525  -0.186   5.780  0.8200  0.4261  0.2295
  166SAPS  H13R18744   2.443  -0.253   5.814  2.8125 -1.1411  2.3183
  166SAPS  H13S18745   2.584  -0.257   5.718 -0.7766  0.7102 -1.7366
  166SAPS  C21418746   2.484  -0.073   5.695  0.3908 -0.4524  0.5654
  166SAPS  H14R18747   2.422   0.006   5.739  0.3542 -0.2487  0.1492
  166SAPS  C21518748   2.536  -0.064   5.566  0.7242 -0.3451  0.0310
  166SAPS  H15R18749   2.501   0.021   5.506 -3.4078 -0.8312  1.4567
  166SAPS  C21618750   2.610  -0.164   5.488  0.0647  0.2860 -0.1711
  166SAPS  H16R18751   2.589  -0.267   5.526  0.0708  0.1933 -0.4151
  166SAPS  H16S18752   2.719  -0.147   5.496  0.1931  1.3583 -3.0203
  166SAPS  C21718753   2.576  -0.166   5.340  0.1219 -0.4957 -0.6169
  166SAPS  H17R18754   2.466  -0.168   5.330 -0.3590  1.4400  2.7688
  166SAPS  H17S18755   2.620  -0.259   5.300 -0.5328 -1.3337  0.5559
  166SAPS  C21818756   2.636  -0.053   5.255  0.3763 -0.0621 -0.5991
  166SAPS  H18R18757   2.744  -0.035   5.278 -0.1163  0.5101  1.4614
  166SAPS  H18S18758   2.574   0.038   5.271  1.1731  0.3536  0.2032
  166SAPS  C21918759   2.641  -0.080   5.101 -0.1594 -0.2640 -0.2247
  166SAPS  H19R18760   2.717  -0.161   5.096  0.8939  0.6603  0.3940
  166SAPS  H19S18761   2.687   0.007   5.051  0.1615 -1.0534 -1.3455
  166SAPS  C22018762   2.502  -0.113   5.046  0.4053  0.3658 -0.2428
  166SAPS  H20R18763   2.499  -0.137   4.938 -0.4567 -0.7844  0.0090
  166SAPS  H20S18764   2.441  -0.023   5.069 -1.1824  0.2140 -3.3673
  166SAPS  H20T18765   2.466  -0.208   5.091 -1.3792  0.8505 -0.5738
  166SAPS   C3318766   2.349   0.271   6.451  0.2818 -0.3585  0.9021
  166SAPS   H3X18767   2.272   0.335   6.500 -0.1140 -2.3037  2.9562
  166SAPS   H3Y18768   2.327   0.167   6.482 -0.7064 -0.0474  1.2808
  166SAPS   C3418769   2.332   0.272   6.297  0.9880  0.1182  0.4317
  166SAPS   H4X18770   2.362   0.374   6.267 -1.9035  0.7346 -0.7002
  166SAPS   H4Y18771   2.222   0.255   6.290  0.9541  0.3164  0.4925
  166SAPS   C3518772   2.407   0.159   6.225 -0.2835 -0.0279 -0.1768
  166SAPS   H5X18773   2.362   0.067   6.268 -1.4213 -0.3361 -1.9186
  166SAPS   H5Y18774   2.513   0.160   6.257 -0.4811  0.3573  0.4828
  166SAPS   C3618775   2.403   0.167   6.074 -1.0558  0.0916 -0.3877
  166SAPS   H6X18776   2.299   0.178   6.035 -2.3206 -0.6988  2.4706
  166SAPS   H6Y18777   2.435   0.067   6.037  0.7216 -0.4259  2.2880
  166SAPS   C3718778   2.502   0.267   6.012 -0.2900 -0.0322  0.4266
  166SAPS   H7X18779   2.607   0.249   6.041  0.7544  1.6871 -1.8809
  166SAPS   H7Y18780   2.471   0.370   6.042 -2.0389 -0.1547 -0.7643
  166SAPS   C3818781   2.505   0.261   5.858 -0.8964  0.0216 -0.0187
  166SAPS   H8X18782   2.510   0.159   5.814  2.5540  0.5021 -1.0455
  166SAPS   H8Y18783   2.604   0.308   5.843 -1.4523  0.9213 -0.8896
  166SAPS   C3918784   2.396   0.341   5.790 -0.3257 -0.0044 -0.2049
  166SAPS   H9X18785   2.397   0.438   5.844 -1.5662 -0.7957  1.3046
  166SAPS   H9Y18786   2.292   0.307   5.811  0.4812 -1.5072  1.5985
  166SAPS  C31018787   2.406   0.339   5.636 -0.6255  0.6618 -0.2947
  166SAPS  H10X18788   2.367   0.436   5.599  0.8971  1.2680 -0.3784
  166SAPS  H10Y18789   2.355   0.247   5.600  0.2575  0.3471 -0.7798
  166SAPS  C31118790   2.549   0.328   5.578 -0.3663  0.9597  0.2269
  166SAPS  H11X18791   2.611   0.242   5.612  0.3790  1.1686 -0.5603
  166SAPS  H11Y18792   2.619   0.411   5.601  2.0112 -0.1810 -2.3043
  166SAPS  C31218793   2.558   0.327   5.431 -0.0202  0.0180  0.8383
  166SAPS  H12X18794   2.492   0.247   5.392 -1.2512  0.4879  1.8924
  166SAPS  H12Y18795   2.658   0.295   5.393  0.1486  1.8773 -0.4242
  166SAPS  C31318796   2.495   0.449   5.359 -0.3674 -0.1357 -0.4794
  166SAPS  H13X18797   2.526   0.545   5.404 -2.5381  0.4491 -0.1159
  166SAPS  H13Y18798   2.386   0.448   5.378 -0.2949 -0.8409 -0.0642
  166SAPS  C31418799   2.517   0.457   5.212  0.5901 -0.9102 -0.0143
  166SAPS  H14X18800   2.617   0.502   5.197 -0.9816  3.3831  1.1074
  166SAPS  H14Y18801   2.446   0.527   5.163  0.8421 -1.5987 -1.4354
  166SAPS  C31518802   2.496   0.320   5.145 -0.3139 -0.0117  0.0891
  166SAPS  H15X18803   2.391   0.286   5.158  0.2267 -1.2176  1.7939
  166SAPS  H15Y18804   2.571   0.249   5.187 -0.1217 -0.0665 -0.3437
  166SAPS  C31618805   2.531   0.333   5.001 -0.0168  0.2382 -0.6627
  166SAPS  H16X18806   2.477   0.407   4.938  0.4759  1.8700  0.7374
  166SAPS  H16Y18807   2.506   0.239   4.947 -1.3587  0.6505 -0.7812
  166SAPS  C31718808   2.680   0.374   4.977 -0.1140  0.2798  0.4970
  166SAPS  H17X18809   2.696   0.482   4.998  4.6338  0.2959 -1.7673
  166SAPS  H17Y18810   2.703   0.367   4.869  0.8516  0.3936  0.6789
  166SAPS  C31818811   2.794   0.297   5.052 -0.4362 -0.6555 -0.1432
  166SAPS  H18X18812   2.885   0.326   4.995 -1.0668  0.0638 -0.8143
  166SAPS  H18Y18813   2.769   0.189   5.048 -0.4954 -0.6499  0.0680
  166SAPS  H18Z18814   2.803   0.323   5.159 -1.3505  2.7546 -0.7721
  167SAPS     N18815   6.283   0.543   7.129  0.3506 -0.3265  0.3569
  167SAPS   HN118816   6.339   0.623   7.164  0.7789  0.3312 -1.6910
  167SAPS   HN218817   6.351   0.488   7.074 -0.2775 -0.8410  0.0838
  167SAPS   HN318818   6.211   0.579   7.064 -1.4744  2.0790  3.4011
  167SAPS   C1218819   6.227   0.454   7.236  0.0761  0.5914  0.8581
  167SAPS  H12A18820   6.298   0.404   7.300 -1.1152 -4.2204 -1.1000
  167SAPS   C1318821   6.125   0.522   7.328  0.3088  0.2450 -0.4200
  167SAPS  O13A18822   6.078   0.637   7.312  0.3145 -0.0546 -0.3293
  167SAPS  O13B18823   6.074   0.445   7.417  0.4998 -0.4471  0.1021
  167SAPS   C1118824   6.166   0.336   7.154  0.3288 -0.2497 -0.5054
  167SAPS  H11A18825   6.099   0.375   7.075  2.0984  0.9608 -1.4837
  167SAPS  H11B18826   6.110   0.270   7.225  2.5310 -1.1797  0.4912
  167SAPS     P18827   6.207   0.131   7.004  0.1305  0.1633  0.1115
  167SAPS   O1318828   6.314   0.056   6.936 -0.2315  0.4613 -0.1804
  167SAPS   O1418829   6.110   0.046   7.079  0.5034 -0.1000  0.3012
  167SAPS   O1218830   6.269   0.246   7.094 -0.3436 -0.0898  0.4683
  167SAPS   O1118831   6.129   0.198   6.882 -0.1050  0.1063 -0.2849
  167SAPS    C118832   6.195   0.288   6.794 -0.5814  0.1860  0.3690
  167SAPS    HA18833   6.123   0.371   6.780 -0.7854 -0.3832 -2.6296
  167SAPS    HB18834   6.293   0.322   6.834  1.0747  0.6296 -3.6220
  167SAPS    C218835   6.232   0.219   6.661  1.1343 -0.1118 -0.6159
  167SAPS    HS18836   6.222   0.110   6.684 -3.3166  0.3108  0.3964
  167SAPS   O2118837   6.349   0.280   6.606 -0.4563 -0.8915 -0.0594
  167SAPS   C2118838   6.434   0.194   6.561  0.4490 -0.2093 -0.2483
  167SAPS   O2218839   6.414   0.071   6.572  0.3184 -0.2521 -0.3547
  167SAPS   C2218840   6.562   0.250   6.497  0.1150  0.4043  0.2360
  167SAPS   H2R18841   6.640   0.172   6.486  0.5659  0.9923 -0.8379
  167SAPS   H2S18842   6.532   0.276   6.393 -0.2688  1.2201  0.5391
  167SAPS    C318843   6.114   0.245   6.556 -0.0127  0.2918 -0.6590
  167SAPS    HX18844   6.119   0.353   6.532 -0.7578  0.8253  1.3820
  167SAPS    HY18845   6.016   0.231   6.607  0.2396  2.5314  0.5907
  167SAPS   O3118846   6.129   0.162   6.441  0.5380  0.1364  0.6449
  167SAPS   C3118847   6.118   0.036   6.456  0.1029  0.3228 -0.0309
  167SAPS   O3218848   6.077  -0.027   6.555  0.0869 -0.5960  0.3372
  167SAPS   C3218849   6.181  -0.042   6.337 -0.5557  0.0759 -1.0425
  167SAPS   H2X18850   6.286  -0.007   6.331 -1.2963  2.9542  0.5731
  167SAPS   H2Y18851   6.125  -0.003   6.249 -2.4023 -0.3030 -0.0894
  167SAPS   C2318852   6.621   0.371   6.561  0.5079 -0.2235 -0.0409
  167SAPS   H3R18853   6.681   0.345   6.651  0.2867 -2.7839 -0.5586
  167SAPS   H3S18854   6.554   0.453   6.595  1.7049 -0.3026  2.6953
  167SAPS   C2418855   6.696   0.452   6.453 -0.6488  0.4966 -0.1096
  167SAPS   H4R18856   6.721   0.549   6.499  2.8411 -0.4913  0.3700
  167SAPS   H4S18857   6.634   0.460   6.360  0.7086  0.4017 -1.0551
  167SAPS   C2518858   6.826   0.377   6.427  0.0141 -0.1206  0.0632
  167SAPS   H5R18859   6.896   0.379   6.512 -0.2521  1.1002  0.2755
  167SAPS   C2618860   6.869   0.335   6.311 -0.4344 -0.6341  0.3689
  167SAPS   H6R18861   6.965   0.283   6.320 -0.0314  0.2297  1.3022
  167SAPS   C2718862   6.812   0.326   6.176  0.2094  0.3870  0.3071
  167SAPS   H7R18863   6.708   0.365   6.166  1.2293  2.9195 -1.6454
  167SAPS   H7S18864   6.799   0.217   6.161 -0.2856  0.6589 -1.5247
  167SAPS   C2818865   6.905   0.377   6.065 -0.6246  0.0374  0.4767
  167SAPS   H8R18866   6.988   0.441   6.099 -0.6629  1.1587 -1.4200
  167SAPS   C2918867   6.868   0.395   5.938 -0.4125  1.0380  0.0654
  167SAPS   H9R18868   6.949   0.413   5.865  0.9116 -1.2311  0.8695
  167SAPS  C21018869   6.745   0.333   5.886  0.0418  0.0431  0.3060
  167SAPS  H10R18870   6.657   0.391   5.922  0.4574  1.0013 -0.1812
  167SAPS  H10S18871   6.728   0.230   5.922 -1.6196  0.0816 -0.2834
  167SAPS  C21118872   6.743   0.339   5.732 -0.5313  0.1402  0.0234
  167SAPS  H11R18873   6.765   0.438   5.690  3.3214 -0.6188 -0.1299
  167SAPS  C21218874   6.731   0.234   5.654  0.6516  0.8847 -0.4401
  167SAPS  H12R18875   6.728   0.244   5.545  1.1984 -1.0348 -0.6776
  167SAPS  C21318876   6.699   0.089   5.691 -0.2793 -0.1058  0.5485
  167SAPS  H13R18877   6.599   0.059   5.651 -0.2590  1.0138 -0.4067
  167SAPS  H13S18878   6.696   0.068   5.800  1.6260  0.0384  0.6465
  167SAPS  C21418879   6.807  -0.001   5.632 -0.9342 -0.9814  0.2292
  167SAPS  H14R18880   6.812   0.004   5.523  1.4357 -0.5834  0.2961
  167SAPS  C21518881   6.899  -0.072   5.703 -0.0553 -0.0704 -0.1403
  167SAPS  H15R18882   6.964  -0.143   5.650  2.6134  0.4027  2.2597
  167SAPS  C21618883   6.923  -0.081   5.851 -0.1827  0.2554 -0.3719
  167SAPS  H16R18884   6.949  -0.185   5.880  0.3548  0.7396  0.9377
  167SAPS  H16S18885   6.835  -0.055   5.913  0.1378 -1.1466  0.7277
  167SAPS  C21718886   7.039   0.019   5.906 -0.3074 -0.6035  0.2250
  167SAPS  H17R18887   6.987   0.117   5.893 -2.2754 -1.6786 -0.4722
  167SAPS  H17S18888   7.122   0.016   5.833  0.9776  1.2817  1.5059
  167SAPS  C21818889   7.084  -0.021   6.051 -0.5884 -0.1558 -0.6594
  167SAPS  H18R18890   7.097  -0.131   6.067 -0.1192  0.1622  1.5793
  167SAPS  H18S18891   7.013   0.020   6.126 -0.7563  0.6315 -1.2385
  167SAPS  C21918892   7.226   0.032   6.091  0.3473  0.9270  0.3340
  167SAPS  H19R18893   7.225   0.143   6.097  2.3445  0.9262  1.9178
  167SAPS  H19S18894   7.301   0.002   6.014 -0.2990  2.3713 -0.9150
  167SAPS  C22018895   7.283  -0.021   6.225  0.4052  0.0317 -0.5696
  167SAPS  H20R18896   7.264  -0.130   6.230 -2.5217  0.3050 -2.9503
  167SAPS  H20S18897   7.230   0.021   6.313  1.2069  0.7902 -0.4222
  167SAPS  H20T18898   7.394  -0.010   6.229  0.3660  0.4069 -0.4515
  167SAPS   C3318899   6.181  -0.194   6.360  0.0579 -0.3532 -0.6890
  167SAPS   H3X18900   6.080  -0.240   6.364 -0.7939  1.4237 -0.7620
  167SAPS   H3Y18901   6.221  -0.209   6.462 -0.7842  1.3102 -0.0607
  167SAPS   C3418902   6.264  -0.281   6.275 -0.5564  0.3736 -0.5080
  167SAPS   H4X18903   6.286  -0.376   6.328  2.6644  2.9126  3.3209
  167SAPS   H4Y18904   6.362  -0.229   6.283 -0.0775 -0.7081  1.0316
  167SAPS   C3518905   6.225  -0.300   6.134 -0.4627 -0.0647  0.4097
  167SAPS   H5X18906   6.308  -0.352   6.081  0.2210  1.0720  0.3486
  167SAPS   H5Y18907   6.214  -0.201   6.085 -2.4366 -1.0826 -1.3907
  167SAPS   C3618908   6.082  -0.367   6.108  0.4354  0.5397  0.0657
  167SAPS   H6X18909   6.008  -0.308   6.166 -0.3799  0.0951 -0.4941
  167SAPS   H6Y18910   6.074  -0.471   6.146 -0.3817  0.7766  0.5659
  167SAPS   C3718911   6.042  -0.364   5.959 -0.1770 -0.4748  0.9749
  167SAPS   H7X18912   5.999  -0.264   5.936 -1.1088 -1.3205 -1.2951
  167SAPS   H7Y18913   5.972  -0.446   5.933  1.0487 -0.8177 -1.5783
  167SAPS   C3818914   6.156  -0.399   5.864  0.1068 -0.1252  0.5175
  167SAPS   H8X18915   6.176  -0.508   5.873 -1.8342 -0.8800 -2.6997
  167SAPS   H8Y18916   6.250  -0.343   5.886 -0.8799  1.5329  0.7102
  167SAPS   C3918917   6.140  -0.374   5.710  0.1829 -0.3113  0.5604
  167SAPS   H9X18918   6.143  -0.265   5.692  0.1551 -0.6283 -1.6276
  167SAPS   H9Y18919   6.043  -0.409   5.671 -0.0953 -0.0100  0.9749
  167SAPS  C31018920   6.250  -0.437   5.636  0.2711 -0.5459 -0.2005
  167SAPS  H10X18921   6.349  -0.415   5.681  0.3721 -0.7792 -0.3094
  167SAPS  H10Y18922   6.248  -0.386   5.537 -3.4171  0.9758  0.5025
  167SAPS  C31118923   6.227  -0.590   5.607  0.1032 -0.3460 -0.0791
  167SAPS  H11X18924   6.158  -0.609   5.521  0.2718  1.4355 -0.6334
  167SAPS  H11Y18925   6.181  -0.633   5.699  2.3908 -0.1689  1.2219
  167SAPS  C31218926   6.364  -0.657   5.587  0.7098 -0.0674  0.0428
  167SAPS  H12X18927   6.410  -0.647   5.688 -1.6221 -0.6168  1.2304
  167SAPS  H12Y18928   6.422  -0.607   5.506 -1.3440 -2.6247 -3.2347
  167SAPS  C31318929   6.360  -0.806   5.542 -0.5733 -0.1359  0.6204
  167SAPS  H13X18930   6.270  -0.831   5.483 -1.3515  2.0895  0.7454
  167SAPS  H13Y18931   6.337  -0.871   5.629  0.6917 -1.1931  0.1935
  167SAPS  C31418932   6.485  -0.858   5.472  0.2675  0.0031 -0.1722
  167SAPS  H14X18933   6.492  -0.968   5.490  4.0642 -0.1517 -1.6707
  167SAPS  H14Y18934   6.580  -0.818   5.514  0.8929  0.9407 -2.3102
  167SAPS  C31518935   6.496  -0.852   5.319 -0.4258  0.1745 -0.0180
  167SAPS  H15X18936   6.493  -0.745   5.288 -1.5368 -0.1092 -0.9356
  167SAPS  H15Y18937   6.399  -0.893   5.282 -2.0744  2.1757  1.7675
  167SAPS  C31618938   6.618  -0.923   5.261  0.7652  0.5852  0.2132
  167SAPS  H16X18939   6.632  -1.028   5.295  1.0775  1.1742  1.9575
  167SAPS  H16Y18940   6.706  -0.871   5.304  1.6561 -1.1981  0.6600
  167SAPS  C31718941   6.627  -0.893   5.109 -1.2151 -0.0430 -0.2348
  167SAPS  H17X18942   6.589  -0.792   5.084  0.6172  0.5469 -0.8181
  167SAPS  H17Y18943   6.558  -0.961   5.056 -1.2351 -0.2487  0.0524
  167SAPS  C31818944   6.767  -0.906   5.050  0.4375  0.1026  0.0759
  167SAPS  H18X18945   6.833  -0.819   5.071  1.6763 -0.6683 -0.5317
  167SAPS  H18Y18946   6.755  -0.930   4.943  1.5499 -1.9685  0.3670
  167SAPS  H18Z18947   6.809  -1.001   5.089 -2.6532 -1.7594 -0.7569
  168SAPS     N18948   4.399   6.176   7.416 -0.1680  0.3267  0.7458
  168SAPS   HN118949   4.311   6.182   7.360 -0.1028  0.4147  0.6530
  168SAPS   HN218950   4.466   6.241   7.370 -0.1335  1.7014  2.5938
  168SAPS   HN318951   4.425   6.078   7.393 -3.1076 -0.0184 -1.6882
  168SAPS   C1218952   4.382   6.212   7.557  0.7784  0.3595  0.0701
  168SAPS  H12A18953   4.306   6.142   7.589  0.1750  0.1041 -1.8213
  168SAPS   C1318954   4.503   6.181   7.646  0.4947  0.4532 -0.1769
  168SAPS  O13A18955   4.593   6.104   7.598  0.1458 -0.0780 -0.1515
  168SAPS  O13B18956   4.507   6.225   7.767  0.5352  0.7392  0.0669
  168SAPS   C1118957   4.348   6.359   7.578  0.1401 -0.7003  0.2598
  168SAPS  H11A18958   4.432   6.429   7.555  0.5105 -0.5006  2.0891
  168SAPS  H11B18959   4.315   6.379   7.682 -0.0689  1.7031 -0.2028
  168SAPS     P18960   4.184   6.540   7.494 -0.0177 -0.2691 -0.4594
  168SAPS   O1318961   4.076   6.548   7.602 -0.4230  0.2657 -0.0093
  168SAPS   O1418962   4.296   6.638   7.504 -0.4371  0.1383 -0.3636
  168SAPS   O1218963   4.234   6.387   7.500 -0.1281  0.0391  1.1553
  168SAPS   O1118964   4.122   6.562   7.355  0.0260 -0.8060  1.0111
  168SAPS    C118965   4.020   6.466   7.311  0.3737 -0.3776  0.3748
  168SAPS    HA18966   4.032   6.373   7.370 -0.3025 -0.2733  0.6842
  168SAPS    HB18967   3.918   6.507   7.327  1.1065  2.5069 -1.4955
  168SAPS    C218968   4.022   6.439   7.163  0.0077 -0.1833  0.2252
  168SAPS    HS18969   4.128   6.408   7.148  0.0141 -0.0096 -0.0806
  168SAPS   O2118970   3.970   6.547   7.076  0.2334 -0.2682  0.0608
  168SAPS   C2118971   4.059   6.601   6.988  0.6520 -0.3236  0.4813
  168SAPS   O2218972   4.175   6.570   6.974  0.0238 -0.1904 -0.2450
  168SAPS   C2218973   3.989   6.708   6.911 -0.5321 -0.4672  0.1940
  168SAPS   H2R18974   3.913   6.669   6.840 -0.2989 -3.1845  1.3067
  168SAPS   H2S18975   3.935   6.769   6.988  0.9573 -0.2534  1.1107
  168SAPS    C318976   3.927   6.324   7.133 -0.7948 -0.2666  1.5666
  168SAPS    HX18977   3.824   6.352   7.164 -1.6005 -3.1815  1.8176
  168SAPS    HY18978   3.946   6.235   7.196  2.4757 -0.1847  0.8421
  168SAPS   O3118979   3.916   6.288   6.993 -0.0523  0.0140  0.2646
  168SAPS   C3118980   4.001   6.199   6.956 -0.0966 -0.2987  0.7574
  168SAPS   O3218981   4.067   6.124   7.025 -0.5570  0.6585 -0.0472
  168SAPS   C3218982   4.003   6.184   6.801 -0.2326 -0.1076 -0.2204
  168SAPS   H2X18983   3.902   6.148   6.771  0.5450 -2.1721 -0.5329
  168SAPS   H2Y18984   4.077   6.104   6.780  1.1801  0.7927  1.1137
  168SAPS   C2318985   4.082   6.810   6.839 -0.0444 -0.0712  0.1246
  168SAPS   H3R18986   4.160   6.848   6.909 -0.2880 -0.7864  0.7909
  168SAPS   H3S18987   4.029   6.903   6.811  0.4967  0.0891 -0.4059
  168SAPS   C2418988   4.148   6.750   6.717  0.0075 -0.3746  0.1309
  168SAPS   H4R18989   4.185   6.646   6.726  1.5278  0.1176 -0.1414
  168SAPS   H4S18990   4.245   6.803   6.707  1.0606 -2.3788 -0.8122
  168SAPS   C2518991   4.058   6.767   6.594  0.8955 -0.2473 -0.5858
  168SAPS   H5R18992   3.970   6.702   6.595 -1.0979  2.3222 -0.0069
  168SAPS   C2618993   4.070   6.862   6.496  0.2217  0.5039 -0.4381
  168SAPS   H6R18994   4.001   6.857   6.410  2.7067 -3.4220 -2.4805
  168SAPS   C2718995   4.185   6.953   6.485 -0.5809  0.8037 -0.3172
  168SAPS   H7R18996   4.266   6.912   6.422  1.1778  1.8186  1.1864
  168SAPS   H7S18997   4.239   6.965   6.582  0.3595  0.3074 -0.7680
  168SAPS   C2818998   4.155   7.093   6.434 -0.3129 -0.0464 -0.3199
  168SAPS   H8R18999   4.102   7.150   6.513 -1.7553  0.0343 -1.3037
  168SAPS   C2919000   4.182   7.156   6.323  0.4139 -0.2567  0.1279
  168SAPS   H9R19001   4.148   7.260   6.321 -2.6169 -1.1356 -1.8496
  168SAPS  C21019002   4.246   7.100   6.194  0.1561 -0.2630  0.1058
  168SAPS  H10R19003   4.324   7.028   6.228  0.4752  0.4822  0.9881
  168SAPS  H10S19004   4.299   7.184   6.145  1.4895 -0.5029  1.0890
  168SAPS  C21119005   4.149   7.037   6.094  0.5805  0.0659 -0.0108
  168SAPS  H11R19006   4.053   6.999   6.132  0.2257 -0.6018 -1.4874
  168SAPS  C21219007   4.169   7.027   5.956  0.3135 -1.2203  0.1856
  168SAPS  H12R19008   4.089   6.970   5.907  0.9397 -0.5948 -1.6786
  168SAPS  C21319009   4.283   7.069   5.866 -0.1797 -1.0315  0.3834
  168SAPS  H13R19010   4.346   7.142   5.920  1.2428  0.1398 -2.6096
  168SAPS  H13S19011   4.243   7.136   5.787  2.5155  1.1640  0.7140
  168SAPS  C21419012   4.369   6.956   5.820 -0.3120  0.2173  0.6186
  168SAPS  H14R19013   4.399   6.882   5.896  1.4094  0.6225  0.3723
  168SAPS  C21519014   4.421   6.942   5.699 -0.6207 -0.4677  0.5228
  168SAPS  H15R19015   4.502   6.872   5.675  0.7736  0.7693  1.4699
  168SAPS  C21619016   4.414   7.041   5.588  0.6484 -0.5052  0.6955
  168SAPS  H16R19017   4.511   7.038   5.534  0.9868  0.9636  1.1684
  168SAPS  H16S19018   4.410   7.145   5.626  2.7456  0.0068 -0.3346
  168SAPS  C21719019   4.309   7.014   5.485 -0.3743  0.6628  0.1709
  168SAPS  H17R19020   4.208   7.042   5.521 -0.4119  0.2486  0.3971
  168SAPS  H17S19021   4.303   6.906   5.462  0.9086  0.5398  0.3466
  168SAPS  C21819022   4.332   7.087   5.352 -1.0054  0.1734 -0.0906
  168SAPS  H18R19023   4.432   7.071   5.306 -0.4414 -0.1101  1.1899
  168SAPS  H18S19024   4.314   7.196   5.359  0.0336  0.3962 -0.6622
  168SAPS  C21919025   4.235   7.046   5.239 -0.2338  0.2534  0.7585
  168SAPS  H19R19026   4.253   6.939   5.218  0.0343  0.8071 -2.2312
  168SAPS  H19S19027   4.258   7.096   5.143 -0.5387 -1.2053 -0.1056
  168SAPS  C22019028   4.088   7.060   5.267  0.3361  0.3743  0.3619
  168SAPS  H20R19029   4.040   6.980   5.328 -1.3797  0.8328 -0.3271
  168SAPS  H20S19030   4.038   7.058   5.168  0.1908 -4.1115  0.3594
  168SAPS  H20T19031   4.062   7.155   5.320 -0.1775 -0.3138  1.3754
  168SAPS   C3319032   4.042   6.322   6.732 -0.0914  0.3226 -0.7849
  168SAPS   H3X19033   4.129   6.365   6.786 -0.2882 -1.9316  1.4734
  168SAPS   H3Y19034   3.958   6.394   6.741 -0.4242 -0.2092  0.4712
  168SAPS   C3419035   4.091   6.281   6.593 -0.9788 -0.2001  0.7181
  168SAPS   H4X19036   4.060   6.183   6.551  0.8070 -0.5786  0.1560
  168SAPS   H4Y19037   4.199   6.254   6.604 -0.9893 -0.8155 -0.4760
  168SAPS   C3519038   4.073   6.389   6.483 -0.3116  0.0424  1.0666
  168SAPS   H5X19039   4.098   6.492   6.519  0.5409  0.4344 -0.5681
  168SAPS   H5Y19040   3.969   6.393   6.444  0.0769 -1.5563 -0.2003
  168SAPS   C3619041   4.162   6.362   6.355  0.0606  0.5783 -0.2371
  168SAPS   H6X19042   4.155   6.256   6.323  1.1775  1.0347 -2.1074
  168SAPS   H6Y19043   4.270   6.367   6.380  0.0666 -2.5641  0.8151
  168SAPS   C3719044   4.141   6.457   6.240  0.2591 -0.5040  0.2211
  168SAPS   H7X19045   4.210   6.435   6.156  1.4548  0.2380  0.9738
  168SAPS   H7Y19046   4.170   6.558   6.275  0.8785  0.0811 -1.8572
  168SAPS   C3819047   4.004   6.474   6.174  0.1022  0.4385  0.2398
  168SAPS   H8X19048   3.938   6.511   6.255 -0.3604 -2.4073  1.2723
  168SAPS   H8Y19049   3.973   6.373   6.141 -0.1913  0.1929  1.2309
  168SAPS   C3919050   4.003   6.567   6.049 -0.0616  0.3746 -0.5486
  168SAPS   H9X19051   4.045   6.666   6.079  1.4249 -0.2631 -0.4088
  168SAPS   H9Y19052   3.903   6.577   6.003 -0.0050 -0.7799 -0.9522
  168SAPS  C31019053   4.084   6.513   5.929 -0.7939 -0.3073  0.1508
  168SAPS  H10X19054   4.042   6.417   5.892  2.3709 -1.4201 -0.9092
  168SAPS  H10Y19055   4.190   6.492   5.954 -0.6059 -0.7100 -0.9317
  168SAPS  C31119056   4.069   6.613   5.814 -0.8696  0.3072  0.0325
  168SAPS  H11X19057   4.113   6.711   5.845  0.9003 -0.5045  0.1749
  168SAPS  H11Y19058   3.962   6.637   5.792 -0.4764  0.7241 -1.5422
  168SAPS  C31219059   4.150   6.557   5.693  0.2698  0.5687  0.0384
  168SAPS  H12X19060   4.111   6.453   5.684  2.3395 -0.2980  0.4504
  168SAPS  H12Y19061   4.256   6.553   5.728  0.8815  1.0115 -1.6883
  168SAPS  C31319062   4.132   6.644   5.567  0.0569 -0.0528 -0.5037
  168SAPS  H13X19063   4.218   6.644   5.497  1.4406 -2.2208  1.0576
  168SAPS  H13Y19064   4.141   6.741   5.620 -1.9329 -0.1571  0.1261
  168SAPS  C31419065   3.997   6.626   5.501  0.1957  0.3573 -0.3355
  168SAPS  H14X19066   3.970   6.716   5.441  0.9193  0.4004 -0.6017
  168SAPS  H14Y19067   3.930   6.615   5.589  1.3319  0.3388  0.5510
  168SAPS  C31519068   3.987   6.513   5.404 -0.4899 -0.0987  0.1165
  168SAPS  H15X19069   3.884   6.519   5.363 -0.5971 -0.6913  0.2861
  168SAPS  H15Y19070   4.003   6.417   5.457  1.9048  0.2534  0.1168
  168SAPS  C31619071   4.074   6.517   5.275  0.7909  0.1065 -0.0873
  168SAPS  H16X19072   4.064   6.423   5.217 -1.2180  0.3643 -0.2366
  168SAPS  H16Y19073   4.180   6.526   5.305  0.5482 -0.5252  1.0457
  168SAPS  C31719074   4.046   6.628   5.166 -0.6590 -0.2526 -0.6841
  168SAPS  H17X19075   4.147   6.658   5.133 -0.4805 -0.4386 -0.3152
  168SAPS  H17Y19076   4.007   6.716   5.223  0.6612  0.6238 -1.0903
  168SAPS  C31819077   3.958   6.603   5.054 -0.5963 -0.3521  0.9005
  168SAPS  H18X19078   4.007   6.539   4.977 -1.0532  2.0049 -1.4986
  168SAPS  H18Y19079   3.944   6.703   5.009  3.2170 -0.5410 -1.0608
  168SAPS  H18Z19080   3.858   6.568   5.087 -0.5988 -0.8531  0.3854
  169SAPS     N19081   6.656   0.539   7.732 -0.3474 -0.6016 -0.3493
  169SAPS   HN119082   6.718   0.468   7.776  0.0170  0.3852  0.7831
  169SAPS   HN219083   6.707   0.615   7.683  0.8920  0.1594  1.9726
  169SAPS   HN319084   6.595   0.590   7.799  0.1221  1.5477 -1.4845
  169SAPS   C1219085   6.560   0.476   7.634 -0.1913 -0.9029 -0.1605
  169SAPS  H12A19086   6.633   0.432   7.567  3.0097  1.5885  1.4001
  169SAPS   C1319087   6.467   0.370   7.696 -0.3429 -0.2143 -0.2570
  169SAPS  O13A19088   6.486   0.334   7.819  0.4862  0.5564  0.2280
  169SAPS  O13B19089   6.399   0.299   7.619 -0.0882  0.2918  0.9653
  169SAPS   C1119090   6.475   0.587   7.563 -0.4684  0.0211 -0.2864
  169SAPS  H11A19091   6.418   0.633   7.647 -2.8717 -2.2322 -0.5583
  169SAPS  H11B19092   6.392   0.548   7.500 -0.5282 -0.6438  0.2003
  169SAPS     P19093   6.586   0.643   7.339  0.0769 -0.0702 -0.1464
  169SAPS   O1319094   6.589   0.501   7.313  0.6005 -0.4240  0.1605
  169SAPS   O1419095   6.483   0.715   7.262 -0.4510 -0.9389  0.2155
  169SAPS   O1219096   6.567   0.676   7.491  0.2682 -0.2432  0.0635
  169SAPS   O1119097   6.726   0.702   7.313 -0.5732  0.4703 -0.2160
  169SAPS    C119098   6.741   0.840   7.275  0.0175 -0.3073  0.0484
  169SAPS    HA19099   6.672   0.898   7.341 -0.9776  0.8400 -1.9143
  169SAPS    HB19100   6.841   0.871   7.312 -0.2665  0.3244  0.3027
  169SAPS    C219101   6.736   0.857   7.121  0.0903 -0.3637 -0.2435
  169SAPS    HS19102   6.635   0.823   7.090 -0.5340 -0.3184  1.5993
  169SAPS   O2119103   6.837   0.774   7.071  0.0046  0.0982 -0.1112
  169SAPS   C2119104   6.820   0.712   6.950  0.0266  0.1671 -0.2356
  169SAPS   O2219105   6.720   0.713   6.884  0.3638  0.4094  0.0864
  169SAPS   C2219106   6.953   0.643   6.908  0.0660 -1.0327  0.4163
  169SAPS   H2R19107   7.035   0.718   6.912 -0.6684 -0.2266  0.7598
  169SAPS   H2S19108   6.969   0.579   6.997 -1.8549 -2.3815 -0.1438
  169SAPS    C319109   6.749   1.013   7.079  0.4491  0.5286  0.0428
  169SAPS    HX19110   6.839   1.049   7.133 -1.7429  1.1951  3.6280
  169SAPS    HY19111   6.674   1.077   7.130 -0.6561 -2.0318  1.8826
  169SAPS   O3119112   6.749   1.027   6.936  0.2710 -0.5811  0.5187
  169SAPS   C3119113   6.631   1.009   6.887  0.8221  0.6171  0.2971
  169SAPS   O3219114   6.526   1.006   6.952 -0.5374 -0.3493  0.0888
  169SAPS   C3219115   6.642   0.981   6.732  0.1225  0.0639 -0.5814
  169SAPS   H2X19116   6.544   1.026   6.705 -1.0068 -0.2493  2.6132
  169SAPS   H2Y19117   6.632   0.872   6.711 -1.7816  0.0211  0.2638
  169SAPS   C2319118   6.941   0.564   6.777  0.3039 -0.1629 -0.4777
  169SAPS   H3R19119   6.945   0.623   6.683  0.2237  0.7175  0.0578
  169SAPS   H3S19120   6.847   0.506   6.782  0.8173 -0.9297  1.0229
  169SAPS   C2419121   7.057   0.464   6.768  0.7067  0.0715  0.0007
  169SAPS   H4R19122   7.025   0.401   6.682 -0.6813  1.4661 -0.5530
  169SAPS   H4S19123   7.046   0.392   6.852 -0.4707 -1.7001 -1.5775
  169SAPS   C2519124   7.196   0.522   6.764 -0.1904  0.2999 -0.0779
  169SAPS   H5R19125   7.244   0.536   6.862 -1.1530 -0.4111  0.5169
  169SAPS   C2619126   7.270   0.537   6.649  0.3771  0.2475 -0.5965
  169SAPS   H6R19127   7.374   0.565   6.667  0.1886  0.4387  0.2372
  169SAPS   C2719128   7.213   0.524   6.507 -0.0215  0.8862  0.5854
  169SAPS   H7R19129   7.271   0.607   6.461 -0.0388  1.5867  1.7821
  169SAPS   H7S19130   7.108   0.559   6.501 -0.5486 -0.8582 -2.5871
  169SAPS   C2819131   7.236   0.392   6.448 -0.3887  0.3567 -0.1154
  169SAPS   H8R19132   7.228   0.299   6.505  2.2373 -0.0689 -0.3076
  169SAPS   C2919133   7.284   0.376   6.321 -0.6916  1.1856  0.0023
  169SAPS   H9R19134   7.290   0.273   6.282 -0.1772  1.8133 -1.6506
  169SAPS  C21019135   7.307   0.464   6.202  0.1620  0.4527 -0.8162
  169SAPS  H10R19136   7.259   0.564   6.219  0.9767  0.8775 -0.9830
  169SAPS  H10S19137   7.258   0.417   6.114  1.2836  2.0241 -2.3455
  169SAPS  C21119138   7.454   0.479   6.195  0.6488 -0.1298 -0.6592
  169SAPS  H11R19139   7.505   0.507   6.289  2.2474  0.0448 -1.5503
  169SAPS  C21219140   7.529   0.456   6.088  0.9074 -0.2474 -0.5177
  169SAPS  H12R19141   7.634   0.480   6.112  1.0703 -1.1304 -0.3025
  169SAPS  C21319142   7.493   0.416   5.948 -0.1861  0.7870 -0.9386
  169SAPS  H13R19143   7.385   0.396   5.932 -1.0367  3.2709  1.0745
  169SAPS  H13S19144   7.551   0.322   5.941 -1.4677 -0.2839  1.5552
  169SAPS  C21419145   7.531   0.510   5.833 -0.5294 -0.2579  0.0988
  169SAPS  H14R19146   7.476   0.605   5.828  1.0677  0.6317 -1.5072
  169SAPS  C21519147   7.648   0.505   5.764  0.0165 -0.2608  0.2772
  169SAPS  H15R19148   7.680   0.590   5.702 -3.4853  1.9953  1.2995
  169SAPS  C21619149   7.745   0.388   5.774 -0.4243 -0.0158 -0.5441
  169SAPS  H16R19150   7.680   0.298   5.765 -1.6259  0.6550  1.0388
  169SAPS  H16S19151   7.788   0.379   5.876  0.7812  0.4467 -0.9976
  169SAPS  C21719152   7.861   0.397   5.672  0.9869 -0.4126  0.6203
  169SAPS  H17R19153   7.922   0.316   5.718  0.3174 -1.3094 -0.0540
  169SAPS  H17S19154   7.915   0.493   5.690 -0.5441  0.7254 -0.5252
  169SAPS  C21819155   7.836   0.364   5.528  0.1317 -0.0109  0.2156
  169SAPS  H18R19156   7.806   0.257   5.538  2.0614 -0.5800  0.3098
  169SAPS  H18S19157   7.927   0.362   5.465 -0.3566  0.8968 -0.5476
  169SAPS  C21919158   7.722   0.445   5.451 -0.0071  0.0203 -0.4053
  169SAPS  H19R19159   7.761   0.548   5.435  0.2629 -0.1302 -0.7201
  169SAPS  H19S19160   7.627   0.436   5.507  0.1160  0.4476 -0.1229
  169SAPS  C22019161   7.703   0.387   5.310 -0.3608 -0.2091 -0.5288
  169SAPS  H20R19162   7.625   0.307   5.317 -0.6320 -0.0193 -1.3622
  169SAPS  H20S19163   7.794   0.357   5.255  0.0403 -0.8896  0.4681
  169SAPS  H20T19164   7.649   0.463   5.250  0.4974 -0.8524 -2.1772
  169SAPS   C3319165   6.764   1.028   6.659 -0.4332  0.0566  0.1341
  169SAPS   H3X19166   6.840   0.949   6.678 -1.4985 -1.6503 -2.2540
  169SAPS   H3Y19167   6.789   1.129   6.697  0.3983  0.1208 -0.5779
  169SAPS   C3419168   6.758   1.036   6.504  0.0255 -0.1970 -0.3367
  169SAPS   H4X19169   6.854   1.087   6.478  0.4598 -0.7154  0.2298
  169SAPS   H4Y19170   6.674   1.096   6.462 -0.1590 -0.9471 -1.0583
  169SAPS   C3519171   6.765   0.897   6.432  0.6866  0.0124 -0.6033
  169SAPS   H5X19172   6.670   0.847   6.460 -1.3631  3.0797 -1.4804
  169SAPS   H5Y19173   6.847   0.843   6.482 -1.9975 -3.7468  0.1717
  169SAPS   C3619174   6.772   0.896   6.279  0.5901 -0.3910 -0.2412
  169SAPS   H6X19175   6.871   0.933   6.246 -0.1328  0.9805 -0.9557
  169SAPS   H6Y19176   6.696   0.961   6.231 -0.5465  0.0741  2.0213
  169SAPS   C3719177   6.745   0.759   6.211 -0.6442 -0.4221  0.1875
  169SAPS   H7X19178   6.639   0.740   6.238 -0.2626 -0.5025  1.7570
  169SAPS   H7Y19179   6.807   0.683   6.264 -1.8865 -1.8318 -0.3142
  169SAPS   C3819180   6.777   0.762   6.060 -0.8335  0.9635 -0.1124
  169SAPS   H8X19181   6.780   0.653   6.038  1.6349  1.1089 -0.8398
  169SAPS   H8Y19182   6.882   0.797   6.048  1.0355 -4.0898 -0.9619
  169SAPS   C3919183   6.682   0.859   5.989  0.7450  0.3091  0.0804
  169SAPS   H9X19184   6.708   0.962   6.023  4.1975 -0.2652 -0.4571
  169SAPS   H9Y19185   6.576   0.840   6.018  0.6854  2.0780  1.1780
  169SAPS  C31019186   6.689   0.860   5.829  0.3201 -0.2053  0.0527
  169SAPS  H10X19187   6.669   0.755   5.798  0.3468 -0.3055  0.3710
  169SAPS  H10Y19188   6.794   0.885   5.802 -0.3067 -0.3276 -2.8247
  169SAPS  C31119189   6.587   0.948   5.767 -0.1149 -0.1502 -0.0208
  169SAPS  H11X19190   6.599   1.057   5.788  0.5288  0.0888 -1.5316
  169SAPS  H11Y19191   6.487   0.921   5.808 -0.8135  0.3629 -1.3494
  169SAPS  C31219192   6.585   0.943   5.612  0.0060 -0.0965  0.2900
  169SAPS  H12X19193   6.655   1.023   5.581 -0.8022  0.7553  0.6033
  169SAPS  H12Y19194   6.483   0.979   5.589  0.4839  0.9199 -0.2789
  169SAPS  C31319195   6.610   0.806   5.549  0.1659 -0.1940 -0.3931
  169SAPS  H13X19196   6.533   0.733   5.582  0.2917 -0.4669 -0.6858
  169SAPS  H13Y19197   6.708   0.763   5.579 -0.7127 -0.7044  1.9193
  169SAPS  C31419198   6.604   0.802   5.397  0.1720 -0.5338 -0.6456
  169SAPS  H14X19199   6.651   0.708   5.361 -0.2870 -0.1538 -2.3229
  169SAPS  H14Y19200   6.666   0.881   5.349  0.3613 -0.5896 -0.4950
  169SAPS  C31519201   6.460   0.792   5.341  0.1171  0.3755  0.5822
  169SAPS  H15X19202   6.399   0.881   5.369  0.1311  1.1643 -1.7112
  169SAPS  H15Y19203   6.417   0.705   5.395 -3.1892  1.2202 -0.3960
  169SAPS  C31619204   6.450   0.756   5.196 -0.2841  0.9411 -0.6055
  169SAPS  H16X19205   6.349   0.721   5.163 -0.1783  0.9662 -0.9564
  169SAPS  H16Y19206   6.527   0.679   5.174  0.7781  2.0623 -0.8923
  169SAPS  C31719207   6.481   0.875   5.099  0.0177 -0.5380 -0.8756
  169SAPS  H17X19208   6.584   0.903   5.129 -1.2522  1.3527  2.2574
  169SAPS  H17Y19209   6.420   0.964   5.125 -1.8666 -1.5879 -1.4269
  169SAPS  C31819210   6.475   0.850   4.946  0.1520  0.1379 -0.7352
  169SAPS  H18X19211   6.482   0.944   4.887 -3.1212  0.3527 -0.9473
  169SAPS  H18Y19212   6.373   0.810   4.925  1.1156 -2.6151 -0.5097
  169SAPS  H18Z19213   6.553   0.774   4.925  2.0243  0.7766  2.9883
  170SAPS     N19214   0.916   5.947   7.125 -0.0154 -0.2605 -0.9399
  170SAPS   HN119215   0.927   5.906   7.030 -1.7995 -2.2162 -0.3957
  170SAPS   HN219216   0.951   5.882   7.199  1.5174  2.2200  0.6456
  170SAPS   HN319217   0.816   5.961   7.149  0.0477  0.1774 -0.9322
  170SAPS   C1219218   0.964   6.085   7.159 -0.6836  0.8591 -0.1241
  170SAPS  H12A19219   0.919   6.153   7.087  1.1928  0.0116 -2.2350
  170SAPS   C1319220   0.946   6.119   7.303  0.2330 -0.6859  0.3668
  170SAPS  O13A19221   0.889   6.042   7.386 -0.7022  0.2035 -0.4136
  170SAPS  O13B19222   0.989   6.229   7.345  0.3506  0.5676 -0.2325
  170SAPS   C1119223   1.120   6.087   7.129  0.8604  0.8811  0.2081
  170SAPS  H11A19224   1.168   6.021   7.205 -0.5481 -0.0695  0.3090
  170SAPS  H11B19225   1.148   6.192   7.148 -1.2441  1.2333  1.7007
  170SAPS     P19226   1.290   5.996   6.948  0.1098  0.0272 -0.1194
  170SAPS   O1319227   1.406   6.089   6.958 -0.1924  0.4019 -0.1488
  170SAPS   O1419228   1.308   5.869   7.022  0.0126 -0.3513 -0.1436
  170SAPS   O1219229   1.153   6.059   6.989 -0.3817 -0.9258 -0.0807
  170SAPS   O1119230   1.271   5.967   6.795 -0.2969  0.0542 -0.7130
  170SAPS    C119231   1.164   5.875   6.759 -0.0128  0.1619  0.2359
  170SAPS    HA19232   1.084   5.857   6.834 -1.1454 -1.2376 -1.2414
  170SAPS    HB19233   1.113   5.907   6.666  1.2521  1.5799 -0.0234
  170SAPS    C219234   1.226   5.731   6.718 -0.4812  0.8708  0.3176
  170SAPS    HS19235   1.299   5.715   6.800  1.0648 -0.4115 -1.2143
  170SAPS   O2119236   1.286   5.729   6.581  0.9188  0.2881 -0.0628
  170SAPS   C2119237   1.406   5.777   6.575 -0.4084  0.1919  0.5212
  170SAPS   O2219238   1.471   5.812   6.669  0.2716 -0.2035 -0.1467
  170SAPS   C2219239   1.450   5.760   6.433 -0.4340 -0.0195 -0.1740
  170SAPS   H2R19240   1.451   5.653   6.403  2.2330  0.3675 -1.8685
  170SAPS   H2S19241   1.376   5.820   6.375  0.9360  0.6593 -1.3114
  170SAPS    C319242   1.115   5.613   6.726  0.5609 -0.4179 -0.8349
  170SAPS    HX19243   1.095   5.595   6.834  0.3488 -0.8376 -0.9435
  170SAPS    HY19244   1.174   5.530   6.683  1.0979 -0.1305 -0.6720
  170SAPS   O3119245   0.995   5.639   6.653  0.3490  0.2492 -0.2074
  170SAPS   C3119246   0.937   5.543   6.586 -0.0106  0.5055  0.1773
  170SAPS   O3219247   0.955   5.421   6.593  0.3030 -0.1825 -0.0773
  170SAPS   C3219248   0.823   5.610   6.518 -0.4853  0.7905  0.1927
  170SAPS   H2X19249   0.774   5.679   6.590  1.3607  1.0126  1.2955
  170SAPS   H2Y19250   0.752   5.531   6.487  1.5754 -0.7865 -0.7240
  170SAPS   C2319251   1.588   5.825   6.390  0.2577  0.0565  0.3927
  170SAPS   H3R19252   1.661   5.764   6.447 -1.9055 -1.5281  1.6082
  170SAPS   H3S19253   1.583   5.931   6.424  0.9040  1.0084 -2.2251
  170SAPS   C2419254   1.606   5.830   6.238  0.7417 -0.3015 -0.5584
  170SAPS   H4R19255   1.517   5.862   6.180  0.1904 -1.4940 -0.4127
  170SAPS   H4S19256   1.620   5.731   6.190 -1.6291 -0.0534 -1.9208
  170SAPS   C2519257   1.718   5.921   6.206  0.2619 -0.2913 -0.8439
  170SAPS   H5R19258   1.785   5.933   6.293 -3.5241  2.4035  2.0395
  170SAPS   C2619259   1.753   5.984   6.094  0.3691 -0.4065  0.2215
  170SAPS   H6R19260   1.854   6.029   6.087  0.4080 -0.5800 -0.4134
  170SAPS   C2719261   1.673   5.983   5.968  0.3001  0.1440 -0.0986
  170SAPS   H7R19262   1.717   6.062   5.903  1.1917 -1.2156 -1.2211
  170SAPS   H7S19263   1.569   6.000   6.002  0.7291  4.4101 -0.4240
  170SAPS   C2819264   1.689   5.853   5.899 -0.3147 -0.2266  0.3913
  170SAPS   H8R19265   1.668   5.767   5.965 -1.7884  0.7433  1.2446
  170SAPS   C2919266   1.720   5.827   5.770  0.1741  0.6722  0.5939
  170SAPS   H9R19267   1.746   5.724   5.741  2.7860  0.1849  3.9122
  170SAPS  C21019268   1.748   5.941   5.668 -0.8191 -0.5149  0.0502
  170SAPS  H10R19269   1.672   6.022   5.669 -0.9174 -0.5365 -1.7070
  170SAPS  H10S19270   1.745   5.895   5.566 -0.4288 -3.8887  1.4344
  170SAPS  C21119271   1.892   6.002   5.673 -0.2649  0.0078 -0.2536
  170SAPS  H11R19272   1.934   6.043   5.766  0.6922 -0.3132 -0.5265
  170SAPS  C21219273   1.987   6.004   5.571 -0.2460  0.6012 -0.0534
  170SAPS  H12R19274   2.080   6.042   5.615 -0.3355 -3.5330  4.6393
  170SAPS  C21319275   1.986   5.949   5.429 -0.0369  0.3764 -0.2043
  170SAPS  H13R19276   1.924   5.857   5.424  2.1031 -1.1417 -0.6274
  170SAPS  H13S19277   2.089   5.924   5.394 -0.9395 -1.7406 -1.5490
  170SAPS  C21419278   1.920   6.053   5.339 -0.6422 -0.4613  0.5261
  170SAPS  H14R19279   1.915   6.157   5.376  0.9591  0.2416 -1.0820
  170SAPS  C21519280   1.889   6.041   5.209 -0.1197 -0.5860  0.4003
  170SAPS  H15R19281   1.843   6.132   5.169  1.2519  0.5363  1.2897
  170SAPS  C21619282   1.896   5.915   5.118  0.1127 -0.4111  0.6424
  170SAPS  H16R19283   1.795   5.868   5.123 -2.4639  4.4389  0.6982
  170SAPS  H16S19284   1.955   5.834   5.164 -2.4806 -2.8169  0.0044
  170SAPS  C21719285   1.927   5.966   4.974  0.1134  1.1716  0.9072
  170SAPS  H17R19286   1.852   6.045   4.952  2.7793  3.1261 -2.1167
  170SAPS  H17S19287   1.910   5.886   4.899 -1.4976  1.2089  1.1904
  170SAPS  C21819288   2.066   6.029   4.953  0.0150  0.3013  0.1861
  170SAPS  H18R19289   2.145   5.960   4.992 -1.6863 -3.3430 -2.2294
  170SAPS  H18S19290   2.063   6.123   5.011  0.1814 -1.0446  2.5129
  170SAPS  C21919291   2.090   6.081   4.809 -0.0777 -0.0639  0.1070
  170SAPS  H19R19292   2.184   6.139   4.797 -0.8594  1.0674 -0.7033
  170SAPS  H19S19293   2.008   6.155   4.798  0.1265  0.2936  0.8831
  170SAPS  C22019294   2.087   5.975   4.698  0.4937  0.3965 -0.7240
  170SAPS  H20R19295   1.990   5.922   4.706  1.6445 -1.6242  0.9463
  170SAPS  H20S19296   2.176   5.909   4.706 -0.0065 -0.4664 -1.9795
  170SAPS  H20T19297   2.088   6.016   4.594  1.5079  1.7463 -0.2164
  170SAPS   C3319298   0.876   5.678   6.393 -0.1634 -0.0097 -0.3282
  170SAPS   H3X19299   0.945   5.762   6.414 -0.4725 -0.0415  0.9023
  170SAPS   H3Y19300   0.789   5.728   6.345 -0.1282 -0.0498 -0.4339
  170SAPS   C3419301   0.934   5.590   6.279 -0.9413  0.6156 -0.0806
  170SAPS   H4X19302   0.840   5.542   6.245  0.9815 -3.2736 -0.4943
  170SAPS   H4Y19303   1.000   5.512   6.325 -0.3997  2.1777  1.9666
  170SAPS   C3519304   0.996   5.667   6.164 -0.4216 -0.3561  0.0716
  170SAPS   H5X19305   0.959   5.772   6.156  1.3980  0.4962  2.0917
  170SAPS   H5Y19306   0.966   5.621   6.067 -1.7954  0.5434  0.0370
  170SAPS   C3619307   1.141   5.686   6.181  0.2380 -0.2258 -0.4357
  170SAPS   H6X19308   1.198   5.590   6.180  2.2324  0.8433  1.4261
  170SAPS   H6Y19309   1.159   5.741   6.276  1.7247 -3.2247  1.1658
  170SAPS   C3719310   1.197   5.779   6.068  0.2524 -0.1398  0.3137
  170SAPS   H7X19311   1.303   5.797   6.097  0.3256 -3.7014  2.8697
  170SAPS   H7Y19312   1.143   5.876   6.072  1.4191  0.5107  0.8800
  170SAPS   C3819313   1.203   5.733   5.921 -0.1837 -0.4127 -0.7967
  170SAPS   H8X19314   1.102   5.726   5.876 -0.1042 -0.4694 -0.9665
  170SAPS   H8Y19315   1.255   5.635   5.922  2.1437  0.7319  0.3275
  170SAPS   C3919316   1.280   5.826   5.837 -0.3078 -0.3410  0.2225
  170SAPS   H9X19317   1.327   5.755   5.767  0.8896  0.0089  0.6562
  170SAPS   H9Y19318   1.347   5.886   5.902  0.2080  0.5876 -1.1414
  170SAPS  C31019319   1.184   5.909   5.750  0.4266  0.9322 -0.2747
  170SAPS  H10X19320   1.127   5.976   5.818  0.5755  0.3167  0.4719
  170SAPS  H10Y19321   1.120   5.842   5.689  3.6032 -2.2255 -0.4710
  170SAPS  C31119322   1.260   5.995   5.652 -0.3603 -0.5376  0.4407
  170SAPS  H11X19323   1.333   6.066   5.697 -1.6620  0.5538  0.8961
  170SAPS  H11Y19324   1.191   6.058   5.591 -1.0914 -3.4357 -1.9428
  170SAPS  C31219325   1.350   5.913   5.547 -0.3389 -0.5215  0.4023
  170SAPS  H12X19326   1.293   5.823   5.516 -1.6715  1.4285 -3.5543
  170SAPS  H12Y19327   1.437   5.876   5.604 -1.4069 -4.7360 -0.3629
  170SAPS  C31319328   1.367   5.992   5.412  0.1641 -0.3211 -0.2465
  170SAPS  H13X19329   1.262   6.011   5.380  0.4016 -0.6437 -1.2432
  170SAPS  H13Y19330   1.416   5.917   5.347  1.4764  0.1077  0.2188
  170SAPS  C31419331   1.457   6.114   5.422  0.2703 -0.3078  0.8179
  170SAPS  H14X19332   1.557   6.079   5.455 -0.0112 -2.6649 -0.6226
  170SAPS  H14Y19333   1.420   6.194   5.489  2.9672  0.3441  1.6521
  170SAPS  C31519334   1.466   6.180   5.282  0.3353 -0.4298 -0.1380
  170SAPS  H15X19335   1.361   6.192   5.245 -0.7281  1.4043  3.0505
  170SAPS  H15Y19336   1.511   6.105   5.214  0.6595 -0.7240  0.3995
  170SAPS  C31619337   1.537   6.316   5.276 -0.1495 -0.2179  0.1265
  170SAPS  H16X19338   1.646   6.296   5.267 -0.1153 -0.2015  0.5004
  170SAPS  H16Y19339   1.522   6.370   5.371  2.2497  0.6930  0.0593
  170SAPS  C31719340   1.491   6.417   5.167 -0.1026 -0.8866  0.1199
  170SAPS  H17X19341   1.384   6.437   5.190  0.3302  1.5277  0.3622
  170SAPS  H17Y19342   1.489   6.359   5.073 -1.6524  0.2534 -0.5998
  170SAPS  C31819343   1.570   6.551   5.165 -0.5057  0.2475 -0.4050
  170SAPS  H18X19344   1.525   6.613   5.244  0.1295  0.6637 -0.3668
  170SAPS  H18Y19345   1.555   6.606   5.069  1.3595 -0.3831 -1.1185
  170SAPS  H18Z19346   1.680   6.542   5.181 -0.6413  0.6309  0.8105
  171SAPS     N19347   0.136   1.408   7.825  0.1321  0.4376 -0.7778
  171SAPS   HN119348   0.139   1.486   7.894  3.9788 -0.9973  0.9879
  171SAPS   HN219349   0.065   1.337   7.852  1.4336 -1.6183 -2.4500
  171SAPS   HN319350   0.224   1.353   7.827  1.1927  2.0644 -0.1061
  171SAPS   C1219351   0.108   1.467   7.690  0.1982  0.4574 -0.6072
  171SAPS  H12A19352  -0.000   1.477   7.688 -0.1613 -2.0902  1.3064
  171SAPS   C1319353   0.181   1.599   7.652  0.4264  0.5978  0.2239
  171SAPS  O13A19354   0.251   1.649   7.740 -0.0160  0.0327 -0.1986
  171SAPS  O13B19355   0.151   1.668   7.554  0.2285  0.0413  0.0914
  171SAPS   C1119356   0.120   1.355   7.586 -0.4169  0.7079 -0.0106
  171SAPS  H11A19357   0.226   1.333   7.562 -0.5191  1.7493 -1.5462
  171SAPS  H11B19358   0.074   1.391   7.491 -2.4019 -0.5337  0.4084
  171SAPS     P19359   0.048   1.110   7.527  0.0891 -0.0342 -0.4239
  171SAPS   O1319360   0.140   1.005   7.572 -0.3594  0.4705 -0.3921
  171SAPS   O1419361  -0.093   1.078   7.511 -0.0481 -0.0166 -0.0045
  171SAPS   O1219362   0.057   1.232   7.624 -0.3486 -0.0478  0.3902
  171SAPS   O1119363   0.095   1.151   7.381 -0.2538 -0.1063  0.5626
  171SAPS    C119364   0.238   1.155   7.342  0.4778 -0.1573  0.5215
  171SAPS    HA19365   0.303   1.170   7.431  2.3286  0.4954 -0.8573
  171SAPS    HB19366   0.268   1.056   7.303  2.5846  0.4657  0.4157
  171SAPS    C219367   0.295   1.268   7.249  1.0330  0.7425 -0.1191
  171SAPS    HS19368   0.311   1.355   7.316  1.3915 -0.2034  1.0628
  171SAPS   O2119369   0.208   1.308   7.143 -0.0897  0.9081  0.7195
  171SAPS   C2119370   0.249   1.422   7.077 -0.4611  0.0664 -0.1164
  171SAPS   O2219371   0.346   1.485   7.113  0.1511  0.2351 -0.2615
  171SAPS   C2219372   0.148   1.463   6.972 -0.1009  0.7210  0.5296
  171SAPS   H2R19373   0.052   1.411   6.991  0.4555 -0.2808  0.6499
  171SAPS   H2S19374   0.121   1.570   6.986 -1.0179  1.1065 -3.1682
  171SAPS    C319375   0.436   1.215   7.189 -0.9131 -0.3030  0.9374
  171SAPS    HX19376   0.508   1.197   7.272 -0.1648 -1.4189  0.0769
  171SAPS    HY19377   0.473   1.299   7.126 -0.6442  0.5919  2.2526
  171SAPS   O3119378   0.421   1.089   7.122 -0.4681 -0.0187  0.2568
  171SAPS   C3119379   0.416   1.103   6.990 -0.8005  0.4990 -0.2333
  171SAPS   O3219380   0.456   1.201   6.929 -0.3739 -0.1005 -0.2305
  171SAPS   C3219381   0.366   0.969   6.932 -0.2322 -0.0528 -0.2025
  171SAPS   H2X19382   0.267   1.001   6.893  0.2546  1.6963 -0.0833
  171SAPS   H2Y19383   0.361   0.893   7.012  1.1033  1.6755  1.6317
  171SAPS   C2319384   0.200   1.454   6.824  0.4242 -0.5606  0.0961
  171SAPS   H3R19385   0.237   1.357   6.786  1.0312  0.0745 -1.0029
  171SAPS   H3S19386   0.292   1.516   6.825  1.2900 -1.6933 -2.3175
  171SAPS   C2419387   0.104   1.515   6.715  0.0595  0.6859 -0.3776
  171SAPS   H4R19388   0.156   1.504   6.617 -1.4128 -0.3786 -1.0790
  171SAPS   H4S19389   0.109   1.623   6.741  0.4670  0.2168  1.5957
  171SAPS   C2519390  -0.040   1.458   6.717 -0.2867  0.5482 -0.1718
  171SAPS   H5R19391  -0.095   1.462   6.813 -2.6202 -0.3010 -1.3999
  171SAPS   C2619392  -0.098   1.407   6.612 -0.6824  0.0747  0.6860
  171SAPS   H6R19393  -0.192   1.351   6.624  0.2748 -1.2504  2.6938
  171SAPS   C2719394  -0.029   1.399   6.473  0.1295  0.7179 -0.5792
  171SAPS   H7R19395   0.038   1.310   6.472 -0.9156 -0.1385 -3.2693
  171SAPS   H7S19396   0.029   1.494   6.468 -0.2888  1.0018 -0.0480
  171SAPS   C2819397  -0.125   1.382   6.357  0.3434  0.3151 -0.0365
  171SAPS   H8R19398  -0.229   1.414   6.371  1.1779  2.5882  1.5277
  171SAPS   C2919399  -0.087   1.361   6.227  0.3450 -0.3009 -0.4146
  171SAPS   H9R19400  -0.157   1.349   6.142 -0.3008  2.4236 -0.3586
  171SAPS  C21019401   0.052   1.342   6.175 -0.5982 -0.8181  0.4596
  171SAPS  H10R19402   0.132   1.374   6.245  1.2313 -0.6289 -1.5935
  171SAPS  H10S19403   0.056   1.409   6.087 -1.0978  0.8590  1.6594
  171SAPS  C21119404   0.084   1.194   6.135 -0.5333  0.8387  0.1965
  171SAPS  H11R19405   0.087   1.126   6.221 -2.2085  1.7845  1.0618
  171SAPS  C21219406   0.114   1.135   6.014  0.0313 -0.2793 -0.3130
  171SAPS  H12R19407   0.120   1.025   6.017  0.6928 -0.2554 -0.6886
  171SAPS  C21319408   0.123   1.199   5.883 -0.1746  0.0120  0.1941
  171SAPS  H13R19409   0.086   1.303   5.891 -2.2421 -0.7248  0.8827
  171SAPS  H13S19410   0.046   1.158   5.814  0.1603 -0.8763  0.3317
  171SAPS  C21419411   0.259   1.182   5.816  0.9649 -0.5156  0.1577
  171SAPS  H14R19412   0.342   1.209   5.883 -0.2075  0.1290  1.4147
  171SAPS  C21519413   0.286   1.131   5.694  0.3267 -1.2203 -0.2548
  171SAPS  H15R19414   0.391   1.107   5.670  0.3641 -1.4539  0.1359
  171SAPS  C21619415   0.186   1.083   5.598 -0.1122  0.2565  0.5402
  171SAPS  H16R19416   0.099   1.149   5.579  0.3365  0.5890 -0.4267
  171SAPS  H16S19417   0.152   0.986   5.641  0.0899 -0.1345 -0.1674
  171SAPS  C21719418   0.268   1.049   5.469 -0.9766 -0.1771 -0.1746
  171SAPS  H17R19419   0.360   0.993   5.495 -0.4881  1.2406  1.3219
  171SAPS  H17S19420   0.301   1.144   5.422 -3.1322  0.6671 -0.0802
  171SAPS  C21819421   0.193   0.962   5.369 -0.2881 -0.2170  0.0444
  171SAPS  H18R19422   0.099   1.008   5.333  2.1881  3.8255 -1.9648
  171SAPS  H18S19423   0.159   0.874   5.429  1.6675 -0.4216  0.9268
  171SAPS  C21919424   0.276   0.918   5.246 -0.4656 -0.2172  0.1446
  171SAPS  H19R19425   0.379   0.886   5.274 -1.1835 -3.3939 -0.4383
  171SAPS  H19S19426   0.292   1.008   5.184 -0.1924  0.2832  0.9213
  171SAPS  C22019427   0.205   0.812   5.166  0.0707  0.2173  0.7473
  171SAPS  H20R19428   0.227   0.714   5.215  1.2009  0.0633 -0.0181
  171SAPS  H20S19429   0.260   0.809   5.069  3.9311 -1.4000  2.7684
  171SAPS  H20T19430   0.097   0.836   5.156  0.1468  0.4272  0.4143
  171SAPS   C3319431   0.445   0.909   6.814 -0.2965  0.2035  0.1916
  171SAPS   H3X19432   0.416   0.802   6.820 -1.7337  0.2289 -3.6415
  171SAPS   H3Y19433   0.554   0.918   6.835 -0.1829 -1.6696  0.6035
  171SAPS   C3419434   0.419   0.984   6.682 -0.1431 -0.0864  0.6729
  171SAPS   H4X19435   0.474   1.081   6.686 -1.7782  0.8952  0.1445
  171SAPS   H4Y19436   0.314   1.012   6.660  0.6490  1.2685 -1.7676
  171SAPS   C3519437   0.471   0.908   6.556  0.6539 -0.2615  0.8220
  171SAPS   H5X19438   0.410   0.815   6.548 -0.4757  0.4599  0.8006
  171SAPS   H5Y19439   0.575   0.874   6.576  0.5531 -0.6286  0.7352
  171SAPS   C3619440   0.446   0.975   6.421 -0.1441 -0.2343  0.1691
  171SAPS   H6X19441   0.526   1.052   6.415 -0.2596 -0.2100 -1.3441
  171SAPS   H6Y19442   0.351   1.031   6.406  1.3706  2.0537 -1.4283
  171SAPS   C3719443   0.465   0.869   6.310 -0.2342  0.2339 -0.3840
  171SAPS   H7X19444   0.385   0.793   6.318  0.1088 -0.2604 -1.4141
  171SAPS   H7Y19445   0.559   0.812   6.325 -0.2773  0.3410  0.2905
  171SAPS   C3819446   0.470   0.930   6.177  0.0919  0.3922  0.0875
  171SAPS   H8X19447   0.562   0.991   6.168 -1.1795  2.3052 -0.8190
  171SAPS   H8Y19448   0.387   1.004   6.172  1.2262  1.6161 -2.2691
  171SAPS   C3919449   0.475   0.834   6.058  0.0798  0.1350 -0.3224
  171SAPS   H9X19450   0.540   0.744   6.063 -2.7522 -1.9844  0.8884
  171SAPS   H9Y19451   0.523   0.894   5.978  2.6588 -0.8838  0.3546
  171SAPS  C31019452   0.337   0.787   6.022  0.4621  0.9103  0.3831
  171SAPS  H10X19453   0.265   0.866   5.994  1.1714  1.2654 -0.5272
  171SAPS  H10Y19454   0.287   0.724   6.098 -0.9846  1.6943  0.1052
  171SAPS  C31119455   0.337   0.689   5.897 -0.2967 -0.6537 -0.6042
  171SAPS  H11X19456   0.242   0.633   5.915 -0.5760 -0.4099 -1.2992
  171SAPS  H11Y19457   0.422   0.618   5.902 -1.1089 -1.5609  1.3344
  171SAPS  C31219458   0.301   0.754   5.755  0.2751  0.4147  0.2689
  171SAPS  H12X19459   0.381   0.824   5.722 -0.5233  1.5606  0.6953
  171SAPS  H12Y19460   0.217   0.823   5.777 -0.1600 -0.1171  0.2880
  171SAPS  C31319461   0.249   0.655   5.650  0.3291  0.4094 -0.1627
  171SAPS  H13X19462   0.178   0.704   5.579  0.5841  1.2317  0.1495
  171SAPS  H13Y19463   0.189   0.589   5.716 -0.9928 -1.3663 -2.8949
  171SAPS  C31419464   0.361   0.582   5.582  0.4322  0.4682  0.0005
  171SAPS  H14X19465   0.425   0.575   5.673 -1.8109 -0.0460  1.6206
  171SAPS  H14Y19466   0.425   0.635   5.509  0.8811  0.9328  0.7120
  171SAPS  C31519467   0.317   0.446   5.519  0.8407 -0.1904  0.0533
  171SAPS  H15X19468   0.301   0.458   5.410  0.4780 -0.4283  0.0801
  171SAPS  H15Y19469   0.220   0.412   5.562  0.8704 -0.5001 -0.1228
  171SAPS  C31619470   0.435   0.351   5.525  0.9360  0.6106 -0.0757
  171SAPS  H16X19471   0.526   0.413   5.510  0.5179  1.4582  0.7424
  171SAPS  H16Y19472   0.416   0.271   5.450 -1.3581  0.4870  0.5771
  171SAPS  C31719473   0.444   0.273   5.663 -0.6163 -0.0248 -0.3762
  171SAPS  H17X19474   0.363   0.197   5.663 -0.3388 -0.3657  1.1712
  171SAPS  H17Y19475   0.416   0.349   5.739  2.4013  0.8391 -0.0015
  171SAPS  C31819476   0.572   0.200   5.694 -0.0317 -0.5003 -0.0627
  171SAPS  H18X19477   0.653   0.276   5.694  0.4039 -0.9527 -0.4323
  171SAPS  H18Y19478   0.601   0.143   5.603  0.1891  0.5940 -0.6972
  171SAPS  H18Z19479   0.571   0.124   5.775  0.1701  0.0294  0.4385
  172SAPS     N19480   0.992   0.628   6.828  0.6472  0.6552  0.1024
  172SAPS   HN119481   1.014   0.584   6.736 -3.6535 -2.1224  0.0853
  172SAPS   HN219482   0.894   0.603   6.855 -0.4224  3.3277 -0.9499
  172SAPS   HN319483   1.001   0.731   6.816 -0.2627  0.6037 -1.2520
  172SAPS   C1219484   1.076   0.570   6.936  0.0367  0.2333  0.4486
  172SAPS  H12A19485   1.180   0.583   6.910  0.4205 -1.6297  0.9306
  172SAPS   C1319486   1.057   0.643   7.074 -0.2627 -0.0687  0.0980
  172SAPS  O13A19487   0.960   0.725   7.092 -0.3537 -0.2922  0.2157
  172SAPS  O13B19488   1.146   0.625   7.156  0.0428  0.2472  0.1996
  172SAPS   C1119489   1.046   0.416   6.946  0.5390  0.2311 -0.0933
  172SAPS  H11A19490   1.111   0.373   7.025  0.0192  2.5488  1.6796
  172SAPS  H11B19491   1.079   0.368   6.851  0.3771 -1.0946  0.5047
  172SAPS     P19492   0.844   0.243   6.978  0.0886 -0.2562  0.0944
  172SAPS   O1319493   0.919   0.155   7.075  0.3163 -0.0633  0.0267
  172SAPS   O1419494   0.699   0.254   7.005  0.7949 -0.9019 -0.8394
  172SAPS   O1219495   0.907   0.390   6.968 -0.2298  0.2257 -0.2235
  172SAPS   O1119496   0.852   0.189   6.830 -0.4945  0.1312  0.0554
  172SAPS    C119497   0.751   0.219   6.730  0.8303 -0.2313 -0.5708
  172SAPS    HA19498   0.650   0.187   6.763  0.1809  2.3403  0.1014
  172SAPS    HB19499   0.745   0.327   6.707  0.4639 -0.3419 -1.0214
  172SAPS    C219500   0.795   0.175   6.584 -0.5594 -0.0437  0.3559
  172SAPS    HS19501   0.747   0.243   6.510  4.0101  1.5898 -1.4810
  172SAPS   O2119502   0.775   0.034   6.576  0.6016  0.0494 -0.0417
  172SAPS   C2119503   0.653  -0.000   6.540 -0.3193 -0.6358 -0.4410
  172SAPS   O2219504   0.571   0.081   6.502  0.4084  0.6144  0.4381
  172SAPS   C2219505   0.643  -0.147   6.561  0.2978 -1.0538  0.5924
  172SAPS   H2R19506   0.654  -0.158   6.671  0.8283 -0.1446  0.6401
  172SAPS   H2S19507   0.533  -0.161   6.551 -0.6205  3.3228  2.3174
  172SAPS    C319508   0.940   0.198   6.560 -0.0920 -0.0673  0.2442
  172SAPS    HX19509   1.000   0.124   6.619 -1.0116 -0.6955  0.4114
  172SAPS    HY19510   0.970   0.297   6.599 -0.5933  0.6753 -1.2181
  172SAPS   O3119511   0.969   0.175   6.418 -0.1872 -0.0232  0.0947
  172SAPS   C3119512   0.980   0.275   6.339 -0.3546  0.0273  0.1167
  172SAPS   O3219513   0.960   0.390   6.372 -0.3684  0.3034  0.3970
  172SAPS   C3219514   0.988   0.230   6.189 -0.0520 -0.2027 -1.0004
  172SAPS   H2X19515   1.086   0.180   6.175  0.4853  0.2849  0.7199
  172SAPS   H2Y19516   0.984   0.318   6.121  0.4336  0.3822 -0.2909
  172SAPS   C2319517   0.718  -0.237   6.465 -0.7668  0.2819 -0.6188
  172SAPS   H3R19518   0.714  -0.197   6.362 -3.1886  0.9219 -0.3278
  172SAPS   H3S19519   0.662  -0.331   6.447 -2.3774  0.2945  3.2957
  172SAPS   C2419520   0.864  -0.278   6.515  0.9400  0.5565 -0.4197
  172SAPS   H4R19521   0.895  -0.383   6.496  1.2851  0.2582  1.6123
  172SAPS   H4S19522   0.869  -0.276   6.626 -0.1315 -1.6638 -0.2786
  172SAPS   C2519523   0.974  -0.179   6.469  0.8154 -0.3415 -0.6035
  172SAPS   H5R19524   0.983  -0.087   6.530  1.6325 -1.0308  0.3496
  172SAPS   C2619525   1.055  -0.196   6.361  0.0779 -0.2794 -0.1777
  172SAPS   H6R19526   1.126  -0.116   6.336 -0.0654 -0.3234 -0.7498
  172SAPS   C2719527   1.057  -0.320   6.279  0.4085  0.2323 -0.1276
  172SAPS   H7R19528   1.008  -0.406   6.330 -0.5278  0.8945  0.0970
  172SAPS   H7S19529   1.163  -0.355   6.277 -0.3949 -2.3859 -0.8366
  172SAPS   C2819530   0.993  -0.303   6.145  0.7348 -0.1165  0.2594
  172SAPS   H8R19531   0.890  -0.265   6.151  0.6517 -0.4228  0.7877
  172SAPS   C2919532   1.047  -0.304   6.024  0.0582  1.3098  0.2250
  172SAPS   H9R19533   0.984  -0.274   5.938 -0.7133 -1.4216 -0.2437
  172SAPS  C21019534   1.195  -0.336   5.990  0.5496  0.2021  0.7023
  172SAPS  H10R19535   1.200  -0.447   5.988  0.0135  0.1763  0.0164
  172SAPS  H10S19536   1.256  -0.300   6.075  1.3357  1.9402 -0.5238
  172SAPS  C21119537   1.245  -0.287   5.857 -0.2075 -0.9256  0.4147
  172SAPS  H11R19538   1.313  -0.203   5.877 -2.1701  0.3304  2.3498
  172SAPS  C21219539   1.252  -0.336   5.735  0.1178 -0.0363 -0.2426
  172SAPS  H12R19540   1.294  -0.279   5.651  2.2823 -1.5964 -0.3210
  172SAPS  C21319541   1.203  -0.467   5.684 -0.2231 -0.2033 -0.7281
  172SAPS  H13R19542   1.181  -0.543   5.762 -2.3430 -1.0626 -2.0533
  172SAPS  H13S19543   1.277  -0.512   5.614  0.4290 -1.9764  1.0069
  172SAPS  C21419544   1.070  -0.440   5.627  1.1350  0.2755  0.8559
  172SAPS  H14R19545   0.980  -0.465   5.685  1.0591 -0.7003  0.3506
  172SAPS  C21519546   1.044  -0.388   5.504 -0.5157 -0.8591  0.2420
  172SAPS  H15R19547   0.938  -0.379   5.478 -0.4919 -0.0962  0.3781
  172SAPS  C21619548   1.149  -0.360   5.402  0.4432  0.7269 -0.1692
  172SAPS  H16R19549   1.170  -0.458   5.353 -0.0250  0.0116  1.0156
  172SAPS  H16S19550   1.249  -0.331   5.439 -0.3879  0.5429  2.4618
  172SAPS  C21719551   1.111  -0.274   5.281 -0.7726  0.2328 -0.1174
  172SAPS  H17R19552   1.053  -0.326   5.202  1.8545  0.4974 -2.3471
  172SAPS  H17S19553   1.204  -0.256   5.223 -0.7613 -1.6488 -0.7382
  172SAPS  C21819554   1.062  -0.131   5.309 -0.5219 -0.1118  0.3001
  172SAPS  H18R19555   1.133  -0.078   5.377 -0.6110 -0.2089  0.4712
  172SAPS  H18S19556   0.967  -0.134   5.367  0.1369  1.2632  1.5243
  172SAPS  C21919557   1.054  -0.038   5.181  0.1959  0.2198 -0.9547
  172SAPS  H19R19558   1.158  -0.022   5.147  0.7592 -0.1241  0.5370
  172SAPS  H19S19559   1.017   0.060   5.220  1.5787  1.2442 -2.1043
  172SAPS  C22019560   0.965  -0.089   5.070 -0.0593  0.5876 -0.1733
  172SAPS  H20R19561   1.022  -0.163   5.010  0.7866 -0.1523  1.4630
  172SAPS  H20S19562   0.911  -0.011   5.013 -1.1147 -0.5303 -0.7401
  172SAPS  H20T19563   0.888  -0.151   5.120  2.3945  0.0823  3.3507
  172SAPS   C3319564   0.884   0.121   6.146  0.0672 -0.4986 -0.5335
  172SAPS   H3X19565   0.781   0.163   6.145 -0.1293 -0.9927 -0.9434
  172SAPS   H3Y19566   0.883   0.055   6.235 -0.0615 -0.0473 -0.1956
  172SAPS   C3419567   0.922   0.057   6.019 -0.0818 -0.1705  0.3306
  172SAPS   H4X19568   1.007  -0.009   6.046  0.6236  1.1663  1.5125
  172SAPS   H4Y19569   0.957   0.144   5.960 -2.5470  1.2556  0.8033
  172SAPS   C3519570   0.816  -0.027   5.939  0.3156  0.0987  0.4312
  172SAPS   H5X19571   0.725   0.037   5.940  0.3494  0.1415  0.7376
  172SAPS   H5Y19572   0.809  -0.124   5.993 -0.4503  0.8563  1.7380
  172SAPS   C3619573   0.851  -0.048   5.789  0.0273  0.6503 -0.0393
  172SAPS   H6X19574   0.960  -0.055   5.770  0.2276 -1.1603  1.4720
  172SAPS   H6Y19575   0.817   0.045   5.739 -0.4663  0.5070  0.0232
  172SAPS   C3719576   0.763  -0.161   5.734 -0.3542 -0.1256  0.3528
  172SAPS   H7X19577   0.660  -0.153   5.773 -0.4277  1.3767 -0.0825
  172SAPS   H7Y19578   0.784  -0.258   5.785 -1.7547 -0.3361  0.5602
  172SAPS   C3819579   0.760  -0.149   5.582 -0.3179 -0.1200 -0.2230
  172SAPS   H8X19580   0.864  -0.156   5.542  0.0356 -0.4453  0.7134
  172SAPS   H8Y19581   0.728  -0.044   5.569 -3.0682 -0.3628  3.3162
  172SAPS   C3919582   0.661  -0.252   5.528 -0.5295  0.1649 -0.0869
  172SAPS   H9X19583   0.565  -0.264   5.583  0.5319 -2.4921  1.3907
  172SAPS   H9Y19584   0.714  -0.350   5.534 -0.7051  0.1243  1.1169
  172SAPS  C31019585   0.632  -0.237   5.371  0.0384  0.2081 -0.4573
  172SAPS  H10X19586   0.553  -0.303   5.329  2.7315 -1.7546 -2.8097
  172SAPS  H10Y19587   0.722  -0.268   5.315  2.0317  0.7007  2.2903
  172SAPS  C31119588   0.588  -0.093   5.328 -0.4658 -0.2040  0.0697
  172SAPS  H11X19589   0.669  -0.026   5.364  0.6626 -1.3197 -0.3231
  172SAPS  H11Y19590   0.489  -0.071   5.374  0.2076 -0.6895  1.8649
  172SAPS  C31219591   0.565  -0.080   5.173  0.3228  0.5201  0.1074
  172SAPS  H12X19592   0.509  -0.171   5.143 -0.8544  1.3681 -0.3674
  172SAPS  H12Y19593   0.663  -0.080   5.120  0.7649  0.6566  0.9175
  172SAPS  C31319594   0.478   0.036   5.128  0.7342  0.1844  0.0414
  172SAPS  H13X19595   0.380   0.017   5.176  1.0471 -1.6547  0.0128
  172SAPS  H13Y19596   0.460   0.025   5.018  4.0050  0.4956 -0.6152
  172SAPS  C31419597   0.528   0.183   5.164 -0.6812  0.2157  0.2038
  172SAPS  H14X19598   0.628   0.191   5.116 -0.2182  0.5788  1.2125
  172SAPS  H14Y19599   0.534   0.189   5.274 -2.4288  1.2469  0.2716
  172SAPS  C31519600   0.439   0.290   5.103 -0.7450 -0.2519  0.0239
  172SAPS  H15X19601   0.335   0.257   5.118 -1.1653  2.0361  3.2364
  172SAPS  H15Y19602   0.460   0.286   4.994 -4.2915 -1.1137 -0.7417
  172SAPS  C31619603   0.484   0.431   5.152  0.4892  0.6203  0.1341
  172SAPS  H16X19604   0.424   0.455   5.242  0.0135 -1.0935  0.3091
  172SAPS  H16Y19605   0.594   0.430   5.165  0.3897 -0.0579  1.0193
  172SAPS  C31719606   0.441   0.540   5.047 -0.1040 -0.2100  0.4274
  172SAPS  H17X19607   0.475   0.639   5.083 -0.1561  0.4158 -1.1371
  172SAPS  H17Y19608   0.331   0.557   5.039  0.1910  0.9435 -1.9854
  172SAPS  C31819609   0.491   0.510   4.908 -0.2103  0.1496  0.4129
  172SAPS  H18X19610   0.600   0.490   4.917 -0.4267 -1.5878 -0.2881
  172SAPS  H18Y19611   0.485   0.603   4.848  0.7062 -0.1159 -0.1149
  172SAPS  H18Z19612   0.451   0.425   4.849  2.6467 -2.7983  2.3763
  173SAPS     N19613   6.692   6.302   2.538 -0.5918  0.0097  0.3843
  173SAPS   HN119614   6.615   6.335   2.600  0.2887  2.7107  0.1459
  173SAPS   HN219615   6.756   6.244   2.597 -1.6033 -2.8668 -1.1409
  173SAPS   HN319616   6.733   6.383   2.489 -0.5313 -0.6158 -0.6146
  173SAPS   C1219617   6.631   6.213   2.434 -0.1088 -0.2065  0.6320
  173SAPS  H12A19618   6.585   6.286   2.369  0.8210  1.8561  2.1718
  173SAPS   C1319619   6.740   6.134   2.361  0.0424  0.6268  0.4900
  173SAPS  O13A19620   6.860   6.162   2.383  0.1431  0.4203  0.0511
  173SAPS  O13B19621   6.704   6.051   2.279 -0.1577 -0.4679  0.1223
  173SAPS   C1119622   6.528   6.118   2.502  1.1105  0.2008  0.1562
  173SAPS  H11A19623   6.586   6.054   2.572 -0.5224 -0.4430  0.9846
  173SAPS  H11B19624   6.485   6.045   2.431  0.3410 -0.3142  1.1137
  173SAPS     P19625   6.282   6.146   2.600 -0.2389  0.0407 -0.1974
  173SAPS   O1319626   6.226   6.247   2.697  0.0040 -0.5159 -0.4620
  173SAPS   O1419627   6.203   6.115   2.481 -0.2776  0.6136 -0.2927
  173SAPS   O1219628   6.428   6.188   2.564  0.2097  0.1521 -0.4958
  173SAPS   O1119629   6.293   6.012   2.682  0.3380  0.3944  0.5404
  173SAPS    C119630   6.387   5.985   2.780 -0.7815 -0.1970 -0.1713
  173SAPS    HA19631   6.435   5.889   2.752 -0.4570  0.0285 -0.4017
  173SAPS    HB19632   6.463   6.065   2.776  1.5485 -2.3523 -2.4539
  173SAPS    C219633   6.337   5.973   2.926  0.1513 -0.2522  0.3187
  173SAPS    HS19634   6.245   5.912   2.942  0.2255  0.2348  3.2814
  173SAPS   O2119635   6.310   6.103   2.973  0.1349 -0.2935 -0.4985
  173SAPS   C2119636   6.180   6.147   2.949 -0.2701  0.1927 -0.2938
  173SAPS   O2219637   6.097   6.077   2.897 -0.1441  0.0124 -0.1907
  173SAPS   C2219638   6.153   6.290   3.015 -0.1258 -0.2590 -0.1963
  173SAPS   H2R19639   6.243   6.307   3.078 -0.4797 -2.4151  1.0197
  173SAPS   H2S19640   6.164   6.367   2.936 -1.3389 -0.5258 -0.6445
  173SAPS    C319641   6.439   5.909   3.020  0.1488 -0.2354  0.2559
  173SAPS    HX19642   6.530   5.972   3.009 -0.5749  0.7621 -0.2853
  173SAPS    HY19643   6.471   5.808   2.988  0.4007  0.3051 -1.3052
  173SAPS   O3119644   6.391   5.916   3.162  0.4707  0.3987  0.4847
  173SAPS   C3119645   6.341   5.804   3.210 -0.6948  0.2052 -0.2899
  173SAPS   O3219646   6.343   5.697   3.150  0.1604 -0.4103  0.1782
  173SAPS   C3219647   6.290   5.827   3.349 -0.6234  0.3123  0.3186
  173SAPS   H2X19648   6.193   5.772   3.358 -0.5747  0.2940  0.8028
  173SAPS   H2Y19649   6.271   5.934   3.372  2.3405  0.9679  0.0154
  173SAPS   C2319650   6.037   6.295   3.112  0.7549 -0.3380  0.1670
  173SAPS   H3R19651   5.943   6.262   3.062  0.4459 -0.4992  0.8271
  173SAPS   H3S19652   6.032   6.399   3.152 -0.8545 -0.5092  0.5129
  173SAPS   C2419653   6.060   6.199   3.231  0.3084  0.0324  0.0944
  173SAPS   H4R19654   6.164   6.208   3.267  0.2189  2.4822 -0.1101
  173SAPS   H4S19655   6.047   6.090   3.211  1.3280  0.1658 -1.4852
  173SAPS   C2519656   5.969   6.231   3.343 -0.2252  0.0667  0.2238
  173SAPS   H5R19657   5.868   6.254   3.306  1.2668  2.3979 -2.8548
  173SAPS   C2619658   5.991   6.234   3.477  0.3024 -0.8609  0.2897
  173SAPS   H6R19659   5.908   6.263   3.542  0.5581 -0.0487  0.2741
  173SAPS   C2719660   6.127   6.209   3.538  0.3553  0.2027 -0.1086
  173SAPS   H7R19661   6.160   6.307   3.579 -2.0243  0.1023  2.3913
  173SAPS   H7S19662   6.211   6.182   3.471  1.3740 -1.4473  1.7067
  173SAPS   C2819663   6.137   6.112   3.651 -0.6448  0.2052  0.1807
  173SAPS   H8R19664   6.044   6.056   3.669 -0.1648 -0.1150  1.8472
  173SAPS   C2919665   6.233   6.092   3.749  1.0878 -0.8394  0.1892
  173SAPS   H9R19666   6.221   6.017   3.829  1.5775 -0.5313  0.5618
  173SAPS  C21019667   6.369   6.158   3.749 -0.1294 -0.2470  0.4756
  173SAPS  H10R19668   6.384   6.229   3.665  0.8061 -0.6119  0.3214
  173SAPS  H10S19669   6.449   6.081   3.738 -1.5368 -1.6915 -0.0236
  173SAPS  C21119670   6.394   6.247   3.868 -0.1015  0.4298 -0.3351
  173SAPS  H11R19671   6.384   6.356   3.861  3.7113  1.0547  1.3330
  173SAPS  C21219672   6.431   6.208   3.993 -0.7546 -0.0090  0.0164
  173SAPS  H12R19673   6.467   6.292   4.053  2.0101  0.0883 -1.6305
  173SAPS  C21319674   6.448   6.066   4.039  0.5758 -0.3081 -0.4791
  173SAPS  H13R19675   6.554   6.043   4.062  0.9758  1.7161 -0.1260
  173SAPS  H13S19676   6.429   5.990   3.960  1.4741  0.4091 -1.4087
  173SAPS  C21419677   6.344   6.036   4.136 -0.2249 -0.6325 -0.2549
  173SAPS  H14R19678   6.250   6.091   4.121  0.4378  0.4131 -0.7491
  173SAPS  C21519679   6.357   5.949   4.242  0.4435 -0.0039 -0.2906
  173SAPS  H15R19680   6.276   5.932   4.314  0.7214 -0.2096 -0.0247
  173SAPS  C21619681   6.476   5.865   4.274 -0.0278 -0.0612 -0.2086
  173SAPS  H16R19682   6.527   5.903   4.365  1.6594  0.0495 -1.1578
  173SAPS  H16S19683   6.556   5.873   4.197  1.1380 -2.4905  0.6474
  173SAPS  C21719684   6.446   5.718   4.303 -0.4928 -0.2253  0.2660
  173SAPS  H17R19685   6.539   5.666   4.332  1.1677  2.5565  0.2569
  173SAPS  H17S19686   6.420   5.663   4.211  1.4032 -0.4665 -0.1556
  173SAPS  C21819687   6.354   5.689   4.421  0.3126  0.6965 -0.3072
  173SAPS  H18R19688   6.255   5.711   4.375 -0.4659 -0.3816  0.8020
  173SAPS  H18S19689   6.376   5.757   4.505 -0.8705  1.3871 -0.5385
  173SAPS  C21919690   6.351   5.543   4.475 -0.7301 -0.2158  0.1440
  173SAPS  H19R19691   6.340   5.474   4.388 -0.8534  0.2617 -0.2214
  173SAPS  H19S19692   6.258   5.523   4.531 -0.6558  3.0637  1.6485
  173SAPS  C22019693   6.468   5.498   4.561 -0.0124 -0.5544 -0.7311
  173SAPS  H20R19694   6.459   5.398   4.609  0.5980 -0.1707  0.2015
  173SAPS  H20S19695   6.481   5.576   4.639  1.8935 -0.4856 -1.0731
  173SAPS  H20T19696   6.562   5.494   4.503  1.3055 -2.8055  1.3989
  173SAPS   C3319697   6.377   5.751   3.451 -0.7569  0.5285  1.1123
  173SAPS   H3X19698   6.467   5.813   3.468 -1.7672  1.7464  2.3424
  173SAPS   H3Y19699   6.396   5.650   3.410 -2.3997 -1.4502  4.7194
  173SAPS   C3419700   6.301   5.722   3.585  0.2960 -0.2463  0.2965
  173SAPS   H4X19701   6.224   5.643   3.570  1.0184 -0.7173 -1.1717
  173SAPS   H4Y19702   6.262   5.821   3.615  0.4502 -0.4646  1.2358
  173SAPS   C3519703   6.396   5.668   3.706  1.5347 -1.1379  0.8294
  173SAPS   H5X19704   6.494   5.718   3.719  0.2980  3.0552 -3.2556
  173SAPS   H5Y19705   6.420   5.565   3.670 -0.3082 -1.3184 -0.0135
  173SAPS   C3619706   6.313   5.661   3.833  0.2340 -0.4890 -0.5992
  173SAPS   H6X19707   6.207   5.638   3.811 -1.1767  2.3627  2.3297
  173SAPS   H6Y19708   6.324   5.762   3.879  0.6874 -0.4126 -0.8621
  173SAPS   C3719709   6.372   5.560   3.921 -0.2684 -0.0342  0.5699
  173SAPS   H7X19710   6.322   5.580   4.019 -2.8898  2.2052 -1.0720
  173SAPS   H7Y19711   6.480   5.584   3.932 -0.2948  0.3221  0.0935
  173SAPS   C3819712   6.340   5.415   3.876 -0.2711  0.6752  0.0747
  173SAPS   H8X19713   6.386   5.415   3.775 -0.4280  0.2030  0.0002
  173SAPS   H8Y19714   6.231   5.401   3.862 -0.2930 -0.6838  1.3686
  173SAPS   C3919715   6.406   5.309   3.960 -0.4132 -0.7081 -0.2387
  173SAPS   H9X19716   6.413   5.336   4.068  2.0869 -2.4559  0.1110
  173SAPS   H9Y19717   6.509   5.310   3.920 -0.3323 -1.2695 -0.0612
  173SAPS  C31019718   6.340   5.172   3.930 -0.4959  0.7740  0.8536
  173SAPS  H10X19719   6.342   5.149   3.821 -0.4464  1.7507  0.6432
  173SAPS  H10Y19720   6.234   5.183   3.963 -0.7169  0.9693  0.0981
  173SAPS  C31119721   6.390   5.044   4.009 -0.9996  0.6643  0.5295
  173SAPS  H11X19722   6.482   5.005   3.959 -0.0380 -0.4153  2.9579
  173SAPS  H11Y19723   6.304   4.973   4.010 -0.3559 -0.1384  0.4207
  173SAPS  C31219724   6.430   5.048   4.161  0.1870  0.5344  0.7885
  173SAPS  H12X19725   6.508   5.125   4.181 -0.4140  0.7397  2.4481
  173SAPS  H12Y19726   6.469   4.946   4.181 -0.0440 -0.0333 -1.4223
  173SAPS  C31319727   6.303   5.084   4.238  0.0996 -0.3949  1.2336
  173SAPS  H13X19728   6.239   4.997   4.211 -0.1879 -0.1631  1.1605
  173SAPS  H13Y19729   6.253   5.174   4.195 -0.2656 -1.2561 -0.2268
  173SAPS  C31419730   6.333   5.099   4.385  0.0751  0.1723 -0.1685
  173SAPS  H14X19731   6.385   5.194   4.408  0.9969 -0.4350  0.3433
  173SAPS  H14Y19732   6.398   5.011   4.406 -0.1078 -0.4135 -1.8949
  173SAPS  C31519733   6.205   5.093   4.475 -1.2334  0.0632  0.1520
  173SAPS  H15X19734   6.132   5.033   4.415 -1.6088  1.7346 -1.1363
  173SAPS  H15Y19735   6.165   5.196   4.487  1.2138  1.0520  0.4427
  173SAPS  C31619736   6.234   5.031   4.614  0.2986  0.5408  0.0606
  173SAPS  H16X19737   6.270   4.926   4.604  0.0865  0.3513  1.1649
  173SAPS  H16Y19738   6.135   5.025   4.664 -0.1112 -1.6484 -0.9180
  173SAPS  C31719739   6.327   5.115   4.689 -0.7732 -0.0406  0.5829
  173SAPS  H17X19740   6.291   5.220   4.688 -0.2205  0.1626  1.5708
  173SAPS  H17Y19741   6.420   5.109   4.627 -2.2882  0.6668 -1.9089
  173SAPS  C31819742   6.351   5.060   4.828  0.1312 -0.5764 -0.2371
  173SAPS  H18X19743   6.430   5.117   4.883 -0.3843  0.7285 -0.8095
  173SAPS  H18Y19744   6.378   4.952   4.832  0.5681 -0.4501  0.4421
  173SAPS  H18Z19745   6.264   5.072   4.896 -0.9395 -0.4601 -1.5820
  174SAPS     N19746   2.718   3.290   2.542 -0.5842 -0.1389 -0.3122
  174SAPS   HN119747   2.728   3.390   2.568 -0.4012 -1.0637  3.8403
  174SAPS   HN219748   2.633   3.254   2.590 -0.6449  0.0751 -0.2544
  174SAPS   HN319749   2.798   3.238   2.583  1.2392  0.4486 -2.8357
  174SAPS   C1219750   2.712   3.269   2.402 -0.0303  0.6270  0.4499
  174SAPS  H12A19751   2.777   3.186   2.378 -0.7652  0.7506 -2.3129
  174SAPS   C1319752   2.572   3.253   2.335 -1.0110  0.4038 -0.4901
  174SAPS  O13A19753   2.472   3.251   2.415 -0.1385 -0.0068  0.0172
  174SAPS  O13B19754   2.569   3.237   2.211  0.6211  0.4204 -0.2463
  174SAPS   C1119755   2.789   3.392   2.331 -0.0259  0.3157 -0.4817
  174SAPS  H11A19756   2.731   3.482   2.360  0.3678  0.3715  0.1476
  174SAPS  H11B19757   2.782   3.377   2.221  1.0116 -0.4462 -0.4618
  174SAPS     P19758   3.044   3.453   2.274 -0.0291 -0.2472 -0.1525
  174SAPS   O1319759   3.045   3.385   2.139  0.3543 -0.2524  0.6896
  174SAPS   O1419760   3.038   3.599   2.273  0.5939  0.0389  0.3028
  174SAPS   O1219761   2.929   3.408   2.372  0.8278 -0.5135 -0.0589
  174SAPS   O1119762   3.172   3.412   2.363  0.6830 -0.4606  0.0537
  174SAPS    C119763   3.176   3.293   2.438 -0.3630  0.3995  0.1844
  174SAPS    HA19764   3.116   3.216   2.385  0.3121  0.3900 -0.5857
  174SAPS    HB19765   3.279   3.255   2.450 -0.6924 -0.7528 -0.4861
  174SAPS    C219766   3.125   3.307   2.583  0.4236 -0.5186  0.8325
  174SAPS    HS19767   3.016   3.331   2.581  0.9299  2.0433  0.5767
  174SAPS   O2119768   3.188   3.419   2.649 -0.4817 -0.2975 -0.5135
  174SAPS   C2119769   3.127   3.471   2.758 -0.3018  0.6309 -0.0813
  174SAPS   O2219770   3.015   3.439   2.801 -0.4467 -0.2825 -0.7366
  174SAPS   C2219771   3.209   3.585   2.824 -0.3214 -0.1912 -0.1609
  174SAPS   H2R19772   3.314   3.557   2.800 -0.5272 -2.4158  1.2852
  174SAPS   H2S19773   3.188   3.686   2.782  1.3332  0.9269  1.5356
  174SAPS    C319774   3.154   3.164   2.650  0.1743 -0.4469  0.0968
  174SAPS    HX19775   3.264   3.169   2.666  0.1995  0.7449 -0.3394
  174SAPS    HY19776   3.130   3.084   2.577 -0.1675 -0.7080  0.4916
  174SAPS   O3119777   3.101   3.146   2.784  0.4861 -0.5050  0.2477
  174SAPS   C3119778   2.965   3.136   2.786 -0.2124  0.6546  0.5802
  174SAPS   O3219779   2.897   3.136   2.686  0.7904  0.1082 -0.0653
  174SAPS   C3219780   2.902   3.148   2.924 -0.0758  0.2332  0.4832
  174SAPS   H2X19781   2.849   3.053   2.948  1.5536 -0.8404 -0.0037
  174SAPS   H2Y19782   2.823   3.226   2.927 -2.4331 -1.9871 -0.0944
  174SAPS   C2319783   3.193   3.592   2.979 -0.0606 -0.1792  0.0510
  174SAPS   H3R19784   3.198   3.493   3.029 -0.2089 -0.2164 -0.0071
  174SAPS   H3S19785   3.087   3.619   2.995 -0.0098  0.3598 -0.4979
  174SAPS   C2419786   3.288   3.694   3.049 -0.5122  0.0395  0.0498
  174SAPS   H4R19787   3.387   3.686   2.999 -1.9344  1.2215 -3.2730
  174SAPS   H4S19788   3.300   3.661   3.154 -3.4074 -3.0112 -0.3933
  174SAPS   C2519789   3.230   3.834   3.042 -0.6487  0.5635  0.2054
  174SAPS   H5R19790   3.276   3.887   2.957 -0.3034 -0.0933 -0.0210
  174SAPS   C2619791   3.180   3.910   3.141  0.0855 -0.0552 -0.2644
  174SAPS   H6R19792   3.146   4.008   3.105  0.2564  0.6659  1.4242
  174SAPS   C2719793   3.144   3.883   3.281  0.6887  0.0639 -0.6368
  174SAPS   H7R19794   3.101   3.781   3.288 -2.2087  1.2588  0.6906
  174SAPS   H7S19795   3.054   3.948   3.289  0.5620 -0.1105 -0.6468
  174SAPS   C2819796   3.249   3.902   3.388  1.2357  0.3026  0.5302
  174SAPS   H8R19797   3.355   3.893   3.360  1.5655  1.6602  1.2741
  174SAPS   C2919798   3.217   3.935   3.516 -0.4695  1.4311  0.2433
  174SAPS   H9R19799   3.304   3.952   3.580  1.4587  0.1424 -1.8710
  174SAPS  C21019800   3.082   3.962   3.578 -0.2921 -0.6677 -0.1269
  174SAPS  H10R19801   3.059   3.883   3.653 -0.5649 -1.4935 -1.0687
  174SAPS  H10S19802   3.000   3.963   3.504  0.4065  2.8922 -1.0477
  174SAPS  C21119803   3.060   4.093   3.659  0.0042 -0.1509  0.1565
  174SAPS  H11R19804   3.006   4.168   3.600  1.7434  0.8869 -0.1727
  174SAPS  C21219805   3.103   4.113   3.785  1.3491  0.2118 -0.4871
  174SAPS  H12R19806   3.063   4.202   3.835  0.7495  0.7758 -1.9175
  174SAPS  C21319807   3.173   4.010   3.871  0.2264 -0.2045 -0.6445
  174SAPS  H13R19808   3.267   3.973   3.825  0.9591  1.0491 -0.2328
  174SAPS  H13S19809   3.117   3.917   3.891  1.1675 -1.1792 -2.3707
  174SAPS  C21419810   3.210   4.071   4.010  0.3351 -0.7426  0.3035
  174SAPS  H14R19811   3.297   4.138   4.002  1.4074 -2.1680 -0.3695
  174SAPS  C21519812   3.157   4.042   4.134  0.1165  0.5532  0.9258
  174SAPS  H15R19813   3.207   4.104   4.210  2.5971  0.6724 -0.6612
  174SAPS  C21619814   3.050   3.946   4.171 -0.3702 -0.0623 -0.0422
  174SAPS  H16R19815   3.081   3.874   4.249  0.0168  1.8866  1.6921
  174SAPS  H16S19816   3.017   3.893   4.079 -2.2863  0.4200  0.3182
  174SAPS  C21719817   2.923   4.029   4.222  0.0380  0.0109  0.0831
  174SAPS  H17R19818   2.855   3.943   4.237  1.4571 -0.9914  1.0968
  174SAPS  H17S19819   2.882   4.103   4.151  0.0292 -0.3739 -0.3206
  174SAPS  C21819820   2.955   4.093   4.356 -0.4179  0.3435  0.3774
  174SAPS  H18R19821   3.010   4.186   4.329 -1.5862  0.8295 -0.4417
  174SAPS  H18S19822   3.023   4.029   4.415  0.7980  0.0097 -1.3071
  174SAPS  C21919823   2.839   4.128   4.443  0.0922  0.2840  0.7082
  174SAPS  H19R19824   2.799   4.039   4.497 -0.0102 -1.3201 -1.8835
  174SAPS  H19S19825   2.753   4.173   4.391 -1.3552 -3.8778 -0.9051
  174SAPS  C22019826   2.884   4.226   4.547  0.0453  0.3380  1.0237
  174SAPS  H20R19827   2.816   4.246   4.632 -1.8370  2.3235 -0.8298
  174SAPS  H20S19828   2.898   4.328   4.507  0.1797 -0.2141 -0.3975
  174SAPS  H20T19829   2.977   4.188   4.595  0.3973 -1.8853 -1.2005
  174SAPS   C3319830   3.013   3.190   3.023 -0.6596 -1.0251 -0.4615
  174SAPS   H3X19831   3.064   3.274   2.971  1.1778 -2.1106 -0.4860
  174SAPS   H3Y19832   3.081   3.103   3.035 -0.6617 -1.2210 -1.7060
  174SAPS   C3419833   2.951   3.239   3.157  0.5504  0.4101  0.0566
  174SAPS   H4X19834   2.929   3.149   3.219 -1.3063  0.4532 -0.4655
  174SAPS   H4Y19835   2.849   3.279   3.137  0.2212 -1.0148 -1.3513
  174SAPS   C3519836   3.033   3.340   3.238  0.1197 -0.1022  0.8225
  174SAPS   H5X19837   3.057   3.432   3.181  0.7349 -0.2211  0.8794
  174SAPS   H5Y19838   3.128   3.287   3.260  0.8154 -0.0642 -1.7750
  174SAPS   C3619839   2.965   3.377   3.370 -0.2911 -0.9715 -0.4450
  174SAPS   H6X19840   2.857   3.400   3.356  0.2477  2.3400  0.0201
  174SAPS   H6Y19841   3.020   3.468   3.404  1.9276 -2.9035  1.4636
  174SAPS   C3719842   2.983   3.285   3.487  0.3369  0.3109 -0.7456
  174SAPS   H7X19843   3.087   3.294   3.526  1.2334 -0.3256 -2.8143
  174SAPS   H7Y19844   2.968   3.183   3.446  1.4254 -0.4193  0.5843
  174SAPS   C3819845   2.896   3.309   3.607  0.3593 -0.5087  0.1628
  174SAPS   H8X19846   2.796   3.337   3.566 -0.4781 -2.3097  0.8624
  174SAPS   H8Y19847   2.925   3.399   3.666  0.9547 -0.7269  0.2106
  174SAPS   C3919848   2.890   3.183   3.697  0.7603 -0.8335 -1.0963
  174SAPS   H9X19849   2.993   3.175   3.738  0.1830  2.1056  1.2520
  174SAPS   H9Y19850   2.854   3.097   3.637 -3.3381  0.2958 -0.5271
  174SAPS  C31019851   2.807   3.203   3.818  0.1303 -0.3582  0.0614
  174SAPS  H10X19852   2.704   3.217   3.779  0.0586 -3.1678 -0.9753
  174SAPS  H10Y19853   2.843   3.293   3.872 -0.9588  0.2710 -0.2308
  174SAPS  C31119854   2.800   3.085   3.911 -0.7333 -0.1373 -0.5508
  174SAPS  H11X19855   2.903   3.056   3.941 -0.3203  0.6624 -1.1573
  174SAPS  H11Y19856   2.771   2.991   3.859  0.2195 -1.1010  0.5800
  174SAPS  C31219857   2.709   3.107   4.031  0.2192 -0.5953  0.1838
  174SAPS  H12X19858   2.602   3.109   4.000  0.3326 -0.6235 -0.2172
  174SAPS  H12Y19859   2.732   3.211   4.061 -0.3802 -0.2440 -0.5538
  174SAPS  C31319860   2.724   3.004   4.139 -0.1711  0.4956  0.0264
  174SAPS  H13X19861   2.824   3.010   4.187  0.2447 -0.0757 -0.7430
  174SAPS  H13Y19862   2.715   2.901   4.097 -2.2932  0.3263  0.7828
  174SAPS  C31419863   2.634   3.019   4.260  0.7161  0.3108  0.0035
  174SAPS  H14X19864   2.528   3.036   4.231  0.8977 -1.2037 -1.7015
  174SAPS  H14Y19865   2.678   3.104   4.317  1.6179 -0.8506  1.0965
  174SAPS  C31519866   2.637   2.903   4.357  0.0032 -0.0268  0.2480
  174SAPS  H15X19867   2.736   2.855   4.343  1.1117  2.1672  0.1059
  174SAPS  H15Y19868   2.569   2.817   4.338  1.0215 -0.9338  0.6230
  174SAPS  C31619869   2.626   2.934   4.509 -0.2222 -0.4245  0.4020
  174SAPS  H16X19870   2.720   2.984   4.539  0.9977 -2.2327 -0.2330
  174SAPS  H16Y19871   2.623   2.838   4.566 -4.0728  1.2251  3.4401
  174SAPS  C31719872   2.503   3.007   4.557 -0.8086 -0.8121  0.0322
  174SAPS  H17X19873   2.481   3.093   4.491 -0.1982 -0.4870  0.2471
  174SAPS  H17Y19874   2.522   3.052   4.657 -0.0226 -3.7644  1.3472
  174SAPS  C31819875   2.374   2.933   4.570  0.5966 -0.2724  0.6497
  174SAPS  H18X19876   2.288   3.004   4.572  1.0442  0.2576  1.2299
  174SAPS  H18Y19877   2.365   2.859   4.653 -1.4564 -0.2319  0.5102
  174SAPS  H18Z19878   2.358   2.873   4.478 -2.5130 -1.6392  1.9303
  175SAPS     N19879   4.797   2.004   2.805 -0.2896  0.0634 -0.3241
  175SAPS   HN119880   4.858   1.923   2.780 -0.6386 -0.2582 -0.1354
  175SAPS   HN219881   4.834   2.063   2.882 -0.8980  0.5227 -0.3751
  175SAPS   HN319882   4.699   1.975   2.823  0.0659 -0.5557  0.6879
  175SAPS   C1219883   4.807   2.086   2.672  0.9884  0.5025 -0.1918
  175SAPS  H12A19884   4.752   2.032   2.596  0.2021  2.7066 -1.2967
  175SAPS   C1319885   4.726   2.222   2.669  0.1761 -0.0188 -0.3858
  175SAPS  O13A19886   4.688   2.264   2.777  0.2401  0.7920 -0.8667
  175SAPS  O13B19887   4.724   2.296   2.567 -0.1184 -0.1521  0.2284
  175SAPS   C1119888   4.955   2.098   2.641  0.2642  0.9752 -0.2772
  175SAPS  H11A19889   5.017   2.125   2.730  1.0941  0.1924 -0.5948
  175SAPS  H11B19890   4.985   2.188   2.583  1.6896  0.4671 -0.3842
  175SAPS     P19891   5.067   1.853   2.624  0.1429  0.1358 -0.2484
  175SAPS   O1319892   5.051   1.754   2.519 -0.2876  0.0257  0.4907
  175SAPS   O1419893   5.202   1.890   2.669  0.2232 -0.3456 -0.7756
  175SAPS   O1219894   5.003   1.979   2.571  0.7204  0.4890 -0.0597
  175SAPS   O1119895   4.971   1.817   2.740  0.5374  0.2310 -0.4183
  175SAPS    C119896   4.960   1.682   2.783 -0.1909  0.1309 -0.0387
  175SAPS    HA19897   4.904   1.617   2.713  0.0704 -0.4836  0.3159
  175SAPS    HB19898   5.057   1.630   2.792  0.2528  0.3868 -2.5947
  175SAPS    C219899   4.909   1.680   2.932  0.0692  0.0923  0.8254
  175SAPS    HS19900   4.941   1.584   2.979 -0.4719 -0.0560  0.8886
  175SAPS   O2119901   4.769   1.689   2.916 -0.6120 -0.3864 -0.5142
  175SAPS   C2119902   4.714   1.572   2.880  0.0805  0.5423 -0.1721
  175SAPS   O2219903   4.773   1.470   2.855 -0.7617  0.7469 -0.3545
  175SAPS   C2219904   4.566   1.598   2.890 -0.7067 -0.3996  0.8817
  175SAPS   H2R19905   4.551   1.687   2.824 -0.9845  0.6036  2.2384
  175SAPS   H2S19906   4.513   1.517   2.836  0.4983  0.1606 -1.2710
  175SAPS    C319907   4.971   1.792   3.014 -0.1610  0.3177  0.0552
  175SAPS    HX19908   4.925   1.891   2.992  1.0961  0.9805  0.2848
  175SAPS    HY19909   5.080   1.806   3.000 -0.0460 -0.0630  0.5325
  175SAPS   O3119910   4.958   1.759   3.157 -0.1197 -0.2903  0.1195
  175SAPS   C3119911   4.853   1.790   3.225  0.4122 -0.4666 -0.3459
  175SAPS   O3219912   4.765   1.862   3.185  0.0155 -0.3769 -0.0594
  175SAPS   C3219913   4.868   1.725   3.365 -0.1050 -1.2611 -1.0924
  175SAPS   H2X19914   4.952   1.774   3.417 -1.4109  2.0230 -1.8275
  175SAPS   H2Y19915   4.889   1.619   3.339  0.4557 -0.3933 -4.7478
  175SAPS   C2319916   4.499   1.629   3.028  0.1466  0.4402 -0.4715
  175SAPS   H3R19917   4.391   1.654   3.018 -0.6041 -0.6389  3.3637
  175SAPS   H3S19918   4.545   1.708   3.091 -2.1593 -0.1418  2.1224
  175SAPS   C2419919   4.510   1.496   3.117 -0.8795  0.3288 -0.5852
  175SAPS   H4R19920   4.614   1.457   3.121 -0.9065  0.3386  0.5074
  175SAPS   H4S19921   4.465   1.417   3.052 -1.5944  0.4297 -0.2159
  175SAPS   C2519922   4.429   1.504   3.241  0.4544 -0.8147  0.1618
  175SAPS   H5R19923   4.345   1.571   3.219  0.5701 -1.3385 -2.2490
  175SAPS   C2619924   4.439   1.439   3.362 -0.4351 -0.0782 -0.1099
  175SAPS   H6R19925   4.360   1.457   3.436 -0.4955  2.0425 -0.6203
  175SAPS   C2719926   4.547   1.333   3.394  0.5472  0.9306 -0.3238
  175SAPS   H7R19927   4.603   1.368   3.483  1.3537 -1.3947  0.1455
  175SAPS   H7S19928   4.619   1.308   3.313  1.6342 -2.1242  1.4156
  175SAPS   C2819929   4.470   1.206   3.416  0.5636  0.2422  0.2076
  175SAPS   H8R19930   4.459   1.151   3.321  0.6420  1.9013 -0.7933
  175SAPS   C2919931   4.431   1.145   3.531  0.3665  0.3843 -0.1933
  175SAPS   H9R19932   4.366   1.059   3.512  0.9748  0.2839 -1.9902
  175SAPS  C21019933   4.458   1.169   3.677 -0.0448  0.3112  0.1484
  175SAPS  H10R19934   4.563   1.132   3.686 -0.8955 -2.3692 -0.2928
  175SAPS  H10S19935   4.406   1.101   3.748  0.3306  0.6643  0.7814
  175SAPS  C21119936   4.448   1.312   3.726 -0.4754  0.1073  0.1775
  175SAPS  H11R19937   4.405   1.378   3.649 -0.5057 -0.0364  0.0699
  175SAPS  C21219938   4.471   1.369   3.843  0.3190  0.1056 -0.1086
  175SAPS  H12R19939   4.446   1.476   3.850 -0.2488  0.0770 -1.4089
  175SAPS  C21319940   4.522   1.308   3.971  0.2864 -0.6177  0.4269
  175SAPS  H13R19941   4.438   1.254   4.020  1.5332 -1.9269  1.1955
  175SAPS  H13S19942   4.562   1.393   4.031 -1.0374  1.0615 -0.9853
  175SAPS  C21419943   4.648   1.214   3.957 -0.3009 -0.1257 -0.8382
  175SAPS  H14R19944   4.692   1.199   3.857  1.6526  1.8024 -0.3457
  175SAPS  C21519945   4.677   1.133   4.061 -0.5114  0.0744  0.2229
  175SAPS  H15R19946   4.774   1.083   4.046 -0.6159  0.1940 -0.9395
  175SAPS  C21619947   4.621   1.144   4.202 -0.1136 -0.4713 -0.1934
  175SAPS  H16R19948   4.606   1.045   4.251 -1.0356 -1.2035 -1.8942
  175SAPS  H16S19949   4.521   1.192   4.197 -0.3331 -1.0604 -2.3300
  175SAPS  C21719950   4.704   1.237   4.294  0.6437  0.1977  0.0537
  175SAPS  H17R19951   4.712   1.341   4.255  0.2241  0.4185  0.5529
  175SAPS  H17S19952   4.807   1.195   4.294  0.5138 -0.2206 -1.8827
  175SAPS  C21819953   4.650   1.247   4.432 -0.2727 -0.7243  0.0077
  175SAPS  H18R19954   4.631   1.148   4.480  1.4636 -1.3756 -0.5676
  175SAPS  H18S19955   4.546   1.286   4.430 -0.1291 -0.3466 -2.1081
  175SAPS  C21919956   4.733   1.339   4.522 -0.4659 -0.1311  0.0441
  175SAPS  H19R19957   4.765   1.435   4.475  3.4107 -1.2551  0.0868
  175SAPS  H19S19958   4.823   1.282   4.553 -1.3915 -1.8189 -0.2636
  175SAPS  C22019959   4.662   1.378   4.651 -0.0454 -0.5364  0.6216
  175SAPS  H20R19960   4.582   1.455   4.644  1.4167  1.1485  1.3992
  175SAPS  H20S19961   4.734   1.420   4.725 -2.1667  1.4441  1.6987
  175SAPS  H20T19962   4.623   1.284   4.693  1.0760 -0.7614  1.2054
  175SAPS   C3319963   4.745   1.734   3.449 -0.2628  0.0515  0.0465
  175SAPS   H3X19964   4.678   1.647   3.429 -1.0900  0.9831 -1.3689
  175SAPS   H3Y19965   4.689   1.829   3.440  0.2578  0.7269  3.0456
  175SAPS   C3419966   4.769   1.709   3.601 -0.3488 -0.6268  0.4266
  175SAPS   H4X19967   4.842   1.779   3.646  1.0753 -0.4127 -2.0495
  175SAPS   H4Y19968   4.821   1.611   3.610  1.9911  0.3772 -1.1025
  175SAPS   C3519969   4.641   1.701   3.691 -0.1199 -0.3570 -0.5112
  175SAPS   H5X19970   4.572   1.621   3.656  1.8571 -3.6134  2.4254
  175SAPS   H5Y19971   4.587   1.798   3.686 -1.8126 -1.0860  1.6832
  175SAPS   C3619972   4.674   1.684   3.842 -0.3313  0.1030 -0.2068
  175SAPS   H6X19973   4.738   1.594   3.854 -0.3823 -0.1577 -1.6349
  175SAPS   H6Y19974   4.583   1.667   3.904  0.9736 -1.1840  1.4648
  175SAPS   C3719975   4.749   1.802   3.901 -0.5050 -0.2796  0.1606
  175SAPS   H7X19976   4.684   1.889   3.877 -0.1210 -0.2050 -0.6632
  175SAPS   H7Y19977   4.843   1.820   3.844  0.2105 -0.7239  1.1674
  175SAPS   C3819978   4.782   1.784   4.053 -0.3847 -0.4007  1.1923
  175SAPS   H8X19979   4.687   1.769   4.109 -0.3943  1.6580  1.8215
  175SAPS   H8Y19980   4.815   1.886   4.082 -2.6501  1.1501 -1.2589
  175SAPS   C3919981   4.893   1.684   4.082  0.0442  0.2613  0.0821
  175SAPS   H9X19982   4.987   1.712   4.029  0.0966  1.8494  0.9566
  175SAPS   H9Y19983   4.859   1.586   4.042 -2.1770  0.8396  0.4319
  175SAPS  C31019984   4.927   1.657   4.230  0.0881  0.0612 -0.4056
  175SAPS  H10X19985   4.839   1.659   4.299  0.4620 -1.0124  0.1311
  175SAPS  H10Y19986   4.991   1.743   4.259  0.2672  0.4958 -2.0256
  175SAPS  C31119987   5.008   1.529   4.239 -0.2051  0.2861 -0.3777
  175SAPS  H11X19988   5.081   1.519   4.156  1.6452  1.4683  1.0280
  175SAPS  H11Y19989   4.942   1.440   4.227 -0.4545  0.4432 -0.1997
  175SAPS  C31219990   5.067   1.501   4.373 -0.7684 -0.2013  0.3178
  175SAPS  H12X19991   5.103   1.396   4.382 -1.1990 -0.1893  3.0517
  175SAPS  H12Y19992   4.986   1.506   4.448 -1.5436 -1.8061 -0.3524
  175SAPS  C31319993   5.199   1.569   4.411  0.2499 -0.9917  0.1710
  175SAPS  H13X19994   5.180   1.671   4.450  0.1228 -0.8782 -0.1864
  175SAPS  H13Y19995   5.274   1.568   4.329  1.9789 -1.1979  1.6891
  175SAPS  C31419996   5.277   1.504   4.528  0.3720 -0.0282  0.6625
  175SAPS  H14X19997   5.368   1.567   4.543  2.4491 -2.8003  0.6589
  175SAPS  H14Y19998   5.313   1.404   4.496  0.1304 -0.0077  0.3228
  175SAPS  C31519999   5.205   1.481   4.658 -0.6944 -0.9857  0.1890
  175SAPS  H15X20000   5.097   1.461   4.641 -0.6959 -0.5049 -0.4422
  175SAPS  H15Y20001   5.200   1.571   4.724 -3.7311  1.0074 -2.4307
  175SAPS  C31620002   5.257   1.367   4.749  0.8751 -0.4110  0.6284
  175SAPS  H16X20003   5.364   1.367   4.780  0.6868 -3.2357  1.5850
  175SAPS  H16Y20004   5.240   1.275   4.691  0.9371  0.0793 -0.1837
  175SAPS  C31720005   5.190   1.363   4.892  0.5404  0.4284  0.0947
  175SAPS  H17X20006   5.207   1.453   4.955 -0.7066  1.2102 -0.6617
  175SAPS  H17Y20007   5.216   1.273   4.953  0.5136  0.3594  0.0045
  175SAPS  C31820008   5.033   1.349   4.884 -0.4492 -0.3714  0.1548
  175SAPS  H18X20009   4.996   1.421   4.807 -0.0321 -0.0217  0.2763
  175SAPS  H18Y20010   4.989   1.367   4.984 -0.5396  0.5191 -0.0346
  175SAPS  H18Z20011   5.001   1.249   4.847  1.3444 -0.8171 -0.2749
  176SAPS     N20012   3.481   1.602   2.239  0.0081 -0.1046  0.4831
  176SAPS   HN120013   3.382   1.575   2.257  0.0405 -1.4173 -1.0980
  176SAPS   HN220014   3.496   1.705   2.236  0.8783 -0.2591 -0.7671
  176SAPS   HN320015   3.506   1.566   2.145  0.1162  0.4748  0.2845
  176SAPS   C1220016   3.558   1.531   2.351 -0.5006 -0.2794  0.4497
  176SAPS  H12A20017   3.490   1.534   2.435 -0.6587  0.4376  0.3025
  176SAPS   C1320018   3.592   1.392   2.319  0.2695 -0.4427 -0.2059
  176SAPS  O13A20019   3.545   1.328   2.218  0.4140 -0.2393 -0.0530
  176SAPS  O13B20020   3.658   1.331   2.401  0.4984  0.1003  0.2372
  176SAPS   C1120021   3.696   1.607   2.362  0.6790 -0.1223 -0.0476
  176SAPS  H11A20022   3.743   1.600   2.261  1.7341 -0.8200  0.4783
  176SAPS  H11B20023   3.752   1.552   2.440 -0.1767 -1.3049 -0.2352
  176SAPS     P20024   3.812   1.830   2.410  0.0041 -0.3107  0.1197
  176SAPS   O1320025   3.896   1.780   2.301 -0.4099 -0.0904  0.0033
  176SAPS   O1420026   3.769   1.973   2.428  0.0323  0.5015  0.3549
  176SAPS   O1220027   3.675   1.744   2.403 -0.3934  0.3591  0.0674
  176SAPS   O1120028   3.874   1.795   2.546 -0.0400  0.2119  0.7608
  176SAPS    C120029   3.820   1.729   2.657 -0.0504  0.9139 -0.3368
  176SAPS    HA20030   3.728   1.780   2.693 -1.6896 -0.8339 -1.8625
  176SAPS    HB20031   3.799   1.626   2.620  0.6666  0.3629  0.7092
  176SAPS    C220032   3.915   1.720   2.777 -0.7627 -0.2280  0.0394
  176SAPS    HS20033   3.998   1.663   2.729 -1.0887 -0.1543 -0.6092
  176SAPS   O2120034   3.845   1.637   2.872  0.3072  0.0001 -0.4362
  176SAPS   C2120035   3.861   1.500   2.860 -0.4337  0.3684 -0.2538
  176SAPS   O2220036   3.937   1.446   2.784 -0.2434  0.1257 -0.3490
  176SAPS   C2220037   3.789   1.443   2.984  0.1376  0.4761 -0.3779
  176SAPS   H2R20038   3.747   1.520   3.052 -0.0462 -1.1982  1.5313
  176SAPS   H2S20039   3.696   1.388   2.960 -0.8822  0.8610  2.3104
  176SAPS    C320040   3.967   1.859   2.830  0.1003  0.4931  0.0299
  176SAPS    HX20041   3.875   1.904   2.873  0.3680  0.7491  0.3422
  176SAPS    HY20042   4.006   1.917   2.743 -1.5064  2.2773  0.4472
  176SAPS   O3120043   4.061   1.830   2.936  0.1813  0.2170  0.1520
  176SAPS   C3120044   4.141   1.928   2.979 -0.3910 -0.1015  0.2862
  176SAPS   O3220045   4.162   2.034   2.916  0.3856 -0.6024 -0.2918
  176SAPS   C3220046   4.210   1.880   3.104 -0.2237 -0.6371  0.0659
  176SAPS   H2X20047   4.302   1.826   3.072  0.4927 -0.5555  1.9125
  176SAPS   H2Y20048   4.143   1.810   3.158  0.0973 -1.2984 -0.3799
  176SAPS   C2320049   3.891   1.370   3.074 -0.2752  0.0451 -0.0988
  176SAPS   H3R20050   3.938   1.280   3.029  3.2008  1.3497  0.6015
  176SAPS   H3S20051   3.837   1.330   3.163 -0.8622 -0.0001 -0.4685
  176SAPS   C2420052   3.995   1.473   3.135 -0.8968 -0.0586 -0.6227
  176SAPS   H4R20053   4.058   1.511   3.052 -0.2841  0.0814 -0.1003
  176SAPS   H4S20054   4.057   1.412   3.204 -2.7915  0.6326  1.8404
  176SAPS   C2520055   3.947   1.606   3.195  0.1357  0.0779  0.6918
  176SAPS   H5R20056   3.913   1.686   3.127  0.9328  1.7283  2.1634
  176SAPS   C2620057   3.967   1.653   3.322 -0.3426  0.2980  0.0118
  176SAPS   H6R20058   3.917   1.748   3.347 -1.3292 -0.9931  3.5132
  176SAPS   C2720059   4.028   1.570   3.437 -0.4899  0.2287 -0.1991
  176SAPS   H7R20060   4.088   1.479   3.414  2.0395  1.4149  1.3216
  176SAPS   H7S20061   3.946   1.527   3.499  0.8327 -0.2545  1.2852
  176SAPS   C2820062   4.126   1.647   3.516 -0.6207  0.6121 -0.3369
  176SAPS   H8R20063   4.197   1.711   3.460  2.0502  0.3962  2.5519
  176SAPS   C2920064   4.144   1.634   3.649  0.4823  0.2754 -0.1190
  176SAPS   H9R20065   4.219   1.701   3.695 -0.5889  1.6901 -0.3485
  176SAPS  C21020066   4.069   1.551   3.746  0.0946 -0.0746  0.2819
  176SAPS  H10R20067   4.135   1.483   3.805  1.6960  0.3425 -0.9617
  176SAPS  H10S20068   3.990   1.483   3.708  1.1323  0.3486 -2.8993
  176SAPS  C21120069   4.007   1.654   3.840  0.1531  0.3754 -0.8577
  176SAPS  H11R20070   3.917   1.710   3.810  0.1875  0.5735 -0.5969
  176SAPS  C21220071   4.031   1.668   3.972 -0.3150 -0.0841 -0.6078
  176SAPS  H12R20072   3.985   1.757   4.018 -0.5072  0.1611 -1.2568
  176SAPS  C21320073   4.137   1.604   4.057 -0.1922  0.6214 -0.4111
  176SAPS  H13R20074   4.158   1.666   4.147  0.2151 -0.6070  0.3545
  176SAPS  H13S20075   4.232   1.600   4.000 -0.5704 -3.1650 -1.0414
  176SAPS  C21420076   4.107   1.464   4.104 -0.4642  0.9149 -0.6267
  176SAPS  H14R20077   4.021   1.415   4.055 -0.3309  0.5919 -0.5392
  176SAPS  C21520078   4.178   1.402   4.200 -0.0667 -0.1194 -1.3333
  176SAPS  H15R20079   4.159   1.299   4.233  2.0546 -0.4131 -0.8952
  176SAPS  C21620080   4.295   1.459   4.273 -0.7069 -0.9082 -1.3473
  176SAPS  H16R20081   4.342   1.545   4.221  3.1444 -0.7580  1.9231
  176SAPS  H16S20082   4.378   1.385   4.271  0.1396 -0.2058  2.1395
  176SAPS  C21720083   4.286   1.498   4.426 -0.4446  0.0312  0.8793
  176SAPS  H17R20084   4.390   1.535   4.444 -0.4380  1.5717 -1.7155
  176SAPS  H17S20085   4.273   1.404   4.483 -0.0040  0.1931  1.2595
  176SAPS  C21820086   4.195   1.614   4.470  0.0751  0.1956 -0.0723
  176SAPS  H18R20087   4.094   1.607   4.425 -0.4193 -0.2541  1.0692
  176SAPS  H18S20088   4.242   1.706   4.430 -0.3274  0.9508  1.1386
  176SAPS  C21920089   4.173   1.623   4.621  0.2252 -0.5169  0.2485
  176SAPS  H19R20090   4.116   1.529   4.636  0.4728 -0.8658 -0.9237
  176SAPS  H19S20091   4.121   1.718   4.645 -1.1988 -1.4735  1.1446
  176SAPS  C22020092   4.306   1.615   4.700 -0.0487 -0.5219 -0.3060
  176SAPS  H20R20093   4.304   1.549   4.789  1.6947 -0.3582 -0.1018
  176SAPS  H20S20094   4.320   1.719   4.736 -0.8011 -1.2988  2.4664
  176SAPS  H20T20095   4.393   1.598   4.633  0.5488  0.0628  0.3186
  176SAPS   C3320096   4.252   1.998   3.190  0.0271 -0.4820  0.7139
  176SAPS   H3X20097   4.177   2.080   3.189 -1.5264 -1.8259 -1.7094
  176SAPS   H3Y20098   4.345   2.040   3.144  0.8623 -2.5385  0.4031
  176SAPS   C3420099   4.285   1.961   3.335 -0.6663 -0.1049 -0.0061
  176SAPS   H4X20100   4.351   1.872   3.338 -0.1730  0.2585  3.1919
  176SAPS   H4Y20101   4.195   1.950   3.400 -0.3761 -0.8795  0.2761
  176SAPS   C3520102   4.365   2.073   3.400  0.2005 -0.0136 -0.2921
  176SAPS   H5X20103   4.288   2.153   3.400  1.0444  0.8279  0.6382
  176SAPS   H5Y20104   4.453   2.109   3.342  0.2377  0.6308  0.1499
  176SAPS   C3620105   4.419   2.039   3.544 -0.2619  0.1382 -0.2625
  176SAPS   H6X20106   4.457   2.132   3.591 -0.5488  0.9481 -1.5652
  176SAPS   H6Y20107   4.502   1.968   3.525  0.4206  1.0530 -0.7769
  176SAPS   C3720108   4.325   1.960   3.634  0.7828 -0.3317 -0.4932
  176SAPS   H7X20109   4.340   1.859   3.590  1.0524 -1.5215  2.1159
  176SAPS   H7Y20110   4.219   1.991   3.626  0.1038 -2.6532 -1.3966
  176SAPS   C3820111   4.382   1.970   3.780  0.8676  0.2195 -0.8258
  176SAPS   H8X20112   4.367   2.071   3.825  1.8540 -0.2938  0.7342
  176SAPS   H8Y20113   4.492   1.963   3.769  0.6912  0.6488 -3.7091
  176SAPS   C3920114   4.332   1.859   3.874 -0.3747  0.2446 -0.6152
  176SAPS   H9X20115   4.360   1.757   3.842  0.1854  0.2532 -0.1788
  176SAPS   H9Y20116   4.221   1.855   3.875 -0.4651  1.7542  1.1633
  176SAPS  C31020117   4.382   1.864   4.020 -0.7652 -0.1341 -0.0929
  176SAPS  H10X20118   4.490   1.887   4.021 -0.9044  0.5334  1.0300
  176SAPS  H10Y20119   4.377   1.767   4.073 -1.9231 -0.4015 -0.6523
  176SAPS  C31120120   4.292   1.957   4.107 -0.3790  0.1500 -0.1593
  176SAPS  H11X20121   4.202   1.897   4.133 -0.8572  0.1948 -1.6420
  176SAPS  H11Y20122   4.257   2.038   4.039  0.9032 -0.3488 -1.4488
  176SAPS  C31220123   4.365   2.007   4.228 -0.6703  0.0078  0.7049
  176SAPS  H12X20124   4.317   2.102   4.260 -3.1986 -0.3660 -1.6099
  176SAPS  H12Y20125   4.468   2.032   4.197 -1.2613  1.3232 -0.3099
  176SAPS  C31320126   4.388   1.893   4.336 -0.6243 -0.6643  0.4411
  176SAPS  H13X20127   4.379   1.789   4.297  1.4603 -0.4207 -0.8347
  176SAPS  H13Y20128   4.326   1.903   4.428  1.5237 -0.7715  1.9828
  176SAPS  C31420129   4.531   1.901   4.392  0.4148  0.3548  0.1769
  176SAPS  H14X20130   4.542   2.006   4.428 -0.3199  0.4596  0.1070
  176SAPS  H14Y20131   4.613   1.889   4.318  0.7818  1.5692  0.3598
  176SAPS  C31520132   4.557   1.811   4.511  0.7910 -0.5257  0.1403
  176SAPS  H15X20133   4.551   1.706   4.476 -1.3713 -0.2918 -0.3552
  176SAPS  H15Y20134   4.491   1.825   4.599  0.5230  0.7216 -0.2386
  176SAPS  C31620135   4.702   1.840   4.561 -0.0882  0.3040  0.5517
  176SAPS  H16X20136   4.698   1.911   4.646 -2.4217 -1.6897  2.2830
  176SAPS  H16Y20137   4.769   1.872   4.479 -0.3266 -2.5598 -0.9133
  176SAPS  C31720138   4.780   1.715   4.620  0.1812 -0.2925  0.1695
  176SAPS  H17X20139   4.808   1.650   4.535 -2.5145 -0.0360 -1.0313
  176SAPS  H17Y20140   4.724   1.674   4.707  0.5829  1.4004  1.2957
  176SAPS  C31820141   4.911   1.768   4.689 -0.3607  0.2525  0.2278
  176SAPS  H18X20142   4.881   1.834   4.773 -1.0122  0.3169 -0.0422
  176SAPS  H18Y20143   4.990   1.808   4.623 -1.7062  1.7058 -0.5678
  176SAPS  H18Z20144   4.964   1.681   4.735  0.2945  0.2481 -0.5185
  177SAPS     N20145   6.153   2.293   2.469 -0.0377 -0.4079 -0.2536
  177SAPS   HN120146   6.194   2.316   2.562 -0.8673 -1.0685  0.2932
  177SAPS   HN220147   6.192   2.202   2.435  0.5113  0.4354 -2.0038
  177SAPS   HN320148   6.201   2.362   2.408 -0.7110  0.5735  0.2948
  177SAPS   C1220149   6.003   2.312   2.465  0.2192 -0.5548 -0.3214
  177SAPS  H12A20150   6.002   2.372   2.375  1.3902 -0.7932 -0.5127
  177SAPS   C1320151   5.930   2.179   2.440 -0.3591 -0.3416  0.4750
  177SAPS  O13A20152   5.999   2.076   2.405  0.5070 -0.0654 -0.0404
  177SAPS  O13B20153   5.803   2.176   2.422 -0.2863 -0.2388  0.9027
  177SAPS   C1120154   5.947   2.392   2.592 -0.4902  0.0784  0.1689
  177SAPS  H11A20155   5.981   2.344   2.687  0.0906  0.4243  0.1433
  177SAPS  H11B20156   5.837   2.405   2.587 -0.2423  2.0582 -0.8321
  177SAPS     P20157   5.959   2.661   2.622  0.1978 -0.1494 -0.4928
  177SAPS   O1320158   6.052   2.771   2.580 -0.6135  0.5023  0.2743
  177SAPS   O1420159   5.829   2.672   2.557  0.6230 -0.1831  0.3813
  177SAPS   O1220160   6.017   2.521   2.585 -0.0346 -0.3204 -0.4161
  177SAPS   O1120161   5.946   2.658   2.778  0.3426  0.5026 -0.2833
  177SAPS    C120162   6.048   2.599   2.853  0.8466 -0.4843  0.6103
  177SAPS    HA20163   6.088   2.503   2.814  1.1514  0.4207 -1.4482
  177SAPS    HB20164   6.137   2.665   2.861  0.4139  0.2153 -0.1534
  177SAPS    C220165   5.994   2.571   2.992 -0.8232  0.4192 -0.1816
  177SAPS    HS20166   5.897   2.518   2.985 -0.6127  0.1550 -1.1909
  177SAPS   O2120167   5.981   2.699   3.064  0.3689  0.4721  0.2932
  177SAPS   C2120168   5.900   2.698   3.159  0.7697 -0.5351 -0.2451
  177SAPS   O2220169   5.843   2.604   3.207  0.4606  0.9916 -0.3875
  177SAPS   C2220170   5.873   2.846   3.196 -0.2234  0.8305 -1.1991
  177SAPS   H2R20171   5.974   2.889   3.213  0.0379 -0.5220  0.9646
  177SAPS   H2S20172   5.819   2.892   3.110 -2.5527 -2.2439 -1.5881
  177SAPS    C320173   6.090   2.476   3.066  0.6350  0.1277  0.2857
  177SAPS    HX20174   6.061   2.463   3.172 -0.4977  2.5781  0.3411
  177SAPS    HY20175   6.188   2.526   3.079  2.0822 -2.9002  2.0217
  177SAPS   O3120176   6.117   2.352   2.992 -0.3083  0.7524  0.1774
  177SAPS   C3120177   6.032   2.253   3.025 -0.2709 -0.3092 -0.4875
  177SAPS   O3220178   5.935   2.271   3.098  0.3169  0.2729  0.1164
  177SAPS   C3220179   6.084   2.120   2.982 -0.6118 -0.3626  0.3452
  177SAPS   H2X20180   6.194   2.126   2.997 -0.5453 -0.3013 -0.1381
  177SAPS   H2Y20181   6.057   2.105   2.875  0.0386 -4.0218  0.5552
  177SAPS   C2320182   5.784   2.861   3.328 -0.5802  0.3963 -0.0166
  177SAPS   H3R20183   5.815   2.784   3.403 -1.3274  0.0981 -0.0041
  177SAPS   H3S20184   5.680   2.854   3.292 -0.7904  1.3697  0.3744
  177SAPS   C2420185   5.794   3.001   3.388  0.4003  0.6000  0.4179
  177SAPS   H4R20186   5.717   3.008   3.468 -0.8347 -2.8844 -0.2816
  177SAPS   H4S20187   5.768   3.076   3.311  1.4257 -0.9828 -1.5625
  177SAPS   C2520188   5.930   3.028   3.436 -0.3323  0.9591 -0.5202
  177SAPS   H5R20189   6.005   3.050   3.359 -1.4322  0.7897 -1.6791
  177SAPS   C2620190   5.976   2.999   3.558  0.1847 -0.0563 -0.1200
  177SAPS   H6R20191   6.080   3.033   3.575 -0.4426  2.8435 -1.3397
  177SAPS   C2720192   5.915   2.943   3.684  0.8348  0.3463  0.3390
  177SAPS   H7R20193   5.814   2.904   3.658  1.3194 -1.1192  0.5774
  177SAPS   H7S20194   5.902   3.022   3.762 -0.8296  0.5686 -0.1319
  177SAPS   C2820195   5.997   2.823   3.731 -0.0265 -0.5017  0.6217
  177SAPS   H8R20196   6.072   2.776   3.665  1.0869  1.9297  0.0155
  177SAPS   C2920197   6.006   2.779   3.856 -0.9749 -0.3006 -0.0624
  177SAPS   H9R20198   6.067   2.689   3.873 -0.7206 -0.1494 -0.1616
  177SAPS  C21020199   5.926   2.827   3.977  0.0290  0.9104 -0.0184
  177SAPS  H10R20200   5.819   2.807   3.953 -0.7767  1.0183  3.0796
  177SAPS  H10S20201   5.940   2.937   3.988 -1.3728  0.9336  2.3712
  177SAPS  C21120202   5.964   2.746   4.099 -0.0112  0.3630 -0.3706
  177SAPS  H11R20203   5.879   2.679   4.120 -0.2207  0.9224  0.6027
  177SAPS  C21220204   6.071   2.763   4.179  0.1841 -0.2483 -0.1424
  177SAPS  H12R20205   6.076   2.714   4.278 -1.2064 -2.7504 -1.2003
  177SAPS  C21320206   6.173   2.872   4.166 -0.2783  0.2502  0.6561
  177SAPS  H13R20207   6.155   2.941   4.252 -0.8508 -0.7494  1.3613
  177SAPS  H13S20208   6.158   2.932   4.074  2.5127 -0.0629 -0.0921
  177SAPS  C21420209   6.324   2.832   4.171  0.2947  0.6002  0.6483
  177SAPS  H14R20210   6.369   2.827   4.071  1.5099 -0.7176  1.2234
  177SAPS  C21520211   6.397   2.817   4.281 -0.6977 -0.4363 -0.0289
  177SAPS  H15R20212   6.504   2.793   4.276  0.2176  2.7076  1.5473
  177SAPS  C21620213   6.356   2.851   4.422 -0.3198  1.0171  0.0334
  177SAPS  H16R20214   6.248   2.876   4.433 -0.5917 -0.5083  1.2605
  177SAPS  H16S20215   6.414   2.939   4.457 -1.0362  0.7781  1.9516
  177SAPS  C21720216   6.383   2.738   4.523  0.4251 -0.5219 -0.0840
  177SAPS  H17R20217   6.336   2.641   4.496 -1.7716  0.6975 -0.9044
  177SAPS  H17S20218   6.331   2.777   4.613  0.6231  0.9138 -0.5793
  177SAPS  C21820219   6.530   2.712   4.567 -0.0185 -0.1417  0.7219
  177SAPS  H18R20220   6.577   2.807   4.601 -0.2341 -0.5051  2.0877
  177SAPS  H18S20221   6.590   2.700   4.474  0.9775  1.3640  1.1412
  177SAPS  C21920222   6.556   2.600   4.667 -0.0756  0.2288  0.7041
  177SAPS  H19R20223   6.650   2.546   4.644 -1.3691 -2.4625  1.4013
  177SAPS  H19S20224   6.480   2.520   4.660 -1.6131  1.5260  1.7635
  177SAPS  C22020225   6.565   2.660   4.810  0.5310  0.3720  1.3176
  177SAPS  H20R20226   6.612   2.594   4.886  0.8112  0.4129  1.1802
  177SAPS  H20S20227   6.464   2.681   4.851 -0.2243 -0.3548 -0.1183
  177SAPS  H20T20228   6.633   2.748   4.812 -1.0275  1.7088 -1.0217
  177SAPS   C3320229   6.039   2.005   3.077  0.1268 -0.0467  0.1285
  177SAPS   H3X20230   6.050   1.912   3.019 -3.9303  0.1162 -1.2154
  177SAPS   H3Y20231   5.928   2.009   3.085 -0.1804 -0.8437 -2.6905
  177SAPS   C3420232   6.112   2.002   3.209  0.1365 -0.4918 -0.0277
  177SAPS   H4X20233   6.216   1.967   3.190  0.5673  1.6562 -1.9589
  177SAPS   H4Y20234   6.073   1.914   3.265  1.6182 -2.5454 -2.0668
  177SAPS   C3520235   6.123   2.125   3.305  0.4791 -0.0867  0.1928
  177SAPS   H5X20236   6.024   2.170   3.332  1.3867  0.9567  1.9776
  177SAPS   H5Y20237   6.176   2.204   3.247 -1.1302  0.4287 -0.6593
  177SAPS   C3620238   6.196   2.088   3.432 -0.1935 -0.4259  0.2891
  177SAPS   H6X20239   6.306   2.094   3.421 -0.2088  3.3676  0.9998
  177SAPS   H6Y20240   6.175   1.982   3.457 -2.4318 -0.1989 -0.4197
  177SAPS   C3720241   6.163   2.173   3.555  0.2458 -0.0320  0.5285
  177SAPS   H7X20242   6.064   2.137   3.591 -0.2734  1.2148  0.4143
  177SAPS   H7Y20243   6.170   2.281   3.530 -0.3930 -0.0517  0.2507
  177SAPS   C3820244   6.256   2.164   3.669  0.5362 -0.3018 -0.6530
  177SAPS   H8X20245   6.356   2.201   3.638  0.8367 -0.3964  0.1555
  177SAPS   H8Y20246   6.263   2.056   3.694  1.0083 -0.3640 -1.0583
  177SAPS   C3920247   6.215   2.253   3.787 -0.3854 -0.0467 -0.3286
  177SAPS   H9X20248   6.110   2.227   3.812  0.3887 -1.9056  1.2339
  177SAPS   H9Y20249   6.234   2.359   3.759  0.0455 -0.5183 -1.9024
  177SAPS  C31020250   6.291   2.221   3.923  0.2568  0.5503 -0.7503
  177SAPS  H10X20251   6.399   2.245   3.921  0.5157 -0.4648  0.2183
  177SAPS  H10Y20252   6.280   2.115   3.952 -1.7695  0.9262  0.0727
  177SAPS  C31120253   6.231   2.290   4.046  1.0494  0.7404  0.3459
  177SAPS  H11X20254   6.122   2.278   4.029  0.6168  2.6026  1.4576
  177SAPS  H11Y20255   6.266   2.395   4.031  0.8748  1.0433  1.9038
  177SAPS  C31220256   6.265   2.233   4.185 -0.2962 -0.1843 -0.4164
  177SAPS  H12X20257   6.373   2.218   4.208  0.2355 -0.1763 -2.6928
  177SAPS  H12Y20258   6.219   2.132   4.181  1.6615 -1.1059 -0.5244
  177SAPS  C31320259   6.216   2.322   4.298  1.1864  0.6079 -0.2554
  177SAPS  H13X20260   6.113   2.348   4.266  1.3601  0.6955 -0.7561
  177SAPS  H13Y20261   6.263   2.422   4.289  2.1284  0.1040 -1.1418
  177SAPS  C31420262   6.221   2.263   4.441  0.5158  0.1658  0.6347
  177SAPS  H14X20263   6.326   2.239   4.469  1.4212  1.6898 -1.2607
  177SAPS  H14Y20264   6.156   2.174   4.452  1.3437 -0.5371 -0.0222
  177SAPS  C31520265   6.172   2.363   4.544  0.1500  0.2760  0.8584
  177SAPS  H15X20266   6.084   2.420   4.509  0.0841 -0.0716  0.4658
  177SAPS  H15Y20267   6.262   2.429   4.536  1.6235 -1.7506 -0.2968
  177SAPS  C31620268   6.168   2.290   4.682  0.1141 -0.2150 -0.2833
  177SAPS  H16X20269   6.234   2.201   4.688  1.1434  0.2893 -2.9761
  177SAPS  H16Y20270   6.065   2.250   4.688 -0.8296  0.3989 -6.5333
  177SAPS  C31720271   6.190   2.394   4.803 -0.0377  0.2726  0.6715
  177SAPS  H17X20272   6.278   2.440   4.754 -2.2821  1.6781 -2.4167
  177SAPS  H17Y20273   6.213   2.340   4.897  3.0094 -1.4636 -0.9245
  177SAPS  C31820274   6.076   2.500   4.815 -0.7791 -0.5141 -0.0778
  177SAPS  H18X20275   6.001   2.461   4.743  0.4978 -2.2037 -0.5504
  177SAPS  H18Y20276   6.114   2.600   4.785  3.3197 -2.3036 -1.6321
  177SAPS  H18Z20277   6.036   2.499   4.919  3.7599  1.7788  1.9865
  178SAPS     N20278   5.975   6.346   2.669 -0.5487  0.5045 -0.8533
  178SAPS   HN120279   5.978   6.428   2.733  2.3268  0.5755 -0.9478
  178SAPS   HN220280   5.906   6.286   2.719 -0.0686 -1.0239 -1.9519
  178SAPS   HN320281   6.072   6.308   2.680 -1.6931 -2.2157  0.8216
  178SAPS   C1220282   5.928   6.361   2.531 -0.6500 -0.2714 -0.0819
  178SAPS  H12A20283   6.014   6.382   2.470 -0.1315 -1.4097  0.2224
  178SAPS   C1320284   5.877   6.231   2.461 -0.5720  0.0514  0.1996
  178SAPS  O13A20285   5.892   6.127   2.528 -0.6781  0.1021 -0.6102
  178SAPS  O13B20286   5.833   6.235   2.342  0.2725  0.2169 -0.0938
  178SAPS   C1120287   5.822   6.473   2.531  0.6112  0.2740  0.5195
  178SAPS  H11A20288   5.784   6.498   2.430 -3.6607 -2.1344  1.2658
  178SAPS  H11B20289   5.873   6.565   2.566  2.0713 -0.9383  1.7176
  178SAPS     P20290   5.580   6.518   2.639  0.4108 -0.2054 -0.1317
  178SAPS   O1320291   5.574   6.609   2.524  0.1039 -0.0159  0.2295
  178SAPS   O1420292   5.481   6.411   2.640  0.0364 -0.2594 -0.6766
  178SAPS   O1220293   5.719   6.445   2.627 -0.0908 -0.2662  0.4599
  178SAPS   O1120294   5.584   6.603   2.774  0.3360  0.8669 -0.5953
  178SAPS    C120295   5.653   6.558   2.893 -0.6877  0.0794 -0.4519
  178SAPS    HA20296   5.760   6.543   2.866 -0.9370  0.6162 -1.8538
  178SAPS    HB20297   5.653   6.641   2.967  0.6130  1.1696 -1.6011
  178SAPS    C220298   5.592   6.434   2.966  0.4793  0.2138 -0.2658
  178SAPS    HS20299   5.629   6.351   2.903 -0.2276 -0.7742  0.6037
  178SAPS   O2120300   5.452   6.445   2.952 -0.0892 -0.0828 -0.2391
  178SAPS   C2120301   5.382   6.349   2.921  0.0744 -0.3859 -0.2971
  178SAPS   O2220302   5.409   6.229   2.924 -0.3042 -0.2998  0.2404
  178SAPS   C2220303   5.247   6.400   2.877 -0.2130  0.3115  0.1080
  178SAPS   H2R20304   5.249   6.416   2.767 -0.0128  0.4351  0.1292
  178SAPS   H2S20305   5.174   6.318   2.893  0.6749 -0.5610 -0.2206
  178SAPS    C320306   5.639   6.419   3.111  0.5094 -0.3820 -0.0987
  178SAPS    HX20307   5.748   6.401   3.110  0.4545 -1.1215  2.2616
  178SAPS    HY20308   5.603   6.318   3.140 -2.5484  0.4373 -0.6283
  178SAPS   O3120309   5.608   6.527   3.209  0.1139 -0.2509  0.2559
  178SAPS   C3120310   5.506   6.506   3.280 -0.6106 -0.2821  0.5211
  178SAPS   O3220311   5.419   6.422   3.267  0.1692  0.0505  0.3919
  178SAPS   C3220312   5.515   6.600   3.402  0.9997  0.2674 -0.3217
  178SAPS   H2X20313   5.411   6.613   3.440  0.9015  0.1870 -0.5590
  178SAPS   H2Y20314   5.551   6.697   3.363 -2.3270  1.8565  0.2390
  178SAPS   C2320315   5.200   6.523   2.960 -0.5068  0.0325  0.1905
  178SAPS   H3R20316   5.116   6.570   2.905  0.2422  1.2540  0.0552
  178SAPS   H3S20317   5.276   6.602   2.976 -0.7406  0.5189 -0.9820
  178SAPS   C2420318   5.118   6.501   3.093 -0.1320 -0.0543 -0.6307
  178SAPS   H4R20319   5.092   6.603   3.129  2.9918  0.5526  0.1701
  178SAPS   H4S20320   5.188   6.458   3.168 -0.6518 -0.5480 -0.4209
  178SAPS   C2520321   4.997   6.414   3.076 -0.6235 -0.5889  0.0415
  178SAPS   H5R20322   4.911   6.453   3.019 -0.4361 -0.9709 -0.5174
  178SAPS   C2620323   4.976   6.291   3.123 -0.4543 -0.4857  0.5066
  178SAPS   H6R20324   4.884   6.232   3.111  1.6020 -3.9747  0.3136
  178SAPS   C2720325   5.076   6.213   3.205 -0.0900  0.6474 -0.4513
  178SAPS   H7R20326   5.069   6.247   3.311  0.8243  0.9572 -0.4805
  178SAPS   H7S20327   5.182   6.236   3.181 -0.1835  1.0670 -0.4662
  178SAPS   C2820328   5.053   6.064   3.198  0.3096  0.1814  0.0547
  178SAPS   H8R20329   5.082   6.009   3.107  0.0763 -1.5071  0.9602
  178SAPS   C2920330   5.015   5.982   3.300 -0.5242  0.4302  0.1540
  178SAPS   H9R20331   5.011   5.874   3.282  0.3521  0.0885  1.8179
  178SAPS  C21020332   4.992   6.028   3.444  0.8207 -0.9098  0.6692
  178SAPS  H10R20333   4.939   5.950   3.501 -3.1915 -1.0112 -2.7678
  178SAPS  H10S20334   4.928   6.119   3.453  2.2500  0.3222 -0.8123
  178SAPS  C21120335   5.118   6.056   3.528  0.1079  0.6088  0.4000
  178SAPS  H11R20336   5.191   5.975   3.518 -0.2620  0.4862 -1.9712
  178SAPS  C21220337   5.137   6.155   3.621 -0.6491  0.5393  0.4228
  178SAPS  H12R20338   5.243   6.163   3.649 -0.9455  1.2526  1.3899
  178SAPS  C21320339   5.053   6.269   3.665  0.0755 -0.3033 -0.4048
  178SAPS  H13R20340   5.008   6.242   3.763 -2.1732  1.4976 -0.8701
  178SAPS  H13S20341   4.967   6.284   3.597  0.1823  0.7932 -0.3156
  178SAPS  C21420342   5.138   6.393   3.688  0.0403 -0.0197  0.2787
  178SAPS  H14R20343   5.168   6.436   3.591 -1.8908  1.0032  0.0886
  178SAPS  C21520344   5.167   6.454   3.806  0.2752  0.0824 -0.6534
  178SAPS  H15R20345   5.219   6.551   3.806  0.5368  0.1498  3.5795
  178SAPS  C21620346   5.127   6.400   3.941 -1.2243 -0.2051 -0.3649
  178SAPS  H16R20347   5.020   6.373   3.928 -1.2923  0.9002 -2.7618
  178SAPS  H16S20348   5.124   6.489   4.007  0.0987 -0.5135  0.1256
  178SAPS  C21720349   5.213   6.279   3.978  0.0585  0.1323 -0.6666
  178SAPS  H17R20350   5.316   6.318   3.988  0.5555 -0.3979 -3.0186
  178SAPS  H17S20351   5.212   6.199   3.901  2.2120 -2.1257  1.5228
  178SAPS  C21820352   5.169   6.216   4.104 -0.0466  0.3167  0.3338
  178SAPS  H18R20353   5.099   6.280   4.161  0.5669  2.0490 -0.7893
  178SAPS  H18S20354   5.255   6.176   4.163 -0.0469  0.7283  0.6150
  178SAPS  C21920355   5.086   6.084   4.081 -0.0001 -0.4116  0.4255
  178SAPS  H19R20356   5.151   6.013   4.025  0.0126 -0.4966  0.5476
  178SAPS  H19S20357   5.001   6.100   4.011 -1.0097  1.0445  1.9137
  178SAPS  C22020358   5.027   6.021   4.207 -0.0328  0.7315  0.0616
  178SAPS  H20R20359   5.111   5.966   4.255 -0.2005  0.4700  0.0601
  178SAPS  H20S20360   4.960   5.938   4.176  1.8930 -0.4843 -1.0380
  178SAPS  H20T20361   4.978   6.094   4.276 -2.4503  1.4257 -2.2350
  178SAPS   C3320362   5.610   6.554   3.519  0.1687  0.3319  0.2619
  178SAPS   H3X20363   5.637   6.641   3.582  0.5991  0.0327  0.4975
  178SAPS   H3Y20364   5.702   6.520   3.467 -1.0132 -1.3874 -0.8340
  178SAPS   C3420365   5.555   6.432   3.593 -0.8751 -0.1403  0.1652
  178SAPS   H4X20366   5.593   6.336   3.550  0.0613  0.4720 -0.4090
  178SAPS   H4Y20367   5.445   6.424   3.590 -0.9505 -0.1076  2.0929
  178SAPS   C3520368   5.595   6.440   3.741 -0.6765 -0.3197  0.0197
  178SAPS   H5X20369   5.551   6.529   3.791  1.5898  0.6876  0.3361
  178SAPS   H5Y20370   5.704   6.460   3.748 -0.7348 -0.5808  2.2651
  178SAPS   C3620371   5.569   6.311   3.821 -0.4748  0.2358  0.5260
  178SAPS   H6X20372   5.638   6.236   3.777  1.7482  1.5031  1.6439
  178SAPS   H6Y20373   5.468   6.268   3.805 -0.5451  0.1208  1.2232
  178SAPS   C3720374   5.581   6.333   3.973 -0.4360 -0.5629  0.1161
  178SAPS   H7X20375   5.506   6.408   4.005  0.7560  1.4037 -1.4856
  178SAPS   H7Y20376   5.683   6.363   4.006 -0.3132 -1.3017  0.4421
  178SAPS   C3820377   5.552   6.209   4.059 -0.1065 -0.2336  0.7305
  178SAPS   H8X20378   5.627   6.131   4.032  1.6454  0.8324  2.3398
  178SAPS   H8Y20379   5.455   6.169   4.021 -1.4956  2.5446  1.1044
  178SAPS   C3920380   5.540   6.240   4.206  0.0605  0.5288 -0.2021
  178SAPS   H9X20381   5.466   6.321   4.225  0.2954  1.2027 -1.9799
  178SAPS   H9Y20382   5.640   6.275   4.240  0.5629 -1.3376  0.3574
  178SAPS  C31020383   5.495   6.117   4.290  0.3061  0.2146 -0.9968
  178SAPS  H10X20384   5.573   6.039   4.282 -0.7724 -0.9781 -0.3222
  178SAPS  H10Y20385   5.407   6.068   4.242  1.6343 -0.8599 -2.4659
  178SAPS  C31120386   5.470   6.152   4.439 -1.1664 -0.5460 -0.3550
  178SAPS  H11X20387   5.400   6.238   4.450 -0.3496 -0.0451  1.3726
  178SAPS  H11Y20388   5.564   6.194   4.483 -1.4474 -1.8261  1.6013
  178SAPS  C31220389   5.423   6.025   4.510 -0.3218 -0.0453  0.4599
  178SAPS  H12X20390   5.510   5.966   4.548 -0.7322 -0.9382  0.0374
  178SAPS  H12Y20391   5.364   5.964   4.439  0.9732 -0.9131  0.0952
  178SAPS  C31320392   5.337   6.076   4.627  0.8091 -0.1397  0.3184
  178SAPS  H13X20393   5.234   6.108   4.601  0.9402  1.2082  1.3226
  178SAPS  H13Y20394   5.375   6.171   4.670 -0.7530  1.7837 -2.2465
  178SAPS  C31420395   5.313   5.967   4.734 -0.3074  0.2892  0.4046
  178SAPS  H14X20396   5.413   5.936   4.772 -1.0775  0.1682  2.4557
  178SAPS  H14Y20397   5.248   5.888   4.689 -2.3949  1.6741  0.8283
  178SAPS  C31520398   5.241   6.015   4.855  0.4972 -0.5311  0.0518
  178SAPS  H15X20399   5.154   6.072   4.815  1.7342  1.2002 -0.3128
  178SAPS  H15Y20400   5.316   6.088   4.893  2.1798 -0.6678 -2.6717
  178SAPS  C31620401   5.191   5.910   4.953  0.2861  0.6510 -0.2658
  178SAPS  H16X20402   5.281   5.854   4.987  2.3860  1.4230 -4.0717
  178SAPS  H16Y20403   5.128   5.837   4.897  0.6083  0.0710  0.1166
  178SAPS  C31720404   5.117   5.958   5.076 -0.2233  0.2023  0.1115
  178SAPS  H17X20405   5.037   6.024   5.035 -1.1341 -0.8584  0.1440
  178SAPS  H17Y20406   5.185   6.025   5.133  2.0297  1.8398 -4.0853
  178SAPS  C31820407   5.048   5.852   5.161  0.3550  0.0412  0.5934
  178SAPS  H18X20408   4.987   5.899   5.241 -0.9041 -1.1484  0.3729
  178SAPS  H18Y20409   5.116   5.780   5.212  0.8520  0.9611  1.2484
  178SAPS  H18Z20410   4.971   5.800   5.101  0.6547  1.3478 -0.9989
  179SAPS     N20411   6.660   3.957   2.369  0.1797 -0.4129 -0.2873
  179SAPS   HN120412   6.576   3.922   2.319 -0.4445 -0.3276  0.6638
  179SAPS   HN220413   6.632   4.033   2.434  0.4453  0.2396 -0.9331
  179SAPS   HN320414   6.721   4.005   2.300 -1.1123 -0.3293 -1.4043
  179SAPS   C1220415   6.730   3.841   2.447 -0.1023  0.6957  0.5063
  179SAPS  H12A20416   6.649   3.784   2.490  0.7155 -1.1543 -0.2696
  179SAPS   C1320417   6.819   3.749   2.357 -0.4696  0.5405 -0.6116
  179SAPS  O13A20418   6.830   3.775   2.237 -0.0032  0.7887 -0.3680
  179SAPS  O13B20419   6.888   3.657   2.413  0.6338 -0.6153  0.3075
  179SAPS   C1120420   6.814   3.913   2.554 -0.3173  0.1263 -0.3370
  179SAPS  H11A20421   6.893   3.963   2.495  1.8152 -2.3076  0.2695
  179SAPS  H11B20422   6.856   3.842   2.628 -2.7175 -0.5563  0.4805
  179SAPS     P20423   6.765   4.052   2.774 -0.1801 -0.0441  0.0099
  179SAPS   O1320424   6.878   4.143   2.753 -0.5611  0.6801 -0.2645
  179SAPS   O1420425   6.644   4.107   2.843  0.1447  0.1848 -0.4013
  179SAPS   O1220426   6.727   3.999   2.630 -0.4176 -0.0453  0.1641
  179SAPS   O1120427   6.806   3.921   2.848 -0.3377 -0.1172  0.0239
  179SAPS    C120428   6.706   3.822   2.877  0.0813  0.2269 -0.2154
  179SAPS    HA20429   6.616   3.838   2.815  1.0270  0.9677 -1.4590
  179SAPS    HB20430   6.732   3.715   2.866 -0.6564  0.1376 -1.1212
  179SAPS    C220431   6.653   3.833   3.023  0.2735  0.9972  0.4721
  179SAPS    HS20432   6.643   3.943   3.035  1.4912  0.9893  1.8250
  179SAPS   O2120433   6.752   3.790   3.112 -0.5126 -0.5869 -0.4648
  179SAPS   C2120434   6.755   3.845   3.235  0.0492 -0.3758  0.2389
  179SAPS   O2220435   6.686   3.936   3.269 -0.3136  0.0109 -0.2039
  179SAPS   C2220436   6.883   3.797   3.307  0.4728  0.2171  0.4665
  179SAPS   H2R20437   6.916   3.708   3.251 -2.6780 -0.3099 -0.7881
  179SAPS   H2S20438   6.959   3.877   3.318 -1.3918  1.9190  1.9272
  179SAPS    C320439   6.515   3.764   3.048  0.1148  0.3032  0.9253
  179SAPS    HX20440   6.522   3.660   3.010  1.6506  0.7431 -0.0525
  179SAPS    HY20441   6.444   3.803   2.972  0.6361 -1.7001 -0.6596
  179SAPS   O3120442   6.463   3.778   3.176 -0.1411  0.2219 -0.9182
  179SAPS   C3120443   6.391   3.891   3.190  0.9294  0.1934 -0.0613
  179SAPS   O3220444   6.370   3.967   3.102  0.0317 -0.3492  0.2173
  179SAPS   C3220445   6.334   3.898   3.331 -0.0582 -0.0586 -0.3837
  179SAPS   H2X20446   6.235   3.848   3.329 -0.2003  0.0328  1.8223
  179SAPS   H2Y20447   6.326   4.001   3.372  0.6994 -0.2569  0.2847
  179SAPS   C2320448   6.857   3.746   3.453 -0.1329  0.4261 -0.5658
  179SAPS   H3R20449   6.789   3.659   3.450  2.5808 -1.8283 -0.1298
  179SAPS   H3S20450   6.817   3.830   3.513  1.5413  1.3776 -0.7131
  179SAPS   C2420451   6.989   3.705   3.525 -0.3952  0.1639 -0.8892
  179SAPS   H4R20452   7.056   3.792   3.508  1.1228 -1.1639 -2.0859
  179SAPS   H4S20453   7.023   3.607   3.483 -2.4877 -1.1497  0.3141
  179SAPS   C2520454   6.966   3.678   3.671  0.3320  0.3901 -0.3590
  179SAPS   H5R20455   7.011   3.759   3.731 -0.3411 -0.0663  0.7965
  179SAPS   C2620456   6.903   3.577   3.732  0.0252  0.6588  0.1594
  179SAPS   H6R20457   6.882   3.588   3.840  1.2952  1.5982  0.3304
  179SAPS   C2720458   6.844   3.457   3.658  0.1915  0.0061  0.2851
  179SAPS   H7R20459   6.913   3.370   3.657  2.4244  1.6786  1.2393
  179SAPS   H7S20460   6.835   3.483   3.551  1.1953 -0.4175  0.0930
  179SAPS   C2820461   6.699   3.431   3.698 -1.1584 -0.1832 -0.2359
  179SAPS   H8R20462   6.632   3.515   3.673 -1.5455 -0.7596 -1.2111
  179SAPS   C2920463   6.655   3.325   3.769 -0.3818  0.3884 -0.3657
  179SAPS   H9R20464   6.553   3.329   3.809 -0.1290  1.3711  0.2064
  179SAPS  C21020465   6.741   3.211   3.818 -0.0884  0.0044  0.5147
  179SAPS  H10R20466   6.790   3.226   3.917 -0.8183 -1.3960  1.1097
  179SAPS  H10S20467   6.825   3.209   3.745 -0.5020 -0.5000  0.0507
  179SAPS  C21120468   6.679   3.076   3.798  0.5880 -0.2922  0.1114
  179SAPS  H11R20469   6.663   3.043   3.694  0.3349  0.0160  0.0525
  179SAPS  C21220470   6.656   2.984   3.897  0.1699 -0.0252 -0.9311
  179SAPS  H12R20471   6.621   2.883   3.870 -0.7794 -0.2164  0.9028
  179SAPS  C21320472   6.691   2.999   4.046  1.2904 -0.0513 -0.0788
  179SAPS  H13R20473   6.603   2.968   4.106  0.0666  4.0476  0.5366
  179SAPS  H13S20474   6.702   3.106   4.073  3.6448 -0.4038  0.5609
  179SAPS  C21420475   6.807   2.919   4.089 -0.0591 -0.1806 -0.4977
  179SAPS  H14R20476   6.860   2.876   4.003 -1.4040 -2.1050 -0.4293
  179SAPS  C21520477   6.853   2.910   4.216  0.0760 -0.6229 -0.2024
  179SAPS  H15R20478   6.945   2.850   4.216  0.6141  0.1698 -1.0002
  179SAPS  C21620479   6.791   2.951   4.347  0.0523 -0.3399 -0.3319
  179SAPS  H16R20480   6.751   2.859   4.395 -0.4413  0.8951  1.7840
  179SAPS  H16S20481   6.706   3.019   4.325 -1.8144 -2.6999 -0.9350
  179SAPS  C21720482   6.887   3.025   4.447  0.9317 -0.1339 -0.4174
  179SAPS  H17R20483   6.823   3.052   4.534  0.9798 -0.3843 -0.3040
  179SAPS  H17S20484   6.918   3.116   4.392 -1.1128  1.2057  0.5004
  179SAPS  C21820485   7.013   2.958   4.490  0.8536  0.1680  0.5608
  179SAPS  H18R20486   7.066   3.036   4.548  3.1524  0.3924 -1.6746
  179SAPS  H18S20487   7.079   2.944   4.401  0.7318  1.7773  0.1922
  179SAPS  C21920488   7.000   2.830   4.576  0.3422  0.7465  0.0908
  179SAPS  H19R20489   6.919   2.777   4.522  1.0180 -1.5891  1.2205
  179SAPS  H19S20490   6.958   2.853   4.676  0.0587  2.2199 -0.3473
  179SAPS  C22020491   7.125   2.752   4.590 -1.6392  0.1366  0.2745
  179SAPS  H20R20492   7.195   2.823   4.639 -0.4149 -0.2560 -0.8345
  179SAPS  H20S20493   7.166   2.727   4.490  0.2090  0.6126  0.8679
  179SAPS  H20T20494   7.112   2.659   4.650 -0.8617 -0.2793 -0.1839
  179SAPS   C3320495   6.420   3.836   3.448  0.1087  0.2926 -0.1772
  179SAPS   H3X20496   6.518   3.886   3.465  0.5521 -0.9437  1.0882
  179SAPS   H3Y20497   6.445   3.729   3.429  0.4455  0.4872 -0.8845
  179SAPS   C3420498   6.335   3.845   3.585 -0.3862 -0.2239  0.0008
  179SAPS   H4X20499   6.253   3.771   3.572 -0.0863 -0.0776 -3.7953
  179SAPS   H4Y20500   6.284   3.943   3.591  1.4865  1.0044 -2.4501
  179SAPS   C3520501   6.422   3.821   3.708  0.6826 -0.6160  0.6032
  179SAPS   H5X20502   6.503   3.895   3.720  1.4833 -0.8096 -2.7038
  179SAPS   H5Y20503   6.485   3.731   3.697  1.2273 -0.0323 -1.5999
  179SAPS   C3620504   6.335   3.806   3.833  0.0543  0.1787 -0.0462
  179SAPS   H6X20505   6.261   3.724   3.820 -0.5905  0.4862  1.4296
  179SAPS   H6Y20506   6.283   3.904   3.838 -0.4085  0.0731 -1.9475
  179SAPS   C3720507   6.421   3.781   3.961  0.5632 -0.2449  0.3202
  179SAPS   H7X20508   6.339   3.772   4.035  0.7086 -1.0990  0.3849
  179SAPS   H7Y20509   6.488   3.865   3.992 -0.9329  0.9066  0.5211
  179SAPS   C3820510   6.517   3.656   3.957  0.4895  0.0841 -0.2015
  179SAPS   H8X20511   6.596   3.667   3.879  0.3717 -0.0747 -0.3445
  179SAPS   H8Y20512   6.460   3.562   3.939  0.0169  0.0761  1.2069
  179SAPS   C3920513   6.600   3.637   4.087  0.2087  1.0363 -0.2551
  179SAPS   H9X20514   6.525   3.627   4.168  1.6956  0.4369  1.1025
  179SAPS   H9Y20515   6.668   3.724   4.098 -0.0511  2.0665 -4.7940
  179SAPS  C31020516   6.670   3.500   4.080  0.8432  0.1626  0.2109
  179SAPS  H10X20517   6.751   3.504   4.004  0.4881  1.0207 -0.1294
  179SAPS  H10Y20518   6.597   3.418   4.062  0.3330  0.1078  2.2728
  179SAPS  C31120519   6.748   3.472   4.209 -0.8465  0.8597  0.4632
  179SAPS  H11X20520   6.801   3.374   4.210  1.4304  2.0116  0.4293
  179SAPS  H11Y20521   6.684   3.461   4.300 -0.8762 -2.0825  0.1986
  179SAPS  C31220522   6.842   3.583   4.253 -0.0935 -0.2172 -0.1344
  179SAPS  H12X20523   6.774   3.668   4.279  1.0581  0.1674  1.8863
  179SAPS  H12Y20524   6.916   3.614   4.176  0.4856  0.6772  0.7543
  179SAPS  C31320525   6.909   3.534   4.384 -0.0803 -0.3657 -0.4281
  179SAPS  H13X20526   6.973   3.445   4.368  0.5406  0.0556 -0.3172
  179SAPS  H13Y20527   6.825   3.496   4.447 -0.7063 -0.1479 -1.1135
  179SAPS  C31420528   6.995   3.638   4.459 -0.0220 -0.1958 -0.2912
  179SAPS  H14X20529   6.954   3.741   4.458  1.5786  0.4661 -0.9618
  179SAPS  H14Y20530   7.087   3.651   4.397 -1.1253 -1.9705 -2.4721
  179SAPS  C31520531   7.025   3.607   4.604  0.7130  0.1760 -0.0329
  179SAPS  H15X20532   7.122   3.657   4.624  0.7982  0.7569 -1.7397
  179SAPS  H15Y20533   7.035   3.497   4.619 -1.9121 -0.0314  0.8084
  179SAPS  C31620534   6.922   3.667   4.705 -0.4392 -0.0986  0.3750
  179SAPS  H16X20535   6.823   3.660   4.655  0.0870 -1.4835 -0.5262
  179SAPS  H16Y20536   6.935   3.775   4.727 -1.2985 -0.5865  4.0408
  179SAPS  C31720537   6.920   3.594   4.840  0.9765  0.6383  0.3329
  179SAPS  H17X20538   7.010   3.611   4.902 -1.4190  0.3870  4.2349
  179SAPS  H17Y20539   6.903   3.485   4.826 -3.6258  1.3251 -1.1080
  179SAPS  C31820540   6.798   3.648   4.918 -0.6861  0.5159 -0.6588
  179SAPS  H18X20541   6.824   3.753   4.942 -0.1407  0.2933 -0.2221
  179SAPS  H18Y20542   6.794   3.585   5.010 -3.5720  0.1977 -0.9095
  179SAPS  H18Z20543   6.697   3.633   4.875 -1.1808  0.4055  0.5091
  180SAPS     N20544   0.179   2.290   2.705  0.2995  0.6853  0.2771
  180SAPS   HN120545   0.152   2.300   2.805 -1.0272 -0.9981  0.1489
  180SAPS   HN220546   0.110   2.335   2.642  2.6659  0.6934 -2.5315
  180SAPS   HN320547   0.194   2.190   2.679  1.5925  0.7629  0.6842
  180SAPS   C1220548   0.301   2.360   2.671  0.2201 -0.1953  0.1965
  180SAPS  H12A20549   0.327   2.328   2.571 -2.1781 -2.6148  0.2210
  180SAPS   C1320550   0.286   2.509   2.659 -0.2363 -0.6052 -0.4995
  180SAPS  O13A20551   0.195   2.572   2.716 -0.7369 -0.3285  0.0059
  180SAPS  O13B20552   0.370   2.574   2.595 -0.3106 -0.0337 -0.1896
  180SAPS   C1120553   0.407   2.308   2.765  0.1784 -0.7295  0.1129
  180SAPS  H11A20554   0.374   2.309   2.871 -0.4770  1.1653 -0.0708
  180SAPS  H11B20555   0.488   2.384   2.758 -0.2254 -0.4642 -2.4675
  180SAPS     P20556   0.569   2.106   2.813  0.0327  0.2024 -0.4231
  180SAPS   O1320557   0.594   1.975   2.754  0.2246 -0.2201 -0.0972
  180SAPS   O1420558   0.682   2.198   2.809 -0.0676 -0.4982  0.5664
  180SAPS   O1220559   0.456   2.174   2.737 -0.2541  0.3567  0.1686
  180SAPS   O1120560   0.520   2.096   2.964 -0.3629  0.0978  0.3254
  180SAPS    C120561   0.412   2.006   3.004  0.4183 -0.3834  0.2898
  180SAPS    HA20562   0.356   1.974   2.914 -0.5356  5.0118 -1.3835
  180SAPS    HB20563   0.453   1.920   3.062 -0.4366 -0.6848  0.4513
  180SAPS    C220564   0.311   2.089   3.097  0.5609  0.2267 -0.2823
  180SAPS    HS20565   0.262   2.167   3.035 -1.5894 -0.0638  0.9766
  180SAPS   O2120566   0.376   2.140   3.214  0.4608  0.0804  0.6219
  180SAPS   C2120567   0.314   2.238   3.281  0.3112  0.3595  0.3990
  180SAPS   O2220568   0.198   2.278   3.263  0.5273 -0.4118  0.0266
  180SAPS   C2220569   0.401   2.270   3.397  0.3322  0.3969  0.1087
  180SAPS   H2R20570   0.505   2.240   3.375  0.3772  0.9340 -0.4124
  180SAPS   H2S20571   0.403   2.381   3.403  0.3479  0.4695 -1.0506
  180SAPS    C320572   0.187   2.002   3.133 -0.3472  0.2285  0.5964
  180SAPS    HX20573   0.160   1.954   3.036  0.1526  0.2364  0.4514
  180SAPS    HY20574   0.103   2.068   3.159 -0.6230  1.3155 -2.6089
  180SAPS   O3120575   0.230   1.893   3.222  0.6945  0.2487 -0.6041
  180SAPS   C3120576   0.181   1.906   3.345 -0.6433  0.0584 -0.4007
  180SAPS   O3220577   0.134   2.002   3.399  0.1537  0.2963 -0.1340
  180SAPS   C3220578   0.237   1.791   3.434  0.4227  0.1185 -1.1360
  180SAPS   H2X20579   0.171   1.706   3.409  0.4053 -0.2229  0.0314
  180SAPS   H2Y20580   0.207   1.811   3.539 -2.9006 -3.3403 -1.2318
  180SAPS   C2320581   0.346   2.207   3.532  0.2725 -0.6741 -0.3104
  180SAPS   H3R20582   0.349   2.098   3.548 -1.9989 -0.3809  3.0933
  180SAPS   H3S20583   0.237   2.226   3.535 -0.0285 -2.2082 -0.7122
  180SAPS   C2420584   0.406   2.270   3.654 -0.0116 -0.4849  0.5913
  180SAPS   H4R20585   0.363   2.242   3.753  0.9783  0.3206  1.2712
  180SAPS   H4S20586   0.401   2.381   3.648  2.5004 -0.3487  0.2378
  180SAPS   C2520587   0.555   2.245   3.658 -0.4785  0.9754 -0.2630
  180SAPS   H5R20588   0.615   2.294   3.580 -1.1174 -0.3653 -1.6601
  180SAPS   C2620589   0.621   2.164   3.743  0.8634  0.5526 -0.1883
  180SAPS   H6R20590   0.729   2.153   3.724  1.2576 -0.3924  2.2316
  180SAPS   C2720591   0.559   2.090   3.863 -0.6534 -0.0023 -0.4280
  180SAPS   H7R20592   0.594   1.985   3.863 -2.9342 -0.8067 -0.4194
  180SAPS   H7S20593   0.449   2.084   3.880 -0.4724  1.2346  1.4708
  180SAPS   C2820594   0.610   2.167   3.988  0.2576  0.1555  0.6332
  180SAPS   H8R20595   0.615   2.276   3.990  0.8993  0.1210  1.8743
  180SAPS   C2920596   0.649   2.103   4.099  0.5806 -0.3792  0.2368
  180SAPS   H9R20597   0.667   2.171   4.184 -0.2798 -0.3058  0.3619
  180SAPS  C21020598   0.666   1.958   4.139 -0.9150  0.2157  0.4954
  180SAPS  H10R20599   0.633   1.888   4.059 -1.6828 -0.4154  1.3386
  180SAPS  H10S20600   0.591   1.928   4.215  0.6455 -0.4676  1.8421
  180SAPS  C21120601   0.811   1.915   4.177  0.2248 -0.0613 -0.9664
  180SAPS  H11R20602   0.837   1.819   4.130 -1.2343 -1.5920  1.1922
  180SAPS  C21220603   0.883   1.963   4.286 -1.3433 -0.7313 -0.4209
  180SAPS  H12R20604   0.971   1.912   4.326  0.2904  1.9515 -0.3555
  180SAPS  C21320605   0.834   2.076   4.368  0.2290  0.1256  0.3960
  180SAPS  H13R20606   0.733   2.055   4.407 -0.0893 -1.2473 -1.0762
  180SAPS  H13S20607   0.826   2.162   4.298  1.4841  0.3308  0.4648
  180SAPS  C21420608   0.904   2.115   4.486  0.0397 -0.1753 -0.1581
  180SAPS  H14R20609   1.004   2.071   4.499 -0.4055 -0.7756  1.4501
  180SAPS  C21520610   0.856   2.176   4.595  0.5353 -1.2824 -0.3789
  180SAPS  H15R20611   0.931   2.201   4.672  0.2555 -2.7527  0.4063
  180SAPS  C21620612   0.719   2.244   4.606 -0.1663 -0.5102 -0.9937
  180SAPS  H16R20613   0.674   2.206   4.700 -3.0114 -0.9029 -2.3981
  180SAPS  H16S20614   0.638   2.212   4.536 -2.5367  2.4413  0.1503
  180SAPS  C21720615   0.723   2.397   4.619 -0.2542 -0.0074  0.1086
  180SAPS  H17R20616   0.616   2.422   4.637 -0.2910  0.6880 -0.9861
  180SAPS  H17S20617   0.754   2.446   4.524 -1.5450 -1.2296 -0.9987
  180SAPS  C21820618   0.813   2.443   4.737 -0.5466 -0.3571  0.2336
  180SAPS  H18R20619   0.917   2.415   4.709  1.1360  2.7899  2.6616
  180SAPS  H18S20620   0.784   2.413   4.840 -1.3514  0.1461  0.1636
  180SAPS  C21920621   0.811   2.599   4.745  0.1111 -0.5641 -0.5863
  180SAPS  H19R20622   0.835   2.631   4.642 -1.7525 -0.6641 -1.0911
  180SAPS  H19S20623   0.884   2.625   4.824 -1.0272  2.0415 -0.2954
  180SAPS  C22020624   0.675   2.652   4.783  0.2953  0.4522 -0.4608
  180SAPS  H20R20625   0.660   2.761   4.793  0.7596  0.6336 -1.5331
  180SAPS  H20S20626   0.606   2.622   4.700  1.1267  1.4845 -1.5659
  180SAPS  H20T20627   0.634   2.610   4.877 -1.4439  1.0946 -0.8889
  180SAPS   C3320628   0.392   1.755   3.404  0.4244 -0.0538 -0.1393
  180SAPS   H3X20629   0.442   1.853   3.419 -1.8712  0.9995  1.1789
  180SAPS   H3Y20630   0.408   1.726   3.298  1.9629 -0.5057  0.1986
  180SAPS   C3420631   0.440   1.642   3.495  0.4163  0.6226  0.0024
  180SAPS   H4X20632   0.551   1.637   3.496  0.4861  1.5400 -1.0729
  180SAPS   H4Y20633   0.403   1.547   3.449  1.7480 -0.0954  0.3612
  180SAPS   C3520634   0.398   1.667   3.640 -0.9157 -0.7132 -0.3353
  180SAPS   H5X20635   0.288   1.655   3.649 -0.8374 -1.0916  0.2207
  180SAPS   H5Y20636   0.433   1.770   3.663  3.8064 -1.9794 -0.7851
  180SAPS   C3620637   0.462   1.577   3.736  0.4643  0.6568 -0.4892
  180SAPS   H6X20638   0.572   1.559   3.732  0.5177  0.4941  1.3125
  180SAPS   H6Y20639   0.419   1.475   3.731  0.3027  0.7648 -1.8589
  180SAPS   C3720640   0.444   1.625   3.886  0.0376  0.6148  0.1945
  180SAPS   H7X20641   0.337   1.612   3.912 -0.4570  0.7993 -1.6207
  180SAPS   H7Y20642   0.469   1.733   3.872  0.5525  0.8638  2.5773
  180SAPS   C3820643   0.533   1.546   3.979  0.2783  0.7722 -0.2700
  180SAPS   H8X20644   0.639   1.545   3.949  0.0830 -0.6079 -1.0195
  180SAPS   H8Y20645   0.515   1.439   3.955 -1.4934  1.4287 -2.2021
  180SAPS   C3920646   0.503   1.594   4.124 -0.0652  0.0278  0.1244
  180SAPS   H9X20647   0.405   1.550   4.153  0.2500  0.2373  1.6218
  180SAPS   H9Y20648   0.507   1.705   4.126  2.1930 -0.0035 -0.1637
  180SAPS  C31020649   0.610   1.560   4.226 -0.2872  0.3003 -1.0724
  180SAPS  H10X20650   0.708   1.604   4.198 -0.5466  0.8729 -1.0880
  180SAPS  H10Y20651   0.617   1.449   4.218 -2.4179  0.1070 -0.7852
  180SAPS  C31120652   0.582   1.589   4.368 -0.2904  0.4197  0.0977
  180SAPS  H11X20653   0.581   1.699   4.386  0.6924  0.3146  0.8786
  180SAPS  H11Y20654   0.669   1.559   4.430  1.2698  0.5321 -1.9172
  180SAPS  C31220655   0.459   1.528   4.430 -0.3226  0.2672  0.1280
  180SAPS  H12X20656   0.452   1.418   4.424 -2.3800  0.1194  3.1029
  180SAPS  H12Y20657   0.373   1.561   4.367 -0.0160 -1.3198 -1.1934
  180SAPS  C31320658   0.447   1.572   4.576  0.1780  0.0896  0.1001
  180SAPS  H13X20659   0.486   1.675   4.590  0.8263 -0.5442  4.5421
  180SAPS  H13Y20660   0.506   1.507   4.644  0.2720  0.5753  0.4867
  180SAPS  C31420661   0.298   1.556   4.619 -0.0997  0.2021 -0.4265
  180SAPS  H14X20662   0.258   1.454   4.601 -0.7482  0.2259  0.7424
  180SAPS  H14Y20663   0.233   1.627   4.562 -3.0711 -1.0859  1.1153
  180SAPS  C31520664   0.279   1.584   4.769  0.5249 -0.1382 -0.5968
  180SAPS  H15X20665   0.293   1.693   4.787  1.1039 -0.5872  2.0596
  180SAPS  H15Y20666   0.361   1.535   4.826 -0.4051 -0.2857  0.6699
  180SAPS  C31620667   0.139   1.539   4.816  0.3011 -0.5199  0.0106
  180SAPS  H16X20668   0.123   1.434   4.783 -1.3236 -0.1548 -0.4232
  180SAPS  H16Y20669   0.067   1.600   4.758  0.4680 -1.2023 -0.9262
  180SAPS  C31720670   0.120   1.555   4.968 -0.3211  0.4745  0.8769
  180SAPS  H17X20671   0.141   1.661   4.995 -0.9577  0.4775  1.3917
  180SAPS  H17Y20672   0.188   1.487   5.025 -0.2269  1.6821  2.2760
  180SAPS  C31820673  -0.029   1.519   5.012 -0.5060  0.1946 -0.9189
  180SAPS  H18X20674  -0.104   1.586   4.965 -1.5711  1.3433  2.1188
  180SAPS  H18Y20675  -0.040   1.532   5.122  0.7380  0.5826 -0.8212
  180SAPS  H18Z20676  -0.045   1.411   4.994  0.6302  0.1856 -1.9866
  181POPC     N20677   5.067   4.302   7.337 -0.2730 -0.3425  0.3428
  181POPC   C1220678   5.172   4.278   7.233  0.1458  0.3066 -0.5889
  181POPC  H12A20679   5.263   4.332   7.255  0.8053 -1.1830  0.5295
  181POPC  H12B20680   5.140   4.323   7.140  0.1465 -0.4720 -0.9749
  181POPC   C1320681   5.061   4.451   7.367 -0.4286 -0.2935  0.7920
  181POPC  H13A20682   4.968   4.479   7.415 -1.1873 -0.2236 -0.6575
  181POPC  H13B20683   5.135   4.484   7.438 -0.5034 -0.4628  0.9505
  181POPC  H13C20684   5.074   4.516   7.282 -1.6758  0.5642  1.2217
  181POPC   C1420685   4.929   4.273   7.289 -0.1623 -0.0569 -0.1656
  181POPC  H14A20686   4.908   4.168   7.276 -1.3796  0.0212  0.9485
  181POPC  H14B20687   4.863   4.294   7.372  1.4008  1.3204  0.7908
  181POPC  H14C20688   4.895   4.321   7.198  0.2426  1.9224  0.6788
  181POPC   C1520689   5.094   4.227   7.466  0.4095 -0.3759 -0.3400
  181POPC  H15A20690   5.029   4.253   7.547 -0.2373 -0.3188 -0.8640
  181POPC  H15B20691   5.194   4.236   7.504  0.2003 -0.6897  0.3003
  181POPC  H15C20692   5.075   4.124   7.438 -0.5373  0.6535 -4.1298
  181POPC   C1120693   5.207   4.129   7.223 -0.2323 -0.5618  0.2836
  181POPC  H11A20694   5.259   4.105   7.318  0.1801  2.8857  1.0597
  181POPC  H11B20695   5.290   4.132   7.149  0.3713 -0.3701  0.9582
  181POPC     P20696   5.048   4.046   7.042  0.2814  0.4615 -0.0163
  181POPC   O1320697   4.927   3.961   7.019 -0.1707  0.0898  0.2642
  181POPC   O1420698   5.166   4.009   6.959 -0.0530 -0.3484  0.4958
  181POPC   O1220699   5.097   4.043   7.191 -0.1133 -0.0190 -0.9271
  181POPC   O1120700   5.002   4.195   7.011 -0.1105  0.4303 -0.6921
  181POPC    C120701   4.906   4.225   6.915 -0.2781 -0.9762 -0.7035
  181POPC    HA20702   4.870   4.330   6.925  0.9135 -0.3102 -2.8473
  181POPC    HB20703   4.824   4.150   6.921  0.1151 -1.3114  1.0928
  181POPC    C220704   4.974   4.222   6.771 -0.4673 -1.1048 -0.3080
  181POPC    HS20705   4.905   4.272   6.699  1.1316  0.6022 -0.7200
  181POPC   O2120706   5.007   4.092   6.728  0.3495 -0.5308 -0.8041
  181POPC   C2120707   4.906   4.013   6.713  0.2939  0.3220  0.1922
  181POPC   O2220708   4.788   4.042   6.714 -0.2416  0.0178  0.1235
  181POPC   C2220709   4.953   3.870   6.676  0.0797  0.6577 -0.8424
  181POPC   H2R20710   4.866   3.811   6.641  0.0745  0.7137 -0.9246
  181POPC   H2S20711   4.970   3.826   6.776 -2.0339  1.0906 -0.2490
  181POPC    C320712   5.098   4.319   6.743 -0.0910 -0.0265 -0.1058
  181POPC    HX20713   5.185   4.281   6.801  1.1482  0.6247 -1.4814
  181POPC    HY20714   5.058   4.412   6.789 -0.6787  1.2134 -2.9446
  181POPC   O3120715   5.113   4.337   6.601 -0.5791 -0.3934 -0.4671
  181POPC   C3120716   5.204   4.260   6.530  0.3668 -0.8699 -0.8736
  181POPC   O3220717   5.275   4.182   6.588 -0.0786  0.0391  0.5425
  181POPC   C3220718   5.208   4.312   6.386 -0.1215  0.1964  0.0652
  181POPC   H2X20719   5.313   4.304   6.353  0.2293  2.1683  0.5597
  181POPC   H2Y20720   5.185   4.421   6.389  1.0889  0.5203 -1.2195
  181POPC   C2320721   5.061   3.867   6.572 -0.2543  0.5206 -0.5713
  181POPC   H3R20722   5.076   3.760   6.546 -0.7606 -0.6272  3.1633
  181POPC   H3S20723   5.153   3.914   6.615 -0.0517  0.2717 -0.7271
  181POPC   C2420724   5.032   3.952   6.450 -0.1733 -0.9016 -0.3565
  181POPC   H4R20725   5.116   3.958   6.378  0.0096  0.4175 -0.0621
  181POPC   H4S20726   5.026   4.057   6.487 -1.9932 -0.9101 -0.5392
  181POPC   C2520727   4.904   3.925   6.378  0.2411 -0.7875  0.9879
  181POPC   H5R20728   4.905   4.005   6.300  1.1303  1.2453  2.9781
  181POPC   H5S20729   4.809   3.942   6.432 -0.0360 -0.5183  0.4282
  181POPC   C2620730   4.890   3.795   6.303  0.1675 -0.3468  0.4169
  181POPC   H6R20731   4.867   3.714   6.376 -1.7329 -0.9295 -0.7439
  181POPC   H6S20732   4.994   3.777   6.271  0.3439 -2.1736  1.8305
  181POPC   C2720733   4.783   3.785   6.192  0.3169  0.2693  0.8830
  181POPC   H7R20734   4.797   3.866   6.118  0.8980  0.5345  1.2755
  181POPC   H7S20735   4.684   3.810   6.236 -0.9846 -0.0800 -1.6798
  181POPC   C2820736   4.802   3.654   6.115 -0.0376 -0.0077  0.5079
  181POPC   H8R20737   4.718   3.637   6.045  1.6929  2.0607 -2.2570
  181POPC   H8S20738   4.801   3.574   6.193 -0.4045  1.8673  2.5255
  181POPC   C2920739   4.926   3.650   6.028 -0.2368  0.0746 -0.0017
  181POPC   H9120740   5.014   3.677   6.089 -1.5923  0.3716  1.8962
  181POPC  C21020741   4.937   3.630   5.897  0.2708 -0.1014 -0.3543
  181POPC  H10120742   5.037   3.606   5.857 -0.0161 -2.8348  0.3648
  181POPC  C21120743   4.817   3.624   5.806  0.2303 -0.0260 -0.3952
  181POPC  H11R20744   4.845   3.655   5.703  0.4760 -0.3234 -0.4185
  181POPC  H11S20745   4.738   3.696   5.834  0.4499  0.6093 -1.3545
  181POPC  C21220746   4.751   3.479   5.807 -0.5137  0.0479 -0.4155
  181POPC  H12R20747   4.727   3.465   5.915  0.9036  1.6331  0.1505
  181POPC  H12S20748   4.829   3.407   5.775  0.0521  1.1834 -1.6605
  181POPC  C21320749   4.621   3.478   5.734  0.2340 -0.4162 -0.1734
  181POPC  H13R20750   4.560   3.562   5.773 -1.7078 -2.1928  0.8533
  181POPC  H13S20751   4.563   3.391   5.771 -1.2395  1.7449  3.0951
  181POPC  C21420752   4.638   3.499   5.582 -0.1645  0.3513  0.2978
  181POPC  H14R20753   4.719   3.438   5.537 -0.7438  0.9119 -1.5758
  181POPC  H14S20754   4.670   3.604   5.564  1.0449 -0.4276 -2.7657
  181POPC  C21520755   4.510   3.480   5.495  0.5464  0.6032  0.2304
  181POPC  H15R20756   4.434   3.553   5.530  0.0665  0.4101 -0.3946
  181POPC  H15S20757   4.472   3.380   5.522  0.2191  0.5766 -0.3304
  181POPC  C21620758   4.540   3.513   5.349  0.4159  0.4240  1.2807
  181POPC  H16R20759   4.630   3.460   5.312 -0.5440 -0.0699 -0.4881
  181POPC  H16S20760   4.567   3.620   5.333  3.0918 -0.2582  0.8378
  181POPC  C21720761   4.419   3.469   5.265  0.1051 -0.3756  0.1833
  181POPC  H17R20762   4.326   3.520   5.298  1.2172 -0.0361  3.1152
  181POPC  H17S20763   4.405   3.360   5.279  0.5165 -0.5510 -0.6958
  181POPC  C21820764   4.438   3.501   5.114 -0.2178 -0.3255  0.4369
  181POPC  H18R20765   4.521   3.448   5.062 -1.1743  0.0494 -1.5612
  181POPC  H18S20766   4.440   3.608   5.082  0.4338 -0.7724 -1.1114
  181POPC  H18T20767   4.350   3.456   5.064  0.1447 -1.1840  0.5504
  181POPC   C3320768   5.107   4.247   6.287 -0.1789 -0.0894  0.4497
  181POPC   H3X20769   5.006   4.240   6.333 -0.6313 -0.9470 -0.6402
  181POPC   H3Y20770   5.132   4.142   6.263  0.1025  0.1705 -0.4271
  181POPC   C3420771   5.097   4.324   6.156 -0.3187  0.8720  0.1051
  181POPC   H4X20772   5.195   4.370   6.133  0.6796 -1.4693 -0.6534
  181POPC   H4Y20773   5.024   4.407   6.165 -1.1778  0.4429 -2.2825
  181POPC   C3520774   5.046   4.238   6.040 -0.4795 -0.3741  0.1958
  181POPC   H5X20775   5.021   4.314   5.963  1.7955  1.2025  0.9171
  181POPC   H5Y20776   4.963   4.172   6.074 -0.9862  0.0332 -0.2376
  181POPC   C3620777   5.162   4.148   5.984  0.8204 -0.0227  0.6850
  181POPC   H6X20778   5.198   4.088   6.070  1.8676  1.3756  1.2655
  181POPC   H6Y20779   5.248   4.218   5.973  1.3905 -0.9652 -1.3309
  181POPC   C3720780   5.143   4.081   5.847 -1.1314  0.5836  0.3789
  181POPC   H7X20781   5.216   3.998   5.833 -0.7753  1.0174 -0.4024
  181POPC   H7Y20782   5.154   4.164   5.774  0.9005 -0.5241 -0.6600
  181POPC   C3820783   5.010   4.016   5.817  0.8426  0.0536  0.0782
  181POPC   H8X20784   4.940   4.099   5.840  1.5414  0.8066 -0.4358
  181POPC   H8Y20785   4.985   3.933   5.886 -2.8460  1.0173  0.0964
  181POPC   C3920786   4.996   3.971   5.671  1.0488 -0.0318  0.6718
  181POPC   H9X20787   5.031   4.058   5.612 -0.1819  0.1192  0.1449
  181POPC   H9Y20788   4.887   3.956   5.663  1.1137 -0.5902  0.7767
  181POPC  C31020789   5.068   3.847   5.637 -0.2038  0.0277  0.4017
  181POPC  H10X20790   5.042   3.772   5.714  0.0577  0.1616  0.6246
  181POPC  H10Y20791   5.174   3.872   5.660 -0.1451 -1.7060  2.1777
  181POPC  C31120792   5.037   3.800   5.494  0.6099  0.5183  0.4379
  181POPC  H11X20793   5.056   3.892   5.435  2.0803  0.7688  1.2557
  181POPC  H11Y20794   4.933   3.762   5.491  0.6067  0.5813 -0.4437
  181POPC  C31220795   5.131   3.694   5.457 -0.3307  0.4482  0.2698
  181POPC  H12X20796   5.119   3.614   5.533 -1.0801  0.8359  0.5819
  181POPC  H12Y20797   5.238   3.722   5.456  0.6368 -2.8372 -0.9119
  181POPC  C31320798   5.105   3.633   5.315  0.2389 -0.5816  0.4580
  181POPC  H13X20799   5.183   3.556   5.300 -0.9728 -1.6300 -0.7982
  181POPC  H13Y20800   5.110   3.717   5.241  1.9395 -0.9581  0.0958
  181POPC  C31420801   4.984   3.559   5.313  0.1645  0.0876  0.3658
  181POPC  H14X20802   4.901   3.629   5.290  0.0604  0.1826  1.0035
  181POPC  H14Y20803   4.966   3.504   5.408 -2.1551  0.4284  0.1857
  181POPC  C31520804   4.988   3.451   5.193  0.5565 -0.0794 -0.9769
  181POPC  H15X20805   5.068   3.492   5.129  1.0616 -0.2527 -0.4682
  181POPC  H15Y20806   4.898   3.449   5.128  1.5001  0.7188 -2.3647
  181POPC  C31620807   5.025   3.306   5.230  0.0489  0.0783 -0.6150
  181POPC  H16X20808   5.132   3.304   5.257 -0.5015  0.6145  1.8900
  181POPC  H16Y20809   5.021   3.235   5.145  0.8406  0.0524 -0.6313
  181POPC  H16Z20810   4.963   3.272   5.316  1.2643  0.8701  0.6149
  182POPC     N20811   2.252   2.693   7.102 -0.3782  0.1873 -0.3361
  182POPC   C1220812   2.284   2.547   7.141 -0.0973  0.1725  0.2058
  182POPC  H12A20813   2.187   2.500   7.153  0.0270 -0.1267  0.0435
  182POPC  H12B20814   2.319   2.535   7.242  0.4656 -0.8296 -0.1000
  182POPC   C1320815   2.144   2.742   7.194 -0.4441 -0.1883  0.3347
  182POPC  H13A20816   2.062   2.672   7.194  0.5279 -1.5422 -3.3989
  182POPC  H13B20817   2.186   2.763   7.291 -0.9569  0.1309  0.4918
  182POPC  H13C20818   2.107   2.837   7.161 -1.0679  0.0850  1.7475
  182POPC   C1420819   2.371   2.781   7.112 -0.0747  1.0317 -0.5446
  182POPC  H14A20820   2.420   2.786   7.208  0.2962  2.4324 -0.7876
  182POPC  H14B20821   2.448   2.747   7.045  0.5030  0.4766  0.3910
  182POPC  H14C20822   2.340   2.879   7.077 -3.3866 -0.9320 -3.7241
  182POPC   C1520823   2.195   2.703   6.965 -0.5900  0.4956  0.3640
  182POPC  H15A20824   2.260   2.661   6.890 -0.5170  0.4501  0.4523
  182POPC  H15B20825   2.179   2.808   6.942  2.4083  0.7291 -1.2581
  182POPC  H15C20826   2.098   2.658   6.957  0.5713 -2.0355 -0.3788
  182POPC   C1120827   2.376   2.474   7.053 -0.2443  0.0806  0.5570
  182POPC  H11A20828   2.420   2.386   7.105  1.6311  1.2643  1.0844
  182POPC  H11B20829   2.461   2.538   7.019 -0.9650  0.7624  0.0131
  182POPC     P20830   2.202   2.312   6.933 -0.0183  0.0820 -0.0998
  182POPC   O1320831   2.065   2.365   6.949  0.1568 -0.3284  0.5588
  182POPC   O1420832   2.234   2.200   7.022 -0.3091  0.4637  0.1927
  182POPC   O1220833   2.308   2.426   6.936 -0.0289  0.0042 -0.1717
  182POPC   O1120834   2.213   2.262   6.780  0.0116  0.2085  0.0410
  182POPC    C120835   2.278   2.344   6.688 -1.1546 -0.4847  0.8963
  182POPC    HA20836   2.293   2.285   6.595 -0.6238  0.4412  0.3711
  182POPC    HB20837   2.379   2.375   6.723  0.0226 -2.3217 -0.7007
  182POPC    C220838   2.205   2.467   6.627  0.6991  0.2648 -0.3876
  182POPC    HS20839   2.196   2.544   6.706 -1.7623  0.1185 -0.4345
  182POPC   O2120840   2.072   2.434   6.582 -1.2424  0.4089  0.9791
  182POPC   C2120841   2.005   2.546   6.541 -0.0229 -0.1047  0.1980
  182POPC   O2220842   2.031   2.662   6.566 -0.2333 -0.1773  0.7468
  182POPC   C2220843   1.879   2.498   6.469  0.8009  0.5362  0.4026
  182POPC   H2R20844   1.816   2.583   6.435  2.5108  1.2031 -1.3371
  182POPC   H2S20845   1.816   2.441   6.540  1.2142  1.5118  1.6055
  182POPC    C320846   2.300   2.543   6.530 -0.2155  0.2318  0.2529
  182POPC    HX20847   2.392   2.564   6.588  0.2006 -1.7716  0.4103
  182POPC    HY20848   2.256   2.642   6.506  1.2976  0.9606  0.3893
  182POPC   O3120849   2.322   2.458   6.413 -0.4313 -0.6388  0.2611
  182POPC   C3120850   2.403   2.505   6.323 -0.4330 -0.1776  0.2975
  182POPC   O3220851   2.459   2.613   6.325  0.0408  1.1114  0.0670
  182POPC   C3220852   2.421   2.390   6.226  0.7956 -0.1896  0.0735
  182POPC   H2X20853   2.348   2.307   6.240 -1.2584  1.8226  2.0227
  182POPC   H2Y20854   2.519   2.351   6.262 -0.5734 -2.3161  1.7487
  182POPC   C2320855   1.901   2.418   6.341 -0.4638 -0.4512 -0.2323
  182POPC   H3R20856   1.938   2.315   6.363  0.4036 -0.3759 -1.2708
  182POPC   H3S20857   1.980   2.466   6.279  2.2862 -1.8426  1.9519
  182POPC   C2420858   1.776   2.408   6.257  0.1478 -0.8363  0.1340
  182POPC   H4R20859   1.749   2.513   6.236  0.8807 -0.1295  2.4226
  182POPC   H4S20860   1.695   2.363   6.318  0.6309 -0.7282  0.8710
  182POPC   C2520861   1.814   2.343   6.125 -0.1904  0.2641 -0.2398
  182POPC   H5R20862   1.839   2.238   6.151 -1.2063 -0.2267 -1.1708
  182POPC   H5S20863   1.907   2.379   6.075  0.1838 -0.7634 -0.2938
  182POPC   C2620864   1.707   2.349   6.012  0.4220 -0.1828 -0.0069
  182POPC   H6R20865   1.677   2.455   5.996 -0.6124 -0.6022 -1.0009
  182POPC   H6S20866   1.614   2.298   6.044 -0.3208  1.8924  1.3890
  182POPC   C2720867   1.760   2.298   5.878 -0.0644 -0.6271 -0.0341
  182POPC   H7R20868   1.858   2.349   5.868  0.0082 -0.8890 -0.7104
  182POPC   H7S20869   1.697   2.332   5.793  2.3495 -1.0017 -2.1250
  182POPC   C2820870   1.796   2.151   5.863 -0.0971 -0.6379  0.4032
  182POPC   H8R20871   1.874   2.142   5.943  0.9504 -0.1971 -0.5340
  182POPC   H8S20872   1.836   2.142   5.760 -0.5252  4.9646 -0.6064
  182POPC   C2920873   1.682   2.058   5.905  0.2046  0.4016 -0.5316
  182POPC   H9120874   1.663   2.046   6.013  0.0877 -2.2714 -0.7746
  182POPC  C21020875   1.610   1.991   5.819  0.2940 -0.5342 -0.4090
  182POPC  H10120876   1.523   1.939   5.860 -0.2460  1.3338  0.9735
  182POPC  C21120877   1.614   1.991   5.666 -0.1632 -0.9153 -0.2181
  182POPC  H11R20878   1.715   2.006   5.622  0.8211 -1.4642  1.7180
  182POPC  H11S20879   1.566   2.080   5.621  0.2635 -1.4277 -1.7483
  182POPC  C21220880   1.534   1.882   5.603 -1.4137 -0.1131  0.4056
  182POPC  H12R20881   1.427   1.893   5.632 -2.2466 -1.2824 -1.8920
  182POPC  H12S20882   1.557   1.774   5.619  1.5587  0.0776 -1.7619
  182POPC  C21320883   1.552   1.900   5.453  1.3462 -0.1500 -0.2668
  182POPC  H13R20884   1.656   1.875   5.424  1.8571  0.2261  1.1444
  182POPC  H13S20885   1.529   2.007   5.433 -1.4822 -0.3526  1.2860
  182POPC  C21420886   1.460   1.816   5.365  0.1622  1.1054  0.4267
  182POPC  H14R20887   1.362   1.797   5.415 -1.2859  0.0112 -2.5854
  182POPC  H14S20888   1.504   1.714   5.365 -1.3814  0.4094  1.2682
  182POPC  C21520889   1.433   1.871   5.225 -0.0381  0.1982  0.8451
  182POPC  H15R20890   1.529   1.890   5.172 -0.6573 -1.2086 -0.8875
  182POPC  H15S20891   1.381   1.969   5.225  0.0929  0.3210 -1.1423
  182POPC  C21620892   1.358   1.774   5.135 -0.0028 -0.5445  0.7352
  182POPC  H16R20893   1.266   1.744   5.189 -0.0450  2.5365  2.5957
  182POPC  H16S20894   1.419   1.682   5.120 -1.1925 -1.1718 -0.5388
  182POPC  C21720895   1.312   1.839   5.002  0.3609  0.5531  0.1697
  182POPC  H17R20896   1.393   1.896   4.951  0.9801 -2.0399 -2.0644
  182POPC  H17S20897   1.236   1.919   5.010  1.6248  2.1094 -1.9699
  182POPC  C21820898   1.270   1.730   4.904  0.2023  0.4441 -0.6274
  182POPC  H18R20899   1.351   1.655   4.892 -0.0937 -0.2243  1.2621
  182POPC  H18S20900   1.262   1.775   4.802  0.9116 -0.6282 -1.1800
  182POPC  H18T20901   1.180   1.674   4.936  0.4600  0.0032 -0.6569
  182POPC   C3320902   2.439   2.436   6.075 -0.1651  0.1506  0.0658
  182POPC   H3X20903   2.501   2.356   6.028 -0.6270  0.3946 -0.9921
  182POPC   H3Y20904   2.500   2.529   6.067  0.7658 -0.2481  1.9154
  182POPC   C3420905   2.300   2.460   6.004  0.0438 -0.1595  0.5459
  182POPC   H4X20906   2.289   2.561   5.961  0.6939  0.2042  1.2117
  182POPC   H4Y20907   2.225   2.457   6.086 -1.7462  0.8382 -0.9885
  182POPC   C3520908   2.271   2.349   5.912 -0.7986 -0.3208 -0.3901
  182POPC   H5X20909   2.199   2.280   5.960 -1.1558  0.8160  0.7709
  182POPC   H5Y20910   2.356   2.289   5.872 -0.4238  0.6638 -1.1272
  182POPC   C3620911   2.201   2.408   5.788  0.4625  0.8193  0.2762
  182POPC   H6X20912   2.259   2.495   5.749  1.1212 -0.5658 -2.0340
  182POPC   H6Y20913   2.097   2.442   5.810 -0.3513 -1.1756 -0.2776
  182POPC   C3720914   2.194   2.303   5.679 -0.4129  0.1607  0.1322
  182POPC   H7X20915   2.147   2.210   5.717  2.5759 -1.2834  0.6147
  182POPC   H7Y20916   2.295   2.264   5.654 -0.9230 -1.6630  0.8091
  182POPC   C3820917   2.119   2.348   5.550  0.5913 -0.1475  0.4585
  182POPC   H8X20918   2.165   2.290   5.467 -0.3731 -0.1956 -0.0566
  182POPC   H8Y20919   2.143   2.455   5.534  0.6219  0.3215  3.1796
  182POPC   C3920920   1.973   2.304   5.556  0.0327 -0.1195  0.4546
  182POPC   H9X20921   1.921   2.346   5.644  1.1243 -1.4010  1.7488
  182POPC   H9Y20922   1.967   2.195   5.579 -1.0163 -0.6779 -2.0637
  182POPC  C31020923   1.891   2.338   5.434  0.0749 -0.0087  2.1487
  182POPC  H10X20924   1.930   2.291   5.341 -2.2986  0.6104  0.7402
  182POPC  H10Y20925   1.897   2.447   5.410  0.6977 -0.4313  0.2426
  182POPC  C31120926   1.739   2.314   5.439  0.4595  0.3866 -0.3551
  182POPC  H11X20927   1.703   2.386   5.515  1.4490  0.7145 -0.1872
  182POPC  H11Y20928   1.735   2.212   5.482  1.7229  0.0294 -1.0431
  182POPC  C31220929   1.670   2.321   5.300 -0.2671  0.4944  0.2153
  182POPC  H12X20930   1.562   2.303   5.322 -0.5307  0.3436 -1.1365
  182POPC  H12Y20931   1.704   2.240   5.231 -1.7917  2.5948 -3.2364
  182POPC  C31320932   1.695   2.450   5.229  0.4182 -1.0096 -0.1772
  182POPC  H13X20933   1.799   2.466   5.195  0.7622 -1.6495  0.5579
  182POPC  H13Y20934   1.688   2.528   5.308  1.4583 -2.0845  1.0212
  182POPC  C31420935   1.614   2.486   5.103  0.3284  0.9328  0.1184
  182POPC  H14X20936   1.666   2.435   5.019 -0.5649  0.1826  0.0149
  182POPC  H14Y20937   1.639   2.593   5.089 -1.2292  1.4148  0.8637
  182POPC  C31520938   1.461   2.479   5.117  0.6636 -0.2780  0.3623
  182POPC  H15X20939   1.423   2.538   5.203  0.6295 -1.4890  1.1953
  182POPC  H15Y20940   1.435   2.371   5.119 -0.9406 -0.1374 -3.6838
  182POPC  C31620941   1.402   2.530   4.984 -0.4226  0.7303 -0.2028
  182POPC  H16X20942   1.466   2.505   4.897 -2.2872 -1.8494 -0.9726
  182POPC  H16Y20943   1.382   2.639   4.994  1.3577  0.8943  2.1648
  182POPC  H16Z20944   1.312   2.473   4.952  0.9082 -0.7007 -1.5745
  183POPC     N20945   4.061   1.978   7.477 -0.0967 -0.3104  0.3553
  183POPC   C1220946   4.174   1.975   7.375  1.0366 -0.0765  0.0360
  183POPC  H12A20947   4.264   1.951   7.430 -0.5235 -2.5353  1.7236
  183POPC  H12B20948   4.188   2.073   7.332  0.6348  0.3148  0.7830
  183POPC   C1320949   3.934   2.035   7.413 -0.0970 -0.4422 -0.9551
  183POPC  H13A20950   3.951   2.139   7.389 -0.2776 -0.3321 -0.6190
  183POPC  H13B20951   3.899   1.977   7.329 -0.1718 -2.4404  0.4127
  183POPC  H13C20952   3.852   2.032   7.483  0.3353 -0.3233 -0.4420
  183POPC   C1420953   4.025   1.840   7.518 -0.4466 -0.8820 -1.4393
  183POPC  H14A20954   3.993   1.786   7.430 -1.9279 -1.1508 -0.7514
  183POPC  H14B20955   4.113   1.793   7.559 -1.6207 -1.7570  0.1963
  183POPC  H14C20956   3.948   1.848   7.593  2.1213 -0.2508  1.3394
  183POPC   C1520957   4.096   2.064   7.593 -0.5660 -0.3821 -0.2738
  183POPC  H15A20958   4.183   2.018   7.639  0.8390  1.7118 -0.6839
  183POPC  H15B20959   4.013   2.063   7.662 -1.4982  1.1323 -1.3319
  183POPC  H15C20960   4.115   2.168   7.571  1.2151 -0.0193  2.3773
  183POPC   C1120961   4.172   1.873   7.254  0.3575  0.0584  0.0898
  183POPC  H11A20962   4.257   1.895   7.186 -0.0577 -2.0739 -1.1850
  183POPC  H11B20963   4.078   1.898   7.201 -0.7035 -1.5160  1.1600
  183POPC     P20964   4.309   1.681   7.339  0.3966 -0.0470  0.2896
  183POPC   O1320965   4.290   1.553   7.417  0.6688 -0.1078 -0.3131
  183POPC   O1420966   4.383   1.780   7.415 -0.2771  0.0298 -0.8971
  183POPC   O1220967   4.169   1.739   7.305  0.4885  0.5194 -0.4146
  183POPC   O1120968   4.370   1.659   7.202  0.2508  0.0678 -0.1319
  183POPC    C120969   4.326   1.557   7.117 -0.7342  0.3332  0.3205
  183POPC    HA20970   4.215   1.560   7.116 -0.7927 -1.0536 -0.2473
  183POPC    HB20971   4.352   1.456   7.156 -2.7524 -1.0291 -1.6227
  183POPC    C220972   4.383   1.581   6.974  0.0449  0.6912 -0.6052
  183POPC    HS20973   4.491   1.571   6.995 -0.6744 -1.0239  2.8978
  183POPC   O2120974   4.348   1.704   6.913 -0.9236 -0.6587 -0.6158
  183POPC   C2120975   4.435   1.807   6.924 -0.1100 -0.3094 -0.7427
  183POPC   O2220976   4.547   1.792   6.967  0.2690  0.3338 -0.3799
  183POPC   C2220977   4.378   1.940   6.878  0.3186  0.4704  0.2887
  183POPC   H2R20978   4.425   2.021   6.937  0.8864  0.2859  0.0899
  183POPC   H2S20979   4.278   1.956   6.925 -0.2916 -2.0788  0.0113
  183POPC    C320980   4.348   1.460   6.875 -0.5021  0.1976 -0.3794
  183POPC    HX20981   4.237   1.454   6.869 -0.4913 -1.3435  0.3706
  183POPC    HY20982   4.402   1.372   6.916 -0.6220 -0.0893 -0.8308
  183POPC   O3120983   4.400   1.486   6.745  0.2285 -0.5559 -0.0389
  183POPC   C3120984   4.398   1.379   6.666  0.7463  0.6435  0.1555
  183POPC   O3220985   4.369   1.268   6.697  0.1905  0.0181  0.2999
  183POPC   C3220986   4.438   1.420   6.520 -0.5595 -0.5896 -0.0983
  183POPC   H2X20987   4.544   1.452   6.531 -0.4616 -0.4372 -1.4067
  183POPC   H2Y20988   4.373   1.505   6.492  0.2605 -0.1804 -0.7879
  183POPC   C2320989   4.397   1.976   6.723  0.2828  0.2358  0.3884
  183POPC   H3R20990   4.503   1.984   6.692  0.3278 -2.8156 -0.5430
  183POPC   H3S20991   4.355   2.078   6.709 -0.6992  0.1919  2.5761
  183POPC   C2420992   4.319   1.873   6.627 -0.0117  0.5073 -0.6548
  183POPC   H4R20993   4.213   1.895   6.652  0.2715  1.7084 -0.4407
  183POPC   H4S20994   4.344   1.768   6.651 -0.9185  0.8654  2.2615
  183POPC   C2520995   4.346   1.886   6.483  0.5458 -0.2653  1.1578
  183POPC   H5R20996   4.455   1.882   6.461  0.2046  0.0727 -0.7365
  183POPC   H5S20997   4.306   1.988   6.461 -0.7178 -0.8210  0.8197
  183POPC   C2620998   4.278   1.778   6.394  0.1680 -0.0786  0.2255
  183POPC   H6R20999   4.169   1.758   6.402  0.3529 -1.6169 -0.7428
  183POPC   H6S21000   4.319   1.678   6.418 -0.0634 -0.1060  0.5086
  183POPC   C2721001   4.315   1.803   6.246  0.1430 -0.8931 -0.6759
  183POPC   H7R21002   4.419   1.842   6.242  0.4608 -1.5285  0.6886
  183POPC   H7S21003   4.240   1.880   6.220 -1.1168 -1.6910  0.4397
  183POPC   C2821004   4.299   1.691   6.150  0.7770 -0.2553 -0.1100
  183POPC   H8R21005   4.208   1.631   6.173  0.5420 -0.2416 -0.9547
  183POPC   H8S21006   4.386   1.624   6.165  1.3456  0.4881 -0.0596
  183POPC   C2921007   4.304   1.750   6.008  0.5452  0.5034 -0.3702
  183POPC   H9121008   4.283   1.858   6.004  0.1164  0.4598  0.4636
  183POPC  C21021009   4.341   1.687   5.891 -0.7357  0.1233 -0.4662
  183POPC  H10121010   4.351   1.748   5.800  2.8244  0.0289 -0.2984
  183POPC  C21121011   4.373   1.543   5.875  0.0045 -0.8042  0.4086
  183POPC  H11R21012   4.347   1.481   5.964  0.7536  0.5598  1.6223
  183POPC  H11S21013   4.484   1.530   5.878  0.3092  1.4969  0.6503
  183POPC  C21221014   4.319   1.477   5.752  0.0407  0.4917  0.4485
  183POPC  H12R21015   4.218   1.519   5.731  0.7711  0.6727 -3.5953
  183POPC  H12S21016   4.309   1.370   5.779  0.1398  0.9524  2.4555
  183POPC  C21321017   4.405   1.483   5.628  0.0200 -0.1313 -0.0004
  183POPC  H13R21018   4.491   1.414   5.631 -0.0509 -0.1989  1.2522
  183POPC  H13S21019   4.452   1.584   5.623  1.2344 -0.7248 -1.0586
  183POPC  C21421020   4.338   1.460   5.493 -0.1041 -0.1979  0.4311
  183POPC  H14R21021   4.260   1.538   5.484  0.0399  0.1299  1.8049
  183POPC  H14S21022   4.296   1.358   5.503 -1.8870  0.3437 -0.9468
  183POPC  C21521023   4.438   1.485   5.382  1.0210 -0.1417  0.0006
  183POPC  H15R21024   4.531   1.443   5.427 -0.4683  0.1564  3.6747
  183POPC  H15S21025   4.442   1.594   5.361 -2.9701 -0.2328 -2.2546
  183POPC  C21621026   4.389   1.407   5.254  0.2299  0.3250  0.4917
  183POPC  H16R21027   4.394   1.304   5.295  0.9865  0.5850  1.0887
  183POPC  H16S21028   4.463   1.433   5.175 -0.2590  1.8853  0.4974
  183POPC  C21721029   4.250   1.454   5.202 -0.1117 -0.3425 -0.2113
  183POPC  H17R21030   4.244   1.565   5.207 -0.7756 -0.3208 -1.1657
  183POPC  H17S21031   4.164   1.410   5.255 -0.3711 -2.2717 -2.1099
  183POPC  C21821032   4.231   1.419   5.056  0.1403  0.6500 -0.1383
  183POPC  H18R21033   4.257   1.313   5.031  0.5445  0.7510 -0.1567
  183POPC  H18S21034   4.284   1.489   4.989 -2.5957  1.7825 -1.2486
  183POPC  H18T21035   4.123   1.428   5.032  0.2094  0.9612 -0.3348
  183POPC   C3321036   4.426   1.306   6.420 -0.0637 -0.2047  0.2691
  183POPC   H3X21037   4.320   1.276   6.407 -0.3190  0.3338  1.0991
  183POPC   H3Y21038   4.485   1.220   6.458  0.7530 -0.1108 -0.7165
  183POPC   C3421039   4.493   1.343   6.288  0.2844 -0.0702 -0.1024
  183POPC   H4X21040   4.601   1.321   6.299  0.0797 -0.2864  1.8048
  183POPC   H4Y21041   4.464   1.445   6.253 -0.9108 -0.5791 -0.6188
  183POPC   C3521042   4.455   1.236   6.179 -0.2358 -0.2813  0.1684
  183POPC   H5X21043   4.474   1.134   6.218 -0.1695  0.4244  2.0361
  183POPC   H5Y21044   4.519   1.249   6.089 -0.6806  0.5232 -0.0490
  183POPC   C3621045   4.306   1.246   6.129  0.2422  0.5188 -0.9964
  183POPC   H6X21046   4.279   1.351   6.108 -2.2085 -0.0002 -0.7116
  183POPC   H6Y21047   4.242   1.198   6.206  0.2916 -2.3818 -2.5987
  183POPC   C3721048   4.276   1.171   5.999  0.1642  0.2949  0.4863
  183POPC   H7X21049   4.289   1.062   6.014 -2.6464 -0.1751  0.0450
  183POPC   H7Y21050   4.347   1.194   5.916 -1.4995 -0.6096 -1.2810
  183POPC   C3821051   4.129   1.204   5.942  0.3143 -0.2804  0.3100
  183POPC   H8X21052   4.129   1.313   5.918 -0.2631 -0.2883  0.2455
  183POPC   H8Y21053   4.045   1.184   6.013  1.2050 -1.0750  1.1623
  183POPC   C3921054   4.116   1.111   5.820  0.5553  0.0213 -0.4610
  183POPC   H9X21055   4.102   1.010   5.863  0.8808  0.2245  0.1422
  183POPC   H9Y21056   4.217   1.119   5.773  2.0834 -1.7445  2.2460
  183POPC  C31021057   3.995   1.139   5.727 -0.2757  0.1613 -0.0232
  183POPC  H10X21058   3.906   1.143   5.793  0.6916  0.2241  1.3026
  183POPC  H10Y21059   3.993   1.057   5.651 -0.3461  0.1821 -0.0435
  183POPC  C31121060   4.002   1.269   5.642  0.8793  0.3593 -1.1366
  183POPC  H11X21061   4.107   1.281   5.607  1.6504  0.3279  0.9967
  183POPC  H11Y21062   3.975   1.351   5.712  0.9806 -0.8031  0.3169
  183POPC  C31221063   3.913   1.280   5.524  0.1170  0.6078 -0.5768
  183POPC  H12X21064   3.927   1.381   5.481  1.5099  1.4096  1.5925
  183POPC  H12Y21065   3.808   1.264   5.556  0.3480 -0.7460 -0.4311
  183POPC  C31321066   3.948   1.185   5.411 -0.8001 -0.6047  0.8097
  183POPC  H13X21067   3.959   1.078   5.440  1.9772 -0.2247  1.5186
  183POPC  H13Y21068   4.051   1.223   5.394 -1.2875  0.7524  0.7883
  183POPC  C31421069   3.872   1.205   5.284 -0.2459 -0.6360  0.0927
  183POPC  H14X21070   3.893   1.130   5.205  0.3205  1.2594 -1.6510
  183POPC  H14Y21071   3.901   1.302   5.238 -0.1967  0.8652  3.0800
  183POPC  C31521072   3.718   1.210   5.312  0.3662  0.2611 -0.4111
  183POPC  H15X21073   3.689   1.294   5.379 -3.3840 -0.1801 -1.2832
  183POPC  H15Y21074   3.702   1.129   5.386  0.5693  1.2790  0.7981
  183POPC  C31621075   3.617   1.195   5.198 -0.2432 -0.4984  0.1474
  183POPC  H16X21076   3.610   1.087   5.171  1.3325 -0.3297 -1.0988
  183POPC  H16Y21077   3.656   1.256   5.113  2.3764 -0.7345  1.1073
  183POPC  H16Z21078   3.511   1.214   5.225 -1.1662 -1.5729 -2.3443
  184POPC     N21079   4.988   1.559   7.532  0.0834 -1.2377 -0.0632
  184POPC   C1221080   4.886   1.465   7.484  0.8887  0.2362 -0.3010
  184POPC  H12A21081   4.794   1.520   7.472  0.3420 -0.2007  1.5864
  184POPC  H12B21082   4.869   1.410   7.575  0.8548 -0.6085 -0.7994
  184POPC   C1321083   5.114   1.493   7.540  0.8234  0.5219  0.3155
  184POPC  H13A21084   5.114   1.415   7.614 -0.2699  0.0990 -0.1142
  184POPC  H13B21085   5.133   1.437   7.450  2.3557 -0.2926  1.1122
  184POPC  H13C21086   5.198   1.560   7.551  0.0983  1.4789  0.2185
  184POPC   C1421087   4.979   1.683   7.454 -0.4176  0.0039  0.6062
  184POPC  H14A21088   4.882   1.730   7.452 -0.7271 -0.6023 -0.9347
  184POPC  H14B21089   5.049   1.758   7.486 -1.1536  0.3927  1.3545
  184POPC  H14C21090   5.006   1.665   7.351  1.1094 -1.2829  1.1908
  184POPC   C1521091   4.959   1.601   7.681 -0.7836  0.3029  0.5294
  184POPC  H15A21092   4.938   1.519   7.748 -0.4406  1.2404  1.8072
  184POPC  H15B21093   4.877   1.670   7.678 -0.1459  1.0584 -0.3553
  184POPC  H15C21094   5.051   1.637   7.726 -0.9100 -0.1546  1.1650
  184POPC   C1121095   4.913   1.371   7.364 -0.0155 -0.1457  0.0062
  184POPC  H11A21096   4.860   1.274   7.371  0.4947 -0.4852 -0.7211
  184POPC  H11B21097   5.016   1.329   7.358 -1.2071 -3.2692 -0.5229
  184POPC     P21098   4.734   1.494   7.208 -0.0270 -0.1946  0.0405
  184POPC   O1321099   4.752   1.639   7.232 -0.4477 -0.0681  0.3480
  184POPC   O1421100   4.627   1.428   7.286 -0.7679  0.0647  0.2437
  184POPC   O1221101   4.871   1.427   7.238 -0.2883 -0.5394 -0.1797
  184POPC   O1121102   4.721   1.464   7.057  0.4504 -0.2512  0.7247
  184POPC    C121103   4.667   1.335   7.005  0.0985 -0.8008 -0.2025
  184POPC    HA21104   4.643   1.341   6.897  1.5737  0.2083 -0.5136
  184POPC    HB21105   4.579   1.312   7.069 -0.8809  2.2854 -0.2771
  184POPC    C221106   4.758   1.207   7.020  0.6215  0.0496 -0.1666
  184POPC    HS21107   4.772   1.183   7.127 -3.2556 -1.6946  0.1426
  184POPC   O2121108   4.876   1.227   6.946  0.0961  0.3279 -0.6936
  184POPC   C2121109   4.972   1.146   6.976 -0.4434 -0.2346  0.4060
  184POPC   O2221110   4.969   1.051   7.056  0.3128 -0.0809 -0.2876
  184POPC   C2221111   5.095   1.225   6.935  0.0455  0.0601 -0.2113
  184POPC   H2R21112   5.134   1.276   7.025 -1.9348  0.6754  0.3480
  184POPC   H2S21113   5.065   1.300   6.858 -0.8319 -0.2863 -0.2202
  184POPC    C321114   4.674   1.083   6.959 -0.0451 -0.0542  0.1196
  184POPC    HX21115   4.576   1.079   7.012 -1.0742 -0.4270 -1.7359
  184POPC    HY21116   4.730   0.988   6.975 -3.1004 -2.1907 -1.0312
  184POPC   O3121117   4.647   1.102   6.818  0.2112 -0.6289 -0.2243
  184POPC   C3121118   4.723   1.036   6.737 -0.6763 -0.4627 -0.9250
  184POPC   O3221119   4.813   0.962   6.769 -0.0966 -0.1966 -0.0216
  184POPC   C3221120   4.681   1.060   6.597  0.6301 -0.5239  0.6770
  184POPC   H2X21121   4.659   1.168   6.584  2.1477 -0.0799  1.5600
  184POPC   H2Y21122   4.586   1.005   6.579  1.5054 -2.1289  0.8139
  184POPC   C2321123   5.212   1.136   6.873 -0.4394  0.5267  0.6423
  184POPC   H3R21124   5.169   1.082   6.785  0.9217  0.3485  0.0675
  184POPC   H3S21125   5.245   1.059   6.946 -2.8134 -1.0582  0.1761
  184POPC   C2421126   5.330   1.220   6.824 -0.6021  0.0461 -1.1349
  184POPC   H4R21127   5.396   1.219   6.913 -1.5111 -0.0283 -0.4505
  184POPC   H4S21128   5.285   1.319   6.807  2.3728  1.9817  1.2399
  184POPC   C2521129   5.402   1.162   6.697  0.0311 -0.0693  0.2491
  184POPC   H5R21130   5.427   1.055   6.715 -1.7312 -0.7654 -1.1093
  184POPC   H5S21131   5.496   1.220   6.694  1.4771 -1.9684  3.3056
  184POPC   C2621132   5.329   1.202   6.568 -0.4167 -0.7541  0.4534
  184POPC   H6R21133   5.299   1.308   6.579 -0.6717 -0.9576  1.9334
  184POPC   H6S21134   5.241   1.135   6.556 -0.0673 -1.4188  1.4051
  184POPC   C2721135   5.413   1.189   6.441 -0.8246 -1.2979  0.5075
  184POPC   H7R21136   5.452   1.085   6.430  1.4436 -0.4271 -0.2343
  184POPC   H7S21137   5.503   1.253   6.447 -1.2547 -0.4172 -1.5247
  184POPC   C2821138   5.339   1.229   6.318  0.5422 -0.8408  0.3742
  184POPC   H8R21139   5.419   1.228   6.240  0.2652  0.6971  0.0400
  184POPC   H8S21140   5.305   1.333   6.334  1.2080 -0.6842  0.8472
  184POPC   C2921141   5.222   1.130   6.287 -0.2453 -0.0098  0.9944
  184POPC   H9121142   5.125   1.164   6.325 -0.7984  1.0683 -1.2600
  184POPC  C21021143   5.229   1.030   6.199  0.0126 -0.3369 -0.2438
  184POPC  H10121144   5.139   0.972   6.173 -0.6646  1.6771 -2.8246
  184POPC  C21121145   5.359   0.979   6.128  0.3627 -0.0152 -0.4382
  184POPC  H11R21146   5.341   0.873   6.098  2.8647  0.0601 -2.6006
  184POPC  H11S21147   5.443   0.973   6.200 -0.3703 -1.6994  0.3297
  184POPC  C21221148   5.406   1.061   6.002 -0.1708 -0.1471 -0.9481
  184POPC  H12R21149   5.515   1.037   6.000  0.0278  0.2104  1.6698
  184POPC  H12S21150   5.391   1.171   6.016 -1.2501 -0.2915 -0.9085
  184POPC  C21321151   5.332   1.019   5.882 -0.0398  0.1302  0.6634
  184POPC  H13R21152   5.225   1.045   5.898  0.1681  1.2068  0.4068
  184POPC  H13S21153   5.341   0.910   5.865  0.9033  0.5091 -1.7261
  184POPC  C21421154   5.378   1.094   5.759 -0.0718 -0.1697 -0.3225
  184POPC  H14R21155   5.487   1.087   5.736 -0.3665  0.8533 -2.2924
  184POPC  H14S21156   5.367   1.205   5.761  2.4395  0.1327  0.7596
  184POPC  C21521157   5.296   1.045   5.635 -0.2972  0.2879  0.0268
  184POPC  H15R21158   5.295   1.132   5.567 -0.4398  1.0088  0.9289
  184POPC  H15S21159   5.189   1.022   5.658 -1.2186  1.5859 -2.6097
  184POPC  C21621160   5.370   0.915   5.566 -0.5459 -0.1574  0.1328
  184POPC  H16R21161   5.354   0.834   5.639 -1.2954 -1.7668 -1.7431
  184POPC  H16S21162   5.478   0.941   5.559 -0.3205 -0.3190  2.1922
  184POPC  C21721163   5.317   0.865   5.428  0.4655 -0.7969 -0.6705
  184POPC  H17R21164   5.222   0.808   5.439 -0.1259  0.2839 -0.0213
  184POPC  H17S21165   5.399   0.800   5.391  1.0937  0.4453 -1.5564
  184POPC  C21821166   5.301   0.974   5.321 -0.0928 -0.4835 -0.1573
  184POPC  H18R21167   5.257   0.929   5.229  0.4630  0.2349 -0.7927
  184POPC  H18S21168   5.397   1.023   5.295 -1.4938  2.7502  0.1809
  184POPC  H18T21169   5.228   1.051   5.355  0.7488  0.3863 -0.2987
  184POPC   C3321170   4.776   1.006   6.487  0.0505  0.3608 -0.3612
  184POPC   H3X21171   4.824   0.912   6.522 -1.0832  0.4706  1.6137
  184POPC   H3Y21172   4.867   1.071   6.483  1.4409 -1.5312 -0.7237
  184POPC   C3421173   4.707   0.990   6.361  0.3443  0.6547  1.0897
  184POPC   H4X21174   4.671   1.088   6.323 -1.3818  0.0183  1.0197
  184POPC   H4Y21175   4.617   0.926   6.374  0.0235 -0.1250 -3.2036
  184POPC   C3521176   4.799   0.924   6.255  0.2872  0.1019  0.1018
  184POPC   H5X21177   4.838   0.829   6.296  1.1173  0.1529 -0.5385
  184POPC   H5Y21178   4.883   0.995   6.241 -0.9394  1.5552 -0.0807
  184POPC   C3621179   4.741   0.885   6.124 -0.4279 -0.2344 -0.2045
  184POPC   H6X21180   4.640   0.843   6.142  0.0761 -0.7305  1.8007
  184POPC   H6Y21181   4.794   0.802   6.073  1.4383  0.0453  1.1438
  184POPC   C3721182   4.724   1.002   6.033 -0.2248 -0.4086  0.5831
  184POPC   H7X21183   4.822   1.046   6.001 -0.8487  0.2070 -0.5468
  184POPC   H7Y21184   4.653   1.078   6.072 -1.0353 -1.3690  0.9957
  184POPC   C3821185   4.671   0.950   5.898  0.5776 -0.2063  0.1453
  184POPC   H8X21186   4.569   0.910   5.916 -0.1974  2.0773  1.0730
  184POPC   H8Y21187   4.745   0.883   5.849 -1.4546 -1.9591 -0.6941
  184POPC   C3921188   4.643   1.063   5.796 -0.8959 -0.2060 -0.0061
  184POPC   H9X21189   4.741   1.097   5.756 -0.3178 -1.9116 -0.1250
  184POPC   H9Y21190   4.598   1.153   5.842  0.1513  0.6895 -0.6788
  184POPC  C31021191   4.562   1.011   5.681 -0.1095 -0.6717  0.4124
  184POPC  H10X21192   4.469   0.961   5.715 -0.7996 -0.2785 -0.8271
  184POPC  H10Y21193   4.621   0.933   5.628 -0.0445  0.7907 -1.8336
  184POPC  C31121194   4.530   1.110   5.569  0.9341  0.2058  0.3816
  184POPC  H11X21195   4.622   1.164   5.539  2.6256 -3.2371 -1.2502
  184POPC  H11Y21196   4.445   1.173   5.603 -1.8163 -1.5850 -2.5727
  184POPC  C31221197   4.473   1.035   5.445 -0.4136  0.1867 -0.0397
  184POPC  H12X21198   4.539   0.946   5.432 -1.7890 -0.5207 -2.8203
  184POPC  H12Y21199   4.483   1.082   5.345 -0.4821  0.2439 -0.0195
  184POPC  C31321200   4.328   0.992   5.454  0.5616  0.1767 -0.1384
  184POPC  H13X21201   4.256   1.074   5.436 -0.7170 -1.0200 -0.7008
  184POPC  H13Y21202   4.307   0.955   5.557  1.2606  0.1792  0.0048
  184POPC  C31421203   4.313   0.882   5.349 -0.1666 -0.1805  0.2529
  184POPC  H14X21204   4.371   0.792   5.376  0.6513 -1.0465 -3.7723
  184POPC  H14Y21205   4.363   0.920   5.258 -1.4444 -3.0941 -1.8065
  184POPC  C31521206   4.162   0.851   5.334 -0.1407 -0.4551 -0.1324
  184POPC  H15X21207   4.131   0.951   5.297  0.2708 -0.7645 -1.3683
  184POPC  H15Y21208   4.105   0.829   5.427 -1.1585  0.7881 -0.4279
  184POPC  C31621209   4.113   0.752   5.229 -0.5512  0.1948  0.3261
  184POPC  H16X21210   4.142   0.648   5.257 -1.6872 -0.3302 -0.3677
  184POPC  H16Y21211   4.170   0.780   5.138  0.0535  0.7461  0.8631
  184POPC  H16Z21212   4.003   0.757   5.212 -0.3591 -1.2878 -1.6791
  185POPC     N21213   3.477   4.143   2.467  0.8478  0.5763  0.4901
  185POPC   C1221214   3.592   4.161   2.370 -0.1470 -0.8981  0.4784
  185POPC  H12A21215   3.617   4.071   2.316 -0.4254 -1.4133  1.2001
  185POPC  H12B21216   3.677   4.175   2.434  2.0699 -0.6628 -2.2969
  185POPC   C1321217   3.465   4.258   2.559  0.9667  0.1110  0.2953
  185POPC  H13A21218   3.553   4.271   2.621  2.0667  0.7160 -1.3299
  185POPC  H13B21219   3.453   4.351   2.506 -0.1414 -0.3902 -0.3680
  185POPC  H13C21220   3.380   4.249   2.625 -0.4318  1.6690 -1.1899
  185POPC   C1421221   3.346   4.120   2.390  0.5039 -0.0500 -0.0786
  185POPC  H14A21222   3.335   4.192   2.310 -0.2823  0.9516  0.8958
  185POPC  H14B21223   3.345   4.024   2.340  0.4307 -0.9053  1.5157
  185POPC  H14C21224   3.263   4.119   2.460  2.1970 -0.6060  1.9979
  185POPC   C1521225   3.502   4.016   2.547 -0.1480 -1.0817  0.3654
  185POPC  H15A21226   3.508   3.933   2.479 -0.8028  0.2145 -1.3360
  185POPC  H15B21227   3.425   3.989   2.618 -0.8237  3.5103  1.7238
  185POPC  H15C21228   3.587   4.027   2.613 -0.0833 -0.7464  0.2278
  185POPC   C1121229   3.586   4.282   2.267 -0.0289  1.0156  0.3441
  185POPC  H11A21230   3.493   4.269   2.209 -1.8134  2.0823  2.7977
  185POPC  H11B21231   3.673   4.277   2.198 -0.1322  1.4970  0.1780
  185POPC     P21232   3.725   4.464   2.391  0.0112  0.1349  0.1212
  185POPC   O1321233   3.699   4.606   2.423  0.6716 -0.0509  0.4576
  185POPC   O1421234   3.826   4.431   2.288  0.1560  0.0296  0.2890
  185POPC   O1221235   3.581   4.405   2.332 -0.5389 -0.5226  0.4827
  185POPC   O1121236   3.737   4.371   2.515  0.3339  0.2949 -0.0536
  185POPC    C121237   3.867   4.331   2.572  0.9826  0.0018  0.0015
  185POPC    HA21238   3.952   4.383   2.525  0.6027  0.4883 -0.1596
  185POPC    HB21239   3.882   4.222   2.555 -0.9960 -0.1521 -1.1047
  185POPC    C221240   3.864   4.370   2.720 -0.6997  0.0908 -0.2376
  185POPC    HS21241   3.776   4.328   2.773  1.4824 -0.3743  3.3532
  185POPC   O2121242   3.879   4.510   2.728 -0.0539 -0.2450 -0.2353
  185POPC   C2121243   3.766   4.582   2.747  0.4365 -0.3705 -0.0670
  185POPC   O2221244   3.655   4.540   2.775 -0.2730 -0.3067 -0.2286
  185POPC   C2221245   3.808   4.732   2.739 -0.8509  0.2282  0.5001
  185POPC   H2R21246   3.725   4.794   2.781  1.4835  2.0821  2.7275
  185POPC   H2S21247   3.841   4.753   2.635  1.2867  1.3409  1.3458
  185POPC    C321248   3.985   4.304   2.785 -0.3381 -0.5826 -0.6539
  185POPC    HX21249   4.077   4.344   2.736  0.2740 -2.6355 -1.2637
  185POPC    HY21250   3.977   4.195   2.769  1.0698 -0.6624 -0.9458
  185POPC   O3121251   3.988   4.335   2.924  0.1933  0.6296 -0.0284
  185POPC   C3121252   4.081   4.270   2.998 -0.4335 -0.3065 -0.0938
  185POPC   O3221253   4.170   4.200   2.958 -0.1321 -0.5930 -0.3083
  185POPC   C3221254   4.076   4.339   3.135  0.2731  0.1269  0.6600
  185POPC   H2X21255   4.010   4.428   3.126  1.4567  1.0064  0.4004
  185POPC   H2Y21256   4.179   4.369   3.164  0.7102 -0.2772 -0.4287
  185POPC   C2321257   3.946   4.760   2.815 -0.6534 -0.3088  0.0495
  185POPC   H3R21258   3.980   4.864   2.796  3.0736 -1.1451  1.3307
  185POPC   H3S21259   4.026   4.686   2.789 -0.0715  0.2852  0.1256
  185POPC   C2421260   3.932   4.744   2.965 -0.5514 -0.1931  0.0210
  185POPC   H4R21261   3.892   4.643   2.990 -0.3473 -0.5656 -1.1286
  185POPC   H4S21262   3.852   4.806   3.011  0.2701  0.1374  1.0437
  185POPC   C2521263   4.064   4.754   3.047  0.3962  0.3594  0.6314
  185POPC   H5R21264   4.101   4.850   3.007  1.3486 -0.6159 -0.9380
  185POPC   H5S21265   4.137   4.683   3.003  0.0342  0.9624 -1.0030
  185POPC   C2621266   4.046   4.762   3.198 -0.5420  0.6244 -0.3444
  185POPC   H6R21267   4.009   4.663   3.233 -0.2782 -0.3128 -2.5854
  185POPC   H6S21268   3.965   4.836   3.215 -1.6947 -0.2731 -1.7133
  185POPC   C2721269   4.176   4.796   3.281 -0.1625  0.3957 -0.0822
  185POPC   H7R21270   4.219   4.889   3.238  0.1903 -0.5092 -1.8075
  185POPC   H7S21271   4.257   4.721   3.268 -1.6587 -1.3571  0.3510
  185POPC   C2821272   4.143   4.802   3.429  0.0305 -0.3789  0.0035
  185POPC   H8R21273   4.065   4.726   3.452  0.5442 -0.6801  0.8052
  185POPC   H8S21274   4.113   4.908   3.443 -0.1610 -0.4503  0.1372
  185POPC   C2921275   4.257   4.783   3.523 -0.7286  0.3010 -0.5022
  185POPC   H9121276   4.356   4.794   3.475 -0.8478  2.4587 -0.3427
  185POPC  C21021277   4.241   4.765   3.655  0.8350  0.4095  0.2515
  185POPC  H10121278   4.329   4.732   3.712  1.1576 -0.7749 -0.9000
  185POPC  C21121279   4.112   4.764   3.739  0.6074 -0.1451 -0.0148
  185POPC  H11R21280   4.098   4.656   3.763  1.7025 -0.1390  0.7597
  185POPC  H11S21281   4.027   4.800   3.679  0.6176 -0.7238 -0.3817
  185POPC  C21221282   4.121   4.834   3.878 -0.2089  0.6225  0.2953
  185POPC  H12R21283   4.019   4.877   3.879 -0.2813  0.5014 -0.8188
  185POPC  H12S21284   4.198   4.913   3.870 -1.4399  1.9869  1.5688
  185POPC  C21321285   4.156   4.742   3.996 -0.4454  0.3033 -0.4594
  185POPC  H13R21286   4.259   4.700   3.985 -1.3325 -1.9320 -0.6622
  185POPC  H13S21287   4.082   4.660   3.996  0.1658 -0.2711  0.5213
  185POPC  C21421288   4.151   4.798   4.146  0.6827 -0.6209 -0.1083
  185POPC  H14R21289   4.058   4.852   4.174 -0.0955 -1.5626 -0.8047
  185POPC  H14S21290   4.231   4.874   4.153 -0.6412  0.6788  1.6976
  185POPC  C21521291   4.165   4.699   4.263 -0.2886  0.6725  0.8816
  185POPC  H15R21292   4.239   4.617   4.247  0.3476  1.2263  0.9643
  185POPC  H15S21293   4.062   4.660   4.281  0.2335 -1.7037 -0.7597
  185POPC  C21621294   4.202   4.769   4.400  0.2851  0.7810 -0.2056
  185POPC  H16R21295   4.306   4.807   4.406  0.5357 -0.1409  3.1039
  185POPC  H16S21296   4.204   4.687   4.474  0.0589 -0.5078 -1.5788
  185POPC  C21721297   4.095   4.872   4.447 -0.0632 -0.4241  0.7938
  185POPC  H17R21298   3.994   4.841   4.411  0.8986  0.0153 -2.5910
  185POPC  H17S21299   4.118   4.971   4.402 -2.1358  0.6667  1.9514
  185POPC  C21821300   4.083   4.893   4.596  0.1381  0.0080  0.3466
  185POPC  H18R21301   3.991   4.954   4.605  1.2000  1.4821  1.8052
  185POPC  H18S21302   4.166   4.952   4.642  1.9273 -3.6377  2.2349
  185POPC  H18T21303   4.078   4.792   4.641 -0.9875  0.2433  0.7721
  185POPC   C3321304   4.026   4.239   3.236  0.3423  0.2421 -0.4752
  185POPC   H3X21305   4.064   4.140   3.204 -0.7986 -0.3134 -0.1206
  185POPC   H3Y21306   3.917   4.225   3.227  0.4462 -0.1806 -1.0987
  185POPC   C3421307   4.074   4.260   3.383  0.0841  0.4371  0.8946
  185POPC   H4X21308   4.184   4.276   3.379  0.5267 -2.4093 -1.9705
  185POPC   H4Y21309   4.064   4.169   3.445 -0.6851  0.1572  0.3812
  185POPC   C3521310   4.019   4.385   3.449 -0.5044  1.3019  0.1967
  185POPC   H5X21311   3.912   4.364   3.470 -0.8193  1.1232 -1.4375
  185POPC   H5Y21312   4.021   4.474   3.382 -0.8393  0.9706 -0.2627
  185POPC   C3621313   4.092   4.415   3.583  0.0834  0.2445  0.1129
  185POPC   H6X21314   4.026   4.486   3.638  0.8556  0.9447  0.1559
  185POPC   H6Y21315   4.191   4.462   3.562  0.5478 -0.3172  0.9943
  185POPC   C3721316   4.118   4.294   3.672 -0.1393 -0.4577  0.2810
  185POPC   H7X21317   4.192   4.232   3.617  0.3740  0.9591 -0.6869
  185POPC   H7Y21318   4.020   4.245   3.684 -0.5571  0.0911 -0.7773
  185POPC   C3821319   4.167   4.330   3.808  0.2043  0.6686 -0.0058
  185POPC   H8X21320   4.246   4.408   3.803  0.1152  0.8091  0.6654
  185POPC   H8Y21321   4.205   4.236   3.852 -0.3406  1.1361  1.5394
  185POPC   C3921322   4.061   4.373   3.912  0.0532  0.1746  0.8094
  185POPC   H9X21323   3.977   4.300   3.922  0.0648  0.3929  2.7881
  185POPC   H9Y21324   3.999   4.463   3.893 -2.1381 -1.2017  1.0143
  185POPC  C31021325   4.133   4.392   4.040 -0.6873  0.5580 -0.3868
  185POPC  H10X21326   4.069   4.460   4.100  1.0142  2.0873 -0.2045
  185POPC  H10Y21327   4.222   4.453   4.014 -0.2156  0.2316  0.4288
  185POPC  C31121328   4.173   4.275   4.131 -0.3068  0.4643  0.0480
  185POPC  H11X21329   4.259   4.308   4.194 -1.3116  0.7352  1.3168
  185POPC  H11Y21330   4.204   4.190   4.067 -1.6738 -1.4311  1.7822
  185POPC  C31221331   4.054   4.225   4.211  1.0209 -0.5688 -0.5905
  185POPC  H12X21332   3.996   4.158   4.144  0.9195 -0.0029 -1.0714
  185POPC  H12Y21333   3.984   4.306   4.238  0.6029 -0.7431 -1.1510
  185POPC  C31321334   4.096   4.152   4.341 -0.1982  0.9322 -0.0725
  185POPC  H13X21335   4.155   4.225   4.400 -0.3516  0.7248  0.3441
  185POPC  H13Y21336   4.174   4.085   4.297  1.2954  1.5831  1.4884
  185POPC  C31421337   3.991   4.064   4.405  0.8419  0.3239 -0.3311
  185POPC  H14X21338   3.961   3.989   4.329 -2.5083  0.9430  0.2105
  185POPC  H14Y21339   3.895   4.115   4.429 -0.9419 -2.2928 -1.4134
  185POPC  C31521340   4.040   3.995   4.535  0.2039 -0.5350 -0.2816
  185POPC  H15X21341   4.059   4.073   4.611 -0.0354  1.0095 -1.7365
  185POPC  H15Y21342   4.136   3.944   4.512  0.1505 -0.8611  0.1976
  185POPC  C31621343   3.934   3.893   4.593 -0.0745  0.0380  0.6233
  185POPC  H16X21344   3.907   3.825   4.509 -0.4299 -1.8761  2.2218
  185POPC  H16Y21345   3.845   3.941   4.639 -0.2838 -0.5444  0.8433
  185POPC  H16Z21346   3.979   3.833   4.675 -2.8399 -1.4624  1.1994
  186POPC     N21347   0.624   6.593   2.027 -0.2838 -0.3886 -0.2085
  186POPC   C1221348   0.670   6.637   2.173  0.2487  0.0733  0.1036
  186POPC  H12A21349   0.770   6.676   2.172  1.2523 -2.2897 -2.6506
  186POPC  H12B21350   0.675   6.551   2.239 -1.6250 -0.7702 -0.7811
  186POPC   C1321351   0.730   6.517   1.962 -0.5709 -0.0690  0.2644
  186POPC  H13A21352   0.824   6.570   1.973 -0.0155 -1.2747  1.7370
  186POPC  H13B21353   0.738   6.417   2.003  1.8192 -0.8675 -1.8596
  186POPC  H13C21354   0.709   6.496   1.859  2.6575 -2.2389 -0.1145
  186POPC   C1421355   0.500   6.506   2.035  0.1849 -0.3238  0.1180
  186POPC  H14A21356   0.514   6.408   2.078  0.0855 -1.0997 -1.5475
  186POPC  H14B21357   0.447   6.566   2.108  2.6400  1.7166  0.3530
  186POPC  H14C21358   0.443   6.498   1.943  0.5749 -1.0821 -0.0626
  186POPC   C1521359   0.591   6.719   1.957 -0.7201 -0.3689 -0.3943
  186POPC  H15A21360   0.679   6.778   1.935 -0.5749 -0.6941 -0.6982
  186POPC  H15B21361   0.526   6.788   2.009 -1.4807 -0.5783 -1.0399
  186POPC  H15C21362   0.547   6.696   1.861 -0.5060  2.3231 -1.2406
  186POPC   C1121363   0.577   6.736   2.251 -0.3631  0.0508 -0.0923
  186POPC  H11A21364   0.572   6.833   2.197  0.3960 -0.0661 -0.3949
  186POPC  H11B21365   0.620   6.765   2.350 -0.3284  1.2718 -0.4544
  186POPC     P21366   0.410   6.568   2.376  0.5675 -0.2446 -0.0357
  186POPC   O1321367   0.524   6.481   2.411  0.0936  0.7319 -0.2017
  186POPC   O1421368   0.282   6.506   2.332 -0.3791  0.3847 -0.2874
  186POPC   O1221369   0.455   6.679   2.265 -0.1648 -0.2094  0.2581
  186POPC   O1121370   0.387   6.645   2.506  0.3399 -0.3378  0.0524
  186POPC    C121371   0.318   6.772   2.509  0.4996 -0.0032  0.0427
  186POPC    HA21372   0.257   6.795   2.419  1.8337  2.0067 -0.3999
  186POPC    HB21373   0.401   6.845   2.517  1.9947 -1.7332  0.9665
  186POPC    C221374   0.225   6.795   2.641 -0.5335 -0.0628  0.1451
  186POPC    HS21375   0.181   6.897   2.645 -1.9484 -0.6882  1.5277
  186POPC   O2121376   0.297   6.768   2.761 -0.0365 -0.1858 -0.3653
  186POPC   C2121377   0.379   6.871   2.795 -0.1377  0.2372 -0.2228
  186POPC   O2221378   0.388   6.979   2.740 -0.0875  0.0403  0.1493
  186POPC   C2221379   0.441   6.841   2.929  0.1650 -0.4151  0.3087
  186POPC   H2R21380   0.409   6.921   2.999 -0.9878 -1.3916  0.9415
  186POPC   H2S21381   0.551   6.850   2.922  0.0360  0.2870 -1.0651
  186POPC    C321382   0.102   6.695   2.633 -0.1777  0.3458 -0.5747
  186POPC    HX21383   0.143   6.592   2.622 -1.3612 -0.2580  0.4883
  186POPC    HY21384   0.053   6.708   2.534  0.3732  0.3896 -0.8479
  186POPC   O3121385   0.011   6.704   2.743 -0.6080 -0.3599  0.3563
  186POPC   C3121386   0.033   6.615   2.837 -0.2043  0.5299 -0.6732
  186POPC   O3221387   0.082   6.505   2.825 -0.0949  0.7886 -0.0883
  186POPC   C3221388  -0.005   6.675   2.979  0.0098  0.7985  0.0047
  186POPC   H2X21389   0.059   6.632   3.059  0.6536  0.5911 -0.6046
  186POPC   H2Y21390  -0.107   6.640   3.004  0.4277 -0.0511  0.5676
  186POPC   C2321391   0.425   6.696   2.974 -0.2812  0.6121  0.0491
  186POPC   H3R21392   0.488   6.629   2.912  1.7100  2.1081  0.3788
  186POPC   H3S21393   0.320   6.660   2.964  0.5497 -1.7816 -0.5442
  186POPC   C2421394   0.467   6.678   3.123 -0.2321  0.8678  0.4428
  186POPC   H4R21395   0.574   6.708   3.126  0.1907 -0.6915  1.5845
  186POPC   H4S21396   0.469   6.568   3.133  0.1073  0.8722  0.4325
  186POPC   C2521397   0.378   6.756   3.227 -1.1120 -0.4034  0.1854
  186POPC   H5R21398   0.280   6.703   3.220 -1.7763  0.4797  2.0703
  186POPC   H5S21399   0.365   6.865   3.210 -0.7942 -0.9640 -5.4182
  186POPC   C2621400   0.428   6.737   3.372  0.3174 -0.6864  0.1192
  186POPC   H6R21401   0.372   6.818   3.425 -1.6809 -1.6606 -0.4118
  186POPC   H6S21402   0.537   6.757   3.378 -0.0638  1.5692  0.3744
  186POPC   C2721403   0.409   6.600   3.435 -0.5267 -0.4527 -0.4612
  186POPC   H7R21404   0.470   6.541   3.363  2.0851  1.6554 -0.1326
  186POPC   H7S21405   0.302   6.572   3.434 -0.5309 -0.4774  0.4338
  186POPC   C2821406   0.462   6.587   3.581  0.5030  0.4512  0.1260
  186POPC   H8R21407   0.573   6.594   3.584  0.6995  0.1756 -3.3090
  186POPC   H8S21408   0.440   6.482   3.611  0.3942  0.2321 -0.6995
  186POPC   C2921409   0.409   6.693   3.691  0.2938  0.5038  0.6215
  186POPC   H9121410   0.433   6.798   3.669 -0.5869  0.2959 -1.5855
  186POPC  C21021411   0.345   6.668   3.807  0.2149 -0.1337 -0.0634
  186POPC  H10121412   0.306   6.750   3.869 -2.1848 -1.3534  0.1911
  186POPC  C21121413   0.309   6.531   3.858  0.3657 -0.1872 -0.5087
  186POPC  H11R21414   0.332   6.447   3.789 -1.4369 -0.6282 -0.6372
  186POPC  H11S21415   0.199   6.535   3.877  0.2181 -1.0365 -1.1389
  186POPC  C21221416   0.369   6.498   4.001  0.0502  0.5014  0.9508
  186POPC  H12R21417   0.479   6.509   4.011  0.2795 -2.0362  1.8983
  186POPC  H12S21418   0.361   6.389   4.020 -0.1764  0.6598  1.8391
  186POPC  C21321419   0.305   6.580   4.118  0.4860 -0.6605  0.0164
  186POPC  H13R21420   0.198   6.556   4.138 -0.2978  1.0529 -1.8490
  186POPC  H13S21421   0.317   6.688   4.098  0.3199 -0.8590 -1.2290
  186POPC  C21421422   0.385   6.551   4.239 -0.1220 -0.7377  0.3290
  186POPC  H14R21423   0.471   6.621   4.238  0.2374 -1.1811 -0.2683
  186POPC  H14S21424   0.429   6.448   4.233  2.4068  0.3470 -1.7463
  186POPC  C21521425   0.304   6.575   4.367 -0.1685 -0.7876  0.0114
  186POPC  H15R21426   0.212   6.513   4.369  0.6413 -2.1481 -1.9149
  186POPC  H15S21427   0.283   6.684   4.365 -0.9773 -0.9475 -1.2639
  186POPC  C21621428   0.386   6.553   4.498 -0.2644 -0.2990  0.0443
  186POPC  H16R21429   0.337   6.614   4.577 -2.8998  2.9684 -3.7639
  186POPC  H16S21430   0.489   6.591   4.484 -0.7070  0.7352 -0.5565
  186POPC  C21721431   0.404   6.404   4.532 -0.1024 -0.4570 -0.3817
  186POPC  H17R21432   0.458   6.363   4.444  2.3441  0.5982  0.5274
  186POPC  H17S21433   0.307   6.350   4.543  1.1339 -2.7326 -0.1731
  186POPC  C21821434   0.485   6.373   4.655  0.2808 -0.4020  0.0178
  186POPC  H18R21435   0.477   6.433   4.748  2.3306  1.0388 -0.6699
  186POPC  H18S21436   0.469   6.266   4.683 -4.4214  0.5314  1.8823
  186POPC  H18T21437   0.594   6.381   4.641  0.2078  0.2274 -0.1912
  186POPC   C3321438  -0.009   6.836   2.988  0.2596 -0.3225  0.7149
  186POPC   H3X21439  -0.071   6.882   2.908  1.5328 -0.9101 -0.6390
  186POPC   H3Y21440   0.091   6.876   2.960  2.1423 -4.2107  1.2301
  186POPC   C3421441  -0.051   6.903   3.126 -0.6764  0.5258  0.5795
  186POPC   H4X21442  -0.157   6.876   3.146 -0.4641 -0.7433  0.0919
  186POPC   H4Y21443  -0.040   7.012   3.106  2.0695  0.1787 -0.2098
  186POPC   C3521444   0.044   6.868   3.238  0.2259  0.1237 -0.8505
  186POPC   H5X21445   0.138   6.911   3.200  1.2632 -1.4169 -0.1249
  186POPC   H5Y21446   0.071   6.761   3.253  2.2343  0.7201  0.0683
  186POPC   C3621447  -0.022   6.915   3.366  0.2919 -0.3718 -0.1215
  186POPC   H6X21448  -0.112   6.851   3.379  0.6437 -0.5357  1.6544
  186POPC   H6Y21449  -0.059   7.020   3.356  1.0828 -0.0400  0.3551
  186POPC   C3721450   0.074   6.897   3.482 -0.8936 -0.4390  0.5013
  186POPC   H7X21451   0.159   6.963   3.456 -1.8499  0.2532 -1.0261
  186POPC   H7Y21452   0.115   6.794   3.476  1.6338  0.4274  1.8022
  186POPC   C3821453   0.009   6.936   3.619  0.0994  0.2018  0.5079
  186POPC   H8X21454  -0.102   6.939   3.606  0.0006 -0.6245  1.0896
  186POPC   H8Y21455   0.041   7.040   3.642  1.1886  0.3258 -1.3100
  186POPC   C3921456   0.045   6.842   3.734  0.5452 -1.0295 -0.3788
  186POPC   H9X21457   0.154   6.827   3.744  0.1879 -2.9024  1.3927
  186POPC   H9Y21458  -0.014   6.748   3.730 -0.7821 -0.2770  0.5496
  186POPC  C31021459   0.006   6.917   3.870 -0.0115  0.8029 -0.8232
  186POPC  H10X21460  -0.100   6.949   3.858 -0.8152 -1.7883 -1.2876
  186POPC  H10Y21461   0.057   7.015   3.881 -1.0048  1.3928 -1.2818
  186POPC  C31121462   0.020   6.809   3.984 -0.0245 -0.1162 -1.0354
  186POPC  H11X21463   0.125   6.782   4.007 -0.0416  1.0702  0.5784
  186POPC  H11Y21464  -0.022   6.713   3.948 -2.0229 -0.5948  2.1950
  186POPC  C31221465  -0.039   6.853   4.125  0.3087  0.8730 -0.2791
  186POPC  H12X21466  -0.149   6.869   4.130  0.6852  4.3335 -0.5794
  186POPC  H12Y21467   0.002   6.952   4.156  1.1055 -0.4437  3.3364
  186POPC  C31321468   0.005   6.760   4.242 -0.1701 -0.0367  0.7761
  186POPC  H13X21469   0.116   6.765   4.254  0.0498 -0.2886 -0.9102
  186POPC  H13Y21470  -0.030   6.659   4.211 -0.4217  0.9528 -2.5228
  186POPC  C31421471  -0.066   6.809   4.370  0.9674 -0.1696  0.1991
  186POPC  H14X21472  -0.172   6.826   4.345  0.9626 -1.4384 -0.7270
  186POPC  H14Y21473  -0.017   6.908   4.386 -1.5733  0.9203  1.9370
  186POPC  C31521474  -0.036   6.723   4.490 -0.3562  0.1559  0.2452
  186POPC  H15X21475  -0.084   6.773   4.576  1.2223  0.9780  0.6825
  186POPC  H15Y21476   0.072   6.715   4.514 -0.0552  0.4789 -0.9511
  186POPC  C31621477  -0.075   6.571   4.483 -0.1428 -0.1573  0.1241
  186POPC  H16X21478  -0.181   6.547   4.457 -0.0503 -1.9742  1.2748
  186POPC  H16Y21479  -0.044   6.522   4.577  3.0976 -0.3063 -0.9081
  186POPC  H16Z21480  -0.017   6.520   4.404 -0.3447 -0.1152 -0.0553
  187POPC     N21481   4.082   3.562   2.354  0.1050  0.4300 -0.2591
  187POPC   C1221482   4.129   3.581   2.501  0.0817  0.2999  0.0798
  187POPC  H12A21483   4.232   3.549   2.503 -0.0161 -0.3713 -2.3376
  187POPC  H12B21484   4.068   3.510   2.556  3.4392 -2.3521  0.7318
  187POPC   C1321485   4.185   3.619   2.257  0.0568  1.0757  0.3931
  187POPC  H13A21486   4.236   3.703   2.303  0.4867  1.2117 -0.3155
  187POPC  H13B21487   4.267   3.550   2.243  1.7593  3.2829 -1.3859
  187POPC  H13C21488   4.144   3.635   2.158  1.0387 -1.2347 -0.4606
  187POPC   C1421489   4.048   3.425   2.313  0.3516 -0.4939  0.4760
  187POPC  H14A21490   3.987   3.366   2.380  0.4848 -1.6676 -0.4071
  187POPC  H14B21491   4.011   3.413   2.212 -0.7202 -3.0379  1.0975
  187POPC  H14C21492   4.140   3.370   2.307 -1.1647 -3.0397 -0.8803
  187POPC   C1521493   3.954   3.653   2.332 -0.2674  0.3587 -0.1383
  187POPC  H15A21494   3.874   3.631   2.401  0.5098 -1.8068  0.1578
  187POPC  H15B21495   3.927   3.645   2.227  3.2474  0.7777 -1.2046
  187POPC  H15C21496   3.988   3.753   2.355  0.4783  0.2956 -0.8825
  187POPC   C1121497   4.132   3.721   2.565  0.0244  0.1276  0.0502
  187POPC  H11A21498   4.210   3.787   2.521 -1.0005  0.0354 -2.0158
  187POPC  H11B21499   4.156   3.698   2.671 -0.5117  0.9065  0.3548
  187POPC     P21500   3.977   3.934   2.595 -0.2417 -0.0320 -0.2246
  187POPC   O1321501   3.835   3.962   2.570  0.0776 -0.1973  0.2458
  187POPC   O1421502   4.083   4.010   2.519  0.1327 -0.6011  0.1663
  187POPC   O1221503   4.005   3.781   2.569  0.4360  0.8526 -0.2088
  187POPC   O1121504   4.000   3.960   2.747 -0.1760 -0.3393 -0.1417
  187POPC    C121505   3.946   3.871   2.847  0.3088 -0.0717  0.3838
  187POPC    HA21506   4.000   3.887   2.942 -2.2048 -1.3941  2.1459
  187POPC    HB21507   3.978   3.767   2.823  1.7602  0.3914  0.2187
  187POPC    C221508   3.807   3.914   2.886 -0.7918  0.6290 -0.3140
  187POPC    HS21509   3.755   3.916   2.787  2.2230  0.8653 -2.0006
  187POPC   O2121510   3.790   4.043   2.949 -0.6622 -0.2780 -0.6368
  187POPC   C2121511   3.667   4.092   2.953 -0.6707 -0.3055 -0.3221
  187POPC   O2221512   3.576   4.040   2.896  0.9250 -0.0290 -0.3412
  187POPC   C2221513   3.661   4.218   3.037 -0.0261  0.7285  0.0443
  187POPC   H2R21514   3.665   4.305   2.969 -1.2919  1.4081  0.8064
  187POPC   H2S21515   3.744   4.226   3.110 -0.0087 -3.1868  0.6644
  187POPC    C321516   3.735   3.803   2.972 -0.2134  0.2583  0.6932
  187POPC    HX21517   3.760   3.705   2.924 -0.3788  0.9638 -0.8871
  187POPC    HY21518   3.625   3.813   2.967 -0.0292  1.8859 -1.8570
  187POPC   O3121519   3.766   3.807   3.115 -0.5326 -0.5616 -0.6288
  187POPC   C3121520   3.864   3.717   3.151  0.6878 -0.4950 -0.2009
  187POPC   O3221521   3.913   3.632   3.079  0.2650  0.1591  0.3592
  187POPC   C3221522   3.893   3.748   3.301  0.6165  0.9065 -0.2382
  187POPC   H2X21523   3.796   3.781   3.345  0.4018 -0.3990  0.3132
  187POPC   H2Y21524   3.958   3.837   3.312  0.6177  0.9667 -0.6871
  187POPC   C2321525   3.525   4.220   3.108  0.2609  0.1193 -0.0455
  187POPC   H3R21526   3.441   4.211   3.035  1.3175 -0.3128 -1.2550
  187POPC   H3S21527   3.524   4.323   3.150  0.1594 -0.3352  1.0890
  187POPC   C2421528   3.511   4.119   3.220  0.4895 -0.2619 -0.5100
  187POPC   H4R21529   3.520   4.018   3.173  2.5807 -0.5644  0.4277
  187POPC   H4S21530   3.409   4.123   3.265  0.9098 -0.8831  0.5243
  187POPC   C2521531   3.615   4.134   3.331 -1.0802 -0.1677  0.2481
  187POPC   H5R21532   3.613   4.236   3.375 -0.3979 -1.6630  4.1414
  187POPC   H5S21533   3.713   4.125   3.278 -0.9806  1.9845 -0.0345
  187POPC   C2621534   3.616   4.028   3.435 -0.4002  0.1308  0.7377
  187POPC   H6R21535   3.628   3.927   3.391 -0.7930 -1.1074  3.2580
  187POPC   H6S21536   3.515   4.028   3.482 -0.4127  0.2872  0.7116
  187POPC   C2721537   3.723   4.060   3.544 -0.3365 -0.7345 -0.4637
  187POPC   H7R21538   3.753   4.167   3.545 -2.8397  0.0294 -0.8714
  187POPC   H7S21539   3.822   4.012   3.534  1.1732  2.3014 -1.4904
  187POPC   C2821540   3.680   4.028   3.683  0.3710  0.1303 -0.1856
  187POPC   H8R21541   3.765   4.052   3.750 -0.1372  0.4810  0.3419
  187POPC   H8S21542   3.662   3.920   3.702  0.5649  0.4158  1.8136
  187POPC   C2921543   3.559   4.098   3.736  0.3202  0.0438 -0.6023
  187POPC   H9121544   3.471   4.035   3.716  0.7282 -0.9634  0.6176
  187POPC  C21021545   3.554   4.212   3.814  0.0924  0.5494  0.9702
  187POPC  H10121546   3.454   4.241   3.852 -1.2391 -0.8911 -1.2306
  187POPC  C21121547   3.669   4.297   3.863 -0.5738  0.1703 -1.1699
  187POPC  H11R21548   3.637   4.403   3.869  0.6710  0.4812  0.4790
  187POPC  H11S21549   3.761   4.296   3.800  0.5733 -0.4563  0.4454
  187POPC  C21221550   3.717   4.254   4.005  0.7723  0.2233 -0.2844
  187POPC  H12R21551   3.784   4.336   4.039 -1.5451  2.4041 -0.7051
  187POPC  H12S21552   3.777   4.162   3.988 -1.2252 -1.6333  2.0107
  187POPC  C21321553   3.605   4.238   4.111 -0.4069  0.0687  0.0709
  187POPC  H13R21554   3.544   4.151   4.077  0.8441 -0.0510 -2.0525
  187POPC  H13S21555   3.554   4.334   4.135 -1.3718 -0.8076  1.7624
  187POPC  C21421556   3.672   4.190   4.239  0.3630 -0.0128  0.0107
  187POPC  H14R21557   3.720   4.274   4.292 -0.6155 -0.0292  0.9482
  187POPC  H14S21558   3.739   4.103   4.222 -0.8448 -1.3757  1.8915
  187POPC  C21521559   3.575   4.129   4.349 -0.1014  0.1268  0.2061
  187POPC  H15R21560   3.641   4.110   4.436 -1.0760  0.1545  0.9662
  187POPC  H15S21561   3.535   4.033   4.308  0.7847  0.4160 -1.4081
  187POPC  C21621562   3.468   4.230   4.385 -0.8950  0.7184 -0.4673
  187POPC  H16R21563   3.417   4.267   4.294 -0.1520 -0.4832 -1.3973
  187POPC  H16S21564   3.527   4.308   4.437  0.4476 -1.2339  1.1263
  187POPC  C21721565   3.366   4.166   4.475  0.5833 -0.2593 -0.4513
  187POPC  H17R21566   3.404   4.145   4.577  0.3796 -0.8150 -0.4841
  187POPC  H17S21567   3.340   4.065   4.437  0.2787  0.0366 -1.0482
  187POPC  C21821568   3.240   4.250   4.475 -0.7106 -0.5310 -0.3935
  187POPC  H18R21569   3.169   4.204   4.548 -1.1043  0.8685  0.1401
  187POPC  H18S21570   3.202   4.257   4.370 -0.6932 -0.2569 -0.3811
  187POPC  H18T21571   3.258   4.353   4.512 -1.9403 -0.4520  0.0468
  187POPC   C3321572   3.938   3.633   3.399 -0.0294 -0.6878 -0.6231
  187POPC   H3X21573   4.049   3.633   3.391  0.2660  1.6121  2.0746
  187POPC   H3Y21574   3.893   3.535   3.373 -2.7811  0.2730  0.1192
  187POPC   C3421575   3.908   3.673   3.546 -0.5529  0.0210  1.3080
  187POPC   H4X21576   3.797   3.672   3.551 -0.8437  1.0668 -2.0924
  187POPC   H4Y21577   3.953   3.773   3.565 -0.9000  0.6658 -0.9417
  187POPC   C3521578   3.962   3.569   3.644 -0.7284  0.0719 -0.1823
  187POPC   H5X21579   3.940   3.619   3.740  0.6488 -0.6408  0.5307
  187POPC   H5Y21580   4.072   3.557   3.637 -0.6219 -3.3503  3.5496
  187POPC   C3621581   3.904   3.429   3.627 -0.3226  0.4441 -0.4595
  187POPC   H6X21582   3.912   3.397   3.521 -1.5026 -0.2032 -0.3743
  187POPC   H6Y21583   3.795   3.445   3.642 -0.0788  0.9292  0.9539
  187POPC   C3721584   3.961   3.319   3.734 -0.2185  0.2448  0.7988
  187POPC   H7X21585   4.071   3.301   3.733 -0.2106  0.3218 -0.3801
  187POPC   H7Y21586   3.918   3.223   3.701  1.1762  1.3126 -5.4406
  187POPC   C3821587   3.929   3.361   3.880 -0.0970  0.2652  0.2649
  187POPC   H8X21588   3.910   3.265   3.933  1.2189 -2.6730 -4.0143
  187POPC   H8Y21589   3.842   3.429   3.886 -1.8046 -1.8470  0.3709
  187POPC   C3921590   4.043   3.426   3.959 -0.1156 -0.1519  0.6695
  187POPC   H9X21591   4.080   3.525   3.925  0.1775 -0.3508  0.4041
  187POPC   H9Y21592   4.134   3.362   3.956 -0.7769 -1.0896 -1.5777
  187POPC  C31021593   4.004   3.441   4.104 -0.4871 -0.7153 -1.0802
  187POPC  H10X21594   3.988   3.340   4.147  1.6359 -0.7368 -0.2164
  187POPC  H10Y21595   3.911   3.502   4.100  0.9200  1.4996 -2.8507
  187POPC  C31121596   4.110   3.523   4.184 -0.8206  0.2973 -0.1657
  187POPC  H11X21597   4.162   3.608   4.134  1.6842 -1.2212 -0.2925
  187POPC  H11Y21598   4.193   3.452   4.201  1.4557  2.8537  0.2070
  187POPC  C31221599   4.063   3.584   4.312 -0.6302  0.0986  0.1429
  187POPC  H12X21600   3.983   3.657   4.286  0.4808  1.0848 -0.6248
  187POPC  H12Y21601   4.139   3.649   4.359 -0.4834  0.5982 -0.7595
  187POPC  C31321602   4.026   3.466   4.400  0.3999 -0.3975 -0.1902
  187POPC  H13X21603   4.113   3.416   4.450 -0.3586 -2.0238 -0.4189
  187POPC  H13Y21604   3.975   3.385   4.344  3.5737 -3.0908  0.5077
  187POPC  C31421605   3.924   3.507   4.514 -0.5049 -0.0472 -0.3323
  187POPC  H14X21606   3.967   3.590   4.576  1.1613 -1.6298  0.7417
  187POPC  H14Y21607   3.901   3.419   4.578 -0.6815  0.3847  0.2195
  187POPC  C31521608   3.789   3.562   4.449 -0.6856 -0.0482 -0.2271
  187POPC  H15X21609   3.775   3.493   4.363  4.0754 -0.3921 -0.9649
  187POPC  H15Y21610   3.795   3.671   4.430  1.3147 -0.4480 -2.2548
  187POPC  C31621611   3.679   3.551   4.553 -0.6498 -0.5481  0.0371
  187POPC  H16X21612   3.701   3.459   4.611 -0.0422 -0.3198  0.1764
  187POPC  H16Y21613   3.574   3.539   4.522 -1.5424 -0.0504  2.5776
  187POPC  H16Z21614   3.689   3.640   4.619 -0.7289  0.2567 -1.0145
  188POPC     N21615   6.334   5.295   2.533  0.4826 -0.1877  0.4301
  188POPC   C1221616   6.355   5.246   2.682 -1.1727 -0.0724  0.5616
  188POPC  H12A21617   6.380   5.332   2.743  0.4959 -0.1617  0.0579
  188POPC  H12B21618   6.436   5.175   2.690 -0.0796  1.2572  2.1102
  188POPC   C1321619   6.221   5.399   2.530 -0.5517 -0.3153 -0.1901
  188POPC  H13A21620   6.202   5.441   2.433 -0.2826 -1.1655 -0.6170
  188POPC  H13B21621   6.127   5.358   2.565 -0.3889 -0.2842  0.2869
  188POPC  H13C21622   6.249   5.480   2.596  1.0626 -0.7207 -0.3314
  188POPC   C1421623   6.457   5.368   2.474  0.3585  0.0482 -0.5324
  188POPC  H14A21624   6.462   5.466   2.519 -1.8079  1.1107 -2.4344
  188POPC  H14B21625   6.540   5.302   2.498 -0.2774  0.2273  2.6105
  188POPC  H14C21626   6.449   5.383   2.368  0.2949 -0.8195 -0.6605
  188POPC   C1521627   6.296   5.184   2.444 -0.5557  0.6286  0.2078
  188POPC  H15A21628   6.218   5.125   2.490  0.2882 -1.3870 -0.8270
  188POPC  H15B21629   6.383   5.123   2.423 -1.2943 -0.2207 -0.4425
  188POPC  H15C21630   6.273   5.212   2.342 -1.3593 -0.5690  0.0457
  188POPC   C1121631   6.239   5.175   2.748  0.0526 -0.2257 -0.3777
  188POPC  H11A21632   6.147   5.237   2.754 -0.0567 -0.4655  4.4148
  188POPC  H11B21633   6.262   5.178   2.856 -0.7396  5.1693 -0.0988
  188POPC     P21634   6.342   4.938   2.713  0.3345 -0.2957 -0.1475
  188POPC   O1321635   6.449   4.968   2.617  0.2924 -0.2466  0.2714
  188POPC   O1421636   6.281   4.805   2.707 -0.3205 -0.3618 -0.5846
  188POPC   O1221637   6.219   5.039   2.696 -0.5278 -0.1252 -0.4852
  188POPC   O1121638   6.398   4.959   2.858 -0.1755 -0.3033  0.1427
  188POPC    C121639   6.331   4.897   2.970  0.1016 -0.8543  0.4164
  188POPC    HA21640   6.222   4.899   2.949  0.3614 -2.4462 -1.3127
  188POPC    HB21641   6.353   4.959   3.059 -1.6406  0.6741 -0.1670
  188POPC    C221642   6.370   4.755   2.999  0.0915  0.9428  0.0099
  188POPC    HS21643   6.316   4.688   2.929 -1.4608  2.0911  0.0300
  188POPC   O2121644   6.339   4.722   3.139  0.0186 -0.6942 -0.1888
  188POPC   C2121645   6.212   4.708   3.150  0.5654 -0.0025 -0.3917
  188POPC   O2221646   6.126   4.721   3.067 -0.3569 -0.1623 -0.4449
  188POPC   C2221647   6.173   4.681   3.300 -0.6712  0.1873  0.0099
  188POPC   H2R21648   6.151   4.574   3.319 -1.6497  0.5652  1.1273
  188POPC   H2S21649   6.089   4.748   3.329  1.0760  2.2089  0.7030
  188POPC    C321650   6.520   4.736   2.965 -0.1314  0.4536 -0.2360
  188POPC    HX21651   6.581   4.814   3.014  1.5700 -0.7812 -0.2826
  188POPC    HY21652   6.537   4.737   2.855 -0.3153 -0.8283 -0.2926
  188POPC   O3121653   6.569   4.609   3.028  0.0281 -0.2431  0.1680
  188POPC   C3121654   6.531   4.497   2.963 -0.2562 -0.1356  0.3091
  188POPC   O3221655   6.485   4.498   2.853  0.3173 -0.0410  0.2125
  188POPC   C3221656   6.575   4.375   3.041  0.2257  0.8150 -0.6396
  188POPC   H2X21657   6.630   4.402   3.135 -0.4534 -0.8756  0.2772
  188POPC   H2Y21658   6.638   4.317   2.970  0.4253  0.2247 -0.0036
  188POPC   C2321659   6.285   4.718   3.401 -0.1197 -0.8124 -1.0385
  188POPC   H3R21660   6.313   4.826   3.391  1.6072 -1.1230  0.0915
  188POPC   H3S21661   6.365   4.645   3.377  0.0878 -0.4424 -1.5031
  188POPC   C2421662   6.229   4.710   3.548  0.4048 -0.4236 -0.2852
  188POPC   H4R21663   6.157   4.629   3.569 -1.4477  1.8023  2.7862
  188POPC   H4S21664   6.174   4.799   3.584  0.0953 -0.5768 -0.3762
  188POPC   C2521665   6.348   4.695   3.647  0.4815  0.0624  0.1203
  188POPC   H5R21666   6.428   4.771   3.631  1.9407 -1.8982 -2.8467
  188POPC   H5S21667   6.399   4.597   3.632 -1.2823 -1.1375  1.5711
  188POPC   C2621668   6.299   4.710   3.794 -0.9117 -0.1571  0.0835
  188POPC   H6R21669   6.233   4.798   3.810 -0.2653  0.0295  1.9828
  188POPC   H6S21670   6.384   4.745   3.857 -1.1398 -0.2259  0.4300
  188POPC   C2721671   6.233   4.591   3.839  0.2932 -0.2073 -0.2564
  188POPC   H7R21672   6.300   4.506   3.818 -0.7262 -1.7525  2.2822
  188POPC   H7S21673   6.133   4.581   3.791  1.2325 -2.6719 -1.8877
  188POPC   C2821674   6.204   4.590   3.992  0.2025  0.4283 -0.1301
  188POPC   H8R21675   6.116   4.522   3.992  0.7697 -0.3288 -0.0492
  188POPC   H8S21676   6.185   4.695   4.020 -1.1444  0.5212 -1.2923
  188POPC   C2921677   6.323   4.526   4.067  0.2452 -0.2918  0.1444
  188POPC   H9121678   6.384   4.459   4.004 -2.6387 -1.3212 -1.7434
  188POPC  C21021679   6.367   4.561   4.186 -0.2119  0.1682  0.0820
  188POPC  H10121680   6.470   4.539   4.216 -0.9076 -1.1101  1.6498
  188POPC  C21121681   6.290   4.644   4.282  0.2342  0.6109 -0.7252
  188POPC  H11R21682   6.228   4.578   4.346 -0.4348  1.1449 -0.8072
  188POPC  H11S21683   6.231   4.723   4.232  0.1184  0.1764 -1.2819
  188POPC  C21221684   6.385   4.727   4.377 -0.8441 -0.4292 -0.2952
  188POPC  H12R21685   6.324   4.809   4.421 -0.1762 -1.0886  1.9785
  188POPC  H12S21686   6.462   4.773   4.312 -1.5341 -0.1233 -0.9205
  188POPC  C21321687   6.470   4.640   4.468  0.5384 -0.2062 -0.3302
  188POPC  H13R21688   6.553   4.592   4.412  2.7966  2.0437  0.8627
  188POPC  H13S21689   6.409   4.564   4.520  0.9537  0.0801  0.6068
  188POPC  C21421690   6.547   4.731   4.570  0.1004  0.5523  0.2033
  188POPC  H14R21691   6.545   4.674   4.665  1.5356 -1.4030 -0.8557
  188POPC  H14S21692   6.497   4.829   4.577 -1.3780 -0.2012  0.5966
  188POPC  C21521693   6.703   4.746   4.548 -0.4470 -0.2552 -0.0491
  188POPC  H15R21694   6.718   4.820   4.466  0.2598 -1.6864 -1.2753
  188POPC  H15S21695   6.750   4.653   4.508  0.3277  1.2688 -3.0491
  188POPC  C21621696   6.775   4.773   4.685  0.2421 -0.6771 -0.5723
  188POPC  H16R21697   6.881   4.791   4.657 -0.4631  1.5833 -2.0878
  188POPC  H16S21698   6.752   4.686   4.750 -2.6314 -0.6392 -1.4024
  188POPC  C21721699   6.728   4.907   4.753  0.2193  0.6878 -0.2728
  188POPC  H17R21700   6.617   4.909   4.763  0.1225 -0.4029 -0.9365
  188POPC  H17S21701   6.755   4.991   4.684  1.9047 -1.0383 -1.8175
  188POPC  C21821702   6.794   4.915   4.897 -0.1266  0.3450 -0.5545
  188POPC  H18R21703   6.900   4.946   4.901 -0.4893  1.7255 -1.0902
  188POPC  H18S21704   6.788   4.812   4.939  0.5233  0.2421 -0.7062
  188POPC  H18T21705   6.736   4.977   4.969 -0.3119 -0.3650 -0.0764
  188POPC   C3321706   6.456   4.277   3.081  0.4403 -0.0116 -0.3744
  188POPC   H3X21707   6.490   4.171   3.087 -2.6625 -1.1076 -0.1866
  188POPC   H3Y21708   6.381   4.283   2.999  0.4977 -0.3615 -0.4570
  188POPC   C3421709   6.373   4.305   3.212  0.8628 -0.3175 -0.0814
  188POPC   H4X21710   6.283   4.240   3.211 -1.0379  2.0745 -3.1371
  188POPC   H4Y21711   6.326   4.405   3.197 -0.4448 -0.6744  1.3321
  188POPC   C3521712   6.441   4.283   3.351 -0.2039 -0.6111  1.0681
  188POPC   H5X21713   6.518   4.364   3.351 -1.1857  0.4428 -1.4621
  188POPC   H5Y21714   6.495   4.186   3.347  0.9132 -0.1292  3.1766
  188POPC   C3621715   6.361   4.287   3.477  0.0740  0.2548 -0.7398
  188POPC   H6X21716   6.281   4.210   3.471  1.2804 -1.1983  0.8548
  188POPC   H6Y21717   6.312   4.386   3.492  0.9402  0.4773  0.8555
  188POPC   C3721718   6.451   4.269   3.599 -0.1877 -0.6336 -0.4543
  188POPC   H7X21719   6.511   4.363   3.606  0.2658 -0.7332 -2.4411
  188POPC   H7Y21720   6.522   4.188   3.573 -2.0496 -2.7214  0.5762
  188POPC   C3821721   6.382   4.239   3.732 -0.8596  0.0759  1.6179
  188POPC   H8X21722   6.344   4.136   3.718 -1.2240  0.2397  1.4171
  188POPC   H8Y21723   6.291   4.301   3.744 -1.8492 -1.1099  0.4424
  188POPC   C3921724   6.478   4.218   3.851  0.2567  0.1139  0.4703
  188POPC   H9X21725   6.533   4.313   3.864  0.5436 -0.1856  1.6054
  188POPC   H9Y21726   6.555   4.148   3.812 -0.5782 -1.0401  0.8365
  188POPC  C31021727   6.413   4.186   3.989  0.0229 -0.3581 -0.5949
  188POPC  H10X21728   6.371   4.083   3.991  1.0225 -0.8532 -2.3039
  188POPC  H10Y21729   6.328   4.255   4.005  0.7744  0.2403  1.1503
  188POPC  C31121730   6.522   4.196   4.111  0.1539  0.1583 -0.3611
  188POPC  H11X21731   6.548   4.303   4.123 -2.3186  0.6914  0.8786
  188POPC  H11Y21732   6.605   4.127   4.085 -1.0187 -1.1005 -0.9263
  188POPC  C31221733   6.467   4.153   4.250 -0.5854 -0.0355 -0.8416
  188POPC  H12X21734   6.427   4.051   4.234  1.0389 -1.1089  1.3194
  188POPC  H12Y21735   6.389   4.225   4.282 -0.6803 -0.4997  0.0044
  188POPC  C31321736   6.580   4.142   4.355 -0.3765  0.2612  1.0466
  188POPC  H13X21737   6.594   4.243   4.399 -2.4862  0.9210  0.3020
  188POPC  H13Y21738   6.678   4.129   4.305 -0.8450  1.9806 -0.4228
  188POPC  C31421739   6.557   4.032   4.463  0.1592 -0.0562  0.2498
  188POPC  H14X21740   6.546   3.933   4.412  1.8431  1.3376 -3.1617
  188POPC  H14Y21741   6.457   4.060   4.500 -0.1539  1.3428 -1.5166
  188POPC  C31521742   6.672   4.024   4.559  0.8451 -0.4575 -0.7890
  188POPC  H15X21743   6.640   3.938   4.623  0.5911  0.0077 -0.2799
  188POPC  H15Y21744   6.680   4.117   4.619  0.3825 -0.8004 -0.1688
  188POPC  C31621745   6.799   3.976   4.494 -0.5937  0.1765  0.0393
  188POPC  H16X21746   6.779   3.911   4.407 -0.4775 -1.7567  1.4012
  188POPC  H16Y21747   6.867   3.927   4.567 -0.4192 -0.3090 -0.4420
  188POPC  H16Z21748   6.850   4.068   4.458 -1.7158  1.2767  1.1393
  189SAPI   C1221749   5.341   3.638   6.797  0.5079  0.5854  1.0763
  189SAPI    H221750   5.311   3.644   6.903 -5.1775  2.1429 -0.2760
  189SAPI    O221751   5.333   3.766   6.743  0.5307  0.0810  0.3920
  189SAPI   HO221752   5.255   3.772   6.687  0.1775 -2.6612  0.4450
  189SAPI   C1321753   5.486   3.588   6.784 -0.0133 -0.2708 -0.2029
  189SAPI    H321754   5.490   3.488   6.831 -1.1440 -0.8603 -1.2892
  189SAPI    O321755   5.586   3.672   6.848  0.3726  0.3167  0.0450
  189SAPI   HO321756   5.589   3.763   6.817  0.4332 -0.7769 -3.5678
  189SAPI   C1421757   5.515   3.558   6.636 -0.5597 -0.6980 -0.1983
  189SAPI    H421758   5.538   3.656   6.591  0.3098 -0.5169  0.6104
  189SAPI    O421759   5.623   3.468   6.616  0.0026 -0.3689  0.0974
  189SAPI   HO421760   5.699   3.526   6.616 -0.9731  0.9998  2.1014
  189SAPI   C1521761   5.404   3.497   6.548 -0.2606  0.4322 -0.0183
  189SAPI    H521762   5.408   3.386   6.547  0.3269  0.2620  4.1121
  189SAPI    O521763   5.413   3.543   6.410 -0.2118 -0.1099  0.1543
  189SAPI   HO521764   5.418   3.461   6.362 -0.1167 -1.5845  2.5417
  189SAPI   C1621765   5.259   3.521   6.587 -0.4606 -0.4804  0.3080
  189SAPI    H621766   5.216   3.617   6.551 -1.8875 -0.8473  0.9632
  189SAPI    O621767   5.174   3.419   6.538 -0.0969  0.3147  0.1961
  189SAPI   HO621768   5.093   3.413   6.590 -0.0043 -2.1173  0.1282
  189SAPI   C1121769   5.244   3.533   6.736  0.9323 -0.5458  0.0115
  189SAPI    H121770   5.277   3.438   6.783  0.1337 -1.4922 -1.2906
  189SAPI     P21771   4.989   3.461   6.815  0.2958  0.0980 -0.2299
  189SAPI   O1321772   4.869   3.537   6.870 -0.4782 -0.1107  0.7045
  189SAPI   O1421773   5.048   3.360   6.899 -0.0079 -0.3932 -1.1751
  189SAPI   O1221774   5.109   3.572   6.771 -0.1033  0.1843 -0.7145
  189SAPI   O1121775   4.949   3.411   6.678 -0.0829  0.1439 -0.2154
  189SAPI    C121776   4.827   3.335   6.661 -0.5822  0.1231  0.2493
  189SAPI    HA21777   4.860   3.230   6.673  1.4055  0.7476  0.5840
  189SAPI    HB21778   4.748   3.370   6.731  0.7301  2.1687  0.7804
  189SAPI    C221779   4.764   3.354   6.520  0.3379  0.3427 -0.3582
  189SAPI    HS21780   4.687   3.274   6.520  1.7546 -1.1047  1.0348
  189SAPI   O2121781   4.857   3.340   6.411  0.0138  0.6622 -0.2234
  189SAPI   C2121782   4.901   3.221   6.384 -0.9310  0.5249  0.1784
  189SAPI   O2221783   4.871   3.117   6.436 -0.3684  0.1286 -0.9067
  189SAPI   C2221784   5.009   3.241   6.273  0.2810  0.9566 -0.2202
  189SAPI   H2R21785   4.982   3.327   6.208 -0.2482  1.0530  0.1241
  189SAPI   H2S21786   5.098   3.273   6.331 -0.6370  1.3838  0.9946
  189SAPI    C321787   4.693   3.487   6.495 -0.3263 -0.3525  0.2540
  189SAPI    HX21788   4.770   3.561   6.464 -0.5856 -0.3355 -0.3593
  189SAPI    HY21789   4.652   3.524   6.592  0.9288  1.0772  0.2812
  189SAPI   O3121790   4.589   3.480   6.393 -0.1996 -0.3256  0.0409
  189SAPI   C3121791   4.531   3.600   6.380 -0.3174  0.0403  0.6139
  189SAPI   O3221792   4.564   3.699   6.439  0.1669  0.2100 -0.2898
  189SAPI   C3221793   4.407   3.584   6.297 -0.1676  0.4687  0.2134
  189SAPI   H2X21794   4.362   3.686   6.287 -0.8944  0.0954 -0.4184
  189SAPI   H2Y21795   4.340   3.518   6.356  1.6676 -0.4152  1.4108
  189SAPI   C2321796   5.042   3.116   6.186 -0.5791  0.6147  0.0961
  189SAPI   H3R21797   4.962   3.098   6.112  1.9984 -1.3010 -2.4682
  189SAPI   H3S21798   5.058   3.028   6.253  0.8930  0.6501 -0.1620
  189SAPI   C2421799   5.176   3.131   6.110 -0.4582 -0.2415  0.7030
  189SAPI   H4R21800   5.187   3.029   6.065  1.5364  1.0024 -1.9201
  189SAPI   H4S21801   5.258   3.146   6.183  2.5970  0.8177 -2.6579
  189SAPI   C2521802   5.172   3.242   6.006 -0.2059 -0.3914  0.1608
  189SAPI   H5R21803   5.220   3.338   6.031  1.3555 -0.2427 -2.9887
  189SAPI   C2621804   5.139   3.231   5.878  0.1721  0.0820 -0.2277
  189SAPI   H6R21805   5.154   3.319   5.814  3.5918 -0.0786  0.1919
  189SAPI   C2721806   5.076   3.100   5.820 -0.4641 -0.4195  0.3603
  189SAPI   H7R21807   4.994   3.062   5.885 -1.8556  2.0778  0.1830
  189SAPI   H7S21808   5.149   3.016   5.821 -2.1547 -2.0232 -1.1795
  189SAPI   C2821809   5.026   3.111   5.682 -0.4867 -0.2620 -0.1845
  189SAPI   H8R21810   4.918   3.092   5.672 -0.7628 -0.6461  2.7647
  189SAPI   C2921811   5.092   3.133   5.565 -0.0816 -0.2150 -0.2282
  189SAPI   H9R21812   5.034   3.135   5.471 -1.3378  0.2717  0.5341
  189SAPI  C21021813   5.240   3.175   5.559  0.3534 -0.1063  0.3845
  189SAPI  H10R21814   5.269   3.230   5.651  1.6057 -1.2681  0.7074
  189SAPI  H10S21815   5.253   3.253   5.481 -1.3458  0.8355  0.9878
  189SAPI  C21121816   5.332   3.054   5.548  0.0848  1.2038  0.2983
  189SAPI  H11R21817   5.337   2.993   5.639 -0.9105  0.4417 -0.1421
  189SAPI  C21221818   5.400   3.015   5.435 -0.0890 -0.9494 -0.1397
  189SAPI  H12R21819   5.463   2.925   5.435  1.7110  0.2451  0.2515
  189SAPI  C21321820   5.409   3.091   5.304  0.7477  1.9018  0.0249
  189SAPI  H13R21821   5.497   3.159   5.312  2.8960 -0.7487  0.5660
  189SAPI  H13S21822   5.318   3.153   5.292  0.1870  0.7074 -2.8859
  189SAPI  C21421823   5.438   2.977   5.202  1.0938  0.0266 -0.2646
  189SAPI  H14R21824   5.531   2.922   5.219 -0.6171 -2.9113  0.3243
  189SAPI  C21521825   5.361   2.929   5.098 -0.3750  0.1738 -0.1168
  189SAPI  H15R21826   5.401   2.849   5.034  1.0512 -0.1494  1.1266
  189SAPI  C21621827   5.228   2.988   5.051  0.1232  0.0595  0.4330
  189SAPI  H16R21828   5.234   3.099   5.047 -3.0616  0.3046 -1.1388
  189SAPI  H16S21829   5.153   2.967   5.130  1.5439  0.5362  1.9548
  189SAPI  C21721830   5.171   2.942   4.914  0.0046 -0.3842 -0.4648
  189SAPI  H17R21831   5.170   2.832   4.897 -1.9942  0.0538 -4.0319
  189SAPI  H17S21832   5.240   2.975   4.833 -0.6787 -1.5121 -1.5441
  189SAPI  C21821833   5.034   3.002   4.883 -0.0292 -0.3749 -0.3037
  189SAPI  H18R21834   5.038   3.113   4.889  1.7379 -0.3653 -1.0193
  189SAPI  H18S21835   4.966   2.970   4.965 -2.4619  0.0114 -2.0491
  189SAPI  C21921836   4.983   2.959   4.745  0.2008  0.1967  0.1089
  189SAPI  H19R21837   4.988   2.848   4.731  0.0723  0.2962 -0.8393
  189SAPI  H19S21838   5.057   2.993   4.669  2.0106  0.6157  1.9777
  189SAPI  C22021839   4.834   3.006   4.716  0.3509 -0.1897  0.7300
  189SAPI  H20R21840   4.770   2.946   4.783  0.5729 -0.4814  0.6799
  189SAPI  H20S21841   4.810   2.972   4.613  0.9412 -0.1117  0.5631
  189SAPI  H20T21842   4.809   3.114   4.732 -0.5021 -0.1874 -0.4789
  189SAPI   C3321843   4.433   3.551   6.156  0.5118  0.4661 -0.0194
  189SAPI   H3X21844   4.512   3.473   6.150 -0.6589 -0.6196 -2.6284
  189SAPI   H3Y21845   4.472   3.644   6.110 -0.2327  0.6910 -0.2074
  189SAPI   C3421846   4.305   3.503   6.076  0.5407  0.4470 -0.5174
  189SAPI   H4X21847   4.221   3.575   6.081  0.3110  0.3949 -2.6169
  189SAPI   H4Y21848   4.278   3.406   6.123  0.7086  0.6135 -0.0719
  189SAPI   C3521849   4.345   3.461   5.931  0.6974 -0.7544 -0.0049
  189SAPI   H5X21850   4.435   3.398   5.920  1.3407 -0.4379  2.6805
  189SAPI   H5Y21851   4.366   3.562   5.889 -3.6504  0.5562  0.4326
  189SAPI   C3621852   4.223   3.396   5.858 -0.1376  0.0277 -0.0511
  189SAPI   H6X21853   4.131   3.456   5.873 -1.1871 -1.6407  0.5277
  189SAPI   H6Y21854   4.212   3.288   5.884 -0.8975  0.2964  0.8004
  189SAPI   C3721855   4.249   3.398   5.708 -0.0036 -0.1835  0.1853
  189SAPI   H7X21856   4.340   3.337   5.685  0.2280  0.2476 -0.0438
  189SAPI   H7Y21857   4.265   3.504   5.682 -0.6797 -0.3908 -1.1647
  189SAPI   C3821858   4.119   3.358   5.632  0.1458  0.2728  0.8427
  189SAPI   H8X21859   4.040   3.435   5.646  0.1630  0.8121 -1.5430
  189SAPI   H8Y21860   4.092   3.255   5.665 -2.2473  0.4216 -0.4143
  189SAPI   C3921861   4.150   3.347   5.480 -0.5648  0.8766 -0.0757
  189SAPI   H9X21862   4.245   3.290   5.469 -0.1105  0.9034  3.0347
  189SAPI   H9Y21863   4.166   3.455   5.457 -0.7345  0.8436 -0.3564
  189SAPI  C31021864   4.037   3.301   5.385 -0.3593 -0.1096  0.0210
  189SAPI  H10X21865   3.955   3.370   5.413 -1.3585  1.0471 -4.8456
  189SAPI  H10Y21866   4.008   3.197   5.411  0.5618 -0.5734 -0.7470
  189SAPI  C31121867   4.072   3.326   5.234  0.8486  0.2737 -0.3848
  189SAPI  H11X21868   4.147   3.252   5.197  1.5849  0.3089  0.9799
  189SAPI  H11Y21869   4.125   3.423   5.227  0.0779  0.7615  0.4117
  189SAPI  C31221870   3.938   3.328   5.156 -0.4227 -0.2822  0.3020
  189SAPI  H12X21871   3.862   3.383   5.216 -0.6871 -2.2883  1.9269
  189SAPI  H12Y21872   3.899   3.224   5.159  0.6166 -0.6941 -0.0388
  189SAPI  C31321873   3.946   3.381   5.009 -0.0615  0.4267  0.0758
  189SAPI  H13X21874   3.845   3.370   4.965 -0.6584  0.9247  1.2701
  189SAPI  H13Y21875   4.014   3.318   4.947 -2.5484 -2.0190 -0.3435
  189SAPI  C31421876   3.968   3.531   5.017  0.1420 -0.2502  0.0015
  189SAPI  H14X21877   4.044   3.563   5.092  0.4106 -1.1427  0.1281
  189SAPI  H14Y21878   3.872   3.575   5.049 -1.4116 -2.5241 -1.2175
  189SAPI  C31521879   4.015   3.589   4.883  0.1702 -0.3335 -0.1778
  189SAPI  H15X21880   3.988   3.696   4.874 -2.7963 -0.8358  1.4783
  189SAPI  H15Y21881   3.950   3.542   4.806 -1.4053 -0.9131  1.4340
  189SAPI  C31621882   4.164   3.586   4.865 -0.7210  1.0025 -0.0823
  189SAPI  H16X21883   4.222   3.507   4.917  0.7777  1.3291 -1.1829
  189SAPI  H16Y21884   4.203   3.675   4.918 -0.7057  0.5461  0.6888
  189SAPI  C31721885   4.223   3.612   4.721 -0.0947  0.7795 -0.5070
  189SAPI  H17X21886   4.181   3.710   4.689 -0.2012  0.9862  0.2359
  189SAPI  H17Y21887   4.176   3.526   4.670 -1.3614  0.5288  1.0048
  189SAPI  C31821888   4.370   3.609   4.703 -0.1977 -0.2076 -0.5208
  189SAPI  H18X21889   4.400   3.616   4.597 -2.3228 -2.6860 -1.3851
  189SAPI  H18Y21890   4.413   3.512   4.735  2.3923  1.2276  0.6788
  189SAPI  H18Z21891   4.413   3.698   4.755 -0.7884 -0.2073 -0.0104
  190SAPI   C1221892   4.180   2.638   7.085  0.3104  0.4475 -0.1498
  190SAPI    H221893   4.108   2.646   7.169 -0.5441 -2.9691 -0.4395
  190SAPI    O221894   4.116   2.705   6.977  0.0312  0.7422 -0.1476
  190SAPI   HO221895   4.070   2.779   7.016 -0.5928  0.9099 -1.1526
  190SAPI   C1321896   4.314   2.699   7.103 -0.4096 -0.3871  0.2277
  190SAPI    H321897   4.371   2.640   7.179  2.4760 -1.0688 -2.2853
  190SAPI    O321898   4.306   2.835   7.149 -0.0913 -0.3157 -0.7989
  190SAPI   HO321899   4.266   2.888   7.080  1.6843  2.9187  0.4452
  190SAPI   C1421900   4.413   2.683   6.986  0.2601  0.1287 -0.0797
  190SAPI    H421901   4.375   2.734   6.895  2.3422 -2.0496 -2.3386
  190SAPI    O421902   4.545   2.731   7.013 -0.2009 -0.5222  0.1221
  190SAPI   HO421903   4.570   2.770   6.929  0.8131  0.5412  0.8950
  190SAPI   C1521904   4.422   2.535   6.943 -0.5580 -1.3290 -0.5843
  190SAPI    H521905   4.492   2.479   7.009  0.6333 -0.3455 -0.9714
  190SAPI    O521906   4.483   2.535   6.811  0.4425  0.1402  0.7123
  190SAPI   HO521907   4.483   2.445   6.777  1.9569  0.1301  0.6865
  190SAPI   C1621908   4.294   2.462   6.941  0.5164  0.3664 -0.1571
  190SAPI    H621909   4.244   2.483   6.844  0.2954  2.3847  0.3397
  190SAPI    O621910   4.320   2.324   6.937 -0.8074  0.4262 -0.4563
  190SAPI   HO621911   4.238   2.282   6.909  0.4361 -1.4824 -1.4454
  190SAPI   C1121912   4.190   2.490   7.054  0.3482  0.0511 -0.3890
  190SAPI    H121913   4.236   2.451   7.148  1.2021  0.7222 -0.5102
  190SAPI     P21914   4.004   2.285   7.065  0.1194  0.2085  0.0299
  190SAPI   O1321915   3.866   2.275   7.016 -0.3370 -0.1178  0.4689
  190SAPI   O1421916   4.042   2.261   7.207 -0.3028 -0.1253  0.5855
  190SAPI   O1221917   4.058   2.434   7.028  0.1933 -0.3565  0.6260
  190SAPI   O1121918   4.089   2.207   6.963  0.4151  0.5271 -0.3536
  190SAPI    C121919   4.055   2.194   6.820  0.0803 -1.1924 -1.1470
  190SAPI    HA21920   4.024   2.289   6.771  3.3833  1.1355  0.9332
  190SAPI    HB21921   4.153   2.190   6.768  0.7034  2.4130 -0.4951
  190SAPI    C221922   3.972   2.072   6.780 -0.1170  0.9947 -0.2155
  190SAPI    HS21923   3.870   2.091   6.819  0.4611  0.4923  1.6849
  190SAPI   O2121924   4.030   1.956   6.850  0.4990 -0.5213  0.0319
  190SAPI   C2121925   3.946   1.856   6.873 -0.0900  0.6924 -0.0769
  190SAPI   O2221926   3.828   1.855   6.848 -0.4234 -0.6652 -0.3054
  190SAPI   C2221927   4.027   1.736   6.937  0.3053  0.1531  0.1518
  190SAPI   H2R21928   4.136   1.755   6.923  0.0502  1.4420 -0.2770
  190SAPI   H2S21929   4.008   1.731   7.046 -0.9292 -1.3656 -0.0948
  190SAPI    C321930   3.968   2.057   6.626  0.0045 -0.2975 -0.6946
  190SAPI    HX21931   4.067   2.026   6.586 -0.8429 -3.3764 -0.7004
  190SAPI    HY21932   3.943   2.159   6.589 -0.0890 -0.8790 -2.3318
  190SAPI   O3121933   3.870   1.962   6.576  0.3637 -0.7833 -0.3159
  190SAPI   C3121934   3.839   1.991   6.450 -0.3384  0.3158 -0.2231
  190SAPI   O3221935   3.885   2.078   6.382 -0.1922  0.4359  0.5752
  190SAPI   C3221936   3.749   1.877   6.401  0.7234  0.9260 -0.4407
  190SAPI   H2X21937   3.675   1.867   6.484  1.4370  1.3608  0.2664
  190SAPI   H2Y21938   3.813   1.787   6.409 -1.5869 -0.7346  0.8802
  190SAPI   C2321939   3.984   1.601   6.881 -0.1898  0.4114 -0.2502
  190SAPI   H3R21940   3.873   1.594   6.881 -0.3000  0.9588 -3.1626
  190SAPI   H3S21941   4.006   1.523   6.957 -0.9231  1.3172  0.9347
  190SAPI   C2421942   4.043   1.564   6.745  0.2387  0.1564 -0.3457
  190SAPI   H4R21943   4.148   1.601   6.744  0.8684 -1.5201 -1.3085
  190SAPI   H4S21944   3.997   1.632   6.670 -1.7653 -1.6042 -0.8062
  190SAPI   C2521945   4.022   1.421   6.699  0.1106  0.0630 -0.0176
  190SAPI   H5R21946   4.041   1.349   6.780  2.2376  0.3095 -0.2253
  190SAPI   C2621947   3.991   1.368   6.580  0.3866 -0.3487  0.1050
  190SAPI   H6R21948   3.982   1.258   6.574  0.0814 -0.2936 -0.6677
  190SAPI   C2721949   3.963   1.449   6.458  0.4977 -0.4067 -0.3312
  190SAPI   H7R21950   4.018   1.546   6.470  3.2830 -1.2063 -4.5633
  190SAPI   H7S21951   3.855   1.467   6.478 -0.1861 -3.0137 -1.3716
  190SAPI   C2821952   3.992   1.392   6.322 -0.6272  0.1698 -0.6792
  190SAPI   H8R21953   4.073   1.318   6.330  0.8817  1.7679 -0.6392
  190SAPI   C2921954   3.937   1.420   6.206 -0.0677  0.7842  0.7258
  190SAPI   H9R21955   3.958   1.358   6.117 -1.9377  1.0986  0.0141
  190SAPI  C21021956   3.831   1.528   6.181  0.3939  0.2888 -0.1788
  190SAPI  H10R21957   3.794   1.574   6.275 -0.6114  0.6710 -0.7494
  190SAPI  H10S21958   3.752   1.484   6.116  1.5630 -0.9933 -0.7708
  190SAPI  C21121959   3.905   1.639   6.108  0.1793 -0.5236  0.8189
  190SAPI  H11R21960   3.933   1.722   6.176  0.4973  0.4696 -0.4876
  190SAPI  C21221961   3.953   1.650   5.981  0.5990 -0.1721 -0.9124
  190SAPI  H12R21962   4.005   1.743   5.954  0.4329 -0.6882 -3.2621
  190SAPI  C21321963   3.915   1.558   5.868 -0.6071  0.8715  0.2757
  190SAPI  H13R21964   3.856   1.471   5.904 -1.2235  1.2507  0.2094
  190SAPI  H13S21965   4.012   1.513   5.838 -1.7824 -1.7785  0.2022
  190SAPI  C21421966   3.845   1.629   5.762  0.5104 -0.0688  0.1055
  190SAPI  H14R21967   3.735   1.625   5.769  0.4230  0.9757 -0.4453
  190SAPI  C21521968   3.893   1.679   5.651  0.0233 -0.1239  0.8497
  190SAPI  H15R21969   3.828   1.734   5.582  0.2500  0.3331  0.9997
  190SAPI  C21621970   4.043   1.694   5.623  0.5678 -0.2425  0.6491
  190SAPI  H16R21971   4.077   1.610   5.559 -0.2570 -1.2016  1.4323
  190SAPI  H16S21972   4.103   1.692   5.717  1.5310 -0.4260  0.0453
  190SAPI  C21721973   4.066   1.819   5.534  0.7813  0.4341  0.3726
  190SAPI  H17R21974   4.014   1.899   5.591  3.5671  1.4049  1.7006
  190SAPI  H17S21975   4.019   1.814   5.434 -0.5683 -0.6134  1.0174
  190SAPI  C21821976   4.210   1.849   5.530 -0.9262 -1.0385  0.2010
  190SAPI  H18R21977   4.268   1.792   5.454  1.4970  0.9902  0.4314
  190SAPI  H18S21978   4.264   1.831   5.625  0.2746  2.7212  0.3677
  190SAPI  C21921979   4.250   1.996   5.490  0.6684  0.5879  0.8055
  190SAPI  H19R21980   4.360   1.997   5.502  0.4638 -0.5356  3.3968
  190SAPI  H19S21981   4.213   2.078   5.556 -0.8762 -0.5832  1.4597
  190SAPI  C22021982   4.224   2.047   5.343 -0.1020  0.0375  0.5185
  190SAPI  H20R21983   4.272   1.973   5.275 -0.5685 -1.5427  1.8213
  190SAPI  H20S21984   4.263   2.150   5.332 -4.3844  1.8219  0.0313
  190SAPI  H20T21985   4.114   2.054   5.324  0.4061  0.0423 -3.2100
  190SAPI   C3321986   3.671   1.909   6.273 -0.5648  0.7571  0.7002
  190SAPI   H3X21987   3.735   1.903   6.183 -1.1869 -1.4701  0.3541
  190SAPI   H3Y21988   3.643   2.017   6.276  2.2090  1.5364  0.6600
  190SAPI   C3421989   3.552   1.809   6.246  0.2621  0.0826  0.0522
  190SAPI   H4X21990   3.482   1.815   6.332  0.8904 -0.6565  0.6291
  190SAPI   H4Y21991   3.588   1.704   6.240  0.5980  0.2712 -2.7199
  190SAPI   C3521992   3.475   1.839   6.122 -0.1265  0.1641  0.3260
  190SAPI   H5X21993   3.467   1.950   6.116  1.1963  0.3423  1.4209
  190SAPI   H5Y21994   3.369   1.805   6.125  0.1057 -0.7779 -1.2846
  190SAPI   C3621995   3.547   1.801   5.996 -0.3469  0.4155  0.1166
  190SAPI   H6X21996   3.561   1.690   5.994  0.1396  0.2740  3.8665
  190SAPI   H6Y21997   3.651   1.838   6.012 -0.2055 -0.6624  1.9819
  190SAPI   C3721998   3.479   1.860   5.871  0.4605  0.0913  0.1952
  190SAPI   H7X21999   3.463   1.970   5.881 -0.9268 -0.2568  2.4452
  190SAPI   H7Y22000   3.379   1.815   5.854  0.8124 -0.2927 -0.9379
  190SAPI   C3822001   3.555   1.828   5.743  0.3448 -0.5101 -0.6100
  190SAPI   H8X22002   3.556   1.720   5.718  0.9210 -0.0498 -2.7164
  190SAPI   H8Y22003   3.658   1.868   5.751  0.6203 -1.3154 -0.0711
  190SAPI   C3922004   3.500   1.905   5.621 -0.4525  0.3826 -0.2450
  190SAPI   H9X22005   3.580   1.940   5.552  0.1370 -0.0842  0.1890
  190SAPI   H9Y22006   3.446   1.993   5.663  1.8102  1.0095  1.5606
  190SAPI  C31022007   3.394   1.827   5.550 -0.3442  0.0394  0.3442
  190SAPI  H10X22008   3.355   1.892   5.469  2.1435  2.4235  0.9110
  190SAPI  H10Y22009   3.312   1.811   5.624 -1.2409  1.3347 -0.3334
  190SAPI  C31122010   3.446   1.700   5.481  0.3707 -0.5788  0.0229
  190SAPI  H11X22011   3.354   1.658   5.435  0.1541 -2.3332  1.9066
  190SAPI  H11Y22012   3.474   1.632   5.565 -0.1017  1.8765  2.3222
  190SAPI  C31222013   3.562   1.728   5.378  0.7130 -0.1768 -0.3843
  190SAPI  H12X22014   3.644   1.771   5.440 -0.8153  2.4093  0.0012
  190SAPI  H12Y22015   3.531   1.803   5.303  0.8367  0.5775  0.2971
  190SAPI  C31322016   3.614   1.604   5.310 -0.8307 -0.3015 -0.2759
  190SAPI  H13X22017   3.530   1.546   5.267  1.1430 -4.0126  0.3952
  190SAPI  H13Y22018   3.668   1.532   5.375  1.0543  1.2974  0.0239
  190SAPI  C31422019   3.722   1.649   5.203  0.5726 -0.2485 -0.3984
  190SAPI  H14X22020   3.677   1.717   5.127  1.5787 -0.7428 -1.4566
  190SAPI  H14Y22021   3.753   1.557   5.151 -1.8943 -0.1256 -2.3194
  190SAPI  C31522022   3.854   1.706   5.259  0.3766  0.0071  0.5248
  190SAPI  H15X22023   3.882   1.651   5.351  1.1411  1.0482  0.9307
  190SAPI  H15Y22024   3.834   1.811   5.292  1.1837  0.6038 -0.8054
  190SAPI  C31622025   3.967   1.722   5.157 -0.6425 -0.1593 -0.3708
  190SAPI  H16X22026   3.977   1.622   5.110  1.4612  0.3655 -1.1505
  190SAPI  H16Y22027   4.059   1.762   5.205 -2.2320  4.0495 -0.4376
  190SAPI  C31722028   3.966   1.821   5.040  0.0858  0.4371  0.3870
  190SAPI  H17X22029   3.998   1.924   5.069  1.0568  0.5943 -1.1205
  190SAPI  H17Y22030   3.864   1.828   4.997 -0.2562  1.6865  1.3198
  190SAPI  C31822031   4.070   1.779   4.938 -0.2986 -0.5944  0.2178
  190SAPI  H18X22032   4.075   1.854   4.856 -1.3975 -0.1368  0.5488
  190SAPI  H18Y22033   4.051   1.677   4.899  0.2983 -1.6989  2.6330
  190SAPI  H18Z22034   4.170   1.785   4.986  0.3737 -1.4431 -1.0210
  191SAPI   C1222035   2.706   1.033   2.499  0.1701 -0.3935  0.1624
  191SAPI    H222036   2.730   1.121   2.563  0.7895  1.2956 -2.2648
  191SAPI    O222037   2.768   1.063   2.371 -0.6618 -0.2689 -0.3095
  191SAPI   HO222038   2.704   1.122   2.333 -2.1908  0.5472  3.1528
  191SAPI   C1322039   2.762   0.907   2.560 -0.5298  0.2398  0.1839
  191SAPI    H322040   2.705   0.897   2.655 -4.9274  0.2356 -2.1848
  191SAPI    O322041   2.900   0.924   2.589  0.3197  0.5226  0.3177
  191SAPI   HO322042   2.934   0.844   2.630 -0.8796  0.6129  1.5393
  191SAPI   C1422043   2.729   0.786   2.466  0.3277 -0.5073 -0.3266
  191SAPI    H422044   2.793   0.794   2.376 -1.1867 -2.0910 -1.6147
  191SAPI    O422045   2.762   0.661   2.533  0.0843 -0.1695 -0.2755
  191SAPI   HO422046   2.846   0.643   2.490 -0.8008 -0.8107 -1.8203
  191SAPI   C1522047   2.585   0.784   2.409 -0.1569 -0.2246 -0.4811
  191SAPI    H522048   2.534   0.719   2.484  0.2297  0.0557  0.0270
  191SAPI    O522049   2.590   0.709   2.289  0.6117 -0.0232  0.9118
  191SAPI   HO522050   2.625   0.763   2.217 -1.1335 -0.8638 -0.6586
  191SAPI   C1622051   2.500   0.914   2.406  0.1244  0.3012  1.0140
  191SAPI    H622052   2.507   0.958   2.305 -2.9946  2.6353  1.6499
  191SAPI    O622053   2.360   0.889   2.422  0.1121  0.2531  0.1242
  191SAPI   HO622054   2.324   0.966   2.467 -0.4791 -0.4714  0.9240
  191SAPI   C1122055   2.552   1.029   2.492 -0.4231 -0.3042 -0.0434
  191SAPI    H122056   2.515   1.009   2.595  0.6679  0.3145  0.4792
  191SAPI     P22057   2.374   1.219   2.542  0.2586  0.8278  0.3091
  191SAPI   O1322058   2.267   1.116   2.553 -0.7725  0.1905  0.4849
  191SAPI   O1422059   2.333   1.345   2.481 -1.1241  0.3953 -0.9058
  191SAPI   O1222060   2.501   1.163   2.458 -0.3805 -0.1504  0.7013
  191SAPI   O1122061   2.427   1.236   2.690 -0.1853  0.1411 -0.3270
  191SAPI    C122062   2.518   1.344   2.713  0.9404  0.5161 -0.7303
  191SAPI    HA22063   2.580   1.371   2.625  1.9235  1.2376  0.1633
  191SAPI    HB22064   2.462   1.436   2.739  0.0947 -0.5222  1.4415
  191SAPI    C222065   2.630   1.304   2.814 -0.6059 -0.3120 -0.6000
  191SAPI    HS22066   2.692   1.219   2.779 -0.0028  0.7240 -2.1229
  191SAPI   O2122067   2.569   1.299   2.945  0.1654 -0.0359  0.0348
  191SAPI   C2122068   2.523   1.183   2.972  0.0816 -0.0449  0.6404
  191SAPI   O2222069   2.547   1.081   2.905  0.5956 -0.3964 -0.4277
  191SAPI   C2222070   2.432   1.192   3.095 -0.0333 -0.2954 -0.2553
  191SAPI   H2R22071   2.445   1.290   3.147 -0.1417  0.2161 -1.1767
  191SAPI   H2S22072   2.334   1.194   3.043 -0.2954  1.1685  0.2392
  191SAPI    C322073   2.740   1.415   2.840  0.0883  0.3439 -0.5955
  191SAPI    HX22074   2.693   1.515   2.846  1.2747  0.9961 -1.7965
  191SAPI    HY22075   2.803   1.420   2.749  3.4506  1.5389  1.6163
  191SAPI   O3122076   2.836   1.383   2.946  0.2111 -0.2045 -0.0587
  191SAPI   C3122077   2.928   1.282   2.924 -0.3147  0.7332 -0.3827
  191SAPI   O3222078   2.943   1.228   2.818  0.4529 -0.4900 -0.2309
  191SAPI   C3222079   3.010   1.245   3.054  0.0322 -0.0800  0.2691
  191SAPI   H2X22080   2.951   1.207   3.140  0.2760  0.9475  0.9025
  191SAPI   H2Y22081   3.048   1.341   3.095  0.5079 -0.3407  0.4536
  191SAPI   C2322082   2.443   1.061   3.188  0.4092  0.1124  0.0684
  191SAPI   H3R22083   2.534   1.055   3.251 -0.3114 -1.6981  1.0108
  191SAPI   H3S22084   2.425   0.970   3.127  0.1980 -0.8958  1.5882
  191SAPI   C2422085   2.351   1.068   3.314 -0.4460  0.4598  0.0619
  191SAPI   H4R22086   2.390   0.988   3.381 -0.3808 -1.3833 -2.0668
  191SAPI   H4S22087   2.247   1.056   3.277 -0.1167  2.7150 -1.8221
  191SAPI   C2522088   2.341   1.197   3.390 -0.4465 -0.0703  0.2415
  191SAPI   H5R22089   2.234   1.220   3.402 -0.6781 -0.4761 -0.9148
  191SAPI   C2622090   2.432   1.275   3.453 -0.1957 -0.6181  1.0813
  191SAPI   H6R22091   2.396   1.370   3.495 -1.1508 -1.5311  2.3869
  191SAPI   C2722092   2.578   1.264   3.455 -0.5865 -0.3962 -0.0550
  191SAPI   H7R22093   2.615   1.194   3.377  1.3903  0.4557  0.0450
  191SAPI   H7S22094   2.614   1.224   3.553  1.3274  4.7601  1.7098
  191SAPI   C2822095   2.653   1.395   3.430 -0.1489 -0.0914 -0.4304
  191SAPI   H8R22096   2.634   1.444   3.333 -3.7506  1.1847  0.7401
  191SAPI   C2922097   2.723   1.466   3.518 -0.3101 -0.0383  0.4523
  191SAPI   H9R22098   2.763   1.563   3.485 -0.6355  1.1212  3.2042
  191SAPI  C21022099   2.764   1.433   3.660  0.3541  0.5758  0.1057
  191SAPI  H10R22100   2.679   1.380   3.710  2.2088 -0.8436  1.9277
  191SAPI  H10S22101   2.777   1.524   3.722 -0.5797 -0.4339  1.8834
  191SAPI  C21122102   2.882   1.333   3.651  0.4575 -0.2320 -0.4715
  191SAPI  H11R22103   2.918   1.310   3.549  0.6271  1.4032 -0.8040
  191SAPI  C21222104   2.966   1.310   3.755 -0.2734  0.5988 -0.0002
  191SAPI  H12R22105   3.049   1.240   3.735 -0.7745 -0.8945  2.6848
  191SAPI  C21322106   2.956   1.355   3.900 -0.0853  0.5063 -0.2123
  191SAPI  H13R22107   2.912   1.457   3.898 -0.5246  0.3049 -1.4878
  191SAPI  H13S22108   3.057   1.352   3.948  0.1641  1.9758 -0.5986
  191SAPI  C21422109   2.877   1.258   3.988 -0.4038 -0.2521 -0.0915
  191SAPI  H14R22110   2.826   1.178   3.932 -2.5935  0.8468  0.2332
  191SAPI  C21522111   2.884   1.247   4.120 -0.3352 -0.3667  0.4796
  191SAPI  H15R22112   2.806   1.183   4.163 -0.2504 -1.8722 -1.4489
  191SAPI  C21622113   2.967   1.333   4.212 -0.0703 -0.2295 -0.4189
  191SAPI  H16R22114   2.899   1.401   4.267 -0.0622  0.8024 -1.6284
  191SAPI  H16S22115   3.031   1.393   4.142 -0.4186  1.1556  0.4162
  191SAPI  C21722116   3.066   1.268   4.308  0.2348  0.3727  0.4022
  191SAPI  H17R22117   3.143   1.222   4.243 -0.0476 -2.3886  1.8437
  191SAPI  H17S22118   3.027   1.190   4.378 -1.6584  1.6167  0.8024
  191SAPI  C21822119   3.122   1.373   4.407  0.3550  0.7779 -0.4472
  191SAPI  H18R22120   3.055   1.402   4.491 -0.5643 -0.9342 -0.5490
  191SAPI  H18S22121   3.147   1.465   4.350  0.6272 -0.1264 -1.8413
  191SAPI  C21922122   3.248   1.324   4.472 -0.9255  0.0423 -0.3822
  191SAPI  H19R22123   3.310   1.298   4.384 -1.4288 -0.1872 -0.6699
  191SAPI  H19S22124   3.223   1.241   4.541  0.8791 -0.0655  0.2013
  191SAPI  C22022125   3.329   1.428   4.558  1.1771  0.6998  0.1192
  191SAPI  H20R22126   3.361   1.514   4.494  1.2441 -0.4221 -1.4234
  191SAPI  H20S22127   3.425   1.381   4.588  1.1351 -0.1974 -1.0525
  191SAPI  H20T22128   3.274   1.460   4.649  1.0780  0.4460  0.1493
  191SAPI   C3322129   3.130   1.155   3.034 -0.1670  0.8227  0.0211
  191SAPI   H3X22130   3.189   1.197   2.949 -2.2627  1.4520 -1.1923
  191SAPI   H3Y22131   3.099   1.059   2.989 -0.7495  0.6946  0.6900
  191SAPI   C3422132   3.204   1.142   3.166 -0.5258  0.1719 -0.3147
  191SAPI   H4X22133   3.233   1.244   3.201 -0.4560  1.1587 -2.9655
  191SAPI   H4Y22134   3.306   1.103   3.143  0.5385  1.6191  1.6090
  191SAPI   C3522135   3.154   1.047   3.270  0.1792  0.3556 -0.1031
  191SAPI   H5X22136   3.131   0.946   3.230 -0.7321  0.7596 -0.6398
  191SAPI   H5Y22137   3.058   1.081   3.314  0.6111 -0.7213  1.7542
  191SAPI   C3622138   3.256   1.041   3.384 -0.3280 -0.2601 -0.2530
  191SAPI   H6X22139   3.268   1.142   3.429  0.8057 -1.4836  2.4553
  191SAPI   H6Y22140   3.355   0.998   3.360 -0.0092 -1.7149  3.0446
  191SAPI   C3722141   3.197   0.971   3.504 -0.1814  0.0710  0.2075
  191SAPI   H7X22142   3.203   0.860   3.499 -0.4184 -0.0355  1.7486
  191SAPI   H7Y22143   3.088   0.992   3.510 -0.0491  0.7166  0.4755
  191SAPI   C3822144   3.256   1.018   3.635  0.3737  0.6245 -0.1863
  191SAPI   H8X22145   3.259   1.129   3.629 -2.1681  0.7275 -0.4327
  191SAPI   H8Y22146   3.354   0.964   3.631 -0.7979 -1.5346 -2.9728
  191SAPI   C3922147   3.180   0.974   3.767  0.3808 -0.3225  0.3292
  191SAPI   H9X22148   3.072   0.998   3.762  0.5300  0.5192  0.9881
  191SAPI   H9Y22149   3.220   1.049   3.839 -0.7949  1.9206 -1.2576
  191SAPI  C31022150   3.203   0.832   3.811 -0.3417  0.4810  0.1253
  191SAPI  H10X22151   3.249   0.764   3.736  0.3685  1.6483 -0.5102
  191SAPI  H10Y22152   3.102   0.788   3.827 -1.1200  2.3156  0.4515
  191SAPI  C31122153   3.272   0.820   3.949 -0.4442 -0.1354  0.2984
  191SAPI  H11X22154   3.259   0.721   3.998  0.0213 -0.4872 -0.2758
  191SAPI  H11Y22155   3.222   0.893   4.017 -2.5127 -0.3446 -0.9222
  191SAPI  C31222156   3.424   0.847   3.946 -0.4134  0.2292 -0.0364
  191SAPI  H12X22157   3.440   0.951   3.912  2.4793 -0.5047 -1.3027
  191SAPI  H12Y22158   3.480   0.787   3.870 -2.0959 -1.2750 -0.1576
  191SAPI  C31322159   3.491   0.824   4.078 -0.0155 -0.2673  0.3750
  191SAPI  H13X22160   3.602   0.832   4.074  0.0038 -0.2520  0.8154
  191SAPI  H13Y22161   3.469   0.722   4.117  1.7222 -0.3525  1.2369
  191SAPI  C31422162   3.452   0.929   4.174 -0.2274 -1.1220  0.2810
  191SAPI  H14X22163   3.345   0.940   4.203  0.3556  1.6207  1.7761
  191SAPI  H14Y22164   3.489   1.023   4.127 -1.0593 -1.9564 -2.2409
  191SAPI  C31522165   3.521   0.898   4.307 -0.5013  0.1323  0.1908
  191SAPI  H15X22166   3.627   0.894   4.273  0.0324  3.7665  1.0031
  191SAPI  H15Y22167   3.492   0.798   4.348 -1.8403  0.7857  0.8775
  191SAPI  C31622168   3.504   0.996   4.422 -0.0934 -0.0508  0.2980
  191SAPI  H16X22169   3.398   1.007   4.454  0.0656  0.1161  0.7920
  191SAPI  H16Y22170   3.530   1.099   4.390  0.3266 -0.5724 -1.0977
  191SAPI  C31722171   3.589   0.949   4.540 -0.1886  0.5370 -0.1948
  191SAPI  H17X22172   3.687   0.903   4.515 -1.0198 -1.4291 -0.0191
  191SAPI  H17Y22173   3.532   0.862   4.580  0.7388  0.4253  0.9375
  191SAPI  C31822174   3.609   1.046   4.655  0.6348  0.3231 -0.4442
  191SAPI  H18X22175   3.663   0.993   4.737 -0.7605  1.5835  1.3679
  191SAPI  H18Y22176   3.513   1.089   4.690  0.7846 -0.4217  0.9621
  191SAPI  H18Z22177   3.685   1.123   4.628  1.1988 -0.1502 -0.2268
  192SAPI   C1222178   3.328   0.283   2.034 -0.1826 -0.2111 -0.1196
  192SAPI    H222179   3.429   0.294   1.989 -0.2064 -0.8095 -0.3182
  192SAPI    O222180   3.281   0.413   2.059  0.6033 -0.0047 -0.1331
  192SAPI   HO222181   3.327   0.442   2.138  1.5223  0.5199 -0.8378
  192SAPI   C1322182   3.240   0.204   1.939  0.3939 -0.1373  0.3666
  192SAPI    H322183   3.276   0.099   1.938  4.1069  0.9974 -0.5840
  192SAPI    O322184   3.261   0.251   1.805 -0.5951 -0.5068  0.3150
  192SAPI   HO322185   3.271   0.177   1.745 -0.4975 -0.8728  0.7781
  192SAPI   C1422186   3.091   0.213   1.985  0.4444  0.1508 -0.0382
  192SAPI    H422187   3.075   0.322   1.969  0.3482  0.2419  0.6224
  192SAPI    O422188   2.995   0.145   1.904  0.3223 -0.1758 -0.2369
  192SAPI   HO422189   2.938   0.202   1.853  0.9101 -0.4106 -1.1756
  192SAPI   C1522190   3.072   0.187   2.135  0.4158  0.2403 -0.0389
  192SAPI    H522191   3.041   0.081   2.142 -1.0133  0.7294  1.7545
  192SAPI    O522192   2.955   0.256   2.174  0.0993  0.3449 -0.0062
  192SAPI   HO522193   2.885   0.191   2.166  0.2890  0.2626 -1.1629
  192SAPI   C1622194   3.186   0.196   2.229 -0.2864 -0.0759 -0.5417
  192SAPI    H622195   3.170   0.289   2.287 -1.6145  0.2073 -1.3301
  192SAPI    O622196   3.177   0.103   2.338 -0.0130 -0.4045 -0.0635
  192SAPI   HO622197   3.190   0.019   2.293  0.4622  0.6638 -2.0435
  192SAPI   C1122198   3.327   0.204   2.167  0.3113 -0.0388 -0.2997
  192SAPI    H122199   3.359   0.101   2.140  1.4783  0.6900 -1.8138
  192SAPI     P22200   3.575   0.231   2.264  0.1583 -0.1969 -0.0199
  192SAPI   O1322201   3.651   0.359   2.269 -0.8634  0.3405  0.2635
  192SAPI   O1422202   3.617   0.144   2.153 -0.0154 -0.1448  0.0393
  192SAPI   O1222203   3.410   0.259   2.263  0.3337  0.3912 -0.1978
  192SAPI   O1122204   3.596   0.152   2.400  0.4900 -0.6607 -0.2560
  192SAPI    C122205   3.539   0.025   2.427  0.1761 -0.3611 -0.2450
  192SAPI    HA22206   3.456  -0.005   2.359  0.5667 -1.9836 -0.0298
  192SAPI    HB22207   3.614  -0.055   2.413  1.9178  1.2388 -0.5063
  192SAPI    C222208   3.504   0.005   2.575 -0.4287 -0.1362 -0.3158
  192SAPI    HS22209   3.432   0.085   2.599 -1.5313 -1.1870 -0.0175
  192SAPI   O2122210   3.622   0.009   2.656  0.2740  0.0161  0.0792
  192SAPI   C2122211   3.624   0.076   2.768  0.2027  0.0240  0.1083
  192SAPI   O2222212   3.537   0.154   2.806  0.5237  0.1053  0.0364
  192SAPI   C2222213   3.747   0.049   2.851  0.2545  0.5257  0.7064
  192SAPI   H2R22214   3.786  -0.048   2.813 -1.3020  0.3729 -0.5931
  192SAPI   H2S22215   3.822   0.122   2.815  1.3467 -0.0614  1.6904
  192SAPI    C322216   3.444  -0.134   2.613  0.4817 -0.0055 -0.9786
  192SAPI    HX22217   3.517  -0.209   2.576  0.4959 -1.8642  2.3850
  192SAPI    HY22218   3.350  -0.153   2.557  0.7219 -1.8813 -0.8131
  192SAPI   O3122219   3.423  -0.155   2.756 -0.6344  1.0962  0.0759
  192SAPI   C3122220   3.328  -0.092   2.816 -0.1310 -0.5841 -0.4149
  192SAPI   O3222221   3.260  -0.003   2.772  0.4066 -0.5661 -0.2917
  192SAPI   C3222222   3.301  -0.148   2.956  0.4210  0.7700  0.0358
  192SAPI   H2X22223   3.401  -0.168   3.000 -0.2151 -1.1974  0.6929
  192SAPI   H2Y22224   3.246  -0.241   2.929  0.5541  0.5607  0.4737
  192SAPI   C2322225   3.717   0.059   3.004  0.4869  0.4393  0.0364
  192SAPI   H3R22226   3.639  -0.018   3.023 -0.5638  1.6369  0.7486
  192SAPI   H3S22227   3.675   0.155   3.041  2.7406  1.7626 -0.6530
  192SAPI   C2422228   3.834   0.010   3.083  0.3051  0.3768 -0.1556
  192SAPI   H4R22229   3.838   0.044   3.189  2.2538 -0.6049  0.1461
  192SAPI   H4S22230   3.924   0.060   3.042 -0.2683 -1.0401 -3.4636
  192SAPI   C2522231   3.859  -0.139   3.082 -0.2002 -0.0129  0.0351
  192SAPI   H5R22232   3.941  -0.175   3.017  1.2319  0.2360  1.6353
  192SAPI   C2622233   3.807  -0.222   3.173 -0.2810  0.1481  0.3128
  192SAPI   H6R22234   3.835  -0.328   3.180 -1.2486 -0.1455 -0.1480
  192SAPI   C2722235   3.707  -0.183   3.288  0.1125  0.7600 -0.0506
  192SAPI   H7R22236   3.659  -0.279   3.316  1.3333 -0.1169 -0.8269
  192SAPI   H7S22237   3.632  -0.116   3.241  1.4245  3.1404  1.0508
  192SAPI   C2822238   3.784  -0.114   3.401 -0.2351 -0.0159 -0.2675
  192SAPI   H8R22239   3.885  -0.154   3.417 -1.1596 -2.3439  0.1181
  192SAPI   C2922240   3.737  -0.014   3.479  0.5421  0.2740  0.6221
  192SAPI   H9R22241   3.797   0.040   3.553  0.3989  0.4926  0.5809
  192SAPI  C21022242   3.608   0.060   3.457 -0.0686  0.5200  0.1247
  192SAPI  H10R22243   3.566   0.084   3.557 -0.7686 -3.5737  0.9620
  192SAPI  H10S22244   3.526   0.004   3.406  0.4812  1.3498 -1.7835
  192SAPI  C21122245   3.629   0.187   3.376  0.0122  0.1614 -0.4541
  192SAPI  H11R22246   3.729   0.201   3.334 -0.4338  3.4048 -0.6560
  192SAPI  C21222247   3.534   0.274   3.351 -0.1025  0.5381 -0.2683
  192SAPI  H12R22248   3.563   0.360   3.290 -0.0094  1.1484  0.6123
  192SAPI  C21322249   3.399   0.283   3.404 -0.3220 -0.1578 -0.0053
  192SAPI  H13R22250   3.384   0.386   3.442 -2.3562 -0.5176  0.2553
  192SAPI  H13S22251   3.392   0.221   3.496  1.1059  0.1691  0.3528
  192SAPI  C21422252   3.285   0.256   3.312 -0.4283  0.0353 -0.0306
  192SAPI  H14R22253   3.261   0.149   3.301 -1.2549 -0.1373  2.7269
  192SAPI  C21522254   3.203   0.344   3.255  0.2026  0.0500 -0.5454
  192SAPI  H15R22255   3.127   0.314   3.181  0.3361  0.8249 -1.0169
  192SAPI  C21622256   3.212   0.498   3.251  0.5590 -0.1750 -0.2660
  192SAPI  H16R22257   3.188   0.539   3.151 -0.1061 -0.5552 -0.2652
  192SAPI  H16S22258   3.317   0.522   3.278 -0.4923  1.3364  2.9860
  192SAPI  C21722259   3.131   0.583   3.358  0.3184  1.1100  0.6421
  192SAPI  H17R22260   3.024   0.595   3.331  0.8717  1.6573 -1.5397
  192SAPI  H17S22261   3.162   0.690   3.355  1.1326  0.9257  1.8225
  192SAPI  C21822262   3.158   0.537   3.504  0.9342 -0.1206 -0.0817
  192SAPI  H18R22263   3.257   0.574   3.539 -0.2372 -0.0554  3.5488
  192SAPI  H18S22264   3.169   0.427   3.507 -0.2060 -0.3888 -2.9048
  192SAPI  C21922265   3.046   0.575   3.605 -1.0023  0.7144  0.0903
  192SAPI  H19R22266   2.950   0.525   3.580 -1.3542  0.4292  1.8617
  192SAPI  H19S22267   3.024   0.684   3.607 -1.0944  0.6913  1.3025
  192SAPI  C22022268   3.093   0.509   3.734  0.2387  0.2958  0.5926
  192SAPI  H20R22269   3.097   0.399   3.725 -1.3906  0.3000 -0.6259
  192SAPI  H20S22270   3.015   0.541   3.806 -2.2681 -1.3051 -1.2395
  192SAPI  H20T22271   3.188   0.553   3.772 -0.8693  1.8467  1.7063
  192SAPI   C3322272   3.226  -0.071   3.053  0.1032 -0.1294 -0.2117
  192SAPI   H3X22273   3.124  -0.053   3.013  0.1313  0.4430 -0.0429
  192SAPI   H3Y22274   3.267   0.031   3.074  0.4175 -0.3314  0.1596
  192SAPI   C3422275   3.213  -0.146   3.189 -0.3642 -0.4812 -0.9223
  192SAPI   H4X22276   3.181  -0.249   3.162 -2.4735 -0.1654  0.1114
  192SAPI   H4Y22277   3.134  -0.098   3.251  1.3016 -1.0021  1.7278
  192SAPI   C3522278   3.340  -0.149   3.268 -0.3666 -0.3402 -0.0510
  192SAPI   H5X22279   3.361  -0.045   3.302  0.4938  0.7046 -3.4606
  192SAPI   H5Y22280   3.426  -0.185   3.208  1.3395  3.4545 -0.1522
  192SAPI   C3622281   3.337  -0.254   3.378 -0.1123  0.0313 -0.2010
  192SAPI   H6X22282   3.440  -0.263   3.418 -1.0322 -0.5584  2.1866
  192SAPI   H6Y22283   3.309  -0.351   3.331 -1.5120 -0.8409  2.2270
  192SAPI   C3722284   3.245  -0.227   3.501  0.2373  0.7018 -0.1280
  192SAPI   H7X22285   3.264  -0.316   3.565  1.2510  0.5320 -0.6485
  192SAPI   H7Y22286   3.135  -0.225   3.483  0.3091 -1.5657 -1.1788
  192SAPI   C3822287   3.272  -0.094   3.577  0.3139  0.4386  0.2330
  192SAPI   H8X22288   3.285  -0.008   3.508  3.7146 -1.4359 -1.7392
  192SAPI   H8Y22289   3.370  -0.106   3.629 -0.3874  0.2290  1.5711
  192SAPI   C3922290   3.168  -0.073   3.691  0.1494  0.1702  0.3955
  192SAPI   H9X22291   3.165  -0.171   3.743  4.5660 -0.2658  0.2275
  192SAPI   H9Y22292   3.076  -0.053   3.633  0.6164  0.6207 -0.2009
  192SAPI  C31022293   3.182   0.034   3.794 -0.2178 -0.0796 -0.2156
  192SAPI  H10X22294   3.195   0.129   3.738  0.4518  0.4402  0.7917
  192SAPI  H10Y22295   3.280   0.021   3.844 -0.5953 -1.1053  0.2863
  192SAPI  C31122296   3.057   0.033   3.892  0.3969 -0.4372  0.2193
  192SAPI  H11X22297   3.066  -0.068   3.938 -0.1069 -1.6854 -2.2096
  192SAPI  H11Y22298   2.968   0.036   3.824  0.5626 -0.7798 -0.0169
  192SAPI  C31222299   3.059   0.152   3.982 -0.0372 -0.0905 -0.4048
  192SAPI  H12X22300   3.064   0.242   3.917  0.2134 -0.4695 -0.9130
  192SAPI  H12Y22301   3.165   0.152   4.017 -0.1095 -0.0953 -0.1798
  192SAPI  C31322302   2.964   0.158   4.104 -0.6328  0.0630  0.1195
  192SAPI  H13X22303   2.996   0.075   4.171  0.9316 -0.2403 -0.9745
  192SAPI  H13Y22304   2.863   0.123   4.074 -0.9698  0.8005  0.3770
  192SAPI  C31422305   2.957   0.290   4.169  0.8783  0.7080  0.4012
  192SAPI  H14X22306   2.920   0.347   4.081  2.2964 -0.1820 -0.8044
  192SAPI  H14Y22307   3.054   0.328   4.205  0.3243  1.9994  0.5739
  192SAPI  C31522308   2.864   0.289   4.292 -0.5030  0.1810  0.5877
  192SAPI  H15X22309   2.921   0.234   4.370  1.0376 -0.4245 -0.9169
  192SAPI  H15Y22310   2.764   0.244   4.272  0.1739 -0.0583 -2.8398
  192SAPI  C31622311   2.834   0.432   4.330  0.3818 -0.3118  0.2450
  192SAPI  H16X22312   2.773   0.479   4.249 -1.9600  0.2874  2.2567
  192SAPI  H16Y22313   2.928   0.491   4.336  1.1636 -1.4349 -0.5402
  192SAPI  C31722314   2.759   0.456   4.461  0.8960 -0.5848 -0.7609
  192SAPI  H17X22315   2.669   0.391   4.470  1.3244 -1.2536 -1.2346
  192SAPI  H17Y22316   2.736   0.565   4.465 -3.3695 -1.2729 -1.2046
  192SAPI  C31822317   2.846   0.421   4.583 -0.8038  0.5382  0.4973
  192SAPI  H18X22318   2.799   0.449   4.680 -1.2536 -1.2618  0.8291
  192SAPI  H18Y22319   2.941   0.478   4.582  0.1129 -0.8796  1.7455
  192SAPI  H18Z22320   2.861   0.311   4.581  2.2949  0.7172  3.5716
  193SOD    SOD22321   0.980   2.614   0.128  0.0701 -0.3746 -0.1854
  194SOD    SOD22322   2.618   5.817   2.038  0.2801 -0.5550 -0.4681
  195SOD    SOD22323   5.715   0.787   2.429 -0.5956 -0.2913  0.8100
  196SOD    SOD22324   2.155   2.980   1.562  0.3597 -0.0027 -0.4625
  197SOD    SOD22325   4.471   4.806   7.411  0.1983  0.4346 -0.1058
  198SOD    SOD22326   0.802   5.357   7.294  0.4211  0.2615  0.3100
  199SOD    SOD22327   0.525   4.187   0.544 -0.2147  0.3984  0.1502
  200SOD    SOD22328   4.878   5.481   0.434 -0.2191 -0.1384  0.2501
  201SOD    SOD22329   4.743   1.825   7.099 -0.4897 -0.0444 -0.4066
  202SOD    SOD22330   5.190   4.986   7.195 -0.0234  0.1544  0.0071
  203SOD    SOD22331   3.852   1.452   7.480 -0.2063  0.0875 -0.1187
  204SOD    SOD22332   0.769   4.736   7.700  0.3299 -0.3229 -0.3861
  205SOD    SOD22333   2.019   1.597   7.474  0.3051 -0.3256  0.0961
  206SOD    SOD22334   1.002   2.347   1.016  0.0702 -0.0886  0.2690
  207SOD    SOD22335   6.139   6.398   2.103 -0.6626 -0.2754  0.3358
  208SOD    SOD22336   0.411   1.681   7.162 -0.7097 -0.0084  0.1900
  209SOD    SOD22337   3.134   0.541   8.653  0.1036 -0.1509 -0.3996
  210SOD    SOD22338   3.780   1.032   2.683 -0.1947  0.2300  0.0485
  211SOD    SOD22339   5.275   3.653   2.934 -0.2493 -0.0470  0.2939
  212SOD    SOD22340   5.422   0.593   0.633  0.1547  0.4402 -0.0821
  213SOD    SOD22341   6.022   1.107   0.321 -0.1208 -0.1203  0.4209
  214SOD    SOD22342   1.638   3.471   8.890  0.1919 -0.2967  0.0041
  215SOD    SOD22343   4.194   0.756   8.674 -0.1889 -0.2117 -0.3286
  216SOD    SOD22344   0.786   1.801   2.381 -0.0926 -0.3867  0.5041
  217SOD    SOD22345   4.405   1.796   2.158  0.1848  0.6199 -0.3998
  218SOD    SOD22346   6.586   2.206   1.734 -0.2755 -0.6439 -0.6123
  219SOD    SOD22347   2.639   1.657   2.389 -0.4217 -0.1286  0.1702
  220SOD    SOD22348   2.650   1.334   0.614  0.6182 -0.2579 -0.2884
  221SOD    SOD22349   2.705   1.932   8.886  0.2825 -0.3007  0.1584
  222SOD    SOD22350   4.895   1.522   0.139 -0.1592  0.4739  0.2511
  223SOD    SOD22351   6.392   4.098   6.918  0.4337  0.0587  0.0343
  224SOD    SOD22352   5.129   0.515   7.766 -0.1807 -0.1718  0.1727
  225SOD    SOD22353   4.979   5.450   8.399  0.4914 -0.1012 -0.1165
  226SOD    SOD22354   0.128   4.547   8.362 -0.2609  0.2356  0.4241
  227SOD    SOD22355   3.518   5.773   2.201  0.1674 -0.0510  0.3910
  228SOD    SOD22356   1.711   6.711   8.248  0.3260  0.1229  0.5190
  229SOD    SOD22357   4.631   0.871   0.571 -0.0102  0.5522 -0.2673
  230CLA    CLA22358   2.515   1.459   0.133 -0.2985 -0.0217 -0.1060
  231CLA    CLA22359   6.759   1.884   1.490  0.0934 -0.3489 -0.1267
  232CLA    CLA22360   6.055   5.229   8.547 -0.1806 -0.1813  0.2021
  233CLA    CLA22361   4.374   5.695   0.146  0.0039  0.2402  0.1063
  234CLA    CLA22362   4.323   4.971   7.828  0.6339  0.1082 -0.2504
  235CLA    CLA22363   6.029   4.230   0.313  0.3638 -0.1462 -0.2391
  236CLA    CLA22364   5.742   5.152   7.307 -0.0154 -0.3817  0.1415
  237CLA    CLA22365   2.117   3.771   0.105 -0.4384  0.3682  0.0851
  238CLA    CLA22366   2.512   5.028   1.094  0.1354 -0.3648 -0.0778
  239CLA    CLA22367   0.967   6.120   1.907  0.1037 -0.4402  0.2982
  240CLA    CLA22368   3.761   0.696   8.158 -0.0773  0.2057 -0.2242
  241CLA    CLA22369   5.380   6.411   8.173 -0.1900  0.2682  0.1869
  242CLA    CLA22370   4.250   0.303   0.730 -0.0633  0.3649  0.0415
  243CLA    CLA22371   4.914   1.242   0.508 -0.0101  0.0135  0.2492
  244CLA    CLA22372   1.999   1.428   0.842 -0.2335  0.2112  0.3286
  245CLA    CLA22373   4.028   3.762   0.626  0.2160  0.1555  0.0612
  246CLA    CLA22374   4.676   0.665   0.749  0.4319  0.2830 -0.1222
  247TIP3   OH222375   1.524   2.706   0.421 -0.1795  0.2583 -0.2718
  247TIP3    H122376   1.436   2.731   0.449  0.8326  2.0168  1.5604
  247TIP3    H222377   1.525   2.611   0.431 -0.9488  0.4646  2.7216
  248TIP3   OH222378   4.871   5.137   7.836  0.9381  0.2106  0.5708
  248TIP3    H122379   4.783   5.164   7.810  0.8945 -0.8203 -0.4413
  248TIP3    H222380   4.857   5.081   7.912  0.8630  1.2493  1.3470
  249TIP3   OH222381   5.238   0.448   1.791 -0.3704 -0.2839 -0.3720
  249TIP3    H122382   5.303   0.461   1.860 -0.9059 -0.1692  0.1196
  249TIP3    H222383   5.281   0.479   1.711 -0.1782  0.7638  0.1188
  250TIP3   OH222384   4.260   5.744   1.441  0.4133 -0.0122 -0.5087
  250TIP3    H122385   4.346   5.712   1.413  1.1958  0.1721  1.4939
  250TIP3    H222386   4.236   5.688   1.515  0.3414  1.9391  1.0237
  251TIP3   OH222387   6.420   4.228   7.099 -0.2321 -0.3604  0.8683
  251TIP3    H122388   6.347   4.274   7.139  0.2200  0.0737  1.2115
  251TIP3    H222389   6.492   4.239   7.161  0.4241  0.1435  0.0448
  252TIP3   OH222390   0.085   3.296   8.820  0.0270 -0.2014  0.2698
  252TIP3    H122391   0.027   3.350   8.874 -0.0434 -0.2768  0.2690
  252TIP3    H222392   0.061   3.319   8.730  1.3970  1.3131  0.2383
  253TIP3   OH222393   4.944   5.301   0.884 -0.2533 -0.0022 -0.4203
  253TIP3    H122394   4.944   5.322   0.978 -2.2917 -0.9983 -0.1475
  253TIP3    H222395   5.037   5.290   0.862  0.2490 -0.0767  1.5569
  254TIP3   OH222396   6.294   3.895   7.868  0.4300 -0.5044  0.2323
  254TIP3    H122397   6.311   3.810   7.826  0.3022 -0.4023 -0.0278
  254TIP3    H222398   6.298   3.958   7.796  3.3259  0.0974  0.8015
  255TIP3   OH222399   1.473   5.849   1.307  0.3694 -0.0849  0.3603
  255TIP3    H122400   1.527   5.888   1.238  1.7084 -0.5641  1.0817
  255TIP3    H222401   1.386   5.840   1.269  0.6228  1.3668 -0.6230
  256TIP3   OH222402   1.499   5.092   8.422 -0.4677  0.0367 -0.3323
  256TIP3    H122403   1.594   5.085   8.417 -0.4463  0.1613 -0.1117
  256TIP3    H222404   1.467   5.029   8.357 -0.2321  0.2712 -0.6748
  257TIP3   OH222405   6.341   4.682   0.514 -0.5572 -0.3574 -0.2738
  257TIP3    H122406   6.432   4.653   0.514 -0.5112 -0.2169 -0.2676
  257TIP3    H222407   6.290   4.604   0.492 -0.4327 -0.4274 -0.3135
  258TIP3   OH222408   6.679   0.387   2.645 -0.2055  0.2546  0.0097
  258TIP3    H122409   6.676   0.466   2.590  3.8059  0.2055 -0.5852
  258TIP3    H222410   6.642   0.415   2.728  1.0345  2.8280 -0.2001
  259TIP3   OH222411   1.487   6.566   2.064  0.0162 -0.0028  0.2508
  259TIP3    H122412   1.580   6.546   2.075  0.1673  0.2572 -0.4983
  259TIP3    H222413   1.445   6.527   2.141  0.6935 -0.4659  0.3977
  260TIP3   OH222414   1.375   4.664   1.770 -0.2891 -0.4423  0.1443
  260TIP3    H122415   1.391   4.722   1.695  1.4018 -2.3908 -1.1326
  260TIP3    H222416   1.457   4.667   1.820 -1.3226  0.6663  1.8755
  261TIP3   OH222417   0.380   3.163   0.348  0.2296  0.0665 -0.1112
  261TIP3    H122418   0.341   3.232   0.402 -0.0688 -0.5208  0.4371
  261TIP3    H222419   0.456   3.134   0.398 -1.5031 -2.2967  1.3500
  262TIP3   OH222420   2.628   1.924   7.228 -0.7766 -0.1025 -0.0513
  262TIP3    H122421   2.578   1.937   7.308 -2.1381 -1.9706 -0.5357
  262TIP3    H222422   2.664   1.836   7.236  1.8337  0.8748 -0.1030
  263TIP3   OH222423   6.746   2.755   8.879 -0.7501 -0.6458  0.5070
  263TIP3    H122424   6.763   2.849   8.871  1.2819 -0.9910  0.2017
  263TIP3    H222425   6.665   2.741   8.830 -2.3749  1.2670  2.4492
  264TIP3   OH222426   2.218   6.316   7.919 -0.1637 -0.2553  0.7698
  264TIP3    H122427   2.291   6.299   7.860  0.5227  2.2606  0.7374
  264TIP3    H222428   2.233   6.258   7.994  1.2317 -0.6195  0.2320
  265TIP3   OH222429   5.273   1.818   8.082 -0.4765 -0.7864 -0.1039
  265TIP3    H122430   5.290   1.820   8.176  0.5651 -1.4211 -0.2549
  265TIP3    H222431   5.318   1.738   8.052  0.9184  0.4330 -1.4394
  266TIP3   OH222432   5.874   5.161   1.802 -0.2147 -0.4413  0.1869
  266TIP3    H122433   5.911   5.073   1.793  0.5989 -0.0855  0.0035
  266TIP3    H222434   5.827   5.175   1.720  0.2874 -0.4217 -0.1045
  267TIP3   OH222435   2.460   2.845   1.070 -0.6244  0.0966  0.0573
  267TIP3    H122436   2.515   2.785   1.120 -1.2148 -0.6137 -0.1234
  267TIP3    H222437   2.432   2.794   0.994 -0.6917  0.7806 -0.3808
  268TIP3   OH222438   1.577   4.785   0.768 -0.3129 -0.0750  0.1835
  268TIP3    H122439   1.620   4.843   0.705  0.0297 -0.1553  0.3400
  268TIP3    H222440   1.560   4.841   0.844 -0.4986 -0.0411  0.1182
  269TIP3   OH222441   1.289   1.377   7.760 -0.0877  1.1857  0.7395
  269TIP3    H122442   1.273   1.323   7.837  2.4794 -0.5694  0.1825
  269TIP3    H222443   1.208   1.372   7.709 -1.1321  0.7885  2.3798
  270TIP3   OH222444   6.076   5.879   6.765 -0.1239 -0.0283  0.0550
  270TIP3    H122445   6.020   5.824   6.820  1.5109 -0.6127  1.2356
  270TIP3    H222446   6.067   5.967   6.802  1.6370 -0.5493  2.0027
  271TIP3   OH222447   5.075   5.554   2.166  0.1939 -0.5382 -0.1999
  271TIP3    H122448   5.035   5.522   2.247  2.3775  0.8036  1.5407
  271TIP3    H222449   5.002   5.590   2.116 -1.0977 -0.1061  1.8547
  272TIP3   OH222450   4.768   2.270   8.235 -0.3932  0.3551 -0.2690
  272TIP3    H122451   4.812   2.301   8.155 -0.9520 -0.1111 -0.7718
  272TIP3    H222452   4.680   2.246   8.205 -0.1199 -1.2975  0.1726
  273TIP3   OH222453   2.950   0.151   3.095  0.4489 -0.0385 -0.2244
  273TIP3    H122454   2.884   0.210   3.057  0.6207  0.8634  0.8195
  273TIP3    H222455   3.027   0.163   3.040  0.2994  0.2821 -0.3671
  274TIP3   OH222456   3.035   3.736   1.072  0.2529 -0.2212 -0.3070
  274TIP3    H122457   3.036   3.654   1.023  0.9579  0.5659 -1.6761
  274TIP3    H222458   3.051   3.804   1.006 -4.5039  1.5223 -0.0583
  275TIP3   OH222459   5.178   0.520   7.522 -0.1378 -1.0016 -0.0297
  275TIP3    H122460   5.249   0.573   7.485  0.2456 -0.8575  0.9067
  275TIP3    H222461   5.178   0.440   7.469  1.5861 -1.5860  0.7813
  276TIP3   OH222462   5.402   0.970   0.375  0.3576 -1.0577  0.0551
  276TIP3    H122463   5.313   1.001   0.355  0.2275 -1.3028  0.2437
  276TIP3    H222464   5.397   0.942   0.466  0.8943 -0.1203  0.3862
  277TIP3   OH222465   1.914   0.370   8.358 -0.1247  0.3746 -0.0601
  277TIP3    H122466   1.995   0.376   8.409 -0.9809 -0.8858  1.5792
  277TIP3    H222467   1.943   0.373   8.267  1.5810  1.6998  0.4622
  278TIP3   OH222468   0.296   4.851   2.182  0.0189 -0.2205 -0.0556
  278TIP3    H122469   0.347   4.857   2.262  0.4988 -0.6306 -0.3251
  278TIP3    H222470   0.206   4.868   2.210 -0.1490 -2.4189  0.9532
  279TIP3   OH222471   5.320   3.805   7.171 -0.2181 -0.0592 -0.0778
  279TIP3    H122472   5.403   3.847   7.151 -0.9293 -0.0187 -3.6705
  279TIP3    H222473   5.255   3.874   7.159 -1.0444 -1.0610 -1.7184
  280TIP3   OH222474   6.111   4.274   2.838  0.0523  0.4389 -0.0765
  280TIP3    H122475   6.018   4.281   2.861  0.3331  0.7369  1.0294
  280TIP3    H222476   6.145   4.363   2.849  0.4797  0.3263 -0.4480
  281TIP3   OH222477   1.809   2.651   7.107 -0.6713 -0.0976  0.5962
  281TIP3    H122478   1.806   2.610   7.020 -0.5424 -0.8141  0.9247
  281TIP3    H222479   1.836   2.741   7.090  0.4966 -0.5424 -0.0016
  282TIP3   OH222480   2.953   5.243   6.846 -0.2951  0.4142  0.0592
  282TIP3    H122481   3.014   5.170   6.838  0.7978  1.2947  0.1196
  282TIP3    H222482   2.888   5.213   6.910 -0.0589 -0.6168 -0.1624
  283TIP3   OH222483   4.765   6.551   0.995  1.2131  0.0479 -0.6147
  283TIP3    H122484   4.753   6.460   1.022 -0.6182  0.5938  0.5587
  283TIP3    H222485   4.840   6.581   1.047 -0.1838  0.0950  1.5394
  284TIP3   OH222486   1.816   3.754   0.882 -0.0600  0.1772 -0.3841
  284TIP3    H122487   1.888   3.817   0.884 -1.0444  1.3327  1.4447
  284TIP3    H222488   1.748   3.798   0.831  0.0142 -0.3247 -0.9244
  285TIP3   OH222489   5.287   3.441   8.409  0.2265  0.4404  0.2058
  285TIP3    H122490   5.372   3.454   8.367 -0.5068 -0.5616 -1.7374
  285TIP3    H222491   5.231   3.508   8.369  0.2439  1.6449  2.0876
  286TIP3   OH222492   1.541   1.351   1.858 -0.2653 -0.4186 -0.3616
  286TIP3    H122493   1.555   1.446   1.858  1.8464 -0.6928 -0.9944
  286TIP3    H222494   1.601   1.318   1.925 -0.2281 -1.4163 -0.8794
  287TIP3   OH222495   0.980   2.254   8.691 -0.2402  0.2279  0.2288
  287TIP3    H122496   0.897   2.245   8.643  1.2768 -1.4715 -2.3446
  287TIP3    H222497   0.990   2.171   8.737  1.1413 -0.6972 -1.5885
  288TIP3   OH222498   1.985   6.234   8.595  0.1720  0.1483 -0.0255
  288TIP3    H122499   1.996   6.223   8.501 -2.1977  0.9072 -0.4598
  288TIP3    H222500   2.062   6.282   8.623  0.6369  0.4380 -1.6980
  289TIP3   OH222501   4.970   3.964   0.215  0.3503 -0.1703  0.0917
  289TIP3    H122502   4.913   3.888   0.217  0.5580 -0.5078 -2.5257
  289TIP3    H222503   4.942   4.013   0.137  0.8814  1.9064  1.1338
  290TIP3   OH222504   1.684   4.592   7.842 -0.6494 -0.3379 -0.2602
  290TIP3    H122505   1.699   4.619   7.752 -0.6846  0.4435 -0.0330
  290TIP3    H222506   1.695   4.496   7.840 -0.6600 -0.3284 -1.0864
  291TIP3   OH222507   4.236   3.489   0.544  0.6845 -0.0590  0.3560
  291TIP3    H122508   4.291   3.467   0.619  0.0621 -0.4004  0.7223
  291TIP3    H222509   4.192   3.570   0.569 -0.1526 -0.6034  0.7252
  292TIP3   OH222510   2.645   6.601   0.416 -0.1303  0.8410  0.0676
  292TIP3    H122511   2.649   6.570   0.506 -0.8203  0.4823 -0.0110
  292TIP3    H222512   2.736   6.612   0.389  0.3245 -2.9446 -0.4958
  293TIP3   OH222513   4.786   4.827   8.402 -0.4378  0.4002  0.3715
  293TIP3    H122514   4.843   4.751   8.413 -1.2957 -0.0863  1.7739
  293TIP3    H222515   4.712   4.794   8.350 -0.3807  0.5082  0.2218
  294TIP3   OH222516   4.689   2.393   7.965  0.7093  0.0550 -0.5916
  294TIP3    H122517   4.773   2.424   7.932  0.9711  0.3447  0.3198
  294TIP3    H222518   4.626   2.421   7.899  1.0537  1.8005 -0.2275
  295TIP3   OH222519   4.933   0.383   1.466 -0.6252  0.4794 -0.2625
  295TIP3    H122520   4.896   0.444   1.530 -0.0973 -2.0052  2.6747
  295TIP3    H222521   4.856   0.344   1.423 -1.0908  0.9570  0.1163
  296TIP3   OH222522   1.572   4.448   0.148 -0.2791 -0.0632 -0.0624
  296TIP3    H122523   1.524   4.493   0.078 -0.6900  0.8791  0.7818
  296TIP3    H222524   1.649   4.503   0.163  0.1341 -0.6014 -0.1938
  297TIP3   OH222525   6.661   5.622   7.444  0.2289 -0.5730 -0.0718
  297TIP3    H122526   6.573   5.630   7.408 -0.6113 -0.7469  1.8382
  297TIP3    H222527   6.658   5.670   7.527  1.9110 -0.6471  0.0661
  298TIP3   OH222528   5.249   3.698   8.835  0.2370 -0.3513  0.5100
  298TIP3    H122529   5.263   3.705   8.929 -0.8228 -1.5977  0.7931
  298TIP3    H222530   5.291   3.616   8.810  0.0024 -0.3231  0.0025
  299TIP3   OH222531   3.157   1.522   7.986 -0.3216  0.4966 -0.2887
  299TIP3    H122532   3.222   1.493   7.922 -0.6750  0.2616 -0.5455
  299TIP3    H222533   3.206   1.531   8.068  0.0430  0.3687 -0.4922
  300TIP3   OH222534   4.175   3.018   8.759 -0.0682  0.2970  0.7027
  300TIP3    H122535   4.137   2.975   8.836 -0.9493  0.0171  0.1253
  300TIP3    H222536   4.103   3.069   8.722  1.0940  2.8184  1.7056
  301TIP3   OH222537   2.637   5.541   0.419 -0.1101 -0.4874 -0.3719
  301TIP3    H122538   2.698   5.486   0.469  1.6426  1.2835 -0.4270
  301TIP3    H222539   2.643   5.506   0.330  0.3110 -0.7819 -0.2351
  302TIP3   OH222540   5.123   5.122   8.808 -0.4535 -0.3317  1.0790
  302TIP3    H122541   5.036   5.093   8.780  0.6670 -0.7996 -2.5596
  302TIP3    H222542   5.177   5.044   8.801  0.9372  0.6913 -0.4776
  303TIP3   OH222543   5.873   6.664   7.814 -0.0694 -0.1794 -0.1170
  303TIP3    H122544   5.861   6.722   7.888 -1.0106 -1.6220  0.9164
  303TIP3    H222545   5.924   6.715   7.751 -0.1047  1.4188  1.0969
  304TIP3   OH222546   4.392   1.665   1.094 -0.4785  0.1496  0.0927
  304TIP3    H122547   4.464   1.604   1.106  0.6973  1.4677 -0.0772
  304TIP3    H222548   4.428   1.751   1.117 -1.6239  1.0118 -1.1480
  305TIP3   OH222549   4.596   0.327   0.410 -0.0863 -0.2432  0.3803
  305TIP3    H122550   4.657   0.272   0.458 -2.0710 -2.1600  0.8780
  305TIP3    H222551   4.564   0.391   0.474 -0.9116 -1.2495  0.9982
  306TIP3   OH222552   5.756   4.184   8.235 -0.2477 -0.5297  0.3387
  306TIP3    H122553   5.671   4.139   8.239 -1.1185  0.9107 -0.7289
  306TIP3    H222554   5.820   4.113   8.233 -1.4034 -1.6653  1.2390
  307TIP3   OH222555   0.373   4.086   0.145  0.1847  0.3943  0.2197
  307TIP3    H122556   0.385   4.096   0.240  0.4170 -2.6035  0.6022
  307TIP3    H222557   0.441   4.140   0.107  0.8407  0.7636  1.8177
  308TIP3   OH222558   1.700   0.497   8.487 -0.0415 -0.0316  0.3692
  308TIP3    H122559   1.680   0.561   8.418 -0.7357 -0.8488 -0.2225
  308TIP3    H222560   1.770   0.443   8.450 -0.0429 -0.1337  0.5167
  309TIP3   OH222561   0.279   6.056   0.327 -0.3534 -0.5693  0.0592
  309TIP3    H122562   0.312   5.984   0.382  0.8146  0.7271  1.1457
  309TIP3    H222563   0.193   6.077   0.364 -0.1058 -0.5233  0.6242
  310TIP3   OH222564   4.542   5.052   2.248 -0.4824  0.0343 -0.3326
  310TIP3    H122565   4.618   5.108   2.237 -0.9493  0.8100  0.2980
  310TIP3    H222566   4.557   5.007   2.332 -0.6641  0.1021 -0.2636
  311TIP3   OH222567   3.038   3.263   8.660 -0.1745 -0.2759  0.2094
  311TIP3    H122568   2.971   3.319   8.698 -0.8145 -1.5279  0.9863
  311TIP3    H222569   3.111   3.322   8.642 -0.4665  0.6533  1.8744
  312TIP3   OH222570   5.230   6.452   2.000 -0.5353  0.0247 -0.4181
  312TIP3    H122571   5.169   6.403   1.945  1.4297 -0.0922 -2.6704
  312TIP3    H222572   5.255   6.527   1.947  2.6794 -0.9385 -0.4809
  313TIP3   OH222573   5.117   6.189   7.700  0.1344 -0.4930  0.4027
  313TIP3    H122574   5.024   6.210   7.707  0.2834  0.0587  0.8383
  313TIP3    H222575   5.151   6.205   7.788  0.0709 -3.5854  1.1137
  314TIP3   OH222576   5.212   0.516   8.134 -0.1798  0.3264  0.2689
  314TIP3    H122577   5.132   0.513   8.186 -1.0445 -1.1190 -1.0253
  314TIP3    H222578   5.182   0.497   8.045  1.5818 -0.0061 -0.2839
  315TIP3   OH222579   0.790   0.808   8.789  0.3319 -0.3594 -0.0825
  315TIP3    H122580   0.806   0.797   8.695  2.0809  1.2644 -0.0235
  315TIP3    H222581   0.841   0.739   8.830  3.2122  1.5192 -0.1897
  316TIP3   OH222582   2.559   1.795   0.083 -0.1471  0.0807  0.3287
  316TIP3    H122583   2.475   1.841   0.091  0.4388  1.0387  1.1846
  316TIP3    H222584   2.537   1.702   0.087 -1.4644  0.1859 -2.1928
  317TIP3   OH222585   3.126   4.086   2.164 -0.7370 -0.6068 -0.1809
  317TIP3    H122586   3.069   4.152   2.204 -1.8427 -1.6267  0.0034
  317TIP3    H222587   3.088   4.002   2.191  2.2463 -1.4356  1.9397
  318TIP3   OH222588   4.029   6.059   1.686 -0.2659 -0.7171 -0.2278
  318TIP3    H122589   3.978   6.135   1.713  1.4635 -0.0331  1.3720
  318TIP3    H222590   4.119   6.091   1.681  0.0992 -1.9373 -2.6565
  319TIP3   OH222591   3.659   0.980   0.141  0.1725 -0.1326 -0.1250
  319TIP3    H122592   3.593   1.046   0.125  1.6210  1.2698 -0.5800
  319TIP3    H222593   3.705   0.971   0.057  1.5500  0.0980  0.5774
  320TIP3   OH222594   6.412   0.101   8.126  0.4086 -0.1833  0.2705
  320TIP3    H122595   6.454   0.014   8.128  0.8711 -0.0331 -1.4602
  320TIP3    H222596   6.379   0.113   8.215 -1.7686 -3.1414 -0.0000
  321TIP3   OH222597   4.599   0.251   8.055 -0.2991  0.1048  0.0108
  321TIP3    H122598   4.537   0.177   8.055  0.2062 -0.3190 -0.6395
  321TIP3    H222599   4.685   0.210   8.062 -0.1001  0.7237  1.7683
  322TIP3   OH222600   1.801   1.639   0.430 -0.2200  0.0334  0.5731
  322TIP3    H122601   1.752   1.606   0.355  2.4520 -0.9487 -0.8816
  322TIP3    H222602   1.822   1.730   0.407 -2.6714  1.0693  1.9964
  323TIP3   OH222603   5.005   6.208   8.132 -0.5283 -0.1681 -0.0751
  323TIP3    H122604   5.008   6.228   8.226  2.9380  1.0748 -0.3006
  323TIP3    H222605   4.949   6.276   8.095 -0.1472  0.7015  0.8714
  324TIP3   OH222606   2.293   6.481   8.289  0.2682 -0.0366  0.5117
  324TIP3    H122607   2.327   6.555   8.238 -0.8295  2.3521  2.9814
  324TIP3    H222608   2.369   6.423   8.301  0.8702 -0.0277 -2.5226
  325TIP3   OH222609   6.796   3.585   7.846  0.0669 -0.0141  0.5285
  325TIP3    H122610   6.778   3.503   7.890  1.0970 -1.3827 -1.4432
  325TIP3    H222611   6.753   3.576   7.761  1.0274  1.0690 -0.1024
  326TIP3   OH222612   5.037   3.631   7.992  0.5670  0.2870 -0.1973
  326TIP3    H122613   4.997   3.718   7.992 -0.2940 -0.0824  0.6470
  326TIP3    H222614   5.013   3.594   8.077  1.1522 -0.6686 -0.4327
  327TIP3   OH222615   1.516   5.489   0.063 -0.4083  0.5610  0.3426
  327TIP3    H122616   1.533   5.553  -0.006 -1.3403  0.3325 -0.1099
  327TIP3    H222617   1.421   5.491   0.076 -0.6318 -1.6522 -0.6166
  328TIP3   OH222618   1.148   1.010   8.795  0.1290  0.5157  0.4537
  328TIP3    H122619   1.208   0.972   8.860 -0.3867  0.0345  0.6532
  328TIP3    H222620   1.137   1.101   8.823 -0.6460  0.1233  1.4508
  329TIP3   OH222621   0.094   1.055   8.407 -0.1237  0.1269 -0.4675
  329TIP3    H122622   0.140   1.033   8.488  1.1091  2.2660 -0.5228
  329TIP3    H222623   0.129   0.995   8.342  0.9002  0.1902  0.0135
  330TIP3   OH222624   4.486   0.729   0.405  0.3291 -0.0590  0.8436
  330TIP3    H122625   4.433   0.651   0.421 -0.3567 -0.0232 -1.0516
  330TIP3    H222626   4.426   0.803   0.417 -0.3311 -0.0414 -1.9909
  331TIP3   OH222627   3.045   1.211   1.268  0.0493  0.7713  0.1557
  331TIP3    H122628   3.085   1.207   1.181 -0.1356 -3.2475  0.0664
  331TIP3    H222629   3.116   1.187   1.328 -0.7433 -0.6035  0.5997
  332TIP3   OH222630   0.928   2.869   8.153 -0.2094 -0.1803  0.2536
  332TIP3    H122631   0.854   2.905   8.103 -1.0271 -1.4367  0.5044
  332TIP3    H222632   0.993   2.939   8.153 -0.5756  0.2272 -1.7189
  333TIP3   OH222633   1.895   5.600   0.644  0.7843 -0.0441  0.1939
  333TIP3    H122634   1.802   5.611   0.662  0.2186 -0.8244 -1.9051
  333TIP3    H222635   1.926   5.687   0.620  0.5496  0.1638  0.6290
  334TIP3   OH222636   4.507   0.875   2.262  0.1769  0.3570 -0.2771
  334TIP3    H122637   4.479   0.822   2.336 -0.9948  1.1500 -0.1219
  334TIP3    H222638   4.602   0.871   2.264  0.1872  0.7026  1.5363
  335TIP3   OH222639   6.390   4.374   1.196  1.1832 -0.3403 -0.1268
  335TIP3    H122640   6.443   4.363   1.116  3.7692  1.8050  1.1360
  335TIP3    H222641   6.403   4.465   1.221  0.8251 -1.0321  2.9831
  336TIP3   OH222642   5.020   1.752   8.422 -0.8156  0.2431  0.0119
  336TIP3    H122643   5.052   1.840   8.438  0.1315 -0.3405  1.5362
  336TIP3    H222644   5.072   1.696   8.480 -1.7272 -1.2606 -0.5534
  337TIP3   OH222645   5.982   5.365   2.951  0.0736  0.0505  0.4605
  337TIP3    H122646   5.911   5.393   2.894  1.7869 -0.1330 -1.9325
  337TIP3    H222647   6.052   5.429   2.937  2.1060 -2.2921 -1.0482
  338TIP3   OH222648   0.600   2.940   2.182 -0.4411  0.2476 -0.6235
  338TIP3    H122649   0.514   2.976   2.162 -0.9799  0.0127  1.1190
  338TIP3    H222650   0.650   3.015   2.216 -0.4079  0.0939 -0.3310
  339TIP3   OH222651   4.493   0.905   1.257 -0.8997  0.1160  0.2165
  339TIP3    H122652   4.462   0.817   1.277  0.9756 -0.9099 -1.0297
  339TIP3    H222653   4.439   0.933   1.183  0.1060 -1.0646 -1.0182
  340TIP3   OH222654   4.756   6.642   7.994 -0.4924  0.5263  0.8213
  340TIP3    H122655   4.717   6.722   7.958  0.4122  1.3309  1.5795
  340TIP3    H222656   4.683   6.581   8.002 -1.0168  0.8880 -0.7843
  341TIP3   OH222657   0.583   5.143   8.255 -0.1576  0.8106  0.1885
  341TIP3    H122658   0.587   5.234   8.285  0.2765  0.7926  0.2009
  341TIP3    H222659   0.565   5.149   8.162  0.2850  0.9270  0.1071
  342TIP3   OH222660   3.815   3.840   1.913 -0.0894  0.4116  0.1013
  342TIP3    H122661   3.769   3.911   1.869  0.2865  0.3727 -0.3594
  342TIP3    H222662   3.854   3.880   1.990  0.4548  0.7922 -0.3701
  343TIP3   OH222663   4.705   4.785   8.684  0.2523  0.3810  0.2422
  343TIP3    H122664   4.714   4.818   8.595 -1.6494 -0.8023 -0.4581
  343TIP3    H222665   4.766   4.712   8.689 -1.4051 -1.2032 -1.0358
  344TIP3   OH222666   1.431   4.831   1.565  0.0855  0.6523 -0.4246
  344TIP3    H122667   1.525   4.823   1.585  0.4568 -0.4369 -2.3402
  344TIP3    H222668   1.416   4.925   1.557  1.0653  0.8313 -0.2753
  345TIP3   OH222669   3.645   3.331   8.029  0.1182 -0.4885 -0.2845
  345TIP3    H122670   3.691   3.259   8.071 -2.9716 -2.1273  0.5889
  345TIP3    H222671   3.598   3.375   8.100  0.6811  1.4594 -1.0380
  346TIP3   OH222672   2.799   1.947   1.078  0.2129  0.0917 -0.0021
  346TIP3    H122673   2.714   1.902   1.086 -0.6315  1.5420 -0.3954
  346TIP3    H222674   2.796   1.987   0.991 -0.0405  2.6980  1.1101
  347TIP3   OH222675   0.718   3.995   7.829  0.2725 -0.0218 -0.3895
  347TIP3    H122676   0.668   3.943   7.893 -4.1954  1.9460 -1.8449
  347TIP3    H222677   0.805   3.955   7.829  0.2598 -1.0682  5.7202
  348TIP3   OH222678   6.372   2.138   2.364 -0.4674  0.2790  0.1120
  348TIP3    H122679   6.408   2.122   2.277 -0.1263  0.0394  0.2912
  348TIP3    H222680   6.426   2.208   2.400 -0.2892  0.0415  0.3145
  349TIP3   OH222681   6.204   6.198   8.684 -0.4568  0.0239  0.4662
  349TIP3    H122682   6.159   6.113   8.682 -1.7520  0.6929 -0.2936
  349TIP3    H222683   6.289   6.179   8.724 -0.5022 -1.7225 -0.1752
  350TIP3   OH222684   1.046   4.533   0.847 -0.4963 -0.3472 -0.5483
  350TIP3    H122685   1.023   4.622   0.874 -0.8335 -0.3490 -0.8293
  350TIP3    H222686   1.030   4.531   0.753 -1.3193 -0.9572 -0.4097
  351TIP3   OH222687   3.347   2.811   2.048 -0.4948  0.3223 -0.0319
  351TIP3    H122688   3.406   2.886   2.056 -1.6074  1.1934  0.2706
  351TIP3    H222689   3.380   2.748   2.112 -0.7038  1.3544  1.1238
  352TIP3   OH222690   3.383   3.862   7.243 -0.6486  0.3202  0.0397
  352TIP3    H122691   3.463   3.827   7.203 -2.2167  0.2996 -3.4558
  352TIP3    H222692   3.343   3.915   7.174 -4.4308 -0.9300  1.0523
  353TIP3   OH222693   0.949   3.075   7.300  0.3034 -0.5619 -0.2084
  353TIP3    H122694   0.918   2.986   7.285 -1.0005 -0.4837  1.6279
  353TIP3    H222695   1.020   3.065   7.364 -0.5496 -0.2407  0.8158
  354TIP3   OH222696   1.644   1.999   0.437  0.0548  0.1644 -0.1180
  354TIP3    H122697   1.618   2.058   0.508 -1.2163 -0.1824 -0.2821
  354TIP3    H222698   1.735   1.977   0.457  0.4229  1.8340  0.1713
  355TIP3   OH222699   1.686   4.769   8.067 -0.4288  0.2770  0.1463
  355TIP3    H122700   1.698   4.702   8.000  0.6970 -0.7763  1.3465
  355TIP3    H222701   1.596   4.758   8.097 -0.6203  0.0933 -0.4858
  356TIP3   OH222702   4.730   2.885   8.395  0.0239  0.4082 -0.4405
  356TIP3    H122703   4.822   2.904   8.377 -0.1341  0.6156 -1.0612
  356TIP3    H222704   4.687   2.893   8.310 -0.5884  0.4194 -0.1350
  357TIP3   OH222705   2.528   2.136   6.949 -0.1417  0.1120 -0.0450
  357TIP3    H122706   2.587   2.211   6.954  0.7936 -0.6523  0.7630
  357TIP3    H222707   2.443   2.171   6.973 -0.0286  1.2228 -1.1564
  358TIP3   OH222708   3.529   6.402   8.894  0.2094  0.0029 -0.5575
  358TIP3    H122709   3.618   6.434   8.881  0.5140 -0.8328 -0.6502
  358TIP3    H222710   3.487   6.467   8.949  1.1844 -0.0616  0.2859
  359TIP3   OH222711   5.610   5.799   0.734  0.0102  0.1178  0.3500
  359TIP3    H122712   5.593   5.860   0.662  0.3323 -0.9921 -0.7069
  359TIP3    H222713   5.683   5.745   0.702  1.1150  0.5061  2.0880
  360TIP3   OH222714   4.652   2.902   6.812  0.1767  0.4743 -0.6043
  360TIP3    H122715   4.656   2.905   6.716  1.5815  1.2646 -0.5546
  360TIP3    H222716   4.584   2.965   6.835  1.5732  2.2249 -1.0387
  361TIP3   OH222717   4.486   3.635   8.694 -0.4217  0.2326  0.5517
  361TIP3    H122718   4.484   3.592   8.609  1.0765  0.4975  0.3518
  361TIP3    H222719   4.441   3.719   8.680 -1.1350 -0.1883  0.3067
  362TIP3   OH222720   2.439   3.665   8.721  0.3684 -0.0352  0.1253
  362TIP3    H122721   2.514   3.615   8.689 -2.5338 -4.3183 -0.8517
  362TIP3    H222722   2.454   3.672   8.815  1.5773 -1.7360  0.1122
  363TIP3   OH222723   4.954   1.517   2.488  0.7750  0.4035  0.0618
  363TIP3    H122724   4.983   1.607   2.507  0.4231  0.5695 -0.1800
  363TIP3    H222725   4.884   1.528   2.424 -0.8251  0.1084  1.7122
  364TIP3   OH222726   3.986   3.038   2.077 -0.5362  0.1049 -0.5521
  364TIP3    H122727   4.008   2.953   2.040  2.3226 -0.3377  1.7928
  364TIP3    H222728   3.995   3.026   2.171 -2.4786  2.4264  0.0133
  365TIP3   OH222729   5.942   0.662   2.432  0.2531  0.7705  0.5329
  365TIP3    H122730   5.993   0.628   2.359  0.8094  1.6101  0.5218
  365TIP3    H222731   5.995   0.644   2.510 -0.3442 -0.1390  0.7533
  366TIP3   OH222732   1.927   2.353   8.400  0.3343 -0.2112 -0.1655
  366TIP3    H122733   1.915   2.292   8.327  0.5075 -1.4964  0.8602
  366TIP3    H222734   2.012   2.394   8.383 -0.1857  0.4552 -1.3359
  367TIP3   OH222735   5.638   2.744   0.697  0.1103 -0.4422 -0.0162
  367TIP3    H122736   5.617   2.697   0.778  2.0338 -1.7554 -0.2211
  367TIP3    H222737   5.647   2.835   0.724 -2.2275 -0.3435  0.6671
  368TIP3   OH222738   2.386   3.370   2.630 -0.5124 -0.0946  0.2201
  368TIP3    H122739   2.447   3.320   2.685  0.7082 -0.6729 -1.5296
  368TIP3    H222740   2.390   3.325   2.545 -1.8274  1.1182 -0.5165
  369TIP3   OH222741   6.774   1.248   1.761 -0.5388  0.4091 -0.0440
  369TIP3    H122742   6.683   1.236   1.733 -1.4139  0.1597  2.6568
  369TIP3    H222743   6.769   1.261   1.855  2.3116 -0.3167  0.3015
  370TIP3   OH222744   1.360   2.734   1.548  0.7025 -0.2106 -0.1217
  370TIP3    H122745   1.392   2.824   1.537 -1.7613  0.5783 -1.4970
  370TIP3    H222746   1.397   2.706   1.632  0.2114  2.7216  1.2091
  371TIP3   OH222747   3.998   5.436   8.302 -0.2180  0.3102 -0.7012
  371TIP3    H122748   4.033   5.373   8.239 -0.7665  0.5937 -1.3011
  371TIP3    H222749   4.074   5.461   8.355 -0.0284 -1.0210 -0.2883
  372TIP3   OH222750   2.770   1.996   8.261 -0.0188  0.4931  0.7358
  372TIP3    H122751   2.792   2.015   8.352  0.5727  1.3209  0.4299
  372TIP3    H222752   2.674   2.003   8.258 -0.0581  0.2575  1.3382
  373TIP3   OH222753   3.532   0.879   1.769 -0.1464 -0.2933  0.3589
  373TIP3    H122754   3.625   0.860   1.780  0.0092  0.1624 -0.1460
  373TIP3    H222755   3.511   0.849   1.681 -0.5647 -0.7117  0.5944
  374TIP3   OH222756   0.090   0.971   8.028 -0.3220  0.4659  0.4659
  374TIP3    H122757   0.122   0.946   8.115 -0.5855 -1.7546 -0.0106
  374TIP3    H222758   0.169   0.989   7.977  0.0695 -1.5914  0.2576
  375TIP3   OH222759   3.702   1.059   2.892  0.6222 -0.3324  0.1671
  375TIP3    H122760   3.645   0.983   2.882 -0.6464  0.7276 -0.9229
  375TIP3    H222761   3.643   1.132   2.908  1.8828  0.0708  4.4741
  376TIP3   OH222762   5.184   0.385   0.572 -0.2496  0.7127 -0.0021
  376TIP3    H122763   5.090   0.405   0.575 -0.0634  1.8000 -0.8529
  376TIP3    H222764   5.216   0.430   0.494  1.1419  1.0504  0.7131
  377TIP3   OH222765   4.641   2.452   2.252  0.8891 -0.0215 -0.6246
  377TIP3    H122766   4.640   2.540   2.289 -1.2730 -0.0325 -0.5310
  377TIP3    H222767   4.626   2.464   2.159  0.4365 -0.2876 -0.5906
  378TIP3   OH222768   3.908   1.697   8.802 -0.4403 -0.9806  0.4459
  378TIP3    H122769   3.872   1.766   8.858  1.2676  0.2280  0.1303
  378TIP3    H222770   3.855   1.620   8.822 -2.0813  0.2805  1.1898
  379TIP3   OH222771   1.596   0.163   8.894  0.1279 -0.9392 -0.6290
  379TIP3    H122772   1.635   0.229   8.836  0.4662 -0.8906 -0.3524
  379TIP3    H222773   1.535   0.115   8.838 -1.8559  1.0677 -0.3306
  380TIP3   OH222774   6.650   5.845   0.638 -0.6615  0.3132  0.0009
  380TIP3    H122775   6.687   5.886   0.717 -0.3329  1.3164 -0.6459
  380TIP3    H222776   6.721   5.849   0.574 -1.9867  2.8339 -1.4716
  381TIP3   OH222777   4.671   3.423   2.723  0.1257  0.2163 -0.9161
  381TIP3    H122778   4.745   3.439   2.782  0.5797 -0.0249 -1.4135
  381TIP3    H222779   4.702   3.356   2.663 -0.4010  0.3221 -1.3124
  382TIP3   OH222780   5.277   5.876   0.520 -0.8603 -0.0744 -0.4595
  382TIP3    H122781   5.337   5.943   0.551  0.2230 -1.7955  1.4825
  382TIP3    H222782   5.192   5.903   0.553 -0.2795 -0.1006  1.1748
  383TIP3   OH222783   6.580   3.915   8.780 -0.5843 -0.2636 -0.2432
  383TIP3    H122784   6.596   4.009   8.791 -0.6491 -0.3457  0.6305
  383TIP3    H222785   6.636   3.874   8.845 -1.0400 -0.7917 -0.1785
  384TIP3   OH222786   3.357   0.427   0.144  0.6462  0.0043  0.2914
  384TIP3    H122787   3.385   0.518   0.152  0.5915 -0.0659  1.5046
  384TIP3    H222788   3.422   0.378   0.195  0.7871 -0.6622 -0.5111
  385TIP3   OH222789   5.971   2.843   0.459  0.3536 -0.2095 -0.1527
  385TIP3    H122790   5.942   2.934   0.472 -0.5404 -0.5949  0.6846
  385TIP3    H222791   6.035   2.848   0.388  1.9670  1.3692  1.3241
  386TIP3   OH222792   2.916   5.612   7.803  0.0925  0.3582 -0.6792
  386TIP3    H122793   2.871   5.560   7.737 -0.4140 -1.4329  0.9918
  386TIP3    H222794   2.964   5.678   7.752 -0.4314 -0.7826 -2.7933
  387TIP3   OH222795   4.561   5.651   8.269 -0.2881  0.0688 -0.2959
  387TIP3    H122796   4.521   5.583   8.215  0.3210  0.8989 -1.8419
  387TIP3    H222797   4.528   5.733   8.234  0.8611  0.6705 -0.0348
  388TIP3   OH222798   4.364   4.501   1.754 -0.4712  1.1848  0.8655
  388TIP3    H122799   4.397   4.450   1.681 -0.9595  0.3734  1.1979
  388TIP3    H222800   4.278   4.532   1.725 -0.7142  0.7685  1.1272
  389TIP3   OH222801   1.935   4.249   1.180  0.4875  0.7784  0.0931
  389TIP3    H122802   1.882   4.170   1.165  0.6992  0.4545  0.9617
  389TIP3    H222803   2.007   4.242   1.118  0.3579  0.4207 -0.0184
  390TIP3   OH222804   0.998   6.797   0.182 -0.4232  0.3976 -0.4322
  390TIP3    H122805   1.085   6.821   0.150  0.8030 -0.9103  1.6847
  390TIP3    H222806   0.954   6.757   0.107  1.6661 -0.9676 -0.9940
  391TIP3   OH222807   5.054   4.315   8.914  0.0797 -0.4229  0.2361
  391TIP3    H122808   5.044   4.405   8.882  0.8402 -0.3014  0.3382
  391TIP3    H222809   5.146   4.308   8.940  0.7419 -2.0038 -2.1661
  392TIP3   OH222810   5.002   1.530   1.800 -0.1372 -0.3835  0.0779
  392TIP3    H122811   4.955   1.506   1.880  1.1928  0.2552  1.0943
  392TIP3    H222812   4.963   1.613   1.773 -1.0577 -0.9363 -0.3585
  393TIP3   OH222813   4.760   4.278   0.691 -0.1410  0.1485 -0.3185
  393TIP3    H122814   4.669   4.256   0.711 -0.4869  1.8119  0.1898
  393TIP3    H222815   4.793   4.315   0.773  0.9406 -0.2799 -0.5521
  394TIP3   OH222816   2.621   3.871   7.695  0.6739 -0.5463 -0.5705
  394TIP3    H122817   2.694   3.917   7.737 -2.0333  3.1267  0.6829
  394TIP3    H222818   2.577   3.824   7.766 -1.6494  2.4966  0.2416
  395TIP3   OH222819   6.788   0.541   1.963 -0.4909 -0.4480  0.6144
  395TIP3    H122820   6.735   0.534   2.042 -2.7752  1.5752 -0.6040
  395TIP3    H222821   6.842   0.618   1.977 -1.0219  0.0140  0.1781
  396TIP3   OH222822   4.526   2.034   0.259  0.5142  0.5820  0.1817
  396TIP3    H122823   4.494   2.103   0.201  1.5296  1.4990  0.6939
  396TIP3    H222824   4.479   2.047   0.341  2.2498  2.0599  1.0050
  397TIP3   OH222825   0.800   5.599   7.974  0.2453  0.5396 -0.5158
  397TIP3    H122826   0.794   5.695   7.972  0.8252  0.7422  2.8568
  397TIP3    H222827   0.744   5.573   8.047  2.6429 -1.3795  0.7605
  398TIP3   OH222828   2.017   6.449   2.737  0.5438  0.0992  0.2264
  398TIP3    H122829   2.080   6.491   2.796 -2.0850  0.2724  3.2322
  398TIP3    H222830   1.944   6.511   2.733  0.9213  0.5889 -4.3087
  399TIP3   OH222831   0.553   0.604   2.297 -0.1461 -0.4768  1.0357
  399TIP3    H122832   0.562   0.511   2.281  0.0299 -0.4015  0.7034
  399TIP3    H222833   0.608   0.621   2.374  0.9419 -0.3888  0.2518
  400TIP3   OH222834   4.749   6.593   0.548 -0.0327  0.1871  0.1679
  400TIP3    H122835   4.773   6.658   0.614 -0.2570 -0.7394  1.1863
  400TIP3    H222836   4.654   6.599   0.542  0.0520  0.8782 -0.7397
  401TIP3   OH222837   4.051   2.470   8.086 -0.6632  0.1289  0.2506
  401TIP3    H122838   3.956   2.458   8.078 -0.6280 -0.2668  0.3746
  401TIP3    H222839   4.083   2.385   8.118 -0.1690 -0.0090 -0.5738
  402TIP3   OH222840   1.463   4.284   1.854 -0.1785  0.3156 -0.3072
  402TIP3    H122841   1.370   4.267   1.845 -0.4819  1.6877 -0.0372
  402TIP3    H222842   1.468   4.376   1.880  1.2697  0.5003 -1.1002
  403TIP3   OH222843   5.391   2.050   7.607  0.5541  0.2764 -0.3783
  403TIP3    H122844   5.468   2.107   7.617 -0.1209  1.0586  0.5130
  403TIP3    H222845   5.402   1.984   7.675 -1.7615  2.9969  2.9711
  404TIP3   OH222846   4.654   0.801   8.784  0.4809  0.0035 -0.3442
  404TIP3    H122847   4.708   0.753   8.847 -0.1376  0.3724  0.4875
  404TIP3    H222848   4.608   0.733   8.735  0.6295 -0.2829 -0.0894
  405TIP3   OH222849   6.284   1.332   8.199  0.0402 -0.1688  0.0231
  405TIP3    H122850   6.229   1.409   8.188  2.1038  1.0193 -4.0710
  405TIP3    H222851   6.335   1.350   8.278 -1.9466  0.9053  1.1503
  406TIP3   OH222852   0.085   6.399   1.623  0.3292 -0.0781  0.1461
  406TIP3    H122853   0.122   6.316   1.653  1.1863  0.2560  0.0372
  406TIP3    H222854   0.159   6.459   1.621 -0.0382  0.3608 -0.9965
  407TIP3   OH222855   0.011   2.329   0.135 -0.1038 -0.3230 -0.3451
  407TIP3    H122856   0.093   2.280   0.144  0.1858  0.0665 -0.7941
  407TIP3    H222857   0.035   2.406   0.083 -0.2749  0.9549  1.3754
  408TIP3   OH222858   6.133   5.084   0.428  0.7072 -0.8993 -0.0310
  408TIP3    H122859   6.121   5.031   0.506  0.7048  0.5136  0.9745
  408TIP3    H222860   6.214   5.051   0.389  0.4805 -1.9043  0.3216
  409TIP3   OH222861   3.640   0.426   1.452  0.2189 -0.4061  0.5194
  409TIP3    H122862   3.593   0.405   1.533  0.6451  0.3744  0.9807
  409TIP3    H222863   3.689   0.346   1.431  0.3437 -0.5158  1.2070
  410TIP3   OH222864   4.189   4.152   0.600  0.1816 -0.4929  0.0144
  410TIP3    H122865   4.200   4.215   0.670  0.6164  0.4249 -0.8576
  410TIP3    H222866   4.195   4.203   0.519  1.1705 -1.7116 -0.7356
  411TIP3   OH222867   4.965   0.558   0.174 -0.5317 -0.8033 -0.3619
  411TIP3    H122868   4.887   0.560   0.230 -0.8952 -0.4659 -0.8699
  411TIP3    H222869   4.934   0.588   0.089  0.4942  0.9503 -0.1567
  412TIP3   OH222870   1.549   2.720   0.970  0.1533 -0.5058 -0.1131
  412TIP3    H122871   1.482   2.743   1.035 -1.0111 -1.3156 -0.9903
  412TIP3    H222872   1.500   2.689   0.894  1.5339 -1.4337 -0.6763
  413TIP3   OH222873   3.037   0.266   8.275  0.5196 -0.2759  0.2688
  413TIP3    H122874   2.986   0.226   8.205 -2.1395  2.0785  0.6366
  413TIP3    H222875   3.097   0.326   8.230  0.1395 -0.1437 -0.0655
  414TIP3   OH222876   2.987   1.043   1.850  0.1627 -0.0673  0.4199
  414TIP3    H122877   2.954   0.955   1.831 -3.5368  1.2796 -0.3744
  414TIP3    H222878   2.977   1.053   1.944 -1.3430  0.0903  0.2718
  415TIP3   OH222879   0.074   4.978   8.256  0.1036 -0.1458  0.4318
  415TIP3    H122880   0.166   4.992   8.233 -0.3544  0.5617 -1.0874
  415TIP3    H222881   0.025   5.009   8.180 -1.4774  0.8946  1.8089
  416TIP3   OH222882   4.745   5.794   1.316  0.1894  0.0035  0.0356
  416TIP3    H122883   4.678   5.833   1.259  0.1775  1.3843  0.9467
  416TIP3    H222884   4.795   5.869   1.348  1.8361 -0.9703 -0.1936
  417TIP3   OH222885   6.556   5.391   1.498 -0.3752  0.0767 -0.3751
  417TIP3    H122886   6.480   5.333   1.499  0.6926 -1.3999 -0.3025
  417TIP3    H222887   6.536   5.456   1.431 -1.1596 -1.0490 -1.2638
  418TIP3   OH222888   4.510   3.751   0.806  0.4539 -0.0653 -0.2907
  418TIP3    H122889   4.483   3.774   0.717  0.3534 -0.8763 -0.4820
  418TIP3    H222890   4.463   3.670   0.824  1.6890 -0.7551 -0.1053
  419TIP3   OH222891   4.411   1.244   7.903  0.1379  0.5562  0.1479
  419TIP3    H122892   4.478   1.277   7.843  0.3578  2.4725  1.3820
  419TIP3    H222893   4.459   1.217   7.981 -0.1821 -1.6206 -0.3657
  420TIP3   OH222894   2.421   4.752   7.776 -0.1213 -0.7480 -0.3153
  420TIP3    H122895   2.445   4.667   7.740 -1.1140 -1.2304  0.1305
  420TIP3    H222896   2.347   4.734   7.834 -1.9362  0.7122 -2.0200
  421TIP3   OH222897   0.004   2.708   2.591  0.0700  0.3859 -0.6425
  421TIP3    H122898  -0.059   2.640   2.568  0.0239  0.6496 -1.3172
  421TIP3    H222899   0.075   2.661   2.634 -0.4274  0.0438 -0.1858
  422TIP3   OH222900   5.772   2.390   0.397  0.2632  0.6045  0.1604
  422TIP3    H122901   5.848   2.431   0.356  1.2309 -0.6997  0.5712
  422TIP3    H222902   5.771   2.424   0.486  0.1894  0.8299  0.0754
  423TIP3   OH222903   1.182   3.222   2.630  0.0103 -0.2086  0.0821
  423TIP3    H122904   1.105   3.221   2.686  1.7635 -2.8688  2.7370
  423TIP3    H222905   1.252   3.257   2.685  1.4042 -0.9140 -1.1501
  424TIP3   OH222906   5.064   5.128   7.606  0.2771 -0.2522  0.3386
  424TIP3    H122907   5.006   5.140   7.680 -0.0925  0.6453 -0.0823
  424TIP3    H222908   5.065   5.213   7.561  1.7646 -0.2954  0.2277
  425TIP3   OH222909   5.682   2.782   1.104  0.4965 -0.2895 -0.1303
  425TIP3    H122910   5.615   2.849   1.090  0.6946 -0.2010 -0.7023
  425TIP3    H222911   5.761   2.820   1.066  0.9428 -0.2719  0.8066
  426TIP3   OH222912   2.766   2.821   7.745 -0.3648 -0.3365  0.4217
  426TIP3    H122913   2.832   2.886   7.768 -0.0696 -0.0548 -1.0930
  426TIP3    H222914   2.802   2.738   7.776 -0.3734  0.0934  1.6408
  427TIP3   OH222915   1.834   2.205   8.157  0.3777 -0.1621  0.0148
  427TIP3    H122916   1.835   2.116   8.192  1.6015  0.0620  0.6008
  427TIP3    H222917   1.847   2.194   8.063  0.7404 -0.6061  0.1096
  428TIP3   OH222918   5.545   2.102   2.228  0.3692  0.1670 -0.6841
  428TIP3    H122919   5.614   2.087   2.293  0.0202 -0.0286 -0.3562
  428TIP3    H222920   5.511   2.015   2.209  0.1064  0.2801 -0.7308
  429TIP3   OH222921   6.731   0.212   8.280 -0.1871  0.2378  0.5293
  429TIP3    H122922   6.694   0.230   8.194  0.7550 -0.4944 -0.0451
  429TIP3    H222923   6.791   0.139   8.266  1.3122  1.2470  1.4630
  430TIP3   OH222924   6.208   4.236   1.016  0.0459  0.2825 -0.6113
  430TIP3    H122925   6.168   4.312   0.972  0.6167 -0.2453 -2.1063
  430TIP3    H222926   6.237   4.270   1.100 -1.8812  1.1258 -0.2174
  431TIP3   OH222927   4.972   2.159   7.603 -0.2367  0.3673 -0.2199
  431TIP3    H122928   5.039   2.114   7.552  1.5336  1.4009  1.0963
  431TIP3    H222929   4.892   2.152   7.550  0.7790 -1.2929 -1.6168
  432TIP3   OH222930   5.259   0.702   8.383 -0.3478 -0.1988  0.5105
  432TIP3    H122931   5.281   0.611   8.402 -0.0436 -0.3941 -0.7237
  432TIP3    H222932   5.163   0.703   8.376 -0.5520  0.0223  2.6568
  433TIP3   OH222933   0.501   4.763   8.059  0.1851  0.4089 -0.0590
  433TIP3    H122934   0.445   4.728   7.989  0.7693 -1.2065  0.2403
  433TIP3    H222935   0.496   4.698   8.129  0.4241  1.5059  1.0088
  434TIP3   OH222936   5.943   4.042   7.045  0.0463  0.3089 -0.1438
  434TIP3    H122937   5.855   4.049   7.008 -0.1116 -0.6919  0.0166
  434TIP3    H222938   5.929   4.022   7.138  0.4316 -0.5419 -0.2607
  435TIP3   OH222939   0.688   4.121   1.227  0.6028 -0.0927  0.7472
  435TIP3    H122940   0.753   4.192   1.233  0.9359 -0.3815  0.5797
  435TIP3    H222941   0.711   4.063   1.300  0.2382  0.0446  0.9737
  436TIP3   OH222942   5.806   5.581   0.041 -0.1571 -0.4564  0.2123
  436TIP3    H122943   5.852   5.524  -0.020  1.2631  0.8890 -0.0525
  436TIP3    H222944   5.718   5.544   0.048  0.7364 -2.7440  0.2010
  437TIP3   OH222945   0.469   1.882   7.755 -0.4978  0.3653 -0.1710
  437TIP3    H122946   0.444   1.919   7.670 -2.9546  2.6610  1.3884
  437TIP3    H222947   0.398   1.821   7.776 -0.2194  0.2615  0.4766
  438TIP3   OH222948   4.022   6.158   7.717 -0.2379 -0.3224 -0.1178
  438TIP3    H122949   4.089   6.178   7.783  2.7887 -0.9906 -2.7489
  438TIP3    H222950   3.977   6.081   7.751 -2.2564  2.1239  3.3673
  439TIP3   OH222951   2.209   2.397   8.329 -0.2457 -0.1945  0.3076
  439TIP3    H122952   2.287   2.433   8.370  0.6510 -0.6137 -0.9610
  439TIP3    H222953   2.202   2.444   8.246  0.1624 -1.9197 -0.7638
  440TIP3   OH222954   6.467   3.725   0.212 -0.6537 -0.2813 -0.0696
  440TIP3    H122955   6.523   3.802   0.207  0.8186 -1.2731  0.5133
  440TIP3    H222956   6.396   3.751   0.272  0.7463  0.1090  1.4967
  441TIP3   OH222957   6.414   1.174   0.813  0.0894  0.1901 -0.0962
  441TIP3    H122958   6.505   1.165   0.842 -0.3474 -1.4854  0.8978
  441TIP3    H222959   6.371   1.094   0.843 -1.8394  1.1639 -0.0852
  442TIP3   OH222960   1.224   0.019   0.382 -0.0963  0.3066  0.8432
  442TIP3    H122961   1.250   0.022   0.290 -0.5679  0.1109  0.6998
  442TIP3    H222962   1.306   0.023   0.430  0.1176  1.1695  0.4304
  443TIP3   OH222963   1.998   3.626   8.776  0.2426 -0.1897 -0.1006
  443TIP3    H122964   2.046   3.665   8.849  0.2201  0.0437 -0.2082
  443TIP3    H222965   1.966   3.701   8.726 -1.4504 -0.3106  0.7323
  444TIP3   OH222966   2.416   3.022   1.264 -0.2502  0.1884  0.4297
  444TIP3    H122967   2.433   2.975   1.183 -2.7928 -1.0962  0.5297
  444TIP3    H222968   2.447   2.963   1.333 -2.5298 -1.0126  0.5137
  445TIP3   OH222969   5.272   5.072   2.175  0.1223 -0.3110  0.1164
  445TIP3    H122970   5.299   5.076   2.083 -1.6149  1.6201 -0.3805
  445TIP3    H222971   5.340   5.120   2.221 -1.0271  2.3633 -0.7895
  446TIP3   OH222972   5.607   6.281   0.774  0.2440  0.0194  0.5156
  446TIP3    H122973   5.658   6.315   0.700 -1.5889 -0.6969 -1.1394
  446TIP3    H222974   5.598   6.356   0.833 -0.2233  1.2854 -1.0974
  447TIP3   OH222975   1.607   3.739   0.523  0.0027  0.4897 -0.2267
  447TIP3    H122976   1.698   3.714   0.539  0.1952  0.7396 -0.8958
  447TIP3    H222977   1.564   3.729   0.608  0.1698 -1.5917 -0.3406
  448TIP3   OH222978   3.788   1.420   8.833 -0.1902  0.5060  0.8602
  448TIP3    H122979   3.781   1.375   8.917 -1.1221 -0.3103  0.3667
  448TIP3    H222980   3.849   1.368   8.782 -0.9927 -0.0292  0.4161
  449TIP3   OH222981   0.324   1.936   8.594 -0.3799  0.1129 -0.4607
  449TIP3    H122982   0.418   1.930   8.577 -0.5309 -2.0405 -0.7453
  449TIP3    H222983   0.314   1.920   8.688 -0.5795 -2.0683 -0.7934
  450TIP3   OH222984   5.190   2.457   2.777 -0.3410  0.7467  0.2004
  450TIP3    H122985   5.141   2.538   2.764 -0.3206  0.8396  0.6829
  450TIP3    H222986   5.158   2.422   2.860 -1.3132 -0.4468 -0.6425
  451TIP3   OH222987   0.383   1.131   1.112  0.8429 -0.7707  0.2438
  451TIP3    H122988   0.409   1.095   1.027  0.2429 -1.3756  0.3034
  451TIP3    H222989   0.305   1.081   1.136 -0.2244  0.8131  0.1850
  452TIP3   OH222990   1.424   0.094   0.597  0.3337 -0.1713  0.6449
  452TIP3    H122991   1.352   0.132   0.646  1.1258  0.6440  1.2208
  452TIP3    H222992   1.471   0.169   0.561  0.4939 -0.7111 -0.3178
  453TIP3   OH222993   0.190   0.579   1.006  0.0062  0.1848 -0.0212
  453TIP3    H122994   0.206   0.493   1.046 -0.0736 -0.0966 -0.5927
  453TIP3    H222995   0.109   0.609   1.047  2.0858  1.9146  3.4011
  454TIP3   OH222996   4.001   4.151   0.350 -0.0243 -0.0260 -0.0259
  454TIP3    H122997   4.079   4.137   0.296  0.4237 -1.0338  0.8483
  454TIP3    H222998   4.026   4.121   0.437 -0.4974  2.2297  0.9692
  455TIP3   OH222999   1.459   0.136   0.217  0.2048  0.4689  0.1013
  455TIP3    H123000   1.509   0.064   0.255  0.9369  1.0134  0.1950
  455TIP3    H223001   1.486   0.137   0.125 -1.8358 -1.0837 -0.6080
  456TIP3   OH223002   2.151   3.170   8.277  0.2222  0.0048  0.2430
  456TIP3    H123003   2.209   3.207   8.344 -0.2779  1.1629  0.0625
  456TIP3    H223004   2.096   3.108   8.325 -0.1863  0.8762  0.9372
  457TIP3   OH223005   2.074   1.567   2.216 -0.1257  0.0173 -0.1831
  457TIP3    H123006   2.065   1.568   2.311  1.4424 -1.5739  0.0252
  457TIP3    H223007   1.985   1.582   2.183 -0.7159  0.4168  1.5229
  458TIP3   OH223008   4.640   6.588   8.682 -0.1366  0.0987  0.3002
  458TIP3    H123009   4.699   6.608   8.754 -0.5446  0.1816  0.6126
  458TIP3    H223010   4.611   6.498   8.698 -0.7700  0.3505  0.6312
  459TIP3   OH223011   4.854   5.731   8.144  0.1381 -0.4688  0.1122
  459TIP3    H123012   4.878   5.686   8.225 -2.5571 -0.0254  1.2842
  459TIP3    H223013   4.803   5.666   8.095 -0.8170  0.1725  0.2183
  460TIP3   OH223014   4.703   0.046   0.009  0.0777 -0.4805  0.5947
  460TIP3    H123015   4.660   0.123   0.047  2.4721  0.6253  1.2258
  460TIP3    H223016   4.754   0.009   0.081  1.3631 -0.8427 -0.4692
  461TIP3   OH223017   4.175   5.000   8.545  0.3175 -0.1932 -0.2831
  461TIP3    H123018   4.119   5.058   8.492 -1.1747  0.7474  2.1265
  461TIP3    H223019   4.230   5.060   8.595  1.2319 -1.0201 -0.2850
  462TIP3   OH223020   3.180   4.933   8.345 -0.3591 -0.0024 -0.5305
  462TIP3    H123021   3.215   4.846   8.368 -1.3637 -0.0238  1.1016
  462TIP3    H223022   3.115   4.916   8.277 -2.0650 -0.8493  1.2288
  463TIP3   OH223023   2.739   5.643   7.229  0.2718  0.0575  0.4837
  463TIP3    H123024   2.677   5.584   7.187 -0.4081  0.8252  0.3920
  463TIP3    H223025   2.823   5.625   7.185  0.1084 -0.9415  0.5699
  464TIP3   OH223026   5.970   3.209   1.724  0.2306  0.4177  0.4151
  464TIP3    H123027   6.031   3.240   1.657 -1.6698  0.0584 -1.6016
  464TIP3    H223028   5.908   3.281   1.735 -0.3830 -0.1354  0.6173
  465TIP3   OH223029   0.922   6.409   6.959  0.1403  0.5911 -0.1439
  465TIP3    H123030   0.994   6.367   6.911  0.6399  0.6495  0.5383
  465TIP3    H223031   0.935   6.503   6.946  0.1171  0.5988 -0.1117
  466TIP3   OH223032   0.231   5.719   0.323 -0.2905 -0.3194 -0.2646
  466TIP3    H123033   0.302   5.783   0.321  1.4317 -2.1445 -0.7302
  466TIP3    H223034   0.251   5.663   0.398 -0.3763 -1.7585 -1.2740
  467TIP3   OH223035   3.015   6.459   1.731  0.3385  0.1668 -0.1140
  467TIP3    H123036   2.926   6.425   1.737  0.7081 -0.5742  1.5540
  467TIP3    H223037   3.052   6.448   1.818  1.1670  3.0311  0.0144
  468TIP3   OH223038   2.733   3.135   1.503  0.0945 -0.1666 -0.1781
  468TIP3    H123039   2.745   3.211   1.560  0.3274 -0.4695  0.1839
  468TIP3    H223040   2.754   3.167   1.415 -0.8070  0.4512 -0.1857
  469TIP3   OH223041   4.955   3.090   0.686 -0.4511  0.3900 -0.0174
  469TIP3    H123042   5.012   3.165   0.670  1.0556 -0.6156  0.4092
  469TIP3    H223043   4.878   3.127   0.729 -0.1157  1.7849 -0.5457
  470TIP3   OH223044   5.903   2.494   1.201  0.1624 -0.3805 -0.2577
  470TIP3    H123045   5.912   2.416   1.256  0.4804  0.2614  0.6198
  470TIP3    H223046   5.989   2.536   1.205 -0.4097  0.7628  0.4338
  471TIP3   OH223047   0.718   6.688   0.648  0.2526 -0.5250 -0.0617
  471TIP3    H123048   0.770   6.690   0.568 -0.3322 -0.7277 -0.4500
  471TIP3    H223049   0.773   6.733   0.713  0.5783 -0.0418 -0.6619
  472TIP3   OH223050   0.645   2.746   8.485  0.0926 -0.5676 -0.0126
  472TIP3    H123051   0.586   2.806   8.530 -0.0294  0.9929 -2.0902
  472TIP3    H223052   0.630   2.763   8.392  1.9502 -2.0053 -0.6467
  473TIP3   OH223053   2.523   1.693   2.181 -0.4681  0.0873  0.4096
  473TIP3    H123054   2.438   1.664   2.148 -0.4151  0.5944 -0.1923
  473TIP3    H223055   2.584   1.676   2.110 -0.0911 -0.1177  0.7749
  474TIP3   OH223056   3.664   6.285   2.170 -0.0853  0.4705  0.2427
  474TIP3    H123057   3.694   6.331   2.092  1.9472 -0.6917  0.2688
  474TIP3    H223058   3.714   6.203   2.170 -2.0037 -0.7843  1.3310
  475TIP3   OH223059   3.521   0.844   8.243  0.3762  0.0331 -0.3075
  475TIP3    H123060   3.563   0.889   8.317  0.3242  0.4619 -0.5342
  475TIP3    H223061   3.594   0.822   8.185  0.2085  1.8781 -1.2969
  476TIP3   OH223062   4.112   0.520   0.223 -0.1791 -0.1238 -0.1353
  476TIP3    H123063   4.138   0.469   0.300  0.2321  0.7215  0.3037
  476TIP3    H223064   4.156   0.478   0.150  0.6097 -0.0580  0.2936
  477TIP3   OH223065   2.725   4.163   2.063  0.3031  0.4712  0.0381
  477TIP3    H123066   2.765   4.129   2.142  1.0945  1.0268 -0.1175
  477TIP3    H223067   2.717   4.086   2.006 -2.2390 -0.3982  1.3919
  478TIP3   OH223068   5.408   5.667   8.511  0.1926 -0.1765  0.4864
  478TIP3    H123069   5.444   5.632   8.593  0.4262 -2.4676 -0.5144
  478TIP3    H223070   5.482   5.667   8.450 -0.5970 -1.4037 -0.5386
  479TIP3   OH223071   2.283   0.640   8.033  0.1025 -0.1813  0.2278
  479TIP3    H123072   2.268   0.723   7.989  0.0408 -0.5920 -0.5484
  479TIP3    H223073   2.285   0.662   8.126  1.2432  0.8522 -0.0249
  480TIP3   OH223074   5.222   3.889   0.206 -0.8471 -0.7084 -0.0868
  480TIP3    H123075   5.164   3.814   0.217 -1.0828 -0.4919  0.1761
  480TIP3    H223076   5.177   3.960   0.252 -0.6815 -0.3812 -0.4271
  481TIP3   OH223077   4.599   6.118   8.247 -0.4235  0.5363 -0.6776
  481TIP3    H123078   4.629   6.131   8.157 -1.0425  1.3096 -0.7779
  481TIP3    H223079   4.625   6.197   8.293 -0.7589  0.4555 -0.3471
  482TIP3   OH223080   2.205   0.519   1.979 -0.8685  0.0686  0.1209
  482TIP3    H123081   2.178   0.495   1.891  0.5632  0.5624 -0.4677
  482TIP3    H223082   2.272   0.455   2.002 -1.3608 -0.1735  0.9424
  483TIP3   OH223083   3.638   5.559   2.201  0.5597 -0.4835  0.2591
  483TIP3    H123084   3.697   5.492   2.235  0.9766 -0.1605  0.1851
  483TIP3    H223085   3.635   5.542   2.106  0.5189 -0.5061  0.2640
  484TIP3   OH223086   1.312   4.115   8.546  0.0384  0.0853 -0.7077
  484TIP3    H123087   1.368   4.188   8.573  0.2273  0.2127 -1.4226
  484TIP3    H223088   1.313   4.055   8.621  0.6542  0.3665 -0.4838
  485TIP3   OH223089   2.823   1.723   7.808  0.3350  0.5644  0.0934
  485TIP3    H123090   2.845   1.643   7.856  0.4848 -0.1217 -1.0566
  485TIP3    H223091   2.908   1.759   7.783  0.4661  2.8990  3.2949
  486TIP3   OH223092   6.471   1.592   2.061  0.3047 -0.5270  0.0154
  486TIP3    H123093   6.454   1.671   2.009  0.4587 -0.1565  0.5258
  486TIP3    H223094   6.410   1.597   2.134  0.6575 -0.6336  0.3181
  487TIP3   OH223095   6.333   1.177   8.461  0.2463  0.1652  0.1208
  487TIP3    H123096   6.405   1.236   8.440 -0.5848  1.9985  1.9828
  487TIP3    H223097   6.332   1.173   8.557 -1.0540 -1.2040  0.0986
  488TIP3   OH223098   3.532   0.182   8.520  0.2054  0.2229  0.2396
  488TIP3    H123099   3.565   0.112   8.576 -0.8563  0.1674  0.8291
  488TIP3    H223100   3.440   0.159   8.504  0.5466  0.0834 -1.7779
  489TIP3   OH223101   4.028   5.419   7.858 -0.5303  0.0210  0.7000
  489TIP3    H123102   4.039   5.470   7.938  0.2677 -1.1164  1.3607
  489TIP3    H223103   4.117   5.388   7.838 -0.3896  1.6661 -1.6158
  490TIP3   OH223104   4.238   5.911   0.353 -0.3811  0.0642  0.4887
  490TIP3    H123105   4.276   5.838   0.304 -0.0182  0.6784 -0.1729
  490TIP3    H223106   4.168   5.943   0.296  1.3277  2.0663 -0.6468
  491TIP3   OH223107   3.680   2.419   0.372 -0.2077 -0.1966 -0.8068
  491TIP3    H123108   3.762   2.436   0.418 -0.5909 -0.2371 -0.0966
  491TIP3    H223109   3.706   2.404   0.281  0.5022  0.4599 -0.7189
  492TIP3   OH223110   3.292   6.273   1.336  0.5784  0.0440  0.1596
  492TIP3    H123111   3.321   6.212   1.269  0.5776  1.3115 -1.0486
  492TIP3    H223112   3.197   6.262   1.340  0.2142  1.6393 -1.8906
  493TIP3   OH223113   2.175   1.305   2.172  0.5904 -0.4110  0.1466
  493TIP3    H123114   2.146   1.378   2.228 -0.5074 -0.9164  0.2486
  493TIP3    H223115   2.121   1.311   2.094  0.3237 -1.2514  0.2547
  494TIP3   OH223116   5.243   5.816   2.292  0.2355 -0.0654  0.1768
  494TIP3    H123117   5.315   5.795   2.233  0.7537  0.3242  0.6629
  494TIP3    H223118   5.206   5.731   2.317 -1.1493 -0.2089 -2.0871
  495TIP3   OH223119   6.485   6.107   3.336 -0.4404  0.0697  0.0419
  495TIP3    H123120   6.553   6.143   3.279 -1.2091  4.9267  1.7892
  495TIP3    H223121   6.435   6.048   3.279  0.6000  2.2824 -3.4966
  496TIP3   OH223122   0.775   4.895   8.154 -0.7208 -0.4892 -0.2828
  496TIP3    H123123   0.725   4.864   8.079  0.8379  0.4605 -1.7824
  496TIP3    H223124   0.789   4.988   8.138  2.4073 -0.8950 -0.5403
  497TIP3   OH223125   1.211   6.565   7.194  0.5131 -0.2949  0.0500
  497TIP3    H123126   1.156   6.530   7.264 -2.1631  2.0320 -0.6650
  497TIP3    H223127   1.190   6.511   7.118  1.5980 -1.3102  0.4431
  498TIP3   OH223128   4.345   1.169   0.341 -0.7956 -0.0993  0.1238
  498TIP3    H123129   4.366   1.200   0.252  2.8863 -0.7986  0.5771
  498TIP3    H223130   4.381   1.237   0.398  0.5562 -1.5539  1.0606
  499TIP3   OH223131   4.357   5.046   0.477  0.4762 -0.6522  0.3841
  499TIP3    H123132   4.378   4.996   0.556  0.4290 -0.8131  0.2966
  499TIP3    H223133   4.422   5.116   0.474  1.2981 -1.4230 -0.1372
  500TIP3   OH223134   2.803   4.106   8.292  0.5162 -0.1616 -0.1671
  500TIP3    H123135   2.794   4.040   8.224 -0.1091 -0.1073 -0.1451
  500TIP3    H223136   2.729   4.090   8.351  0.8994 -0.0437  0.3560
  501TIP3   OH223137   0.666   3.883   3.004  0.1306 -0.4932 -0.2589
  501TIP3    H123138   0.660   3.925   2.918  2.4806 -0.7301 -0.5994
  501TIP3    H223139   0.637   3.793   2.989 -1.5281  0.0131 -0.2892
  502TIP3   OH223140   3.371   3.429   0.246 -0.0278 -0.2389  0.2683
  502TIP3    H123141   3.412   3.343   0.242 -0.5503 -0.4754 -0.0799
  502TIP3    H223142   3.304   3.421   0.314 -1.3048 -0.6631 -0.9751
  503TIP3   OH223143   1.830   2.687   7.433 -0.4007  0.1570 -0.5261
  503TIP3    H123144   1.774   2.722   7.502 -0.2423 -1.1511  0.3069
  503TIP3    H223145   1.772   2.677   7.357 -1.0655 -0.2219  0.0212
  504TIP3   OH223146   4.592   5.588   1.880  0.0653  0.1319  0.2131
  504TIP3    H123147   4.538   5.520   1.839 -0.3921  1.3358 -1.2729
  504TIP3    H223148   4.530   5.656   1.905  0.7627  1.1044 -0.6274
  505TIP3   OH223149   4.997   1.013   1.419  0.1511  0.5534 -0.2576
  505TIP3    H123150   4.926   1.071   1.445  0.3255  1.0268 -0.8104
  505TIP3    H223151   5.042   0.992   1.501  1.2115  2.6995 -0.2240
  506TIP3   OH223152   5.876   6.653   6.680 -0.1870  0.3745 -0.3530
  506TIP3    H123153   5.824   6.711   6.736 -1.4601 -2.1565  1.2556
  506TIP3    H223154   5.955   6.704   6.659 -0.0668  1.8038  2.9971
  507TIP3   OH223155   4.184   4.431   8.384  0.5091  0.9642  0.1604
  507TIP3    H123156   4.102   4.446   8.336  0.4670 -1.5263 -0.6698
  507TIP3    H223157   4.160   4.441   8.476 -1.0792 -0.9600  0.0092
  508TIP3   OH223158   5.397   1.585   7.964 -0.2260  0.1817  0.4349
  508TIP3    H123159   5.475   1.584   7.909  0.2257  0.8636  1.0365
  508TIP3    H223160   5.349   1.507   7.939 -0.5893  1.0197 -1.6951
  509TIP3   OH223161   3.324   4.111   2.836 -0.5752 -0.1721 -0.1013
  509TIP3    H123162   3.416   4.086   2.842 -0.3624  0.4443 -0.7255
  509TIP3    H223163   3.326   4.206   2.823 -1.2662 -0.2805 -1.1011
  510TIP3   OH223164   4.222   1.466   0.941  0.0382 -0.3718  0.1837
  510TIP3    H123165   4.144   1.507   0.904  0.1474 -0.5708 -0.2767
  510TIP3    H223166   4.281   1.540   0.959 -0.3883 -0.1899  0.8709
  511TIP3   OH223167   1.410   1.560   8.439 -0.2877  0.2167  0.6335
  511TIP3    H123168   1.495   1.538   8.402 -1.1250 -1.9200 -0.2223
  511TIP3    H223169   1.407   1.511   8.521 -1.0143 -0.4665  0.2132
  512TIP3   OH223170   4.804   4.833   0.575  0.6473 -0.0714 -0.0408
  512TIP3    H123171   4.716   4.794   0.569  0.3403  0.6279 -0.1988
  512TIP3    H223172   4.857   4.766   0.617 -0.4218  0.1924  1.8833
  513TIP3   OH223173   1.990   3.848   7.969  0.4220  0.1037  0.1219
  513TIP3    H123174   2.033   3.788   7.908  1.2739  1.8391 -1.0756
  513TIP3    H223175   2.054   3.918   7.983 -0.3339  0.5008  1.8641
  514TIP3   OH223176   3.326   0.904   7.532 -0.3643 -0.5430  0.1339
  514TIP3    H123177   3.417   0.916   7.504 -0.7373  1.1104 -0.4412
  514TIP3    H223178   3.302   0.818   7.497  1.1012 -1.2177  0.6978
  515TIP3   OH223179   1.823   2.249   1.993 -0.2203  0.0789 -0.0133
  515TIP3    H123180   1.851   2.305   2.065  0.7691  0.1329 -0.4213
  515TIP3    H223181   1.734   2.222   2.016  0.0384  0.1801  1.1710
  516TIP3   OH223182   6.027   0.691   0.363 -0.2565 -0.3919 -0.2528
  516TIP3    H123183   6.098   0.644   0.319 -0.1044 -0.0928 -0.3289
  516TIP3    H223184   5.997   0.755   0.299 -1.0362 -0.9462 -0.4574
  517TIP3   OH223185   5.385   0.618   7.382  0.1547  0.6193 -0.8527
  517TIP3    H123186   5.426   0.700   7.354  0.3074  0.5936 -0.7072
  517TIP3    H223187   5.350   0.580   7.301 -0.0486  0.9021 -0.8970
  518TIP3   OH223188   2.816   4.386   1.381 -0.7195 -0.0272  0.1813
  518TIP3    H123189   2.906   4.419   1.386 -0.0148 -1.7154 -0.4001
  518TIP3    H223190   2.777   4.409   1.465 -0.0825  1.6331  0.0540
  519TIP3   OH223191   3.787   4.849   1.056 -0.5748 -0.5461 -0.3799
  519TIP3    H123192   3.765   4.781   1.120 -0.6058  0.7060  0.9821
  519TIP3    H223193   3.715   4.911   1.061  0.1092  0.2873 -0.5853
  520TIP3   OH223194   0.388   2.138   2.309 -0.1938  0.1988 -0.7729
  520TIP3    H123195   0.455   2.202   2.288 -0.1281  0.9845  1.5841
  520TIP3    H223196   0.309   2.190   2.325 -1.1016 -0.6216 -2.3448
  521TIP3   OH223197   5.100   3.368   7.776 -0.4982  0.0020  0.8313
  521TIP3    H123198   5.104   3.274   7.758  0.0475  0.2627 -0.5646
  521TIP3    H223199   5.181   3.403   7.738 -1.0952  1.1489  0.5762
  522TIP3   OH223200   4.737   5.920   2.640 -0.8818 -0.5810  0.0858
  522TIP3    H123201   4.668   5.980   2.613 -0.6545 -0.1097  0.5489
  522TIP3    H223202   4.808   5.976   2.670  0.4652 -0.9757 -2.1018
  523TIP3   OH223203   0.001   3.909   8.253  0.1330 -0.1511 -0.4012
  523TIP3    H123204   0.002   3.863   8.337 -1.6652 -0.9642 -0.7664
  523TIP3    H223205  -0.053   3.854   8.197 -1.7416  2.1527 -1.0090
  524TIP3   OH223206   4.467   2.896   8.511 -0.5347 -0.2472 -0.1061
  524TIP3    H123207   4.541   2.909   8.451 -0.1493 -2.8587 -0.2890
  524TIP3    H223208   4.453   2.802   8.512 -1.4538 -0.1618  2.8601
  525TIP3   OH223209   1.641   5.661   0.532  0.2418 -0.3020 -0.4376
  525TIP3    H123210   1.610   5.637   0.445 -2.2938 -1.1441  0.5963
  525TIP3    H223211   1.622   5.755   0.538  0.0741 -0.3180 -0.6674
  526TIP3   OH223212   1.034   2.761   1.221  0.0148  0.1854  0.7320
  526TIP3    H123213   1.085   2.771   1.141 -2.1859 -0.0207 -0.7973
  526TIP3    H223214   1.083   2.698   1.274  1.9996  1.0541 -0.0188
  527TIP3   OH223215   2.180   2.734   8.297 -0.2523 -0.2396 -0.2122
  527TIP3    H123216   2.137   2.746   8.213 -0.4801  1.1418  0.0813
  527TIP3    H223217   2.266   2.697   8.275 -0.7876 -1.0790 -0.9436
  528TIP3   OH223218   3.869   5.364   2.262 -0.2367  0.3064  0.5503
  528TIP3    H123219   3.883   5.291   2.322 -1.4971 -0.3056  0.1383
  528TIP3    H223220   3.834   5.323   2.183  1.4398  1.0786 -0.6604
  529TIP3   OH223221   6.081   3.575   0.505 -0.3519  0.0797  0.6140
  529TIP3    H123222   5.999   3.548   0.464  0.0496 -0.7184  0.3207
  529TIP3    H223223   6.147   3.562   0.438  0.1836 -0.3696  1.2180
  530TIP3   OH223224   1.328   5.411   1.205 -0.3027  0.5980  0.2429
  530TIP3    H123225   1.312   5.340   1.144 -3.5011  1.1874  0.2103
  530TIP3    H223226   1.374   5.477   1.154  0.4627 -0.4199 -0.4087
  531TIP3   OH223227   0.037   1.922   0.022  1.3486 -0.3961  0.1071
  531TIP3    H123228  -0.035   1.985   0.033  0.5361 -0.9350 -1.6979
  531TIP3    H223229   0.002   1.840   0.057  1.4442 -0.4354  0.1101
  532TIP3   OH223230   0.747   6.361   2.304 -0.0778  0.0659 -0.4649
  532TIP3    H123231   0.663   6.322   2.328  0.9371 -2.9330 -1.3236
  532TIP3    H223232   0.802   6.348   2.381 -0.0074  0.8283 -0.3786
  533TIP3   OH223233   1.545   3.322   7.935 -0.1164 -0.5469  0.3848
  533TIP3    H123234   1.508   3.235   7.949 -0.9386 -0.1094  0.9767
  533TIP3    H223235   1.536   3.366   8.020  2.2445 -0.5886  0.7499
  534TIP3   OH223236   0.089   6.699   0.979  0.4776 -0.4821 -0.2497
  534TIP3    H123237   0.034   6.667   0.908 -0.7356  1.6117 -0.3072
  534TIP3    H223238   0.128   6.779   0.945  3.7661 -1.9223 -0.2660
  535TIP3   OH223239   4.736   3.563   0.924  0.5519  0.3021  0.2936
  535TIP3    H123240   4.710   3.568   1.016 -2.5411 -0.1472 -0.4480
  535TIP3    H223241   4.712   3.649   0.888 -0.1183 -0.2001 -0.4878
  536TIP3   OH223242   2.958   5.499   2.501  0.3047 -0.4610  0.7194
  536TIP3    H123243   3.014   5.422   2.494 -0.4901 -1.0443  0.5446
  536TIP3    H223244   3.016   5.574   2.485  0.7475 -1.1160 -0.9710
  537TIP3   OH223245   0.060   4.744   2.436 -1.1792 -0.3457  0.1461
  537TIP3    H123246   0.037   4.655   2.407 -1.6837  0.3247 -1.6649
  537TIP3    H223247   0.050   4.797   2.357 -1.7845  1.4862  1.4092
  538TIP3   OH223248   5.283   0.820   7.057 -0.1804 -0.4638  0.1634
  538TIP3    H123249   5.360   0.838   7.110  0.9976 -2.6349 -0.6761
  538TIP3    H223250   5.310   0.839   6.967 -1.3387  0.7635  0.0413
  539TIP3   OH223251   2.566   2.081   8.755 -0.4657 -0.0921  0.5712
  539TIP3    H123252   2.529   2.043   8.675 -1.2396 -0.3892  1.0489
  539TIP3    H223253   2.489   2.099   8.810  0.0214  0.5481  1.0554
  540TIP3   OH223254   4.112   1.753   0.674 -0.0005  0.6657  0.6708
  540TIP3    H123255   4.027   1.790   0.652  0.1499 -1.0906 -4.0998
  540TIP3    H223256   4.095   1.661   0.692  0.7494  0.6545  1.3960
  541TIP3   OH223257   5.435   2.624   1.717 -0.5326  0.1829  0.2211
  541TIP3    H123258   5.482   2.640   1.799  1.2683 -1.8263 -0.3477
  541TIP3    H223259   5.478   2.682   1.654  2.6709 -2.8743 -0.7166
  542TIP3   OH223260   1.258   0.947   1.026 -0.3669 -0.2659  1.0643
  542TIP3    H123261   1.206   0.869   1.043 -2.8904  1.3788  1.4609
  542TIP3    H223262   1.266   0.950   0.930 -1.2981 -0.4118  0.9714
  543TIP3   OH223263   1.084   3.811   0.745  0.0728  0.0432 -0.1557
  543TIP3    H123264   1.142   3.825   0.671 -0.5058 -1.8776 -1.0507
  543TIP3    H223265   1.130   3.746   0.799 -0.8136 -0.8084 -0.4036
  544TIP3   OH223266   4.687   1.999   8.333  0.4018  0.0413  0.2769
  544TIP3    H123267   4.703   2.093   8.336 -2.6871  0.7509 -1.3603
  544TIP3    H223268   4.735   1.968   8.257 -0.7604  0.8960 -0.8490
  545TIP3   OH223269   3.231   3.165   7.459  0.6321 -0.5508 -0.2059
  545TIP3    H123270   3.194   3.135   7.376 -0.6278 -0.7802  0.4163
  545TIP3    H223271   3.187   3.248   7.477  0.6799 -0.6463  0.3754
  546TIP3   OH223272   1.285   2.209   7.690  0.1856  0.0150  0.6028
  546TIP3    H123273   1.196   2.239   7.709 -0.3730 -1.4656  0.3988
  546TIP3    H223274   1.323   2.191   7.776  0.0535 -0.0314  0.6512
  547TIP3   OH223275   6.510   0.352   0.177 -0.2159  0.3406 -0.1170
  547TIP3    H123276   6.500   0.266   0.138  3.1704  1.0244 -3.0252
  547TIP3    H223277   6.448   0.408   0.130 -0.2207  0.0777 -0.4222
  548TIP3   OH223278   2.198   1.951   7.515  0.0063  0.0775 -0.0545
  548TIP3    H123279   2.195   1.863   7.478  0.9377  0.0780 -0.1384
  548TIP3    H223280   2.219   2.008   7.440  1.0862  0.1721  0.3048
  549TIP3   OH223281   3.244   3.255   0.929  0.0272 -0.0820 -0.1397
  549TIP3    H123282   3.281   3.308   0.858  0.9197  0.0698  0.4145
  549TIP3    H223283   3.150   3.269   0.924  0.1655  0.6958 -0.6851
  550TIP3   OH223284   4.272   2.421   1.190 -0.2569 -0.2520 -0.6243
  550TIP3    H123285   4.267   2.326   1.203  0.8871 -0.7782 -3.2735
  550TIP3    H223286   4.348   2.449   1.241  0.5663 -1.1309 -1.3382
  551TIP3   OH223287   4.561   6.592   0.235  0.1716  0.9088  0.5482
  551TIP3    H123288   4.559   6.501   0.265 -1.5242  0.7016 -0.0879
  551TIP3    H223289   4.517   6.641   0.305 -0.8005  0.9174 -0.0622
  552TIP3   OH223290   1.067   5.494   7.575 -0.1348  0.6945 -0.0123
  552TIP3    H123291   1.014   5.566   7.541  0.4374  0.7648 -0.8116
  552TIP3    H223292   1.014   5.416   7.560 -0.9760  0.9782  1.3304
  553TIP3   OH223293   4.445   1.378   0.464  0.0036  0.0270 -0.2990
  553TIP3    H123294   4.401   1.360   0.547 -1.0641 -2.0866 -1.2633
  553TIP3    H223295   4.538   1.382   0.487 -0.1142 -2.1585  0.7962
  554TIP3   OH223296   1.392   1.340   0.720  0.3063  0.1566  0.1987
  554TIP3    H123297   1.480   1.330   0.757  0.5385 -0.2430 -0.4342
  554TIP3    H223298   1.338   1.278   0.767  1.1034 -2.1153 -1.6892
  555TIP3   OH223299   0.993   6.762   8.595  0.2159  0.5875 -0.7371
  555TIP3    H123300   0.904   6.776   8.628  1.4951  0.8160  3.1431
  555TIP3    H223301   1.028   6.850   8.584  0.1718  0.4906 -1.7055
  556TIP3   OH223302   2.839   6.500   7.602  0.3314 -0.5568 -0.4261
  556TIP3    H123303   2.754   6.459   7.581 -0.0975 -0.1380  0.4439
  556TIP3    H223304   2.853   6.564   7.532 -0.6831  0.2542  0.0839
  557TIP3   OH223305   5.750   2.010   8.859 -0.1202  0.2599 -0.0512
  557TIP3    H123306   5.713   2.094   8.885  0.6051  0.0349  1.8352
  557TIP3    H223307   5.834   2.004   8.905 -0.1355 -1.4763 -0.1562
  558TIP3   OH223308   3.306   3.004   8.120  0.3970  0.3512 -0.0671
  558TIP3    H123309   3.277   2.965   8.203  0.1967  0.0603 -0.2734
  558TIP3    H223310   3.236   3.064   8.096  0.8723  1.1335  0.4417
  559TIP3   OH223311   1.561   4.412   7.624  0.1375  0.4921  0.4790
  559TIP3    H123312   1.543   4.349   7.555  1.4396 -1.3892  1.7679
  559TIP3    H223313   1.585   4.493   7.578 -1.0692 -0.0725 -1.2131
  560TIP3   OH223314   0.636   1.650   7.192 -0.0023  0.3171 -0.0862
  560TIP3    H123315   0.717   1.700   7.184  0.5174 -0.0445  2.0670
  560TIP3    H223316   0.665   1.561   7.214 -0.9652  0.0774  0.2889
  561TIP3   OH223317   6.631   1.151   1.367 -0.0470  0.3057  0.1940
  561TIP3    H123318   6.638   1.222   1.430  0.7237  0.5903 -0.1974
  561TIP3    H223319   6.577   1.085   1.411 -0.2102  0.8475  0.8182
  562TIP3   OH223320   3.331   5.676   1.465 -0.4768 -0.0623  0.4872
  562TIP3    H123321   3.318   5.641   1.552 -0.0679 -0.5171  0.3687
  562TIP3    H223322   3.245   5.669   1.423 -1.0360  1.4376  1.2943
  563TIP3   OH223323   1.583   2.490   7.468  0.0907 -0.0291 -0.2300
  563TIP3    H123324   1.626   2.575   7.478  0.7104 -0.2045 -1.2887
  563TIP3    H223325   1.547   2.491   7.379 -0.5836 -0.5723  0.0289
  564TIP3   OH223326   6.788   0.567   0.654 -0.1526 -0.2800  0.0817
  564TIP3    H123327   6.722   0.587   0.588  1.8475 -0.8390 -2.2247
  564TIP3    H223328   6.802   0.473   0.647 -0.3768 -0.4753  1.8258
  565TIP3   OH223329   4.461   2.310   0.169 -0.3699  0.2108 -0.3244
  565TIP3    H123330   4.393   2.316   0.236  1.1799  2.0342  1.1862
  565TIP3    H223331   4.414   2.325   0.087 -1.7979  1.5443  0.6628
  566TIP3   OH223332   3.535   4.188   8.571  0.3247  0.1461 -0.3837
  566TIP3    H123333   3.607   4.140   8.531  1.2075  0.5207  0.6916
  566TIP3    H223334   3.577   4.241   8.639 -1.1373 -0.8744  1.4117
  567TIP3   OH223335   1.357   3.583   2.328 -0.1081 -0.2542  0.2514
  567TIP3    H123336   1.272   3.624   2.310  0.0863  0.6932  1.4006
  567TIP3    H223337   1.359   3.574   2.423  0.7493 -1.0400  0.1713
  568TIP3   OH223338   2.859   0.234   0.634  0.4354  0.7453  0.1747
  568TIP3    H123339   2.860   0.298   0.705  0.9688 -0.0966  0.9495
  568TIP3    H223340   2.766   0.209   0.627  0.3778  0.8333  0.5778
  569TIP3   OH223341   1.525   3.518   1.631 -0.1361  0.9474 -0.4315
  569TIP3    H123342   1.469   3.583   1.589  1.2456  1.6954 -1.1758
  569TIP3    H223343   1.612   3.559   1.634  0.6079 -0.5784 -0.2505
  570TIP3   OH223344   3.186   1.040   0.230 -0.1852 -0.2064 -0.3430
  570TIP3    H123345   3.129   1.114   0.251  1.0221  0.1267  2.0022
  570TIP3    H223346   3.142   0.964   0.268 -0.4724 -0.4187 -1.0783
  571TIP3   OH223347   1.258   6.679   8.586 -0.5537  0.7335 -0.1783
  571TIP3    H123348   1.274   6.736   8.510 -0.8393  1.8573  0.5818
  571TIP3    H223349   1.165   6.692   8.607 -0.3822  0.7532  0.6067
  572TIP3   OH223350   0.151   4.956   8.511 -0.1267  0.0359 -0.2370
  572TIP3    H123351   0.123   4.966   8.420  3.1150  1.6402 -1.2324
  572TIP3    H223352   0.130   5.040   8.552  0.5706  0.2158 -0.2272
  573TIP3   OH223353   5.283   4.884   8.801 -0.5315  0.8121  0.0465
  573TIP3    H123354   5.252   4.798   8.829  0.0971  0.2579 -0.9014
  573TIP3    H223355   5.335   4.917   8.875  1.8282 -0.9865 -0.6995
  574TIP3   OH223356   1.420   6.398   7.476  0.1031 -0.5083 -0.0838
  574TIP3    H123357   1.357   6.328   7.493  1.6889 -1.6408  1.4114
  574TIP3    H223358   1.467   6.408   7.559  0.1794  2.1088 -0.3483
  575TIP3   OH223359   1.704   6.603   7.085  0.5906  0.5790  0.5837
  575TIP3    H123360   1.729   6.695   7.097  3.5839 -0.4012  3.2634
  575TIP3    H223361   1.640   6.586   7.154 -0.0902  0.6161 -0.0150
  576TIP3   OH223362   5.271   4.171   8.050 -0.7411 -0.0223 -0.2913
  576TIP3    H123363   5.361   4.138   8.045 -1.0867 -0.9640 -0.3339
  576TIP3    H223364   5.220   4.112   7.995 -1.5538 -0.0816  0.4937
  577TIP3   OH223365   2.003   3.410   1.001 -0.1757 -0.2204  0.1347
  577TIP3    H123366   2.069   3.479   1.007  0.9165 -1.1751 -0.6172
  577TIP3    H223367   1.997   3.375   1.090  0.1528  0.0363  0.2601
  578TIP3   OH223368   1.406   1.626   7.639 -0.5518 -0.7411  0.3235
  578TIP3    H123369   1.363   1.541   7.652  1.6236 -2.1451 -0.9997
  578TIP3    H223370   1.478   1.607   7.578 -0.0450  2.0929 -0.0861
  579TIP3   OH223371   4.680   2.169   2.239  0.3194  0.7815 -0.8487
  579TIP3    H123372   4.771   2.141   2.245  0.3660  0.8361 -1.2903
  579TIP3    H223373   4.685   2.265   2.237  0.0740  0.9734  2.4435
  580TIP3   OH223374   2.481   6.651   0.203  0.0587 -0.1853  0.0740
  580TIP3    H123375   2.546   6.604   0.255 -0.0295 -0.1539  0.2154
  580TIP3    H223376   2.488   6.614   0.115  1.3954  0.9339 -0.3185
  581TIP3   OH223377   2.258   2.584   7.488  0.0901 -0.1102  0.1882
  581TIP3    H123378   2.344   2.586   7.446 -1.0790 -1.3909 -2.4892
  581TIP3    H223379   2.220   2.500   7.461 -2.4361  0.8966  0.3236
  582TIP3   OH223380   2.623   5.637   8.702 -0.0306  0.3004 -0.0673
  582TIP3    H123381   2.690   5.610   8.765  0.9098  1.6354 -0.4464
  582TIP3    H223382   2.640   5.584   8.625 -0.5856 -0.6558  0.4389
  583TIP3   OH223383   1.945   0.629   7.350 -0.3915  0.1701 -0.0195
  583TIP3    H123384   1.993   0.700   7.393  0.3829  0.4228 -1.2543
  583TIP3    H223385   1.964   0.552   7.403  0.9557  0.3751 -0.1676
  584TIP3   OH223386   3.014   6.338   7.431 -0.1584  0.5124  0.1298
  584TIP3    H123387   3.019   6.364   7.523 -1.1786  0.3761  0.2357
  584TIP3    H223388   3.017   6.420   7.383  3.2506  0.4882  0.0900
  585TIP3   OH223389   6.677   6.752   7.406 -0.1053 -0.1185 -0.5339
  585TIP3    H123390   6.589   6.723   7.382  0.2993 -1.0529 -0.9152
  585TIP3    H223391   6.702   6.695   7.479  0.7901 -0.9229 -1.4398
  586TIP3   OH223392   3.751   1.017   8.772 -0.2427  0.4964 -0.0384
  586TIP3    H123393   3.656   1.025   8.761 -0.3635 -2.0133 -1.5433
  586TIP3    H223394   3.788   1.091   8.725 -1.4156  0.4042 -1.1406
  587TIP3   OH223395   5.526   0.473   7.095 -0.6443 -0.0313 -0.4469
  587TIP3    H123396   5.433   0.450   7.091 -0.5354 -0.3474 -1.3894
  587TIP3    H223397   5.571   0.400   7.052 -0.0143  0.4306 -0.5900
  588TIP3   OH223398   4.524   4.386   0.479  0.2311 -0.1489 -0.4176
  588TIP3    H123399   4.510   4.292   0.485  1.0560 -0.2927 -0.6989
  588TIP3    H223400   4.522   4.417   0.570 -0.0442 -0.4279 -0.3270
  589TIP3   OH223401   6.570   0.084   0.123 -0.0911  0.6157  0.1680
  589TIP3    H123402   6.534  -0.004   0.137 -1.8828  0.9743 -1.6386
  589TIP3    H223403   6.659   0.079   0.158 -1.0521 -1.0682  2.6535
  590TIP3   OH223404   1.977   4.346   8.400 -0.2657 -0.1466  0.5118
  590TIP3    H123405   1.991   4.440   8.412  1.4103 -0.6823  4.5027
  590TIP3    H223406   2.035   4.322   8.328 -1.8375  2.0106 -1.6096
  591TIP3   OH223407   4.339   1.140   7.608 -0.0325  0.0948  0.0488
  591TIP3    H123408   4.331   1.159   7.514 -0.2219  0.1921  0.0855
  591TIP3    H223409   4.333   1.225   7.650 -1.5803 -0.0962  0.2607
  592TIP3   OH223410   4.345   0.012   0.275 -0.2218 -0.2094 -0.1731
  592TIP3    H123411   4.370   0.026   0.366  0.1737 -0.2921 -0.2653
  592TIP3    H223412   4.311  -0.077   0.272 -2.1334  0.4656  0.2870
  593TIP3   OH223413   0.257   3.377   0.510  0.0670 -0.1844  0.0850
  593TIP3    H123414   0.277   3.468   0.532 -1.0254  0.2598 -0.7257
  593TIP3    H223415   0.186   3.353   0.570  2.0255 -1.3651  2.0940
  594TIP3   OH223416   4.883   0.772   0.949 -0.3180  0.1861 -0.0136
  594TIP3    H123417   4.811   0.761   0.886 -0.5518  1.4612 -0.0065
  594TIP3    H223418   4.841   0.761   1.034  0.2375 -2.8196 -0.0442
  595TIP3   OH223419   6.487   4.365   0.912  0.0777  0.0959 -0.5647
  595TIP3    H123420   6.434   4.440   0.884  1.3612  0.4794 -2.1028
  595TIP3    H223421   6.572   4.378   0.871  0.3226 -2.2589 -0.9640
  596TIP3   OH223422   5.873   0.744   1.486 -0.4578 -0.1599  0.1582
  596TIP3    H123423   5.886   0.829   1.443  0.7447 -0.1664  0.4556
  596TIP3    H223424   5.822   0.764   1.564 -1.9719 -0.0295 -0.8174
  597TIP3   OH223425   2.967   4.565   7.074 -0.4844  0.4945  0.2572
  597TIP3    H123426   2.920   4.489   7.038  1.3441 -1.0956  1.0744
  597TIP3    H223427   3.047   4.571   7.022  0.1821  0.8222  1.2918
  598TIP3   OH223428   0.705   2.767   1.679 -0.2645 -0.4273  0.4874
  598TIP3    H123429   0.653   2.752   1.758 -0.3470 -0.0667  0.5026
  598TIP3    H223430   0.681   2.694   1.620  0.5702 -1.2892  1.1797
  599TIP3   OH223431   1.427   6.029   1.644  0.4427 -0.4559  0.3533
  599TIP3    H123432   1.493   5.969   1.609  2.5504  0.4895  2.4357
  599TIP3    H223433   1.454   6.116   1.614 -1.0408 -0.2254 -0.4113
  600TIP3   OH223434   2.404   3.272   7.818 -0.1482 -0.4372  0.2054
  600TIP3    H123435   2.402   3.226   7.734 -1.0516 -0.9552  0.5001
  600TIP3    H223436   2.313   3.289   7.839  0.1275  0.6578  0.5662
  601TIP3   OH223437   5.591   5.413   3.104  0.0990  0.2615 -0.2876
  601TIP3    H123438   5.654   5.486   3.096 -1.5274  1.5724 -1.9948
  601TIP3    H223439   5.536   5.420   3.026 -0.1473 -2.8488 -0.5047
  602TIP3   OH223440   3.220   5.034   7.324  0.2871  0.0770  0.1372
  602TIP3    H123441   3.183   5.010   7.239  0.0384 -0.9854  0.5272
  602TIP3    H223442   3.298   5.085   7.303  0.4692 -0.5401 -0.7273
  603TIP3   OH223443   1.453   1.781   8.776  0.5111 -0.1862 -0.2735
  603TIP3    H123444   1.449   1.814   8.866  1.6973  0.3367 -0.3951
  603TIP3    H223445   1.372   1.731   8.765  1.1467 -1.7592  1.6722
  604TIP3   OH223446   5.879   4.695   2.240 -0.0141 -0.2624 -0.4199
  604TIP3    H123447   5.871   4.700   2.144  0.5408 -0.1892 -0.4626
  604TIP3    H223448   5.839   4.776   2.271  1.5595  0.6521 -0.6935
  605TIP3   OH223449   3.398   3.747   8.406  0.2402  0.1438  0.4123
  605TIP3    H123450   3.411   3.800   8.328  0.2011  0.9848  0.9667
  605TIP3    H223451   3.428   3.802   8.478 -0.1588 -0.4408  1.0397
  606TIP3   OH223452   2.162   5.008   0.365 -0.2881  0.1287  0.1262
  606TIP3    H123453   2.193   5.081   0.419  0.4065  0.0219 -0.1196
  606TIP3    H223454   2.129   4.944   0.429  1.1997 -0.3108  0.4966
  607TIP3   OH223455   0.010   5.142   1.717  0.0101 -0.3822  0.1589
  607TIP3    H123456  -0.045   5.100   1.783  0.0727 -0.6380  0.0509
  607TIP3    H223457   0.097   5.145   1.756 -0.0557 -0.0826  0.2837
  608TIP3   OH223458   3.715   0.198   7.597  1.1956 -0.2462  0.3688
  608TIP3    H123459   3.623   0.189   7.573  1.3236  1.0304 -0.7131
  608TIP3    H223460   3.743   0.109   7.618  0.4426 -1.1534 -2.0764
  609TIP3   OH223461   6.100   2.424   0.045  0.4061 -0.8503  0.0839
  609TIP3    H123462   6.133   2.511   0.069  1.8989 -1.7449  1.4505
  609TIP3    H223463   6.158   2.395  -0.025 -0.3280 -0.6168 -0.6368
  610TIP3   OH223464   3.540   0.227   7.327 -0.1194  0.6206 -0.0647
  610TIP3    H123465   3.467   0.286   7.347 -0.1738  0.1203  1.3705
  610TIP3    H223466   3.619   0.278   7.348 -0.1958 -0.3214  2.9904
  611TIP3   OH223467   0.223   1.295   8.331  0.4291 -0.0987  0.1610
  611TIP3    H123468   0.142   1.344   8.315 -0.0034 -0.9306 -0.2764
  611TIP3    H223469   0.194   1.205   8.345  1.1422 -0.1075  1.7894
  612TIP3   OH223470   3.374   2.953   0.274 -0.1124  0.3961 -0.0160
  612TIP3    H123471   3.301   2.985   0.328 -0.3769 -0.9187  0.4365
  612TIP3    H223472   3.345   2.867   0.243  0.8889  0.2395 -0.5641
  613TIP3   OH223473   1.759   1.606   0.690  0.6363 -0.0447  0.5179
  613TIP3    H123474   1.842   1.580   0.730  1.5535  2.7049  0.6094
  613TIP3    H223475   1.780   1.623   0.598  0.1312  0.4088  0.4768
  614TIP3   OH223476   6.116   2.788   8.896  0.6088 -0.7202  0.7409
  614TIP3    H123477   6.097   2.878   8.870  0.3490 -1.2266 -0.9778
  614TIP3    H223478   6.202   2.769   8.857  0.9518 -1.0228  1.6182
  615TIP3   OH223479   4.982   3.775   8.798  0.0346 -0.2043  0.0054
  615TIP3    H123480   5.077   3.775   8.786 -0.1431  0.9247 -1.9250
  615TIP3    H223481   4.957   3.867   8.784 -1.3157 -0.4377  0.7701
  616TIP3   OH223482   6.785   1.247   7.983 -0.8087 -0.2680  0.6035
  616TIP3    H123483   6.845   1.205   8.045 -1.3974 -0.1213  1.2878
  616TIP3    H223484   6.730   1.176   7.951 -1.8049 -0.0407  1.7614
  617TIP3   OH223485   0.692   1.947   7.286  0.0113 -0.2239  0.2972
  617TIP3    H123486   0.754   1.874   7.278  0.1594 -0.0724  0.0293
  617TIP3    H223487   0.734   2.008   7.346 -0.2518 -0.4971  0.7677
  618TIP3   OH223488   6.068   1.611   7.947 -0.4452 -0.0626  0.5564
  618TIP3    H123489   6.043   1.600   7.855 -1.8473  2.3430  0.5577
  618TIP3    H223490   6.155   1.650   7.944 -0.9124  0.9790  0.1850
  619TIP3   OH223491   4.658   2.634   7.651  0.8905 -0.1776  0.2096
  619TIP3    H123492   4.565   2.647   7.666  0.8586  1.5228 -1.1321
  619TIP3    H223493   4.668   2.641   7.556  2.1989 -1.8277  0.1755
  620TIP3   OH223494   6.050   6.780   7.623 -0.3168 -0.3072 -0.3887
  620TIP3    H123495   6.024   6.745   7.538  1.7100  0.8445 -1.5822
  620TIP3    H223496   6.095   6.862   7.602 -0.0411  0.1774  1.8396
  621TIP3   OH223497   2.366   3.350   1.033 -0.7208  0.1061 -0.3917
  621TIP3    H123498   2.360   3.320   1.123  0.4335  0.4727 -0.1742
  621TIP3    H223499   2.289   3.406   1.021 -0.2941  0.9834  0.7402
  622TIP3   OH223500   5.013   6.442   2.308 -0.4556 -0.1082  0.3735
  622TIP3    H123501   5.095   6.411   2.346 -0.5971  0.7079  1.4042
  622TIP3    H223502   5.038   6.474   2.221 -0.0023 -1.4072  0.0059
  623TIP3   OH223503   5.301   0.358   7.763 -0.1010  0.1310  0.3919
  623TIP3    H123504   5.345   0.293   7.819  0.6938 -0.6887 -1.1056
  623TIP3    H223505   5.372   0.398   7.712 -0.9876 -1.3544 -2.2393
  624TIP3   OH223506   1.084   3.751   7.529  0.1389 -0.0555  0.7033
  624TIP3    H123507   1.094   3.661   7.498  2.5032  0.2837  0.3568
  624TIP3    H223508   1.068   3.802   7.450 -4.4221 -0.4035  1.1044
  625TIP3   OH223509   5.183   6.184   8.599  0.3083 -0.4302 -0.5064
  625TIP3    H123510   5.157   6.260   8.546  0.3456 -0.5266 -0.6629
  625TIP3    H223511   5.252   6.217   8.656  0.6287 -0.4536 -0.8781
  626TIP3   OH223512   4.149   4.829   0.835  0.3393 -0.0428  0.2318
  626TIP3    H123513   4.208   4.901   0.855  1.7350 -0.4121 -2.1071
  626TIP3    H223514   4.204   4.764   0.791 -1.6704 -0.5929 -1.7060
  627TIP3   OH223515   2.757   1.688   7.262  0.7397 -0.1379  0.4867
  627TIP3    H123516   2.814   1.678   7.186  0.5609  0.0775  0.3225
  627TIP3    H223517   2.716   1.602   7.273 -0.3835  0.2321 -0.5885
  628TIP3   OH223518   1.532   3.801   2.280 -0.4621  0.9136 -0.2502
  628TIP3    H123519   1.505   3.857   2.207 -1.1060  1.3003  0.2821
  628TIP3    H223520   1.460   3.738   2.290  0.4348 -0.3031 -1.1159
  629TIP3   OH223521   1.175   1.169   1.489 -0.0971 -0.4796 -0.4400
  629TIP3    H123522   1.159   1.216   1.571  0.3453  0.0071 -0.6322
  629TIP3    H223523   1.270   1.170   1.478 -0.1664 -0.3392 -1.0761
  630TIP3   OH223524   0.914   3.799   7.723 -0.0884  0.0305  0.1324
  630TIP3    H123525   0.987   3.782   7.664 -0.7001  2.4656 -1.4787
  630TIP3    H223526   0.954   3.809   7.809  1.2414 -0.5041 -0.4035
  631TIP3   OH223527   5.297   1.935   3.030  0.0855  0.2700  0.5857
  631TIP3    H123528   5.379   1.936   3.079  1.1149 -4.5829 -0.4863
  631TIP3    H223529   5.320   1.897   2.946 -3.2661 -1.5462  0.3221
  632TIP3   OH223530   2.733   3.760   2.080 -0.3909  0.3272 -0.8210
  632TIP3    H123531   2.716   3.740   2.172 -0.5856 -2.3387 -1.3773
  632TIP3    H223532   2.676   3.701   2.031  1.2066  0.2278 -2.6789
  633TIP3   OH223533   3.089   5.716   1.337  0.1730 -0.2376 -0.0305
  633TIP3    H123534   3.013   5.681   1.382  0.5380 -0.7392  0.1983
  633TIP3    H223535   3.058   5.738   1.249 -0.6061  0.9735  0.5157
  634TIP3   OH223536   1.256   4.586   8.251 -0.4180  0.1734 -0.0395
  634TIP3    H123537   1.201   4.639   8.310 -0.5340 -0.2453  0.2352
  634TIP3    H223538   1.216   4.499   8.253  0.2249 -0.1238  0.1158
  635TIP3   OH223539   5.924   0.664   2.030  0.3638 -0.4489  0.4591
  635TIP3    H123540   5.851   0.608   2.005 -0.3449  0.5942  0.1000
  635TIP3    H223541   5.953   0.630   2.115 -0.7332 -0.7020  0.7449
  636TIP3   OH223542   0.109   0.230   0.992 -0.0919  0.0793  0.3425
  636TIP3    H123543   0.020   0.201   0.972 -0.0512 -0.4368  0.9086
  636TIP3    H223544   0.120   0.310   0.940 -0.7408 -0.0753 -0.0411
  637TIP3   OH223545   0.379   3.352   8.905  0.1228 -0.0009  0.0144
  637TIP3    H123546   0.433   3.279   8.876 -0.0020 -0.2367  0.3759
  637TIP3    H223547   0.289   3.322   8.890  0.0621 -0.0543  0.4698
  638TIP3   OH223548   6.578   4.692   6.936 -0.3176  0.2820 -0.0012
  638TIP3    H123549   6.489   4.707   6.970 -1.0702 -0.4112 -1.5625
  638TIP3    H223550   6.634   4.701   7.013 -1.8222 -0.1297  1.2060
  639TIP3   OH223551   4.107   5.081   0.374 -0.0501 -0.3254  0.2265
  639TIP3    H123552   4.186   5.079   0.427  0.2856  1.7619 -0.1037
  639TIP3    H223553   4.131   5.034   0.293  0.4409 -0.7409  0.6059
  640TIP3   OH223554   0.136   2.116   8.763  0.3296  0.3267 -0.1270
  640TIP3    H123555   0.150   2.151   8.851 -0.5675 -0.0934  0.1946
  640TIP3    H223556   0.097   2.029   8.778  0.6137  0.0497 -0.9340
  641TIP3   OH223557   0.751   0.342   0.871 -0.3878 -0.2196 -0.8395
  641TIP3    H123558   0.799   0.421   0.846  1.2066 -0.4562  1.1996
  641TIP3    H223559   0.711   0.364   0.955 -1.4555 -0.9966 -1.1273
  642TIP3   OH223560   1.131   3.687   2.738 -0.4121  0.2449 -0.7877
  642TIP3    H123561   1.203   3.712   2.795  0.5593 -1.3615 -1.2278
  642TIP3    H223562   1.052   3.711   2.786  0.3405 -1.5671  1.5529
  643TIP3   OH223563   1.590   0.465   0.260 -0.1500  0.4833 -0.4023
  643TIP3    H123564   1.670   0.516   0.273  1.6292 -2.1183 -0.3388
  643TIP3    H223565   1.574   0.469   0.166  0.0001  1.0659 -0.4076
  644TIP3   OH223566   3.914   4.454   1.061 -0.3578 -0.0633  0.4488
  644TIP3    H123567   3.830   4.484   1.095 -0.7751  0.3876 -0.8925
  644TIP3    H223568   3.908   4.359   1.061 -1.8801 -0.0494 -1.8598
  645TIP3   OH223569   3.297   1.207   0.677  0.0770  0.3675 -0.1061
  645TIP3    H123570   3.274   1.234   0.588  1.1222 -1.6115 -1.0263
  645TIP3    H223571   3.214   1.178   0.715 -0.0612 -0.7129 -1.1762
  646TIP3   OH223572   0.126   0.403   1.479  0.5229 -0.0367 -0.5587
  646TIP3    H123573   0.154   0.399   1.570 -0.3582 -1.7572 -0.3289
  646TIP3    H223574   0.037   0.367   1.479  0.3807  0.2378 -2.0502
  647TIP3   OH223575   6.765   1.562   1.950  0.2669 -0.2844 -1.0152
  647TIP3    H123576   6.682   1.591   1.987 -0.6240 -0.7946 -2.5236
  647TIP3    H223577   6.776   1.473   1.982 -0.6880 -0.8608 -2.2220
  648TIP3   OH223578   6.716   3.652   1.588 -0.4351  0.4023  0.2485
  648TIP3    H123579   6.717   3.703   1.669  1.3360 -0.2972  0.7258
  648TIP3    H223580   6.661   3.577   1.608  1.2363 -0.6004  1.4313
  649TIP3   OH223581   1.224   6.281   2.529 -0.2183 -0.2851 -0.1407
  649TIP3    H123582   1.235   6.346   2.598  0.2359  0.0134 -0.4922
  649TIP3    H223583   1.202   6.200   2.577  1.2952 -0.3817  0.4627
  650TIP3   OH223584   1.182   4.090   0.405 -0.1964 -0.0662  0.5461
  650TIP3    H123585   1.263   4.040   0.409 -0.3906 -0.3487  1.1365
  650TIP3    H223586   1.135   4.056   0.329  1.8096  2.5729 -2.1265
  651TIP3   OH223587   0.864   3.023   1.261 -1.2052 -0.2717 -0.2101
  651TIP3    H123588   0.781   3.032   1.307 -1.8649 -1.8777 -0.9861
  651TIP3    H223589   0.895   2.935   1.286  0.3795  0.3787  0.2327
  652TIP3   OH223590   2.910   2.685   0.792  0.6422 -0.1358 -0.0606
  652TIP3    H123591   2.933   2.638   0.872 -1.9160 -1.7309 -0.1495
  652TIP3    H223592   2.957   2.638   0.723  1.6717  0.3056  0.3301
  653TIP3   OH223593   0.113   1.986   0.289 -0.3971  0.0786  0.0183
  653TIP3    H123594   0.143   1.954   0.204 -1.5655 -1.7948  0.2702
  653TIP3    H223595   0.193   2.017   0.332  0.1077  1.8826 -2.0423
  654TIP3   OH223596   3.713   0.021   0.021 -0.3555  0.5873  0.3327
  654TIP3    H123597   3.798  -0.023   0.026 -0.2119  0.9992  3.7932
  654TIP3    H223598   3.709   0.075   0.099 -3.1719  1.8768 -0.5694
  655TIP3   OH223599   0.674   1.838   1.079 -0.2827 -0.3876 -0.6476
  655TIP3    H123600   0.630   1.918   1.108  0.0653 -0.5762  0.4525
  655TIP3    H223601   0.764   1.847   1.111 -0.0990 -0.9695 -0.9911
  656TIP3   OH223602   4.869   1.178   8.092 -0.0382  0.3557 -0.0226
  656TIP3    H123603   4.935   1.140   8.034 -1.7857 -0.2021 -1.7656
  656TIP3    H223604   4.895   1.270   8.099  0.8589  0.1820 -0.7604
  657TIP3   OH223605   2.653   3.581   8.565 -0.4768 -0.5513  0.1045
  657TIP3    H123606   2.680   3.672   8.572  1.6459 -1.1624  0.2915
  657TIP3    H223607   2.634   3.569   8.472 -1.0113  0.1229  0.1164
  658TIP3   OH223608   0.792   1.015   1.436 -0.6652  0.2804 -0.6389
  658TIP3    H123609   0.864   0.984   1.382 -0.4894 -0.4987  0.0193
  658TIP3    H223610   0.732   0.940   1.440  0.0221 -0.2229  1.4263
  659TIP3   OH223611   5.836   6.191   2.833 -0.2850 -0.2662 -0.3018
  659TIP3    H123612   5.923   6.156   2.855 -0.2514 -0.6966 -1.0672
  659TIP3    H223613   5.779   6.156   2.901  0.2360  0.5339  0.5759
  660TIP3   OH223614   5.425   5.321   8.777  0.0269  0.2654  0.0908
  660TIP3    H123615   5.403   5.300   8.686 -2.2316  1.0440  0.3702
  660TIP3    H223616   5.430   5.236   8.821 -2.2524 -0.0521 -0.1269
  661TIP3   OH223617   0.922   1.956   7.671 -0.5778  0.2703 -0.0493
  661TIP3    H123618   0.885   2.008   7.600 -0.9099  0.8620  0.5491
  661TIP3    H223619   0.978   1.892   7.627  0.1348  1.3688 -0.7654
  662TIP3   OH223620   4.185   5.017   2.627 -0.5056  0.9104  0.2502
  662TIP3    H123621   4.126   5.080   2.669 -2.8695  1.2341 -3.1710
  662TIP3    H223622   4.245   5.072   2.576  0.3357  0.4597  0.7368
  663TIP3   OH223623   3.088   1.224   7.224  0.2272 -0.0797 -0.5577
  663TIP3    H123624   3.113   1.194   7.312 -0.2092  2.1702  0.3801
  663TIP3    H223625   3.071   1.143   7.176  1.0828 -1.3951  1.2328
  664TIP3   OH223626   6.149   4.863   0.628 -0.0101  0.3248  0.0287
  664TIP3    H123627   6.198   4.793   0.585  1.0518  2.2180 -2.0367
  664TIP3    H223628   6.196   4.878   0.711  0.2344 -0.8225  0.1085
  665TIP3   OH223629   2.463   4.775   7.229  0.1796 -0.5330  0.6387
  665TIP3    H123630   2.509   4.766   7.146  3.0438  2.2348  1.7381
  665TIP3    H223631   2.405   4.851   7.216 -0.6718 -1.1535  0.7011
  666TIP3   OH223632   2.655   1.604   1.310 -0.4731 -0.1146  0.1232
  666TIP3    H123633   2.572   1.558   1.298 -0.9518  0.3038  1.6020
  666TIP3    H223634   2.715   1.537   1.345 -0.6791 -0.0414  0.6335
  667TIP3   OH223635   0.790   0.701   1.862  0.5592 -0.5641  0.2994
  667TIP3    H123636   0.816   0.716   1.952  1.2065 -1.1359  0.2206
  667TIP3    H223637   0.847   0.757   1.810 -1.6568  1.9230  0.3470
  668TIP3   OH223638   1.207   5.557   0.922  0.6293 -0.1732 -0.7184
  668TIP3    H123639   1.283   5.547   0.865  0.3092  2.0305 -1.6533
  668TIP3    H223640   1.132   5.554   0.863  0.1149 -0.4805 -0.0566
  669TIP3   OH223641   5.564   4.739   2.609 -0.1268  0.1011  0.5758
  669TIP3    H123642   5.622   4.771   2.540  0.5939 -0.6863  0.7913
  669TIP3    H223643   5.599   4.776   2.690  0.2698 -0.5995  0.7395
  670TIP3   OH223644   0.811   6.369   8.585  0.7053 -0.7387 -0.0400
  670TIP3    H123645   0.793   6.281   8.553  1.5746 -0.1070 -2.4342
  670TIP3    H223646   0.898   6.363   8.624  0.3481 -1.1379  0.7127
  671TIP3   OH223647   3.027   0.340   0.188 -0.1798 -0.2826  0.0064
  671TIP3    H123648   3.121   0.323   0.190 -0.1700 -0.2041  0.3424
  671TIP3    H223649   3.000   0.337   0.280 -0.3228  0.6878  0.0038
  672TIP3   OH223650   4.402   2.507   0.647 -0.7135  0.1952 -0.2636
  672TIP3    H123651   4.380   2.452   0.723 -1.3695 -0.3948 -0.8739
  672TIP3    H223652   4.493   2.533   0.663 -0.6152 -0.4971  0.3778
  673TIP3   OH223653   6.043   3.039   7.581 -0.1150  0.2150 -1.0426
  673TIP3    H123654   6.066   2.972   7.646  0.2858  0.7325 -0.6390
  673TIP3    H223655   5.984   3.099   7.628  0.1601  0.5796 -1.1521
  674TIP3   OH223656   3.680   4.110   1.869  0.5638 -0.1409 -0.0331
  674TIP3    H123657   3.707   4.081   1.782 -1.1298 -0.3599 -0.5317
  674TIP3    H223658   3.610   4.049   1.894 -0.1518  0.9526  0.7239
  675TIP3   OH223659   4.772   1.919   8.080 -0.7587 -0.0201  0.0955
  675TIP3    H123660   4.712   1.909   8.006 -1.7998 -1.3067  1.0696
  675TIP3    H223661   4.839   1.980   8.048 -0.8910 -0.9008 -2.0789
  676TIP3   OH223662   0.884   5.370   1.106 -0.0511 -0.3843  0.3280
  676TIP3    H123663   0.875   5.466   1.110 -0.6405 -0.3988 -0.4299
  676TIP3    H223664   0.880   5.349   1.013  0.3381 -1.1315  0.4717
  677TIP3   OH223665   2.930   5.837   8.272 -0.3797 -0.1328  0.3322
  677TIP3    H123666   2.951   5.755   8.227  1.5736 -0.9973  2.6275
  677TIP3    H223667   2.926   5.902   8.202 -0.8927 -1.9626 -1.4285
  678TIP3   OH223668   6.748   4.035   0.475 -0.2265  0.1016 -0.2930
  678TIP3    H123669   6.656   4.059   0.483 -0.3575  0.1582 -1.8371
  678TIP3    H223670   6.749   3.959   0.417  0.6417 -0.4396  0.3812
  679TIP3   OH223671   5.510   0.509   7.593 -0.2571 -0.4213 -1.0738
  679TIP3    H123672   5.464   0.537   7.514 -1.5700 -1.6101 -0.7800
  679TIP3    H223673   5.555   0.429   7.569  0.2034 -0.2288 -0.8764
  680TIP3   OH223674   6.692   5.979   0.098  0.1571 -0.7299 -0.0294
  680TIP3    H123675   6.619   5.940   0.050 -0.5140 -0.7364  0.9900
  680TIP3    H223676   6.652   6.033   0.165  1.0228 -2.5624  2.0843
  681TIP3   OH223677   4.497   1.425   8.501  0.1400  0.4852  0.3925
  681TIP3    H123678   4.542   1.493   8.551 -1.1134  1.0348  0.8434
  681TIP3    H223679   4.426   1.472   8.456 -1.4621 -0.6454  1.5943
  682TIP3   OH223680   5.890   2.749   8.022 -0.1452 -0.0908  0.2852
  682TIP3    H123681   5.920   2.658   8.018 -1.6758 -0.6230  0.3929
  682TIP3    H223682   5.921   2.789   7.941  0.2160 -0.8061  0.0688
  683TIP3   OH223683   1.259   2.157   1.656 -0.2715 -0.1653 -0.0485
  683TIP3    H123684   1.209   2.238   1.667 -2.0537 -0.9189 -1.8468
  683TIP3    H223685   1.246   2.109   1.738 -0.1550  0.8790  0.5898
  684TIP3   OH223686   1.222   5.159   1.971 -0.3537  0.5428 -0.1578
  684TIP3    H123687   1.229   5.067   1.945 -0.9314  0.2393  0.6973
  684TIP3    H223688   1.278   5.167   2.048 -0.7366  0.7710  0.1014
  685TIP3   OH223689   6.095   6.595   8.295  0.3999  0.1503 -0.3621
  685TIP3    H123690   6.134   6.530   8.353 -0.4278 -1.2325 -1.3097
  685TIP3    H223691   6.144   6.587   8.213  0.2018  0.6512 -0.5359
  686TIP3   OH223692   1.422   0.504   8.573 -0.2756 -0.9679 -0.3708
  686TIP3    H123693   1.332   0.536   8.571 -0.0650 -0.2816  0.5169
  686TIP3    H223694   1.475   0.581   8.555  0.2020 -0.9937  0.8898
  687TIP3   OH223695   3.627   2.884   0.361 -0.3524 -0.4830  0.2951
  687TIP3    H123696   3.538   2.917   0.350  0.1857  1.3970  1.0702
  687TIP3    H223697   3.683   2.958   0.338  0.9330 -0.4557  3.1007
  688TIP3   OH223698   4.796   6.287   2.227  0.1451  0.5340  0.1996
  688TIP3    H123699   4.876   6.335   2.249 -0.4225  1.7867 -0.4135
  688TIP3    H223700   4.732   6.355   2.208 -0.2500 -0.4525 -2.2910
  689TIP3   OH223701   3.751   2.922   0.693  0.4678 -0.5225 -0.5881
  689TIP3    H123702   3.749   3.008   0.736  1.7823 -1.5253  1.6717
  689TIP3    H223703   3.733   2.941   0.601  1.2873  2.2405 -0.2797
  690TIP3   OH223704   1.918   6.683   1.518 -0.2333 -0.2146 -0.5237
  690TIP3    H123705   2.003   6.639   1.519 -0.4105 -0.5574 -0.0673
  690TIP3    H223706   1.868   6.636   1.451 -0.8587 -1.5947  0.8322
  691TIP3   OH223707   0.581   2.047   0.221 -0.3376  0.1431 -0.6020
  691TIP3    H123708   0.628   1.967   0.195  1.7130  1.7192 -2.1501
  691TIP3    H223709   0.631   2.118   0.179 -1.7786  2.2873  1.1171
  692TIP3   OH223710   3.636   1.974   0.705  0.1304  0.4906 -0.4463
  692TIP3    H123711   3.566   1.928   0.661  0.7079 -0.4394 -0.4164
  692TIP3    H223712   3.593   2.019   0.778 -0.3925 -0.2690 -0.2790
  693TIP3   OH223713   6.688   6.202   8.309  0.4134 -0.3029  0.0694
  693TIP3    H123714   6.740   6.262   8.256 -0.7982 -0.4438 -1.3692
  693TIP3    H223715   6.700   6.232   8.399  1.5758  0.7173 -0.3999
  694TIP3   OH223716   0.696   4.328   1.463  0.6885  0.2958 -1.0890
  694TIP3    H123717   0.658   4.240   1.457  0.6255  0.3268 -1.1583
  694TIP3    H223718   0.790   4.314   1.462  0.7221  0.0861  0.9544
  695TIP3   OH223719   1.778   5.014   0.389 -0.3574  0.6570 -0.4105
  695TIP3    H123720   1.737   5.019   0.302  2.2860 -2.7468 -2.0984
  695TIP3    H223721   1.844   5.082   0.389 -0.2055  0.5195 -1.2158
  696TIP3   OH223722   0.269   3.022   0.680  0.0786  0.2159 -0.0269
  696TIP3    H123723   0.334   3.091   0.670  1.1272 -0.6029  1.0059
  696TIP3    H223724   0.201   3.061   0.735  0.0277  0.8282 -0.5084
  697TIP3   OH223725   3.307   6.072   1.129 -0.1304  0.3055  0.8051
  697TIP3    H123726   3.395   6.102   1.108 -0.0808 -1.2495 -1.5579
  697TIP3    H223727   3.321   5.995   1.184  0.1042 -0.7985 -0.7347
  698TIP3   OH223728   3.189   3.112   7.724  0.1097  0.0759 -0.4805
  698TIP3    H123729   3.273   3.083   7.760  0.1784  2.6108  1.7143
  698TIP3    H223730   3.210   3.143   7.636  1.2541 -0.2995 -0.3595
  699TIP3   OH223731   6.696   5.845   7.629  0.4329  0.2759 -0.1926
  699TIP3    H123732   6.626   5.826   7.691  0.2407 -1.2652 -0.8322
  699TIP3    H223733   6.651   5.864   7.546  0.7293  0.8603 -0.2263
  700TIP3   OH223734   5.935   2.459   8.492  0.5248 -0.3175  0.1045
  700TIP3    H123735   5.858   2.502   8.455  0.7162  1.0788  1.2157
  700TIP3    H223736   5.900   2.393   8.551  0.1628  0.5504  0.8752
  701TIP3   OH223737   5.735   4.206   8.554 -0.1718  0.3945 -0.2707
  701TIP3    H123738   5.659   4.261   8.535 -0.7308  0.1073  1.0678
  701TIP3    H223739   5.712   4.120   8.520 -1.1531 -0.1065  1.5463
  702TIP3   OH223740   4.380   6.526   1.489 -0.2863 -0.2864 -0.0366
  702TIP3    H123741   4.460   6.550   1.537  0.0882  0.5361 -1.0404
  702TIP3    H223742   4.381   6.430   1.488 -0.0570 -0.3248  1.1708
  703TIP3   OH223743   3.210   5.493   7.917  0.0336  0.6272 -0.0784
  703TIP3    H123744   3.221   5.521   7.826  3.1407  0.1400  0.0337
  703TIP3    H223745   3.218   5.574   7.968  0.5912  0.6095 -0.1364
  704TIP3   OH223746   0.876   5.774   6.912 -0.1257  0.1370 -0.1139
  704TIP3    H123747   0.831   5.777   6.828  0.6438 -0.9661 -0.5932
  704TIP3    H223748   0.906   5.684   6.921  0.5769  0.4421  0.9309
  705TIP3   OH223749   3.967   0.307   7.535  0.3756 -0.1770 -0.3861
  705TIP3    H123750   3.959   0.394   7.572  0.2797  0.1112 -1.0763
  705TIP3    H223751   3.894   0.258   7.573  1.0714 -0.2930  0.8774
  706TIP3   OH223752   4.677   6.800   1.493  0.0923  0.8842 -0.1528
  706TIP3    H123753   4.647   6.878   1.540 -3.2398  0.8105 -1.8771
  706TIP3    H223754   4.660   6.820   1.401  0.3400 -1.4220 -0.7552
  707TIP3   OH223755   4.477   0.897   1.993  0.0299 -0.2299 -0.0478
  707TIP3    H123756   4.413   0.825   1.991 -0.5501  0.2677 -1.8840
  707TIP3    H223757   4.495   0.910   2.085 -0.9913 -1.7491  0.4127
  708TIP3   OH223758   6.346   4.751   1.808 -0.4161  0.0615  0.3241
  708TIP3    H123759   6.358   4.659   1.830 -3.0440 -0.2224  0.8531
  708TIP3    H223760   6.385   4.799   1.881 -0.1906 -0.6565  0.6828
  709TIP3   OH223761   4.889   3.403   2.888  0.3715  0.1081 -0.0081
  709TIP3    H123762   4.878   3.330   2.948  0.6498  1.0649  1.2578
  709TIP3    H223763   4.912   3.477   2.944  1.0438  0.9554 -1.3369
  710TIP3   OH223764   0.564   2.860   7.197  0.3759  0.0676 -0.5119
  710TIP3    H123765   0.547   2.767   7.180 -0.9905  0.0684  0.6403
  710TIP3    H223766   0.482   2.903   7.175 -0.5476  0.4162  2.9233
  711TIP3   OH223767   3.008   5.563   2.201  0.2705 -0.0321 -0.3099
  711TIP3    H123768   3.040   5.473   2.202 -1.2501 -0.6078  1.3063
  711TIP3    H223769   3.034   5.599   2.286  0.2766  0.8429 -0.6697
  712TIP3   OH223770   1.523   5.509   7.181 -0.0828  0.0080 -0.1090
  712TIP3    H123771   1.558   5.581   7.128  0.3695 -0.5145 -0.5335
  712TIP3    H223772   1.564   5.430   7.145 -0.1809 -0.4146  0.6724
  713TIP3   OH223773   3.398   2.426   1.989  0.2348  0.2474  0.1996
  713TIP3    H123774   3.335   2.494   2.015 -0.2771  0.2701 -1.0138
  713TIP3    H223775   3.344   2.358   1.949  0.5720 -1.5720  2.6178
  714TIP3   OH223776   2.056   0.016   2.151 -0.1899 -0.2014 -0.2172
  714TIP3    H123777   2.135   0.062   2.181  0.4672  0.0228 -2.1184
  714TIP3    H223778   1.985   0.076   2.171 -0.0971 -0.9116  2.6260
  715TIP3   OH223779   3.088   1.350   0.819 -0.0518 -0.2081 -0.7660
  715TIP3    H123780   3.154   1.384   0.759  1.5801 -0.0699  1.0189
  715TIP3    H223781   3.074   1.420   0.883 -0.2146 -1.0903  0.1968
  716TIP3   OH223782   5.867   2.211   8.153 -0.2820  0.2190 -0.0885
  716TIP3    H123783   5.862   2.139   8.090 -1.2560  1.1448 -1.1276
  716TIP3    H223784   5.803   2.275   8.121  1.9312  2.4407 -0.3347
  717TIP3   OH223785   0.981   5.518   8.581 -0.3205  0.0698  0.2973
  717TIP3    H123786   0.981   5.590   8.518  0.1680 -0.8943 -0.8476
  717TIP3    H223787   1.064   5.473   8.566 -0.6028 -0.7237  1.0072
  718TIP3   OH223788   6.755   0.426   0.243  0.3772  0.1077 -0.1960
  718TIP3    H123789   6.798   0.347   0.277  0.0012  0.3190  0.7923
  718TIP3    H223790   6.668   0.395   0.215  0.1711  0.1848  0.3351
  719TIP3   OH223791   4.703   5.162   0.857 -0.1469 -0.5677 -1.0226
  719TIP3    H123792   4.647   5.232   0.825 -0.3061 -0.2611 -0.1190
  719TIP3    H223793   4.791   5.201   0.861 -0.0766 -0.6905 -1.3389
  720TIP3   OH223794   1.149   4.144   8.780  0.4357  0.2371  0.1292
  720TIP3    H123795   1.184   4.203   8.846 -2.5939  2.5175 -0.0909
  720TIP3    H223796   1.169   4.186   8.696 -0.4461  0.2286 -0.1055
  721TIP3   OH223797   1.531   0.031   8.294 -0.3817  0.0519 -0.5596
  721TIP3    H123798   1.515   0.113   8.248 -0.0582  1.0851  1.0872
  721TIP3    H223799   1.460   0.024   8.357  0.5063 -0.0412  0.4696
  722TIP3   OH223800   0.264   5.502   0.527  0.0890 -0.0209  0.1505
  722TIP3    H123801   0.333   5.506   0.594  1.3658  1.4023 -1.1987
  722TIP3    H223802   0.193   5.556   0.563  0.7872  0.7905  0.3438
  723TIP3   OH223803   1.189   4.659   8.826 -0.0399 -0.2978 -0.1082
  723TIP3    H123804   1.167   4.745   8.791  0.6747  0.0491  0.2848
  723TIP3    H223805   1.144   4.654   8.909 -0.2668 -0.3953 -0.2373
  724TIP3   OH223806   4.556   1.631   7.738  0.1911  0.3010 -0.1827
  724TIP3    H123807   4.609   1.657   7.663  1.2998 -2.5217 -0.5130
  724TIP3    H223808   4.472   1.605   7.701  0.2870  0.1534 -0.2976
  725TIP3   OH223809   1.327   3.948   8.782  0.4903  0.7428 -0.2216
  725TIP3    H123810   1.354   3.998   8.860 -0.1195  1.7694 -0.6452
  725TIP3    H223811   1.236   3.924   8.798  1.2630 -1.8648  0.7683
  726TIP3   OH223812   6.640   3.886   2.047  0.4535 -0.7903 -0.1452
  726TIP3    H123813   6.564   3.853   2.094 -0.7425  0.0616 -1.4248
  726TIP3    H223814   6.713   3.870   2.107 -0.7982 -1.0256  1.3974
  727TIP3   OH223815   1.732   0.429   2.255  0.3816  0.2132  0.6780
  727TIP3    H123816   1.663   0.482   2.214  0.2207  0.0152  0.6909
  727TIP3    H223817   1.685   0.371   2.315  0.2529 -1.8149 -1.2498
  728TIP3   OH223818   1.436   2.130   8.918  0.8065 -0.0252 -0.0787
  728TIP3    H123819   1.438   2.132   8.822  1.2999  0.7839 -0.0555
  728TIP3    H223820   1.357   2.179   8.941 -0.9745 -2.6612 -0.1127
  729TIP3   OH223821   5.366   0.456   0.112 -0.1462  0.2582 -0.2656
  729TIP3    H123822   5.430   0.526   0.102  0.4702 -0.4411 -1.5737
  729TIP3    H223823   5.378   0.401   0.034 -0.3967 -1.4525  0.8308
  730TIP3   OH223824   3.418   5.942   0.422  0.2243 -0.1019 -0.0956
  730TIP3    H123825   3.465   5.998   0.361 -0.3023 -1.2907 -1.6652
  730TIP3    H223826   3.474   5.865   0.433  0.0226 -0.1791  0.4135
  731TIP3   OH223827   0.429   6.092   0.056 -0.4108 -0.1786  0.6475
  731TIP3    H123828   0.369   6.054   0.120 -0.4964 -1.0128  0.0847
  731TIP3    H223829   0.516   6.072   0.090 -0.4547 -0.8833  0.3672
  732TIP3   OH223830   5.732   6.584   2.173 -0.3164  0.7011 -0.5216
  732TIP3    H123831   5.701   6.586   2.082  0.4268 -0.9874 -0.8544
  732TIP3    H223832   5.652   6.577   2.225 -0.6732 -1.3789 -1.2518
  733TIP3   OH223833   3.836   5.896   0.642 -0.2046 -0.1640 -0.0852
  733TIP3    H123834   3.833   5.855   0.728  0.5708  0.7562  0.3949
  733TIP3    H223835   3.826   5.823   0.581 -0.5339 -0.8554  0.7729
  734TIP3   OH223836   1.822   5.048   7.733  0.1934  0.1668  0.3440
  734TIP3    H123837   1.907   5.048   7.777  0.4877 -0.3206 -0.2094
  734TIP3    H223838   1.830   4.981   7.665 -0.6021  0.1846  0.2221
  735TIP3   OH223839   3.518   2.182   6.802  0.7116 -0.6342  0.1696
  735TIP3    H123840   3.586   2.250   6.797  0.3397 -0.1959  0.8563
  735TIP3    H223841   3.440   2.224   6.765  0.7088 -0.9908 -0.2258
  736TIP3   OH223842   5.723   3.858   8.234 -0.0094 -0.2314 -0.3681
  736TIP3    H123843   5.633   3.892   8.237  0.3861  1.0187 -1.4249
  736TIP3    H223844   5.737   3.837   8.141  0.5914 -0.9837 -0.1129
  737TIP3   OH223845   5.741   2.152   8.396 -0.2086 -0.1713  0.0743
  737TIP3    H123846   5.798   2.187   8.328  1.7923 -0.3541  1.5604
  737TIP3    H223847   5.739   2.220   8.464 -0.9141 -0.5961  0.4961
  738TIP3   OH223848   5.203   6.373   8.423 -0.2713  0.3290  0.7789
  738TIP3    H123849   5.244   6.418   8.497  0.2737 -0.4912  0.9918
  738TIP3    H223850   5.276   6.353   8.364 -0.5115 -0.1979  0.6521
  739TIP3   OH223851   4.472   1.604   2.516  0.1755  0.2109 -0.0345
  739TIP3    H123852   4.558   1.570   2.540  0.5769  1.2283  0.0276
  739TIP3    H223853   4.410   1.537   2.546  0.7588  0.6390  2.3385
  740TIP3   OH223854   0.831   5.602   0.181  0.0843 -0.1174 -0.1152
  740TIP3    H123855   0.756   5.549   0.153 -0.2229 -0.3015  0.9849
  740TIP3    H223856   0.863   5.643   0.101 -0.6931 -0.6791 -0.7319
  741TIP3   OH223857   2.224   2.003   1.681  0.0787  0.2516  0.5769
  741TIP3    H123858   2.147   1.997   1.624  1.2529 -1.5039 -0.8956
  741TIP3    H223859   2.255   2.093   1.670 -1.2696  0.7438  0.5847
  742TIP3   OH223860   1.203   2.522   2.420 -0.7988 -0.7389  0.6467
  742TIP3    H123861   1.235   2.607   2.389 -0.6469 -1.7745 -2.3676
  742TIP3    H223862   1.243   2.511   2.506 -0.0052  1.7696  0.6820
  743TIP3   OH223863   6.044   3.174   7.218  0.8535 -0.6461  0.4706
  743TIP3    H123864   6.098   3.107   7.175 -0.6797 -0.2088 -2.4240
  743TIP3    H223865   6.102   3.250   7.225  1.0158 -0.4967 -1.6575
  744TIP3   OH223866   6.552   1.705   2.323 -0.3718 -0.8448 -0.0106
  744TIP3    H123867   6.586   1.616   2.324 -0.7476 -1.0645 -2.2132
  744TIP3    H223868   6.466   1.698   2.280  0.1127  0.6895 -1.3485
  745TIP3   OH223869   2.980   4.368   7.322 -0.1500  0.2949  0.8312
  745TIP3    H123870   2.969   4.332   7.234 -0.7864  0.5454  0.8012
  745TIP3    H223871   3.026   4.451   7.308  0.4153 -0.0184  0.8076
  746TIP3   OH223872   3.168   4.322   0.523 -0.1956  0.3670 -0.2669
  746TIP3    H123873   3.091   4.344   0.575 -1.8732 -2.4422 -1.3574
  746TIP3    H223874   3.235   4.299   0.587 -0.0835  3.0595  0.7066
  747TIP3   OH223875   3.769   4.906   7.798  0.2161 -0.2271 -0.1440
  747TIP3    H123876   3.858   4.908   7.764 -0.0280  0.2523 -0.7777
  747TIP3    H223877   3.747   4.998   7.814 -0.2455 -0.3196 -0.2092
  748TIP3   OH223878   5.429   5.988   8.884 -0.3959 -0.4225 -0.4023
  748TIP3    H123879   5.396   5.945   8.963 -2.1108 -1.9467 -1.8538
  748TIP3    H223880   5.524   5.987   8.894 -0.5587 -0.9319  1.4473
  749TIP3   OH223881   2.135   2.380   7.368 -0.0482 -0.2444 -0.3397
  749TIP3    H123882   2.172   2.300   7.331 -1.5840  0.2559 -3.2509
  749TIP3    H223883   2.047   2.385   7.331 -0.8202  1.6931  1.5344
  750TIP3   OH223884   1.518   2.187   0.599  0.0835  0.1060  0.0514
  750TIP3    H123885   1.440   2.131   0.595 -0.0207  0.2296  0.3180
  750TIP3    H223886   1.488   2.267   0.641 -0.0330  0.8390 -1.3786
  751TIP3   OH223887   1.338   3.575   1.871 -0.1735  0.1891  0.0758
  751TIP3    H123888   1.402   3.646   1.870  0.1123  0.0172  2.0356
  751TIP3    H223889   1.344   3.538   1.959  1.0235 -3.5257 -1.3499
  752TIP3   OH223890   6.203   4.201   8.828  0.3384 -0.4962 -0.3532
  752TIP3    H123891   6.238   4.118   8.795 -1.2120 -1.1008 -0.5636
  752TIP3    H223892   6.109   4.197   8.808  0.3232  1.5798 -0.9225
  753TIP3   OH223893   3.787   1.810   7.217  0.1380 -0.4800 -0.6688
  753TIP3    H123894   3.716   1.749   7.197 -0.6200  0.3477 -0.5361
  753TIP3    H223895   3.757   1.894   7.183  0.4648  0.1679  0.5997
  754TIP3   OH223896   3.715   4.021   7.409 -0.1553  0.1992 -0.4616
  754TIP3    H123897   3.709   3.928   7.432  1.1189  0.1077 -0.4460
  754TIP3    H223898   3.716   4.022   7.314 -2.1231  0.3560 -0.5226
  755TIP3   OH223899   2.735   3.706   7.916 -0.1732 -0.2327  0.2025
  755TIP3    H123900   2.670   3.637   7.903 -0.9163  0.0921  1.8850
  755TIP3    H223901   2.803   3.688   7.850 -1.9045 -0.6120 -1.5833
  756TIP3   OH223902   1.119   6.533   0.296 -0.2951 -0.0578  0.3857
  756TIP3    H123903   1.082   6.620   0.309  3.2695  1.8104 -0.7980
  756TIP3    H223904   1.117   6.493   0.384  1.4054  2.7904  1.8713
  757TIP3   OH223905   5.540   1.213   0.460 -0.4248  0.0399 -0.1282
  757TIP3    H123906   5.511   1.135   0.413 -1.2199 -0.1087  0.5646
  757TIP3    H223907   5.481   1.218   0.536  1.4357 -0.3282  1.4304
  758TIP3   OH223908   5.632   2.036   7.241  0.1354  0.2313 -0.1749
  758TIP3    H123909   5.573   2.111   7.252  0.9413  0.8541 -0.0019
  758TIP3    H223910   5.630   1.991   7.325  0.8110  0.9356  0.2308
  759TIP3   OH223911   0.019   5.495   1.310  0.4833  0.4640 -0.3160
  759TIP3    H123912  -0.076   5.505   1.313  0.4361 -0.0982  0.4094
  759TIP3    H223913   0.036   5.457   1.224  0.0242  0.3496 -0.3624
  760TIP3   OH223914   2.769   5.647   0.865 -0.4354 -0.2677 -0.4980
  760TIP3    H123915   2.772   5.572   0.805  0.7863  0.7415 -1.7671
  760TIP3    H223916   2.838   5.630   0.929  0.9084  0.4310 -1.6872
  761TIP3   OH223917   1.782   6.468   2.003  0.3020  0.3765  0.4763
  761TIP3    H123918   1.810   6.470   1.912 -0.8428 -2.1100 -0.0100
  761TIP3    H223919   1.859   6.442   2.052  1.0354  2.1343  0.3369
  762TIP3   OH223920   4.572   3.266   1.927 -0.5278  0.4880  0.1902
  762TIP3    H123921   4.622   3.346   1.942  0.2682  0.1450 -0.5281
  762TIP3    H223922   4.493   3.277   1.980  0.8357  0.5172  2.3254
  763TIP3   OH223923   1.527   1.534   1.460 -0.6443 -0.1367  0.1784
  763TIP3    H123924   1.537   1.508   1.368 -0.0046  1.0894 -0.1190
  763TIP3    H223925   1.570   1.464   1.509  1.0894  0.3188 -0.6100
  764TIP3   OH223926   6.660   3.107   1.475 -0.2856 -0.0391 -0.6235
  764TIP3    H123927   6.630   3.063   1.395 -1.6155 -0.9034  0.2985
  764TIP3    H223928   6.600   3.076   1.543  1.0301  0.3860  0.7900
  765TIP3   OH223929   0.529   2.364   3.092 -0.6357 -0.3695 -0.4288
  765TIP3    H123930   0.611   2.399   3.058 -1.2194 -0.3581 -1.9230
  765TIP3    H223931   0.537   2.269   3.081  0.3284 -0.6777  2.1959
  766TIP3   OH223932   3.059   5.402   0.366  0.0657 -0.1241 -0.2079
  766TIP3    H123933   3.140   5.436   0.403  0.6132 -0.1454 -1.3209
  766TIP3    H223934   3.060   5.431   0.275 -2.2421  1.7091  0.2585
  767TIP3   OH223935   0.134   6.142   1.696  0.1348 -0.1606  0.0169
  767TIP3    H123936   0.176   6.122   1.612  3.2193  0.3510  1.2919
  767TIP3    H223937   0.106   6.056   1.729 -0.3878 -0.4597 -1.1441
  768TIP3   OH223938   6.647   3.671   1.314 -0.0496  0.5478 -0.2659
  768TIP3    H123939   6.665   3.712   1.398  0.1253 -0.0814  0.0052
  768TIP3    H223940   6.727   3.684   1.263 -0.2313  1.1108 -0.4124
  769TIP3   OH223941   2.518   2.200   7.277 -0.3041  0.7518 -0.1153
  769TIP3    H123942   2.549   2.145   7.205 -1.1933 -0.7569  0.5882
  769TIP3    H223943   2.588   2.263   7.291  0.4257  0.2891 -1.4833
  770TIP3   OH223944   5.654   2.483   7.797 -0.0764  0.8688  0.1343
  770TIP3    H123945   5.574   2.508   7.750 -0.1867 -1.4037 -1.0172
  770TIP3    H223946   5.724   2.528   7.750 -0.3766  0.1837 -1.0059
  771TIP3   OH223947   0.645   1.872   8.346 -0.1192  0.2215  0.0357
  771TIP3    H123948   0.583   1.820   8.295 -1.4215  2.3039 -0.6234
  771TIP3    H223949   0.622   1.855   8.437 -1.4668  0.6673 -0.1974
  772TIP3   OH223950   6.735   4.404   0.797 -0.2508  0.5042  0.0855
  772TIP3    H123951   6.817   4.392   0.749 -0.9544 -0.0796 -1.0093
  772TIP3    H223952   6.738   4.495   0.826  0.7832  0.4931  0.0639
  773TIP3   OH223953   2.780   2.770   1.781 -0.0725 -0.2422  0.0747
  773TIP3    H123954   2.815   2.833   1.845 -0.0325  0.4755 -0.6341
  773TIP3    H223955   2.764   2.691   1.832  1.5426 -0.2364  0.6566
  774TIP3   OH223956   0.963   6.582   7.759 -0.4188  0.3052  0.4664
  774TIP3    H123957   1.048   6.582   7.803  0.2691  2.5758 -0.6819
  774TIP3    H223958   0.940   6.489   7.751  3.0029 -0.5871 -1.1036
  775TIP3   OH223959   5.392   6.080   0.714  0.1132 -0.2013  0.3229
  775TIP3    H123960   5.466   6.056   0.658 -0.2444  0.3918 -0.4114
  775TIP3    H223961   5.426   6.150   0.770  0.3180 -0.4305  0.4874
  776TIP3   OH223962   5.219   3.755   2.736 -0.0899  0.1944 -0.0661
  776TIP3    H123963   5.145   3.808   2.707  0.4774  0.3339 -1.3244
  776TIP3    H223964   5.205   3.670   2.694 -0.7555 -0.5495  1.5750
  777TIP3   OH223965   2.092   1.999   1.226  0.5496  0.2018 -0.1153
  777TIP3    H123966   2.026   1.998   1.157 -0.7491  0.9956  1.0584
  777TIP3    H223967   2.089   2.088   1.260  0.5410 -0.3954  1.5197
  778TIP3   OH223968   5.960   4.915   2.756  0.2713 -0.0075 -0.1416
  778TIP3    H123969   6.053   4.929   2.739  0.1861  0.9757  0.1241
  778TIP3    H223970   5.936   4.985   2.817 -0.0777 -1.7248  1.8065
  779TIP3   OH223971   3.166   0.766   8.571  0.5025 -0.2557 -0.8728
  779TIP3    H123972   3.147   0.831   8.502 -0.0397 -1.6775 -2.1193
  779TIP3    H223973   3.260   0.773   8.585  0.1042  3.0863  1.4610
  780TIP3   OH223974   4.936   2.484   1.918 -0.0137  0.4359 -0.3084
  780TIP3    H123975   5.003   2.553   1.922 -0.7818  1.1760  0.4289
  780TIP3    H223976   4.961   2.423   1.987  1.0149 -0.3745 -1.3672
  781TIP3   OH223977   6.549   6.637   6.591  0.7860  0.0316  0.0784
  781TIP3    H123978   6.514   6.725   6.579 -0.0733 -0.3666 -0.3806
  781TIP3    H223979   6.634   6.651   6.633  0.7210  1.0835 -0.1133
  782TIP3   OH223980   2.008   6.074   0.692 -0.5735 -0.1696  0.3192
  782TIP3    H123981   1.987   6.119   0.773 -0.5785  0.3386  0.0427
  782TIP3    H223982   2.067   6.134   0.646  0.4429 -1.0030  0.5077
  783TIP3   OH223983   4.216   4.954   0.137 -0.0552 -0.0229 -0.2303
  783TIP3    H123984   4.175   4.879   0.093 -0.0314 -0.3442  0.2897
  783TIP3    H223985   4.274   4.992   0.071  0.2647 -0.7253 -0.3624
  784TIP3   OH223986   5.840   0.905   8.310  0.0773  0.0774 -0.5210
  784TIP3    H123987   5.838   0.955   8.228  0.1555  1.9426  0.5737
  784TIP3    H223988   5.791   0.825   8.289  0.1373  0.4745 -2.3948
  785TIP3   OH223989   2.475   1.696   1.866  0.3548  0.2059 -0.1050
  785TIP3    H123990   2.489   1.660   1.778  0.2041  0.4632 -0.2337
  785TIP3    H223991   2.391   1.660   1.894 -0.0277  0.8371 -0.4267
  786TIP3   OH223992   0.100   2.501   1.987  0.0120  0.0050 -0.7247
  786TIP3    H123993   0.131   2.467   1.903 -0.0610 -3.2503  0.4491
  786TIP3    H223994   0.180   2.523   2.035  0.0872  0.7490 -1.1692
  787TIP3   OH223995   2.085   4.270   0.955  0.1371  0.2231 -0.2282
  787TIP3    H123996   2.045   4.291   0.871 -0.0705  0.6305 -0.0296
  787TIP3    H223997   2.117   4.180   0.945 -1.5416 -0.4215 -0.1337
  788TIP3   OH223998   5.830   0.326   0.516  0.3373  0.5089 -0.0817
  788TIP3    H123999   5.813   0.250   0.572  0.0124 -0.0594 -0.9461
  788TIP3    H224000   5.853   0.289   0.431  0.8538  1.3716 -0.3290
  789TIP3   OH224001   1.014   0.362   0.191 -0.4226 -0.1826 -0.1792
  789TIP3    H124002   0.947   0.294   0.185  0.1208 -1.0651  2.4789
  789TIP3    H224003   1.096   0.314   0.198  0.1348  0.7968  0.1864
  790TIP3   OH224004   5.710   1.344   0.916  0.0913 -0.0705  0.1795
  790TIP3    H124005   5.791   1.375   0.957 -0.4406  2.1193 -0.3266
  790TIP3    H224006   5.739   1.274   0.857  1.2475 -1.1034  1.8619
  791TIP3   OH224007   6.252   3.057   7.955 -0.0531  0.0073 -0.7367
  791TIP3    H124008   6.225   3.015   8.036 -0.6455 -2.4672 -2.1297
  791TIP3    H224009   6.336   3.016   7.933  0.5292  1.2655 -0.9850
  792TIP3   OH224010   3.407   6.102   8.341 -0.0795  0.4397 -0.3836
  792TIP3    H124011   3.379   6.119   8.431 -2.1321  0.0031 -0.8847
  792TIP3    H224012   3.409   6.006   8.334 -3.1247  0.3559 -1.6206
  793TIP3   OH224013   4.895   4.324   1.390  0.3507 -0.2413  0.0098
  793TIP3    H124014   4.983   4.360   1.392  1.1438 -2.0461 -0.7424
  793TIP3    H224015   4.897   4.250   1.451  0.1700 -1.9477 -1.9512
  794TIP3   OH224016   6.114   1.914   2.594 -0.4095  0.4682  0.0289
  794TIP3    H124017   6.032   1.868   2.611 -0.2909 -0.1417 -0.9556
  794TIP3    H224018   6.088   1.990   2.542 -0.4290  0.6670  0.3283
  795TIP3   OH224019   3.837   1.175   7.570 -0.2534  0.1644  0.1536
  795TIP3    H124020   3.818   1.088   7.533  0.8651  0.7954 -2.0914
  795TIP3    H224021   3.760   1.227   7.548  1.1756  1.0714 -3.3650
  796TIP3   OH224022   6.540   6.659   0.655  0.3933 -0.5811 -0.4824
  796TIP3    H124023   6.545   6.696   0.567  0.7621 -1.8471 -1.0247
  796TIP3    H224024   6.571   6.569   0.644 -0.2546 -0.9777  0.8164
  797TIP3   OH224025   5.762   4.610   0.513 -0.1237  0.3134  0.1012
  797TIP3    H124026   5.764   4.654   0.428 -1.6560 -0.1486 -0.2133
  797TIP3    H224027   5.853   4.593   0.534  0.3875  1.8838 -0.6871
  798TIP3   OH224028   2.521   4.633   8.094 -0.2298  0.2491  0.1965
  798TIP3    H124029   2.484   4.687   8.164 -0.0258  1.4581 -0.5876
  798TIP3    H224030   2.611   4.617   8.121 -0.5711 -0.5706  0.9066
  799TIP3   OH224031   1.716   3.941   1.550  0.0432  0.1451 -0.0823
  799TIP3    H124032   1.706   3.990   1.468 -0.6355  1.7576  0.9051
  799TIP3    H224033   1.714   4.008   1.618  2.4292 -0.9656  1.1880
  800TIP3   OH224034   2.058   1.065   0.155  0.0949 -0.3399 -0.2076
  800TIP3    H124035   1.975   1.104   0.128 -2.0945 -3.3071  1.5368
  800TIP3    H224036   2.063   1.083   0.249  1.5034 -0.1329 -0.3109
  801TIP3   OH224037   1.541   1.248   8.844 -0.3156  0.6026  0.5071
  801TIP3    H124038   1.595   1.170   8.839  0.0222  0.8399  0.4029
  801TIP3    H224039   1.472   1.226   8.907 -2.2869 -1.0299 -2.0188
  802TIP3   OH224040   5.222   1.434   2.041  0.2878  0.0914 -0.2950
  802TIP3    H124041   5.201   1.423   2.133  0.5504  2.5021  0.1159
  802TIP3    H224042   5.152   1.488   2.006  0.5940 -0.1501 -1.3224
  803TIP3   OH224043   0.782   3.291   0.964 -0.6787  0.0118  0.4196
  803TIP3    H124044   0.876   3.302   0.946 -0.2097 -0.0655  2.5683
  803TIP3    H224045   0.740   3.362   0.916  0.5692  0.5692  0.0990
  804TIP3   OH224046   4.607   3.150   1.696 -0.8005 -0.1207  0.7369
  804TIP3    H124047   4.609   3.200   1.777  1.8583  0.5031  0.3876
  804TIP3    H224048   4.541   3.194   1.642 -1.9360  0.0153  2.1742
  805TIP3   OH224049   4.128   0.013   8.122 -0.1149 -0.1530  0.5139
  805TIP3    H124050   4.200   0.054   8.169  1.2338 -0.0827 -1.4907
  805TIP3    H224051   4.139   0.042   8.031 -1.9057 -1.1850 -0.0834
  806TIP3   OH224052   0.685   1.729   1.620 -0.0470  0.0338 -0.1203
  806TIP3    H124053   0.604   1.727   1.568 -0.4831 -0.4932  0.5720
  806TIP3    H224054   0.741   1.664   1.578  0.1360  0.5907 -0.7679
  807TIP3   OH224055   1.806   3.549   0.116 -0.2856  0.1702  0.1448
  807TIP3    H124056   1.771   3.591   0.195 -1.1508 -0.0424 -0.1198
  807TIP3    H224057   1.890   3.512   0.144 -0.5870  0.0926  0.9664
  808TIP3   OH224058   6.713   6.354   7.677 -0.8294  0.0671  0.0104
  808TIP3    H124059   6.772   6.279   7.665 -1.2367 -0.0223 -1.6645
  808TIP3    H224060   6.762   6.429   7.644 -1.4672  0.0596 -0.9955
  809TIP3   OH224061   3.109   4.359   0.839 -0.2035  0.5384 -0.0486
  809TIP3    H124062   3.165   4.317   0.903 -0.3505  0.7250  0.2023
  809TIP3    H224063   3.114   4.452   0.859 -0.1686  0.6092 -0.3716
  810TIP3   OH224064   2.261   1.507   7.365  0.3667 -0.1299  0.1531
  810TIP3    H124065   2.284   1.487   7.274  0.5653 -0.1114  0.1984
  810TIP3    H224066   2.276   1.425   7.411 -1.3139 -0.6272 -0.1134
  811TIP3   OH224067   3.557   0.945   2.099  0.0360  0.1412 -0.3716
  811TIP3    H124068   3.630   0.940   2.161  0.7188  0.0008 -1.1635
  811TIP3    H224069   3.584   0.889   2.027 -1.2920 -0.6696 -0.2547
  812TIP3   OH224070   4.133   6.636   8.485  0.8379  0.2813  0.3183
  812TIP3    H124071   4.221   6.664   8.510  0.3595  0.8522  1.4814
  812TIP3    H224072   4.135   6.541   8.492  1.6079  0.2211 -0.5646
  813TIP3   OH224073   2.056   2.766   7.563  0.0199  0.7504  0.0020
  813TIP3    H124074   2.131   2.712   7.539 -0.8070 -0.6954  0.5878
  813TIP3    H224075   1.983   2.730   7.511 -0.7238  0.7357  1.0277
  814TIP3   OH224076   0.532   3.313   1.458 -0.3628  0.0178 -0.2842
  814TIP3    H124077   0.628   3.303   1.460 -0.4816 -1.2755 -0.0738
  814TIP3    H224078   0.510   3.353   1.542  0.0478  0.9422 -0.6073
  815TIP3   OH224079   5.727   5.094   2.564 -0.4214  0.1015  0.1150
  815TIP3    H124080   5.726   5.158   2.636 -2.2537  1.1587 -0.7480
  815TIP3    H224081   5.810   5.049   2.573  0.2425  1.5100  1.7526
  816TIP3   OH224082   2.954   2.578   7.436  0.1074 -0.0267  0.4138
  816TIP3    H124083   2.939   2.612   7.525  2.6206 -0.1194  0.9261
  816TIP3    H224084   2.912   2.492   7.436 -0.1047  0.0605  1.4416
  817TIP3   OH224085   4.562   2.186   0.834  0.2715  0.5088 -1.2993
  817TIP3    H124086   4.586   2.277   0.855  2.0561 -0.0474 -0.7342
  817TIP3    H224087   4.602   2.170   0.748 -0.6783  0.4648 -1.7477
  818TIP3   OH224088   0.987   3.737   0.260  0.0453  0.4476 -0.2537
  818TIP3    H124089   1.003   3.824   0.224 -0.0196  0.3645 -0.4859
  818TIP3    H224090   1.046   3.680   0.211  0.1196  0.3678 -0.0719
  819TIP3   OH224091   5.209   4.151   8.730 -0.0295 -0.3712  0.2507
  819TIP3    H124092   5.277   4.133   8.795 -0.0845 -0.7281  0.2089
  819TIP3    H224093   5.128   4.154   8.781  0.1859  1.6889  0.5660
  820TIP3   OH224094   6.231   3.642   1.071  0.2952  0.1617  0.2761
  820TIP3    H124095   6.195   3.689   0.996 -1.0097  0.3381  0.9682
  820TIP3    H224096   6.307   3.695   1.098  0.2367  0.5851 -0.3662
  821TIP3   OH224097   6.159   5.520   8.529 -0.0830  0.4356  0.0500
  821TIP3    H124098   6.240   5.522   8.479 -0.4346 -1.1176 -0.6162
  821TIP3    H224099   6.140   5.427   8.542 -1.2983  0.7779  0.9553
  822TIP3   OH224100   2.731   1.047   1.623  0.0293  0.3224 -0.1378
  822TIP3    H124101   2.713   1.007   1.708 -2.0382  1.3200 -0.0546
  822TIP3    H224102   2.709   0.978   1.560  0.6809 -0.1062  0.0894
  823TIP3   OH224103   5.436   0.128   1.127 -0.4883  0.2004 -0.1087
  823TIP3    H124104   5.424   0.222   1.141  0.0806  0.3133 -0.3470
  823TIP3    H224105   5.479   0.122   1.042  1.2097 -0.1565  0.7182
  824TIP3   OH224106   0.143   3.738   0.679 -0.1514  0.4384  0.0268
  824TIP3    H124107   0.153   3.678   0.753 -0.2103  0.4278  0.0261
  824TIP3    H224108   0.052   3.729   0.652 -0.0979  0.3501 -0.1265
  825TIP3   OH224109   4.957   6.450   8.339 -0.1993  0.0157 -0.1911
  825TIP3    H124110   4.950   6.532   8.387  1.6390 -0.9338  1.8316
  825TIP3    H224111   5.049   6.443   8.316 -0.0802 -1.9670  0.6556
  826TIP3   OH224112   6.395   3.703   1.717  0.1518 -0.0049  0.1023
  826TIP3    H124113   6.312   3.699   1.670  0.6535  0.8033 -0.8910
  826TIP3    H224114   6.404   3.796   1.740  0.6513 -0.1371  0.4376
  827TIP3   OH224115   5.605   5.141   8.539 -0.5720  0.4602  0.2271
  827TIP3    H124116   5.677   5.113   8.595 -0.4793 -0.2422 -0.2316
  827TIP3    H224117   5.617   5.235   8.529  1.2819  0.1394 -1.2107
  828TIP3   OH224118   3.207   6.677   1.805 -0.7910  0.2673  0.0836
  828TIP3    H124119   3.296   6.701   1.828 -0.8058  0.9662 -0.5393
  828TIP3    H224120   3.204   6.683   1.709 -1.3567 -0.2827  0.0517
  829TIP3   OH224121   5.770   3.623   7.667  0.0658  0.3483 -0.0490
  829TIP3    H124122   5.740   3.560   7.602  0.2948  0.4016 -0.2077
  829TIP3    H224123   5.742   3.708   7.634 -2.0203  0.1880  1.1430
  830TIP3   OH224124   2.915   2.526   8.481 -0.2600  0.4940 -0.3716
  830TIP3    H124125   2.955   2.478   8.409 -0.3641 -0.3969  0.1390
  830TIP3    H224126   2.821   2.508   8.473 -0.1593 -0.6609  0.6904
  831TIP3   OH224127   4.914   3.870   8.056 -0.4648  0.8164  0.0251
  831TIP3    H124128   4.902   3.849   8.148 -0.5155 -0.5112 -0.2610
  831TIP3    H224129   4.826   3.890   8.024 -0.4582  1.1956  0.2338
  832TIP3   OH224130   4.249   6.214   7.891  0.0821 -0.4664 -0.2614
  832TIP3    H124131   4.338   6.214   7.856  0.7513  1.5016  1.2527
  832TIP3    H224132   4.260   6.221   7.986 -1.6634  0.4310 -0.0832
  833TIP3   OH224133   6.065   2.845   7.789  0.2490 -0.8254  0.2015
  833TIP3    H124134   6.133   2.778   7.792 -0.1232 -1.1681  1.2278
  833TIP3    H224135   6.090   2.908   7.857  0.6273  0.1311 -0.7856
  834TIP3   OH224136   0.350   4.791   0.911  0.2220  0.0308  0.5171
  834TIP3    H124137   0.358   4.695   0.918  0.6328 -0.1027 -1.2214
  834TIP3    H224138   0.293   4.816   0.984 -2.1253 -1.8794 -0.5051
  835TIP3   OH224139   4.471   3.996   8.462  0.6290  0.0799 -0.1027
  835TIP3    H124140   4.403   3.940   8.499 -0.3874  1.3635  0.0443
  835TIP3    H224141   4.424   4.074   8.431  2.1552  1.5770  1.1443
  836TIP3   OH224142   1.968   1.782   0.235  0.0721 -0.1397 -0.3963
  836TIP3    H124143   1.894   1.730   0.204  1.7009 -2.1300 -1.1613
  836TIP3    H224144   2.042   1.722   0.233  1.2685  1.0330  2.7674
  837TIP3   OH224145   3.512   4.702   7.635 -0.1621  0.2009  0.0786
  837TIP3    H124146   3.524   4.784   7.587 -0.2554  0.5206  0.5914
  837TIP3    H224147   3.421   4.703   7.664  0.2235  0.6157  1.3419
  838TIP3   OH224148   3.120   4.236   1.466 -0.5340  0.3493  0.2572
  838TIP3    H124149   3.158   4.243   1.554  0.7490  1.5440 -0.3724
  838TIP3    H224150   3.031   4.203   1.482  0.3552 -1.5420  1.8427
  839TIP3   OH224151   1.308   0.913   8.074 -0.3559 -0.0526 -0.1184
  839TIP3    H124152   1.401   0.936   8.073 -0.5088  0.6281  0.2503
  839TIP3    H224153   1.264   0.992   8.043 -0.7915 -0.5104 -0.6863
  840TIP3   OH224154   3.738   1.702   7.831 -0.3538 -0.0816 -0.6357
  840TIP3    H124155   3.692   1.736   7.754 -0.3144 -0.0114 -0.6281
  840TIP3    H224156   3.823   1.746   7.830  0.9180 -2.3574 -2.2915
  841TIP3   OH224157   6.500   1.137   1.811  0.1526 -0.3175 -0.6312
  841TIP3    H124158   6.562   1.066   1.796  0.6522  0.2905 -1.5077
  841TIP3    H224159   6.440   1.103   1.877  1.5405 -0.8423  0.4138
  842TIP3   OH224160   0.298   2.540   2.169 -0.1124  0.1341  0.1678
  842TIP3    H124161   0.383   2.505   2.198  0.0611  0.8596  0.5626
  842TIP3    H224162   0.268   2.594   2.242 -1.4525 -0.9816  0.4734
  843TIP3   OH224163   3.072   3.587   0.838  0.2310  0.3692 -0.2768
  843TIP3    H124164   3.146   3.528   0.825  0.4133 -0.2530  2.8140
  843TIP3    H224165   3.110   3.674   0.837  0.7568  0.1439 -0.1322
  844TIP3   OH224166   0.616   1.338   0.593  0.4413 -0.1841 -0.3484
  844TIP3    H124167   0.622   1.380   0.679  0.0293 -2.5175  0.9115
  844TIP3    H224168   0.702   1.299   0.579  1.0255  1.5061 -1.7950
  845TIP3   OH224169   5.583   6.730   0.625  0.0830 -0.3465  0.4230
  845TIP3    H124170   5.514   6.796   0.616  1.0824  0.8662  1.2387
  845TIP3    H224171   5.604   6.704   0.536  0.0487  0.8606  0.0455
  846TIP3   OH224172   3.797   0.749   1.825 -0.3014  0.1708  0.2729
  846TIP3    H124173   3.798   0.655   1.812 -1.9362  0.1385  0.1334
  846TIP3    H224174   3.887   0.772   1.850  0.2544 -1.3223 -0.2819
  847TIP3   OH224175   5.461   4.471   1.659 -0.8368  0.5013  0.0741
  847TIP3    H124176   5.494   4.503   1.575 -0.1356 -0.6900 -0.1293
  847TIP3    H224177   5.422   4.386   1.639 -0.5641  0.1521  0.9731
  848TIP3   OH224178   4.943   2.068   2.332 -0.3846 -0.2206  0.3607
  848TIP3    H124179   5.032   2.056   2.301 -1.1027 -0.3665 -1.7884
  848TIP3    H224180   4.949   2.055   2.427  2.0408  0.9174  0.4384
  849TIP3   OH224181   6.164   4.448   8.417  0.4939  0.3660 -0.2613
  849TIP3    H124182   6.069   4.437   8.409  0.4567  0.0216  0.5613
  849TIP3    H224183   6.182   4.533   8.376 -0.4034  1.2571  1.1113
  850TIP3   OH224184   5.258   4.642   7.548  0.1557 -0.2900  0.3273
  850TIP3    H124185   5.297   4.623   7.463 -0.7057 -0.1927 -0.1019
  850TIP3    H224186   5.318   4.704   7.589 -0.3078  1.0572 -0.9560
  851TIP3   OH224187   3.161   5.681   8.744 -0.0977  0.0296 -0.0397
  851TIP3    H124188   3.073   5.714   8.727  0.2556  0.2424 -1.6440
  851TIP3    H224189   3.157   5.588   8.721  0.2049  0.1437 -0.5713
  852TIP3   OH224190   0.412   6.317   1.537  0.3616  0.3615 -0.4162
  852TIP3    H124191   0.429   6.361   1.454 -0.8140 -1.4543 -1.7053
  852TIP3    H224192   0.384   6.387   1.597  0.3913  1.5919 -1.7936
  853TIP3   OH224193   3.432   3.478   8.474 -0.5956 -0.1070  0.1680
  853TIP3    H124194   3.423   3.471   8.569 -0.0898  1.2207  0.3261
  853TIP3    H224195   3.438   3.571   8.457  2.8911 -0.3752 -0.7843
  854TIP3   OH224196   1.984   4.902   8.311  0.2236 -0.0969 -0.2345
  854TIP3    H124197   1.962   4.899   8.218  1.3403  0.5160 -0.5326
  854TIP3    H224198   2.073   4.937   8.314  0.4486 -0.7075  1.0306
  855TIP3   OH224199   0.556   1.797   8.607 -0.0939  0.7766 -0.1911
  855TIP3    H124200   0.510   1.713   8.605  1.3553 -0.1488  1.5359
  855TIP3    H224201   0.636   1.779   8.658  0.5566  3.0646 -0.2859
  856TIP3   OH224202   3.377   1.835   1.714 -0.0687 -0.0105  0.1104
  856TIP3    H124203   3.326   1.770   1.667  1.9136 -1.2267 -0.4660
  856TIP3    H224204   3.382   1.910   1.655 -0.0849 -0.3919 -0.3773
  857TIP3   OH224205   6.118   4.716   8.315 -0.0137  0.1882  0.1844
  857TIP3    H124206   6.101   4.793   8.370 -0.7564  1.5424 -1.8045
  857TIP3    H224207   6.057   4.725   8.242  1.3886 -1.1388 -1.2302
  858TIP3   OH224208   3.449   1.185   7.355  0.2092 -0.1253  0.0298
  858TIP3    H124209   3.360   1.178   7.390  0.1376  0.7233  0.0432
  858TIP3    H224210   3.493   1.106   7.384 -0.9410 -1.2449 -1.1376
  859TIP3   OH224211   6.765   1.504   2.248  0.1267  0.1099  0.1139
  859TIP3    H124212   6.830   1.574   2.244  0.3411  0.2392  3.3186
  859TIP3    H224213   6.815   1.426   2.272 -0.5084 -0.5199 -0.5557
  860TIP3   OH224214   5.601   4.542   7.615 -0.0033 -0.6190  0.4592
  860TIP3    H124215   5.574   4.554   7.524  3.3693 -1.0576 -0.7332
  860TIP3    H224216   5.520   4.523   7.662 -1.9542  0.3264 -2.2949
  861TIP3   OH224217   5.698   1.347   1.922 -0.0400 -0.1243 -0.1252
  861TIP3    H124218   5.655   1.349   1.837  0.0976  0.8298 -0.1861
  861TIP3    H224219   5.659   1.420   1.971 -0.1905 -0.7231  0.6655
  862TIP3   OH224220   0.972   5.148   8.173  0.2529 -0.7550 -0.2559
  862TIP3    H124221   0.901   5.191   8.125  0.8410  0.2259 -0.2843
  862TIP3    H224222   0.952   5.164   8.265  0.7161  0.0120 -0.2787
  863TIP3   OH224223   0.539   4.165   7.349  0.2444 -0.3479 -0.3550
  863TIP3    H124224   0.622   4.120   7.364  0.4542  0.1012 -0.1488
  863TIP3    H224225   0.536   4.180   7.255  1.4677  1.6249 -0.1453
  864TIP3   OH224226   4.289   3.490   1.372  0.4858  0.4149  0.1057
  864TIP3    H124227   4.265   3.485   1.280 -0.3655  3.0831  0.1051
  864TIP3    H224228   4.272   3.581   1.397  1.3583 -0.0432  2.7233
  865TIP3   OH224229   4.623   5.043   1.093 -0.4241 -0.2017  0.5507
  865TIP3    H124230   4.652   5.087   1.013  0.7485  0.0726  1.1044
  865TIP3    H224231   4.595   5.114   1.150 -0.5907 -0.3405  0.6387
  866TIP3   OH224232   1.698   4.569   1.476 -0.8461 -0.0915 -0.1533
  866TIP3    H124233   1.664   4.483   1.500 -1.3867  0.1015 -0.2100
  866TIP3    H224234   1.732   4.606   1.557  0.6828 -0.9232 -0.3834
  867TIP3   OH224235   2.414   1.489   1.315  0.2250 -0.4273 -0.1147
  867TIP3    H124236   2.355   1.563   1.327 -0.6637 -1.3336  1.3893
  867TIP3    H224237   2.389   1.427   1.383  1.8430 -1.5435 -0.4757
  868TIP3   OH224238   4.865   6.778   7.078 -0.4786 -0.6786  0.2186
  868TIP3    H124239   4.816   6.845   7.127 -0.9640 -1.2146  0.4737
  868TIP3    H224240   4.804   6.748   7.011  0.6998  1.2386 -1.8968
  869TIP3   OH224241   2.795   5.370   0.226  0.0876 -0.1666  0.0944
  869TIP3    H124242   2.881   5.357   0.268 -0.4155 -0.8609  0.9604
  869TIP3    H224243   2.765   5.281   0.207 -0.8095  0.0265  0.5808
  870TIP3   OH224244   5.717   6.098   8.263 -0.1451  0.0479 -0.3583
  870TIP3    H124245   5.685   6.008   8.268 -0.0573  0.0793  1.8547
  870TIP3    H224246   5.657   6.141   8.201 -2.9818 -0.4978  1.7783
  871TIP3   OH224247   2.975   4.356   8.861  0.1549 -0.2791  0.1534
  871TIP3    H124248   3.022   4.359   8.944  0.2857  0.8013  0.0592
  871TIP3    H224249   2.883   4.363   8.885  0.2549  1.5516  0.1712
  872TIP3   OH224250   3.715   1.914   0.035  0.0161  0.2308  0.4776
  872TIP3    H124251   3.660   1.862  -0.023 -1.5696  1.3876  0.9039
  872TIP3    H224252   3.687   1.890   0.123 -0.2271  1.2673  0.6928
  873TIP3   OH224253   4.427   2.508   7.367  0.0506 -0.4664 -0.2400
  873TIP3    H124254   4.335   2.481   7.367 -0.2137  0.2368  2.2751
  873TIP3    H224255   4.476   2.427   7.348 -1.0097 -1.1659 -0.0748
  874TIP3   OH224256   0.230   1.634   1.980  0.0766  0.0159 -0.7097
  874TIP3    H124257   0.273   1.647   1.896  2.4054 -0.0928  0.3837
  874TIP3    H224258   0.141   1.606   1.958  0.7650 -0.4878 -3.1011
  875TIP3   OH224259   2.806   1.639   8.104  0.2613  0.1483  0.2533
  875TIP3    H124260   2.848   1.558   8.136 -0.2276 -0.2483 -0.0875
  875TIP3    H224261   2.879   1.694   8.075  0.5181 -1.0240 -1.4787
  876TIP3   OH224262   6.300   5.679   8.904  0.4810  0.4143  0.5795
  876TIP3    H124263   6.307   5.588   8.933  0.1746  0.6232  1.3387
  876TIP3    H224264   6.213   5.706   8.931 -0.4976  0.1322 -2.0393
  877TIP3   OH224265   0.262   4.555   8.737  0.0469 -0.1435  0.2176
  877TIP3    H124266   0.269   4.648   8.756 -1.0391 -0.1308  0.6250
  877TIP3    H224267   0.268   4.549   8.642 -2.6118  0.6579 -0.0839
  878TIP3   OH224268   2.743   1.631   2.004  0.2403 -0.7954 -0.6438
  878TIP3    H124269   2.674   1.659   1.944  0.2938  1.3931  0.2190
  878TIP3    H224270   2.717   1.543   2.031 -2.5661  0.1311  0.0555
  879TIP3   OH224271   2.582   3.837   1.767 -0.0220  0.3481 -0.2527
  879TIP3    H124272   2.573   3.750   1.807 -0.5353  0.0407 -1.0034
  879TIP3    H224273   2.573   3.821   1.673  0.6089  1.1233 -0.4567
  880TIP3   OH224274   4.280   5.314   7.280  0.3254  1.1548 -0.7972
  880TIP3    H124275   4.233   5.291   7.200  1.6543  0.5184 -1.4288
  880TIP3    H224276   4.352   5.370   7.250  1.1358  0.4963 -0.1255
  881TIP3   OH224277   5.618   2.941   6.669 -0.0867 -0.3875  0.2256
  881TIP3    H124278   5.693   2.976   6.717 -0.7882  1.6681 -0.0754
  881TIP3    H224279   5.580   3.017   6.626 -1.2642 -1.6937 -1.1406
  882TIP3   OH224280   1.784   4.658   0.098 -0.2596  0.5374 -0.1870
  882TIP3    H124281   1.792   4.697   0.011 -0.7615  0.6106 -0.2053
  882TIP3    H224282   1.871   4.665   0.136 -0.1034  0.7534 -0.5805
  883TIP3   OH224283   3.670   0.794   6.961  0.2848 -0.7326  0.4438
  883TIP3    H124284   3.582   0.774   6.992  0.2432 -1.7991 -0.2934
  883TIP3    H224285   3.726   0.727   7.000  0.4312 -1.3170 -0.7253
  884TIP3   OH224286   4.192   6.242   0.529  0.2857  0.0402  0.1348
  884TIP3    H124287   4.196   6.226   0.435  2.7811  1.6154 -0.1032
  884TIP3    H224288   4.191   6.337   0.538  0.2719 -0.0804  1.7114
  885TIP3   OH224289   4.800   1.031   0.731 -0.0227  0.0036 -0.1949
  885TIP3    H124290   4.873   1.007   0.787 -0.0631 -0.7112 -0.4358
  885TIP3    H224291   4.830   1.107   0.682  0.1623  0.3783  0.4901
  886TIP3   OH224292   2.764   0.025   2.209 -0.1838 -0.2134  0.7537
  886TIP3    H124293   2.742  -0.066   2.227  1.1677 -0.7513 -0.1362
  886TIP3    H224294   2.702   0.052   2.142  0.1304 -0.8493  0.1957
  887TIP3   OH224295   2.560   1.353   8.316  0.3906 -0.4322 -0.1357
  887TIP3    H124296   2.476   1.388   8.287  0.4071 -0.0884  0.2305
  887TIP3    H224297   2.551   1.258   8.306  0.2579 -0.3502 -0.9008
  888TIP3   OH224298   1.059   4.988   8.443  0.6293  0.0686  0.2988
  888TIP3    H124299   1.112   5.050   8.492  0.8700  0.2449 -0.1763
  888TIP3    H224300   1.076   5.009   8.351  1.2689 -1.1724  0.1190
  889TIP3   OH224301   5.264   6.068   7.159 -0.5211  0.3370 -0.6218
  889TIP3    H124302   5.254   6.084   7.065 -0.4254  1.2167 -0.4930
  889TIP3    H224303   5.270   6.156   7.197 -1.1713 -0.0020  0.2767
  890TIP3   OH224304   0.443   6.056   2.710 -0.5614 -0.1994 -0.1387
  890TIP3    H124305   0.400   6.133   2.671 -0.7044 -0.9229 -1.4780
  890TIP3    H224306   0.371   6.004   2.746 -0.3800  0.7705  1.7419
  891TIP3   OH224307   1.139   0.286   2.340  0.3849  0.2387 -0.5282
  891TIP3    H124308   1.060   0.301   2.392  1.4074 -0.7536  1.4778
  891TIP3    H224309   1.176   0.373   2.326 -0.2027  0.5781 -0.0399
  892TIP3   OH224310   3.825   6.234   1.699 -0.5696  0.1948 -0.2483
  892TIP3    H124311   3.735   6.205   1.705 -0.2965 -1.4420 -2.6319
  892TIP3    H224312   3.823   6.307   1.636 -0.2473  0.1118 -0.3618
  893TIP3   OH224313   1.896   0.069   0.849 -0.1148 -0.6649  0.1446
  893TIP3    H124314   1.972   0.018   0.875 -0.8028 -2.3767 -1.0171
  893TIP3    H224315   1.823   0.027   0.894 -0.5898 -0.1116 -0.0963
  894TIP3   OH224316   5.852   1.462   0.458  0.0530  0.6728 -0.6855
  894TIP3    H124317   5.802   1.434   0.382  0.3468  0.0011 -0.6433
  894TIP3    H224318   5.942   1.435   0.439  0.1534  0.6182 -0.1649
  895TIP3   OH224319   4.540   3.649   7.200 -0.0123 -0.5650  0.0909
  895TIP3    H124320   4.609   3.595   7.161  0.5893  0.1651  0.1246
  895TIP3    H224321   4.543   3.627   7.293  1.3535  0.6943  0.3892
  896TIP3   OH224322   1.939   4.028   8.438  0.9348 -0.0567  0.2178
  896TIP3    H124323   1.914   4.048   8.348 -0.5524  0.8660  0.7943
  896TIP3    H224324   1.952   4.113   8.479  2.9595 -0.4857  0.5586
  897TIP3   OH224325   5.063   6.677   1.618 -0.5844  0.2114 -0.1228
  897TIP3    H124326   5.078   6.735   1.543  0.0384  1.5383  0.9993
  897TIP3    H224327   5.140   6.620   1.620 -0.0895  0.8805  0.1366
  898TIP3   OH224328   5.338   2.012   0.619  0.1504 -0.4057 -0.3728
  898TIP3    H124329   5.334   2.085   0.558 -0.0382 -0.6139 -0.6113
  898TIP3    H224330   5.426   1.975   0.607 -0.1490 -0.9140 -1.0704
  899TIP3   OH224331   5.459   5.057   0.018  0.4717  0.5573  0.1809
  899TIP3    H124332   5.533   5.055   0.079 -0.2923  0.6035  1.1441
  899TIP3    H224333   5.388   5.096   0.069 -0.1445  0.7546 -0.8082
  900TIP3   OH224334   1.684   1.047   2.858  0.2727 -0.1229  0.5397
  900TIP3    H124335   1.775   1.050   2.887  0.6843  2.8983 -0.6861
  900TIP3    H224336   1.690   1.040   2.762 -0.9078 -2.5980  0.5586
  901TIP3   OH224337   6.132   3.596   8.435 -0.5417 -0.2355  1.0367
  901TIP3    H124338   6.175   3.602   8.521 -0.8224  0.3452  1.1389
  901TIP3    H224339   6.171   3.667   8.384 -1.1467  0.0999  1.0289
  902TIP3   OH224340   5.890   2.123   2.155  0.0173  0.6884 -0.1581
  902TIP3    H124341   5.922   2.097   2.242 -1.1123 -0.4756 -0.0642
  902TIP3    H224342   5.826   2.192   2.173 -0.0164  0.6393 -0.0885
  903TIP3   OH224343   0.243   4.778   0.577 -0.2663 -0.4231 -0.3096
  903TIP3    H124344   0.287   4.804   0.658  0.1497  1.2503 -1.0150
  903TIP3    H224345   0.153   4.756   0.604  0.4002 -1.8775  0.8525
  904TIP3   OH224346   4.673   4.748   7.472 -0.3551 -0.2341 -0.0551
  904TIP3    H124347   4.728   4.763   7.395  1.0266 -2.8120  0.3440
  904TIP3    H224348   4.713   4.801   7.541  0.0357 -0.0331 -0.4342
  905TIP3   OH224349   5.457   3.416   7.823 -0.4159 -0.3766 -0.1032
  905TIP3    H124350   5.411   3.374   7.751  1.4127  0.3972 -1.7951
  905TIP3    H224351   5.416   3.503   7.831 -0.4831 -0.3869 -0.3363
  906TIP3   OH224352   5.430   5.071   1.956 -0.3546  0.1002  0.6640
  906TIP3    H124353   5.440   5.138   1.890  0.4009  0.7470  1.4115
  906TIP3    H224354   5.504   5.012   1.942 -2.1172 -1.8466 -1.3386
  907TIP3   OH224355   6.489   4.325   2.233 -0.0519  0.1981  0.0705
  907TIP3    H124356   6.502   4.275   2.314 -2.1627  0.3986  0.5844
  907TIP3    H224357   6.411   4.286   2.193  1.8675 -1.0109 -2.8043
  908TIP3   OH224358   2.456   3.093   8.330 -0.2745 -0.1699 -0.1505
  908TIP3    H124359   2.410   3.145   8.396 -1.7941 -2.4658  0.7341
  908TIP3    H224360   2.545   3.083   8.365 -1.0470 -1.3253  1.6353
  909TIP3   OH224361   3.627   4.062   8.898 -0.4446 -0.1313 -0.3187
  909TIP3    H124362   3.665   4.135   8.850  0.3378 -0.5313 -0.3250
  909TIP3    H224363   3.676   4.058   8.980 -1.2740  0.0841  0.2005
  910TIP3   OH224364   5.991   5.866   1.623 -0.0879  0.3853  0.2191
  910TIP3    H124365   5.946   5.789   1.587  0.7995  0.0099 -0.1116
  910TIP3    H224366   5.987   5.853   1.718 -0.5827  0.3068  0.1917
  911TIP3   OH224367   3.261   5.936   8.636  0.0213 -0.0449  0.0318
  911TIP3    H124368   3.195   6.003   8.656  0.9195  0.5959  0.9422
  911TIP3    H224369   3.226   5.856   8.677 -1.0522 -0.1634 -1.0539
  912TIP3   OH224370   5.492   6.662   8.619  0.5931  0.4342 -0.0618
  912TIP3    H124371   5.525   6.630   8.535  0.9475  1.2193 -0.2286
  912TIP3    H224372   5.440   6.589   8.653  1.1650 -0.2216 -0.5478
  913TIP3   OH224373   1.463   2.069   1.467  0.5999  0.1806 -0.3122
  913TIP3    H124374   1.538   2.038   1.517 -0.3848  0.1478  1.2232
  913TIP3    H224375   1.399   2.095   1.534 -1.7721 -2.1549 -1.4772
  914TIP3   OH224376   6.574   0.567   2.448  0.9360 -0.2495  0.8216
  914TIP3    H124377   6.584   0.654   2.487 -0.9969  0.3444  0.0736
  914TIP3    H224378   6.481   0.547   2.457 -0.1049  0.5654 -4.6452
  915TIP3   OH224379   1.734   5.809   6.754  0.4456 -0.0585 -0.0545
  915TIP3    H124380   1.733   5.889   6.807 -0.9478 -0.5036  0.6488
  915TIP3    H224381   1.646   5.805   6.715  1.1326 -0.2285 -1.6947
  916TIP3   OH224382   5.218   4.981   6.437 -0.4902 -0.5026 -0.6891
  916TIP3    H124383   5.218   4.886   6.425 -2.2128 -0.8391  1.2665
  916TIP3    H224384   5.304   5.000   6.476 -0.5226 -1.4417 -0.1157
  917TIP3   OH224385   0.590   3.072   7.378  0.5178  0.2765  0.1311
  917TIP3    H124386   0.579   2.995   7.321  0.8668  0.0377  0.3835
  917TIP3    H224387   0.633   3.137   7.322  2.0496 -0.3981  0.4595
  918TIP3   OH224388   0.341   2.136   0.320  0.5709 -0.1036  0.4193
  918TIP3    H124389   0.314   2.207   0.378 -2.8238 -1.0914  0.3118
  918TIP3    H224390   0.436   2.134   0.326  0.6911  3.3553  1.6516
  919TIP3   OH224391   0.298   4.223   1.523  0.1050 -0.3719 -0.7724
  919TIP3    H124392   0.214   4.268   1.518  0.0419 -0.2480  0.8011
  919TIP3    H224393   0.354   4.270   1.462 -0.6892  0.1604 -1.1089
  920TIP3   OH224394   4.182   4.910   8.158  0.0595  0.4375 -0.0071
  920TIP3    H124395   4.087   4.919   8.161  0.2170  2.4656 -0.0244
  920TIP3    H224396   4.203   4.911   8.064  0.1903  1.3517  0.0244
  921TIP3   OH224397   2.916   4.969   8.476 -0.0940 -0.8723  0.0663
  921TIP3    H124398   3.008   4.957   8.498 -0.1917  0.0862  1.0888
  921TIP3    H224399   2.873   4.889   8.505  0.1342 -0.5316  1.4071
  922TIP3   OH224400   2.528   6.621   0.969  0.4580 -0.4680 -0.1719
  922TIP3    H124401   2.609   6.570   0.963  0.5726 -0.6038  1.8277
  922TIP3    H224402   2.476   6.575   1.035  0.5408  1.9129  1.7116
  923TIP3   OH224403   0.826   0.134   7.568 -0.1362  0.3181  0.1890
  923TIP3    H124404   0.814   0.115   7.661 -0.7513  3.4247  0.8488
  923TIP3    H224405   0.737   0.138   7.533 -0.1383  2.4649  0.3002
  924TIP3   OH224406   4.174   6.136   7.270  0.1567 -0.2220 -0.5075
  924TIP3    H124407   4.137   6.121   7.183 -0.3266  1.0978 -0.5653
  924TIP3    H224408   4.100   6.123   7.330 -0.1295  1.1329 -0.5155
  925TIP3   OH224409   5.975   6.162   8.350 -0.2669 -0.2286  0.3430
  925TIP3    H124410   6.018   6.217   8.283  1.2602 -0.8589  0.7559
  925TIP3    H224411   5.882   6.165   8.327 -0.2814  2.6397  0.4483
  926TIP3   OH224412   2.514   5.696   2.501 -0.2220 -0.0632 -0.2769
  926TIP3    H124413   2.598   5.667   2.535 -0.3650  0.3942  0.4877
  926TIP3    H224414   2.467   5.729   2.578 -1.4779 -1.2150 -0.5167
  927TIP3   OH224415   3.842   5.995   1.299  0.2931 -0.1135  0.3250
  927TIP3    H124416   3.927   5.980   1.342  0.4579  1.4719  0.6291
  927TIP3    H224417   3.784   5.928   1.335  1.2339 -0.7667  0.6586
  928TIP3   OH224418   2.965   4.929   8.064 -0.2052  1.0962  0.1507
  928TIP3    H124419   2.950   4.859   8.001  0.9196 -1.0600  2.1421
  928TIP3    H224420   2.900   4.915   8.133 -0.7559  2.7904  0.0191
  929TIP3   OH224421   2.634   3.893   0.701  0.7963 -0.1644  0.0761
  929TIP3    H124422   2.610   3.910   0.792 -1.3334 -0.3429 -0.3967
  929TIP3    H224423   2.607   3.971   0.653  0.8025 -0.5408 -0.5634
  930TIP3   OH224424   6.344   0.885   0.613 -0.3404  0.2425 -0.2721
  930TIP3    H124425   6.350   0.849   0.701 -0.0394  0.2147 -0.3016
  930TIP3    H224426   6.425   0.937   0.603  0.7568 -1.5702 -1.3408
  931TIP3   OH224427   4.756   0.419   2.333  0.1306 -0.3294 -0.2914
  931TIP3    H124428   4.699   0.440   2.407 -0.5301 -1.4398 -0.4545
  931TIP3    H224429   4.837   0.387   2.373 -0.2626 -1.0221 -0.0459
  932TIP3   OH224430   5.561   5.618   8.715 -0.2552  0.5314  0.1711
  932TIP3    H124431   5.595   5.529   8.713  0.5427  0.7330  2.0139
  932TIP3    H224432   5.631   5.672   8.680 -0.0586  0.5862  0.6360
  933TIP3   OH224433   0.179   0.669   7.829 -0.1054 -0.5393  0.4998
  933TIP3    H124434   0.096   0.663   7.781  0.1166 -0.7928  0.1471
  933TIP3    H224435   0.153   0.694   7.918 -0.6319 -1.4186  0.6110
  934TIP3   OH224436   1.526   0.020   1.419  0.5325 -0.0083 -0.3239
  934TIP3    H124437   1.593   0.044   1.484  0.9980 -1.1488 -0.3686
  934TIP3    H224438   1.446   0.012   1.471  0.7965 -0.4002  0.0356
  935TIP3   OH224439   5.593   1.318   7.873  0.0673 -0.7216 -0.1728
  935TIP3    H124440   5.532   1.271   7.929 -0.0108 -0.0184  0.3456
  935TIP3    H224441   5.660   1.253   7.850  1.0729 -0.6280  2.1875
  936TIP3   OH224442   5.092   3.650   0.845  0.0307 -0.2624  0.5316
  936TIP3    H124443   5.140   3.665   0.927  0.5008  1.8921 -0.0650
  936TIP3    H224444   5.085   3.737   0.805 -0.7510 -1.1575 -1.4271
  937TIP3   OH224445   4.267   2.501   2.478  0.2830  0.0781  0.4622
  937TIP3    H124446   4.301   2.581   2.518  3.1480 -0.2885 -0.9909
  937TIP3    H224447   4.269   2.436   2.548  0.4974  0.6193  0.9658
  938TIP3   OH224448   1.268   2.137   0.467  0.4394  0.2090  0.1909
  938TIP3    H124449   1.334   2.127   0.397 -1.6718  1.3554 -2.1246
  938TIP3    H224450   1.232   2.049   0.479  0.0209  0.1782 -1.0830
  939TIP3   OH224451   5.256   3.981   1.628  0.2431  0.0518  0.0992
  939TIP3    H124452   5.337   3.930   1.632  0.4037  0.1484 -1.3538
  939TIP3    H224453   5.189   3.922   1.663  0.5558 -0.9266 -0.8709
  940TIP3   OH224454   4.825   1.898   8.771  0.0815  0.1012 -0.1705
  940TIP3    H124455   4.753   1.948   8.810  0.4129  0.1960  0.3235
  940TIP3    H224456   4.786   1.857   8.693 -0.6239 -0.2002  0.3296
  941TIP3   OH224457   3.167   3.358   7.833 -0.7749  0.1944 -0.1791
  941TIP3    H124458   3.261   3.374   7.825 -0.5067 -0.8227  0.6613
  941TIP3    H224459   3.155   3.271   7.795 -1.1462 -0.2503  0.9275
  942TIP3   OH224460   5.723   5.865   0.069 -0.2192 -0.2690 -0.5519
  942TIP3    H124461   5.718   5.770   0.082 -0.4097 -0.1960 -0.0778
  942TIP3    H224462   5.758   5.875  -0.020 -1.3881 -0.7808 -1.0927
  943TIP3   OH224463   3.245   5.357   0.018 -0.0778 -0.0529 -0.4851
  943TIP3    H124464   3.285   5.325   0.100 -0.9628 -0.5544 -0.2362
  943TIP3    H224465   3.318   5.361  -0.044  0.8052  1.2315  0.5630
  944TIP3   OH224466   4.553   5.254   2.637 -0.1315  0.7651  0.2793
  944TIP3    H124467   4.562   5.316   2.709  0.6969  0.7493  0.2035
  944TIP3    H224468   4.559   5.168   2.678 -1.4913  0.7176  0.4117
  945TIP3   OH224469   4.213   0.390   8.458 -0.0228  0.0695  0.0393
  945TIP3    H124470   4.127   0.417   8.426 -0.6878 -0.2873  1.4109
  945TIP3    H224471   4.261   0.362   8.381 -0.6727  1.4944 -0.9272
  946TIP3   OH224472   1.268   0.342   0.236  0.4935 -0.1039  0.2085
  946TIP3    H124473   1.259   0.379   0.324  0.7855  0.5831 -0.0449
  946TIP3    H224474   1.355   0.303   0.235  0.9470  0.8847 -0.1300
  947TIP3   OH224475   5.719   4.061   2.588 -0.5784 -0.0961  0.1252
  947TIP3    H124476   5.724   4.147   2.631  2.0609 -0.2330  0.2541
  947TIP3    H224477   5.660   4.010   2.643  0.1636  0.7337  1.7796
  948TIP3   OH224478   3.854   3.117   6.878  0.2281 -0.6492 -0.0544
  948TIP3    H124479   3.765   3.146   6.860 -0.2718 -1.2089  1.4003
  948TIP3    H224480   3.910   3.184   6.838 -0.8554  0.5340  0.3649
  949TIP3   OH224481   2.544   3.578   1.854 -0.2914 -0.2220 -0.5287
  949TIP3    H124482   2.503   3.532   1.927  0.1399 -0.1514 -0.2375
  949TIP3    H224483   2.493   3.553   1.778 -0.2678 -0.9168 -0.3199
  950TIP3   OH224484   0.833   5.631   1.322  0.8898 -0.8288 -0.1235
  950TIP3    H124485   0.850   5.725   1.322 -2.2940  0.0021  3.1564
  950TIP3    H224486   0.905   5.593   1.373  1.5493 -0.0231 -0.4320
  951TIP3   OH224487   6.635   4.102   1.592 -0.5883 -0.8747  0.1427
  951TIP3    H124488   6.727   4.077   1.608 -0.4647 -0.4940  0.0338
  951TIP3    H224489   6.640   4.189   1.553 -1.0747  0.2109  2.3466
  952TIP3   OH224490   4.352   0.161   8.681  0.0296 -0.2078  0.3946
  952TIP3    H124491   4.285   0.185   8.617 -1.2344  2.3250  2.4631
  952TIP3    H224492   4.304   0.154   8.764  1.9576 -0.9731  1.5088
  953TIP3   OH224493   5.766   3.292   7.431  0.0774 -0.7815  0.2273
  953TIP3    H124494   5.768   3.247   7.346  1.4096 -2.1980  0.9600
  953TIP3    H224495   5.792   3.225   7.494 -1.7796 -0.0004  1.9097
  954TIP3   OH224496   4.384   5.457   1.757 -0.7451  0.0129  0.0560
  954TIP3    H124497   4.343   5.375   1.784 -0.3571 -0.1480  0.1661
  954TIP3    H224498   4.422   5.437   1.671 -0.6292  0.0722  0.0940
  955TIP3   OH224499   0.786   5.205   1.323 -0.1370  0.3181 -0.3820
  955TIP3    H124500   0.811   5.256   1.247  0.6269 -0.3249 -0.5739
  955TIP3    H224501   0.705   5.161   1.296  0.3720 -0.2629 -0.9996
  956TIP3   OH224502   3.703   3.844   1.367  0.5650  0.1273  0.3280
  956TIP3    H124503   3.778   3.803   1.409 -1.1532 -2.0137  1.5042
  956TIP3    H224504   3.635   3.777   1.369 -1.1661  1.7253 -1.3605
  957TIP3   OH224505   1.213   5.380   8.574  0.7192  0.2626 -0.0346
  957TIP3    H124506   1.234   5.357   8.484  0.5058 -1.3117  0.2975
  957TIP3    H224507   1.207   5.297   8.620 -1.6085  0.8457  0.9055
  958TIP3   OH224508   0.315   4.807   1.459  0.2315 -0.5284 -0.5119
  958TIP3    H124509   0.230   4.826   1.497  1.3602  2.8729  0.6871
  958TIP3    H224510   0.317   4.859   1.378  2.0411  1.7243  0.8579
  959TIP3   OH224511   1.988   5.619   1.471  0.0353 -0.1278  0.0713
  959TIP3    H124512   2.042   5.696   1.453 -2.3755  1.3665 -1.3142
  959TIP3    H224513   2.042   5.564   1.528  2.7167  1.5141 -0.7132
  960TIP3   OH224514   3.449   2.224   7.559 -0.1326 -0.1820  0.9903
  960TIP3    H124515   3.504   2.181   7.493 -0.1540  0.1293  0.7687
  960TIP3    H224516   3.360   2.202   7.533 -0.1087 -2.1247  2.3094
  961TIP3   OH224517   5.845   1.681   1.494  0.5061  0.0181 -0.0967
  961TIP3    H124518   5.908   1.690   1.423 -0.8020 -1.3797 -1.5365
  961TIP3    H224519   5.816   1.590   1.488 -2.1789  0.7756 -0.0380
  962TIP3   OH224520   0.778   4.166   8.178  0.4459 -0.0882 -0.7542
  962TIP3    H124521   0.756   4.197   8.266 -1.0795  2.1394 -1.8172
  962TIP3    H224522   0.847   4.225   8.148  1.0240 -0.8894 -1.0567
  963TIP3   OH224523   2.382   2.941   7.483  0.2935 -0.5425 -0.0432
  963TIP3    H124524   2.432   2.929   7.402 -0.8759  2.7040 -1.4030
  963TIP3    H224525   2.447   2.968   7.548  0.9145 -0.7204 -0.5797
  964TIP3   OH224526   6.546   5.081   1.615 -0.2009  0.1995  0.2276
  964TIP3    H124527   6.631   5.112   1.645  0.2367 -0.5300 -0.2470
  964TIP3    H224528   6.542   4.990   1.643 -0.5727  0.0568 -0.2736
  965TIP3   OH224529   1.611   1.519   8.884 -0.3246 -0.1990 -0.1767
  965TIP3    H124530   1.553   1.595   8.880 -2.1061 -1.4226  1.2337
  965TIP3    H224531   1.553   1.445   8.900  1.4088 -1.8390 -1.0598
  966TIP3   OH224532   2.302   6.008   2.882 -0.2367 -0.0148 -0.8058
  966TIP3    H124533   2.297   5.948   2.955  1.1098  0.9595  0.1422
  966TIP3    H224534   2.228   6.068   2.894  0.0100  0.1756 -0.1945
  967TIP3   OH224535   3.426   1.162   0.214 -0.0365 -0.2047 -0.3630
  967TIP3    H124536   3.344   1.112   0.215  0.3007 -0.7644 -0.1834
  967TIP3    H224537   3.432   1.196   0.125 -0.3503 -0.3602 -0.4452
  968TIP3   OH224538   3.416   5.319   8.102  0.1778  0.2793  0.4467
  968TIP3    H124539   3.325   5.345   8.112 -0.6186 -2.7480  2.7167
  968TIP3    H224540   3.456   5.337   8.187  1.0163 -0.6418  0.2695
  969TIP3   OH224541   5.955   6.201   0.518  0.2981 -0.2784  0.4939
  969TIP3    H124542   5.917   6.130   0.466  4.2727 -2.1030 -0.2856
  969TIP3    H224543   5.989   6.262   0.454  0.7524  0.0799  1.0644
  970TIP3   OH224544   5.366   3.288   0.332 -0.1130  0.4151  0.1889
  970TIP3    H124545   5.335   3.198   0.327 -0.2407  0.5019 -0.6875
  970TIP3    H224546   5.400   3.307   0.245  0.9102  0.8676  0.6751
  971TIP3   OH224547   1.140   1.370   0.529  0.3302  0.4507 -0.0272
  971TIP3    H124548   1.203   1.298   0.525  0.1139  0.3160 -1.2322
  971TIP3    H224549   1.158   1.411   0.614  1.4776 -0.0885  0.0239
  972TIP3   OH224550   2.968   1.945   0.448  0.0701 -0.0185 -0.1098
  972TIP3    H124551   2.886   1.994   0.459 -1.0260 -2.2458  2.9464
  972TIP3    H224552   3.036   2.012   0.454 -1.4391  1.5746  0.0335
  973TIP3   OH224553   2.822   5.519   1.190  0.2027 -0.2139  0.0277
  973TIP3    H124554   2.751   5.458   1.209 -0.0781 -0.2041 -0.9169
  973TIP3    H224555   2.835   5.568   1.271 -0.6026 -0.4861  0.3244
  974TIP3   OH224556   5.750   3.400   2.303 -0.3157 -0.4599 -0.2783
  974TIP3    H124557   5.799   3.450   2.368 -0.5811  1.8841 -1.7350
  974TIP3    H224558   5.664   3.387   2.343 -0.1148 -0.0723  0.2998
  975TIP3   OH224559   5.852   4.459   7.459 -0.0878  0.1331 -0.2481
  975TIP3    H124560   5.943   4.463   7.427 -0.4163 -0.3107 -1.3053
  975TIP3    H224561   5.857   4.489   7.549  0.8729  1.6976 -0.7759
  976TIP3   OH224562   0.363   1.980   2.555  0.5506 -0.2103 -0.1014
  976TIP3    H124563   0.410   2.014   2.478  0.4602 -2.8042 -1.3934
  976TIP3    H224564   0.380   2.045   2.623  0.2353  2.4723 -2.3815
  977TIP3   OH224565   0.481   2.301   8.722  0.0043 -0.2564  0.4813
  977TIP3    H124566   0.425   2.339   8.790  0.4210 -1.6936  1.6903
  977TIP3    H224567   0.499   2.212   8.753  0.8471 -0.6946 -1.1516
  978TIP3   OH224568   1.191   2.236   0.086 -0.3927  0.3645 -0.2812
  978TIP3    H124569   1.171   2.156   0.037 -0.2200  0.0906  0.0939
  978TIP3    H224570   1.111   2.256   0.133  0.4383 -1.3045  2.0305
  979TIP3   OH224571   5.866   4.290   1.375 -0.6421  0.0344  0.4993
  979TIP3    H124572   5.794   4.296   1.313  0.5021  0.3927 -0.8591
  979TIP3    H224573   5.893   4.198   1.371 -1.7939 -0.3962  1.9575
  980TIP3   OH224574   3.451   6.441   2.146 -0.3104  0.3838 -0.0932
  980TIP3    H124575   3.526   6.406   2.194 -1.0594 -0.7997  0.2531
  980TIP3    H224576   3.470   6.534   2.136  1.3923  0.0428 -0.3665
  981TIP3   OH224577   4.073   3.221   1.027 -0.0269 -0.4785 -0.4881
  981TIP3    H124578   3.978   3.224   1.031  0.0167  0.7710 -0.2144
  981TIP3    H224579   4.100   3.201   1.117 -0.0541 -2.4002 -0.8598
  982TIP3   OH224580   1.214   1.223   8.379 -0.1395  0.3574  0.2124
  982TIP3    H124581   1.158   1.152   8.346 -1.1569  0.7136  1.1148
  982TIP3    H224582   1.303   1.197   8.355 -0.6203 -0.5612 -0.6534
  983TIP3   OH224583   0.682   0.535   6.980  0.4400 -0.5068  0.3097
  983TIP3    H124584   0.632   0.456   6.959  1.8617 -1.5021  0.5773
  983TIP3    H224585   0.769   0.504   7.003  1.5680  1.2717 -1.2609
  984TIP3   OH224586   4.027   1.092   0.376  0.0296 -0.1182  0.0882
  984TIP3    H124587   4.105   1.146   0.380 -0.2084  0.3446 -1.1181
  984TIP3    H224588   3.975   1.129   0.305 -0.7053 -1.1826  0.0372
  985TIP3   OH224589   1.174   2.543   8.914  0.0084  0.2428 -0.6467
  985TIP3    H124590   1.264   2.569   8.894  0.4700 -0.2226  0.7254
  985TIP3    H224591   1.180   2.452   8.942 -0.6033  0.7259  1.2267
  986TIP3   OH224592   1.178   2.843   1.010 -0.3499 -0.3204  0.9624
  986TIP3    H124593   1.229   2.797   0.943  0.9983  0.3513  1.4900
  986TIP3    H224594   1.231   2.919   1.032 -2.0681  0.9715  0.8179
  987TIP3   OH224595   4.839   2.424   0.038 -0.1987  0.1338  0.6527
  987TIP3    H124596   4.850   2.400  -0.054 -0.1666  0.9381  0.4386
  987TIP3    H224597   4.815   2.342   0.082  1.8659 -0.7330  0.2978
  988TIP3   OH224598   6.384   5.708   2.503  0.7835  0.4312 -0.4967
  988TIP3    H124599   6.372   5.703   2.408  0.3877 -0.4987 -0.4061
  988TIP3    H224600   6.454   5.772   2.514  0.1634  1.3047 -1.3615
  989TIP3   OH224601   5.880   3.972   7.304 -0.6149 -0.6028  0.5598
  989TIP3    H124602   5.807   3.997   7.359 -0.1387 -0.7346  1.2646
  989TIP3    H224603   5.935   3.918   7.360  1.2357  1.4013  0.8301
  990TIP3   OH224604   3.417   3.473   2.491 -0.1284 -0.0153 -0.6551
  990TIP3    H124605   3.323   3.483   2.500 -0.1899 -0.9306 -0.2296
  990TIP3    H224606   3.437   3.387   2.527  0.7453 -0.2362 -1.5981
  991TIP3   OH224607   4.177   2.008   1.561 -0.2079  0.1301 -0.2804
  991TIP3    H124608   4.134   2.079   1.610  0.1528  0.4490 -0.4174
  991TIP3    H224609   4.131   2.007   1.477 -2.1581 -1.7117  0.7062
  992TIP3   OH224610   4.263   6.282   1.395 -0.2079  0.2030 -0.1725
  992TIP3    H124611   4.185   6.226   1.398  1.0962 -1.7935 -1.5898
  992TIP3    H224612   4.269   6.311   1.304  0.5898  0.5147 -0.0297
  993TIP3   OH224613   4.302   4.258   7.474  0.2932  0.0799 -0.2479
  993TIP3    H124614   4.274   4.335   7.524  0.1467  0.2249 -0.5480
  993TIP3    H224615   4.362   4.293   7.409  2.7175 -0.4464  1.5573
  994TIP3   OH224616   6.424   4.143   7.400 -0.0692 -0.1250 -0.3641
  994TIP3    H124617   6.366   4.219   7.401 -1.7571 -1.3185  2.1695
  994TIP3    H224618   6.512   4.180   7.386 -0.6988  2.4387  1.7000
  995TIP3   OH224619   0.408   4.363   2.075 -0.5610 -0.2881  0.0951
  995TIP3    H124620   0.476   4.297   2.062 -0.0898  0.2749 -0.3782
  995TIP3    H224621   0.374   4.380   1.988  0.0233  0.8189  0.0708
  996TIP3   OH224622   3.323   0.492   1.466  0.0681  0.0160 -0.1875
  996TIP3    H124623   3.274   0.409   1.470  0.3145 -0.2856 -2.1155
  996TIP3    H224624   3.261   0.554   1.427 -0.4618  1.0690  2.1923
  997TIP3   OH224625   5.339   0.351   6.717  0.0394 -0.2079 -0.2107
  997TIP3    H124626   5.379   0.437   6.723  0.3181 -0.4193  1.2022
  997TIP3    H224627   5.412   0.290   6.727 -0.1241 -0.6362 -1.3811
  998TIP3   OH224628   5.885   2.091   7.568 -0.0058 -0.1365  0.3885
  998TIP3    H124629   5.925   2.051   7.645  0.7451 -0.2256 -0.0400
  998TIP3    H224630   5.915   2.037   7.495 -0.5947  0.0341  0.0118
  999TIP3   OH224631   0.767   2.690   1.215  0.7914  0.1676  0.1250
  999TIP3    H124632   0.860   2.712   1.221  1.0349 -0.8205  0.2706
  999TIP3    H224633   0.744   2.705   1.124  0.6447  2.0263  0.4270
 1000TIP3   OH224634   2.893   0.799   8.063 -0.4514  0.2614 -0.4225
 1000TIP3    H124635   2.965   0.858   8.041 -3.0203  3.1565 -1.7164
 1000TIP3    H224636   2.858   0.770   7.979 -0.1041 -2.2056  0.1833
 1001TIP3   OH224637   6.363   5.288   8.180 -0.4665  0.0712  0.2593
 1001TIP3    H124638   6.365   5.359   8.115 -0.7622 -1.8641 -2.0221
 1001TIP3    H224639   6.272   5.257   8.177  0.0558 -1.4982 -0.1060
 1002TIP3   OH224640   3.730   3.382   8.653 -0.2269  0.0034  0.0319
 1002TIP3    H124641   3.758   3.453   8.711  0.7134 -0.8868  0.7051
 1002TIP3    H224642   3.787   3.390   8.577 -0.8583  0.6269 -0.3827
 1003TIP3   OH224643   1.347   5.825   8.656 -0.8668 -0.7109 -0.1776
 1003TIP3    H124644   1.271   5.881   8.641 -1.0799 -0.8418  0.4037
 1003TIP3    H224645   1.329   5.780   8.739 -0.1993 -0.8050 -0.0728
 1004TIP3   OH224646   6.621   6.486   1.636 -0.1722 -0.1885 -0.1405
 1004TIP3    H124647   6.637   6.554   1.571 -0.5709  1.9184  1.8264
 1004TIP3    H224648   6.708   6.455   1.660 -0.0149 -0.7975 -1.4574
 1005TIP3   OH224649   0.443   2.636   7.439  0.0913  0.0821 -0.6556
 1005TIP3    H124650   0.431   2.731   7.449  0.3375  0.0783 -0.2585
 1005TIP3    H224651   0.417   2.617   7.349 -2.2002  0.1496 -0.0514
 1006TIP3   OH224652   5.666   3.027   7.949  0.5806 -0.0653 -0.1347
 1006TIP3    H124653   5.612   2.975   7.891 -1.2988  1.5548  0.0418
 1006TIP3    H224654   5.741   3.052   7.896 -1.1561  1.5097 -2.0271
 1007TIP3   OH224655   6.724   6.217   1.477  0.5598 -0.9750  0.0209
 1007TIP3    H124656   6.784   6.284   1.508 -0.2016 -0.4338  0.3756
 1007TIP3    H224657   6.780   6.144   1.451  1.3983 -0.2345 -0.3012
 1008TIP3   OH224658   2.637   6.375   6.894  0.5939  0.1242  0.6439
 1008TIP3    H124659   2.677   6.289   6.875 -0.1713 -1.0605  3.7697
 1008TIP3    H224660   2.578   6.358   6.968 -0.7597  3.0928  0.3731
 1009TIP3   OH224661   1.776   1.635   8.701 -0.3880  0.5318  0.0578
 1009TIP3    H124662   1.849   1.573   8.691 -0.1216  0.9678 -0.8314
 1009TIP3    H224663   1.716   1.592   8.760 -2.4149 -2.6858 -3.8589
 1010TIP3   OH224664   6.568   3.230   0.626  0.1609 -0.4666  0.1461
 1010TIP3    H124665   6.574   3.205   0.718  2.3778  2.0491  0.7939
 1010TIP3    H224666   6.482   3.271   0.618 -0.2096 -1.0491  0.9876
 1011TIP3   OH224667   0.389   4.028   8.094  0.2670 -0.6765 -0.0207
 1011TIP3    H124668   0.427   3.993   8.175  0.8041 -1.7302 -0.7149
 1011TIP3    H224669   0.356   3.951   8.047 -1.5763  0.0747 -0.0549
 1012TIP3   OH224670   5.751   4.814   7.327 -0.4161  0.0139 -0.0191
 1012TIP3    H124671   5.723   4.898   7.363 -1.4170  0.3536 -1.5038
 1012TIP3    H224672   5.817   4.836   7.261  1.0390 -0.5623  1.2015
 1013TIP3   OH224673   0.335   0.203   1.446  0.4067  0.3091 -0.2866
 1013TIP3    H124674   0.418   0.251   1.440  0.2251  0.4588 -2.4783
 1013TIP3    H224675   0.273   0.268   1.480  1.3369 -0.1051  2.4344
 1014TIP3   OH224676   0.600   1.456   7.789  0.0633 -0.6218 -0.3494
 1014TIP3    H124677   0.571   1.532   7.840  0.9458 -0.9560  0.6836
 1014TIP3    H224678   0.686   1.481   7.756  0.2612 -1.0816 -0.1905
 1015TIP3   OH224679   5.413   0.103   1.840 -0.1397  0.1278  0.3555
 1015TIP3    H124680   5.334   0.127   1.887  0.0764  2.1472 -0.1965
 1015TIP3    H224681   5.399   0.136   1.751  0.5774 -1.1446 -0.2569
 1016TIP3   OH224682   0.552   5.589   8.119  0.2191 -0.1599  0.2406
 1016TIP3    H124683   0.491   5.555   8.054  1.2356 -1.4839 -0.0588
 1016TIP3    H224684   0.496   5.634   8.183 -1.0179 -0.9363 -0.2550
 1017TIP3   OH224685   1.394   3.817   2.603 -0.6294 -1.0680 -0.0773
 1017TIP3    H124686   1.400   3.722   2.613  0.5419 -1.0462 -0.4305
 1017TIP3    H224687   1.440   3.853   2.679  0.8313 -0.8314 -1.0221
 1018TIP3   OH224688   3.052   2.177   6.845  0.3623 -0.1978 -0.2462
 1018TIP3    H124689   3.121   2.228   6.805 -0.0775 -0.6142 -1.5848
 1018TIP3    H224690   3.087   2.088   6.851  0.1920 -0.2693 -0.2943
 1019TIP3   OH224691   1.475   3.440   8.171 -0.2422  0.0207 -0.7953
 1019TIP3    H124692   1.502   3.528   8.198  1.3578 -0.1975 -1.5651
 1019TIP3    H224693   1.486   3.386   8.249  1.8062 -0.0858 -1.1139
 1020TIP3   OH224694   2.554   5.980   0.751  0.2494 -0.0465  0.9511
 1020TIP3    H124695   2.514   6.062   0.781 -1.9380 -0.1374 -1.3323
 1020TIP3    H224696   2.571   5.995   0.658  1.5296 -1.6047  0.8919
 1021TIP3   OH224697   2.342   0.003   8.491 -0.4703  0.3087 -0.2251
 1021TIP3    H124698   2.413  -0.005   8.427  0.2124 -0.0618  0.5610
 1021TIP3    H224699   2.344  -0.079   8.540 -1.2445  0.4254  0.0138
 1022TIP3   OH224700   3.227   5.140   8.552 -0.3740 -0.1452 -0.4454
 1022TIP3    H124701   3.237   5.066   8.493  3.2712 -1.2359  1.2599
 1022TIP3    H224702   3.204   5.101   8.636  1.5643  0.5326  0.4674
 1023TIP3   OH224703   2.946   1.305   2.290  0.1004 -0.1850 -0.0498
 1023TIP3    H124704   2.972   1.282   2.380 -0.2736 -0.5799 -0.0417
 1023TIP3    H224705   2.877   1.370   2.302  1.5528  1.4274 -0.0763
 1024TIP3   OH224706   5.875   5.386   7.497  0.2775  0.1414 -0.0604
 1024TIP3    H124707   5.839   5.327   7.563  0.7884  1.8384  1.8118
 1024TIP3    H224708   5.854   5.343   7.413 -1.1736 -1.6335  1.1288
 1025TIP3   OH224709   5.986   1.043   7.721 -0.4220  0.0762  0.2597
 1025TIP3    H124710   5.960   1.062   7.631 -1.0957  1.0279  0.6389
 1025TIP3    H224711   6.003   0.949   7.722 -1.5637 -0.1596 -0.5925
 1026TIP3   OH224712   5.958   5.930   0.982  0.6826  0.5333  0.3361
 1026TIP3    H124713   6.000   5.944   0.897  0.4388 -1.3716 -0.1442
 1026TIP3    H224714   5.889   5.997   0.986  0.4206  0.3910 -1.1719
 1027TIP3   OH224715   3.432   0.898   2.506 -0.5218  1.1246  0.6278
 1027TIP3    H124716   3.337   0.888   2.504 -0.5290  0.9281 -2.9894
 1027TIP3    H224717   3.454   0.946   2.427  2.3837  1.8550  1.7390
 1028TIP3   OH224718   6.035   2.884   7.367  0.4195  0.0620  0.1500
 1028TIP3    H124719   6.029   2.955   7.431  1.2416  1.7181 -1.5088
 1028TIP3    H224720   6.085   2.922   7.294 -0.8791 -1.5649 -1.6861
 1029TIP3   OH224721   6.046   0.947   0.807  0.3876  0.6844  0.0288
 1029TIP3    H124722   6.058   0.854   0.827  0.7734  0.5354 -0.8581
 1029TIP3    H224723   6.085   0.993   0.881 -0.9911  0.1417  1.1276
 1030TIP3   OH224724   1.423   6.247   2.744  0.7552 -0.4383  0.2471
 1030TIP3    H124725   1.367   6.314   2.782  1.5411 -1.0152  2.5403
 1030TIP3    H224726   1.398   6.166   2.788  0.4177 -1.5500 -1.8555
 1031TIP3   OH224727   6.453   0.485   2.064  0.6947  0.4286 -0.1117
 1031TIP3    H124728   6.402   0.461   2.141  1.2047  0.9502  0.3911
 1031TIP3    H224729   6.543   0.463   2.086  1.1427  2.3940  0.2212
 1032TIP3   OH224730   2.871   4.435   8.498 -0.0902 -0.0569 -0.4995
 1032TIP3    H124731   2.931   4.372   8.459 -0.7422 -0.1500 -1.4062
 1032TIP3    H224732   2.910   4.458   8.582  1.5252  0.3592 -1.3361
 1033TIP3   OH224733   0.129   1.012   2.339  0.3605 -0.2787 -0.3801
 1033TIP3    H124734   0.095   0.924   2.323  1.3318 -0.7296 -0.1012
 1033TIP3    H224735   0.224   1.001   2.336  0.4901  0.8375 -0.7003
 1034TIP3   OH224736   1.370   3.849   2.052  0.1238  0.1046 -0.0570
 1034TIP3    H124737   1.327   3.931   2.027  1.3457  0.6421 -0.4693
 1034TIP3    H224738   1.399   3.812   1.969  0.8071 -0.0432  0.2474
 1035TIP3   OH224739   3.734   4.775   0.112  0.4129 -0.0603  0.5932
 1035TIP3    H124740   3.772   4.863   0.110 -0.4444  0.3292 -0.9829
 1035TIP3    H224741   3.676   4.776   0.188  0.0590  0.9300  0.3328
 1036TIP3   OH224742   3.701   1.307   1.636 -0.2025  0.2707 -0.3180
 1036TIP3    H124743   3.607   1.298   1.650 -0.3072 -0.2810 -1.2723
 1036TIP3    H224744   3.741   1.254   1.705 -0.5740  0.9034  0.3917
 1037TIP3   OH224745   5.629   0.597   2.465 -0.3024  0.4767 -0.3638
 1037TIP3    H124746   5.561   0.585   2.532  0.0072  0.1180 -0.1100
 1037TIP3    H224747   5.587   0.569   2.384 -0.1826 -0.6206 -0.0668
 1038TIP3   OH224748   1.857   2.527   6.856  0.0638 -0.0383 -0.4168
 1038TIP3    H124749   1.863   2.616   6.822 -0.4014 -0.1378 -0.7751
 1038TIP3    H224750   1.945   2.491   6.844 -0.1757 -0.1947 -1.8898
 1039TIP3   OH224751   6.415   5.657   8.621  0.2394  0.0440  0.5832
 1039TIP3    H124752   6.425   5.586   8.558  0.3428 -0.1177  0.7786
 1039TIP3    H224753   6.335   5.635   8.669 -0.5334  0.8080 -0.3051
 1040TIP3   OH224754   5.038   1.681   1.425  0.6612 -0.1752  0.0792
 1040TIP3    H124755   5.045   1.753   1.362  2.0087  0.9158  1.3998
 1040TIP3    H224756   5.108   1.621   1.401 -0.3391 -1.0217 -0.8975
 1041TIP3   OH224757   5.841   5.145   0.910  0.3203  0.2444 -0.0536
 1041TIP3    H124758   5.824   5.051   0.909 -0.4242  0.3562 -2.0834
 1041TIP3    H224759   5.792   5.177   0.985  0.5614 -0.9564  0.6510
 1042TIP3   OH224760   0.959   4.064   0.688  0.3213  0.4392  0.5939
 1042TIP3    H124761   0.928   4.041   0.601 -0.2337  0.9342  0.6588
 1042TIP3    H224762   1.025   3.997   0.708 -2.1221 -1.9116  1.3211
 1043TIP3   OH224763   4.288   1.441   0.679 -0.4922  0.0643 -0.1214
 1043TIP3    H124764   4.344   1.515   0.704 -0.8664  0.9523 -1.7573
 1043TIP3    H224765   4.251   1.410   0.762  1.9834 -0.2344  0.9709
 1044TIP3   OH224766   0.219   0.664   2.055 -0.7422  0.3083  0.0563
 1044TIP3    H124767   0.293   0.715   2.088 -0.2857 -0.3998  0.1411
 1044TIP3    H224768   0.225   0.580   2.101 -0.2453 -0.6183 -1.6155
 1045TIP3   OH224769   5.597   2.360   1.423 -0.0229  0.0788  0.2312
 1045TIP3    H124770   5.657   2.328   1.491 -0.0608 -0.4031  0.0391
 1045TIP3    H224771   5.616   2.453   1.417 -0.3242  0.2221  1.2213
 1046TIP3   OH224772   6.087   4.914   1.170 -0.2609 -0.0624 -0.3300
 1046TIP3    H124773   6.025   4.915   1.243 -1.8330  1.8246 -1.6147
 1046TIP3    H224774   6.129   5.000   1.174 -1.8350  0.9156 -2.7664
 1047TIP3   OH224775   1.307   1.550   1.064  0.2242 -0.0652 -0.6178
 1047TIP3    H124776   1.267   1.636   1.078 -1.0116 -0.6675 -0.3500
 1047TIP3    H224777   1.297   1.533   0.971 -2.5724 -1.3370 -0.1674
 1048TIP3   OH224778   0.752   4.884   8.439 -0.4102  0.5913  0.0149
 1048TIP3    H124779   0.751   4.861   8.346 -0.9165  2.5147 -0.4908
 1048TIP3    H224780   0.842   4.913   8.456 -0.0968 -0.5002  0.3657
 1049TIP3   OH224781   5.895   1.622   7.394 -0.1249  0.0001 -0.1391
 1049TIP3    H124782   5.974   1.569   7.403  1.1922  1.8714 -0.3521
 1049TIP3    H224783   5.892   1.646   7.302 -1.4114 -0.6850 -0.3076
 1050TIP3   OH224784   0.575   6.123   8.718 -1.0455 -0.1846 -0.0771
 1050TIP3    H124785   0.662   6.107   8.753 -1.5752  0.9227  1.9019
 1050TIP3    H224786   0.515   6.085   8.783 -2.0751 -0.9690 -1.4110
 1051TIP3   OH224787   1.220   5.235   8.083  0.4322 -0.5268 -0.4059
 1051TIP3    H124788   1.229   5.325   8.114  0.6553 -0.8241  0.4088
 1051TIP3    H224789   1.130   5.212   8.106  0.2116 -0.3492 -1.0681
 1052TIP3   OH224790   6.538   0.916   7.632  0.0653  0.1481 -0.6284
 1052TIP3    H124791   6.576   0.990   7.584 -0.4853  0.4788 -0.5653
 1052TIP3    H224792   6.563   0.839   7.581 -0.0108  0.4451 -1.1217
 1053TIP3   OH224793   3.006   1.086   2.127 -0.5798 -0.1472  0.3632
 1053TIP3    H124794   2.961   1.155   2.176 -0.3763  0.3613 -0.1503
 1053TIP3    H224795   3.097   1.117   2.122 -0.3011 -0.8517  0.8355
 1054TIP3   OH224796   4.236   5.648   0.514  0.1877 -0.4206 -0.5390
 1054TIP3    H124797   4.247   5.741   0.493  0.1432 -0.1408  0.5782
 1054TIP3    H224798   4.146   5.642   0.545  1.0245 -0.1979  2.2548
 1055TIP3   OH224799   3.085   4.574   1.369 -0.0889  0.6329 -0.3823
 1055TIP3    H124800   3.037   4.532   1.297  1.5579 -0.3671 -0.9642
 1055TIP3    H224801   3.136   4.643   1.326 -0.3628  1.1435  0.1019
 1056TIP3   OH224802   2.592   1.768   7.583 -0.1161  0.0840 -0.3405
 1056TIP3    H124803   2.539   1.696   7.617 -0.7366  0.3295 -0.7526
 1056TIP3    H224804   2.559   1.845   7.629 -0.5433  0.3278 -1.0468
 1057TIP3   OH224805   3.757   2.025   2.098  0.2020 -0.4262 -0.0161
 1057TIP3    H124806   3.849   2.033   2.123 -0.0652  0.0481  0.8820
 1057TIP3    H224807   3.758   2.017   2.003  1.2060 -1.1047  0.0409
 1058TIP3   OH224808   0.554   4.721   8.585  0.6256 -0.3195 -0.2936
 1058TIP3    H124809   0.558   4.631   8.552  2.2952 -0.5624  0.4256
 1058TIP3    H224810   0.609   4.771   8.525  1.7155 -0.2953  0.6820
 1059TIP3   OH224811   5.374   2.529   8.467 -0.0518 -0.1868 -0.1444
 1059TIP3    H124812   5.399   2.595   8.531 -1.3498 -0.2173  0.4214
 1059TIP3    H224813   5.455   2.510   8.419  1.0230 -0.3576  1.6544
 1060TIP3   OH224814   1.947   2.428   7.179  0.2876 -0.8181  0.6906
 1060TIP3    H124815   1.987   2.403   7.096  1.2967  0.5342  0.7345
 1060TIP3    H224816   1.885   2.498   7.157  0.2362 -0.7555  1.0183
 1061TIP3   OH224817   1.237   2.914   8.448 -0.2587  0.0072  0.3495
 1061TIP3    H124818   1.328   2.930   8.472 -0.4273  1.3489  0.1455
 1061TIP3    H224819   1.198   2.873   8.525 -0.1673  1.9509  1.4788
 1062TIP3   OH224820   3.080   2.122   2.068  0.0663 -0.1301  0.7039
 1062TIP3    H124821   3.003   2.066   2.052  1.1798 -1.1381 -1.5320
 1062TIP3    H224822   3.153   2.061   2.077  1.2322  0.8753 -1.2428
 1063TIP3   OH224823   0.420   0.112   7.931  0.6992  0.1856 -0.5590
 1063TIP3    H124824   0.371   0.077   7.856  0.1925  0.4405 -0.3493
 1063TIP3    H224825   0.398   0.205   7.933  0.4411  0.1131  0.1183
 1064TIP3   OH224826   6.427   1.584   0.886 -0.3247 -0.2600 -0.0792
 1064TIP3    H124827   6.372   1.644   0.935  1.3516  2.6126 -1.4176
 1064TIP3    H224828   6.516   1.617   0.899  0.4526 -1.0395 -2.7429
 1065TIP3   OH224829   5.081   4.826   1.562  0.1280  0.0351 -0.0254
 1065TIP3    H124830   5.162   4.863   1.597  1.1477 -2.3375  0.3174
 1065TIP3    H224831   5.093   4.826   1.467  0.9497 -1.0954  0.0574
 1066TIP3   OH224832   0.076   4.612   1.149  0.1446  0.1530 -0.4111
 1066TIP3    H124833   0.101   4.552   1.219  0.0172  0.7251  0.1309
 1066TIP3    H224834   0.073   4.698   1.191  0.9075  0.6412 -1.3060
 1067TIP3   OH224835   2.138   1.105   0.972  0.5457 -0.3797  0.1074
 1067TIP3    H124836   2.195   1.181   0.979  1.0073 -0.7698  0.8525
 1067TIP3    H224837   2.195   1.031   0.995  0.1926 -0.9876 -0.9247
 1068TIP3   OH224838   5.606   4.348   0.456 -0.1388 -0.1184  0.0741
 1068TIP3    H124839   5.522   4.313   0.487 -1.1707 -0.4351 -2.8326
 1068TIP3    H224840   5.624   4.421   0.516 -1.2716 -1.4542  2.1828
 1069TIP3   OH224841   2.958   0.225   1.221 -0.3923 -0.6047  0.3532
 1069TIP3    H124842   2.970   0.132   1.205  1.5573 -0.4388  0.6833
 1069TIP3    H224843   2.973   0.267   1.136  0.5740 -0.4687  0.5780
 1070TIP3   OH224844   5.724   4.053   8.831 -0.3283  0.2701  0.8894
 1070TIP3    H124845   5.798   4.060   8.770  0.2949 -0.8162  1.4980
 1070TIP3    H224846   5.764   4.031   8.915 -1.2758  0.5938  1.4359
 1071TIP3   OH224847   3.316   1.864   0.334  0.0050  0.1065  0.5871
 1071TIP3    H124848   3.293   1.923   0.406 -1.0561  0.8597 -0.3291
 1071TIP3    H224849   3.245   1.799   0.333 -2.2617  2.3743 -2.1883
 1072TIP3   OH224850   5.707   6.683   1.281 -0.0180  0.0459 -0.0936
 1072TIP3    H124851   5.675   6.766   1.316 -0.3312 -0.3909  0.6696
 1072TIP3    H224852   5.633   6.623   1.288  0.7442 -0.7944  1.0658
 1073TIP3   OH224853   1.815   0.662   0.201  0.4363 -0.2187  0.4850
 1073TIP3    H124854   1.839   0.725   0.269 -0.5775 -1.2541  1.8653
 1073TIP3    H224855   1.892   0.605   0.193 -0.4376 -1.9323  3.0175
 1074TIP3   OH224856   2.484   2.982   0.763  0.2616  0.3026  0.2009
 1074TIP3    H124857   2.436   2.928   0.825  1.7099 -0.6546  0.5333
 1074TIP3    H224858   2.455   2.952   0.677  0.6255 -0.6055  0.3894
 1075TIP3   OH224859   4.421   1.898   7.641  0.2315  0.2843 -0.1385
 1075TIP3    H124860   4.407   1.862   7.553 -1.6334  1.6547 -0.4713
 1075TIP3    H224861   4.389   1.830   7.700  0.7536 -0.3274 -0.5456
 1076TIP3   OH224862   1.605   1.721   6.956 -0.4277  0.3852  0.1806
 1076TIP3    H124863   1.688   1.683   6.986 -2.0869 -4.2355 -0.3056
 1076TIP3    H224864   1.612   1.723   6.861 -1.3734 -1.7336  0.0087
 1077TIP3   OH224865   4.669   2.544   1.356 -0.5277  0.4017 -0.0433
 1077TIP3    H124866   4.575   2.554   1.370 -0.4631 -0.9075  1.6237
 1077TIP3    H224867   4.709   2.601   1.421 -0.1952 -0.4544  0.5211
 1078TIP3   OH224868   4.422   3.579   6.741 -0.1549  0.0819 -0.1677
 1078TIP3    H124869   4.408   3.636   6.665 -0.2414  0.6285  0.2462
 1078TIP3    H224870   4.379   3.497   6.719  1.5156 -0.4878 -1.5403
 1079TIP3   OH224871   1.337   2.637   8.408 -0.0428  0.2196  0.2570
 1079TIP3    H124872   1.320   2.610   8.498  0.6120  0.9194  0.5990
 1079TIP3    H224873   1.262   2.692   8.385 -0.6433 -0.6526  0.0614
 1080TIP3   OH224874   4.120   5.738   0.844  0.0524 -0.2445 -0.1394
 1080TIP3    H124875   4.193   5.740   0.906 -0.4358  0.2961  0.4299
 1080TIP3    H224876   4.142   5.804   0.778 -1.4349  2.3540  1.8113
 1081TIP3   OH224877   3.316   1.357   8.621  0.0307 -0.1264 -0.1650
 1081TIP3    H124878   3.379   1.422   8.653  1.0678 -1.9722  1.8306
 1081TIP3    H224879   3.283   1.315   8.700 -1.1443 -1.5560 -1.3483
 1082TIP3   OH224880   1.832   3.082   0.183 -0.1650 -0.4874 -0.0405
 1082TIP3    H124881   1.848   3.029   0.261  1.0186 -0.0064  0.0559
 1082TIP3    H224882   1.872   3.033   0.111  0.5134  0.0375 -0.0253
 1083TIP3   OH224883   2.254   1.854   0.056  0.1794 -0.7899 -0.4295
 1083TIP3    H124884   2.227   1.780   0.110 -3.0267  1.0471  0.7902
 1083TIP3    H224885   2.217   1.836  -0.030 -1.7666 -0.1329  0.2074
 1084TIP3   OH224886   1.426   5.372   1.809 -0.6349  0.3417 -0.1642
 1084TIP3    H124887   1.472   5.444   1.852 -2.9152  1.4407  0.6117
 1084TIP3    H224888   1.335   5.401   1.804 -1.3783 -1.8961 -1.1926
 1085TIP3   OH224889   1.183   1.236   0.925 -0.5153  0.4879  0.2954
 1085TIP3    H124890   1.178   1.145   0.957 -0.5359  0.3303 -0.1468
 1085TIP3    H224891   1.099   1.251   0.883 -0.8339  0.9945  1.0845
 1086TIP3   OH224892   1.370   1.204   8.057 -0.0922 -0.3479 -0.8255
 1086TIP3    H124893   1.405   1.152   8.129 -0.9948 -1.7608 -1.3548
 1086TIP3    H224894   1.443   1.261   8.031  1.4275 -2.2901 -1.0923
 1087TIP3   OH224895   3.756   5.258   8.195 -0.0049 -0.2397  0.0900
 1087TIP3    H124896   3.761   5.236   8.288 -0.1360  0.3352  0.2413
 1087TIP3    H224897   3.840   5.298   8.175  0.1353 -0.6387 -0.1137
 1088TIP3   OH224898   5.633   2.960   0.241 -0.3309  0.5066 -0.2208
 1088TIP3    H124899   5.712   2.907   0.230 -1.5209 -1.3778 -0.1914
 1088TIP3    H224900   5.561   2.898   0.229 -1.8196  2.2071 -0.4750
 1089TIP3   OH224901   6.671   3.556   0.452  0.1728 -0.5153 -0.2384
 1089TIP3    H124902   6.607   3.520   0.391  0.2750  0.2352 -0.8027
 1089TIP3    H224903   6.692   3.483   0.511 -0.6535 -0.9689 -0.4915
 1090TIP3   OH224904   5.072   5.548   1.060 -0.0249 -0.0928  0.2085
 1090TIP3    H124905   4.990   5.577   1.101  1.1049  0.9225  1.8844
 1090TIP3    H224906   5.129   5.526   1.134  1.5155  0.0634 -0.8944
 1091TIP3   OH224907   5.385   6.230   7.596 -0.1667 -0.2433  0.0311
 1091TIP3    H124908   5.431   6.155   7.633 -0.0687  0.6332  1.7722
 1091TIP3    H224909   5.312   6.246   7.655 -1.1624  0.0553 -1.2159
 1092TIP3   OH224910   0.310   0.057   6.628 -0.8092  0.3668 -0.3583
 1092TIP3    H124911   0.380   0.107   6.586 -1.4967  1.4281 -0.2818
 1092TIP3    H224912   0.265   0.014   6.555 -0.3765  0.0603 -0.4508
 1093TIP3   OH224913   1.089   6.414   8.541 -0.1203 -0.1733  0.2908
 1093TIP3    H124914   1.141   6.340   8.571 -0.4695 -0.7594 -0.4915
 1093TIP3    H224915   1.108   6.419   8.447 -2.4513 -1.2784 -0.3190
 1094TIP3   OH224916   0.916   2.715   2.517  0.8884  0.2150 -0.0025
 1094TIP3    H124917   0.965   2.794   2.541 -0.4759  1.3028 -0.6412
 1094TIP3    H224918   0.833   2.724   2.563 -0.0983  0.2239 -1.6899
 1095TIP3   OH224919   6.102   4.900   8.561 -0.1932  0.2883  0.4668
 1095TIP3    H124920   6.075   4.989   8.584  0.4766 -0.0432  2.7478
 1095TIP3    H224921   6.021   4.851   8.554 -0.5316  0.9198 -0.1137
 1096TIP3   OH224922   1.871   5.858   1.364  0.1530 -0.2179  0.2588
 1096TIP3    H124923   1.860   5.840   1.270  1.3827 -0.4159  0.1312
 1096TIP3    H224924   1.966   5.856   1.377  0.0394  0.7650  1.3257
 1097TIP3   OH224925   5.462   1.961   8.859  0.2659 -0.2288 -1.1709
 1097TIP3    H124926   5.443   2.046   8.900  1.0279 -0.0773 -1.1296
 1097TIP3    H224927   5.556   1.949   8.870 -0.0814 -1.9891  0.5877
 1098TIP3   OH224928   1.993   6.277   8.287  0.2755  0.2718 -0.4155
 1098TIP3    H124929   2.067   6.221   8.306 -0.3100 -0.2350  0.4374
 1098TIP3    H224930   1.967   6.254   8.198 -0.8909 -1.9567  0.4119
 1099TIP3   OH224931   2.771   1.655   2.618 -0.3814 -0.5461 -0.0613
 1099TIP3    H124932   2.786   1.636   2.711 -0.7771  0.4499  0.2137
 1099TIP3    H224933   2.735   1.743   2.617  0.4286 -0.2129 -1.2416
 1100TIP3   OH224934   1.885   4.431   3.072 -0.6970  0.4376 -0.2673
 1100TIP3    H124935   1.803   4.398   3.036 -0.5845  0.6091 -0.6816
 1100TIP3    H224936   1.891   4.521   3.040  0.0803  0.1506 -0.9647
 1101TIP3   OH224937   0.033   0.588   8.474 -0.0593 -0.5131 -0.6266
 1101TIP3    H124938  -0.018   0.519   8.516 -0.3682 -1.5409 -2.5604
 1101TIP3    H224939  -0.018   0.668   8.487 -0.1415 -0.7967  0.8798
 1102TIP3   OH224940   5.712   6.231   7.582  0.2164  0.1135 -0.6564
 1102TIP3    H124941   5.658   6.294   7.534  1.3569 -0.0920 -2.2905
 1102TIP3    H224942   5.688   6.245   7.674 -1.7623  0.7998 -1.2110
 1103TIP3   OH224943   0.205   2.774   0.159  0.7467 -0.4285  0.4497
 1103TIP3    H124944   0.122   2.790   0.115  0.5086 -0.6641  0.8167
 1103TIP3    H224945   0.206   2.836   0.232 -0.0128 -1.7894  1.6551
 1104TIP3   OH224946   1.814   2.151   7.129  0.0668 -0.1995 -0.2582
 1104TIP3    H124947   1.814   2.199   7.046  0.7032 -1.4746 -1.0387
 1104TIP3    H224948   1.856   2.210   7.191  1.1259  0.1603 -1.2718
 1105TIP3   OH224949   4.300   0.703   1.914 -0.1637 -0.8742  0.5153
 1105TIP3    H124950   4.262   0.776   1.866 -0.1552 -0.2733  1.4104
 1105TIP3    H224951   4.263   0.625   1.872 -1.8913 -0.3260  0.9436
 1106TIP3   OH224952   2.697   1.794   0.367  0.6179  0.0320  0.1495
 1106TIP3    H124953   2.682   1.886   0.385 -2.9671 -0.4661  0.4416
 1106TIP3    H224954   2.679   1.784   0.273  0.4822 -0.4486  0.2205
 1107TIP3   OH224955   4.246   6.609   1.227  0.2505  0.2997 -0.4974
 1107TIP3    H124956   4.314   6.597   1.294 -0.8821 -1.6479  0.4050
 1107TIP3    H224957   4.192   6.681   1.260  0.3203  0.0585  0.1683
 1108TIP3   OH224958   2.183   1.870   8.185 -0.1273  0.4839 -0.8575
 1108TIP3    H124959   2.130   1.856   8.263  1.1110  2.1781  0.3476
 1108TIP3    H224960   2.125   1.915   8.124 -1.6390 -2.3122 -1.6997
 1109TIP3   OH224961   6.399   6.377   2.128  0.7096  0.4455 -0.4647
 1109TIP3    H124962   6.418   6.442   2.196  2.9424  0.0001 -0.5875
 1109TIP3    H224963   6.465   6.393   2.060 -0.4829 -0.1456 -1.8266
 1110TIP3   OH224964   6.069   1.327   2.772  0.4428  0.0209 -0.2986
 1110TIP3    H124965   6.008   1.400   2.775  0.4652  0.0191  2.0847
 1110TIP3    H224966   6.043   1.277   2.694  0.2911  2.3780 -1.8582
 1111TIP3   OH224967   0.231   3.407   1.807  0.1013 -0.0129 -0.4781
 1111TIP3    H124968   0.202   3.430   1.718  0.4247  2.0215 -0.1076
 1111TIP3    H224969   0.256   3.315   1.801 -1.4277 -0.3809 -2.0891
 1112TIP3   OH224970   1.177   3.533   0.228 -0.3717  0.3582 -0.2462
 1112TIP3    H124971   1.143   3.507   0.313 -1.3608 -1.5333 -1.1569
 1112TIP3    H224972   1.257   3.481   0.217 -1.1903 -0.7574 -1.1711
 1113TIP3   OH224973   1.953   0.578   7.891 -0.3770 -0.1882 -0.4643
 1113TIP3    H124974   1.889   0.594   7.822 -1.8810  0.0994  0.9401
 1113TIP3    H224975   1.964   0.483   7.892 -2.5837 -0.5021  0.7497
 1114TIP3   OH224976   6.557   6.764   0.409  0.3239 -0.0800  0.1393
 1114TIP3    H124977   6.634   6.737   0.358 -0.9706 -0.3748 -1.7668
 1114TIP3    H224978   6.567   6.859   0.419  0.9673 -0.1258 -0.0144
 1115TIP3   OH224979   3.964   1.200   6.976  0.8466 -0.0764  0.2830
 1115TIP3    H124980   3.872   1.213   6.998  1.1345  0.2500  1.3541
 1115TIP3    H224981   3.962   1.139   6.902 -0.2587  0.7620 -0.4075
 1116TIP3   OH224982   2.060   2.623   1.591  0.8152 -0.6522  0.0972
 1116TIP3    H124983   2.030   2.707   1.626 -0.3463 -0.5187 -1.1260
 1116TIP3    H224984   1.996   2.601   1.523  1.7099 -2.0029 -0.3560
 1117TIP3   OH224985   2.180   0.937   3.029 -0.1927  0.7633  0.4187
 1117TIP3    H124986   2.244   0.956   2.959 -0.0197  0.3421  0.4617
 1117TIP3    H224987   2.181   0.842   3.037 -1.4855  0.6832 -0.1898
 1118TIP3   OH224988   2.534   3.590   0.947 -0.2606  0.3262 -0.0531
 1118TIP3    H124989   2.487   3.513   0.979  0.1035  0.5423  1.0477
 1118TIP3    H224990   2.523   3.587   0.852 -0.8048 -0.7157  0.0269
 1119TIP3   OH224991   0.789   3.319   2.098 -0.0491  0.1017  0.2164
 1119TIP3    H124992   0.755   3.266   2.026  0.0449  1.5586 -0.9666
 1119TIP3    H224993   0.765   3.272   2.177  0.5255 -1.9699 -0.7837
 1120TIP3   OH224994   2.401   0.026   7.879  0.0429 -0.0573 -0.8567
 1120TIP3    H124995   2.463   0.099   7.870  0.2075 -0.3867 -2.6782
 1120TIP3    H224996   2.394  -0.011   7.791 -3.1154  0.2591 -0.8365
 1121TIP3   OH224997   6.166   3.811   1.306  0.4588 -0.4750 -0.2484
 1121TIP3    H124998   6.160   3.723   1.269  0.2153 -0.2589 -0.7243
 1121TIP3    H224999   6.179   3.869   1.231 -1.5912  0.1444 -0.1761
 1122TIP3   OH225000   4.846   1.771   0.095 -0.4328 -0.2945 -0.1724
 1122TIP3    H125001   4.763   1.784   0.049 -0.0340 -0.7828 -1.0334
 1122TIP3    H225002   4.891   1.856   0.088 -0.2752 -0.4341 -0.8863
 1123TIP3   OH225003   5.403   6.684   7.869 -0.4174  0.0464 -0.2510
 1123TIP3    H125004   5.445   6.694   7.954 -0.1086 -0.5047 -0.3327
 1123TIP3    H225005   5.330   6.625   7.885  0.0164 -0.5672 -0.4805
 1124TIP3   OH225006   2.055   2.735   8.044 -0.3741  0.0784 -0.1746
 1124TIP3    H125007   2.079   2.810   7.989  0.0119 -0.5961 -0.9645
 1124TIP3    H225008   1.968   2.710   8.013 -0.5458  0.2584  0.1584
 1125TIP3   OH225009   6.328   4.652   8.154 -0.5875  0.5248 -0.0960
 1125TIP3    H125010   6.251   4.691   8.193 -0.9624  1.6639 -1.8913
 1125TIP3    H225011   6.400   4.709   8.181 -0.7670  1.0033 -0.6205
 1126TIP3   OH225012   4.188   1.311   7.763  0.2074  0.1339  0.7952
 1126TIP3    H125013   4.109   1.264   7.790  0.2777  0.3018  1.3138
 1126TIP3    H225014   4.251   1.293   7.834  0.7420 -0.2677  0.2311
 1127TIP3   OH225015   1.745   5.092   7.420 -0.3888 -0.4323 -0.5968
 1127TIP3    H125016   1.819   5.151   7.409  1.1846 -2.0604  0.7303
 1127TIP3    H225017   1.783   5.010   7.450 -2.5307 -2.0471 -1.9780
 1128TIP3   OH225018   1.947   0.894   6.888 -0.0209  0.0461  0.3157
 1128TIP3    H125019   1.874   0.896   6.950 -0.9765 -1.6825 -0.6805
 1128TIP3    H225020   1.907   0.918   6.804  0.7776  0.0576 -0.0689
 1129TIP3   OH225021   5.422   5.612   0.794 -0.3663  0.2985  0.6581
 1129TIP3    H125022   5.493   5.675   0.804  0.6409 -0.6307 -0.4367
 1129TIP3    H225023   5.348   5.652   0.841  0.5436  1.7819  0.8876
 1130TIP3   OH225024   6.082   3.056   0.799 -0.3619  0.4034  0.6879
 1130TIP3    H125025   6.073   3.145   0.832 -1.6016  0.7920 -0.5884
 1130TIP3    H225026   6.044   3.059   0.711  1.2949 -0.9587 -0.1462
 1131TIP3   OH225027   2.956   3.224   1.805  0.3693 -0.6367  0.1078
 1131TIP3    H125028   3.038   3.176   1.819 -0.2195 -1.5351  0.5957
 1131TIP3    H225029   2.971   3.309   1.845  1.0416 -0.8243  0.2663
 1132TIP3   OH225030   1.582   0.573   0.882 -0.1859  0.1856 -0.7703
 1132TIP3    H125031   1.534   0.619   0.951 -0.7448 -1.3427 -0.0954
 1132TIP3    H225032   1.666   0.549   0.922 -0.0971  0.1918 -0.9521
 1133TIP3   OH225033   5.892   3.176   2.177  0.1119 -0.8239 -0.0100
 1133TIP3    H125034   5.813   3.186   2.124  0.8832  0.1542 -1.0252
 1133TIP3    H225035   5.887   3.245   2.242  1.6227  1.3755 -2.0802
 1134TIP3   OH225036   6.488   4.056   1.251 -0.3264  0.2469 -0.3891
 1134TIP3    H125037   6.441   3.991   1.199  0.8761 -0.8488 -0.1587
 1134TIP3    H225038   6.545   4.100   1.189  0.1923 -0.1941 -0.2329
 1135TIP3   OH225039   0.759   5.111   7.262 -0.4639  0.2397  0.7305
 1135TIP3    H125040   0.753   5.114   7.167  0.8230  1.8689  0.6418
 1135TIP3    H225041   0.816   5.036   7.280 -0.1388  0.3492  0.1806
 1136TIP3   OH225042   1.997   3.153   1.569 -0.7553 -0.4799 -0.1977
 1136TIP3    H125043   1.909   3.153   1.608 -1.5502  1.1216 -1.8512
 1136TIP3    H225044   2.038   3.232   1.604 -0.5473 -0.3908 -0.6372
 1137TIP3   OH225045   6.449   1.813   1.890 -0.2356 -0.2084  0.1058
 1137TIP3    H125046   6.379   1.868   1.925  0.4239 -0.5109  2.0413
 1137TIP3    H225047   6.523   1.874   1.878 -0.9671  0.2584 -2.6314
 1138TIP3   OH225048   3.436   4.872   1.424  0.4110  0.4921 -0.0415
 1138TIP3    H125049   3.489   4.807   1.470 -0.5001 -0.6869 -0.5993
 1138TIP3    H225050   3.500   4.928   1.380  1.2734  1.0526  1.8232
 1139TIP3   OH225051   6.524   2.316   8.462 -0.3348 -0.1461  0.0102
 1139TIP3    H125052   6.599   2.294   8.518  2.1091 -0.9977 -3.2527
 1139TIP3    H225053   6.513   2.410   8.473  1.3123  0.0256  0.5232
 1140TIP3   OH225054   3.405   3.386   2.229  0.5923  1.1082  0.5148
 1140TIP3    H125055   3.366   3.419   2.310 -0.0619 -0.9923  1.1112
 1140TIP3    H225056   3.486   3.343   2.257  0.7031  0.9426 -0.0461
 1141TIP3   OH225057   4.447   0.917   7.145  0.1200  0.4166  0.7209
 1141TIP3    H125058   4.490   0.995   7.180  0.0208  0.3416  1.0101
 1141TIP3    H225059   4.387   0.890   7.214 -0.5065  0.6108  0.2558
 1142TIP3   OH225060   3.074   3.845   1.360 -0.4726  0.3303  0.2937
 1142TIP3    H125061   3.081   3.855   1.265 -0.2374 -0.9150  0.1730
 1142TIP3    H225062   3.160   3.815   1.388 -0.5218  0.7542  0.9194
 1143TIP3   OH225063   1.657   0.993   8.828  1.0042  0.3074  0.0264
 1143TIP3    H125064   1.745   0.982   8.863  0.4298 -0.9432  1.1252
 1143TIP3    H225065   1.616   0.907   8.835 -0.6020  1.0460  0.3563
 1144TIP3   OH225066   0.789   6.311   7.500  0.7931  0.9335  0.5267
 1144TIP3    H125067   0.833   6.299   7.584 -1.1085  0.2874  1.4991
 1144TIP3    H225068   0.821   6.239   7.446  2.3867  1.6246  0.5108
 1145TIP3   OH225069   3.918   2.349   2.604  0.2958  0.1294  0.0330
 1145TIP3    H125070   3.934   2.282   2.537  0.6342  0.3489 -0.1091
 1145TIP3    H225071   3.980   2.326   2.674 -1.2781 -1.1594  1.0569
 1146TIP3   OH225072   2.544   4.324   7.250 -0.3416  0.1115 -0.2840
 1146TIP3    H125073   2.586   4.358   7.328 -0.9766 -0.7297  0.4537
 1146TIP3    H225074   2.572   4.232   7.246 -0.2731  0.1578 -1.0763
 1147TIP3   OH225075   4.688   1.482   0.293  0.1250  0.3369 -0.1997
 1147TIP3    H125076   4.695   1.498   0.387 -1.0060  0.3146 -0.0955
 1147TIP3    H225077   4.594   1.487   0.275  0.1686 -1.3538 -1.0379
 1148TIP3   OH225078   5.834   0.866   8.852 -0.1126 -0.3432 -0.0195
 1148TIP3    H125079   5.831   0.777   8.819 -0.8768  0.2728 -1.7510
 1148TIP3    H225080   5.873   0.917   8.781  1.0850  0.6072  1.2409
 1149TIP3   OH225081   6.005   5.490   7.147 -0.1355 -0.1062  0.2501
 1149TIP3    H125082   6.035   5.581   7.157 -1.0892  0.1849  0.5949
 1149TIP3    H225083   5.914   5.499   7.118 -0.1352 -0.9625 -0.0288
 1150TIP3   OH225084   3.490   4.745   2.558 -0.2520  0.0145  0.4775
 1150TIP3    H125085   3.522   4.823   2.603  0.1850 -0.9177  1.8393
 1150TIP3    H225086   3.570   4.698   2.533 -0.5185 -0.7038  0.9585
 1151TIP3   OH225087   2.328   5.327   0.895  0.5729 -0.0090 -0.4711
 1151TIP3    H125088   2.364   5.267   0.829  1.7987 -0.1220  0.2780
 1151TIP3    H225089   2.238   5.343   0.866  0.2443 -2.1293 -0.7501
 1152TIP3   OH225090   4.830   3.189   1.532  0.0798  0.4649  0.2790
 1152TIP3    H125091   4.747   3.173   1.577 -0.2972 -2.6910 -1.2717
 1152TIP3    H225092   4.895   3.145   1.587  0.7575  2.6423  1.3094
 1153TIP3   OH225093   3.824   6.752   0.765 -0.1237  0.0105 -0.2275
 1153TIP3    H125094   3.762   6.743   0.837  0.8763 -1.0789  0.5363
 1153TIP3    H225095   3.819   6.845   0.741  1.0642  0.9561  2.7264
 1154TIP3   OH225096   0.733   5.223   0.369  0.2141 -0.1334  0.3843
 1154TIP3    H125097   0.745   5.131   0.395  1.0395 -0.5958 -1.4834
 1154TIP3    H225098   0.638   5.235   0.367  0.1070 -0.7719  1.1832
 1155TIP3   OH225099   0.527   0.845   8.837 -0.0309  0.1732 -0.6489
 1155TIP3    H125100   0.513   0.858   8.931 -0.8619 -0.8488 -0.6132
 1155TIP3    H225101   0.622   0.832   8.828  0.0999  0.6293 -0.0058
 1156TIP3   OH225102   4.836   5.341   8.826 -0.4092 -0.1953  0.6174
 1156TIP3    H125103   4.836   5.247   8.808  1.0390 -0.9404  3.7974
 1156TIP3    H225104   4.926   5.369   8.806 -1.2748  1.0541 -2.0840
 1157TIP3   OH225105   2.318   6.126   0.469  0.1060 -0.2404 -1.0649
 1157TIP3    H125106   2.389   6.158   0.413  0.5672  0.0478 -0.3297
 1157TIP3    H225107   2.339   6.160   0.556 -1.5141  0.7659 -1.0378
 1158TIP3   OH225108   6.520   2.691   8.745 -0.0158 -0.3188  0.2118
 1158TIP3    H125109   6.499   2.599   8.756  0.4382 -0.4298  0.1847
 1158TIP3    H225110   6.445   2.728   8.698 -0.3452 -0.6032  0.5138
 1159TIP3   OH225111   6.433   2.140   8.209 -0.1735 -0.1379  0.4897
 1159TIP3    H125112   6.495   2.126   8.137 -0.2388 -0.8720  0.5627
 1159TIP3    H225113   6.478   2.200   8.268 -1.2860  3.0262 -1.5972
 1160TIP3   OH225114   4.112   4.422   0.246 -0.0350  0.1940 -0.0957
 1160TIP3    H125115   4.174   4.408   0.317 -1.2257 -1.7887  0.6307
 1160TIP3    H225116   4.026   4.403   0.285 -0.6848 -1.5064 -2.1507
 1161TIP3   OH225117   0.725   0.242   0.194  0.0204  0.2282  0.5212
 1161TIP3    H125118   0.637   0.204   0.197  0.0219  0.2700  1.4985
 1161TIP3    H225119   0.751   0.248   0.286  1.9679 -1.9552  0.2134
 1162TIP3   OH225120   3.006   3.794   7.840  0.2485 -0.4180 -0.5246
 1162TIP3    H125121   3.048   3.853   7.902  1.3497 -1.2443 -0.4544
 1162TIP3    H225122   3.017   3.707   7.877 -0.0283 -0.8186 -1.3473
 1163TIP3   OH225123   3.526   5.664   0.387 -0.3973 -0.0454  0.0648
 1163TIP3    H125124   3.533   5.694   0.297 -0.1416 -1.7677 -0.5251
 1163TIP3    H225125   3.617   5.654   0.416 -0.4678  1.0107  0.7243
 1164TIP3   OH225126   6.260   3.013   0.555  0.2647 -0.1809  0.2222
 1164TIP3    H125127   6.342   2.978   0.589 -0.1063 -1.6586 -0.3407
 1164TIP3    H225128   6.192   2.954   0.588 -0.4720  0.4247 -0.1519
 1165TIP3   OH225129   4.804   3.631   3.046 -0.4477  0.1463  0.5880
 1165TIP3    H125130   4.792   3.662   2.956 -0.2211  0.8476  0.7930
 1165TIP3    H225131   4.715   3.625   3.082 -0.5411 -0.1751  0.3085
 1166TIP3   OH225132   3.510   4.618   1.993 -0.2142  0.4988 -0.4985
 1166TIP3    H125133   3.487   4.662   1.912 -2.4092 -1.9951 -1.3630
 1166TIP3    H225134   3.509   4.525   1.971  0.2359 -0.2099  2.1393
 1167TIP3   OH225135   5.601   1.401   1.679 -0.3500 -0.1988  0.0225
 1167TIP3    H125136   5.511   1.424   1.701 -1.3059  1.3366 -4.4103
 1167TIP3    H225137   5.646   1.486   1.674  0.2647 -0.5694 -1.3808
 1168TIP3   OH225138   0.211   1.534   0.244 -0.0873  0.2134  0.2503
 1168TIP3    H125139   0.231   1.583   0.324 -0.9503 -0.3537  0.8385
 1168TIP3    H225140   0.207   1.442   0.273  0.2636 -0.0722 -0.5794
 1169TIP3   OH225141   4.877   1.579   1.216  0.2426  0.1793 -0.0084
 1169TIP3    H125142   4.913   1.628   1.142 -2.5490  1.5871 -0.5798
 1169TIP3    H225143   4.913   1.622   1.294  0.1961  1.1905 -0.5330
 1170TIP3   OH225144   6.065   1.823   0.636 -0.2047 -0.6376  0.3069
 1170TIP3    H125145   5.988   1.775   0.606 -0.4420 -0.6886  0.9915
 1170TIP3    H225146   6.081   1.790   0.725 -1.1697  1.4817  1.3406
 1171TIP3   OH225147   1.505   6.520   0.453 -0.2775  0.0831  0.1139
 1171TIP3    H125148   1.545   6.596   0.496 -2.7488  2.0511 -0.7688
 1171TIP3    H225149   1.475   6.554   0.368 -2.2957 -1.6178  0.0597
 1172TIP3   OH225150   4.482   6.627   0.512  0.1789  0.2139 -0.0104
 1172TIP3    H125151   4.426   6.562   0.470  1.2476  0.8287 -2.5798
 1172TIP3    H225152   4.424   6.672   0.573 -1.4917 -0.8214 -0.7633
 1173TIP3   OH225153   4.474   0.791   0.935  0.0650 -0.6420 -0.1303
 1173TIP3    H125154   4.523   0.767   0.857 -0.8067 -0.7773 -0.6564
 1173TIP3    H225155   4.413   0.718   0.949 -2.8267  1.1875 -1.9184
 1174TIP3   OH225156   1.264   5.506   0.192  0.1462  0.0888  0.0017
 1174TIP3    H125157   1.266   5.601   0.207 -0.2598  0.5222 -2.3259
 1174TIP3    H225158   1.180   5.478   0.228  0.1356  0.6600  0.4369
 1175TIP3   OH225159   4.146   1.491   2.445 -0.2212  0.5650 -0.0443
 1175TIP3    H125160   4.066   1.441   2.424  1.1093 -1.6124 -0.1940
 1175TIP3    H225161   4.189   1.441   2.514  0.7955  1.9855  0.4114
 1176TIP3   OH225162   3.183   1.777   7.428  0.0552 -0.5558 -0.0967
 1176TIP3    H125163   3.216   1.867   7.426 -0.9484 -0.1153  1.1183
 1176TIP3    H225164   3.181   1.750   7.336 -1.6686  1.4809 -0.7713
 1177TIP3   OH225165   1.956   2.582   1.863  0.2504  0.3507  0.3787
 1177TIP3    H125166   2.000   2.652   1.911 -1.2867  2.0008 -0.4730
 1177TIP3    H225167   1.985   2.593   1.772 -0.5927  0.4255  0.1034
 1178TIP3   OH225168   3.334   6.207   2.246 -0.0889 -0.3951  0.3397
 1178TIP3    H125169   3.379   6.271   2.192 -1.4243 -0.4441 -0.8963
 1178TIP3    H225170   3.321   6.251   2.330  0.5148  0.3206  0.0617
 1179TIP3   OH225171   6.467   0.156   8.488  0.7084 -0.2337  0.2476
 1179TIP3    H125172   6.547   0.128   8.533  0.6015 -1.1790 -0.1311
 1179TIP3    H225173   6.419   0.075   8.472  0.4328  0.1477 -0.9693
 1180TIP3   OH225174   1.640   3.239   0.024  0.0361 -0.2425  0.4700
 1180TIP3    H125175   1.594   3.156   0.007  0.5445 -0.3712 -0.3367
 1180TIP3    H225176   1.713   3.214   0.081  0.4541 -0.4433 -0.1349
 1181TIP3   OH225177   3.110   0.417   1.069  0.3918 -0.6158  0.4161
 1181TIP3    H125178   3.194   0.425   1.113 -0.6766 -1.0546  2.6761
 1181TIP3    H225179   3.091   0.505   1.036 -0.0017  0.4924  3.3494
 1182TIP3   OH225180   6.019   0.353   8.240 -0.2687 -0.4385  0.6063
 1182TIP3    H125181   5.947   0.304   8.278 -1.2386 -1.0876 -1.8951
 1182TIP3    H225182   6.094   0.293   8.243 -0.4943 -0.7083  0.8369
 1183TIP3   OH225183   6.105   5.913   8.740 -0.0697 -0.2485 -0.0931
 1183TIP3    H125184   6.012   5.891   8.731 -0.2147  0.1420  0.4147
 1183TIP3    H225185   6.135   5.861   8.815 -0.3977  1.1619  1.0724
 1184TIP3   OH225186   1.599   4.875   8.839 -0.2973 -0.0282  0.5867
 1184TIP3    H125187   1.650   4.827   8.774  0.3627  1.4688 -0.0544
 1184TIP3    H225188   1.548   4.808   8.884  1.1300 -1.4002  0.2453
 1185TIP3   OH225189   6.743   1.375   0.896  0.4596  0.0933 -0.1308
 1185TIP3    H125190   6.781   1.334   0.974  1.9917 -0.8881 -1.3216
 1185TIP3    H225191   6.762   1.468   0.907 -1.5598  0.3668  1.7968
 1186TIP3   OH225192   4.700   5.453   2.251  0.2606 -0.2284  0.0749
 1186TIP3    H125193   4.699   5.475   2.344 -0.8262  1.2626 -0.2438
 1186TIP3    H225194   4.742   5.528   2.209 -0.6094 -0.1877 -0.7687
 1187TIP3   OH225195   0.597   2.545   0.943 -0.3973  0.4341 -0.0367
 1187TIP3    H125196   0.546   2.472   0.978  1.1091 -0.5306  0.2497
 1187TIP3    H225197   0.533   2.599   0.897 -1.7387 -0.4605  0.7081
 1188TIP3   OH225198   2.558   1.051   7.241 -0.6891 -0.7440  0.3872
 1188TIP3    H125199   2.529   1.136   7.209  1.4546 -0.4058 -0.8003
 1188TIP3    H225200   2.511   0.988   7.187  0.8609 -0.2057 -1.6977
 1189TIP3   OH225201   3.369   6.411   1.122  0.3971  0.0296 -1.0300
 1189TIP3    H125202   3.371   6.387   1.215  1.0142  0.2597 -0.9810
 1189TIP3    H225203   3.299   6.357   1.085  3.3278 -3.9679 -1.4688
 1190TIP3   OH225204   6.690   2.287   1.929 -0.4031  0.3738 -0.1378
 1190TIP3    H125205   6.749   2.362   1.938  0.4071 -0.2271 -0.3573
 1190TIP3    H225206   6.676   2.257   2.019  1.3337 -0.7651 -0.2107
 1191TIP3   OH225207   1.807   3.818   2.603  0.3502 -0.0010  0.3247
 1191TIP3    H125208   1.755   3.739   2.595  0.0617 -0.0129  1.8618
 1191TIP3    H225209   1.865   3.801   2.678  1.0659  0.8220 -0.0186
 1192TIP3   OH225210   6.365   4.457   1.908 -0.1242  0.0089 -0.3077
 1192TIP3    H125211   6.279   4.414   1.915  0.2737 -0.5409  1.4876
 1192TIP3    H225212   6.387   4.482   1.998  0.5653  2.2547 -1.0223
 1193TIP3   OH225213   1.683   4.127   0.500  0.4909 -0.0990  0.2082
 1193TIP3    H125214   1.725   4.207   0.531  1.4917 -0.3009 -0.5712
 1193TIP3    H225215   1.701   4.125   0.406  0.2881 -1.1205  0.1760
 1194TIP3   OH225216   4.703   3.933   0.870  0.4475 -0.0509 -0.3854
 1194TIP3    H125217   4.663   4.016   0.896 -1.3861 -1.4489  1.6346
 1194TIP3    H225218   4.628   3.878   0.844  1.5699 -1.1896 -1.3358
 1195TIP3   OH225219   4.238   6.749   2.778 -0.2441  0.0710 -0.4814
 1195TIP3    H125220   4.289   6.746   2.859  0.0632 -1.0612 -0.6981
 1195TIP3    H225221   4.235   6.658   2.749 -1.8253  0.2163 -0.8311
 1196TIP3   OH225222   1.754   2.763   2.914 -0.0565  0.1705 -0.1359
 1196TIP3    H125223   1.788   2.692   2.859  0.5519 -0.0663  0.5225
 1196TIP3    H225224   1.685   2.803   2.862  0.8073  0.2508 -1.2763
 1197TIP3   OH225225   0.973   4.588   1.681 -0.3482  0.1522 -0.5043
 1197TIP3    H125226   1.061   4.549   1.680 -0.6322 -0.6062  1.1646
 1197TIP3    H225227   0.952   4.601   1.588  0.4742 -2.1042 -1.0846
 1198TIP3   OH225228   1.520   5.598   1.427 -0.1137 -0.6433 -0.1579
 1198TIP3    H125229   1.443   5.601   1.483 -0.9290 -1.6368 -1.1870
 1198TIP3    H225230   1.496   5.652   1.351  0.3844 -0.5864 -0.2784
 1199TIP3   OH225231   5.200   3.087   0.052  0.0331  0.5380  0.0667
 1199TIP3    H125232   5.201   3.178   0.082  2.2648  0.0877  1.6434
 1199TIP3    H225233   5.261   3.085  -0.022  0.9691  0.1388  0.8260
 1200TIP3   OH225234   3.159   0.643   7.728  0.1861  0.6389  0.2259
 1200TIP3    H125235   3.159   0.573   7.662 -0.9086 -0.8875  1.7501
 1200TIP3    H225236   3.246   0.639   7.767 -0.2392 -0.7494  1.1160
 1201TIP3   OH225237   0.010   5.205   1.205  0.4844 -0.6222 -0.4538
 1201TIP3    H125238  -0.076   5.167   1.221  0.3169 -0.4041 -0.8174
 1201TIP3    H225239   0.056   5.196   1.288  0.0530 -0.5896 -0.2070
 1202TIP3   OH225240   3.408   0.359   2.919 -0.4651 -0.6805 -0.3661
 1202TIP3    H125241   3.473   0.429   2.911  0.9560 -1.6635  1.6349
 1202TIP3    H225242   3.446   0.286   2.869 -0.5083 -0.9420 -0.0170
 1203TIP3   OH225243   1.809   1.732   1.304  0.4486  0.2331 -0.0373
 1203TIP3    H125244   1.880   1.772   1.355 -0.1838 -0.8041  1.7434
 1203TIP3    H225245   1.733   1.788   1.321  0.4281  0.3853 -0.5933
 1204TIP3   OH225246   0.123   2.002   0.594  0.6509 -0.3191 -0.1024
 1204TIP3    H125247   0.037   2.006   0.637  1.1209 -0.5812  0.9039
 1204TIP3    H225248   0.108   1.947   0.517  0.0759 -1.0332  0.4952
 1205TIP3   OH225249   4.470   3.639   8.047  0.0312  0.3000  0.1820
 1205TIP3    H125250   4.416   3.707   8.008 -0.7655  0.1005  0.9170
 1205TIP3    H225251   4.497   3.585   7.973 -1.8070 -0.3228 -0.0724
 1206TIP3   OH225252   6.756   6.577   0.808  0.0181  0.0316  0.0120
 1206TIP3    H125253   6.713   6.495   0.830 -1.3839  1.2071  1.9908
 1206TIP3    H225254   6.687   6.632   0.771  0.6728  0.7143 -0.2290
 1207TIP3   OH225255   5.930   5.277   7.843  0.1271 -0.0271  0.0913
 1207TIP3    H125256   5.859   5.240   7.790  0.9080  0.9362 -1.7188
 1207TIP3    H225257   5.898   5.271   7.933 -1.4736 -1.2719 -0.5034
 1208TIP3   OH225258   3.741   1.535   0.912 -1.2328  0.2730 -0.3342
 1208TIP3    H125259   3.805   1.603   0.932 -1.1597  0.5597 -1.4249
 1208TIP3    H225260   3.741   1.478   0.988  0.5616  0.0873 -0.4214
 1209TIP3   OH225261   5.293   4.357   2.687 -0.1295  0.2743 -0.1583
 1209TIP3    H125262   5.210   4.355   2.638 -0.3129  1.3712  0.0948
 1209TIP3    H225263   5.276   4.416   2.760  0.1439 -1.3185  1.2493
 1210TIP3   OH225264   0.801   2.377   2.968 -0.5808  0.1229 -0.0584
 1210TIP3    H125265   0.783   2.445   2.904 -0.5148  0.1384 -0.0596
 1210TIP3    H225266   0.764   2.297   2.929  0.7101 -0.1569 -0.7590
 1211TIP3   OH225267   4.390   5.796   1.883 -0.4160 -0.0145  0.0805
 1211TIP3    H125268   4.329   5.772   1.953 -0.6040  0.5634  0.1209
 1211TIP3    H225269   4.470   5.823   1.929  0.0883 -1.3133  0.0130
 1212TIP3   OH225270   5.993   3.593   7.512  0.0138 -0.4393 -0.2812
 1212TIP3    H125271   6.067   3.588   7.572  1.0283  0.4912 -1.4058
 1212TIP3    H225272   5.921   3.625   7.566  0.9458  0.5362  0.4288
 1213TIP3   OH225273   5.537   2.967   1.875 -0.1319 -0.0161 -0.1061
 1213TIP3    H125274   5.550   2.882   1.832 -2.2452  0.0683 -1.0468
 1213TIP3    H225275   5.503   2.945   1.962 -3.0494 -0.2160 -1.1990
 1214TIP3   OH225276   3.242   5.543   7.583  0.3531  0.2878 -0.5170
 1214TIP3    H125277   3.158   5.518   7.545  0.5224  0.3733 -0.9449
 1214TIP3    H225278   3.240   5.638   7.585 -0.9619  0.3373  2.5693
 1215TIP3   OH225279   1.083   6.496   8.816 -0.1656  0.5914  0.4399
 1215TIP3    H125280   1.078   6.400   8.820  1.3614  0.4892  0.3508
 1215TIP3    H225281   1.057   6.517   8.726  1.3124  0.1030 -0.1217
 1216TIP3   OH225282   3.436   0.759   8.582 -0.2857  0.5210 -0.2457
 1216TIP3    H125283   3.474   0.847   8.574 -1.1655  0.9806  0.4085
 1216TIP3    H225284   3.495   0.703   8.532  0.8981  1.2954  0.2264
 1217TIP3   OH225285   4.552   5.938   2.261  0.6285 -0.3476 -0.2444
 1217TIP3    H125286   4.509   5.873   2.316 -1.8040  0.4707 -1.0568
 1217TIP3    H225287   4.606   5.989   2.321 -0.3937 -0.7253  1.0453
 1218TIP3   OH225288   0.223   6.373   0.360 -0.3182 -0.3989  0.1745
 1218TIP3    H125289   0.233   6.279   0.377 -2.5322 -0.8426 -0.6636
 1218TIP3    H225290   0.172   6.406   0.434  0.0677  0.0652  0.2401
 1219TIP3   OH225291   6.479   1.847   0.629 -0.1616  0.0759  0.3090
 1219TIP3    H125292   6.550   1.843   0.565  1.5217 -1.7149  2.1223
 1219TIP3    H225293   6.437   1.761   0.623 -1.0756  0.5035  0.4542
 1220TIP3   OH225294   5.368   4.446   8.014  0.0975  0.1935 -0.2690
 1220TIP3    H125295   5.316   4.368   7.995 -0.3611  0.3745  0.2222
 1220TIP3    H225296   5.449   4.413   8.053  1.3898 -0.2464 -3.0520
 1221TIP3   OH225297   2.904   4.752   1.449 -0.3450 -0.5245  0.8219
 1221TIP3    H125298   2.968   4.693   1.410 -0.1111  0.7925 -0.9226
 1221TIP3    H225299   2.946   4.782   1.530  1.6758  0.9190 -0.6496
 1222TIP3   OH225300   2.000   1.200   7.943  0.0151 -0.2481  0.8844
 1222TIP3    H125301   1.970   1.110   7.933 -0.4927 -0.0220  0.3377
 1222TIP3    H225302   1.952   1.249   7.877  1.5388  0.1508  0.0228
 1223TIP3   OH225303   0.089   4.694   8.530 -0.1453 -0.3074 -0.8363
 1223TIP3    H125304   0.092   4.790   8.540 -0.2218 -0.2748 -1.1165
 1223TIP3    H225305   0.011   4.667   8.579 -0.0289 -0.2437 -0.6166
 1224TIP3   OH225306   3.279   1.087   2.066  0.5052  0.2879  0.4736
 1224TIP3    H125307   3.324   1.092   2.151  2.5910 -2.8724 -0.2810
 1224TIP3    H225308   3.344   1.117   2.003 -0.2990  0.6374 -0.1950
 1225TIP3   OH225309   2.141   0.914   7.797 -0.2276  0.1825  0.6061
 1225TIP3    H125310   2.106   0.962   7.722 -0.2959  2.0228  1.7623
 1225TIP3    H225311   2.067   0.862   7.829 -0.6582  0.6454  0.3691
 1226TIP3   OH225312   0.519   3.539   0.143  0.7058  0.0437 -0.0515
 1226TIP3    H125313   0.463   3.481   0.091  2.1089 -0.3564 -1.1638
 1226TIP3    H225314   0.599   3.489   0.159  1.0314  0.8442  0.9458
 1227TIP3   OH225315   6.420   2.016   7.804  0.7192  0.2486 -0.1169
 1227TIP3    H125316   6.365   2.032   7.728  0.8613  1.5538  0.0252
 1227TIP3    H225317   6.370   2.053   7.877  1.6854  1.3023  0.0387
 1228TIP3   OH225318   1.311   5.627   8.450  0.4306 -0.9174  0.3192
 1228TIP3    H125319   1.324   5.542   8.493  1.1997  0.0789  2.1361
 1228TIP3    H225320   1.329   5.692   8.518 -0.0360  0.7251 -1.0592
 1229TIP3   OH225321   1.195   1.542   8.280 -0.7394 -0.0331  0.0943
 1229TIP3    H125322   1.261   1.568   8.345 -1.2352  1.4379  0.0465
 1229TIP3    H225323   1.146   1.472   8.323 -0.4944  0.3071  0.9640
 1230TIP3   OH225324   1.380   4.460   2.506 -0.1226 -0.2772  0.0036
 1230TIP3    H125325   1.315   4.389   2.497  0.3449 -0.7770  0.5343
 1230TIP3    H225326   1.375   4.485   2.598  0.4308 -0.3123  0.0432
 1231TIP3   OH225327   2.021   3.389   7.778  0.6606 -0.5303 -0.6942
 1231TIP3    H125328   2.073   3.346   7.846  0.1640 -1.4540 -0.8917
 1231TIP3    H225329   1.994   3.472   7.818  0.8730 -0.8008  0.0262
 1232TIP3   OH225330   2.188   0.963   6.990  0.1834  0.1351 -0.3010
 1232TIP3    H125331   2.106   0.989   6.948  0.9888 -2.7267 -4.2175
 1232TIP3    H225332   2.257   1.003   6.936  1.3550 -0.4113  0.7407
 1233TIP3   OH225333   4.284   2.651   0.436  0.2801 -0.1868  0.1392
 1233TIP3    H125334   4.352   2.690   0.380  0.3615 -1.6951 -0.8696
 1233TIP3    H225335   4.333   2.596   0.498  0.0174 -1.7523 -0.9675
 1234TIP3   OH225336   1.371   6.133   2.257  0.5284  0.4460 -0.1513
 1234TIP3    H125337   1.277   6.145   2.243  0.2731  0.6850  1.5210
 1234TIP3    H225338   1.412   6.207   2.214 -0.0415  0.2967 -0.9638
 1235TIP3   OH225339   4.702   2.559   0.237  0.4074 -0.1440 -0.3453
 1235TIP3    H125340   4.752   2.515   0.168 -0.2452 -0.7052 -0.4713
 1235TIP3    H225341   4.610   2.537   0.218  0.2252 -0.3967  0.7613
 1236TIP3   OH225342   0.356   6.752   7.482 -0.2088 -0.4481  0.2935
 1236TIP3    H125343   0.307   6.675   7.510 -4.0077  1.4961 -0.3131
 1236TIP3    H225344   0.377   6.735   7.390  0.7570 -1.5149  0.6914
 1237TIP3   OH225345   4.415   0.067   7.993 -0.4369 -0.1638  0.3692
 1237TIP3    H125346   4.450   0.052   7.905  2.2142  0.0865  1.2800
 1237TIP3    H225347   4.366  -0.012   8.014 -0.6103 -0.4679 -1.1067
 1238TIP3   OH225348   4.812   1.035   8.914  0.4981 -0.1437  0.3718
 1238TIP3    H125349   4.748   1.073   8.974 -0.7110 -1.1688 -0.2320
 1238TIP3    H225350   4.764   0.969   8.866  1.2823  1.0015 -2.1563
 1239TIP3   OH225351   3.355   4.276   1.013  0.2800 -0.4054 -0.2716
 1239TIP3    H125352   3.420   4.207   1.004  0.3440 -0.1170 -2.8506
 1239TIP3    H225353   3.327   4.271   1.105  1.4321 -2.7640  0.0342
 1240TIP3   OH225354   6.442   4.598   2.608 -0.3312  0.2550  0.1293
 1240TIP3    H125355   6.449   4.528   2.673  1.3286 -1.1108 -1.3918
 1240TIP3    H225356   6.408   4.673   2.656 -0.4422 -1.0672  2.2391
 1241TIP3   OH225357   0.910   5.279   8.428 -0.2415  0.3604 -0.2243
 1241TIP3    H125358   0.837   5.229   8.463  0.4399 -0.6962 -0.2699
 1241TIP3    H225359   0.912   5.360   8.480 -2.6937  1.3834 -1.5573
 1242TIP3   OH225360   4.721   4.179   8.120  0.4595 -0.2639  0.2808
 1242TIP3    H125361   4.805   4.212   8.089  0.3190  0.3361  0.5299
 1242TIP3    H225362   4.681   4.138   8.043  0.3844  0.6626 -0.1877
 1243TIP3   OH225363   5.647   3.595   0.473  0.4692 -0.2962  0.1949
 1243TIP3    H125364   5.638   3.552   0.558 -1.0076 -0.9197 -0.2505
 1243TIP3    H225365   5.560   3.587   0.433  0.8780  0.8434 -0.9700
 1244TIP3   OH225366   2.262   2.133   7.866 -0.3851  0.6686  0.3285
 1244TIP3    H125367   2.203   2.208   7.864  1.0703  1.8645 -0.5724
 1244TIP3    H225368   2.232   2.079   7.939 -0.9660  2.5641  1.5415
 1245TIP3   OH225369   6.330   3.285   1.374  0.7527 -0.4011  0.1371
 1245TIP3    H125370   6.250   3.325   1.340  1.8141  0.7558 -1.1295
 1245TIP3    H225371   6.299   3.217   1.434 -1.1764  1.9806  2.0985
 1246TIP3   OH225372   6.297   2.748   1.996 -0.0672 -0.2145  0.8211
 1246TIP3    H125373   6.337   2.662   1.981  1.3921  1.0302 -4.1964
 1246TIP3    H225374   6.369   2.802   2.029  0.1080  0.0158  0.0674
 1247TIP3   OH225375   1.980   5.281   1.598 -0.8317  0.2503  0.4000
 1247TIP3    H125376   1.888   5.279   1.572 -0.5081 -2.1535 -0.7625
 1247TIP3    H225377   2.027   5.243   1.525  0.9867  0.3350  1.4592
 1248TIP3   OH225378   4.829   1.077   1.724  0.6185 -0.2856 -0.4133
 1248TIP3    H125379   4.856   0.988   1.746  0.4263 -0.2570 -0.0410
 1248TIP3    H225380   4.908   1.129   1.735  0.3590 -0.1369  1.0624
 1249TIP3   OH225381   5.444   5.193   0.749 -0.4115  0.6232  0.2971
 1249TIP3    H125382   5.469   5.276   0.789 -0.6818  0.4869  0.7590
 1249TIP3    H225383   5.526   5.153   0.720 -0.2361  0.8152  0.5380
 1250TIP3   OH225384   5.928   5.248   2.446  0.2557  0.9683  1.1291
 1250TIP3    H125385   5.851   5.191   2.452  1.8928 -1.6432 -0.5939
 1250TIP3    H225386   5.906   5.323   2.501 -2.9747 -0.2408  1.7377
 1251TIP3   OH225387   2.345   0.850   8.727  0.0236 -0.1148  0.5721
 1251TIP3    H125388   2.256   0.884   8.735  0.1258  0.0425  1.0675
 1251TIP3    H225389   2.335   0.764   8.686 -0.4336 -0.4964  1.4669
 1252TIP3   OH225390   1.762   0.091   1.588  0.5327  0.0682 -0.3188
 1252TIP3    H125391   1.811   0.015   1.558  1.0101  0.6250 -0.9940
 1252TIP3    H225392   1.804   0.115   1.671  0.1345 -0.6160  0.0917
 1253TIP3   OH225393   0.855   2.191   1.844  0.4442  0.3768  0.3350
 1253TIP3    H125394   0.856   2.113   1.788 -1.6677  1.2095 -0.9773
 1253TIP3    H225395   0.946   2.202   1.872  1.3987 -0.6838 -2.0837
 1254TIP3   OH225396   0.333   4.662   7.046  0.3841  0.0549  0.0664
 1254TIP3    H125397   0.276   4.685   7.120  0.1625 -0.6322  0.1203
 1254TIP3    H225398   0.276   4.613   6.987  1.3097 -2.3108  0.9818
 1255TIP3   OH225399   2.858   1.413   1.310  0.0576 -0.2922  0.3563
 1255TIP3    H125400   2.909   1.489   1.338 -0.4770 -0.4861  1.9480
 1255TIP3    H225401   2.923   1.352   1.275  0.9345 -0.4605  2.1868
 1256TIP3   OH225402   1.723   3.955   2.390 -0.6560  0.3549 -0.1590
 1256TIP3    H125403   1.757   3.923   2.474 -1.1277  0.6671  0.1563
 1256TIP3    H225404   1.658   3.889   2.364 -0.4959  0.2482 -0.2922
 1257TIP3   OH225405   3.255   1.342   2.447  0.3924 -0.6565 -0.5690
 1257TIP3    H125406   3.166   1.333   2.483  1.1119 -1.5623  1.0973
 1257TIP3    H225407   3.247   1.412   2.382 -1.2295  0.4174  0.6754
 1258TIP3   OH225408   5.500   3.377   1.300 -0.0779 -0.1188  0.1137
 1258TIP3    H125409   5.437   3.431   1.348  0.6483  1.3583 -0.5326
 1258TIP3    H225410   5.511   3.299   1.355 -2.3036 -0.3451  0.3234
 1259TIP3   OH225411   0.429   4.885   1.948  0.4080 -0.1079  0.0416
 1259TIP3    H125412   0.521   4.904   1.966  0.6662 -1.3483  0.1201
 1259TIP3    H225413   0.387   4.886   2.033  0.5434 -0.4623  0.1165
 1260TIP3   OH225414   1.774   0.855   1.123  0.5031 -0.4298 -0.3707
 1260TIP3    H125415   1.682   0.831   1.114  0.2889 -0.2921  1.1893
 1260TIP3    H225416   1.815   0.778   1.162  0.6442  0.1931  0.7472
 1261TIP3   OH225417   5.078   3.267   7.320  0.5796  0.2987  0.1379
 1261TIP3    H125418   5.079   3.246   7.227  0.1712 -0.3432  0.2681
 1261TIP3    H225419   5.034   3.352   7.326  0.4512  0.2595 -0.2441
 1262TIP3   OH225420   0.737   0.826   8.174 -0.5642  0.4638  0.3137
 1262TIP3    H125421   0.760   0.911   8.135  0.3683  0.5025  0.9107
 1262TIP3    H225422   0.643   0.816   8.156 -0.5333  1.2949 -0.3760
 1263TIP3   OH225423   0.904   1.996   8.472  0.2205 -0.0416 -0.0626
 1263TIP3    H125424   0.836   1.933   8.449 -1.1121  1.2344  0.2343
 1263TIP3    H225425   0.922   2.043   8.390  0.3755 -0.0464 -0.0306
 1264TIP3   OH225426   6.490   5.016   7.751  0.2634  0.2116  0.1948
 1264TIP3    H125427   6.428   4.969   7.807 -1.6515  1.7088 -0.5338
 1264TIP3    H225428   6.533   4.947   7.700 -2.2613 -0.8391 -0.6698
 1265TIP3   OH225429   6.770   5.350   7.956 -0.4318 -0.2913 -0.2058
 1265TIP3    H125430   6.731   5.296   8.025  1.8249 -1.6068  0.1287
 1265TIP3    H225431   6.734   5.315   7.875 -0.0463 -1.4577  0.0965
 1266TIP3   OH225432   1.858   1.680   7.631 -0.0208  0.4903  0.6436
 1266TIP3    H125433   1.777   1.633   7.652 -0.9932  1.1072 -1.3488
 1266TIP3    H225434   1.828   1.768   7.607  1.2424  0.7549 -0.0582
 1267TIP3   OH225435   6.608   6.421   0.515  0.1467  0.1232 -0.4762
 1267TIP3    H125436   6.529   6.429   0.460 -0.9985  0.6451  1.1517
 1267TIP3    H225437   6.605   6.331   0.547 -0.7774  0.6160  0.9277
 1268TIP3   OH225438   3.603   2.225   2.841  1.0100 -0.2180 -0.1002
 1268TIP3    H125439   3.518   2.182   2.842  0.8592  0.0813  0.0321
 1268TIP3    H225440   3.652   2.179   2.773  0.2916  0.4781 -1.1196
 1269TIP3   OH225441   1.429   3.073   0.674 -0.3031 -0.0604 -0.5698
 1269TIP3    H125442   1.461   3.051   0.762 -2.1503  0.3015  0.2570
 1269TIP3    H225443   1.387   3.158   0.685  0.0113  0.2866 -1.9688
 1270TIP3   OH225444   3.656   3.855   1.074 -0.2700  0.2744 -0.0450
 1270TIP3    H125445   3.740   3.834   1.034 -0.6353  0.7191 -1.1092
 1270TIP3    H225446   3.671   3.848   1.168  0.6504 -0.7448 -0.2479
 1271TIP3   OH225447   0.491   0.836   0.246 -0.0315  0.1478 -0.0244
 1271TIP3    H125448   0.500   0.906   0.311  1.8443  0.5507 -0.6380
 1271TIP3    H225449   0.554   0.770   0.274  0.2780  0.0061 -1.0215
 1272TIP3   OH225450   4.924   2.753   8.789  0.0943  0.0566 -0.2210
 1272TIP3    H125451   5.006   2.753   8.838  0.3151 -2.9995 -0.3861
 1272TIP3    H225452   4.950   2.738   8.698 -0.5880  0.3484 -0.4724
 1273TIP3   OH225453   6.224   3.952   7.049  0.4684  0.1065  0.0770
 1273TIP3    H125454   6.256   3.982   7.134 -0.0742  0.2355  0.2389
 1273TIP3    H225455   6.137   3.991   7.041  1.1035  1.3816 -1.2144
 1274TIP3   OH225456   1.817   5.519   8.197 -0.6533 -0.0592  1.1051
 1274TIP3    H125457   1.896   5.569   8.174  0.8593 -1.9749  1.8462
 1274TIP3    H225458   1.769   5.511   8.115  0.8800 -0.4169  0.1922
 1275TIP3   OH225459   1.602   5.245   2.118  0.3653 -0.2663 -0.1405
 1275TIP3    H125460   1.600   5.269   2.210  2.3835  0.0417 -0.1342
 1275TIP3    H225461   1.661   5.309   2.078  1.4526 -1.8643 -1.1823
 1276TIP3   OH225462   4.516   3.501   3.175 -0.1604 -0.1861 -0.0308
 1276TIP3    H125463   4.425   3.503   3.206 -0.4101  2.5809 -0.6725
 1276TIP3    H225464   4.530   3.410   3.148 -3.0422 -0.5087 -0.7964
 1277TIP3   OH225465   1.662   2.396   1.041 -0.2038 -0.4706 -0.3835
 1277TIP3    H125466   1.653   2.410   0.947 -1.5386  1.6243 -0.0051
 1277TIP3    H225467   1.578   2.426   1.078  0.4509 -0.8336  1.5147
 1278TIP3   OH225468   4.564   5.492   0.070 -0.4249  0.0810 -0.0722
 1278TIP3    H125469   4.502   5.565   0.073 -0.2109  0.2817 -0.3867
 1278TIP3    H225470   4.533   5.437  -0.002  0.5661  0.9396 -1.2129
 1279TIP3   OH225471   1.586   1.867   2.332 -0.3001  0.1279  0.0836
 1279TIP3    H125472   1.527   1.799   2.301  0.3530 -1.1458  1.5315
 1279TIP3    H225473   1.663   1.821   2.364 -0.0034  1.4906  1.4942
 1280TIP3   OH225474   4.508   4.960   8.108 -0.0270  0.6345 -0.2634
 1280TIP3    H125475   4.449   4.980   8.036  0.1034  0.6854 -0.3566
 1280TIP3    H225476   4.450   4.950   8.184 -0.4097 -1.6998 -0.7932
 1281TIP3   OH225477   4.626   0.405   8.774  0.0329  0.6328 -0.4585
 1281TIP3    H125478   4.683   0.333   8.748 -1.5875  0.1758 -3.0776
 1281TIP3    H225479   4.620   0.461   8.697 -0.5629  2.3889  0.7792
 1282TIP3   OH225480   3.876   3.238   0.006  0.3949 -0.1145 -0.8751
 1282TIP3    H125481   3.914   3.326  -0.002  1.6251 -0.6260 -0.9434
 1282TIP3    H225482   3.851   3.231   0.098  1.0262  0.0399 -0.6822
 1283TIP3   OH225483   6.166   0.790   8.391 -0.4521 -0.2287 -0.1685
 1283TIP3    H125484   6.257   0.797   8.419 -0.3291  1.7810 -0.8744
 1283TIP3    H225485   6.157   0.856   8.322 -2.1118 -1.3007 -1.0470
 1284TIP3   OH225486   3.792   4.942   1.448  0.4268  0.0744  0.3835
 1284TIP3    H125487   3.840   4.859   1.441 -0.7904 -0.6855  0.7625
 1284TIP3    H225488   3.763   4.945   1.539 -0.1969  0.5381  0.1737
 1285TIP3   OH225489   1.837   3.942   7.322 -0.2099  0.0804 -0.5833
 1285TIP3    H125490   1.872   3.985   7.244  2.0953  0.0055  0.3081
 1285TIP3    H225491   1.857   4.002   7.394  0.8406 -1.3225  0.3604
 1286TIP3   OH225492   3.209   4.874   0.322 -0.0687  0.4982 -0.6816
 1286TIP3    H125493   3.234   4.899   0.233  1.0343  1.9424  0.0037
 1286TIP3    H225494   3.269   4.922   0.378 -1.5104  0.5504  0.8924
 1287TIP3   OH225495   2.701   0.365   0.400 -0.2517 -0.0796 -0.2234
 1287TIP3    H125496   2.697   0.331   0.490  1.3777 -1.1797 -0.5038
 1287TIP3    H225497   2.672   0.291   0.346  2.7179 -0.9818 -0.8050
 1288TIP3   OH225498   0.841   5.866   8.043  0.3714  0.1123  0.5069
 1288TIP3    H125499   0.776   5.921   8.087 -0.8666 -0.6536 -0.3279
 1288TIP3    H225500   0.891   5.826   8.115 -0.6456  0.0394  1.1859
 1289TIP3   OH225501   6.003   1.593   8.732  0.4047 -0.1227  0.7484
 1289TIP3    H125502   6.063   1.668   8.739  0.5200 -0.2870  1.5198
 1289TIP3    H225503   5.916   1.632   8.740  0.4643 -0.0723  1.1581
 1290TIP3   OH225504   4.777   3.319   8.360 -0.1412 -0.0256 -0.6912
 1290TIP3    H125505   4.686   3.291   8.371  0.2493 -1.3505 -0.6272
 1290TIP3    H225506   4.821   3.286   8.439  0.4134  0.5227 -0.7663
 1291TIP3   OH225507   3.647   1.775   8.716  0.2395 -0.2542 -0.0039
 1291TIP3    H125508   3.722   1.765   8.658  0.3301 -0.1563  0.0981
 1291TIP3    H225509   3.608   1.858   8.691  0.3479 -0.1547  0.1568
 1292TIP3   OH225510   1.869   4.963   0.831  0.3873 -0.1581 -0.2068
 1292TIP3    H125511   1.946   4.908   0.849  0.9842  0.9713  0.8224
 1292TIP3    H225512   1.808   4.943   0.901  0.1136 -0.3563 -0.4962
 1293TIP3   OH225513   5.711   4.598   7.999 -0.2157 -0.5139 -0.2106
 1293TIP3    H125514   5.659   4.631   8.072  0.5122  1.0679 -0.3591
 1293TIP3    H225515   5.745   4.514   8.030  1.7209  1.0058  2.1253
 1294TIP3   OH225516   4.897   5.303   2.548 -0.8708  0.1343 -0.1360
 1294TIP3    H125517   4.801   5.307   2.550 -0.8984 -0.3925 -0.4112
 1294TIP3    H225518   4.918   5.210   2.547 -0.3107  0.2027  1.6441
 1295TIP3   OH225519   0.309   3.711   1.897 -0.3544  0.1381  0.0214
 1295TIP3    H125520   0.285   3.620   1.880 -0.9736  0.0989  0.9975
 1295TIP3    H225521   0.351   3.709   1.983  1.9919  0.4267 -1.0315
 1296TIP3   OH225522   6.544   2.399   0.198  0.5246 -0.2867 -0.1390
 1296TIP3    H125523   6.632   2.364   0.185  0.7544  0.1434  0.2270
 1296TIP3    H225524   6.502   2.336   0.257  0.8168 -0.1398  0.2311
 1297TIP3   OH225525   2.999   2.107   7.189 -0.5023  0.2241 -0.2264
 1297TIP3    H125526   3.028   2.056   7.113  1.1508  0.3972  0.2431
 1297TIP3    H225527   3.063   2.086   7.257 -2.7360 -1.0495  1.6311
 1298TIP3   OH225528   5.816   5.730   8.526  0.6244 -0.3369  0.1531
 1298TIP3    H125529   5.883   5.735   8.458 -0.2425 -0.2091 -0.7215
 1298TIP3    H225530   5.751   5.670   8.491 -0.7385  1.1441  0.0296
 1299TIP3   OH225531   4.348   5.103   8.892 -0.5678  0.2336  0.4353
 1299TIP3    H125532   4.376   5.144   8.810 -0.7124 -0.4676  0.0272
 1299TIP3    H225533   4.416   5.039   8.911 -0.7749  0.0633  0.6123
 1300TIP3   OH225534   0.651   1.477   2.018 -0.6197 -0.2427  0.3983
 1300TIP3    H125535   0.568   1.479   2.067 -1.2631 -0.6084 -0.6497
 1300TIP3    H225536   0.626   1.499   1.928  0.4983  0.1043  0.1620
 1301TIP3   OH225537   0.942   5.012   2.355  0.1219  0.6012 -0.1239
 1301TIP3    H125538   0.848   4.995   2.365  0.1129  0.4170 -0.5028
 1301TIP3    H225539   0.961   4.990   2.264  0.6120  0.2616  0.0537
 1302TIP3   OH225540   0.113   1.761   8.587  0.4445 -0.3054 -0.1399
 1302TIP3    H125541   0.188   1.820   8.579  0.5871 -0.5865 -1.0160
 1302TIP3    H225542   0.105   1.721   8.500 -1.9171  1.1308 -0.6721
 1303TIP3   OH225543   1.247   2.850   7.707 -0.4290  0.5148  0.0553
 1303TIP3    H125544   1.265   2.867   7.615 -0.3731 -0.0049 -0.0298
 1303TIP3    H225545   1.294   2.769   7.727 -0.5062  0.5802  0.5178
 1304TIP3   OH225546   3.432   1.806   0.611 -0.0134  0.5839 -0.4190
 1304TIP3    H125547   3.336   1.810   0.609 -0.2367  1.0427  3.4459
 1304TIP3    H225548   3.452   1.714   0.592 -1.2523  0.4087 -0.9523
 1305TIP3   OH225549   5.675   0.220   1.804 -0.0173  0.1959  0.3760
 1305TIP3    H125550   5.744   0.155   1.793 -0.2421  0.1442 -0.7556
 1305TIP3    H225551   5.597   0.169   1.827  0.0940  0.1796  0.7297
 1306TIP3   OH225552   2.376   0.106   0.069 -0.3414  0.4222  0.4753
 1306TIP3    H125553   2.360   0.030   0.124 -0.3465  0.1568  0.1069
 1306TIP3    H225554   2.289   0.141   0.051 -0.3018  1.0425  1.3684
 1307TIP3   OH225555   3.023   3.555   1.378  0.1263 -0.5188  0.3983
 1307TIP3    H125556   2.977   3.549   1.294  0.3141 -0.4743  0.2925
 1307TIP3    H225557   3.003   3.644   1.409 -0.2149 -0.6498  0.5587
 1308TIP3   OH225558   1.842   0.195   2.170 -0.0437 -0.0301 -0.7608
 1308TIP3    H125559   1.777   0.171   2.236  0.9822 -0.8876 -0.0223
 1308TIP3    H225560   1.843   0.290   2.171  1.3801  0.0229  1.9797
 1309TIP3   OH225561   0.667   3.474   0.830  0.0373 -0.1574  0.0249
 1309TIP3    H125562   0.711   3.557   0.813 -1.4609  0.5873 -0.3690
 1309TIP3    H225563   0.665   3.430   0.745 -0.6295  0.1431 -0.1184
 1310TIP3   OH225564   3.217   2.078   8.141 -0.1855 -0.9196  0.4058
 1310TIP3    H125565   3.229   2.171   8.122  0.5004 -1.0786  0.0033
 1310TIP3    H225566   3.131   2.057   8.104 -0.6272 -0.3103  1.0562
 1311TIP3   OH225567   0.827   4.942   0.244  0.6049 -0.6142 -0.1411
 1311TIP3    H125568   0.913   4.936   0.287  0.1000 -0.8971  0.8565
 1311TIP3    H225569   0.769   4.889   0.299 -0.7051  1.3863  0.5128
 1312TIP3   OH225570   5.344   1.417   8.517 -0.1477  0.0606  0.1737
 1312TIP3    H125571   5.385   1.341   8.477 -3.9040 -2.9087  1.3888
 1312TIP3    H225572   5.365   1.410   8.610 -1.5713 -0.3455  0.4930
 1313TIP3   OH225573   6.483   3.047   7.623 -0.4002 -0.6895 -0.7102
 1313TIP3    H125574   6.494   3.114   7.556 -1.9002 -0.8654 -1.1796
 1313TIP3    H225575   6.436   2.976   7.579 -0.7720 -1.1150  0.3279
 1314TIP3   OH225576   0.808   6.155   0.855  0.1232 -0.2494 -0.3371
 1314TIP3    H125577   0.804   6.244   0.890  0.1169 -0.5319  0.3773
 1314TIP3    H225578   0.783   6.099   0.928 -1.3748 -0.7521 -1.1835
 1315TIP3   OH225579   4.242   3.946   2.291 -0.2757  0.1018 -0.0543
 1315TIP3    H125580   4.204   3.940   2.378 -1.5486  0.7463 -0.5323
 1315TIP3    H225581   4.327   3.989   2.303  2.2769 -4.7077  1.5539
 1316TIP3   OH225582   5.260   4.413   1.939  0.2332  0.0444 -0.7064
 1316TIP3    H125583   5.274   4.320   1.918 -0.4914  0.0978 -1.4911
 1316TIP3    H225584   5.331   4.435   1.999  2.3802 -0.1701 -3.0141
 1317TIP3   OH225585   3.449   1.192   1.582 -0.0383  0.2271  0.1812
 1317TIP3    H125586   3.409   1.149   1.657 -0.7667  0.2960 -0.1591
 1317TIP3    H225587   3.497   1.123   1.537 -1.3698 -0.3076 -0.4832
 1318TIP3   OH225588   5.173   2.495   2.315 -0.6304 -0.4095 -0.6668
 1318TIP3    H125589   5.227   2.418   2.335 -1.9325 -1.0726  0.5269
 1318TIP3    H225590   5.106   2.462   2.255 -2.3121 -0.7305  1.2793
 1319TIP3   OH225591   4.807   0.109   2.001  0.0008 -0.3760 -0.0484
 1319TIP3    H125592   4.799   0.204   1.996  1.1287 -0.2863 -0.4209
 1319TIP3    H225593   4.886   0.089   1.950 -1.4043 -1.7137 -1.8131
 1320TIP3   OH225594   0.466   3.298   1.207  0.0940  0.3758  0.4121
 1320TIP3    H125595   0.423   3.382   1.194 -1.0020 -0.0490  1.1990
 1320TIP3    H225596   0.497   3.300   1.298 -0.1626 -0.1670  0.5152
 1321TIP3   OH225597   2.238   3.759   0.853  0.4200 -0.1320 -0.0278
 1321TIP3    H125598   2.306   3.750   0.786  0.7151 -1.0612  0.3715
 1321TIP3    H225599   2.169   3.700   0.824  0.8615 -1.1121  0.8374
 1322TIP3   OH225600   2.986   1.692   1.417 -0.2059  0.3493  0.0165
 1322TIP3    H125601   2.902   1.715   1.456  0.7004  1.5469  1.4122
 1322TIP3    H225602   2.990   1.744   1.337 -2.2795 -2.4687 -2.1093
 1323TIP3   OH225603   0.120   1.408   3.092  0.4935  0.3121 -0.5861
 1323TIP3    H125604   0.085   1.331   3.049  3.0075 -1.1079 -0.2924
 1323TIP3    H225605   0.191   1.375   3.147  0.0945  2.5571  1.4813
 1324TIP3   OH225606   0.316   6.572   1.635 -0.1837  0.1254  0.0634
 1324TIP3    H125607   0.362   6.625   1.569 -0.3020 -1.1815 -1.1362
 1324TIP3    H225608   0.293   6.634   1.704  2.9089  0.9893  0.5080
 1325TIP3   OH225609   4.471   5.136   8.652 -0.3738  0.0391  0.7036
 1325TIP3    H125610   4.507   5.094   8.574 -0.2332 -1.8224  1.7078
 1325TIP3    H225611   4.529   5.210   8.669  1.1378 -1.0358  0.4603
 1326TIP3   OH225612   2.761   6.215   8.345  0.7471  0.1319 -0.1586
 1326TIP3    H125613   2.749   6.206   8.440 -0.5201 -0.9087 -0.3839
 1326TIP3    H225614   2.839   6.163   8.327  0.8716  0.1541  0.2895
 1327TIP3   OH225615   6.320   5.732   1.399 -0.4985 -0.3625  0.4597
 1327TIP3    H125616   6.313   5.696   1.487 -0.1445 -0.6909  0.3565
 1327TIP3    H225617   6.300   5.825   1.409  1.1081 -0.0614  1.1509
 1328TIP3   OH225618   2.024   0.169   2.718  0.3175 -0.1236 -0.1576
 1328TIP3    H125619   2.111   0.144   2.686  0.3620 -1.5347  0.9359
 1328TIP3    H225620   1.982   0.210   2.643  1.1989 -1.2838 -1.3404
 1329TIP3   OH225621   1.584   0.548   7.882  0.7125  0.7891 -0.3957
 1329TIP3    H125622   1.489   0.544   7.892  0.6636 -1.1601 -1.2676
 1329TIP3    H225623   1.598   0.611   7.812  0.0780  1.1036 -0.2490
 1330TIP3   OH225624   1.016   1.307   8.702 -0.4550 -0.8602  0.1163
 1330TIP3    H125625   1.001   1.235   8.641 -0.8165 -1.2441  0.6432
 1330TIP3    H225626   0.993   1.385   8.653  1.0376 -0.9889 -0.8379
 1331TIP3   OH225627   0.630   3.969   8.395 -0.2571  0.2949 -0.5178
 1331TIP3    H125628   0.627   4.064   8.403 -1.4681  0.1733  0.9537
 1331TIP3    H225629   0.547   3.945   8.354 -0.5008 -0.1869  0.2209
 1332TIP3   OH225630   0.816   6.395   0.985 -0.0677 -0.3488  0.4231
 1332TIP3    H125631   0.887   6.353   1.033 -0.5028 -1.2347  0.3143
 1332TIP3    H225632   0.784   6.463   1.043  1.8318  1.0648 -0.1138
 1333TIP3   OH225633   6.238   3.440   2.242 -0.7176  0.1341 -0.3666
 1333TIP3    H125634   6.266   3.357   2.204  0.2442  0.4538 -0.3834
 1333TIP3    H225635   6.230   3.422   2.336  2.0261  0.5973  0.0683
 1334TIP3   OH225636   1.676   5.111   0.155 -0.3989 -0.7244  0.4616
 1334TIP3    H125637   1.768   5.098   0.134 -0.1305  1.5059  0.0195
 1334TIP3    H225638   1.662   5.205   0.145 -2.6492 -0.9598  0.8542
 1335TIP3   OH225639   2.350   4.049   1.744 -0.5385  0.3874  0.6974
 1335TIP3    H125640   2.426   4.092   1.705 -0.7976 -0.9570 -1.4863
 1335TIP3    H225641   2.284   4.118   1.751 -0.8780  0.5558 -2.5249
 1336TIP3   OH225642   5.655   4.932   2.336  0.2679 -0.1935  0.7270
 1336TIP3    H125643   5.717   4.967   2.400 -0.8475  0.7522  1.3425
 1336TIP3    H225644   5.600   5.007   2.314  1.1434 -0.2706 -2.0124
 1337TIP3   OH225645   3.872   0.687   7.108  0.0124 -0.5668  0.2179
 1337TIP3    H125646   3.907   0.718   7.191 -1.1418  0.9516  0.1916
 1337TIP3    H225647   3.924   0.732   7.042 -0.6184  0.1017  0.1629
 1338TIP3   OH225648   4.987   4.289   0.263 -0.0757  0.3093  0.3781
 1338TIP3    H125649   4.991   4.307   0.169 -0.7143  1.1869  0.5028
 1338TIP3    H225650   4.922   4.219   0.271 -0.3384  0.5312  0.1999
 1339TIP3   OH225651   6.068   2.534   8.107  0.1614  0.8250  0.1208
 1339TIP3    H125652   6.142   2.558   8.051  0.0414  0.4795 -0.1836
 1339TIP3    H225653   6.059   2.440   8.097  0.7132  0.6112  1.4192
 1340TIP3   OH225654   1.437   1.190   1.432 -0.0031 -0.1520  0.0665
 1340TIP3    H125655   1.424   1.190   1.337 -0.7205 -0.6666  0.1547
 1340TIP3    H225656   1.522   1.148   1.445 -0.3515 -0.9979 -0.3061
 1341TIP3   OH225657   1.030   2.300   7.756 -0.5978  0.4412  1.1693
 1341TIP3    H125658   1.016   2.299   7.851  0.2892 -2.5472  1.3666
 1341TIP3    H225659   0.951   2.260   7.720  0.9748 -2.9678  1.1481
 1342TIP3   OH225660   5.787   5.606   1.622 -0.5182  0.4363 -0.1693
 1342TIP3    H125661   5.829   5.523   1.646  1.4615  1.6440  0.7220
 1342TIP3    H225662   5.710   5.579   1.571  0.6438 -1.9131 -0.8258
 1343TIP3   OH225663   2.208   3.832   8.733 -0.2357 -0.2257 -0.0697
 1343TIP3    H125664   2.284   3.773   8.727 -0.9613 -1.2363  0.5239
 1343TIP3    H225665   2.189   3.837   8.827  0.5810  1.9721  0.0165
 1344TIP3   OH225666   0.204   5.299   8.111  0.7249  0.8390  0.1228
 1344TIP3    H125667   0.124   5.324   8.064  0.5999  0.0451 -0.1088
 1344TIP3    H225668   0.208   5.358   8.186 -1.6698 -0.9588  1.8108
 1345TIP3   OH225669   2.362   1.803   7.780 -0.5376  0.0951 -0.5560
 1345TIP3    H125670   2.447   1.845   7.797 -1.4425  1.0621  2.0478
 1345TIP3    H225671   2.345   1.750   7.857 -0.7056 -3.0955 -2.6234
 1346TIP3   OH225672   4.200   0.162   7.529 -0.0226  0.0850  0.8891
 1346TIP3    H125673   4.200   0.091   7.465 -0.6443 -2.6962  3.7576
 1346TIP3    H225674   4.120   0.212   7.509 -0.8506 -1.4340  0.2296
 1347TIP3   OH225675   3.899   5.138   1.166  0.0415 -0.3282  0.0883
 1347TIP3    H125676   3.920   5.202   1.098  0.8276 -0.8969 -0.2261
 1347TIP3    H225677   3.865   5.062   1.118 -1.2224 -0.0243  0.4855
 1348TIP3   OH225678   4.045   5.312   1.652  0.0062 -0.2513 -0.5292
 1348TIP3    H125679   4.051   5.258   1.574 -0.1521 -0.3982 -0.4411
 1348TIP3    H225680   4.098   5.266   1.717  0.1389 -0.1290 -0.5509
 1349TIP3   OH225681   6.121   4.965   8.102 -0.6097 -0.5232 -0.0668
 1349TIP3    H125682   6.080   4.980   8.187 -0.4970  0.0441 -0.1070
 1349TIP3    H225683   6.047   4.945   8.044 -1.2077  2.7965 -0.6704
 1350TIP3   OH225684   3.326   3.162   1.583  0.0907 -0.0400 -0.0141
 1350TIP3    H125685   3.264   3.229   1.553 -0.2671 -0.7965 -1.0237
 1350TIP3    H225686   3.279   3.079   1.573 -0.6155 -0.3328  4.0594
 1351TIP3   OH225687   1.478   6.057   8.333 -0.5873 -0.6435  0.2385
 1351TIP3    H125688   1.494   6.070   8.427  1.6380  1.6446 -0.3361
 1351TIP3    H225689   1.498   5.965   8.317 -1.4179 -1.1788  2.0422
 1352TIP3   OH225690   3.925   4.186   7.477  0.1834  0.3436 -0.2784
 1352TIP3    H125691   3.856   4.127   7.448 -2.0411  1.5529  2.1066
 1352TIP3    H225692   3.916   4.264   7.423 -2.2775  1.5928  1.7429
 1353TIP3   OH225693   5.694   5.053   7.920  0.5200  0.4953  0.2165
 1353TIP3    H125694   5.714   5.126   7.979 -1.6404  1.0516  0.3355
 1353TIP3    H225695   5.599   5.044   7.923  0.4166 -0.1713 -2.3669
 1354TIP3   OH225696   5.762   0.319   1.379  0.5464 -0.3017 -0.0181
 1354TIP3    H125697   5.733   0.404   1.412 -0.8044 -0.9353  0.4963
 1354TIP3    H225698   5.780   0.334   1.286 -0.1443  0.4420 -0.0462
 1355TIP3   OH225699   4.787   2.904   0.309 -0.0121 -0.2852  0.6059
 1355TIP3    H125700   4.764   2.975   0.248 -0.6715 -0.8388  0.1959
 1355TIP3    H225701   4.871   2.871   0.276 -0.5347 -0.8188 -0.2425
 1356TIP3   OH225702   4.235   2.846   1.552 -0.1830  0.0203  0.0198
 1356TIP3    H125703   4.226   2.817   1.461 -0.9652 -0.0598  0.1176
 1356TIP3    H225704   4.223   2.941   1.549 -1.4452 -0.1206  0.1890
 1357TIP3   OH225705   5.527   5.397   0.575  0.3325  0.3164  0.4755
 1357TIP3    H125706   5.480   5.323   0.613 -0.9912  1.4681  1.1733
 1357TIP3    H225707   5.531   5.378   0.482  0.5443 -0.9120  0.7259
 1358TIP3   OH225708   2.638   2.922   6.962 -1.0834  0.4653 -0.4658
 1358TIP3    H125709   2.638   3.016   6.947 -2.6419  0.6216  0.3884
 1358TIP3    H225710   2.585   2.886   6.891 -0.7365  0.2531 -0.6222
 1359TIP3   OH225711   3.201   6.283   8.557  0.4745  0.2022  0.1999
 1359TIP3    H125712   3.130   6.225   8.531  1.1277 -1.7408  2.4502
 1359TIP3    H225713   3.195   6.356   8.496 -1.9507 -1.0152 -1.1762
 1360TIP3   OH225714   0.802   5.403   7.678 -0.4732 -0.2196 -0.5685
 1360TIP3    H125715   0.825   5.374   7.767 -0.2711  1.4001 -0.0583
 1360TIP3    H225716   0.834   5.494   7.674 -0.0213 -0.4408 -2.4912
 1361TIP3   OH225717   6.280   3.895   8.733 -0.4445  0.3296 -0.7818
 1361TIP3    H125718   6.370   3.911   8.763 -1.0476 -1.0166  2.0454
 1361TIP3    H225719   6.281   3.804   8.704 -1.2898 -0.4122  1.3054
 1362TIP3   OH225720   4.391   1.365   1.394 -0.3115  0.1400  0.4878
 1362TIP3    H125721   4.319   1.369   1.331 -1.6638  0.3012  1.9928
 1362TIP3    H225722   4.465   1.333   1.343 -1.4500 -0.0897 -1.0975
 1363TIP3   OH225723   1.785   0.005   7.593  0.0105 -0.1353  0.3182
 1363TIP3    H125724   1.874   0.019   7.626  0.8357 -2.8563 -0.4660
 1363TIP3    H225725   1.798  -0.029   7.504 -1.9467  1.6385 -0.7508
 1364TIP3   OH225726   4.998   6.541   2.615  0.0537 -0.1712  0.6427
 1364TIP3    H125727   5.090   6.515   2.607  0.2437  0.2218  1.5146
 1364TIP3    H225728   4.956   6.468   2.661 -0.1258 -0.4538  0.0411
 1365TIP3   OH225729   0.097   2.191   1.115  0.2796  0.0035 -0.7370
 1365TIP3    H125730   0.058   2.265   1.068 -0.0113 -0.1089 -0.6735
 1365TIP3    H225731   0.188   2.217   1.128  0.3734  0.0189 -1.3941
 1366TIP3   OH225732   2.960   1.425   1.928 -0.2475 -0.3267  0.1887
 1366TIP3    H125733   2.944   1.344   1.977  2.9072 -0.0842  1.8125
 1366TIP3    H225734   3.047   1.414   1.891 -1.0885  1.0234 -2.4512
 1367TIP3   OH225735   2.580   2.902   1.477  0.1901  0.0147 -0.2509
 1367TIP3    H125736   2.615   2.821   1.440 -1.0413 -0.5595 -0.1878
 1367TIP3    H225737   2.654   2.962   1.476  0.4035 -0.1905 -2.9952
 1368TIP3   OH225738   0.421   5.773   1.500 -0.0571  0.2386 -0.1667
 1368TIP3    H125739   0.450   5.863   1.515  0.6698  0.0675 -0.5059
 1368TIP3    H225740   0.327   5.775   1.516 -0.0243  1.0356 -0.0532
 1369TIP3   OH225741   3.705   2.367   7.534  0.4244 -0.1589  0.4082
 1369TIP3    H125742   3.772   2.427   7.504 -1.6328  1.7757 -0.6523
 1369TIP3    H225743   3.644   2.360   7.461 -0.6772 -1.5914  1.3974
 1370TIP3   OH225744   4.362   5.140   2.447 -0.5769  0.3198 -0.4094
 1370TIP3    H125745   4.435   5.189   2.483  0.2559 -0.6824 -0.6870
 1370TIP3    H225746   4.397   5.099   2.368 -0.6374 -2.3050  0.8337
 1371TIP3   OH225747   6.636   2.105   0.046  0.2872 -0.4201  0.4872
 1371TIP3    H125748   6.549   2.107   0.086  0.7407 -0.8947  1.5406
 1371TIP3    H225749   6.680   2.183   0.080 -0.2901  0.8434 -1.4661
 1372TIP3   OH225750   0.791   4.547   0.360  0.2868 -0.0808  0.0255
 1372TIP3    H125751   0.769   4.480   0.295 -1.0061  0.0245  0.3431
 1372TIP3    H225752   0.731   4.619   0.342  1.4470  0.8882 -0.1054
 1373TIP3   OH225753   2.649   2.368   7.812  0.6231  0.1311 -0.2545
 1373TIP3    H125754   2.640   2.310   7.887  1.7742 -1.1134 -1.0442
 1373TIP3    H225755   2.622   2.454   7.845  0.1270 -0.5828  1.2864
 1374TIP3   OH225756   2.959   5.810   1.109 -0.0211  0.0417 -0.4785
 1374TIP3    H125757   2.938   5.899   1.138 -1.2773  0.0859 -1.4471
 1374TIP3    H225758   2.973   5.818   1.014 -1.0445 -0.9243 -0.7323
 1375TIP3   OH225759   0.731   2.294   8.581  0.0355  0.2846  0.6390
 1375TIP3    H125760   0.640   2.305   8.608 -0.0939  1.4585 -0.2253
 1375TIP3    H225761   0.736   2.332   8.493  1.3588  0.2517  0.6701
 1376TIP3   OH225762   5.398   4.286   3.070  0.2774 -0.4294 -0.5710
 1376TIP3    H125763   5.417   4.353   3.136  1.7335 -2.8027  1.6196
 1376TIP3    H225764   5.478   4.281   3.017  0.6324 -1.1778  0.0147
 1377TIP3   OH225765   5.011   6.099   6.764  0.2548  0.0636  0.5290
 1377TIP3    H125766   4.952   6.168   6.793  0.0544 -0.1753  0.6945
 1377TIP3    H225767   4.953   6.037   6.718  0.3310 -0.3172  0.9466
 1378TIP3   OH225768   1.573   0.498   6.609  0.3287 -0.3410  0.1967
 1378TIP3    H125769   1.628   0.460   6.676  0.9846 -0.4903 -0.4125
 1378TIP3    H225770   1.536   0.423   6.562  0.8278 -0.2385 -0.3677
 1379TIP3   OH225771   2.599   5.390   1.343 -0.0375 -0.4041 -0.3208
 1379TIP3    H125772   2.589   5.295   1.346  0.6580 -0.4498  1.1835
 1379TIP3    H225773   2.548   5.416   1.266  0.1692 -2.0308 -1.0676
 1380TIP3   OH225774   0.446   0.935   1.673 -0.2435 -0.4993  0.1826
 1380TIP3    H125775   0.498   0.919   1.752 -1.1876  0.4021  1.0065
 1380TIP3    H225776   0.362   0.969   1.705  0.4170  2.9296 -1.2508
 1381TIP3   OH225777   2.420   5.167   0.680 -0.1241 -0.0708  0.0323
 1381TIP3    H125778   2.509   5.177   0.715 -0.3627  1.4127  0.2915
 1381TIP3    H225779   2.425   5.204   0.592 -0.3316 -0.6434 -0.2265
 1382TIP3   OH225780   3.295   2.597   8.495  0.3814  0.0363  0.1573
 1382TIP3    H125781   3.305   2.506   8.524  0.7174  0.6632  2.1427
 1382TIP3    H225782   3.339   2.649   8.562 -1.3803  1.7919  0.0437
 1383TIP3   OH225783   1.071   4.922   2.072  0.2224  0.3820 -0.2229
 1383TIP3    H125784   1.004   4.975   2.029  0.1124  1.6453  1.4276
 1383TIP3    H225785   1.151   4.973   2.062  0.2690  0.4961  0.7200
 1384TIP3   OH225786   6.196   5.488   2.202 -0.1166 -0.1460 -0.1004
 1384TIP3    H125787   6.218   5.571   2.243 -0.2658 -0.2150  0.1236
 1384TIP3    H225788   6.147   5.513   2.123  0.5154 -0.0041 -0.4528
 1385TIP3   OH225789   3.536   2.898   8.189  0.1687  0.4040  0.0198
 1385TIP3    H125790   3.456   2.944   8.161  0.6904  1.1046 -0.3424
 1385TIP3    H225791   3.562   2.848   8.111 -1.5827 -2.3038  1.0111
 1386TIP3   OH225792   1.897   3.079   8.042 -0.1189  0.0435  0.3035
 1386TIP3    H125793   1.989   3.053   8.034 -0.3501 -0.4325 -1.1201
 1386TIP3    H225794   1.898   3.155   8.099  1.4443  1.4427 -1.4692
 1387TIP3   OH225795   5.871   1.359   8.674  0.5090 -0.1030  0.2002
 1387TIP3    H125796   5.939   1.421   8.701  2.0198 -1.5223 -0.1790
 1387TIP3    H225797   5.846   1.388   8.586  0.1535  0.8207  0.6057
 1388TIP3   OH225798   1.448   4.608   8.882 -0.2201 -0.1494 -0.0396
 1388TIP3    H125799   1.478   4.606   8.791  1.4808  1.7673  0.4031
 1388TIP3    H225800   1.356   4.630   8.876  0.2735  1.8212 -1.3044
 1389TIP3   OH225801   3.830   0.217   0.680  0.0699 -0.2885  0.4314
 1389TIP3    H125802   3.821   0.299   0.729 -3.5619 -0.8638  0.9925
 1389TIP3    H225803   3.763   0.223   0.612  1.1278 -1.9700 -0.8111
 1390TIP3   OH225804   3.428   2.479   0.471  0.6416  0.2134 -0.2785
 1390TIP3    H125805   3.493   2.450   0.407  1.2435 -0.9455  0.7944
 1390TIP3    H225806   3.480   2.521   0.540  0.1475  0.2767  0.0588
 1391TIP3   OH225807   5.840   6.528   0.143  0.5790  0.0478  0.2830
 1391TIP3    H125808   5.934   6.542   0.132  0.4713  0.1173 -0.6333
 1391TIP3    H225809   5.826   6.437   0.116  0.3583  0.1048  0.2014
 1392TIP3   OH225810   2.164   0.581   7.037  0.2173 -0.1601  0.1562
 1392TIP3    H125811   2.162   0.502   7.092 -2.9346  0.2850  0.8952
 1392TIP3    H225812   2.168   0.654   7.100 -0.8153  0.3174 -0.3137
 1393TIP3   OH225813   2.824   2.248   0.202  0.2817  0.5873 -0.1864
 1393TIP3    H125814   2.729   2.254   0.195  0.2391 -0.0672 -0.1705
 1393TIP3    H225815   2.847   2.167   0.157  1.0163  1.6682 -1.9167
 1394TIP3   OH225816   6.351   1.706   8.019  0.6914  0.2508 -0.2502
 1394TIP3    H125817   6.325   1.784   7.971  0.3065  0.4000  0.1938
 1394TIP3    H225818   6.385   1.647   7.952 -1.4819 -0.2601 -0.9864
 1395TIP3   OH225819   6.140   0.751   8.882 -0.0299 -0.1085  0.1850
 1395TIP3    H125820   6.200   0.678   8.870 -0.6702 -0.5226 -0.5773
 1395TIP3    H225821   6.085   0.751   8.804 -0.5808  0.6831  0.5527
 1396TIP3   OH225822   6.348   3.387   1.082  0.3843  0.1385  0.3208
 1396TIP3    H125823   6.350   3.375   1.177  1.6232  0.8332  0.3941
 1396TIP3    H225824   6.308   3.473   1.070 -0.6372 -0.3478  0.1609
 1397TIP3   OH225825   1.052   3.557   1.200  0.5532  0.0914 -0.6918
 1397TIP3    H125826   0.979   3.607   1.238  1.4817  0.2113  1.0153
 1397TIP3    H225827   1.110   3.539   1.274  1.4155 -1.4987 -1.7051
 1398TIP3   OH225828   2.973   0.458   0.484  0.1315 -0.3924 -0.7535
 1398TIP3    H125829   2.880   0.445   0.463 -0.3462 -1.5692  1.6808
 1398TIP3    H225830   3.002   0.372   0.515  0.7717  0.9211  2.7194
 1399TIP3   OH225831   4.481   3.673   0.445  0.1185 -0.2292 -0.3774
 1399TIP3    H125832   4.396   3.631   0.459 -0.1653  0.9691  2.0983
 1399TIP3    H225833   4.544   3.605   0.467 -0.2990 -0.1279  1.2898
 1400TIP3   OH225834   3.268   3.898   1.726 -0.3653 -0.2707 -0.3071
 1400TIP3    H125835   3.199   3.930   1.784  0.6753  1.0475  0.2401
 1400TIP3    H225836   3.348   3.905   1.777  0.5831  0.8412 -1.8452
 1401TIP3   OH225837   4.879   3.081   1.265 -0.0822  0.0396  0.5351
 1401TIP3    H125838   4.873   3.123   1.351  1.9405 -1.2170  1.3407
 1401TIP3    H225839   4.957   3.118   1.225  0.8965 -1.7792  0.6516
 1402TIP3   OH225840   1.854   2.482   0.301  0.1638  0.1795 -0.1213
 1402TIP3    H125841   1.776   2.429   0.285  0.9262 -0.6541 -1.3623
 1402TIP3    H225842   1.878   2.516   0.215  0.0628  2.0668  0.5581
 1403TIP3   OH225843   0.880   4.559   8.264 -0.2866 -0.0328 -0.5846
 1403TIP3    H125844   0.927   4.622   8.317  0.5810  1.7436 -3.2392
 1403TIP3    H225845   0.936   4.482   8.261 -0.0612  0.0841  0.4930
 1404TIP3   OH225846   4.631   5.227   1.701  0.0368  0.2547 -0.7627
 1404TIP3    H125847   4.590   5.144   1.680  0.2644 -0.2044  0.5205
 1404TIP3    H225848   4.604   5.246   1.791 -0.7199  2.0102 -1.3045
 1405TIP3   OH225849   4.686   6.684   6.883  0.1916 -0.4773 -0.2676
 1405TIP3    H125850   4.667   6.597   6.917  0.2843 -0.3882  0.0185
 1405TIP3    H225851   4.624   6.696   6.811  1.6786 -1.6641 -1.8067
 1406TIP3   OH225852   3.853   4.185   1.043  0.2840  0.3431 -0.2325
 1406TIP3    H125853   3.838   4.142   1.127  2.0598  1.1253  0.5310
 1406TIP3    H225854   3.769   4.180   0.998 -1.0655  0.9423  2.0606
 1407TIP3   OH225855   6.572   0.157   6.858 -0.1782 -0.0265  0.1742
 1407TIP3    H125856   6.479   0.145   6.876 -0.4294  0.6028 -0.6752
 1407TIP3    H225857   6.610   0.070   6.871 -0.9042 -0.3198  0.3778
 1408TIP3   OH225858   1.315   2.695   0.809  0.1551 -0.3522  0.0586
 1408TIP3    H125859   1.337   2.605   0.788  2.5185  0.0398  0.5646
 1408TIP3    H225860   1.304   2.738   0.724 -0.6471 -1.0217 -0.1859
 1409TIP3   OH225861   0.473   5.119   7.562  0.1062  0.1495 -0.2951
 1409TIP3    H125862   0.411   5.108   7.490  0.6657 -2.2280 -0.5115
 1409TIP3    H225863   0.421   5.152   7.635 -1.0018  0.1210 -1.0502
 1410TIP3   OH225864   4.584   4.928   2.483 -0.2524  0.0656 -0.1538
 1410TIP3    H125865   4.499   4.889   2.502  0.4459 -1.0134  0.8295
 1410TIP3    H225866   4.630   4.928   2.566  0.9949 -0.0475 -0.8225
 1411TIP3   OH225867   3.929   2.569   1.421  0.3864 -0.0031 -0.1618
 1411TIP3    H125868   3.946   2.543   1.331  1.7864 -1.9755  0.5991
 1411TIP3    H225869   3.961   2.496   1.474  2.2766  2.2422  2.0686
 1412TIP3   OH225870   5.519   1.089   0.899  0.2865  0.0282  0.1283
 1412TIP3    H125871   5.541   1.169   0.947 -1.2688 -0.5673  1.9667
 1412TIP3    H225872   5.595   1.032   0.912  0.1714  0.1273  1.3718
 1413TIP3   OH225873   2.728   0.442   1.341  0.4072 -0.1746  0.4640
 1413TIP3    H125874   2.727   0.398   1.426 -0.6055  1.6269  1.4496
 1413TIP3    H225875   2.790   0.514   1.352  1.1035 -0.5648 -0.7037
 1414TIP3   OH225876   1.492   0.205   7.985 -0.3186 -0.5114 -0.4796
 1414TIP3    H125877   1.448   0.264   8.046 -0.1471 -0.3214 -0.5413
 1414TIP3    H225878   1.462   0.232   7.899 -2.9755 -2.6924 -0.3759
 1415TIP3   OH225879   3.530   5.181   8.634  0.3447 -0.4159  0.1586
 1415TIP3    H125880   3.524   5.257   8.693  0.1777 -0.0921 -0.2721
 1415TIP3    H225881   3.440   5.168   8.604  0.4230 -0.6173  0.0155
 1416TIP3   OH225882   0.200   0.361   1.213 -0.8435 -0.3190  0.0632
 1416TIP3    H125883   0.137   0.307   1.165 -2.1502  1.7127 -0.6666
 1416TIP3    H225884   0.164   0.368   1.301 -1.8923  1.0793 -0.4309
 1417TIP3   OH225885   2.337   0.965   2.790  0.2630  0.3064  0.3597
 1417TIP3    H125886   2.419   1.007   2.815  1.4277 -1.2506 -0.6966
 1417TIP3    H225887   2.301   1.020   2.721  1.0703  0.3008 -0.0661
 1418TIP3   OH225888   3.533   0.728   0.607 -0.4633 -1.0007 -0.3171
 1418TIP3    H125889   3.479   0.770   0.540 -0.0089  1.2262  0.6478
 1418TIP3    H225890   3.618   0.770   0.600 -0.2070 -1.2119  1.2220
 1419TIP3   OH225891   5.164   5.655   1.846 -0.1741  0.1706 -0.8095
 1419TIP3    H125892   5.075   5.635   1.817 -1.0056 -1.1217  2.2479
 1419TIP3    H225893   5.205   5.569   1.858  0.9434  0.7071 -0.6642
 1420TIP3   OH225894   1.756   4.460   1.206  0.3379  0.1918  0.1854
 1420TIP3    H125895   1.831   4.402   1.220  0.8395  0.5752 -0.8564
 1420TIP3    H225896   1.756   4.518   1.283  1.0820  0.1620  0.2188
 1421TIP3   OH225897   0.957   5.547   2.253  0.0739 -0.0293  0.5356
 1421TIP3    H125898   0.896   5.555   2.327  0.5040 -2.7873  1.2876
 1421TIP3    H225899   1.033   5.599   2.278 -0.3210  0.1326  1.4198
 1422TIP3   OH225900   6.145   5.778   0.286 -0.2770  0.0639 -0.3717
 1422TIP3    H125901   6.095   5.780   0.368  0.5102  0.3149  0.1133
 1422TIP3    H225902   6.220   5.722   0.305 -0.7495 -0.9282 -1.3285
 1423TIP3   OH225903   3.535   6.204   1.760 -0.5751  0.1849 -0.3957
 1423TIP3    H125904   3.495   6.263   1.823  0.9706  1.3162 -0.4115
 1423TIP3    H225905   3.504   6.235   1.675 -1.7259 -0.6105 -0.2915
 1424TIP3   OH225906   3.050   4.075   8.853 -0.0184 -0.2989  0.0867
 1424TIP3    H125907   2.959   4.099   8.865  0.0743  0.6600 -1.0262
 1424TIP3    H225908   3.055   4.040   8.764  0.6617 -0.5750  0.2189
 1425TIP3   OH225909   2.877   0.909   8.901 -0.5514 -0.2173  0.0274
 1425TIP3    H125910   2.894   0.928   8.808  1.6790 -0.3481  0.3625
 1425TIP3    H225911   2.861   0.994   8.940  1.5418  0.2233  0.0440
 1426TIP3   OH225912   4.091   2.158   8.530 -0.2132 -0.0506 -0.1029
 1426TIP3    H125913   4.017   2.217   8.515  0.1020  0.0836 -1.1940
 1426TIP3    H225914   4.051   2.071   8.538 -0.4307 -0.1273 -1.7319
 1427TIP3   OH225915   1.155   3.779   8.373 -0.0198 -0.2425 -0.3668
 1427TIP3    H125916   1.062   3.787   8.395  0.2010 -0.2483  0.5927
 1427TIP3    H225917   1.169   3.846   8.306 -0.5884  0.1586 -0.0936
 1428TIP3   OH225918   5.594   1.821   2.145  0.0463 -0.0347 -0.3420
 1428TIP3    H125919   5.532   1.820   2.072 -0.5726 -1.3531  0.1698
 1428TIP3    H225920   5.680   1.822   2.103 -0.1847 -3.6972 -1.2484
 1429TIP3   OH225921   0.921   1.523   2.398 -0.1970 -0.1770  0.4810
 1429TIP3    H125922   0.935   1.556   2.486 -1.5687  0.7319  0.3909
 1429TIP3    H225923   0.873   1.441   2.410  0.7207 -0.7163  0.5990
 1430TIP3   OH225924   4.560   1.173   1.248  0.0443 -0.1727 -0.1288
 1430TIP3    H125925   4.595   1.137   1.167 -1.8986  0.9303 -1.5610
 1430TIP3    H225926   4.556   1.098   1.308  0.7508 -1.2013 -1.3148
 1431TIP3   OH225927   2.916   2.034   1.599  0.4966  0.3002 -0.1697
 1431TIP3    H125928   2.857   2.106   1.622  1.9130  1.6455 -0.5408
 1431TIP3    H225929   2.867   1.983   1.534  0.0166  1.8440 -1.0730
 1432TIP3   OH225930   6.132   1.076   7.240  0.2515 -0.3425 -0.3688
 1432TIP3    H125931   6.116   1.006   7.304  0.4833 -0.4643 -0.4432
 1432TIP3    H225932   6.045   1.100   7.210  0.2137 -1.2177 -0.9947
 1433TIP3   OH225933   4.857   5.471   7.622  0.3575  0.7314 -0.1836
 1433TIP3    H125934   4.885   5.444   7.709  1.4946  0.4730 -0.6016
 1433TIP3    H225935   4.857   5.567   7.625 -1.2727  0.7297  0.5817
 1434TIP3   OH225936   3.139   5.860   0.898  0.1006  0.1920  0.2157
 1434TIP3    H125937   3.139   5.861   0.802  0.9318 -0.8578  0.1843
 1434TIP3    H225938   3.223   5.821   0.921 -0.7215 -0.9670  1.3382
 1435TIP3   OH225939   1.711   2.598   1.675 -0.4750 -0.2251  0.3989
 1435TIP3    H125940   1.664   2.561   1.750  2.5020 -1.6835  1.7305
 1435TIP3    H225941   1.752   2.677   1.708  0.3630 -0.5445  0.1590
 1436TIP3   OH225942   6.227   5.663   2.704  0.5563 -0.0194 -0.1059
 1436TIP3    H125943   6.283   5.675   2.627 -1.2045 -1.2251 -1.6553
 1436TIP3    H225944   6.153   5.722   2.690 -0.6073 -1.4452 -0.2050
 1437TIP3   OH225945   2.438   6.532   8.041  0.2686 -0.4471 -0.1663
 1437TIP3    H125946   2.509   6.566   7.986  0.0358 -0.6771 -0.6145
 1437TIP3    H225947   2.402   6.459   7.991 -0.1031 -0.5090  0.1871
 1438TIP3   OH225948   2.863   0.353   7.830 -0.1253  0.5192  0.5164
 1438TIP3    H125949   2.770   0.341   7.809  0.3632 -0.3937 -1.4170
 1438TIP3    H225950   2.894   0.414   7.763  0.9071 -0.1484  0.3660
 1439TIP3   OH225951   5.621   5.311   7.066 -0.4917  0.1607 -0.0229
 1439TIP3    H125952   5.654   5.247   7.129  0.5670  0.3646 -0.3532
 1439TIP3    H225953   5.699   5.354   7.032 -1.1190  0.8319 -0.6582
 1440TIP3   OH225954   4.824   5.552   1.198 -0.5487  0.1935  0.5826
 1440TIP3    H125955   4.813   5.496   1.275 -0.7587 -0.6314 -0.0327
 1440TIP3    H225956   4.793   5.638   1.227 -0.3758 -0.0361  1.4940
 1441TIP3   OH225957   6.011   4.531   2.899 -0.1651  0.2867 -0.1839
 1441TIP3    H125958   6.050   4.602   2.951 -0.7417 -0.6067  1.5657
 1441TIP3    H225959   5.922   4.523   2.934 -0.1251 -1.2517 -0.3941
 1442TIP3   OH225960   5.285   0.526   2.073  0.3594 -0.0049  0.0611
 1442TIP3    H125961   5.233   0.514   2.152  1.5373 -1.4874  0.6670
 1442TIP3    H225962   5.282   0.621   2.057 -0.5914  0.2251  1.3861
 1443TIP3   OH225963   0.285   4.320   7.046 -0.4757 -0.7380  0.6947
 1443TIP3    H125964   0.237   4.371   6.980 -0.3951 -1.9290 -0.3121
 1443TIP3    H225965   0.218   4.296   7.110 -0.4362  0.9782  1.4500
 1444TIP3   OH225966   5.820   3.840   1.741 -0.3214 -0.3347 -0.1078
 1444TIP3    H125967   5.881   3.912   1.758 -0.4951 -0.2058 -0.0221
 1444TIP3    H225968   5.834   3.819   1.648 -1.1012  0.6191 -0.4719
 1445TIP3   OH225969   5.555   0.357   8.430  0.0813 -0.4104  0.4103
 1445TIP3    H125970   5.492   0.313   8.372 -1.0412 -2.3616  2.9252
 1445TIP3    H225971   5.502   0.423   8.476  0.7260  0.3863  0.0357
 1446TIP3   OH225972   4.595   6.294   8.591  0.5168 -0.1539 -0.2801
 1446TIP3    H125973   4.517   6.344   8.567  0.7999  1.0925  1.1949
 1446TIP3    H225974   4.586   6.280   8.685  1.2981 -1.4229 -0.3750
 1447TIP3   OH225975   4.040   0.894   8.779 -0.4179  0.1004 -0.0014
 1447TIP3    H125976   3.967   0.955   8.772 -1.0877 -0.6557  0.2621
 1447TIP3    H225977   4.084   0.917   8.861 -0.3776  0.5344 -0.1453
 1448TIP3   OH225978   1.227   6.326   1.664 -0.3767 -0.0537  0.0192
 1448TIP3    H125979   1.216   6.292   1.753  0.6242  1.7683  0.8842
 1448TIP3    H225980   1.156   6.389   1.653 -0.5936 -0.3860 -0.5576
 1449TIP3   OH225981   5.020   3.034   2.403 -0.2753  0.0287 -0.3230
 1449TIP3    H125982   5.035   3.084   2.484 -1.1863  0.2926 -0.2992
 1449TIP3    H225983   4.927   3.047   2.385 -0.0065  0.2558 -1.6092
 1450TIP3   OH225984   2.062   0.120   7.970 -0.3524 -0.2333  0.4195
 1450TIP3    H125985   2.132   0.085   8.025 -0.8809 -0.5784  0.8742
 1450TIP3    H225986   2.063   0.063   7.892 -0.0501 -0.1597  0.3663
 1451TIP3   OH225987   2.513   2.289   0.470  0.6252 -0.2142  0.1798
 1451TIP3    H125988   2.547   2.332   0.548 -0.9910  1.4600  0.0372
 1451TIP3    H225989   2.446   2.230   0.503 -0.6621  1.1245  0.0495
 1452TIP3   OH225990   2.469   2.004   8.218  0.3873  0.4184 -0.1810
 1452TIP3    H125991   2.458   1.911   8.198  0.0788  0.5756 -0.7552
 1452TIP3    H225992   2.382   2.042   8.205  0.6919  0.9353 -0.7776
 1453TIP3   OH225993   1.463   5.159   8.035  0.0454  0.3140  0.0521
 1453TIP3    H125994   1.379   5.203   8.045  0.2580  1.5387 -2.6140
 1453TIP3    H225995   1.502   5.199   7.957  1.1262 -3.2801 -1.4870
 1454TIP3   OH225996   6.446   3.451   7.464 -0.5346  1.0221 -0.6492
 1454TIP3    H125997   6.472   3.359   7.471 -1.1304  0.9311  0.9250
 1454TIP3    H225998   6.401   3.458   7.380 -2.2071 -0.6082  0.0498
 1455TIP3   OH225999   5.512   4.854   0.697  0.0400  0.1727 -0.0588
 1455TIP3    H126000   5.537   4.945   0.680 -1.9849  1.0798  1.3493
 1455TIP3    H226001   5.522   4.810   0.612 -2.6678  2.6720 -1.8797
 1456TIP3   OH226002   1.571   1.423   6.805  0.4318 -0.2567 -0.0722
 1456TIP3    H126003   1.481   1.399   6.825 -0.0827  0.8872 -0.9151
 1456TIP3    H226004   1.610   1.343   6.770 -0.5669 -0.5016 -0.6843
 1457TIP3   OH226005   5.449   4.445   7.360  0.0615 -0.2461 -0.0580
 1457TIP3    H126006   5.464   4.540   7.357 -1.4651  0.0010 -0.4251
 1457TIP3    H226007   5.460   4.416   7.269  1.2144 -0.5554  0.1630
 1458TIP3   OH226008   0.176   2.015   8.308 -0.3138  0.6115 -0.2689
 1458TIP3    H126009   0.173   2.098   8.354 -1.7065  0.5256 -0.1676
 1458TIP3    H226010   0.223   1.956   8.367  0.1325  1.1658 -0.0718
 1459TIP3   OH226011   6.382   0.563   8.912  0.1762 -0.5568 -0.2633
 1459TIP3    H126012   6.466   0.585   8.872 -0.0785 -1.0785 -1.1017
 1459TIP3    H226013   6.347   0.493   8.857 -0.9472 -0.1375 -0.1016
 1460TIP3   OH226014   3.001   4.885   0.676 -0.0951 -0.8626  0.0228
 1460TIP3    H126015   2.918   4.838   0.680 -0.7406  0.2712  0.3247
 1460TIP3    H226016   3.063   4.820   0.643 -0.4200 -2.6756  2.6040
 1461TIP3   OH226017   1.909   6.119   1.951 -0.1383  0.3436 -0.0202
 1461TIP3    H126018   1.970   6.153   2.017  0.0254  1.0221 -0.5100
 1461TIP3    H226019   1.854   6.194   1.928 -1.5148 -0.3773  0.7767
 1462TIP3   OH226020   2.611   4.497   0.594 -0.3071  0.4804 -0.1872
 1462TIP3    H126021   2.570   4.439   0.530 -0.2870  0.0194  0.2095
 1462TIP3    H226022   2.682   4.539   0.546  0.2266 -0.4739 -0.2516
 1463TIP3   OH226023   1.639   6.247   2.446  0.1714 -0.2352 -0.0668
 1463TIP3    H126024   1.688   6.329   2.440  1.6130 -1.0536  0.1173
 1463TIP3    H226025   1.585   6.246   2.367  0.2366  0.8247 -0.1397
 1464TIP3   OH226026   5.116   2.872   1.109  0.0936 -0.0241  0.1649
 1464TIP3    H126027   5.123   2.952   1.057 -2.7391 -0.1905 -0.6130
 1464TIP3    H226028   5.155   2.896   1.194  0.0045  1.9365 -0.2883
 1465TIP3   OH226029   3.796   0.409   7.223 -0.5270 -0.0378 -0.5799
 1465TIP3    H126030   3.831   0.478   7.167 -0.2423  0.6124  0.3717
 1465TIP3    H226031   3.813   0.439   7.313 -3.9286  0.5828  0.0054
 1466TIP3   OH226032   0.844   6.173   8.892 -0.2137  0.2882  0.0095
 1466TIP3    H126033   0.860   6.207   8.980 -1.2874 -1.3516  0.8905
 1466TIP3    H226034   0.930   6.164   8.853  0.4032 -0.3894  1.4687
 1467TIP3   OH226035   2.604   6.544   1.503  0.2604  0.2327 -0.0840
 1467TIP3    H126036   2.576   6.587   1.422 -1.0893 -0.9071 -0.2459
 1467TIP3    H226037   2.601   6.614   1.569 -1.1994  0.5712 -0.4850
 1468TIP3   OH226038   4.726   5.930   1.630  0.0148 -0.4773  0.3058
 1468TIP3    H126039   4.767   5.949   1.546  1.7458  1.3277  1.4574
 1468TIP3    H226040   4.656   5.994   1.639  2.5402  2.3640  1.9295
 1469TIP3   OH226041   6.226   0.934   1.476  0.0885 -0.1354 -0.0603
 1469TIP3    H126042   6.132   0.947   1.483 -0.0101 -0.8551 -0.0237
 1469TIP3    H226043   6.263   1.020   1.495 -0.5938  0.3996 -1.0675
 1470TIP3   OH226044   1.087   3.433   0.468  0.0793 -0.2051 -0.0239
 1470TIP3    H126045   1.001   3.474   0.474 -0.1370 -0.7731  0.9320
 1470TIP3    H226046   1.125   3.442   0.556  0.3277 -1.3723  0.0052
 1471TIP3   OH226047   0.484   5.106   7.244 -0.0261  0.4698 -0.1386
 1471TIP3    H126048   0.567   5.137   7.280  0.3490 -1.8710  1.2549
 1471TIP3    H226049   0.419   5.169   7.274  0.9068  0.9358  0.9621
 1472TIP3   OH226050   2.632   4.243   1.062 -0.3742  0.4989 -0.4342
 1472TIP3    H126051   2.693   4.221   1.132  0.8165  0.4261 -1.4552
 1472TIP3    H226052   2.685   4.288   0.997 -0.7967 -1.8598 -2.5641
 1473TIP3   OH226053   0.830   1.975   1.670 -0.0257 -0.0265 -0.1608
 1473TIP3    H126054   0.909   1.942   1.626 -0.5736  0.1928 -1.3279
 1473TIP3    H226055   0.762   1.912   1.648 -0.9510  1.4974 -1.9247
 1474TIP3   OH226056   4.287   0.959   8.578  0.2269 -0.2982 -0.4395
 1474TIP3    H126057   4.299   0.963   8.483  0.9377 -0.7471 -0.3681
 1474TIP3    H226058   4.373   0.978   8.615 -0.2807  1.0227  0.1476
 1475TIP3   OH226059   0.796   0.252   8.099  0.3708  0.8228 -0.5288
 1475TIP3    H126060   0.726   0.211   8.150  1.0834  0.8499  0.4861
 1475TIP3    H226061   0.841   0.179   8.056  1.4798  0.5196  1.0768
 1476TIP3   OH226062   3.919   3.387   1.903 -1.0587 -0.1272  0.4659
 1476TIP3    H126063   3.888   3.325   1.837 -0.3372 -0.3179  0.2925
 1476TIP3    H226064   3.860   3.375   1.977 -1.2964 -0.5918  0.2063
 1477TIP3   OH226065   2.873   3.234   7.557 -0.0620 -0.5824  1.2086
 1477TIP3    H126066   2.966   3.252   7.538 -0.5561  1.1578  0.1512
 1477TIP3    H226067   2.858   3.275   7.642 -0.0517 -0.0655  0.9683
 1478TIP3   OH226068   5.823   1.786   7.605 -0.3961 -0.1742  0.1101
 1478TIP3    H126069   5.883   1.766   7.677 -1.8170 -1.5330  0.9875
 1478TIP3    H226070   5.870   1.761   7.526 -0.1485 -2.2055  0.8529
 1479TIP3   OH226071   4.610   1.497   0.830  0.2947 -0.0243  0.4037
 1479TIP3    H126072   4.611   1.590   0.854  0.3880 -0.0491  0.4984
 1479TIP3    H226073   4.664   1.454   0.897  1.2978  0.0254 -0.3457
 1480TIP3   OH226074   2.962   4.515   1.152  0.4147 -0.2693 -0.1150
 1480TIP3    H126075   2.988   4.423   1.145 -3.0129 -1.3688 -0.0693
 1480TIP3    H226076   2.871   4.517   1.123 -0.4663  2.6435  2.2936
 1481TIP3   OH226077   0.603   5.882   1.825  0.2979 -0.0392  0.3343
 1481TIP3    H126078   0.679   5.887   1.883  0.7624 -0.3965 -0.2263
 1481TIP3    H226079   0.539   5.830   1.874  0.0730  1.0073  1.1698
 1482TIP3   OH226080   0.513   0.043   0.160  0.8583 -0.0586  0.4981
 1482TIP3    H126081   0.490  -0.048   0.177 -1.2949  0.5630  1.3198
 1482TIP3    H226082   0.487   0.058   0.070  1.5451 -0.3291  0.2477
 1483TIP3   OH226083   0.090   6.436   0.598 -0.1527  0.4796  0.1731
 1483TIP3    H126084   0.073   6.436   0.693 -2.7636  0.4617 -0.2266
 1483TIP3    H226085   0.003   6.437   0.558  0.7957 -1.9546 -2.2590
 1484TIP3   OH226086   5.849   1.694   0.604 -0.1788 -0.3476 -0.3906
 1484TIP3    H126087   5.863   1.600   0.598 -0.3621 -0.3940 -0.1413
 1484TIP3    H226088   5.765   1.702   0.651 -0.8709 -0.0900 -1.6254
 1485TIP3   OH226089   3.873   0.544   0.407  0.1359  0.2670  0.4335
 1485TIP3    H126090   3.883   0.568   0.499 -2.2956 -1.0217  1.1213
 1485TIP3    H226091   3.834   0.621   0.365  0.0162  0.3863  0.7670
 1486TIP3   OH226092   3.690   0.562   2.100 -0.3461 -0.3051  0.1595
 1486TIP3    H126093   3.665   0.480   2.143 -2.1174 -0.1042 -0.4177
 1486TIP3    H226094   3.667   0.549   2.008 -1.0769  0.9837  0.1365
 1487TIP3   OH226095   0.744   1.056   0.581  0.4939  0.5707 -0.3568
 1487TIP3    H126096   0.806   0.995   0.620 -0.1265  1.3357  1.9948
 1487TIP3    H226097   0.786   1.085   0.500  2.2112 -0.5427  0.0879
 1488TIP3   OH226098   0.546   2.083   8.185  0.2796  0.6689  0.9246
 1488TIP3    H126099   0.605   2.024   8.232  0.8787  0.0698 -0.5249
 1488TIP3    H226100   0.481   2.025   8.145  1.0102  0.9351 -0.7067
 1489TIP3   OH226101   6.426   2.519   1.983 -0.1446 -0.5312  0.0161
 1489TIP3    H126102   6.446   2.519   2.077 -0.7034  2.5597  0.2385
 1489TIP3    H226103   6.506   2.551   1.942 -0.7856  0.8422 -0.2236
 1490TIP3   OH226104   5.836   4.360   0.950 -0.2274 -0.8931  0.2454
 1490TIP3    H126105   5.807   4.396   1.034  0.4750 -3.2081  1.5703
 1490TIP3    H226106   5.780   4.403   0.885 -0.9282  0.8317  1.8836
 1491TIP3   OH226107   5.184   3.876   8.572 -0.9292 -0.0117  1.1242
 1491TIP3    H126108   5.263   3.827   8.551 -0.5105  1.8090 -2.0682
 1491TIP3    H226109   5.216   3.959   8.607 -1.0658  1.9634 -2.8778
 1492TIP3   OH226110   5.952   4.896   1.412 -0.6340  0.5070 -0.6335
 1492TIP3    H126111   5.866   4.862   1.432 -0.3538  0.4541  0.5213
 1492TIP3    H226112   6.003   4.885   1.492  0.7380 -0.3403 -1.5626
 1493TIP3   OH226113   0.714   5.777   0.861  0.2998 -0.1502  0.0410
 1493TIP3    H126114   0.725   5.836   0.936  0.3755  0.6781 -0.6052
 1493TIP3    H226115   0.693   5.692   0.900 -0.1706  0.3819  0.9818
 1494TIP3   OH226116   3.182   0.695   1.344  0.0790  0.5145  0.2402
 1494TIP3    H126117   3.188   0.762   1.275 -2.5683  0.0527 -0.5557
 1494TIP3    H226118   3.120   0.731   1.407 -1.2645 -1.0658 -0.1102
 1495TIP3   OH226119   1.527   3.005   1.964  0.1091 -0.3706 -0.3293
 1495TIP3    H126120   1.474   2.957   2.027  0.6403 -0.3692  0.1310
 1495TIP3    H226121   1.467   3.068   1.925 -0.2243 -0.3568  0.1952
 1496TIP3   OH226122   1.152   5.718   1.170 -0.0600  0.4451  0.0962
 1496TIP3    H126123   1.157   5.655   1.241 -1.5761  0.1722 -0.0053
 1496TIP3    H226124   1.145   5.665   1.091 -0.5614  0.7217 -0.0535
 1497TIP3   OH226125   2.606   0.774   1.732  0.1680 -0.4379  0.2199
 1497TIP3    H126126   2.688   0.771   1.781 -0.6501 -0.5090  1.6471
 1497TIP3    H226127   2.627   0.734   1.647  1.2182 -2.0155  1.1692
 1498TIP3   OH226128   6.268   0.695   2.047 -0.4860  0.4835 -0.1145
 1498TIP3    H126129   6.353   0.652   2.038  0.0026  1.2517  0.5883
 1498TIP3    H226130   6.225   0.681   1.963  1.1875  1.8474 -1.2828
 1499TIP3   OH226131   2.209   6.398   0.814 -0.5862 -0.3212  0.2019
 1499TIP3    H126132   2.143   6.371   0.750 -0.7131  0.7088 -0.1216
 1499TIP3    H226133   2.246   6.479   0.778  1.0195 -0.9883  0.2813
 1500TIP3   OH226134   4.360   4.628   7.309  0.1334 -0.0265 -0.0082
 1500TIP3    H126135   4.274   4.607   7.346  0.1204  0.4310  0.2315
 1500TIP3    H226136   4.403   4.543   7.297 -1.4512 -0.5301 -2.8888
 1501TIP3   OH226137   3.908   6.772   8.595  0.2673 -0.2752 -0.0002
 1501TIP3    H126138   3.832   6.754   8.539 -0.9140 -0.7738  1.6927
 1501TIP3    H226139   3.981   6.728   8.551 -0.7313 -1.1664 -0.8403
 1502TIP3   OH226140   4.107   5.543   1.323  0.3916  0.2364 -0.3372
 1502TIP3    H126141   4.034   5.542   1.385 -0.1450  0.6130 -0.9504
 1502TIP3    H226142   4.155   5.624   1.343 -0.0913  0.6334 -0.7538
 1503TIP3   OH226143   3.076   6.371   1.989  0.1892  0.1013 -0.0931
 1503TIP3    H126144   3.016   6.298   1.971 -0.8015  0.7783  0.3280
 1503TIP3    H226145   3.068   6.385   2.084  0.2594  0.8388 -0.1922
 1504TIP3   OH226146   4.485   5.805   0.842 -0.2944 -0.5278  0.2280
 1504TIP3    H126147   4.485   5.748   0.766  0.0780 -0.4013  0.1290
 1504TIP3    H226148   4.576   5.835   0.850 -0.4778  0.0284  0.2967
 1505TIP3   OH226149   4.274   1.058   1.843 -0.2452  0.0864  0.9411
 1505TIP3    H126150   4.367   1.075   1.859 -0.0275 -1.1779  1.0957
 1505TIP3    H226151   4.229   1.121   1.898  0.5252 -0.0203  1.7226
 1506TIP3   OH226152   4.548   0.337   2.168 -0.6074 -0.3360  0.4455
 1506TIP3    H126153   4.526   0.429   2.155 -0.5547 -0.4843 -0.8150
 1506TIP3    H226154   4.613   0.337   2.239 -1.7702  0.4388  1.5541
 1507TIP3   OH226155   0.754   0.601   7.898  0.4632  0.1536  0.8616
 1507TIP3    H126156   0.780   0.551   7.821 -0.0069  2.0184 -0.5828
 1507TIP3    H226157   0.775   0.544   7.972  4.2878 -0.3156 -0.4000
 1508TIP3   OH226158   6.518   4.443   8.108 -0.2000 -0.4597  0.1997
 1508TIP3    H126159   6.471   4.361   8.125  0.5404 -0.6231  1.6972
 1508TIP3    H226160   6.458   4.511   8.138  0.1894 -0.6291  1.4425
 1509TIP3   OH226161   6.299   6.617   8.101 -0.2759 -0.9460 -0.1330
 1509TIP3    H126162   6.278   6.652   8.015 -0.3771 -0.9270 -0.1011
 1509TIP3    H226163   6.365   6.550   8.084 -0.2387 -0.8884 -0.2171
 1510TIP3   OH226164   2.470   2.729   2.913 -0.5569  0.2569  0.3003
 1510TIP3    H126165   2.438   2.725   2.823 -0.6387 -1.5503  0.3682
 1510TIP3    H226166   2.464   2.821   2.936 -0.5869  0.7639 -1.5185
 1511TIP3   OH226167   0.366   1.893   8.893  0.4906 -0.2040 -0.1189
 1511TIP3    H126168   0.278   1.879   8.928  0.2929 -0.8170 -0.8171
 1511TIP3    H226169   0.412   1.810   8.909  0.7316 -0.1158 -0.3428
 1512TIP3   OH226170   4.400   2.118   8.710 -0.0106  0.2379  0.2314
 1512TIP3    H126171   4.379   2.198   8.758 -0.2785 -0.2252  0.9012
 1512TIP3    H226172   4.367   2.047   8.765  1.2147 -0.3961  0.1935
 1513TIP3   OH226173   5.654   3.525   0.747  0.0874  0.1296  0.5204
 1513TIP3    H126174   5.567   3.562   0.732  0.7425  1.6255  0.2297
 1513TIP3    H226175   5.668   3.535   0.841 -0.6597 -1.6197  0.8818
 1514TIP3   OH226176   4.705   4.481   0.111 -0.5584  0.1339  0.2030
 1514TIP3    H126177   4.635   4.417   0.101  0.9834 -1.5869 -0.0228
 1514TIP3    H226178   4.699   4.534   0.031 -0.7688 -0.8518 -0.4605
 1515TIP3   OH226179   4.998   5.228   1.921 -0.1528  0.3865 -0.3604
 1515TIP3    H126180   4.952   5.292   1.865 -0.2153  1.6378  1.0461
 1515TIP3    H226181   4.942   5.151   1.919 -1.9247  1.5688  0.5939
 1516TIP3   OH226182   5.402   6.463   1.099  0.5616  0.6883  0.1628
 1516TIP3    H126183   5.467   6.472   1.029 -0.6301  2.6405 -0.8085
 1516TIP3    H226184   5.327   6.421   1.056 -0.0949  1.6982  0.2916
 1517TIP3   OH226185   3.572   1.665   7.279  0.0795 -0.0924 -0.0266
 1517TIP3    H126186   3.528   1.606   7.218  1.1331 -1.8342  0.8060
 1517TIP3    H226187   3.530   1.648   7.364  1.4933 -0.9418  0.5473
 1518TIP3   OH226188   4.197   0.746   7.970  0.6473 -0.7293  0.4957
 1518TIP3    H126189   4.143   0.800   8.027  0.5421 -0.1331 -0.1478
 1518TIP3    H226190   4.202   0.661   8.014  0.0422 -0.4758  1.0702
 1519TIP3   OH226191   4.602   3.836   8.872  0.0435  0.2041  0.0900
 1519TIP3    H126192   4.680   3.839   8.928  0.3506  1.0718 -0.3773
 1519TIP3    H226193   4.635   3.843   8.783 -0.5241 -0.1404 -0.1578
 1520TIP3   OH226194   1.675   4.843   2.110  0.3551  0.2248  0.0018
 1520TIP3    H126195   1.679   4.920   2.053  1.5570  2.4413  2.8385
 1520TIP3    H226196   1.600   4.859   2.167 -0.3892 -1.5702 -0.4230
 1521TIP3   OH226197   5.866   4.112   7.551  0.3099  0.1384 -0.0479
 1521TIP3    H126198   5.842   4.202   7.527  0.6413  0.6789  1.5089
 1521TIP3    H226199   5.947   4.096   7.504  1.1236  1.2869  0.8906
 1522TIP3   OH226200   3.649   2.385   1.449  0.0051  0.3135  0.8727
 1522TIP3    H126201   3.708   2.313   1.473  1.0457  1.4186  1.7957
 1522TIP3    H226202   3.565   2.362   1.489 -0.2805 -1.3608 -0.5844
 1523TIP3   OH226203   5.230   1.090   7.405  0.4243  0.0112  0.5832
 1523TIP3    H126204   5.214   0.998   7.424  0.5445 -0.4374 -1.3638
 1523TIP3    H226205   5.314   1.092   7.360  0.0470  0.9709 -0.1252
 1524TIP3   OH226206   3.049   1.111   0.963  0.3462  1.0319  0.0064
 1524TIP3    H126207   3.050   1.046   0.892  1.5444 -0.0016  0.9119
 1524TIP3    H226208   3.067   1.194   0.919  0.4904  0.5031 -0.9720
 1525TIP3   OH226209   3.615   0.956   7.937 -0.3746  0.4121 -0.7772
 1525TIP3    H126210   3.625   0.863   7.919 -1.4800  0.0033  0.5930
 1525TIP3    H226211   3.537   0.982   7.887  0.0104  0.6440 -1.2649
 1526TIP3   OH226212   1.066   6.477   7.395  0.2391  0.0140  0.0880
 1526TIP3    H126213   0.992   6.529   7.426  1.1131  0.5000  1.4787
 1526TIP3    H226214   1.028   6.394   7.368 -0.8563  0.4045  0.3604
 1527TIP3   OH226215   5.830   5.440   1.871  0.1900 -0.0812 -0.4669
 1527TIP3    H126216   5.831   5.346   1.853 -1.2978 -0.8058  2.6153
 1527TIP3    H226217   5.738   5.465   1.862  0.4651  0.9380 -0.5448
 1528TIP3   OH226218   6.383   6.143   0.040  0.0995 -0.2113  0.1735
 1528TIP3    H126219   6.419   6.070  -0.011 -1.9142 -1.7370  0.8001
 1528TIP3    H226220   6.302   6.108   0.077 -0.4227  2.0641  1.3267
 1529TIP3   OH226221   6.481   2.796   0.349 -0.6421 -0.0887 -0.5558
 1529TIP3    H126222   6.483   2.794   0.445  1.9481 -0.2262 -0.5332
 1529TIP3    H226223   6.485   2.889   0.327  1.2777 -0.0898 -0.4375
 1530TIP3   OH226224   2.627   6.066   2.456  0.6368 -0.1129  0.0165
 1530TIP3    H126225   2.583   6.142   2.492 -1.8124 -1.4678  0.0729
 1530TIP3    H226226   2.689   6.039   2.524  0.8695  1.2619  0.3699
 1531TIP3   OH226227   1.079   6.030   0.518  0.4256  0.0580  0.0490
 1531TIP3    H126228   1.043   5.949   0.554  0.3624  0.5691  1.2020
 1531TIP3    H226229   1.011   6.063   0.459  0.5659 -0.8447 -0.6389
 1532TIP3   OH226230   0.371   2.596   8.730 -0.1670 -0.1277 -0.1487
 1532TIP3    H126231   0.357   2.539   8.654  2.1094 -2.0047  0.7353
 1532TIP3    H226232   0.387   2.682   8.692 -1.5640 -0.4693 -1.6407
 1533TIP3   OH226233   1.806   3.672   6.990 -0.0489  0.6458 -0.1274
 1533TIP3    H126234   1.814   3.592   6.938  1.0959 -0.1205  1.1617
 1533TIP3    H226235   1.718   3.704   6.971 -0.7008 -1.1569 -0.3456
 1534TIP3   OH226236   1.353   0.119   0.947  0.0078  0.0751 -0.3564
 1534TIP3    H126237   1.275   0.108   1.003  0.2537 -0.1176 -0.0497
 1534TIP3    H226238   1.325   0.183   0.881 -0.5142 -0.2371 -0.4445
 1535TIP3   OH226239   5.653   0.194   8.773  0.1562  0.1337 -0.0513
 1535TIP3    H126240   5.696   0.116   8.737 -1.5051 -0.1110 -1.6630
 1535TIP3    H226241   5.703   0.267   8.739  2.9727 -0.1070  3.0695
 1536TIP3   OH226242   2.183   1.208   0.657 -0.5690 -0.6551 -0.8120
 1536TIP3    H126243   2.164   1.302   0.663 -2.4123 -0.9164 -1.9512
 1536TIP3    H226244   2.133   1.169   0.728  2.1109 -0.6192  1.2645
 1537TIP3   OH226245   0.868   6.573   8.411 -0.0621  0.1407 -0.1387
 1537TIP3    H126246   0.871   6.492   8.462 -1.6222  0.3243  0.3006
 1537TIP3    H226247   0.886   6.643   8.474 -0.8924  0.2799 -0.0343
 1538TIP3   OH226248   1.744   5.137   8.795  0.1723  0.2792  0.4469
 1538TIP3    H126249   1.704   5.050   8.787 -0.5342  0.6581 -0.2693
 1538TIP3    H226250   1.703   5.176   8.872  0.0559  0.2081  0.4202
 1539TIP3   OH226251   4.239   0.255   0.152  0.0381 -0.2869 -0.0844
 1539TIP3    H126252   4.251   0.277   0.245  1.4624  0.9586 -0.5181
 1539TIP3    H226253   4.262   0.162   0.146 -1.0375 -0.6430  0.9557
 1540TIP3   OH226254   5.389   0.389   1.440 -0.1907  0.1700 -0.5428
 1540TIP3    H126255   5.307   0.362   1.398 -0.9626 -0.0621  1.0594
 1540TIP3    H226256   5.366   0.466   1.491  0.7396  0.4501 -0.5295
 1541TIP3   OH226257   3.679   6.446   0.934 -0.0101  0.5092 -0.9942
 1541TIP3    H126258   3.633   6.412   0.858 -1.0446  0.4218 -0.3475
 1541TIP3    H226259   3.741   6.378   0.958 -3.0458 -1.7635  1.1893
 1542TIP3   OH226260   0.528   5.794   1.195  0.0856 -0.0605  0.2373
 1542TIP3    H126261   0.552   5.710   1.154  0.5335  0.0037  0.3608
 1542TIP3    H226262   0.528   5.775   1.289  0.5068  0.1534  0.2843
 1543TIP3   OH226263   4.011   5.957   0.196 -0.3385 -0.2718  0.2879
 1543TIP3    H126264   4.071   5.954   0.122  0.9602 -0.9372  1.3283
 1543TIP3    H226265   3.962   5.875   0.191  0.7094 -0.9610  0.9056
 1544TIP3   OH226266   4.882   5.340   1.706 -0.1894  0.5930 -0.4805
 1544TIP3    H126267   4.924   5.347   1.620  0.9537 -1.1740 -0.1183
 1544TIP3    H226268   4.791   5.315   1.686 -0.0515  0.6314 -1.1812
 1545TIP3   OH226269   4.123   6.774   0.674 -0.7401  0.9452 -0.0657
 1545TIP3    H126270   4.194   6.838   0.671  1.0690 -0.9545 -0.7271
 1545TIP3    H226271   4.061   6.809   0.737  0.5299  2.9425  0.1603
 1546TIP3   OH226272   3.815   5.706   1.449  0.5311  0.8722 -0.6972
 1546TIP3    H126273   3.863   5.709   1.532  0.2045  0.9744 -0.5062
 1546TIP3    H226274   3.732   5.749   1.469 -0.5026 -1.1100 -0.4446
 1547TIP3   OH226275   5.967   6.283   1.713 -0.3861 -0.2634 -0.8237
 1547TIP3    H126276   5.970   6.238   1.629  1.8159 -1.6249 -0.0973
 1547TIP3    H226277   5.913   6.226   1.769  0.1590 -0.6262 -0.6593
 1548TIP3   OH226278   2.084   2.789   1.997  0.3290 -0.0614 -0.0286
 1548TIP3    H126279   2.144   2.729   2.042 -0.9562  0.2432  2.2854
 1548TIP3    H226280   2.070   2.860   2.061 -2.8269 -0.3589 -0.2218
 1549TIP3   OH226281   0.732   3.695   7.300  0.1175  0.5912 -0.1991
 1549TIP3    H126282   0.800   3.695   7.233  0.7559 -1.0746  0.3843
 1549TIP3    H226283   0.650   3.700   7.250  0.4340 -3.1061 -1.4289
 1550TIP3   OH226284   3.368   2.879   1.762  0.0427 -0.5156  0.2692
 1550TIP3    H126285   3.445   2.936   1.763  1.0565 -1.8235  1.0350
 1550TIP3    H226286   3.354   2.856   1.854  0.1083 -2.0566 -0.0860
 1551TIP3   OH226287   1.694   6.174   2.887  0.5683  0.0759  0.0671
 1551TIP3    H126288   1.645   6.096   2.915  1.6235 -0.7124 -0.1896
 1551TIP3    H226289   1.637   6.216   2.823 -0.1694 -0.2988  0.4626
 1552TIP3   OH226290   3.153   1.635   0.330  0.6508 -0.3125 -0.0099
 1552TIP3    H126291   3.073   1.595   0.365  1.1187 -1.9844 -0.7628
 1552TIP3    H226292   3.136   1.644   0.236  0.7720  0.7960  0.0577
 1553TIP3   OH226293   6.235   1.152   2.234  0.3201  0.2067  0.0567
 1553TIP3    H126294   6.261   1.102   2.157 -0.1746  1.8351 -1.2383
 1553TIP3    H226295   6.141   1.135   2.243  0.1074  0.9785 -0.5070
 1554TIP3   OH226296   4.699   4.733   0.211  0.2379 -0.1038  0.0585
 1554TIP3    H126297   4.749   4.770   0.139  0.2983 -1.5135 -0.6729
 1554TIP3    H226298   4.711   4.638   0.201 -1.0885 -0.3888  0.9489
 1555TIP3   OH226299   1.328   5.708   1.626 -0.5365  0.1912  0.2437
 1555TIP3    H126300   1.343   5.738   1.715 -4.1774 -1.3585  1.5623
 1555TIP3    H226301   1.263   5.768   1.590 -1.1330 -0.7574 -0.3351
 1556TIP3   OH226302   5.890   3.005   1.182  0.2545 -0.0009 -0.1978
 1556TIP3    H126303   5.849   3.069   1.124  0.0396 -1.3057 -1.5600
 1556TIP3    H226304   5.984   3.016   1.168  0.2264  0.1709 -0.2507
 1557TIP3   OH226305   5.159   0.391   0.272  0.1187 -0.2141 -0.1350
 1557TIP3    H126306   5.229   0.411   0.209  1.2374  1.4701  1.5350
 1557TIP3    H226307   5.084   0.441   0.240 -0.2149 -1.5769 -1.6217
 1558TIP3   OH226308   2.928   3.873   0.838  0.2679  0.1512  0.0338
 1558TIP3    H126309   2.926   3.903   0.747 -1.9352 -0.1393 -0.0755
 1558TIP3    H226310   2.837   3.880   0.868  0.9612  0.4207  2.2924
 1559TIP3   OH226311   5.186   0.699   1.439 -0.1731  0.4759 -0.0624
 1559TIP3    H126312   5.207   0.729   1.350  0.9897 -1.0001 -0.3224
 1559TIP3    H226313   5.096   0.667   1.432  0.1042 -0.1773 -0.8825
 1560TIP3   OH226314   2.450   3.081   8.846  0.3262 -0.2043 -0.2591
 1560TIP3    H126315   2.497   3.071   8.929 -1.1698  2.0711  0.9543
 1560TIP3    H226316   2.475   3.167   8.814 -0.7970 -0.1487 -1.0515
 1561TIP3   OH226317   6.477   5.401   1.874  0.3413 -0.5932  0.1069
 1561TIP3    H126318   6.517   5.470   1.821  0.2516  0.6900  1.6566
 1561TIP3    H226319   6.550   5.342   1.894  0.7267 -0.1777 -0.0358
 1562TIP3   OH226320   6.293   4.881   7.869  0.3616  0.2693  0.2683
 1562TIP3    H126321   6.221   4.892   7.807  0.4264  1.2775  0.3505
 1562TIP3    H226322   6.254   4.901   7.954  1.1376  2.7367  0.1181
 1563TIP3   OH226323   1.647   6.548   0.009  0.5455 -0.3152  0.2558
 1563TIP3    H126324   1.560   6.522  -0.023  0.0039  1.7933 -0.0828
 1563TIP3    H226325   1.706   6.528  -0.064  0.3891 -1.7214  0.4721
 1564TIP3   OH226326   5.541   1.973   3.161 -0.2548 -0.1171 -0.4303
 1564TIP3    H126327   5.603   2.034   3.120 -1.1383  0.8981 -0.3083
 1564TIP3    H226328   5.596   1.906   3.201  0.8481  1.4866  0.8636
 1565TIP3   OH226329   5.478   3.174   1.691 -0.2808  0.3490  0.3162
 1565TIP3    H126330   5.468   3.257   1.738  2.4575  0.3278  1.1739
 1565TIP3    H226331   5.518   3.116   1.756  1.2427 -0.4769 -1.2695
 1566TIP3   OH226332   2.228   6.631   0.679 -0.5068 -0.2696  0.5155
 1566TIP3    H126333   2.298   6.594   0.626 -0.1937  0.9401  0.0547
 1566TIP3    H226334   2.149   6.621   0.625 -0.5499 -0.8968  0.6929
 1567TIP3   OH226335   1.430   4.949   8.205 -0.2097  0.2800 -0.1506
 1567TIP3    H126336   1.432   4.871   8.150  0.5264  0.7646 -0.8340
 1567TIP3    H226337   1.463   5.019   8.149  1.8392  0.5454  1.2463
 1568TIP3   OH226338   4.823   2.518   1.118  0.0746  0.5727 -0.4964
 1568TIP3    H126339   4.795   2.594   1.067 -1.0175  1.2921  1.0675
 1568TIP3    H226340   4.765   2.519   1.195 -0.6557 -2.4397 -0.9012
 1569TIP3   OH226341   5.504   4.801   0.415  0.3105 -0.5712 -0.1893
 1569TIP3    H126342   5.479   4.842   0.332 -1.1543  3.3222  1.8987
 1569TIP3    H226343   5.599   4.806   0.417  0.3540 -0.4416 -1.4720
 1570TIP3   OH226344   4.320   0.465   7.600  0.3785 -0.2050  0.6914
 1570TIP3    H126345   4.407   0.445   7.567 -0.2527  0.6008 -1.6487
 1570TIP3    H226346   4.265   0.394   7.567 -0.2512  0.5522  0.0641
 1571TIP3   OH226347   3.162   6.360   0.808  0.5735 -0.2256  0.1797
 1571TIP3    H126348   3.255   6.339   0.811  0.3044 -1.5675 -0.0718
 1571TIP3    H226349   3.119   6.282   0.843 -0.4859  0.0431 -0.4922
 1572TIP3   OH226350   4.467   3.680   2.655 -0.4951 -0.3008  0.2954
 1572TIP3    H126351   4.397   3.659   2.716 -0.6029  2.1891  1.1426
 1572TIP3    H226352   4.487   3.597   2.611 -1.8085 -1.7273  2.2478
 1573TIP3   OH226353   1.557   6.192   1.926  0.2432 -0.0509  0.1053
 1573TIP3    H126354   1.462   6.182   1.934  0.4348 -0.8070  2.0556
 1573TIP3    H226355   1.572   6.207   1.833 -1.6457 -1.6450 -0.5219
 1574TIP3   OH226356   4.802   5.054   8.909  0.2806 -0.3939  0.1159
 1574TIP3    H126357   4.803   5.098   8.994  1.6832 -1.6001  0.7877
 1574TIP3    H226358   4.723   5.000   8.911 -0.3607  0.5244  0.1182
 1575TIP3   OH226359   2.258   5.665   0.801  0.0952  0.2143  0.4769
 1575TIP3    H126360   2.189   5.659   0.867 -0.3445 -2.8157 -0.1217
 1575TIP3    H226361   2.339   5.659   0.852 -0.1601  0.6694  0.9491
 1576TIP3   OH226362   5.246   5.121   6.807  0.3529 -0.0627 -0.8605
 1576TIP3    H126363   5.326   5.174   6.811 -0.9018  2.0507 -1.9530
 1576TIP3    H226364   5.219   5.111   6.899  1.4558 -0.1614 -0.5380
 1577TIP3   OH226365   3.236   4.775   1.252  0.8402  0.2432  0.9186
 1577TIP3    H126366   3.313   4.818   1.289  1.8520  0.6062 -1.4563
 1577TIP3    H226367   3.214   4.826   1.174 -1.3012 -0.3781  1.0349
 1578TIP3   OH226368   2.468   3.344   1.626 -0.5190  0.2027 -0.5922
 1578TIP3    H126369   2.559   3.369   1.640  0.4027 -2.7026 -0.5433
 1578TIP3    H226370   2.430   3.343   1.714 -0.0495 -0.3167 -0.3897
 1579TIP3   OH226371   3.729   2.358   6.803 -0.1994  0.0601 -0.1950
 1579TIP3    H126372   3.805   2.412   6.782 -0.1482 -0.2559 -0.8611
 1579TIP3    H226373   3.759   2.300   6.873  0.1448  0.0126 -0.3810
 1580TIP3   OH226374   2.817   5.939   7.807 -0.2269 -0.3716 -0.3433
 1580TIP3    H126375   2.832   6.029   7.775  0.0014 -0.9478 -1.9649
 1580TIP3    H226376   2.751   5.904   7.748 -0.4982 -1.2033  0.4396
 1581TIP3   OH226377   2.953   4.779   8.828 -0.1531  0.1413 -0.6017
 1581TIP3    H126378   2.881   4.727   8.864  0.0661 -0.4852 -1.0514
 1581TIP3    H226379   2.980   4.835   8.901 -1.0388  0.3329 -0.4048
 1582TIP3   OH226380   0.146   5.651   1.501 -0.4177 -0.5733  0.2385
 1582TIP3    H126381   0.101   5.588   1.444  1.8407 -2.3262  0.2528
 1582TIP3    H226382   0.182   5.597   1.571 -0.6918  1.1636  1.7808
 1583TIP3   OH226383   1.539   5.596   1.959 -0.5538  0.9165 -0.3375
 1583TIP3    H126384   1.497   5.600   2.045 -1.0317  0.9492 -0.5656
 1583TIP3    H226385   1.491   5.660   1.906 -0.1458  1.0263 -0.5785
 1584TIP3   OH226386   5.298   0.124   8.131  0.1154  0.3281 -0.6632
 1584TIP3    H126387   5.207   0.142   8.154  0.2390 -0.0155  0.1135
 1584TIP3    H226388   5.320   0.045   8.179  0.6820  0.1277 -1.2303
 1585TIP3   OH226389   5.909   4.385   8.387 -0.3988  0.2832 -0.1208
 1585TIP3    H126390   5.855   4.311   8.417  2.3362 -1.5299  0.6887
 1585TIP3    H226391   5.928   4.365   8.296  2.2137 -1.3951  0.6751
 1586TIP3   OH226392   0.179   1.668   1.545 -0.0534 -0.1481 -0.1889
 1586TIP3    H126393   0.182   1.619   1.462  3.0505  1.6018 -1.3030
 1586TIP3    H226394   0.105   1.727   1.534 -0.5509 -0.9015 -1.1208
 1587TIP3   OH226395   4.552   2.869   1.342  0.3973  0.4347 -0.0815
 1587TIP3    H126396   4.575   2.892   1.252  1.0231 -2.2587 -0.6869
 1587TIP3    H226397   4.495   2.792   1.333  0.3353  0.2243  1.8255
 1588TIP3   OH226398   6.569   6.358   6.636 -0.0895  0.0455 -0.1461
 1588TIP3    H126399   6.588   6.361   6.730  0.3737  2.4902 -0.2717
 1588TIP3    H226400   6.568   6.449   6.608  1.2363 -0.6617 -2.8283
 1589TIP3   OH226401   5.707   4.692   8.403  0.0298  0.7240 -0.4786
 1589TIP3    H126402   5.784   4.696   8.460 -0.8042  0.0817  0.7312
 1589TIP3    H226403   5.667   4.607   8.422  0.2124  0.0848 -2.7076
 1590TIP3   OH226404   2.385   2.463   2.303  0.1421  0.5065 -0.0305
 1590TIP3    H126405   2.368   2.427   2.390 -0.0264  2.3641  0.7599
 1590TIP3    H226406   2.338   2.406   2.243 -1.7706  0.5482  1.3317
 1591TIP3   OH226407   3.131   3.828   0.145 -0.0785  0.2132 -0.0367
 1591TIP3    H126408   3.177   3.815   0.063 -1.4862  0.8068 -0.9716
 1591TIP3    H226409   3.120   3.923   0.151  0.2035  0.1913  0.9498
 1592TIP3   OH226410   3.192   6.456   0.518  0.0233 -0.5170  0.0116
 1592TIP3    H126411   3.249   6.398   0.465 -0.1667  1.0206 -1.9962
 1592TIP3    H226412   3.138   6.396   0.569 -1.1808 -2.2799 -3.0402
 1593TIP3   OH226413   6.731   4.660   8.873 -0.3390  0.0311  0.0532
 1593TIP3    H126414   6.806   4.709   8.906 -1.1727  1.1988  0.2909
 1593TIP3    H226415   6.729   4.580   8.926  0.8699 -0.1339 -0.1296
 1594TIP3   OH226416   5.060   1.308   8.753 -0.0760  0.3349 -0.4874
 1594TIP3    H126417   5.073   1.394   8.714 -1.0000 -0.4085 -2.5337
 1594TIP3    H226418   5.018   1.326   8.837  0.3500  1.8929 -0.5780
 1595TIP3   OH226419   1.639   1.746   8.015 -0.4644  0.8472  0.3470
 1595TIP3    H126420   1.550   1.736   8.049 -0.3155  2.1055  1.1844
 1595TIP3    H226421   1.684   1.797   8.082  1.9392 -2.6826  1.7157
 1596TIP3   OH226422   3.069   4.016   1.887  0.3840  0.4485 -0.0221
 1596TIP3    H126423   3.091   4.032   1.978 -0.5291 -0.8098  0.4479
 1596TIP3    H226424   2.977   4.043   1.879 -1.0915 -3.6754  0.6964
 1597TIP3   OH226425   4.221   4.457   7.642  0.2497 -0.6067  0.1560
 1597TIP3    H126426   4.227   4.532   7.702  0.5808  1.2893 -2.1108
 1597TIP3    H226427   4.172   4.391   7.691 -0.7372  1.3778  1.9855
 1598TIP3   OH226428   0.613   4.747   0.329 -0.6897  0.0627  0.1283
 1598TIP3    H126429   0.551   4.784   0.266 -0.4249  0.9031  0.3468
 1598TIP3    H226430   0.560   4.690   0.384 -1.1884  0.4415  0.0443
 1599TIP3   OH226431   2.346   1.328   8.528 -0.0015 -0.9263  0.1385
 1599TIP3    H126432   2.406   1.374   8.586  2.4061 -1.0667 -2.0739
 1599TIP3    H226433   2.278   1.392   8.507  0.2309 -0.2318  1.4326
 1600TIP3   OH226434   4.233   6.525   0.662  0.3259  0.0350 -0.1552
 1600TIP3    H126435   4.267   6.508   0.750 -0.9147 -0.7712  0.1815
 1600TIP3    H226436   4.176   6.601   0.672  0.0779 -0.1405 -0.2485
 1601TIP3   OH226437   1.967   1.292   1.422  0.5102  0.2653 -0.6622
 1601TIP3    H126438   2.030   1.224   1.400 -0.5524 -0.8774 -0.3374
 1601TIP3    H226439   1.940   1.327   1.337  0.1960 -0.5643 -0.9218
 1602TIP3   OH226440   2.140   4.055   8.076  0.0734  0.2377  0.6167
 1602TIP3    H126441   2.196   4.101   8.013 -0.3453  1.4177  1.0837
 1602TIP3    H226442   2.171   4.085   8.161  0.6309 -1.3391  1.0044
 1603TIP3   OH226443   4.953   3.132   0.189 -0.2874  0.3574  0.1852
 1603TIP3    H126444   5.008   3.088   0.124 -0.0677 -1.3926  1.4795
 1603TIP3    H226445   4.863   3.111   0.163 -0.2626  0.9879 -0.4274
 1604TIP3   OH226446   3.336   0.420   7.372 -0.2387 -0.1555  0.1332
 1604TIP3    H126447   3.311   0.421   7.464 -1.9845  1.1167 -0.2913
 1604TIP3    H226448   3.264   0.375   7.328  1.2665 -2.0752 -0.4855
 1605TIP3   OH226449   2.870   6.669   8.837 -0.7643 -0.2548 -0.2659
 1605TIP3    H126450   2.914   6.706   8.913 -0.2618 -1.3955  0.0198
 1605TIP3    H226451   2.780   6.699   8.844 -0.8087 -0.6535  0.9819
 1606TIP3   OH226452   1.602   0.481   1.278 -0.3309 -0.5466 -0.5890
 1606TIP3    H126453   1.643   0.545   1.220  0.4364 -1.3316 -0.9398
 1606TIP3    H226454   1.512   0.475   1.248 -0.4072  0.3576 -0.5559
 1607TIP3   OH226455   4.825   6.756   2.993  0.5652  0.3539  0.1954
 1607TIP3    H126456   4.786   6.792   2.914  0.4618 -1.5532 -0.6706
 1607TIP3    H226457   4.751   6.725   3.045  0.7439 -0.6626 -0.1348
 1608TIP3   OH226458   1.697   1.865   8.589 -0.1360  0.3797  0.1481
 1608TIP3    H126459   1.603   1.861   8.573 -0.1973  1.9365 -0.0835
 1608TIP3    H226460   1.718   1.782   8.632 -1.5176 -0.1933 -0.2252
 1609TIP3   OH226461   4.940   2.428   1.602  0.2443 -0.3276  0.0052
 1609TIP3    H126462   4.907   2.434   1.692  1.7639 -0.2823  0.5817
 1609TIP3    H226463   4.917   2.512   1.563  2.1224  0.8393  1.2777
 1610TIP3   OH226464   5.263   2.923   7.678 -0.0741  1.0856 -0.1148
 1610TIP3    H126465   5.303   2.861   7.617 -2.5855 -1.1359  0.2691
 1610TIP3    H226466   5.235   2.996   7.624  0.7445  0.7164 -1.0506
 1611TIP3   OH226467   3.115   3.981   8.593  0.6600  0.2068  0.4796
 1611TIP3    H126468   3.205   3.995   8.563  1.2815 -0.5260  1.8904
 1611TIP3    H226469   3.111   3.887   8.612  0.1969  0.5451  2.2386
 1612TIP3   OH226470   2.665   2.784   6.403  0.5548 -0.1609  0.4409
 1612TIP3    H126471   2.661   2.772   6.498 -3.0328 -0.0043  0.4423
 1612TIP3    H226472   2.610   2.713   6.368  1.9687 -0.3476 -1.5813
 1613TIP3   OH226473   0.011   3.715   0.252 -0.4378 -0.4682  0.0438
 1613TIP3    H126474  -0.072   3.763   0.251 -0.1730  0.0075 -0.7504
 1613TIP3    H226475   0.000   3.648   0.319 -0.6807  0.9790  1.5114
 1614TIP3   OH226476   4.546   6.343   0.323  0.1902  0.1328  0.1131
 1614TIP3    H126477   4.634   6.317   0.351  0.9411 -0.2607 -2.3855
 1614TIP3    H226478   4.489   6.274   0.356  1.0951 -0.6545  0.0854
 1615TIP3   OH226479   6.137   0.077   0.611 -0.3872  0.2787 -0.2168
 1615TIP3    H126480   6.179  -0.001   0.649  0.2992  0.2642 -0.9678
 1615TIP3    H226481   6.147   0.144   0.677  1.5566  0.4934 -0.6523
 1616TIP3   OH226482   2.713   5.021   1.579  0.1538 -0.0559  0.0139
 1616TIP3    H126483   2.626   5.028   1.539 -0.0690  2.0167  0.7634
 1616TIP3    H226484   2.773   5.024   1.504 -0.3752 -1.4549 -0.5073
 1617TIP3   OH226485   1.534   2.012   2.874  0.0542  0.0832 -0.3587
 1617TIP3    H126486   1.473   2.020   2.801 -0.6170 -0.2202  0.1598
 1617TIP3    H226487   1.613   2.058   2.844 -0.5878  0.8998 -0.8476
 1618TIP3   OH226488   1.563   0.767   0.007 -0.7752  0.2794  0.0004
 1618TIP3    H126489   1.550   0.672  -0.004 -2.0990  0.3707  0.6811
 1618TIP3    H226490   1.639   0.774   0.065 -0.2873 -0.3442 -0.5434
 1619TIP3   OH226491   6.320   5.986   0.552  0.3419 -0.5280 -0.1154
 1619TIP3    H126492   6.257   6.012   0.620  0.4601 -0.9856  0.1720
 1619TIP3    H226493   6.331   5.892   0.565  2.1714 -0.2409  0.7551
 1620TIP3   OH226494   4.851   6.687   7.352 -0.0797 -0.0694 -0.0800
 1620TIP3    H126495   4.841   6.600   7.314 -0.2043 -0.2537  0.3721
 1620TIP3    H226496   4.840   6.674   7.446  2.0399  0.0935  0.2304
 1621TIP3   OH226497   0.664   2.722   7.602 -1.3268  0.0395  0.1101
 1621TIP3    H126498   0.616   2.683   7.529 -0.1698 -0.7372 -0.2549
 1621TIP3    H226499   0.670   2.653   7.667 -0.2175 -0.0639 -0.0849
 1622TIP3   OH226500   2.112   1.430   2.648  0.1130 -0.2131  0.0125
 1622TIP3    H126501   2.069   1.497   2.594  1.8718  0.7087 -0.3347
 1622TIP3    H226502   2.195   1.413   2.603  1.0423 -0.3964  1.6966
 1623TIP3   OH226503   6.595   4.975   0.906 -0.3054 -0.5634  0.3577
 1623TIP3    H126504   6.547   4.951   0.985 -1.2760  0.3928  0.0920
 1623TIP3    H226505   6.561   4.917   0.838  0.1019 -0.9866  0.5124
 1624TIP3   OH226506   1.820   0.818   7.772 -0.4329  0.4831  0.8410
 1624TIP3    H126507   1.768   0.810   7.852 -1.4117  1.1658  0.3044
 1624TIP3    H226508   1.756   0.809   7.701  0.2645  0.8706  0.1443
 1625TIP3   OH226509   3.986   5.134   1.423  0.4663 -0.5182 -0.2933
 1625TIP3    H126510   3.940   5.050   1.432 -0.2692  0.0382  1.9727
 1625TIP3    H226511   3.968   5.162   1.334 -0.6534 -1.9866 -0.5735
 1626TIP3   OH226512   4.998   3.933   8.354  0.3054 -0.0685 -0.4112
 1626TIP3    H126513   5.016   3.925   8.448 -0.1964  1.5469 -0.1495
 1626TIP3    H226514   4.922   3.990   8.348  1.2196  1.0769 -1.8489
 1627TIP3   OH226515   5.007   5.124   7.301  0.0355 -0.2376 -0.0451
 1627TIP3    H126516   4.954   5.140   7.223 -0.7740  0.0084  0.5432
 1627TIP3    H226517   4.980   5.192   7.363  1.0761 -0.0762  0.2545
 1628TIP3   OH226518   2.111   2.258   1.317 -0.0811  0.1248 -0.6975
 1628TIP3    H126519   2.061   2.256   1.399 -0.0999  0.0677 -0.7102
 1628TIP3    H226520   2.074   2.331   1.269 -1.2399 -0.8774 -1.3858
 1629TIP3   OH226521   3.110   4.846   1.690 -0.1423  0.0155  0.1373
 1629TIP3    H126522   3.182   4.785   1.704 -2.7463 -3.8191 -1.4079
 1629TIP3    H226523   3.049   4.829   1.762 -0.6906  1.1987 -0.0227
 1630TIP3   OH226524   2.829   4.743   7.518  0.5640  0.1639 -0.1363
 1630TIP3    H126525   2.830   4.673   7.583  1.9650  0.3576  0.0731
 1630TIP3    H226526   2.797   4.701   7.438  1.6433 -0.8022 -0.0902
 1631TIP3   OH226527   0.427   3.571   2.722 -0.0743 -0.2912  0.0718
 1631TIP3    H126528   0.380   3.596   2.641  0.1745 -1.6702 -0.5190
 1631TIP3    H226529   0.410   3.644   2.782  0.8963  1.4676 -1.6651
 1632TIP3   OH226530   1.523   6.341   8.582 -0.1479 -0.0220 -0.0649
 1632TIP3    H126531   1.506   6.247   8.572  0.1799  0.0061 -1.0442
 1632TIP3    H226532   1.608   6.345   8.625 -0.7171 -0.1638  1.1074
 1633TIP3   OH226533   4.758   5.668   1.631  0.0661 -0.2037 -0.1692
 1633TIP3    H126534   4.741   5.762   1.638 -1.1135 -0.2373 -1.9184
 1633TIP3    H226535   4.732   5.633   1.716 -1.9175  0.7470 -0.3170
 1634TIP3   OH226536   0.809   2.016   7.908 -0.0953 -0.3900 -0.0764
 1634TIP3    H126537   0.850   2.014   7.822  2.3328  1.0075  0.9416
 1634TIP3    H226538   0.743   1.947   7.905 -0.0893 -0.3922 -3.0078
 1635TIP3   OH226539   0.642   4.652   8.853  0.0580 -0.2441  0.4199
 1635TIP3    H126540   0.734   4.676   8.844  0.1971 -1.0210 -0.4173
 1635TIP3    H226541   0.599   4.688   8.775 -0.3732  0.2306  0.8723
 1636TIP3   OH226542   5.701   1.482   7.518  0.0629 -0.1211  0.0422
 1636TIP3    H126543   5.754   1.415   7.560 -1.9519 -0.9549  1.3904
 1636TIP3    H226544   5.763   1.529   7.461  2.1064 -1.3136  1.1576
 1637TIP3   OH226545   5.873   0.009   2.727 -0.4995  0.0614  0.4230
 1637TIP3    H126546   5.813  -0.007   2.654 -0.3193  1.9514 -0.1807
 1637TIP3    H226547   5.863  -0.068   2.783 -2.0502 -0.5536 -0.6332
 1638TIP3   OH226548   4.334   4.765   7.581  0.6146 -0.0551 -0.0370
 1638TIP3    H126549   4.326   4.844   7.634  2.5988  0.7221 -0.8067
 1638TIP3    H226550   4.281   4.700   7.628 -0.9088  1.6348  0.7171
 1639TIP3   OH226551   4.858   4.127   1.577  0.3327  0.3652 -0.0451
 1639TIP3    H126552   4.818   4.130   1.664 -2.3216 -0.9977 -1.1090
 1639TIP3    H226553   4.839   4.039   1.545  2.5484  0.3358 -1.4851
 1640TIP3   OH226554   6.494   5.010   8.289  0.2136  0.6334  0.8352
 1640TIP3    H126555   6.457   5.050   8.211  0.3955  1.2927  1.0872
 1640TIP3    H226556   6.525   4.924   8.259  0.3121  0.8930  0.1729
 1641TIP3   OH226557   0.600   3.752   0.345 -0.2741 -0.3232 -0.7200
 1641TIP3    H126558   0.607   3.665   0.383 -1.7055 -0.1068  0.1419
 1641TIP3    H226559   0.551   3.739   0.264  0.5270 -0.4537 -1.1926
 1642TIP3   OH226560   5.123   2.138   1.193  0.0302 -0.0982  0.0678
 1642TIP3    H126561   5.072   2.184   1.126  0.1374 -0.4506 -0.2605
 1642TIP3    H226562   5.128   2.200   1.266  0.5710  0.6052 -0.5432
 1643TIP3   OH226563   1.967   4.776   2.114 -0.1853 -0.0877  0.1003
 1643TIP3    H126564   1.995   4.865   2.135  3.0144 -0.9389  0.0736
 1643TIP3    H226565   1.872   4.781   2.108 -0.1653  3.1832  0.6330
 1644TIP3   OH226566   4.421   2.846   7.889 -0.0074 -0.2318  0.6677
 1644TIP3    H126567   4.495   2.860   7.831 -0.5099  1.2942  0.3309
 1644TIP3    H226568   4.367   2.780   7.845 -0.4816  1.0453 -0.7524
 1645TIP3   OH226569   1.083   0.131   7.668  0.5736  0.6015 -0.1652
 1645TIP3    H126570   1.080   0.189   7.743 -0.0205  1.4161 -0.8049
 1645TIP3    H226571   1.001   0.148   7.621  1.6449  1.2990 -1.8609
 1646TIP3   OH226572   6.425   3.651   2.568  0.1416  0.3527 -0.0206
 1646TIP3    H126573   6.425   3.741   2.535 -0.3230  0.7542  1.0284
 1646TIP3    H226574   6.346   3.612   2.531 -0.7543  1.0150  1.1185
 1647TIP3   OH226575   4.135   1.501   2.132 -0.4984 -0.4909 -0.1605
 1647TIP3    H126576   4.068   1.565   2.109 -0.2461 -0.5611 -1.1411
 1647TIP3    H226577   4.152   1.516   2.225 -2.4188 -0.9875  0.3000
 1648TIP3   OH226578   1.560   5.996   0.789  0.3093 -0.7160 -0.0753
 1648TIP3    H126579   1.549   6.091   0.786  0.6877 -0.5926  1.4470
 1648TIP3    H226580   1.475   5.961   0.762 -0.4114  0.0891  1.0420
 1649TIP3   OH226581   4.985   3.068   1.711  0.0435 -0.1322 -0.3467
 1649TIP3    H126582   4.951   3.089   1.798 -0.7568  0.7470 -0.8613
 1649TIP3    H226583   5.076   3.041   1.728 -0.2084 -0.3341  0.7934
 1650TIP3   OH226584   1.039   3.984   0.183 -0.4548 -0.0835 -0.3970
 1650TIP3    H126585   1.057   3.970   0.090  0.1117  0.5669 -0.3939
 1650TIP3    H226586   0.954   4.027   0.185  0.3848  1.6887 -0.7553
 1651TIP3   OH226587   2.119   3.987   0.964  0.2046  0.0972  0.4061
 1651TIP3    H126588   2.164   3.913   0.924 -1.2551 -0.5896 -0.0233
 1651TIP3    H226589   2.084   3.952   1.046  1.9355  1.1141  1.6652
 1652TIP3   OH226590   2.871   3.069   0.336 -0.4188 -0.2176 -0.2508
 1652TIP3    H126591   2.872   3.164   0.330 -2.0961 -0.1916 -0.5071
 1652TIP3    H226592   2.869   3.051   0.430 -1.8925  0.0697 -0.2052
 1653TIP3   OH226593   2.208   2.519   0.638 -0.7108 -0.4456  0.1792
 1653TIP3    H126594   2.228   2.446   0.696 -0.8352  0.4391  1.3611
 1653TIP3    H226595   2.147   2.573   0.687  0.0590  0.9292 -0.3187
 1654TIP3   OH226596   6.374   4.287   2.721  0.3718 -0.1381 -0.3514
 1654TIP3    H126597   6.403   4.362   2.773  0.1490 -0.6258  0.4944
 1654TIP3    H226598   6.331   4.229   2.783  0.5246 -0.9689 -0.9896
 1655TIP3   OH226599   0.559   0.823   0.882  0.1670 -0.0879 -0.1701
 1655TIP3    H126600   0.502   0.804   0.957  0.8200 -3.1018 -0.3357
 1655TIP3    H226601   0.634   0.868   0.921 -0.1575 -0.3227  0.7521
 1656TIP3   OH226602   3.308   1.047   1.779 -0.2136 -0.4177 -0.2322
 1656TIP3    H126603   3.391   1.004   1.799  0.6554  1.4724  0.5262
 1656TIP3    H226604   3.242   0.993   1.822  0.9141 -0.5082  1.5045
 1657TIP3   OH226605   0.942   6.655   1.448  0.4647 -0.1672  0.2733
 1657TIP3    H126606   1.023   6.647   1.397  0.6893 -1.5277  0.7910
 1657TIP3    H226607   0.963   6.612   1.531  0.2015  2.2274  1.6548
 1658TIP3   OH226608   0.406   5.299   0.379  0.0048  0.4532  0.9628
 1658TIP3    H126609   0.371   5.386   0.398 -0.7620  0.4265 -0.2302
 1658TIP3    H226610   0.346   5.239   0.424 -0.8482  0.4618 -0.1136
 1659TIP3   OH226611   2.657   3.006   2.061 -0.1694  0.0910 -0.0634
 1659TIP3    H126612   2.619   3.076   2.115 -0.9063  0.5113 -1.0977
 1659TIP3    H226613   2.585   2.944   2.049  0.4478 -0.8188  0.7566
 1660TIP3   OH226614   2.243   6.601   1.929  0.2802  0.1354 -0.2278
 1660TIP3    H126615   2.218   6.509   1.929  1.0970 -0.1029  0.8570
 1660TIP3    H226616   2.160   6.649   1.922 -0.3175 -0.6552  1.0988
 1661TIP3   OH226617   4.394   1.583   2.255 -0.0349  0.0510 -0.1433
 1661TIP3    H126618   4.466   1.522   2.239  0.7852  0.6624  1.0361
 1661TIP3    H226619   4.383   1.582   2.350 -0.4125  1.2738 -0.1612
 1662TIP3   OH226620   6.773   4.781   0.662  0.5455 -0.5327  0.2141
 1662TIP3    H126621   6.731   4.742   0.739  1.0322 -0.5089  0.4967
 1662TIP3    H226622   6.728   4.864   0.649 -0.1577 -0.9546 -0.0862
 1663TIP3   OH226623   6.497   4.166   0.274 -0.0168  0.4767  0.1370
 1663TIP3    H126624   6.448   4.237   0.233  0.6961  0.8543 -0.0780
 1663TIP3    H226625   6.473   4.170   0.367 -0.3802  0.6585  0.0374
 1664TIP3   OH226626   4.596   0.550   2.499  0.0954  0.9427 -0.1267
 1664TIP3    H126627   4.526   0.612   2.480  0.3880  0.7239 -2.1482
 1664TIP3    H226628   4.573   0.513   2.585 -0.7169  2.9266  0.5567
 1665TIP3   OH226629   5.685   3.569   1.192  0.0061 -0.1293 -0.6867
 1665TIP3    H126630   5.622   3.507   1.228  0.5696  0.9545  2.4386
 1665TIP3    H226631   5.639   3.612   1.120 -1.0774 -2.6899 -1.6286
 1666TIP3   OH226632   2.246   2.147   7.294  0.2081 -0.6083  0.0114
 1666TIP3    H126633   2.240   2.167   7.200 -0.0158  0.5912  0.2684
 1666TIP3    H226634   2.337   2.164   7.316  0.2864 -0.9966 -0.0059
 1667TIP3   OH226635   2.744   0.585   0.722  0.0691  0.2443  0.2143
 1667TIP3    H126636   2.748   0.505   0.773  2.0848  0.1383 -0.0077
 1667TIP3    H226637   2.678   0.639   0.765  0.4538 -0.5455  1.8483
 1668TIP3   OH226638   2.090   0.679   6.780 -0.0331  0.3064 -0.1701
 1668TIP3    H126639   2.047   0.764   6.791 -3.6591 -1.5163  1.6042
 1668TIP3    H226640   2.129   0.661   6.865  0.5171  0.0798 -0.4657
 1669TIP3   OH226641   1.647   6.691   2.796 -0.2737 -0.0037 -0.2825
 1669TIP3    H126642   1.738   6.702   2.824 -0.6553 -0.7940  1.3779
 1669TIP3    H226643   1.642   6.599   2.768 -0.8278 -0.3127  0.7784
 1670TIP3   OH226644   3.689   3.986   8.157 -0.7308  0.2023 -0.3039
 1670TIP3    H126645   3.712   3.919   8.093  0.9112  0.5393 -0.0976
 1670TIP3    H226646   3.714   4.068   8.116  1.0497  0.3756  1.0204
 1671TIP3   OH226647   5.819   5.367   0.688 -0.3810 -0.4130 -0.4140
 1671TIP3    H126648   5.725   5.357   0.674 -0.4138 -0.1751 -0.3686
 1671TIP3    H226649   5.849   5.280   0.714 -0.4347 -0.7126 -1.3057
 1672TIP3   OH226650   6.570   4.217   2.499  0.1447  0.2802  0.1699
 1672TIP3    H126651   6.580   4.306   2.534  0.0308  0.3318  0.0738
 1672TIP3    H226652   6.534   4.166   2.571  1.9291 -0.1241  0.8263
 1673TIP3   OH226653   4.470   1.584   1.572  0.1712 -0.2601  0.7279
 1673TIP3    H126654   4.403   1.516   1.569  0.4861 -0.5390 -0.6421
 1673TIP3    H226655   4.436   1.654   1.516 -0.0939  0.7024  2.0155
 1674TIP3   OH226656   5.821   3.515   7.237 -0.3128  0.4934 -0.0794
 1674TIP3    H126657   5.854   3.481   7.321 -1.9852 -2.1433 -0.3895
 1674TIP3    H226658   5.781   3.599   7.260  0.0255  0.2350  1.5962
 1675TIP3   OH226659   6.499   3.488   6.448  0.6462 -0.2425  0.9090
 1675TIP3    H126660   6.478   3.577   6.477  1.3228  0.0707  0.4638
 1675TIP3    H226661   6.476   3.432   6.523 -0.3498  0.2311  0.9712
 1676TIP3   OH226662   1.505   0.217   1.751 -0.1653  0.2067  0.1929
 1676TIP3    H126663   1.569   0.170   1.697  1.7328  0.8861  1.7190
 1676TIP3    H226664   1.447   0.149   1.785  0.5713 -0.6140 -0.1559
 1677TIP3   OH226665   0.824   3.654   1.306  0.6101 -0.0273  0.4132
 1677TIP3    H126666   0.824   3.640   1.401  0.0525 -1.3528  0.2428
 1677TIP3    H226667   0.733   3.640   1.280  0.2223  2.7382 -0.0361
 1678TIP3   OH226668   6.695   3.881   0.992  0.1035  0.7788  0.3583
 1678TIP3    H126669   6.783   3.889   0.956  0.8214 -1.7758  1.3558
 1678TIP3    H226670   6.673   3.969   1.021  2.0785  1.5903 -0.4534
 1679TIP3   OH226671   2.988   5.976   1.384 -0.3441 -0.1294 -0.3445
 1679TIP3    H126672   3.055   5.912   1.362 -0.5790 -0.9897  1.3467
 1679TIP3    H226673   3.030   6.034   1.448 -1.6420 -1.6924  2.0686
 1680TIP3   OH226674   4.619   0.384   7.558 -0.2419  0.0712  0.0979
 1680TIP3    H126675   4.591   0.306   7.509  1.7810 -0.4174 -0.3389
 1680TIP3    H226676   4.649   0.350   7.643  1.2425  0.2661 -0.3268
 1681TIP3   OH226677   4.218   1.371   1.203  0.0618 -0.0514  0.2087
 1681TIP3    H126678   4.159   1.296   1.203  1.6516 -1.3788  0.8403
 1681TIP3    H226679   4.217   1.403   1.114 -0.7471 -0.7587 -0.0494
 1682TIP3   OH226680   0.701   4.164   0.396 -0.4420  0.1549 -0.4920
 1682TIP3    H126681   0.746   4.085   0.425  0.2471  0.9388  0.6163
 1682TIP3    H226682   0.704   4.159   0.300 -1.1653 -1.5688 -0.4546
 1683TIP3   OH226683   3.174   6.768   7.942  0.5147 -0.4135 -0.5143
 1683TIP3    H126684   3.101   6.779   7.882 -1.3285  0.4940  1.7326
 1683TIP3    H226685   3.245   6.818   7.903 -0.8476  0.7745 -1.5727
 1684TIP3   OH226686   3.798   5.998   8.047 -0.2294  0.4290 -0.3483
 1684TIP3    H126687   3.729   6.017   7.983 -0.9855 -0.8202  0.0541
 1684TIP3    H226688   3.767   6.038   8.128 -0.7276 -0.5335 -0.0518
 1685TIP3   OH226689   5.889   3.295   8.171 -0.1329 -0.3859  0.0071
 1685TIP3    H126690   5.943   3.291   8.250 -0.9476 -0.2879  0.5838
 1685TIP3    H226691   5.836   3.216   8.174  1.3881 -1.5192 -1.6256
 1686TIP3   OH226692   6.052   3.500   6.466 -0.4923 -0.0947 -0.4580
 1686TIP3    H126693   6.126   3.517   6.407  0.2759 -0.4241  0.3773
 1686TIP3    H226694   6.016   3.417   6.436  0.6373 -0.8662  0.2306
 1687TIP3   OH226695   3.345   0.467   8.565  0.3420 -0.0751 -0.4498
 1687TIP3    H126696   3.371   0.377   8.587  1.5408  0.1736 -0.7749
 1687TIP3    H226697   3.422   0.505   8.523 -0.8374  0.4334 -2.3101
 1688TIP3   OH226698   2.578   0.273   0.009 -0.3019 -0.4201 -0.0067
 1688TIP3    H126699   2.551   0.341  -0.052  0.5144 -0.2847 -0.2289
 1688TIP3    H226700   2.503   0.215   0.015 -0.5929 -0.1291 -0.7079
 1689TIP3   OH226701   4.330   0.724   8.846 -0.2446  0.0940 -0.0622
 1689TIP3    H126702   4.327   0.633   8.874 -0.6242  0.1888  0.2152
 1689TIP3    H226703   4.349   0.773   8.926  0.9589  0.1823 -0.3826
 1690TIP3   OH226704   6.712   4.540   1.712 -0.2385  0.0483  0.6025
 1690TIP3    H126705   6.663   4.622   1.704 -0.2330  0.0194  0.2432
 1690TIP3    H226706   6.645   4.471   1.703 -0.1445  0.0091  0.1639
 1691TIP3   OH226707   2.330   1.523   0.532 -0.0392  0.1339  0.0977
 1691TIP3    H126708   2.293   1.440   0.503 -0.5802  0.6805 -0.8424
 1691TIP3    H226709   2.346   1.572   0.451  2.8090 -0.0724  0.4236
 1692TIP3   OH226710   5.314   5.594   0.493  0.3180 -0.7746 -0.6349
 1692TIP3    H126711   5.339   5.685   0.506  1.2390 -0.9647 -0.9636
 1692TIP3    H226712   5.371   5.545   0.552  0.3548 -1.1879 -1.0082
 1693TIP3   OH226713   0.505   6.519   0.553 -0.2723 -0.3227 -0.6009
 1693TIP3    H126714   0.571   6.577   0.590 -0.3120  0.9166 -2.3800
 1693TIP3    H226715   0.534   6.503   0.464 -2.3044  0.1518 -1.3891
 1694TIP3   OH226716   4.365   3.766   1.944 -0.2074 -0.3488 -0.7665
 1694TIP3    H126717   4.283   3.807   1.970  0.7146  0.4264  1.0219
 1694TIP3    H226718   4.427   3.787   2.014  1.8716  0.1048 -2.6179
 1695TIP3   OH226719   3.044   0.659   8.254  0.1392  0.4820 -0.3351
 1695TIP3    H126720   3.002   0.705   8.182  0.9441  1.8274  0.0272
 1695TIP3    H226721   3.128   0.630   8.218 -0.0873 -0.1396 -0.3686
 1696TIP3   OH226722   2.993   1.866   1.775  0.2946 -0.1651  0.2479
 1696TIP3    H126723   2.979   1.940   1.715 -1.9367  1.4799  2.5687
 1696TIP3    H226724   2.937   1.796   1.740 -1.3756  0.9412  0.5756
 1697TIP3   OH226725   0.269   2.209   8.511  0.7552 -0.3695 -0.8433
 1697TIP3    H126726   0.321   2.255   8.577 -0.7105 -0.1952  0.2187
 1697TIP3    H226727   0.247   2.125   8.552  1.0405 -0.8713 -1.6887
 1698TIP3   OH226728   0.435   3.238   7.562  0.2164  0.4603  0.1211
 1698TIP3    H126729   0.409   3.323   7.528 -1.1416  0.6215  1.4542
 1698TIP3    H226730   0.475   3.193   7.487 -0.0158  1.8496 -0.8722
 1699TIP3   OH226731   4.890   2.812   1.800  0.1088 -0.1922  0.6451
 1699TIP3    H126732   4.946   2.883   1.768 -0.6276 -0.3097 -1.0447
 1699TIP3    H226733   4.801   2.846   1.791 -0.2084 -0.9743  0.7415
 1700TIP3   OH226734   2.598   3.781   2.661  0.5976  0.2993 -0.4759
 1700TIP3    H126735   2.629   3.840   2.593  1.8564 -0.1401 -0.3151
 1700TIP3    H226736   2.580   3.837   2.736  1.5128  0.5258 -0.4165
 1701TIP3   OH226737   3.373   4.200   0.724 -0.0608  0.5486 -0.3571
 1701TIP3    H126738   3.360   4.215   0.818 -1.8882  0.2989 -0.5422
 1701TIP3    H226739   3.468   4.207   0.712  0.2088  0.6065  1.4969
 1702TIP3   OH226740   3.102   4.251   2.513  0.0605 -0.3308  0.8545
 1702TIP3    H126741   3.049   4.225   2.588 -2.9923 -0.2996 -1.1395
 1702TIP3    H226742   3.097   4.347   2.512 -1.4066 -0.3815 -0.2969
 1703TIP3   OH226743   4.903   4.080   8.878 -0.2155  0.2929 -0.3454
 1703TIP3    H126744   4.855   4.063   8.797 -0.1304  0.9157 -0.5307
 1703TIP3    H226745   4.924   4.173   8.875 -0.0747  0.2893  0.3229
 1704TIP3   OH226746   5.311   4.826   0.159  0.2393  0.0376 -0.4265
 1704TIP3    H126747   5.291   4.917   0.181  1.1227  0.2118 -0.3171
 1704TIP3    H226748   5.225   4.785   0.148 -0.1848  0.5457  0.8730
 1705TIP3   OH226749   0.657   5.902   7.425  0.2733 -0.2260  0.1419
 1705TIP3    H126750   0.619   5.944   7.348 -1.1648  0.6613  1.2774
 1705TIP3    H226751   0.750   5.925   7.422  0.2751 -0.3371 -1.3899
 1706TIP3   OH226752   4.795   4.139   0.440  0.4173 -0.5374  0.0610
 1706TIP3    H126753   4.793   4.043   0.446  0.0601 -0.5397 -0.0679
 1706TIP3    H226754   4.780   4.169   0.530  0.0275 -0.6023  0.0217
 1707TIP3   OH226755   5.008   0.957   8.350  0.6282  0.2206  0.2427
 1707TIP3    H126756   4.968   1.041   8.328  1.3325  0.5104  0.0406
 1707TIP3    H226757   5.009   0.954   8.445 -2.9023 -1.2529  0.3795
 1708TIP3   OH226758   4.533   5.149   7.184 -0.3322 -0.0084 -0.0770
 1708TIP3    H126759   4.556   5.193   7.102  1.8654 -0.2672  0.3431
 1708TIP3    H226760   4.560   5.210   7.252  1.3681 -1.3413  0.4868
 1709TIP3   OH226761   5.635   1.032   0.204 -0.2335  0.1025  0.3784
 1709TIP3    H126762   5.686   1.102   0.164  0.0838 -0.3244  0.0192
 1709TIP3    H226763   5.552   1.073   0.229  0.7456  1.1398  2.1632
 1710TIP3   OH226764   3.812   5.024   2.265  0.0346  0.2139 -0.4065
 1710TIP3    H126765   3.743   5.078   2.228  0.7789  0.7158 -1.0773
 1710TIP3    H226766   3.838   5.070   2.345 -0.2103  0.1612 -0.2929
 1711TIP3   OH226767   5.598   3.098   0.487  0.3520  0.1014 -0.9255
 1711TIP3    H126768   5.522   3.043   0.506  1.0284 -1.1900 -1.7880
 1711TIP3    H226769   5.612   3.086   0.393  1.7125  0.1875 -0.7487
 1712TIP3   OH226770   2.671   4.601   1.536  0.1347  0.1130  0.1758
 1712TIP3    H126771   2.736   4.661   1.498 -0.4162  0.4468 -0.2521
 1712TIP3    H226772   2.587   4.640   1.513 -0.2184 -0.0501  1.1479
 1713TIP3   OH226773   0.933   4.504   0.572 -0.3975 -0.0219  0.3941
 1713TIP3    H126774   0.899   4.511   0.483 -1.1007 -0.6370  0.6065
 1713TIP3    H226775   0.996   4.432   0.569 -0.9932 -0.5559  0.5600
 1714TIP3   OH226776   6.235   4.424   0.464 -0.0150 -0.1958 -0.0839
 1714TIP3    H126777   6.180   4.365   0.414 -0.7095 -1.0491  1.6049
 1714TIP3    H226778   6.306   4.369   0.497  0.4873  0.3635 -0.2172
 1715TIP3   OH226779   5.023   2.207   1.750  0.1603  0.2648 -0.2156
 1715TIP3    H126780   5.023   2.248   1.837  0.3340 -0.3096  0.0649
 1715TIP3    H226781   5.039   2.279   1.689 -0.0441  0.6877  0.2231
 1716TIP3   OH226782   5.054   4.948   0.342 -0.7643  0.4075  1.0109
 1716TIP3    H126783   4.992   4.915   0.277  0.2179  0.4012  0.0322
 1716TIP3    H226784   5.011   4.934   0.426 -1.5317 -0.8209  0.4494
 1717TIP3   OH226785   1.652   5.040   0.632 -0.5503  0.1077  0.0509
 1717TIP3    H126786   1.719   5.017   0.696 -0.4106 -3.0521 -1.0278
 1717TIP3    H226787   1.701   5.063   0.553 -0.7103 -0.4798 -0.2244
 1718TIP3   OH226788   5.536   6.410   7.441 -0.5439  0.1914  0.3555
 1718TIP3    H126789   5.503   6.462   7.368  0.1481 -0.5577 -0.5177
 1718TIP3    H226790   5.459   6.368   7.478 -0.8700  0.3606 -0.1250
 1719TIP3   OH226791   5.838   5.192   2.171  0.3870  0.1515  0.2903
 1719TIP3    H126792   5.891   5.163   2.097 -0.3141  1.9379 -0.9817
 1719TIP3    H226793   5.900   5.233   2.231  1.0156 -1.6488  0.9299
 1720TIP3   OH226794   5.266   5.479   1.247 -0.8234  0.0735 -0.1935
 1720TIP3    H126795   5.278   5.489   1.342 -2.1172  0.5165 -0.0602
 1720TIP3    H226796   5.280   5.566   1.211 -2.9855  0.5019 -0.0833
 1721TIP3   OH226797   5.683   2.895   2.520  0.1005 -0.3869 -0.0448
 1721TIP3    H126798   5.609   2.907   2.579  0.9753 -1.1815  1.2679
 1721TIP3    H226799   5.732   2.822   2.558  0.6680 -0.9712 -1.7991
 1722TIP3   OH226800   3.239   2.226   7.429  0.0342 -0.7042  0.4072
 1722TIP3    H126801   3.152   2.249   7.459  0.0289  0.2214 -0.2863
 1722TIP3    H226802   3.225   2.150   7.371 -0.6503  0.8810 -1.6358
 1723TIP3   OH226803   0.890   1.278   1.465  0.1030 -0.1187  0.0279
 1723TIP3    H126804   0.966   1.228   1.494  0.1621 -0.6318 -0.9689
 1723TIP3    H226805   0.832   1.213   1.426 -1.1416  0.1665  1.3228
 1724TIP3   OH226806   0.096   6.755   8.250 -0.4321 -0.0325  0.4867
 1724TIP3    H126807   0.189   6.738   8.239  0.0391  1.4899  1.7776
 1724TIP3    H226808   0.065   6.683   8.306 -0.2126 -0.9126 -0.4861
 1725TIP3   OH226809   2.546   2.164   7.987 -0.0877  0.0095  0.7366
 1725TIP3    H126810   2.523   2.090   8.043 -0.6385 -1.4934 -1.3606
 1725TIP3    H226811   2.476   2.168   7.922  0.4658  1.7657  0.1798
 1726TIP3   OH226812   1.386   4.325   1.448  0.6615 -0.0604 -0.1929
 1726TIP3    H126813   1.399   4.381   1.371 -0.5935  0.3997 -0.0857
 1726TIP3    H226814   1.324   4.373   1.503  0.5759 -0.9573  0.5253
 1727TIP3   OH226815   5.372   2.243   1.138  0.3130  0.3934  0.3443
 1727TIP3    H126816   5.295   2.209   1.184  0.5936  0.1739  0.6537
 1727TIP3    H226817   5.348   2.238   1.045 -0.3813  1.1365  0.4703
 1728TIP3   OH226818   2.690   2.546   8.745 -0.1449  0.0495 -0.8646
 1728TIP3    H126819   2.649   2.584   8.666 -1.1289 -0.0731 -0.4242
 1728TIP3    H226820   2.748   2.478   8.711 -0.0985  0.4083 -1.5262
 1729TIP3   OH226821   5.065   4.961   6.681  0.3165  0.0320  0.6517
 1729TIP3    H126822   5.129   5.021   6.720  1.4200 -1.3010  0.9641
 1729TIP3    H226823   5.083   4.965   6.587 -0.2599  0.9016  0.5711
 1730TIP3   OH226824   0.679   5.595   2.367  0.1771 -0.5586 -0.1907
 1730TIP3    H126825   0.709   5.510   2.398  0.1977 -0.9336 -1.1812
 1730TIP3    H226826   0.677   5.585   2.271 -0.9907  0.1618 -0.2506
 1731TIP3   OH226827   3.568   3.020   1.946 -0.8203  0.0864 -0.4315
 1731TIP3    H126828   3.530   3.102   1.978 -1.0825 -0.6263  1.1422
 1731TIP3    H226829   3.641   3.048   1.890  0.8022  1.4145  2.1677
 1732TIP3   OH226830   1.472   6.538   7.893 -1.2393  0.4059 -0.5604
 1732TIP3    H126831   1.466   6.459   7.839  1.6557  0.1072 -0.6159
 1732TIP3    H226832   1.518   6.601   7.838 -2.0122  1.5748  0.0924
 1733TIP3   OH226833   4.813   4.646   8.066 -0.5402  0.7111 -0.2307
 1733TIP3    H126834   4.892   4.593   8.079 -1.5121 -0.7853 -0.2101
 1733TIP3    H226835   4.835   4.703   7.992  0.7734  0.7678  0.1732
 1734TIP3   OH226836   5.645   2.232   0.619 -0.4120 -0.0590 -0.6411
 1734TIP3    H126837   5.711   2.176   0.578  0.1345  0.3779 -0.3815
 1734TIP3    H226838   5.687   2.262   0.700 -1.9209 -1.9525  0.9504
 1735TIP3   OH226839   2.510   6.287   0.328 -0.4808  0.0586  0.2356
 1735TIP3    H126840   2.584   6.346   0.316  0.4958 -1.0280  0.7422
 1735TIP3    H226841   2.548   6.199   0.328 -1.8013 -0.5532  0.2535
 1736TIP3   OH226842   0.416   1.275   7.797  0.0425 -0.1214  0.2171
 1736TIP3    H126843   0.453   1.208   7.739 -2.5665  0.9396 -2.9983
 1736TIP3    H226844   0.477   1.349   7.789  0.7817 -0.6819  0.5196
 1737TIP3   OH226845   0.204   5.984   2.221  0.1942 -0.1227 -0.3569
 1737TIP3    H126846   0.240   6.058   2.173 -0.4459  0.3174 -0.1706
 1737TIP3    H226847   0.132   6.021   2.272  2.1685 -0.1400  2.6499
 1738TIP3   OH226848   6.442   6.611   1.841  0.0174 -0.0278 -0.2674
 1738TIP3    H126849   6.495   6.557   1.899 -1.7312 -0.3241  1.1509
 1738TIP3    H226850   6.451   6.571   1.755  2.7723  0.4811 -0.2997
 1739TIP3   OH226851   4.625   4.152   0.210 -0.2158 -0.5285 -0.0969
 1739TIP3    H126852   4.676   4.182   0.286  0.4664 -0.9988 -0.3614
 1739TIP3    H226853   4.603   4.061   0.230  1.8471 -1.3889 -1.3879
 1740TIP3   OH226854   3.133   0.867   1.556  0.6052  0.0159 -0.5101
 1740TIP3    H126855   3.132   0.957   1.524 -2.3503  0.5926  0.8504
 1740TIP3    H226856   3.191   0.868   1.632  2.7860  0.0416 -2.0867
 1741TIP3   OH226857   5.747   0.368   0.818 -0.0158  0.4214  0.8048
 1741TIP3    H126858   5.800   0.294   0.788  1.6103  0.9695  2.1812
 1741TIP3    H226859   5.665   0.329   0.847 -0.9319 -0.3414 -2.3514
 1742TIP3   OH226860   5.100   6.723   1.365 -0.2528 -0.2236  0.2977
 1742TIP3    H126861   5.192   6.704   1.353  0.0791  0.2749  1.8470
 1742TIP3    H226862   5.087   6.807   1.320  0.8396  1.3575  2.7146
 1743TIP3   OH226863   3.343   6.345   1.924  0.1338  0.0815  0.5101
 1743TIP3    H126864   3.399   6.399   1.979 -0.9514  1.6774  0.1099
 1743TIP3    H226865   3.262   6.334   1.976 -0.2155  0.0909 -0.0240
 1744TIP3   OH226866   2.633   0.112   6.967  0.6386  0.5136  0.2229
 1744TIP3    H126867   2.718   0.071   6.956  0.0960 -0.5214 -0.2292
 1744TIP3    H226868   2.615   0.153   6.882 -1.0856 -2.7563 -1.1506
 1745TIP3   OH226869   6.090   3.062   8.489  0.0594 -0.2549 -0.2608
 1745TIP3    H126870   6.091   3.141   8.435 -0.4562  1.3240  1.9507
 1745TIP3    H226871   6.039   2.999   8.437  1.5637  0.3459 -2.6580
 1746TIP3   OH226872   3.188   4.102   0.183 -0.4286  0.0825  0.3074
 1746TIP3    H126873   3.186   4.104   0.088  0.8328 -0.6430  0.2500
 1746TIP3    H226874   3.273   4.139   0.207 -0.6694  0.1227  1.1538
 1747TIP3   OH226875   6.122   3.812   7.392 -0.6164  0.2156 -0.1507
 1747TIP3    H126876   6.201   3.802   7.339 -0.1924  1.4563  0.2153
 1747TIP3    H226877   6.102   3.723   7.422  0.9064 -0.0541  0.1305
 1748TIP3   OH226878   2.876   2.304   7.509 -0.7731  0.2900 -0.3771
 1748TIP3    H126879   2.904   2.226   7.558 -0.4402 -1.1446 -2.7098
 1748TIP3    H226880   2.781   2.295   7.500 -0.6416 -0.3143 -1.3273
 1749TIP3   OH226881   0.532   1.295   2.965  1.2006  0.1103  0.1455
 1749TIP3    H126882   0.465   1.359   2.940  0.8997  0.2214  1.2028
 1749TIP3    H226883   0.615   1.341   2.954  1.0790  0.1621 -0.6071
 1750TIP3   OH226884   0.383   3.836   8.321 -0.1918 -0.3038 -0.4105
 1750TIP3    H126885   0.365   3.745   8.297 -0.1866 -0.4474  0.1118
 1750TIP3    H226886   0.328   3.852   8.397  0.1619 -0.0162 -0.2125
 1751TIP3   OH226887   5.052   5.354   7.475  0.5871  0.9969  0.8430
 1751TIP3    H126888   4.993   5.413   7.523 -2.1659 -0.2653 -0.7294
 1751TIP3    H226889   5.068   5.398   7.392 -0.1352  0.3033  0.3208
 1752TIP3   OH226890   1.484   4.078   2.470 -0.1524 -0.1748 -0.1422
 1752TIP3    H126891   1.553   4.053   2.409 -0.8946 -2.1391 -0.2452
 1752TIP3    H226892   1.455   3.996   2.509 -1.0282  0.8301  1.4337
 1753TIP3   OH226893   1.736   6.507   2.404  0.6324 -0.1365 -0.3414
 1753TIP3    H126894   1.817   6.550   2.376  2.0026 -2.2997  0.1077
 1753TIP3    H226895   1.703   6.563   2.474  2.7971 -0.2065  0.8104
 1754TIP3   OH226896   6.547   6.681   8.749  1.0981 -0.2716  0.0969
 1754TIP3    H126897   6.568   6.774   8.751  1.1248 -0.2714  1.9696
 1754TIP3    H226898   6.453   6.678   8.733  0.8123  0.1910  1.4740
 1755TIP3   OH226899   0.943   0.646   0.919 -0.6491  0.6387 -0.5462
 1755TIP3    H126900   0.865   0.619   0.967 -0.7461 -0.0150 -1.0657
 1755TIP3    H226901   0.924   0.626   0.828 -0.2903  1.4713 -0.8187
 1756TIP3   OH226902   6.668   0.114   8.690 -0.4121 -0.4271 -0.2851
 1756TIP3    H126903   6.722   0.190   8.667 -0.7333 -0.3348 -0.7490
 1756TIP3    H226904   6.730   0.042   8.699  0.1995  0.2968  2.3049
 1757TIP3   OH226905   1.328   4.961   0.674 -0.2439 -0.5183  0.0549
 1757TIP3    H126906   1.394   5.021   0.708 -1.2682  0.5264  0.2895
 1757TIP3    H226907   1.371   4.915   0.602  1.3178 -1.2588  1.4115
 1758TIP3   OH226908   1.207   6.258   0.622  0.3450  0.5323 -0.1112
 1758TIP3    H126909   1.291   6.255   0.577 -0.2620 -1.6325 -1.2705
 1758TIP3    H226910   1.166   6.174   0.601 -0.9558  0.3518  2.7050
 1759TIP3   OH226911   4.984   5.586   0.247 -0.0337 -0.1622 -0.1208
 1759TIP3    H126912   4.938   5.618   0.169 -1.2131 -0.2441  0.5142
 1759TIP3    H226913   5.059   5.645   0.257  0.0502 -0.0559 -1.2187
 1760TIP3   OH226914   2.414   0.472   8.818 -0.3074  0.6727 -0.8898
 1760TIP3    H126915   2.432   0.531   8.892  0.4861 -0.4994 -0.1118
 1760TIP3    H226916   2.361   0.402   8.856  0.5980 -0.2464 -1.2881
 1761TIP3   OH226917   6.314   6.371   1.669  0.0040 -0.6542  0.4067
 1761TIP3    H126918   6.242   6.365   1.731  0.0511 -0.3711  0.4924
 1761TIP3    H226919   6.385   6.322   1.710 -0.5916 -2.2146 -0.3539
 1762TIP3   OH226920   0.527   2.409   2.267  0.2672 -0.3815  0.0588
 1762TIP3    H126921   0.537   2.419   2.362  0.7605  0.2967 -0.0588
 1762TIP3    H226922   0.616   2.406   2.234  0.0918 -0.0000 -0.4482
 1763TIP3   OH226923   0.133   4.443   1.495  0.0729  0.3363  0.4155
 1763TIP3    H126924   0.199   4.501   1.533  0.7325  0.1380 -0.3822
 1763TIP3    H226925   0.067   4.433   1.563 -0.2254  2.2866  0.4570
 1764TIP3   OH226926   1.403   2.165   1.167 -0.5379  0.1322  0.6151
 1764TIP3    H126927   1.396   2.255   1.199  0.6917  0.0277  1.2260
 1764TIP3    H226928   1.338   2.117   1.218  0.4263  0.2447  2.0009
 1765TIP3   OH226929   5.121   1.022   0.442  0.2381 -0.1209  0.1351
 1765TIP3    H126930   5.113   0.977   0.526 -0.1437  1.9961  1.2975
 1765TIP3    H226931   5.059   1.094   0.447  0.0831 -0.0350 -2.0692
 1766TIP3   OH226932   1.392   3.340   0.220 -0.0008  0.6842  0.1872
 1766TIP3    H126933   1.441   3.293   0.152 -0.0626  1.6717 -0.5621
 1766TIP3    H226934   1.457   3.359   0.288  1.1441  3.4013 -1.5035
 1767TIP3   OH226935   2.069   3.294   1.272  0.2763  1.0339 -0.5248
 1767TIP3    H126936   2.007   3.360   1.304 -2.4665 -0.9139 -1.3891
 1767TIP3    H226937   2.098   3.249   1.352 -0.0732  1.4640 -0.1468
 1768TIP3   OH226938   6.604   4.425   7.445 -0.9112  0.1513  0.3578
 1768TIP3    H126939   6.633   4.360   7.382  1.3036  0.7751  0.6724
 1768TIP3    H226940   6.535   4.473   7.399  1.9141  1.8899 -2.4896
 1769TIP3   OH226941   2.189   3.490   6.541 -0.0551 -0.1725 -0.0753
 1769TIP3    H126942   2.113   3.444   6.505  0.8719 -1.1129 -0.8937
 1769TIP3    H226943   2.264   3.442   6.507  0.9120  0.6231  0.8762
 1770TIP3   OH226944   6.134   3.908   2.027  0.1982  0.4387  0.1047
 1770TIP3    H126945   6.199   3.876   1.965  0.2443  2.2232 -0.8489
 1770TIP3    H226946   6.093   3.830   2.063  0.5554 -0.6586 -1.7707
 1771TIP3   OH226947   0.642   1.712   2.773 -0.4408 -0.7408  0.3488
 1771TIP3    H126948   0.601   1.704   2.859 -0.2282 -0.9156  0.4362
 1771TIP3    H226949   0.640   1.806   2.754 -1.4342 -0.8163  0.0724
 1772TIP3   OH226950   2.775   3.734   8.906  0.2441  0.4161  0.5809
 1772TIP3    H126951   2.847   3.671   8.916 -1.7230 -1.8361  1.5156
 1772TIP3    H226952   2.781   3.789   8.984  0.2492 -0.5505  1.2799
 1773TIP3   OH226953   0.032   4.682   7.875 -0.4144 -0.6253  0.3810
 1773TIP3    H126954  -0.062   4.699   7.865 -0.2635  0.0050  0.0060
 1773TIP3    H226955   0.071   4.717   7.795  0.3489  0.7113  1.3031
 1774TIP3   OH226956   5.895   0.360   8.585 -0.3059  0.3991  0.0848
 1774TIP3    H126957   5.921   0.398   8.501 -0.1991 -1.9947 -1.0531
 1774TIP3    H226958   5.803   0.385   8.595 -0.1425  1.2351 -0.4129
 1775TIP3   OH226959   3.211   6.744   1.541 -0.6442  0.5001  0.0489
 1775TIP3    H126960   3.209   6.691   1.461 -1.5502 -1.8647  1.5342
 1775TIP3    H226961   3.232   6.832   1.510 -1.6295 -0.1517 -2.8632
 1776TIP3   OH226962   5.895   4.014   0.130 -0.3290  0.2222  0.2315
 1776TIP3    H126963   5.875   3.926   0.160  1.0004 -0.3981 -0.6231
 1776TIP3    H226964   5.945   4.053   0.202 -0.2705  0.0056  0.3090
 1777TIP3   OH226965   6.775   0.934   0.393 -0.2726  0.2804 -0.3847
 1777TIP3    H126966   6.845   0.979   0.440 -0.0980  1.0379 -1.3414
 1777TIP3    H226967   6.810   0.847   0.375 -0.2129  0.0990  0.5618
 1778TIP3   OH226968   4.178   2.727   2.260  0.0231 -0.0888 -0.2549
 1778TIP3    H126969   4.100   2.715   2.314  0.9926 -0.4240  1.1407
 1778TIP3    H226970   4.208   2.816   2.280  0.3606 -0.1964 -0.2629
 1779TIP3   OH226971   1.733   4.433   7.240 -0.3487  0.2101  0.4873
 1779TIP3    H126972   1.760   4.510   7.290 -0.5074 -0.3019  1.3819
 1779TIP3    H226973   1.640   4.422   7.262 -1.0794  1.3132 -1.7113
 1780TIP3   OH226974   5.441   2.337   8.747 -0.6187  0.2656  0.0150
 1780TIP3    H126975   5.347   2.356   8.751 -1.1172 -1.9588  0.6225
 1780TIP3    H226976   5.463   2.306   8.835  0.8386  1.2920  0.0444
 1781TIP3   OH226977   5.542   0.987   7.045  0.4045 -0.0161 -0.6948
 1781TIP3    H126978   5.555   0.897   7.016 -2.4343  0.2134 -3.1610
 1781TIP3    H226979   5.610   1.037   7.000  1.7062 -0.7989  0.3267
 1782TIP3   OH226980   1.580   5.914   3.190  0.7538 -0.4411 -0.2268
 1782TIP3    H126981   1.502   5.881   3.144  0.1103 -0.4002  0.7929
 1782TIP3    H226982   1.553   6.000   3.223  2.0312  0.6427 -1.8606
 1783TIP3   OH226983   3.323   6.342   2.514 -0.0434 -0.5277  0.1596
 1783TIP3    H126984   3.337   6.281   2.587  0.6361  1.1193  1.4910
 1783TIP3    H226985   3.411   6.363   2.484 -0.3085 -0.8084 -0.8328
 1784TIP3   OH226986   5.717   5.167   1.552  0.0365 -0.0268  0.4336
 1784TIP3    H126987   5.644   5.210   1.507  0.4638 -0.5735 -0.8415
 1784TIP3    H226988   5.736   5.091   1.498  0.1454 -1.1090  1.9417
 1785TIP3   OH226989   4.297   4.978   1.106 -0.6762  0.2353 -0.2645
 1785TIP3    H126990   4.287   4.918   1.180 -3.0357 -2.0909 -2.2390
 1785TIP3    H226991   4.389   4.971   1.082  0.0228  0.6186  2.0077
 1786TIP3   OH226992   3.799   5.196   0.649  0.4081  0.3961 -0.1297
 1786TIP3    H126993   3.852   5.249   0.588  1.9001  0.7333  1.3807
 1786TIP3    H226994   3.743   5.260   0.693 -0.8750  0.1167 -1.2732
 1787TIP3   OH226995   0.177   1.049   1.744  0.2199 -0.0207 -0.0688
 1787TIP3    H126996   0.189   1.049   1.839  0.6624 -1.6434 -0.0837
 1787TIP3    H226997   0.131   1.130   1.725 -1.8970 -0.6733  1.7972
 1788TIP3   OH226998   5.343   0.479   8.557  0.5401  0.0650 -0.0474
 1788TIP3    H126999   5.351   0.550   8.622  1.0720  0.4137 -0.4786
 1788TIP3    H227000   5.252   0.451   8.563  0.3316  0.7558  0.1665
 1789TIP3   OH227001   0.138   0.299   7.291 -0.5392  0.0370 -0.2168
 1789TIP3    H127002   0.101   0.272   7.375 -1.9021  4.2421  0.7713
 1789TIP3    H227003   0.073   0.357   7.253  0.2440 -1.2883 -4.1092
 1790TIP3   OH227004   6.156   2.609   1.246  0.5775 -0.2622  0.2545
 1790TIP3    H127005   6.203   2.621   1.164 -1.1557 -2.7041 -1.2130
 1790TIP3    H227006   6.174   2.689   1.296  1.2820  1.5534 -2.6679
 1791TIP3   OH227007   4.283   1.259   7.355 -0.3360  0.1129 -0.1170
 1791TIP3    H127008   4.258   1.231   7.266 -1.1387 -1.2630  0.5032
 1791TIP3    H227009   4.252   1.349   7.361 -0.8069  0.0321 -1.0454
 1792TIP3   OH227010   2.728   0.744   7.268  0.0477  0.6952 -0.1130
 1792TIP3    H127011   2.767   0.659   7.248  1.9330  1.3996  0.2921
 1792TIP3    H227012   2.712   0.784   7.182  1.2351  0.7960 -0.3016
 1793TIP3   OH227013   2.731   6.240   1.311  0.3128 -0.4222 -0.2223
 1793TIP3    H127014   2.770   6.213   1.228 -1.1399 -0.0709 -1.0439
 1793TIP3    H227015   2.644   6.200   1.311  0.4844 -0.8580  1.3883
 1794TIP3   OH227016   0.548   5.249   1.156  0.6196  0.2567  0.3264
 1794TIP3    H127017   0.535   5.203   1.073 -0.4383  1.8432 -0.4371
 1794TIP3    H227018   0.460   5.262   1.190  0.8810  1.7465  0.4868
 1795TIP3   OH227019   4.349   3.498   7.661 -0.1802  0.3079 -0.0622
 1795TIP3    H127020   4.347   3.459   7.573 -0.9814 -0.8991  0.4563
 1795TIP3    H227021   4.353   3.592   7.645  0.4101  0.0833 -1.3870
 1796TIP3   OH227022   1.806   4.110   7.569 -0.6711 -0.7414  0.4208
 1796TIP3    H127023   1.818   4.177   7.636 -1.0854 -1.3507  1.1233
 1796TIP3    H227024   1.836   4.029   7.610 -3.0822 -1.5554  0.7423
 1797TIP3   OH227025   3.625   0.850   2.689 -0.0385 -0.4983  0.0421
 1797TIP3    H127026   3.598   0.793   2.760  0.5819 -0.6917  0.1212
 1797TIP3    H227027   3.568   0.826   2.616 -2.2192  1.1843  1.0584
 1798TIP3   OH227028   5.120   4.627   0.088 -0.0067  0.2776 -0.5848
 1798TIP3    H127029   5.157   4.593   0.169 -0.7203 -0.4962 -0.5587
 1798TIP3    H227030   5.169   4.582   0.019 -0.7380 -0.6129 -0.5513
 1799TIP3   OH227031   1.633   2.705   8.523  0.7116 -0.3333 -0.1418
 1799TIP3    H127032   1.590   2.663   8.598 -0.7029  0.3186 -0.5424
 1799TIP3    H227033   1.715   2.657   8.512 -0.5073 -2.5467 -0.1461
 1800TIP3   OH227034   2.315   6.172   8.109  0.8059  0.1107 -0.1717
 1800TIP3    H127035   2.393   6.211   8.149  0.1216  0.2264  1.1239
 1800TIP3    H227036   2.295   6.097   8.166 -0.2757  0.3459 -0.2101
 1801TIP3   OH227037   0.041   4.948   2.215  0.3335 -0.1684 -0.1172
 1801TIP3    H127038   0.023   5.042   2.209  0.4840 -0.2484 -2.9131
 1801TIP3    H227039  -0.044   4.906   2.204  0.4328 -0.3819 -0.0809
 1802TIP3   OH227040   2.021   1.772   7.322 -0.0930 -0.0777  0.0144
 1802TIP3    H127041   1.952   1.838   7.319 -0.3208 -0.2944  0.5728
 1802TIP3    H227042   2.048   1.762   7.230 -1.3340 -0.5649 -0.3084
 1803TIP3   OH227043   3.946   2.505   7.469  0.3670  0.1906 -0.6197
 1803TIP3    H127044   3.968   2.598   7.463  0.1451  0.4366  1.4418
 1803TIP3    H227045   4.024   2.460   7.437  1.6704  1.1180  1.0520
 1804TIP3   OH227046   3.282   4.243   8.770 -0.4829 -0.7520  0.3393
 1804TIP3    H127047   3.220   4.186   8.815  0.4996 -1.1416  1.2520
 1804TIP3    H227048   3.362   4.190   8.762  0.5797  0.6007  1.5424
 1805TIP3   OH227049   0.925   3.506   1.517 -0.5647 -0.0368 -0.2606
 1805TIP3    H127050   1.016   3.496   1.545 -0.2113  1.5267 -0.7520
 1805TIP3    H227051   0.873   3.478   1.593  0.2974 -1.0583 -0.0173
 1806TIP3   OH227052   2.796   0.332   2.934 -0.2832 -0.3791  0.3611
 1806TIP3    H127053   2.704   0.344   2.957 -0.5618 -0.3019 -0.7343
 1806TIP3    H227054   2.832   0.421   2.935 -0.5138 -0.2730 -0.3677
 1807TIP3   OH227055   4.119   2.062   0.778 -0.2489  0.1537 -0.0711
 1807TIP3    H127056   4.205   2.033   0.809  0.4961  0.8383 -1.4215
 1807TIP3    H227057   4.072   1.980   0.760  0.8123 -0.2516 -1.1240
 1808TIP3   OH227058   6.273   0.928   8.731  0.6109  0.2935  0.0919
 1808TIP3    H127059   6.250   1.019   8.748  0.3301  0.4420 -0.9961
 1808TIP3    H227060   6.199   0.878   8.764  0.6318  0.4698  0.4187
 1809TIP3   OH227061   1.708   3.823   8.897  0.5094 -0.4876 -0.3794
 1809TIP3    H127062   1.644   3.757   8.924 -0.4590  0.2735 -0.7703
 1809TIP3    H227063   1.718   3.809   8.803  1.2744 -0.8800 -0.2577
 1810TIP3   OH227064   2.598   0.301   8.400 -0.0555 -0.1880  0.1099
 1810TIP3    H127065   2.503   0.298   8.410  0.0086  1.0640  1.3380
 1810TIP3    H227066   2.615   0.381   8.351  0.4522  0.7021  1.6625
 1811TIP3   OH227067   3.796   4.474   2.010  1.0055  0.6404 -0.1042
 1811TIP3    H127068   3.804   4.466   2.105  0.9534  1.0891 -0.0599
 1811TIP3    H227069   3.846   4.400   1.976 -0.0478 -0.2828  0.2939
 1812TIP3   OH227070   5.028   6.542   0.457 -0.0432  0.3301 -0.2456
 1812TIP3    H127071   5.018   6.490   0.377 -0.8108 -0.1041  0.1129
 1812TIP3    H227072   4.938   6.558   0.486  0.2237  0.5988  0.4535
 1813TIP3   OH227073   5.125   2.457   8.403 -0.4667  0.8439 -0.1130
 1813TIP3    H127074   5.213   2.492   8.414 -0.0697  0.3482 -1.4692
 1813TIP3    H227075   5.125   2.375   8.452  0.1720  0.3426 -0.9158
 1814TIP3   OH227076   3.465   1.020   8.737 -0.6433 -0.6621 -0.2903
 1814TIP3    H127077   3.403   0.989   8.804 -1.8168  2.4230  0.1956
 1814TIP3    H227078   3.417   1.009   8.654 -2.0498  1.8913  0.1002
 1815TIP3   OH227079   3.908   4.575   7.796  0.2567  0.5463  0.1726
 1815TIP3    H127080   3.927   4.482   7.785  1.1126  0.8838 -1.7383
 1815TIP3    H227081   3.991   4.614   7.825  0.5599  0.9761 -1.1526
 1816TIP3   OH227082   0.312   6.697   0.006  0.4722 -0.5433 -0.0038
 1816TIP3    H127083   0.296   6.608   0.038 -0.7820 -1.7915 -3.6111
 1816TIP3    H227084   0.362   6.685  -0.075 -1.6303  1.8062 -1.7968
 1817TIP3   OH227085   2.533   5.715   0.812  0.1117  0.7721 -0.0905
 1817TIP3    H127086   2.541   5.810   0.805  0.6044  0.7372 -0.0316
 1817TIP3    H227087   2.623   5.684   0.823  0.1591  0.1316 -1.9892
 1818TIP3   OH227088   6.059   4.441   1.627 -0.6753  0.6471 -0.1050
 1818TIP3    H127089   5.975   4.398   1.641 -0.2263 -0.5707 -0.9869
 1818TIP3    H227090   6.086   4.469   1.714 -0.8569 -1.1565  0.5705
 1819TIP3   OH227091   0.777   4.291   1.740 -0.0055 -0.5986 -0.2602
 1819TIP3    H127092   0.838   4.324   1.675  1.2223 -2.1422  0.0293
 1819TIP3    H227093   0.691   4.299   1.700  0.1340  2.9995 -0.1224
 1820TIP3   OH227094   6.491   2.774   7.308  0.1439 -0.3132 -0.0423
 1820TIP3    H127095   6.439   2.758   7.229  1.0787  0.9448 -0.9467
 1820TIP3    H227096   6.554   2.702   7.309  2.9256  1.7785 -2.9059
 1821TIP3   OH227097   1.158   2.111   8.019  0.1819 -0.3991  0.2152
 1821TIP3    H127098   1.071   2.150   8.029  0.8636  0.6372  3.0858
 1821TIP3    H227099   1.215   2.166   8.073  2.5797 -1.2651 -1.2760
 1822TIP3   OH227100   3.404   4.570   8.789 -0.3613  0.5487  0.3333
 1822TIP3    H127101   3.334   4.508   8.769  1.7652 -2.3388  1.1826
 1822TIP3    H227102   3.475   4.546   8.731  1.0450  1.2674  1.6751
 1823TIP3   OH227103   2.333   0.235   8.299 -0.7332 -0.1799 -0.1051
 1823TIP3    H127104   2.315   0.164   8.361 -1.9434  0.5078  0.3533
 1823TIP3    H227105   2.308   0.199   8.214 -1.0484 -0.4098  0.0826
 1824TIP3   OH227106   4.660   6.510   2.146  0.2484  0.4143  0.1560
 1824TIP3    H127107   4.631   6.526   2.056 -0.1315  1.1103  0.3963
 1824TIP3    H227108   4.700   6.592   2.173  2.1529 -0.3813 -0.0258
 1825TIP3   OH227109   0.208   2.962   7.940  0.2351  0.0705  0.2264
 1825TIP3    H127110   0.146   3.019   7.895  0.1515 -0.5169 -0.4231
 1825TIP3    H227111   0.160   2.882   7.957  1.2543 -1.0860 -1.8750
 1826TIP3   OH227112   3.397   2.089   0.132 -0.6667  0.3445 -0.3279
 1826TIP3    H127113   3.476   2.066   0.082  0.1710 -0.0615  1.1213
 1826TIP3    H227114   3.386   2.017   0.194 -1.7997  0.7296 -0.0539
 1827TIP3   OH227115   4.749   0.082   7.575  0.2725  0.7425 -0.3429
 1827TIP3    H127116   4.665   0.095   7.531 -0.0663  0.1502  0.1163
 1827TIP3    H227117   4.807   0.145   7.534 -0.6519  1.8843  0.0529
 1828TIP3   OH227118   1.829   4.761   8.761 -0.2309 -0.2060 -0.1930
 1828TIP3    H127119   1.845   4.726   8.674 -0.8771  2.0583 -1.3010
 1828TIP3    H227120   1.916   4.785   8.793  0.0531 -1.4243 -0.0194
 1829TIP3   OH227121   0.718   1.320   2.465 -0.3810  0.4063  0.4598
 1829TIP3    H127122   0.642   1.266   2.446 -0.0546  0.3997 -0.9553
 1829TIP3    H227123   0.688   1.383   2.530 -1.5772  0.3561 -0.0208
 1830TIP3   OH227124   0.623   0.530   0.057  0.0852 -0.3798  0.5003
 1830TIP3    H127125   0.650   0.619   0.079 -1.0101 -0.2796  1.5403
 1830TIP3    H227126   0.705   0.480   0.055  0.7095  0.6340 -0.0673
 1831TIP3   OH227127   4.929   3.701   1.298  0.0829 -0.2165  0.0704
 1831TIP3    H127128   4.979   3.780   1.316 -1.0101  0.5042  0.0447
 1831TIP3    H227129   4.863   3.728   1.235 -0.6418 -1.0138  0.4619
 1832TIP3   OH227130   5.873   4.874   0.652 -0.1033 -0.5565  0.0479
 1832TIP3    H127131   5.867   4.792   0.602 -0.3966 -1.9433  2.2108
 1832TIP3    H227132   5.965   4.883   0.673 -0.1403 -0.5784  0.2176
 1833TIP3   OH227133   2.357   4.921   0.838  0.1892  0.2155  0.1895
 1833TIP3    H127134   2.420   4.967   0.894  0.5410  1.4035 -1.1215
 1833TIP3    H227135   2.345   4.979   0.763  2.0221 -2.5854 -2.4959
 1834TIP3   OH227136   6.359   2.465   8.195 -0.0164 -0.0718  0.2651
 1834TIP3    H127137   6.344   2.373   8.219 -0.3922 -0.0348  0.1687
 1834TIP3    H227138   6.406   2.502   8.269  2.1356 -0.9076 -0.5829
 1835TIP3   OH227139   1.679   5.055   1.949  0.0247  0.4116 -0.0256
 1835TIP3    H127140   1.606   5.087   1.895 -1.4603 -1.9661  0.4149
 1835TIP3    H227141   1.689   5.121   2.018 -1.1955  1.1771 -0.5533
 1836TIP3   OH227142   4.384   2.202   7.491  0.5726  0.4295  0.0604
 1836TIP3    H127143   4.461   2.233   7.443  0.7508 -0.8939 -0.5661
 1836TIP3    H227144   4.412   2.199   7.582  0.7090  1.5570  0.0737
 1837TIP3   OH227145   3.650   5.438   7.973  0.1603  0.0811  0.6046
 1837TIP3    H127146   3.698   5.367   8.013  0.1967 -1.8813 -2.5649
 1837TIP3    H227147   3.558   5.418   7.991  0.1834 -0.6850 -0.0750
 1838TIP3   OH227148   4.601   6.757   8.242 -0.5545 -0.0135 -0.2093
 1838TIP3    H127149   4.547   6.683   8.213  0.1937 -0.5544 -0.2615
 1838TIP3    H227150   4.691   6.725   8.235 -0.2869 -0.0543  2.3223
 1839TIP3   OH227151   2.837   5.243   8.840 -0.7681  0.1617  0.0533
 1839TIP3    H127152   2.805   5.193   8.915 -0.1810 -0.8077 -0.3233
 1839TIP3    H227153   2.917   5.198   8.814 -0.0373  1.5074 -0.1032
 1840TIP3   OH227154   1.052   2.361   1.994 -0.1185  0.0743 -0.2241
 1840TIP3    H127155   1.111   2.316   1.934 -0.6611 -0.7910 -0.1240
 1840TIP3    H227156   1.078   2.330   2.081  0.9214  1.6129  0.0623
 1841TIP3   OH227157   5.908   5.647   7.824 -0.2762 -0.1447 -0.2837
 1841TIP3    H127158   5.991   5.613   7.789 -0.6123 -0.8621 -0.3991
 1841TIP3    H227159   5.861   5.678   7.747 -0.8714 -1.4108 -0.4633
 1842TIP3   OH227160   5.449   5.440   2.267 -0.4876 -0.6766  0.8212
 1842TIP3    H127161   5.393   5.493   2.324 -2.7111 -2.7608  0.7144
 1842TIP3    H227162   5.430   5.471   2.179  1.0638  0.8318  0.9703
 1843TIP3   OH227163   4.001   2.327   7.704  0.1485 -0.2593  0.2690
 1843TIP3    H127164   3.984   2.359   7.793  0.1963  0.4595  0.0192
 1843TIP3    H227165   3.939   2.373   7.649  2.7968  2.5153 -0.6849
 1844TIP3   OH227166   0.214   2.080   1.448 -0.1361  0.0105 -0.1283
 1844TIP3    H127167   0.145   2.023   1.482  0.2038  0.4273  1.3413
 1844TIP3    H227168   0.252   2.032   1.375 -0.5220 -1.2021  0.4482
 1845TIP3   OH227169   5.249   6.169   1.710  0.4779 -0.6685 -0.2239
 1845TIP3    H127170   5.274   6.239   1.649  0.6824 -0.4214  0.1347
 1845TIP3    H227171   5.252   6.089   1.659  2.5129 -0.7178 -0.0826
 1846TIP3   OH227172   6.365   3.355   1.911 -0.1724  0.0182 -0.2325
 1846TIP3    H127173   6.434   3.332   1.848 -1.4848 -1.5069 -1.2300
 1846TIP3    H227174   6.374   3.290   1.981 -0.2035  0.2086 -0.0518
 1847TIP3   OH227175   5.475   6.204   2.491  0.0735  0.2029 -0.1321
 1847TIP3    H127176   5.526   6.235   2.417  2.2827 -0.0618  1.2082
 1847TIP3    H227177   5.488   6.270   2.559 -2.6103  0.8915 -0.1629
 1848TIP3   OH227178   5.147   5.772   7.600 -0.4619  0.2926 -0.2261
 1848TIP3    H127179   5.198   5.708   7.648 -1.8569 -0.5272  0.2000
 1848TIP3    H227180   5.194   5.783   7.517  0.9036  0.2842  0.5268
 1849TIP3   OH227181   3.916   2.485   2.153 -0.1427  0.4175  0.4425
 1849TIP3    H127182   3.993   2.434   2.128 -0.0069 -0.0360  1.7391
 1849TIP3    H227183   3.924   2.497   2.247 -1.9404 -0.1344  0.7009
 1850TIP3   OH227184   1.567   5.316   1.405  0.2354  0.1322 -0.1666
 1850TIP3    H127185   1.562   5.365   1.323 -3.1910 -0.6810 -0.6344
 1850TIP3    H227186   1.599   5.379   1.469  3.3973  0.6828 -2.0914
 1851TIP3   OH227187   1.355   2.379   2.133 -0.4312  0.1961 -0.0695
 1851TIP3    H127188   1.388   2.322   2.203 -1.8110 -0.5955 -0.0388
 1851TIP3    H227189   1.270   2.342   2.110 -0.2183  0.7485 -1.8354
 1852TIP3   OH227190   6.003   1.296   0.674 -0.3416  0.1034  0.3301
 1852TIP3    H127191   6.043   1.217   0.636 -0.1702  0.7201 -0.8193
 1852TIP3    H227192   5.913   1.296   0.641 -1.6911 -1.6788  3.4944
 1853TIP3   OH227193   3.360   2.843   1.024 -0.3623  0.0907 -0.3952
 1853TIP3    H127194   3.448   2.877   1.007 -0.8159  0.6013 -1.8573
 1853TIP3    H227195   3.331   2.890   1.103  0.1573  0.9132 -0.6780
 1854TIP3   OH227196   2.766   6.383   0.216  0.2550  0.2102 -0.0661
 1854TIP3    H127197   2.779   6.400   0.123  1.0468  0.6585  0.1207
 1854TIP3    H227198   2.841   6.423   0.259 -0.9020  1.4075  0.9280
 1855TIP3   OH227199   4.461   2.326   2.003  0.0426 -0.3635  0.1396
 1855TIP3    H127200   4.416   2.375   2.072  1.4747  1.2297 -0.0087
 1855TIP3    H227201   4.548   2.365   1.998  0.3943 -1.2752 -1.7295
 1856TIP3   OH227202   3.417   2.775   1.446  0.1145  0.2895 -0.1064
 1856TIP3    H127203   3.407   2.780   1.541 -0.3695 -2.6159  0.0873
 1856TIP3    H227204   3.328   2.776   1.412  0.3061  2.3821 -0.6835
 1857TIP3   OH227205   0.814   6.447   0.705 -1.1385 -0.3913  0.3272
 1857TIP3    H127206   0.781   6.534   0.681  2.0635  1.0782  0.7124
 1857TIP3    H227207   0.797   6.440   0.799  1.1083  1.1903  0.9394
 1858TIP3   OH227208   4.349   0.058   1.637 -0.4138 -0.3446  0.0808
 1858TIP3    H127209   4.383  -0.011   1.694 -1.7865 -1.0375  0.1140
 1858TIP3    H227210   4.255   0.060   1.656 -0.4070  1.6044  0.1452
 1859TIP3   OH227211   6.393   5.349   0.286 -0.6297  0.2058  0.4028
 1859TIP3    H127212   6.381   5.256   0.265  0.2467  0.4808 -1.5469
 1859TIP3    H227213   6.476   5.352   0.333 -1.0283 -0.0718  1.1350
 1860TIP3   OH227214   5.144   3.702   8.271 -0.2551 -0.0616  0.0040
 1860TIP3    H127215   5.113   3.792   8.285  1.1543  0.6245 -1.0699
 1860TIP3    H227216   5.064   3.652   8.253 -0.8890  1.4481 -1.7074
 1861TIP3   OH227217   0.882   4.303   1.207 -0.0551 -0.9809 -0.2608
 1861TIP3    H127218   0.914   4.374   1.263  1.9115 -2.9674  1.3128
 1861TIP3    H227219   0.937   4.308   1.129 -0.0739 -0.6535 -0.2542
 1862TIP3   OH227220   6.270   1.702   2.219  0.2988  0.1323  0.2938
 1862TIP3    H127221   6.227   1.698   2.134  0.5881 -2.3702  0.1872
 1862TIP3    H227222   6.201   1.679   2.281  0.6596 -0.4440  0.4830
 1863TIP3   OH227223   4.796   2.773   7.128 -0.2643 -0.3394  0.6595
 1863TIP3    H127224   4.707   2.786   7.096 -0.5439  0.0592  1.5736
 1863TIP3    H227225   4.828   2.696   7.080 -0.5882  0.3427 -0.7077
 1864TIP3   OH227226   2.113   2.580   8.680  0.8955  0.6810  0.0660
 1864TIP3    H127227   2.173   2.612   8.747  1.2012 -1.0450  0.6445
 1864TIP3    H227228   2.073   2.502   8.718  0.9735 -0.2744 -1.7004
 1865TIP3   OH227229   4.668   1.667   1.802 -0.7918  0.4572 -0.3274
 1865TIP3    H127230   4.742   1.716   1.765 -1.4548 -0.2901 -2.9092
 1865TIP3    H227231   4.607   1.659   1.729 -1.6558 -2.3440  0.5975
 1866TIP3   OH227232   6.279   4.300   0.155  0.0384 -0.2909  0.5572
 1866TIP3    H127233   6.206   4.270   0.209  0.0777  1.6549  1.8133
 1866TIP3    H227234   6.252   4.283   0.066 -0.1914 -3.2772  1.1196
 1867TIP3   OH227235   3.798   2.109   0.999  0.4979  0.5122  0.2536
 1867TIP3    H127236   3.872   2.169   1.009  0.4263  0.9243 -1.5124
 1867TIP3    H227237   3.725   2.165   0.973  0.3405 -0.2648 -1.0563
 1868TIP3   OH227238   5.693   6.247   8.792 -0.4521 -0.0282  0.2896
 1868TIP3    H127239   5.707   6.335   8.756 -1.5027 -0.0311 -0.1671
 1868TIP3    H227240   5.758   6.192   8.747  0.1667  0.4933  0.5294
 1869TIP3   OH227241   4.387   3.180   0.059 -0.0072  0.3705 -1.0047
 1869TIP3    H127242   4.371   3.272   0.041 -0.5935  0.9090  1.7579
 1869TIP3    H227243   4.314   3.134   0.017 -1.3091  1.4812 -0.0568
 1870TIP3   OH227244   4.442   5.506   8.477  0.5441  0.0698  1.0068
 1870TIP3    H127245   4.488   5.567   8.419 -0.6077  0.0568  0.0386
 1870TIP3    H227246   4.372   5.560   8.516 -0.1453 -0.4761  0.5550
 1871TIP3   OH227247   3.102   5.126   1.196 -0.4511  0.3024 -0.5182
 1871TIP3    H127248   3.152   5.206   1.211  0.4732 -0.2289 -0.6927
 1871TIP3    H227249   3.015   5.156   1.168 -0.1456  1.2322 -0.4779
 1872TIP3   OH227250   0.820   0.942   2.334 -0.1489  0.0471  0.1771
 1872TIP3    H127251   0.892   0.995   2.367  1.0660 -3.0821  3.1698
 1872TIP3    H227252   0.753   0.947   2.402 -0.5774 -1.0643 -0.1398
 1873TIP3   OH227253   1.296   6.173   6.630 -0.0459  0.0785  0.3585
 1873TIP3    H127254   1.385   6.202   6.649 -0.0223  0.9016 -0.9041
 1873TIP3    H227255   1.291   6.086   6.669  1.6820 -0.4590 -0.5328
 1874TIP3   OH227256   2.564   6.447   2.196 -0.5846 -0.2103 -0.3008
 1874TIP3    H127257   2.657   6.447   2.172 -0.1594 -2.5757  1.0415
 1874TIP3    H227258   2.562   6.494   2.280 -0.4014 -1.1356  0.2312
 1875TIP3   OH227259   2.550   2.435   0.710 -0.3384  0.1399  0.2786
 1875TIP3    H127260   2.607   2.505   0.677  0.3900 -0.1490  0.8967
 1875TIP3    H227261   2.553   2.445   0.806  1.0593 -1.7029  0.4771
 1876TIP3   OH227262   5.476   5.092   6.260  0.1385  0.4238  0.6847
 1876TIP3    H127263   5.512   5.034   6.327  0.3072 -0.3504 -0.0550
 1876TIP3    H227264   5.415   5.149   6.308  0.9663  0.5349  1.6430
 1877TIP3   OH227265   4.117   3.655   8.322  0.1211 -0.5411  0.0727
 1877TIP3    H127266   4.102   3.748   8.308  0.1897 -0.3687  1.0796
 1877TIP3    H227267   4.096   3.614   8.238  1.2568  0.5087 -0.7552
 1878TIP3   OH227268   2.242   6.612   7.103  0.1058  0.2165  0.1935
 1878TIP3    H127269   2.193   6.665   7.040 -1.1399 -0.7122  0.3550
 1878TIP3    H227270   2.328   6.653   7.106 -0.0128  0.6878 -1.6141
 1879TIP3   OH227271   2.320   6.463   0.491 -0.5949 -1.0932 -0.2447
 1879TIP3    H127272   2.387   6.433   0.552 -1.2484 -2.1570 -0.0301
 1879TIP3    H227273   2.367   6.474   0.408  0.6438  1.8689  0.7146
 1880TIP3   OH227274   2.759   2.775   2.837  0.1880 -0.4363  0.1979
 1880TIP3    H127275   2.717   2.859   2.857 -0.7425 -0.4437 -1.5103
 1880TIP3    H227276   2.690   2.710   2.848  0.4974 -0.7877  0.0745
 1881TIP3   OH227277   6.366   6.173   7.328 -0.0364  0.1521  0.0666
 1881TIP3    H127278   6.448   6.191   7.375  0.1101 -0.6831  0.1367
 1881TIP3    H227279   6.301   6.164   7.397  0.1140 -0.7344  0.1026
 1882TIP3   OH227280   1.703   0.047   8.034  0.5784  0.5205  0.5444
 1882TIP3    H127281   1.761   0.119   8.058  2.7285 -0.6967 -0.6689
 1882TIP3    H227282   1.617   0.087   8.028  0.9691  2.1697  3.6526
 1883TIP3   OH227283   2.303   0.730   0.868 -0.1870  0.4567  0.4013
 1883TIP3    H127284   2.228   0.769   0.913 -0.5306 -1.4694  1.6189
 1883TIP3    H227285   2.266   0.654   0.822  0.8732 -0.0520  0.3516
 1884TIP3   OH227286   6.145   1.499   7.468  0.0607  0.0161 -0.1648
 1884TIP3    H127287   6.134   1.405   7.480 -0.5479  0.0236 -0.6163
 1884TIP3    H227288   6.240   1.511   7.459  0.4838 -0.1796  2.8121
 1885TIP3   OH227289   4.578   3.518   7.825 -0.5195  0.0546 -0.2639
 1885TIP3    H127290   4.653   3.464   7.800 -0.8638 -1.5620  1.9055
 1885TIP3    H227291   4.509   3.491   7.764  0.1301  0.2717 -1.1259
 1886TIP3   OH227292   6.616   4.575   7.679 -0.0714 -0.2388 -0.1470
 1886TIP3    H127293   6.534   4.599   7.723  0.8148 -0.3979  1.6428
 1886TIP3    H227294   6.592   4.500   7.624 -1.0287 -0.5484  0.6654
 1887TIP3   OH227295   1.775   0.949   0.830  0.6890  0.3075  0.2013
 1887TIP3    H127296   1.737   0.918   0.912  0.9394 -0.0823  0.1749
 1887TIP3    H227297   1.815   1.033   0.852  3.0961 -0.9989  1.1521
 1888TIP3   OH227298   3.159   0.429   8.074  0.1809 -0.4996 -0.3518
 1888TIP3    H127299   3.105   0.503   8.047 -1.3453 -1.1129  0.9171
 1888TIP3    H227300   3.143   0.362   8.007 -1.0778 -0.8705  0.3029
 1889TIP3   OH227301   1.762   0.297   7.524  0.1636  0.5413 -0.8006
 1889TIP3    H127302   1.750   0.205   7.548  0.6815  0.6271 -0.1940
 1889TIP3    H227303   1.855   0.313   7.537  0.0300  1.2192 -0.6518
 1890TIP3   OH227304   0.290   6.013   0.835  0.5500 -0.2756  0.5511
 1890TIP3    H127305   0.385   6.023   0.825  0.3093  0.6944 -1.0919
 1890TIP3    H227306   0.279   5.988   0.927  2.3665 -0.1113  0.8654
 1891TIP3   OH227307   0.978   0.182   1.679 -0.3107 -0.0169  0.0676
 1891TIP3    H127308   0.899   0.160   1.629 -0.4689 -0.1570  0.3758
 1891TIP3    H227309   1.050   0.158   1.621 -0.4266 -2.6734  0.8885
 1892TIP3   OH227310   2.390   2.918   0.449 -0.1066 -0.2377 -0.3718
 1892TIP3    H127311   2.460   2.902   0.385 -0.6934  0.3725 -1.1913
 1892TIP3    H227312   2.323   2.853   0.429  0.9512 -2.0569  1.6068
 1893TIP3   OH227313   2.589   3.547   6.585 -0.2884 -0.4802  0.4423
 1893TIP3    H127314   2.588   3.473   6.645  0.0979 -1.6221 -0.9068
 1893TIP3    H227315   2.536   3.518   6.510 -1.6603  1.2965  0.6398
 1894TIP3   OH227316   3.367   2.060   8.429  0.1634 -0.3644  0.0558
 1894TIP3    H127317   3.285   2.023   8.462 -0.1612  0.1697 -0.1454
 1894TIP3    H227318   3.357   2.061   8.334  0.1424  0.2896  0.0610
 1895TIP3   OH227319   1.545   5.884   2.293  0.0192  0.0238  0.7368
 1895TIP3    H127320   1.485   5.943   2.249 -0.0736 -2.1781 -2.4140
 1895TIP3    H227321   1.628   5.931   2.295 -0.5990  1.1542  0.5421
 1896TIP3   OH227322   3.435   0.757   7.089  0.0150  0.0711  0.5384
 1896TIP3    H127323   3.357   0.712   7.054 -0.3530  0.7656  0.4455
 1896TIP3    H227324   3.423   0.753   7.184 -0.4282  0.6721  0.5130
 1897TIP3   OH227325   5.150   3.501   2.818  0.0553  0.4731 -0.7456
 1897TIP3    H127326   5.066   3.531   2.783 -1.8949 -0.9070  2.3616
 1897TIP3    H227327   5.144   3.406   2.818 -0.2610  0.3169  3.2434
 1898TIP3   OH227328   5.585   4.124   7.228  0.1277  0.0387  0.0794
 1898TIP3    H127329   5.562   4.204   7.179  2.6377  0.1901 -1.0032
 1898TIP3    H227330   5.618   4.157   7.311  0.7990  0.1156 -0.2143
 1899TIP3   OH227331   3.509   5.329   8.348 -0.0900  0.6127 -0.2491
 1899TIP3    H127332   3.467   5.389   8.410 -1.6826  0.2848 -0.9594
 1899TIP3    H227333   3.582   5.291   8.397 -0.5059  1.3498  0.9904
 1900TIP3   OH227334   5.271   6.325   2.262  0.1772  0.2177  0.0970
 1900TIP3    H127335   5.282   6.371   2.179  0.6955  0.1794  0.1421
 1900TIP3    H227336   5.228   6.243   2.239 -1.0203  0.8396  0.0522
 1901TIP3   OH227337   0.233   4.252   2.567  0.5557 -0.1370 -0.0371
 1901TIP3    H127338   0.188   4.212   2.642  0.7881 -1.0835 -0.3833
 1901TIP3    H227339   0.326   4.241   2.586  0.6600  1.5760  0.5516
 1902TIP3   OH227340   0.486   6.781   0.903 -0.4056  0.1597 -0.0868
 1902TIP3    H127341   0.424   6.822   0.963  1.0376  1.5747  0.5283
 1902TIP3    H227342   0.469   6.822   0.818 -0.6668  0.1581 -0.0335
 1903TIP3   OH227343   4.960   4.624   8.389 -0.2933 -0.0955  0.3381
 1903TIP3    H127344   4.984   4.683   8.318 -4.0044  1.2213 -0.0053
 1903TIP3    H227345   4.947   4.539   8.347  1.1639 -0.2736  0.1763
 1904TIP3   OH227346   0.841   3.540   0.361  0.3128 -0.0303  0.5251
 1904TIP3    H127347   0.837   3.497   0.275 -0.6050  1.0797 -0.0217
 1904TIP3    H227348   0.858   3.632   0.341  0.3630  0.1968  1.5586
 1905TIP3   OH227349   6.411   4.898   8.583  0.3125  0.1472  0.6650
 1905TIP3    H127350   6.411   4.986   8.545  1.0686 -0.2977 -0.3847
 1905TIP3    H227351   6.318   4.874   8.588  0.1474  0.6756  0.2002
 1906TIP3   OH227352   1.694   3.945   0.731 -0.2577  0.4123  0.0765
 1906TIP3    H127353   1.695   4.018   0.793  0.6354  1.6953 -1.3558
 1906TIP3    H227354   1.694   3.988   0.645  0.7848 -1.2707 -0.8140
 1907TIP3   OH227355   2.712   4.406   7.463  0.1025  0.5650  0.3436
 1907TIP3    H127356   2.700   4.328   7.517 -2.1921  0.9837  0.5575
 1907TIP3    H227357   2.802   4.399   7.430  0.9332 -0.6869  2.6264
 1908TIP3   OH227358   5.027   6.026   7.487  0.6392 -0.7268  0.2532
 1908TIP3    H127359   5.048   6.102   7.541 -0.0060 -1.5700  1.7777
 1908TIP3    H227360   5.109   5.976   7.484  1.0588 -0.0133 -0.7342
 1909TIP3   OH227361   6.653   2.989   7.274 -0.2400 -0.0347 -0.1025
 1909TIP3    H127362   6.594   2.914   7.269  0.0609 -0.2155 -1.3533
 1909TIP3    H227363   6.736   2.953   7.304  0.5021 -0.6223 -2.6619
 1910TIP3   OH227364   1.097   0.339   2.931  0.0051 -0.1273 -0.2435
 1910TIP3    H127365   1.101   0.408   2.864 -0.6581 -0.1970 -0.3588
 1910TIP3    H227366   1.011   0.299   2.919 -0.2545  0.0826  0.8764
 1911TIP3   OH227367   0.722   2.459   0.705  0.8379 -0.6494 -0.1282
 1911TIP3    H127368   0.679   2.492   0.784  0.4728 -2.0429  0.2801
 1911TIP3    H227369   0.793   2.404   0.737  0.4159 -1.5857 -0.7392
 1912TIP3   OH227370   0.774   5.579   7.370 -0.7343 -0.1284  0.2738
 1912TIP3    H127371   0.746   5.630   7.294 -0.8565 -0.7320 -0.0919
 1912TIP3    H227372   0.790   5.644   7.438  0.8079  0.5719 -0.7091
 1913TIP3   OH227373   3.846   5.461   8.655 -0.0633  0.1538  0.0560
 1913TIP3    H127374   3.912   5.460   8.726  0.0200 -0.1332 -0.0252
 1913TIP3    H227375   3.848   5.551   8.623  0.7548 -0.0046 -0.3734
 1914TIP3   OH227376   2.569   6.023   0.350 -0.3985 -0.1259 -0.0127
 1914TIP3    H127377   2.636   5.998   0.413 -0.5373  1.2922  0.7310
 1914TIP3    H227378   2.528   5.940   0.325  0.6350 -0.8579  0.6403
 1915TIP3   OH227379   3.617   3.417   0.558 -0.2667  0.7015 -0.1845
 1915TIP3    H127380   3.611   3.494   0.616 -0.9922 -0.6259  1.5873
 1915TIP3    H227381   3.706   3.419   0.524 -0.1377  2.0754  0.1538
 1916TIP3   OH227382   2.979   4.270   2.288  0.0558 -0.2802 -0.3654
 1916TIP3    H127383   3.012   4.279   2.377  2.0172 -1.9330 -0.8625
 1916TIP3    H227384   2.915   4.199   2.293 -1.4012  1.0118  0.0617
 1917TIP3   OH227385   1.746   1.185   7.497 -0.5453  0.2334 -0.7490
 1917TIP3    H127386   1.810   1.218   7.434 -0.6834  0.5001 -0.7531
 1917TIP3    H227387   1.717   1.101   7.461  1.0779 -0.7558  0.1187
 1918TIP3   OH227388   2.902   6.399   8.885  0.4819  0.4271  0.0118
 1918TIP3    H127389   2.904   6.490   8.858  0.4891  0.6023  0.5905
 1918TIP3    H227390   2.988   6.383   8.925  0.1591  0.4230  0.7198
 1919TIP3   OH227391   1.774   6.302   1.737 -0.7729  0.3214  0.5977
 1919TIP3    H127392   1.690   6.322   1.695 -0.1279  0.1853 -0.8042
 1919TIP3    H227393   1.827   6.380   1.724 -0.5718  0.2971  1.2301
 1920TIP3   OH227394   0.547   3.128   8.774  0.3770 -0.2340  0.0506
 1920TIP3    H127395   0.489   3.074   8.720  1.6764 -0.0377 -1.6268
 1920TIP3    H227396   0.635   3.110   8.740  1.1152  0.8300  1.3220
 1921TIP3   OH227397   6.652   3.760   0.624  0.8630 -0.4084  0.2341
 1921TIP3    H127398   6.621   3.688   0.569  1.7702 -0.2950 -0.4539
 1921TIP3    H227399   6.633   3.839   0.573 -0.8993 -0.0707  1.3536
 1922TIP3   OH227400   2.200   0.669   7.505 -1.0376 -0.2548 -1.0258
 1922TIP3    H127401   2.156   0.740   7.552  0.1873 -0.5615  0.7033
 1922TIP3    H227402   2.254   0.713   7.440  0.9170  0.5995  1.0459
 1923TIP3   OH227403   3.347   2.375   1.528  0.2598  0.1983  0.1119
 1923TIP3    H127404   3.370   2.434   1.600  0.8617  0.7028 -0.4844
 1923TIP3    H227405   3.266   2.411   1.492  0.8502  0.9174 -0.5190
 1924TIP3   OH227406   2.688   2.296   8.633  0.9217  0.0900  0.0146
 1924TIP3    H127407   2.629   2.316   8.561  0.9314  1.0151  0.2472
 1924TIP3    H227408   2.634   2.246   8.695  0.1500  1.5077  0.5451
 1925TIP3   OH227409   1.166   3.532   1.644 -0.8864 -0.2081  0.0386
 1925TIP3    H127410   1.248   3.556   1.686 -0.4619  0.7565 -1.2807
 1925TIP3    H227411   1.101   3.594   1.678 -0.5068  0.6848 -0.8090
 1926TIP3   OH227412   0.605   6.317   2.865  0.2377  0.7280 -0.3308
 1926TIP3    H127413   0.547   6.354   2.797 -0.4913  2.7886  1.3090
 1926TIP3    H227414   0.546   6.266   2.920  0.2511  1.4806  0.4003
 1927TIP3   OH227415   1.479   4.810   0.460  0.2866 -0.0720 -0.0106
 1927TIP3    H127416   1.523   4.822   0.376  2.3569  0.3373  1.0783
 1927TIP3    H227417   1.526   4.737   0.502 -0.8925 -0.4573  0.6991
 1928TIP3   OH227418   1.470   5.936   0.263 -0.3487 -0.1931 -0.0668
 1928TIP3    H127419   1.494   6.028   0.261 -0.1649 -0.2449 -0.3613
 1928TIP3    H227420   1.550   5.890   0.238  0.2462 -0.5807  2.3492
 1929TIP3   OH227421   5.190   2.436   8.766  0.0440  0.5606 -0.1506
 1929TIP3    H127422   5.124   2.428   8.696  0.2526 -0.5171 -0.2479
 1929TIP3    H227423   5.138   2.445   8.846 -0.1992  1.7442 -0.4206
 1930TIP3   OH227424   1.104   0.403   8.069  0.0729 -0.1661  0.3869
 1930TIP3    H127425   1.066   0.402   7.982 -1.9754 -3.5081  1.1174
 1930TIP3    H227426   1.054   0.469   8.117  0.0902  0.5057 -0.5052
 1931TIP3   OH227427   3.015   1.173   2.556  0.3375  0.2997 -0.1117
 1931TIP3    H127428   2.982   1.187   2.645 -0.2819 -0.8153 -0.1509
 1931TIP3    H227429   2.990   1.083   2.535  0.3340  0.6034 -1.4845
 1932TIP3   OH227430   0.686   3.344   2.809  0.5707 -0.9575 -0.2824
 1932TIP3    H127431   0.630   3.285   2.758  2.3592 -2.2477 -0.9045
 1932TIP3    H227432   0.730   3.398   2.743 -0.9084  1.0223  0.2781
 1933TIP3   OH227433   4.471   2.379   2.658 -0.3730 -0.2448  0.2113
 1933TIP3    H127434   4.560   2.346   2.666  0.5643  1.8119 -1.0322
 1933TIP3    H227435   4.420   2.326   2.719  1.5575 -1.9006  0.4794
 1934TIP3   OH227436   1.860   0.853   0.006  0.2406 -0.0176 -0.6019
 1934TIP3    H127437   1.947   0.864  -0.033 -0.0890  0.0124 -1.3532
 1934TIP3    H227438   1.876   0.805   0.087  0.8312 -1.1471 -1.3604
 1935TIP3   OH227439   2.488   0.893   0.066  0.2873  0.0309 -0.2736
 1935TIP3    H127440   2.520   0.982   0.081 -2.5315  0.8642  1.5257
 1935TIP3    H227441   2.430   0.901  -0.010  0.7652 -0.4986 -0.7060
 1936TIP3   OH227442   2.724   6.231   0.702 -0.1181 -0.6814 -0.0377
 1936TIP3    H127443   2.767   6.233   0.616 -1.6531 -1.6522 -0.8668
 1936TIP3    H227444   2.761   6.153   0.744  0.3616 -0.4179  0.0342
 1937TIP3   OH227445   0.907   1.446   0.001  0.8279  0.7430 -0.2804
 1937TIP3    H127446   0.921   1.382  -0.069 -3.0214  0.1381 -0.7278
 1937TIP3    H227447   0.931   1.530  -0.038  0.4299  0.2007 -1.7760
 1938TIP3   OH227448   2.089   2.638   0.869  0.2222  0.3138  0.3439
 1938TIP3    H127449   2.006   2.642   0.917  0.8235  0.5980  1.3598
 1938TIP3    H227450   2.157   2.638   0.936  1.0575 -0.0022 -0.4788
 1939TIP3   OH227451   3.433   5.066   8.309 -0.7621  0.2879 -0.3567
 1939TIP3    H127452   3.338   5.055   8.313 -0.8686  1.0161 -0.7088
 1939TIP3    H227453   3.448   5.157   8.336 -0.3107  0.6596 -1.7659
 1940TIP3   OH227454   2.328   3.596   8.306 -0.4110  0.4849  0.2527
 1940TIP3    H127455   2.240   3.578   8.338 -0.1690 -0.5728  0.3352
 1940TIP3    H227456   2.371   3.640   8.379  0.1646 -1.9711  1.5029
 1941TIP3   OH227457   3.020   4.193   8.446  0.1478  0.1764 -0.1619
 1941TIP3    H127458   2.945   4.152   8.405  0.4145 -0.3136 -0.1726
 1941TIP3    H227459   3.067   4.120   8.488 -0.0276  0.6332  0.8653
 1942TIP3   OH227460   2.509   5.779   0.373 -1.2153 -0.6601  0.1420
 1942TIP3    H127461   2.444   5.789   0.443 -0.9384  0.7073  0.2277
 1942TIP3    H227462   2.558   5.701   0.397 -2.1827 -1.1461  0.6018
 1943TIP3   OH227463   4.622   2.093   8.887  0.1299 -0.4220 -0.5429
 1943TIP3    H127464   4.548   2.054   8.933  0.7955  0.1813  1.1308
 1943TIP3    H227465   4.584   2.131   8.807 -1.3194 -0.3394  0.1600
 1944TIP3   OH227466   3.146   4.684   0.567 -0.0939  0.0149  0.4663
 1944TIP3    H127467   3.073   4.627   0.544 -1.6017  2.0889 -0.1050
 1944TIP3    H227468   3.189   4.702   0.483  0.2339 -0.0647  0.6145
 1945TIP3   OH227469   2.057   1.927   7.822 -0.4723  0.3741 -0.3124
 1945TIP3    H127470   2.000   1.988   7.776 -1.2337 -1.0198 -1.3010
 1945TIP3    H227471   2.133   1.918   7.765 -0.2175  0.6222 -0.0159
 1946TIP3   OH227472   6.750   1.274   0.455  0.9100 -0.3268 -0.6906
 1946TIP3    H127473   6.821   1.249   0.396  0.6661 -0.7653 -0.8004
 1946TIP3    H227474   6.717   1.191   0.490  1.1898 -0.0681  0.2351
 1947TIP3   OH227475   5.904   6.353   2.090 -0.2023  0.1621 -0.6373
 1947TIP3    H127476   5.942   6.272   2.122 -1.2292 -0.2594 -0.4748
 1947TIP3    H227477   5.830   6.371   2.148 -0.6976  0.5897 -1.3796
 1948TIP3   OH227478   5.311   2.874   0.827  0.4114 -0.3342 -0.1590
 1948TIP3    H127479   5.319   2.817   0.903 -1.7310  1.7516  1.7832
 1948TIP3    H227480   5.225   2.854   0.790  0.5976  0.0543 -0.8287
 1949TIP3   OH227481   1.972   0.557   2.235 -0.4948  0.2566 -0.4155
 1949TIP3    H127482   1.890   0.528   2.197 -0.7835  0.9483 -0.3392
 1949TIP3    H227483   2.011   0.478   2.272 -0.1945 -0.4419 -2.1334
 1950TIP3   OH227484   1.429   0.489   0.621  0.6372  0.5693 -0.3443
 1950TIP3    H127485   1.494   0.520   0.684 -0.5643  1.0507  0.7096
 1950TIP3    H227486   1.348   0.534   0.646 -1.0346 -2.6976  0.7363
 1951TIP3   OH227487   2.406   0.463   1.082 -0.0604 -0.0012  0.0720
 1951TIP3    H127488   2.351   0.385   1.067 -0.3421  0.1349  0.3687
 1951TIP3    H227489   2.453   0.443   1.163  0.7598 -0.3520 -0.4810
 1952TIP3   OH227490   4.729   4.002   8.678 -0.2307  0.4716  0.2371
 1952TIP3    H127491   4.755   4.008   8.586  0.4993 -0.8933  0.3351
 1952TIP3    H227492   4.636   4.028   8.678 -0.2517  0.4682 -0.8752
 1953TIP3   OH227493   4.975   5.893   0.660 -0.5936  0.0759 -0.3610
 1953TIP3    H127494   4.891   5.934   0.639 -1.1228 -0.1132  1.2555
 1953TIP3    H227495   4.951   5.813   0.707  0.4869 -0.3065 -0.4375
 1954TIP3   OH227496   5.081   3.600   1.539  0.2752  0.6832  0.3477
 1954TIP3    H127497   5.042   3.654   1.608 -0.5638 -0.7178  1.0009
 1954TIP3    H227498   5.012   3.594   1.472 -1.0842 -2.4138  1.8308
 1955TIP3   OH227499   0.590   2.772   7.975  0.4351 -0.3120  0.6097
 1955TIP3    H127500   0.671   2.797   7.931 -0.7313 -0.1584 -1.5578
 1955TIP3    H227501   0.532   2.847   7.964  0.2253 -0.0415  2.9458
 1956TIP3   OH227502   4.725   6.305   1.144  0.2783  0.3084  0.2935
 1956TIP3    H127503   4.804   6.351   1.171 -0.5889  2.7610 -0.9665
 1956TIP3    H227504   4.655   6.347   1.194 -0.6105  0.7926 -1.2941
 1957TIP3   OH227505   1.997   1.635   7.851 -0.1507 -0.2049  0.2707
 1957TIP3    H127506   2.004   1.728   7.872  0.6428 -0.2442  0.1975
 1957TIP3    H227507   1.946   1.633   7.769 -2.1573  0.0106  1.4474
 1958TIP3   OH227508   5.937   0.237   7.753 -0.3982 -0.5328  0.5260
 1958TIP3    H127509   6.000   0.222   7.682 -1.4357 -1.0430 -0.3224
 1958TIP3    H227510   5.986   0.222   7.833  0.5359 -0.9899 -0.1187
 1959TIP3   OH227511   3.959   5.775   1.682 -0.2487  0.3215  0.0769
 1959TIP3    H127512   3.990   5.861   1.709  1.6140  0.7262 -2.8700
 1959TIP3    H227513   4.037   5.721   1.678 -0.2666  0.2711 -3.8213
 1960TIP3   OH227514   4.283   1.783   1.953 -0.3450  0.0704  0.2286
 1960TIP3    H127515   4.191   1.807   1.941 -0.2030 -0.4497 -2.4418
 1960TIP3    H227516   4.332   1.850   1.904  0.9397  1.4899  3.1628
 1961TIP3   OH227517   3.460   6.512   1.488  0.1749 -0.6760 -0.0322
 1961TIP3    H127518   3.396   6.461   1.538 -0.3462  3.1529  3.8226
 1961TIP3    H227519   3.407   6.568   1.432  0.1975  0.7623  1.3290
 1962TIP3   OH227520   4.006   1.121   7.317 -0.5450  0.0719  0.2482
 1962TIP3    H127521   4.073   1.115   7.385 -0.9690 -0.9449  0.5882
 1962TIP3    H227522   4.056   1.127   7.235  0.1567 -4.2841  0.1071
 1963TIP3   OH227523   5.432   0.078   7.631 -0.0762  0.2665 -0.5923
 1963TIP3    H127524   5.467  -0.003   7.593  0.4787  0.9248 -1.5267
 1963TIP3    H227525   5.346   0.053   7.667  1.2919 -1.3859  1.7751
 1964TIP3   OH227526   5.788   1.125   7.877  0.2191 -0.1281  0.2901
 1964TIP3    H127527   5.812   1.106   7.968  0.0685 -2.2957 -0.0701
 1964TIP3    H227528   5.859   1.088   7.825  0.6825  1.7574 -0.5013
 1965TIP3   OH227529   1.443   4.982   7.140 -0.3988 -0.4639  0.8511
 1965TIP3    H127530   1.370   4.939   7.095 -0.9926  0.6368  0.7246
 1965TIP3    H227531   1.510   4.914   7.147 -0.9419 -1.1406 -0.1821
 1966TIP3   OH227532   5.810   3.836   0.468 -0.5859  0.0583 -0.0251
 1966TIP3    H127533   5.825   3.860   0.376  0.6055 -0.7678 -0.0701
 1966TIP3    H227534   5.756   3.757   0.463  0.9168 -1.0102 -0.1079
 1967TIP3   OH227535   2.287   2.784   1.557 -0.2361  0.8112 -0.6608
 1967TIP3    H127536   2.357   2.792   1.621  0.5862  0.0391 -1.4333
 1967TIP3    H227537   2.252   2.696   1.570  1.7570 -0.4576 -2.9983
 1968TIP3   OH227538   0.839   4.774   0.680  0.1670 -0.2237  0.0083
 1968TIP3    H127539   0.905   4.831   0.640  2.9588 -1.7895  2.0183
 1968TIP3    H227540   0.844   4.692   0.629 -2.1727  0.4118 -1.4118
 1969TIP3   OH227541   4.090   4.559   7.374 -0.4650 -0.1868  0.2873
 1969TIP3    H127542   3.997   4.583   7.378 -0.2614  0.5186  1.0423
 1969TIP3    H227543   4.105   4.506   7.453 -0.0359  0.4145  0.6138
 1970TIP3   OH227544   4.484   3.184   8.291  0.0204  0.1028  0.1479
 1970TIP3    H127545   4.426   3.124   8.338 -1.2400  0.1826 -1.2531
 1970TIP3    H227546   4.555   3.128   8.259  0.0477 -0.2263  0.7561
 1971TIP3   OH227547   5.098   1.798   2.160  0.0331  0.0490  0.1943
 1971TIP3    H127548   5.150   1.732   2.205 -1.4335 -0.5635  1.0742
 1971TIP3    H227549   5.142   1.881   2.179  0.1504 -0.3391  1.7134
 1972TIP3   OH227550   4.741   2.734   0.963  0.1911 -0.4437 -0.4156
 1972TIP3    H127551   4.685   2.804   0.995  1.0592 -0.7744  2.0537
 1972TIP3    H227552   4.824   2.777   0.944 -0.4703 -0.1582 -2.9123
 1973TIP3   OH227553   6.778   3.809   8.505  0.3190 -0.0555  0.3745
 1973TIP3    H127554   6.872   3.797   8.520 -0.0899 -1.5064  2.2229
 1973TIP3    H227555   6.737   3.764   8.579 -1.8666 -0.3734 -0.9726
 1974TIP3   OH227556   4.660   2.884   1.597  0.0156 -0.2655  0.0104
 1974TIP3    H127557   4.642   2.884   1.503  1.5155  1.6265 -0.3408
 1974TIP3    H227558   4.637   2.972   1.626 -0.6410 -0.9029  1.4768
 1975TIP3   OH227559   3.635   4.340   7.993  0.5220 -0.5424 -0.4059
 1975TIP3    H127560   3.549   4.300   8.005  0.2704 -0.0492 -0.5293
 1975TIP3    H227561   3.617   4.421   7.945  1.3043 -1.5319 -2.4685
 1976TIP3   OH227562   0.605   2.488   1.553  0.0061 -0.2515 -0.0385
 1976TIP3    H127563   0.561   2.496   1.468 -1.1635  0.3157  0.5963
 1976TIP3    H227564   0.575   2.404   1.588 -0.1906 -0.0913  0.1803
 1977TIP3   OH227565   6.101   2.680   1.728 -0.5802 -0.0811 -0.2304
 1977TIP3    H127566   6.048   2.606   1.700  0.9458 -1.1143 -0.5308
 1977TIP3    H227567   6.042   2.756   1.722 -1.4736 -0.8634 -2.4440
 1978TIP3   OH227568   6.764   2.644   0.863  0.2403  0.2796  0.3886
 1978TIP3    H127569   6.748   2.574   0.799  1.9797  0.9633 -0.8911
 1978TIP3    H227570   6.744   2.725   0.816 -1.5109  0.7233  1.7728
 1979TIP3   OH227571   2.574   2.566   2.045 -0.2896 -0.0435  0.1000
 1979TIP3    H127572   2.651   2.548   1.990  0.6139  1.6220  0.7272
 1979TIP3    H227573   2.593   2.524   2.128 -0.8865 -1.1278 -0.2959
 1980TIP3   OH227574   3.477   0.478   0.461 -0.3007 -0.2856  0.1793
 1980TIP3    H127575   3.399   0.531   0.445  0.1723  0.1922 -0.6159
 1980TIP3    H227576   3.505   0.503   0.549 -0.2497  0.5890 -0.0715
 1981TIP3   OH227577   1.651   5.619   0.250 -0.3555 -0.5815 -0.1559
 1981TIP3    H127578   1.689   5.693   0.202  0.3002  0.2955  1.6466
 1981TIP3    H227579   1.612   5.565   0.181 -0.8985  1.4274 -1.5496
 1982TIP3   OH227580   4.539   4.227   2.068 -0.2040  0.2156  0.4648
 1982TIP3    H127581   4.484   4.162   2.025 -2.2212  1.5175  0.9403
 1982TIP3    H227582   4.561   4.187   2.152 -1.5660  0.1685  0.8240
 1983TIP3   OH227583   4.660   6.525   1.563 -0.1489 -0.0902 -0.1233
 1983TIP3    H127584   4.738   6.511   1.509  1.2973  2.7503  1.0253
 1983TIP3    H227585   4.636   6.616   1.546 -0.8299  0.2824  2.4823
 1984TIP3   OH227586   5.777   3.004   1.538 -0.4538 -0.1424 -0.1163
 1984TIP3    H127587   5.836   3.074   1.509 -0.0101 -0.8316 -0.9257
 1984TIP3    H227588   5.809   2.980   1.625 -1.1161  1.2002  0.5250
 1985TIP3   OH227589   1.811   2.988   1.428 -1.0337 -0.0834  0.3908
 1985TIP3    H127590   1.884   3.021   1.375  1.2946 -0.6365  2.9967
 1985TIP3    H227591   1.813   3.040   1.508 -2.6521 -1.0301  1.1041
 1986TIP3   OH227592   1.296   1.865   0.967  0.0049 -0.0003  0.2374
 1986TIP3    H127593   1.324   1.812   0.892 -0.5699  1.3362 -0.9809
 1986TIP3    H227594   1.377   1.879   1.017  0.3134 -1.2938  0.1358
 1987TIP3   OH227595   1.331   0.443   1.252 -0.3632 -0.4687  0.4920
 1987TIP3    H127596   1.323   0.357   1.294 -0.6214 -0.3133  0.7714
 1987TIP3    H227597   1.272   0.439   1.177 -1.2470 -0.1554  1.1542
 1988TIP3   OH227598   4.325   3.922   0.059  0.0374 -0.4595  0.0455
 1988TIP3    H127599   4.413   3.899   0.031 -0.1862 -0.9641 -0.2570
 1988TIP3    H227600   4.270   3.909  -0.018  0.0142  2.0363 -0.4701
 1989TIP3   OH227601   4.576   3.481   2.324 -0.0557 -0.3749 -0.3861
 1989TIP3    H127602   4.596   3.427   2.248 -1.0723  0.7262 -1.4765
 1989TIP3    H227603   4.523   3.425   2.381 -0.6153 -0.7133 -1.2334
 1990TIP3   OH227604   0.457   2.399   0.061 -0.1674 -0.6494  0.0321
 1990TIP3    H127605   0.453   2.484   0.017 -2.6030 -0.9246 -0.4134
 1990TIP3    H227606   0.526   2.409   0.126  3.3343 -0.0899 -3.4410
 1991TIP3   OH227607   0.295   5.099   1.740  0.1839 -0.3117  0.1523
 1991TIP3    H127608   0.300   5.184   1.698  0.5815 -0.4587 -0.1089
 1991TIP3    H227609   0.386   5.076   1.758  0.1502 -1.0494 -0.5463
 1992TIP3   OH227610   6.484   1.981   7.323  0.1003 -0.2708 -0.0403
 1992TIP3    H127611   6.513   1.892   7.343  0.2068 -0.4705 -1.0096
 1992TIP3    H227612   6.519   1.998   7.236 -0.3285  0.5405 -0.0617
 1993TIP3   OH227613   4.267   4.820   1.366 -0.2410 -0.2493 -0.5290
 1993TIP3    H127614   4.356   4.783   1.369  0.8657  2.2940  0.5360
 1993TIP3    H227615   4.231   4.801   1.453  0.0892  0.5681 -0.2056
 1994TIP3   OH227616   4.064   0.649   1.378  0.5431 -0.6151  0.0309
 1994TIP3    H127617   4.049   0.714   1.446 -0.4672 -0.2157 -0.5542
 1994TIP3    H227618   4.085   0.568   1.426 -0.3519 -0.3972  0.8251
 1995TIP3   OH227619   6.793   6.102   1.071  0.9943  0.5211 -0.4698
 1995TIP3    H127620   6.803   6.028   1.131  0.0500  0.9801  0.2841
 1995TIP3    H227621   6.870   6.156   1.086  0.6491  0.7565  0.5353
 1996TIP3   OH227622   1.187   1.878   0.417 -0.1357 -0.1589  0.6497
 1996TIP3    H127623   1.270   1.830   0.420 -0.5830 -0.9324  1.0207
 1996TIP3    H227624   1.121   1.813   0.440 -1.0652 -0.0102 -1.3690
 1997TIP3   OH227625   3.923   6.759   1.907  0.4752  0.2499  0.0181
 1997TIP3    H127626   3.984   6.822   1.870  0.3675  0.3920  0.0790
 1997TIP3    H227627   3.957   6.743   1.995  0.0974  0.7827  0.2688
 1998TIP3   OH227628   6.230   4.874   0.907 -0.0551 -0.0464  0.2437
 1998TIP3    H127629   6.212   4.854   0.999 -3.1068 -0.5546 -0.3667
 1998TIP3    H227630   6.210   4.967   0.898 -0.4437 -0.1535 -0.0355
 1999TIP3   OH227631   2.102   4.439   8.748  0.4990 -0.5413  0.1158
 1999TIP3    H127632   2.027   4.471   8.798 -0.3806  0.5246 -1.7615
 1999TIP3    H227633   2.076   4.352   8.718 -0.0184 -0.1586 -0.5625
 2000TIP3   OH227634   1.555   1.408   8.007 -0.0817 -0.2955  0.7162
 2000TIP3    H127635   1.591   1.441   7.925  0.4842 -1.1876  0.5965
 2000TIP3    H227636   1.555   1.484   8.066  0.0392  0.2076  0.0723
 2001TIP3   OH227637   5.105   5.774   3.021 -0.1805  0.5647 -0.8696
 2001TIP3    H127638   5.140   5.734   3.101  0.9854 -1.5588 -2.3550
 2001TIP3    H227639   5.021   5.812   3.048 -0.2235 -0.8331  1.1708
 2002TIP3   OH227640   0.453   2.749   0.062  0.0827  0.2896 -0.4217
 2002TIP3    H127641   0.358   2.735   0.063  0.2411 -0.9435 -0.4083
 2002TIP3    H227642   0.478   2.749   0.154  0.3316 -1.4447 -0.4483
 2003TIP3   OH227643   3.627   2.607   0.636  1.0366  0.5966 -0.3536
 2003TIP3    H127644   3.668   2.536   0.685 -0.4033 -0.1985 -0.2255
 2003TIP3    H227645   3.663   2.687   0.674  1.0660 -0.0297  0.9908
 2004TIP3   OH227646   3.297   2.351   0.208 -0.0968  0.1340 -0.2411
 2004TIP3    H127647   3.280   2.424   0.148 -0.8818  1.1398  1.1300
 2004TIP3    H227648   3.363   2.298   0.164 -1.7890 -0.0760 -2.6988
 2005TIP3   OH227649   6.362   4.588   7.799 -0.6453  0.2847  0.1727
 2005TIP3    H127650   6.319   4.514   7.843 -1.0211  0.6309  0.3878
 2005TIP3    H227651   6.300   4.660   7.807 -0.5174  0.4818 -0.5232
 2006TIP3   OH227652   4.012   1.932   7.900 -0.1309  0.0054 -0.4052
 2006TIP3    H127653   4.023   1.885   7.983  1.3133 -0.2829 -0.7365
 2006TIP3    H227654   4.101   1.953   7.872 -0.6137  0.4440 -1.6996
 2007TIP3   OH227655   0.725   4.766   7.147  0.3910 -0.0661  0.4070
 2007TIP3    H127656   0.697   4.768   7.055  0.9583  0.2418  0.2435
 2007TIP3    H227657   0.696   4.680   7.178 -0.3129  0.0518  0.1050
 2008TIP3   OH227658   0.937   4.882   7.298  0.0583  0.0367  0.2811
 2008TIP3    H127659   0.852   4.850   7.270 -0.1746  0.2379  0.7450
 2008TIP3    H227660   0.982   4.805   7.332 -0.0275 -0.0291  0.2461
 2009TIP3   OH227661   5.762   4.398   0.228  0.2552 -0.1970  0.0010
 2009TIP3    H127662   5.848   4.367   0.258  0.4391  2.3286  2.5169
 2009TIP3    H227663   5.708   4.398   0.307 -1.5385  0.0058 -1.1643
 2010TIP3   OH227664   1.741   4.335   2.109  0.1567  0.4157  0.7347
 2010TIP3    H127665   1.807   4.394   2.073  1.2102  0.2283  2.2526
 2010TIP3    H227666   1.667   4.392   2.131 -0.0103  0.7049 -0.5148
 2011TIP3   OH227667   2.037   6.799   1.864 -0.3000 -0.0949  0.1099
 2011TIP3    H127668   1.977   6.870   1.839  0.2936  0.1410 -0.6669
 2011TIP3    H227669   2.048   6.810   1.959 -0.4802  0.6400  0.0517
 2012TIP3   OH227670   4.681   6.348   8.860 -0.0352 -0.0901 -0.5126
 2012TIP3    H127671   4.764   6.387   8.887 -0.3146  1.6236 -1.9427
 2012TIP3    H227672   4.674   6.269   8.913  1.7810  0.4934  0.7196
 2013TIP3   OH227673   1.850   1.080   1.240 -0.6019 -0.4108  0.7917
 2013TIP3    H127674   1.877   1.119   1.158 -2.6735  2.2666  1.2274
 2013TIP3    H227675   1.824   0.991   1.217 -3.0163  0.8496 -1.9524
 2014TIP3   OH227676   4.499   1.236   8.150  0.4153  0.1981  0.4012
 2014TIP3    H127677   4.509   1.240   8.245  0.6893 -0.1874  0.3937
 2014TIP3    H227678   4.440   1.308   8.129  0.1339  0.1182  0.8947
 2015TIP3   OH227679   3.037   5.131   1.756 -0.0181 -0.1851  0.0942
 2015TIP3    H127680   3.040   5.074   1.833  1.5610 -0.0725  0.1443
 2015TIP3    H227681   3.064   5.074   1.684  2.1519  0.5887  0.2335
 2016TIP3   OH227682   4.555   6.254   1.911  0.1617  0.4328 -0.5029
 2016TIP3    H127683   4.586   6.164   1.903 -1.1057  0.0022 -0.7015
 2016TIP3    H227684   4.512   6.258   1.996  0.6202  0.9801 -0.2926
 2017TIP3   OH227685   1.626   2.946   0.554  0.0559  0.5554 -0.6261
 2017TIP3    H127686   1.600   2.865   0.509 -0.0360  0.9027 -1.1984
 2017TIP3    H227687   1.543   2.992   0.570  0.1287  0.6449 -0.5031
 2018TIP3   OH227688   4.414   3.846   1.088 -0.3292 -0.8136 -0.2999
 2018TIP3    H127689   4.330   3.829   1.046  0.1632 -0.4350 -1.4845
 2018TIP3    H227690   4.478   3.838   1.017  0.3621  1.6354 -0.0377
 2019TIP3   OH227691   6.506   3.505   7.941 -0.1533  0.3449  0.6540
 2019TIP3    H127692   6.451   3.542   8.010  0.5268  1.1084  0.8074
 2019TIP3    H227693   6.458   3.522   7.860  0.8202  3.0763  0.5273
 2020TIP3   OH227694   2.943   0.768   1.113  0.2485 -0.2700 -0.4366
 2020TIP3    H127695   2.990   0.726   1.041  0.3783  0.6633 -0.9174
 2020TIP3    H227696   2.988   0.852   1.124 -1.0539  0.4709 -0.6352
 2021TIP3   OH227697   0.854   3.132   1.551 -1.1094  0.0037 -0.5711
 2021TIP3    H127698   0.807   3.199   1.501 -0.2496  0.3036 -0.9925
 2021TIP3    H227699   0.907   3.086   1.486 -1.0705 -0.5478 -0.1549
 2022TIP3   OH227700   5.628   5.944   7.564  0.0241 -0.3433 -0.0462
 2022TIP3    H127701   5.629   6.018   7.503  0.2667 -0.6843 -0.4605
 2022TIP3    H227702   5.621   5.984   7.651 -0.7368  0.1288 -0.3204
 2023TIP3   OH227703   1.129   0.374   1.070 -0.6499 -0.2140  0.6739
 2023TIP3    H127704   1.142   0.300   1.010  0.2537 -0.3852  1.0658
 2023TIP3    H227705   1.056   0.347   1.125 -0.6073 -0.6333  0.5309
 2024TIP3   OH227706   3.267   4.779   7.781  0.4865 -0.6012  0.0021
 2024TIP3    H127707   3.237   4.831   7.707  1.0416  0.4361  0.4843
 2024TIP3    H227708   3.339   4.829   7.819  1.6788 -2.1720 -0.0637
 2025TIP3   OH227709   4.041   5.882   8.505 -0.2046  0.1623  0.2187
 2025TIP3    H127710   4.009   5.916   8.422  0.6336 -2.0178 -1.0779
 2025TIP3    H227711   4.104   5.947   8.535 -0.1910  0.7787 -1.0659
 2026TIP3   OH227712   2.763   4.148   1.272  0.6530 -0.7596  0.1364
 2026TIP3    H127713   2.808   4.082   1.324  2.0144  0.2967  0.3676
 2026TIP3    H227714   2.791   4.232   1.310  0.9333  0.0175 -1.6883
 2027TIP3   OH227715   5.056   0.132   8.224  0.2141 -0.2187  0.4286
 2027TIP3    H127716   5.045   0.039   8.202 -0.4604 -0.1157  0.3174
 2027TIP3    H227717   5.034   0.137   8.317 -0.0243 -0.1254  0.3677
 2028TIP3   OH227718   4.629   5.044   8.458 -0.2201  0.3911 -0.3461
 2028TIP3    H127719   4.569   5.007   8.394  0.8427 -0.6657 -0.7809
 2028TIP3    H227720   4.710   4.994   8.446  1.1476  2.5538 -0.6252
 2029TIP3   OH227721   5.085   5.765   1.239 -0.6378 -0.3016 -0.3423
 2029TIP3    H127722   5.049   5.853   1.226 -1.6000 -0.5880  0.2146
 2029TIP3    H227723   5.178   5.774   1.221 -0.5600  1.0392  0.5319
 2030TIP3   OH227724   4.361   6.329   1.089 -0.4796 -0.0829  0.0913
 2030TIP3    H127725   4.356   6.388   1.013 -1.4776  0.4651  0.5652
 2030TIP3    H227726   4.432   6.364   1.142 -0.2562 -0.0417 -0.2308
 2031TIP3   OH227727   2.690   1.772   8.697  0.1589  0.2903  0.9555
 2031TIP3    H127728   2.624   1.732   8.641  0.8886 -0.3864  0.5671
 2031TIP3    H227729   2.774   1.749   8.657  0.6853  0.1059  2.1059
 2032TIP3   OH227730   2.236   5.733   1.813  0.0298 -0.3021  0.1616
 2032TIP3    H127731   2.187   5.806   1.776  0.6366 -0.5449 -1.1583
 2032TIP3    H227732   2.200   5.655   1.770  0.9884 -0.5575 -0.2059
 2033TIP3   OH227733   6.535   5.849   7.029  0.3469 -0.5046 -0.7372
 2033TIP3    H127734   6.594   5.906   7.078  0.2526 -0.9879 -0.0473
 2033TIP3    H227735   6.469   5.908   6.992  0.1508 -0.1763  0.1054
 2034TIP3   OH227736   1.766   3.466   0.802  0.1091 -0.0117 -0.4844
 2034TIP3    H127737   1.813   3.383   0.806 -0.4259 -0.4013 -1.7938
 2034TIP3    H227738   1.809   3.521   0.867  1.0373 -1.0283 -0.2113
 2035TIP3   OH227739   3.212   1.385   1.822  0.2477 -0.3862 -0.6829
 2035TIP3    H127740   3.295   1.349   1.854  0.4897 -1.2783 -2.2029
 2035TIP3    H227741   3.185   1.325   1.753 -2.2877 -0.7581  0.5326
 2036TIP3   OH227742   1.241   4.182   1.692 -0.3241  0.1013 -0.4048
 2036TIP3    H127743   1.242   4.086   1.690 -0.2833  0.1070 -0.6511
 2036TIP3    H227744   1.300   4.208   1.621 -0.5210  0.3115 -0.4910
 2037TIP3   OH227745   0.513   1.044   0.441 -0.2281  0.2449  0.0186
 2037TIP3    H127746   0.604   1.041   0.469 -0.0024 -0.4973 -0.7580
 2037TIP3    H227747   0.487   1.134   0.456  0.9104  0.6961 -0.5986
 2038TIP3   OH227748   0.108   6.483   8.711 -0.3658  0.8377  0.3581
 2038TIP3    H127749   0.200   6.495   8.686 -0.5652  2.0066  0.1294
 2038TIP3    H227750   0.111   6.422   8.785  0.6868  1.7437  1.0911
 2039TIP3   OH227751   1.047   5.082   1.036 -0.4954 -0.6004  0.9338
 2039TIP3    H127752   1.123   5.138   1.049 -0.3730 -1.0053  2.0696
 2039TIP3    H227753   1.079   5.013   0.977 -0.0138 -0.6926  1.2927
 2040TIP3   OH227754   3.267   3.533   8.186 -0.0505 -0.5008  0.6047
 2040TIP3    H127755   3.261   3.455   8.241  2.5487 -2.3687 -1.5368
 2040TIP3    H227756   3.341   3.582   8.221 -0.8205  0.3586  1.0888
 2041TIP3   OH227757   3.865   6.163   1.965  0.1365  0.5827 -0.1833
 2041TIP3    H127758   3.959   6.146   1.964  0.6949  3.1978 -0.1403
 2041TIP3    H227759   3.849   6.210   1.884 -0.9734  0.8490  0.1780
 2042TIP3   OH227760   0.346   3.702   2.492 -0.5405  0.4342  0.2525
 2042TIP3    H127761   0.251   3.702   2.480 -0.6193  1.1151  0.8160
 2042TIP3    H227762   0.366   3.790   2.523  0.0838 -0.1324  1.5448
 2043TIP3   OH227763   2.069   4.833   8.839  0.3840 -0.0014  0.1192
 2043TIP3    H127764   2.111   4.873   8.763 -0.0563  1.0959  0.4361
 2043TIP3    H227765   2.128   4.851   8.912  1.1301 -1.6148 -0.0363
 2044TIP3   OH227766   4.403   0.039   7.659 -0.5351 -1.1589 -0.4219
 2044TIP3    H127767   4.351   0.116   7.634  0.2827 -0.3433  0.3053
 2044TIP3    H227768   4.361  -0.034   7.615 -1.8726 -0.4176 -0.4163
 2045TIP3   OH227769   5.757   5.780   8.163 -0.9403 -0.1773  0.2468
 2045TIP3    H127770   5.783   5.819   8.079  1.6249 -0.5066  0.7997
 2045TIP3    H227771   5.668   5.812   8.178 -0.4016  2.2951 -1.2094
 2046TIP3   OH227772   5.442   3.876   2.211 -0.4285 -0.1869 -0.1193
 2046TIP3    H127773   5.452   3.802   2.150 -0.4219  1.1256 -1.8027
 2046TIP3    H227774   5.475   3.843   2.294  3.1162 -1.0246 -1.6525
 2047TIP3   OH227775   2.880   1.125   7.955  0.1918 -0.6812 -0.1437
 2047TIP3    H127776   2.894   1.112   7.861  0.4722 -0.1906 -0.1726
 2047TIP3    H227777   2.797   1.080   7.973 -0.0251 -0.5104 -0.6883
 2048TIP3   OH227778   3.289   5.751   8.105 -0.4979  0.1545 -0.2532
 2048TIP3    H127779   3.321   5.694   8.175  2.2626  1.1194 -0.6107
 2048TIP3    H227780   3.252   5.826   8.151 -0.6754 -0.1858  0.1702
 2049TIP3   OH227781   0.638   1.434   0.020  0.0333 -0.6586  0.1402
 2049TIP3    H127782   0.599   1.406  -0.063 -1.2693 -1.3926  0.9670
 2049TIP3    H227783   0.732   1.426   0.006 -0.0418  1.0531 -1.8786
 2050TIP3   OH227784   4.931   5.967   1.141  0.0493  0.8242  0.5757
 2050TIP3    H127785   4.851   5.915   1.152  1.0890 -1.3014 -0.9415
 2050TIP3    H227786   4.915   6.019   1.062  0.1535  0.3131  0.2053
 2051TIP3   OH227787   4.351   1.994   0.911  0.6939 -0.1288 -0.3995
 2051TIP3    H127788   4.398   2.073   0.886  0.3845 -0.2060 -1.2343
 2051TIP3    H227789   4.371   1.983   1.005  0.4497  1.1192 -0.1868
 2052TIP3   OH227790   2.483   6.588   8.837 -0.3464  0.2327  0.0245
 2052TIP3    H127791   2.513   6.518   8.780  0.1277  0.2165  0.2925
 2052TIP3    H227792   2.523   6.667   8.801 -2.4390  0.6962 -1.4793
 2053TIP3   OH227793   6.159   1.018   1.047  0.4353 -0.1571  0.0652
 2053TIP3    H127794   6.077   1.028   1.095  0.5923  1.3769  0.0551
 2053TIP3    H227795   6.225   1.060   1.102  1.2150 -1.2656  0.0188
 2054TIP3   OH227796   5.770   3.557   8.161  0.1837  0.4795  0.0383
 2054TIP3    H127797   5.802   3.467   8.158  0.5720  0.6200 -0.3196
 2054TIP3    H227798   5.820   3.598   8.232 -0.4451  0.2507  0.6138
 2055TIP3   OH227799   1.236   4.066   1.988  0.5928  0.5308 -0.2092
 2055TIP3    H127800   1.194   4.131   2.045  0.4352  1.2713 -1.1453
 2055TIP3    H227801   1.182   4.066   1.909  0.7156 -0.6016 -0.3079
 2056TIP3   OH227802   4.689   3.990   7.919  0.2874  0.3290 -0.4325
 2056TIP3    H127803   4.644   3.945   7.990  1.9676  1.1425  1.2049
 2056TIP3    H227804   4.652   3.951   7.839 -0.7001 -1.5394  0.8734
 2057TIP3   OH227805   4.047   3.422   0.202  0.7655  0.1534 -0.4499
 2057TIP3    H127806   4.029   3.503   0.251  1.4528 -0.0136  0.0932
 2057TIP3    H227807   4.047   3.448   0.111  2.2776  1.0439 -0.2286
 2058TIP3   OH227808   6.286   4.015   1.410  0.2865 -0.8201 -0.1166
 2058TIP3    H127809   6.245   3.934   1.382 -1.2718  0.7327 -2.6753
 2058TIP3    H227810   6.365   4.022   1.357 -1.5493  1.0564 -2.8861
 2059TIP3   OH227811   1.475   4.879   2.325  0.5329  0.1098 -0.0872
 2059TIP3    H127812   1.406   4.829   2.367 -1.4579  2.8901  0.2255
 2059TIP3    H227813   1.503   4.943   2.391  2.0852  0.2699 -0.8366
 2060TIP3   OH227814   4.503   5.769   7.802  0.6381  0.4014  0.2964
 2060TIP3    H127815   4.565   5.837   7.777  1.6838 -0.4370  0.4926
 2060TIP3    H227816   4.514   5.701   7.736 -1.5161  1.0367 -0.8018
 2061TIP3   OH227817   3.972   5.801   8.824 -0.3052  0.0151  0.8145
 2061TIP3    H127818   4.006   5.784   8.912 -0.6519  0.7194  1.1019
 2061TIP3    H227819   4.030   5.754   8.765 -0.8527 -1.5721  1.4987
 2062TIP3   OH227820   3.802   4.131   7.937  0.2907 -0.0328  0.0537
 2062TIP3    H127821   3.747   4.209   7.954 -1.7300 -1.4240  0.3176
 2062TIP3    H227822   3.776   4.103   7.850 -0.6565 -1.6106  0.7918
 2063TIP3   OH227823   4.172   2.246   6.507 -0.5333 -0.0754 -0.0012
 2063TIP3    H127824   4.150   2.207   6.423 -0.5228  0.7720 -0.4069
 2063TIP3    H227825   4.170   2.340   6.492 -0.5619  0.0952  0.9558
 2064TIP3   OH227826   4.272   5.324   1.302 -0.1899  0.7121  0.0124
 2064TIP3    H127827   4.240   5.280   1.223  0.5353 -0.8476  0.5424
 2064TIP3    H227828   4.207   5.392   1.320 -1.6024 -0.4370 -0.5846
 2065TIP3   OH227829   0.805   5.345   2.395  0.5746  0.3269 -0.0049
 2065TIP3    H127830   0.823   5.262   2.441  0.4930 -1.3261 -2.7229
 2065TIP3    H227831   0.876   5.352   2.330  1.4976  3.2829  1.1486
 2066TIP3   OH227832   5.460   0.363   8.185 -0.5705  0.3766 -0.1541
 2066TIP3    H127833   5.417   0.282   8.157 -0.7402  0.6909 -0.8257
 2066TIP3    H227834   5.412   0.433   8.140 -0.3202  0.8392  0.2868
 2067TIP3   OH227835   2.900   2.009   8.756  0.2529  0.8325  0.2641
 2067TIP3    H127836   2.952   2.084   8.787  0.8134  0.1445  1.0260
 2067TIP3    H227837   2.868   2.037   8.670 -0.2131  2.2527  0.8682
 2068TIP3   OH227838   2.415   1.776   0.669 -0.4670  0.1783  0.0662
 2068TIP3    H127839   2.333   1.728   0.663 -0.0946 -0.4209 -0.3692
 2068TIP3    H227840   2.483   1.708   0.664  0.0527  0.6601  0.4412
 2069TIP3   OH227841   3.599   2.217   8.104 -0.0263 -0.3001 -0.5168
 2069TIP3    H127842   3.569   2.299   8.066 -1.0130 -0.9359 -1.1567
 2069TIP3    H227843   3.686   2.203   8.066  1.0251  1.3603  1.0591
 2070TIP3   OH227844   1.726   2.868   1.116 -0.2539  0.0312  0.6804
 2070TIP3    H127845   1.656   2.890   1.178 -1.9743  1.5373 -1.6419
 2070TIP3    H227846   1.680   2.834   1.040  1.4965  1.3109 -1.0381
 2071TIP3   OH227847   0.431   6.172   2.032  0.8810 -0.3990  0.1849
 2071TIP3    H127848   0.518   6.173   2.071  1.4106  0.6608 -0.9219
 2071TIP3    H227849   0.373   6.203   2.101  1.8014  1.5114  0.1643
 2072TIP3   OH227850   3.575   5.879   8.672 -0.5114  0.6184  0.0237
 2072TIP3    H127851   3.542   5.827   8.745  0.6832 -0.7473 -0.3601
 2072TIP3    H227852   3.497   5.901   8.621 -1.1736  0.2467  0.8536
 2073TIP3   OH227853   1.110   6.139   2.209  0.3947  0.3948  0.3451
 2073TIP3    H127854   1.039   6.163   2.150  1.2531  2.3886  0.0367
 2073TIP3    H227855   1.079   6.060   2.254 -0.3152 -1.2064 -2.6742
 2074TIP3   OH227856   1.695   2.440   0.739  0.3801  0.4571 -0.2726
 2074TIP3    H127857   1.731   2.494   0.810  0.1466 -0.5730  0.6470
 2074TIP3    H227858   1.772   2.410   0.691  0.9171 -1.9390  1.8290
 2075TIP3   OH227859   0.553   5.034   8.789  0.6695 -0.0997  0.1821
 2075TIP3    H127860   0.535   5.066   8.878 -1.4175  0.5703 -0.4217
 2075TIP3    H227861   0.490   4.963   8.776  0.0347  0.6892 -1.2184
 2076TIP3   OH227862   0.795   2.408   2.198  0.7922  0.4181 -0.0444
 2076TIP3    H127863   0.858   2.474   2.229  1.2541  0.4425 -0.9719
 2076TIP3    H227864   0.838   2.370   2.121 -0.1296  0.0914 -0.4036
 2077TIP3   OH227865   3.577   3.787   0.790 -0.1487  0.4902 -0.5750
 2077TIP3    H127866   3.647   3.810   0.851  1.4927 -0.6466 -1.9430
 2077TIP3    H227867   3.568   3.692   0.799 -0.5771  0.4493 -1.3634
 2078TIP3   OH227868   5.709   1.819   2.902 -0.4727  0.0784  0.3369
 2078TIP3    H127869   5.629   1.782   2.864 -1.0112  0.9380  0.5956
 2078TIP3    H227870   5.753   1.745   2.944 -1.7908 -0.1819  1.3083
 2079TIP3   OH227871   6.385   6.104   2.103 -0.2045 -0.1108  0.0759
 2079TIP3    H127872   6.471   6.075   2.074 -0.9942 -1.8260 -0.6674
 2079TIP3    H227873   6.397   6.196   2.125  1.2600  0.3662 -2.3583
 2080TIP3   OH227874   5.473   0.842   2.400  0.0148 -0.9212  0.4620
 2080TIP3    H127875   5.452   0.863   2.491  3.6242 -0.2959  1.2755
 2080TIP3    H227876   5.429   0.910   2.349  1.8366  1.7486  2.1888
 2081TIP3   OH227877   2.539   4.913   8.679 -0.1593 -0.8188  0.4439
 2081TIP3    H127878   2.608   4.890   8.617  0.2553 -0.9998  0.9572
 2081TIP3    H227879   2.527   5.007   8.668 -0.2312 -0.8819 -0.0444
 2082TIP3   OH227880   2.152   3.061   1.856  0.4403 -0.2353  0.7030
 2082TIP3    H127881   2.086   3.114   1.900  0.5527 -0.0308  0.6302
 2082TIP3    H227882   2.235   3.090   1.894  0.6570  0.8077 -0.4698
 2083TIP3   OH227883   3.171   5.782   7.693  0.0388 -0.8745  0.3466
 2083TIP3    H127884   3.116   5.834   7.635 -0.3118 -0.8254  0.7194
 2083TIP3    H227885   3.140   5.802   7.781  1.9681  0.6978  0.7429
 2084TIP3   OH227886   6.276   2.658   7.827  0.1301 -0.2251 -0.3481
 2084TIP3    H127887   6.303   2.566   7.822  2.1563  0.3010 -0.2642
 2084TIP3    H227888   6.346   2.700   7.877  0.8810  1.9108 -2.9861
 2085TIP3   OH227889   1.208   6.236   7.519  0.0897  0.0410 -0.2627
 2085TIP3    H127890   1.127   6.258   7.473  0.0672 -0.0896 -0.2847
 2085TIP3    H227891   1.180   6.210   7.607  0.0286 -0.8708 -0.5419
 2086TIP3   OH227892   4.642   0.597   1.818  0.7325 -0.2222 -0.3353
 2086TIP3    H127893   4.609   0.670   1.766  0.7306 -1.3307 -1.9521
 2086TIP3    H227894   4.708   0.637   1.875  0.2960  1.1378 -0.7339
 2087TIP3   OH227895   4.002   0.605   1.016 -0.3555  0.0861 -0.2020
 2087TIP3    H127896   3.956   0.600   1.100  0.9634  0.8036  0.5990
 2087TIP3    H227897   3.936   0.641   0.955 -2.4239 -3.5503 -0.4060
 2088TIP3   OH227898   5.588   4.465   8.517  0.1290  0.1813  0.6821
 2088TIP3    H127899   5.628   4.474   8.604 -0.8412  1.3571  1.0338
 2088TIP3    H227900   5.497   4.494   8.529  0.0067  0.4666 -0.7597
 2089TIP3   OH227901   1.362   3.736   8.574  0.2090  0.0071  0.6541
 2089TIP3    H127902   1.352   3.794   8.650 -0.6291  0.3342  0.3099
 2089TIP3    H227903   1.291   3.761   8.515  0.2725 -0.8932  0.1753
 2090TIP3   OH227904   5.208   5.769   8.298 -0.1095  0.2232 -0.5175
 2090TIP3    H127905   5.225   5.731   8.212  0.4560  0.5941 -0.5725
 2090TIP3    H227906   5.257   5.714   8.359  0.9485  1.0251 -0.6282
 2091TIP3   OH227907   5.449   6.194   8.502 -0.0824  0.3697 -0.2036
 2091TIP3    H127908   5.355   6.211   8.505  0.1443  1.8305 -0.1910
 2091TIP3    H227909   5.458   6.099   8.508 -1.4505  0.3309  2.0222
 2092TIP3   OH227910   6.520   1.784   7.768 -0.5679  0.1096  0.7860
 2092TIP3    H127911   6.462   1.731   7.713 -1.2321  0.0699  1.5080
 2092TIP3    H227912   6.479   1.870   7.770 -0.4925  0.1407  1.1173
 2093TIP3   OH227913   4.831   5.020   1.895  0.1472 -0.2388  0.1741
 2093TIP3    H127914   4.815   4.926   1.906 -0.2682 -0.2127 -0.1765
 2093TIP3    H227915   4.822   5.034   1.800  0.4539  0.1100  0.1965
 2094TIP3   OH227916   2.034   1.260   7.001  1.1256 -0.5497  0.1735
 2094TIP3    H127917   2.026   1.355   7.006 -2.2628 -0.6656 -0.5394
 2094TIP3    H227918   2.078   1.245   6.917  1.2301  0.3874  0.0431
 2095TIP3   OH227919   2.688   6.506   7.364  0.0673 -0.5792 -0.4666
 2095TIP3    H127920   2.723   6.426   7.325  1.7136  0.6144 -1.5491
 2095TIP3    H227921   2.753   6.573   7.345 -1.4305  1.1236  0.0954
 2096TIP3   OH227922   6.379   5.764   8.235 -0.2717 -0.2912 -0.1754
 2096TIP3    H127923   6.465   5.799   8.212 -0.0065 -0.3926  0.6170
 2096TIP3    H227924   6.340   5.833   8.289 -0.2454 -0.6917  0.3632
 2097TIP3   OH227925   1.931   2.417   1.193  0.0282  0.6142  1.2927
 2097TIP3    H127926   1.854   2.364   1.216  0.3314 -0.6464 -0.4179
 2097TIP3    H227927   1.901   2.508   1.204 -1.7160  0.1566  0.7039
 2098TIP3   OH227928   1.670   6.044   7.487  0.1742  0.0933  0.4724
 2098TIP3    H127929   1.734   5.989   7.532  0.9753  0.1389 -0.5674
 2098TIP3    H227930   1.585   6.007   7.513  0.4589  1.2333  3.4304
 2099TIP3   OH227931   0.398   2.857   8.605 -0.5656 -0.1174  0.3733
 2099TIP3    H127932   0.334   2.875   8.674 -2.2385 -2.3358 -0.4645
 2099TIP3    H227933   0.371   2.913   8.532 -0.1003  0.6509  0.7767
 2100TIP3   OH227934   3.394   3.719   0.241  0.5363 -0.4661  0.1933
 2100TIP3    H127935   3.303   3.748   0.251  0.2102 -0.2697 -2.5144
 2100TIP3    H227936   3.388   3.624   0.229  0.4960 -0.3063 -1.2796
 2101TIP3   OH227937   4.753   3.482   7.096 -0.3468  0.0005  0.1665
 2101TIP3    H127938   4.810   3.474   7.172  0.4470 -0.0129 -0.4147
 2101TIP3    H227939   4.809   3.519   7.028 -1.4771  1.5661  0.0489
 2102TIP3   OH227940   0.797   6.186   0.583  0.1405  0.5056  0.0201
 2102TIP3    H127941   0.763   6.274   0.599 -1.0506  0.2268 -0.8324
 2102TIP3    H227942   0.805   6.148   0.670 -2.9690  0.1869  0.2918
 2103TIP3   OH227943   0.042   4.183   8.336  0.2158 -0.8376 -0.1098
 2103TIP3    H127944   0.027   4.245   8.264  1.3695 -0.2561  0.1179
 2103TIP3    H227945   0.029   4.097   8.297  1.3828 -0.5528 -1.1949
 2104TIP3   OH227946   0.581   4.619   0.714 -0.5017  0.3747 -0.4420
 2104TIP3    H127947   0.623   4.558   0.774 -2.4965 -0.1563  0.4886
 2104TIP3    H227948   0.643   4.692   0.706  1.6065 -1.3946 -1.0140
 2105TIP3   OH227949   6.206   4.076   2.420 -0.2057 -0.3178  0.5029
 2105TIP3    H127950   6.111   4.085   2.409 -0.2612 -1.2527  0.0935
 2105TIP3    H227951   6.234   4.158   2.461 -1.3201 -0.4080  1.4828
 2106TIP3   OH227952   1.935   1.151   1.753 -0.1125 -0.4086 -0.2051
 2106TIP3    H127953   2.023   1.180   1.777 -0.5506  0.8029  0.0443
 2106TIP3    H227954   1.910   1.209   1.680 -0.5551 -1.0090 -0.5424
 2107TIP3   OH227955   2.514   6.031   7.802 -0.0035 -0.1174  0.0171
 2107TIP3    H127956   2.436   5.995   7.759 -0.0741 -0.2466  0.2505
 2107TIP3    H227957   2.488   6.118   7.830 -0.2538 -0.3776  0.6110
 2108TIP3   OH227958   0.909   5.239   6.787  0.2700  0.2532 -0.6060
 2108TIP3    H127959   0.987   5.197   6.821  0.2499 -1.0944 -2.1094
 2108TIP3    H227960   0.935   5.273   6.701 -1.5964 -3.5663 -2.9594
 2109TIP3   OH227961   5.835   0.543   7.773  0.5985 -0.1235 -0.1912
 2109TIP3    H127962   5.768   0.476   7.785 -0.6487  1.0480 -0.4490
 2109TIP3    H227963   5.889   0.537   7.852  0.6816 -1.5961 -0.3305
 2110TIP3   OH227964   1.493   3.014   8.281 -0.1122  0.1906 -0.0525
 2110TIP3    H127965   1.579   2.994   8.316 -0.3490 -0.6098  0.1072
 2110TIP3    H227966   1.481   2.952   8.209  0.4331  1.9071 -1.7302
 2111TIP3   OH227967   0.630   3.200   8.328 -0.3337 -0.6783 -0.5050
 2111TIP3    H127968   0.674   3.153   8.399 -1.0597  1.7752  1.7330
 2111TIP3    H227969   0.693   3.267   8.301 -0.8913 -0.1814 -0.5981
 2112TIP3   OH227970   3.640   4.924   1.679  0.1136  0.2797 -0.4168
 2112TIP3    H127971   3.573   4.989   1.657  1.0442  1.4167  0.0239
 2112TIP3    H227972   3.651   4.932   1.774 -0.3934 -1.1671 -0.2104
 2113TIP3   OH227973   3.418   1.232   0.923  0.0732  0.3442 -0.2209
 2113TIP3    H127974   3.358   1.213   0.850  0.8057 -2.2806 -0.2436
 2113TIP3    H227975   3.495   1.271   0.881 -0.2132  0.5045 -0.6054
 2114TIP3   OH227976   4.555   1.167   7.279 -0.0842  0.1752 -0.3634
 2114TIP3    H127977   4.598   1.252   7.280 -0.0534  0.4098 -4.6385
 2114TIP3    H227978   4.478   1.178   7.335  0.6329  2.5369  0.2448
 2115TIP3   OH227979   6.788   4.174   7.662 -0.0245  0.2542 -0.2750
 2115TIP3    H127980   6.724   4.239   7.690 -2.4966 -2.0424 -0.1949
 2115TIP3    H227981   6.844   4.161   7.738  1.2812  2.9947 -0.6478
 2116TIP3   OH227982   1.144   3.947   7.333 -0.1581 -0.3610 -0.5233
 2116TIP3    H127983   1.235   3.966   7.311  0.6404 -1.3492  1.6225
 2116TIP3    H227984   1.114   4.024   7.380 -0.0487 -0.4818 -0.2515
 2117TIP3   OH227985   6.672   1.672   0.949  0.6894 -0.4893 -0.2787
 2117TIP3    H127986   6.685   1.759   0.912  1.6149 -0.4205  0.1849
 2117TIP3    H227987   6.686   1.684   1.043 -2.3761 -0.4921  0.2848
 2118TIP3   OH227988   5.802   2.507   1.738  0.7153  0.3137  0.1614
 2118TIP3    H127989   5.758   2.427   1.709 -1.6151  1.3679  0.5454
 2118TIP3    H227990   5.856   2.533   1.663  1.3942 -1.4967 -0.0238
 2119TIP3   OH227991   3.194   1.522   0.623 -0.5783  0.0943  0.7073
 2119TIP3    H127992   3.250   1.512   0.546 -2.5755 -1.5872 -0.6441
 2119TIP3    H227993   3.166   1.614   0.620  0.8138  0.5344  0.5233
 2120TIP3   OH227994   2.508   0.176   1.058  0.3778  0.0184 -0.0707
 2120TIP3    H127995   2.535   0.087   1.078  0.3451  0.2821  1.2372
 2120TIP3    H227996   2.418   0.168   1.025  0.8547 -0.5436 -1.2752
 2121TIP3   OH227997   6.686   4.548   1.346 -0.1333  0.0159 -0.4015
 2121TIP3    H127998   6.769   4.546   1.395 -0.0162 -1.3733 -0.6011
 2121TIP3    H227999   6.647   4.462   1.362 -1.1121  0.3291 -1.0284
 2122TIP3   OH228000   3.662   1.677   6.713  0.0852 -0.4674 -0.3882
 2122TIP3    H128001   3.742   1.710   6.754 -0.2198  1.0995 -1.0015
 2122TIP3    H228002   3.602   1.751   6.714 -2.2866 -2.1987  2.2088
 2123TIP3   OH228003   4.197   3.779   1.413  0.1803  0.5941  0.6416
 2123TIP3    H128004   4.253   3.796   1.488 -1.1644  1.0485  1.5807
 2123TIP3    H228005   4.218   3.849   1.351  1.8791 -0.2526  0.2067
 2124TIP3   OH228006   6.268   5.882   7.259  0.4977 -0.4464  0.4504
 2124TIP3    H128007   6.263   5.948   7.189  0.8424  0.6909  1.4619
 2124TIP3    H228008   6.239   5.801   7.217  2.2704 -0.1729 -1.4810
 2125TIP3   OH228009   3.817   0.474   0.124 -0.1919 -0.3189 -0.8293
 2125TIP3    H128010   3.871   0.500   0.198 -0.0637 -0.9182 -0.7031
 2125TIP3    H228011   3.817   0.549   0.065 -1.5712  0.7767  0.4919
 2126TIP3   OH228012   5.225   2.959   2.231  0.9598  0.3963 -0.2278
 2126TIP3    H128013   5.169   2.971   2.307  1.6137 -0.4048  0.4029
 2126TIP3    H228014   5.185   2.888   2.182  1.4992 -0.2964  0.3156
 2127TIP3   OH228015   3.404   3.924   8.181  0.1746  0.1922 -0.7402
 2127TIP3    H128016   3.483   3.964   8.144 -1.5054  2.5487 -2.0745
 2127TIP3    H228017   3.349   3.905   8.106 -0.9324 -0.5328  0.2169
 2128TIP3   OH228018   2.949   1.417   7.845 -0.2200  0.2313  0.0815
 2128TIP3    H128019   3.021   1.424   7.907  0.8317 -0.1620 -1.0690
 2128TIP3    H228020   2.905   1.335   7.868 -0.3412  0.4964  0.8137
 2129TIP3   OH228021   4.465   2.190   2.455  0.1535 -0.1195 -0.1942
 2129TIP3    H128022   4.478   2.265   2.513 -0.1867 -2.0527  2.5583
 2129TIP3    H228023   4.547   2.182   2.407  0.7087  1.1753  0.5011
 2130TIP3   OH228024   3.399   1.078   1.126 -0.1273  0.1576 -0.2678
 2130TIP3    H128025   3.419   1.115   1.041 -0.1242  0.8292  0.0189
 2130TIP3    H228026   3.417   1.148   1.188 -0.9201 -0.0447  0.2155
 2131TIP3   OH228027   5.561   1.860   0.392  0.2787  0.3587  0.3720
 2131TIP3    H128028   5.562   1.804   0.469 -0.1977 -0.0027  0.1241
 2131TIP3    H228029   5.468   1.870   0.371  0.4087  0.2881 -0.2679
 2132TIP3   OH228030   1.094   6.400   1.411 -0.5985  0.0946 -0.0502
 2132TIP3    H128031   1.026   6.375   1.474 -0.2725 -1.5955 -0.3295
 2132TIP3    H228032   1.164   6.337   1.425 -0.2179  0.1360 -1.6138
 2133TIP3   OH228033   0.160   2.441   1.717 -0.0766 -0.2328  0.0743
 2133TIP3    H128034   0.128   2.425   1.628  0.0629 -1.0697  0.1639
 2133TIP3    H228035   0.216   2.518   1.709  0.0092 -0.3578 -0.5805
 2134TIP3   OH228036   6.521   4.988   0.405 -0.3303 -0.0558 -0.6983
 2134TIP3    H128037   6.608   4.947   0.407 -0.7001 -0.8046  0.6485
 2134TIP3    H228038   6.534   5.073   0.448 -0.3964 -0.4800  0.1907
 2135TIP3   OH228039   5.192   4.436   1.426  0.0792 -0.2515  0.1664
 2135TIP3    H128040   5.247   4.379   1.480  2.3972  0.7822 -0.9719
 2135TIP3    H228041   5.237   4.521   1.428 -1.6512  0.7297 -0.6287
 2136TIP3   OH228042   2.347   6.542   8.576  0.2585 -0.3333 -0.1488
 2136TIP3    H128043   2.367   6.456   8.540  0.1471 -0.4582  0.0866
 2136TIP3    H228044   2.289   6.525   8.650  1.0192 -0.1316  0.5121
 2137TIP3   OH228045   3.157   4.908   7.036 -0.2427  0.1372 -0.1436
 2137TIP3    H128046   3.238   4.857   7.034 -0.9369 -1.0573  0.3647
 2137TIP3    H228047   3.161   4.964   6.959  1.4982  0.8292  0.4001
 2138TIP3   OH228048   2.304   6.352   0.162  0.0240 -0.0781 -0.6039
 2138TIP3    H128049   2.360   6.394   0.097 -0.2580 -0.1308 -0.8858
 2138TIP3    H228050   2.364   6.317   0.227  0.5192 -2.2390 -2.0966
 2139TIP3   OH228051   2.934   6.638   0.410  0.7107  0.0085 -0.0784
 2139TIP3    H128052   2.965   6.580   0.341 -0.6898 -1.1400  0.2061
 2139TIP3    H228053   2.971   6.601   0.491  0.8712  0.2866 -0.0226
 2140TIP3   OH228054   1.115   4.277   0.584 -0.3513 -0.5852 -0.2364
 2140TIP3    H128055   1.040   4.239   0.632 -1.2116  0.9843 -0.2823
 2140TIP3    H228056   1.143   4.207   0.525 -1.5309 -1.3546  0.0766
 2141TIP3   OH228057   1.001   5.594   1.946 -0.0916  0.2615  0.0359
 2141TIP3    H128058   0.943   5.590   2.022 -1.0336  0.1386 -0.6731
 2141TIP3    H228059   0.947   5.632   1.877  0.9772  1.0755 -0.3814
 2142TIP3   OH228060   4.918   6.060   2.075 -0.0935 -0.0072  0.0755
 2142TIP3    H128061   4.840   6.009   2.057  0.7553 -0.6257 -2.1598
 2142TIP3    H228062   4.886   6.149   2.089 -1.2388 -0.3578 -0.2546
 2143TIP3   OH228063   4.375   2.662   7.677  0.4119  0.1391  0.2824
 2143TIP3    H128064   4.314   2.588   7.669 -0.6052  0.9211  0.5370
 2143TIP3    H228065   4.364   2.711   7.596  2.2149 -0.7832 -0.5724
 2144TIP3   OH228066   5.197   0.832   7.510 -0.5902 -0.6789  0.1986
 2144TIP3    H128067   5.285   0.857   7.536 -0.5680 -1.6968  1.1436
 2144TIP3    H228068   5.192   0.738   7.526 -1.7361 -0.6964 -0.1589
 2145TIP3   OH228069   4.252   3.425   2.730  0.3445 -0.1581  0.1510
 2145TIP3    H128070   4.285   3.459   2.812  0.3198  0.8860 -0.2651
 2145TIP3    H228071   4.159   3.407   2.747  0.7163 -1.6167  0.8497
 2146TIP3   OH228072   0.061   4.087   0.102  0.1147 -0.9177 -0.7198
 2146TIP3    H128073   0.059   4.159   0.039 -2.0568  1.0881  1.4100
 2146TIP3    H228074   0.137   4.106   0.157 -1.7612  1.3509  1.3330
 2147TIP3   OH228075   3.284   2.239   1.833  0.0997  0.2932 -0.3565
 2147TIP3    H128076   3.304   2.154   1.872 -0.3431  0.5158  0.3790
 2147TIP3    H228077   3.306   2.229   1.740 -1.2891 -1.0635 -0.5719
 2148TIP3   OH228078   3.354   1.466   0.421 -0.1670 -0.1894 -0.1635
 2148TIP3    H128079   3.372   1.381   0.381 -0.5543 -0.9833  1.2671
 2148TIP3    H228080   3.298   1.511   0.359 -0.0808 -1.0480 -0.8755
 2149TIP3   OH228081   3.624   3.632   2.005 -0.1085  0.4228 -0.2637
 2149TIP3    H128082   3.593   3.629   2.095  2.2339 -1.6274  0.5708
 2149TIP3    H228083   3.695   3.697   2.006  1.4258 -1.1837 -0.0246
 2150TIP3   OH228084   5.456   1.595   7.431  0.2656  0.3934  0.3819
 2150TIP3    H128085   5.504   1.648   7.368  1.6128 -0.8416  0.3217
 2150TIP3    H228086   5.524   1.550   7.481 -0.8248 -0.9819  0.6859
 2151TIP3   OH228087   6.375   3.234   7.161 -0.2718  0.4698  0.2287
 2151TIP3    H128088   6.340   3.146   7.149 -1.3183  0.9083 -0.0826
 2151TIP3    H228089   6.371   3.274   7.074 -1.2780  1.3301  0.6407
 2152TIP3   OH228090   4.802   5.550   7.946  0.2641  0.2983  0.3707
 2152TIP3    H128091   4.785   5.600   7.866  0.5918  0.3664  0.3421
 2152TIP3    H228092   4.875   5.492   7.923  1.1897  1.1786  0.9710
 2153TIP3   OH228093   4.524   3.000   8.764  0.3980 -0.1412  0.0039
 2153TIP3    H128094   4.484   3.084   8.785  0.3899 -0.0311 -0.4478
 2153TIP3    H228095   4.473   2.968   8.689  0.1949 -0.6944  0.3688
 2154TIP3   OH228096   6.294   1.045   7.595  0.3082  0.0197  0.3155
 2154TIP3    H128097   6.221   1.019   7.651  0.1963  0.2980  0.3020
 2154TIP3    H228098   6.364   0.984   7.617 -0.0392 -0.4707  0.0745
 2155TIP3   OH228099   1.443   1.336   7.505 -0.2178 -0.0512  0.4348
 2155TIP3    H128100   1.401   1.347   7.590 -1.1948  0.8244 -0.1276
 2155TIP3    H228101   1.485   1.250   7.509 -2.0131 -0.9399  1.0588
 2156TIP3   OH228102   5.599   0.939   7.758 -0.2741  0.3679 -0.2805
 2156TIP3    H128103   5.594   0.864   7.818 -0.4857 -0.0622 -0.8330
 2156TIP3    H228104   5.647   1.005   7.808  1.1761 -0.6309 -0.2960
 2157TIP3   OH228105   0.952   1.541   8.582  0.0146 -0.4644 -0.1148
 2157TIP3    H128106   0.899   1.565   8.506 -1.0689  0.3407  0.8621
 2157TIP3    H228107   0.999   1.621   8.605  0.3209 -0.6956  0.0638
 2158TIP3   OH228108   5.229   4.957   0.740  0.0655  0.3423 -0.2664
 2158TIP3    H128109   5.317   4.940   0.773 -0.3179  0.9512  1.1815
 2158TIP3    H228110   5.242   5.003   0.657  1.0989 -0.1624 -0.3904
 2159TIP3   OH228111   4.689   0.771   7.097  0.0389 -0.3259 -0.0928
 2159TIP3    H128112   4.620   0.828   7.130  0.3504 -0.1901  0.3367
 2159TIP3    H228113   4.763   0.788   7.155 -0.0309 -1.5591  0.3812
 2160TIP3   OH228114   6.365   1.163   1.540  0.0496  0.0160  0.0813
 2160TIP3    H128115   6.429   1.230   1.518  1.5763 -1.2611  0.4761
 2160TIP3    H228116   6.382   1.144   1.632 -1.2663 -0.0002  0.3474
 2161TIP3   OH228117   6.174   1.203   8.771  0.4887 -0.2995 -0.0897
 2161TIP3    H128118   6.174   1.289   8.731 -0.0107 -0.0252  0.4922
 2161TIP3    H228119   6.170   1.220   8.865 -1.7607 -0.9739 -0.0254
 2162TIP3   OH228120   1.521   5.575   8.711 -0.0897 -0.0045  0.5888
 2162TIP3    H128121   1.478   5.659   8.692  0.4994  0.3977  1.0225
 2162TIP3    H228122   1.568   5.553   8.630  0.9846  0.8376  0.9687
 2163TIP3   OH228123   5.234   5.097   0.172  0.2156 -0.0220  0.3798
 2163TIP3    H128124   5.206   5.166   0.111  0.6485 -1.1352 -1.1449
 2163TIP3    H228125   5.156   5.078   0.224  0.1668  1.8099  1.0744
 2164TIP3   OH228126   4.710   3.521   1.980  0.4661 -0.2931 -0.0221
 2164TIP3    H128127   4.721   3.588   1.913 -0.9458  0.8925  0.8831
 2164TIP3    H228128   4.720   3.567   2.063 -2.8014 -0.6304  0.6973
 2165TIP3   OH228129   2.055   4.981   7.854 -0.8339  0.1773 -0.0365
 2165TIP3    H128130   2.091   4.893   7.865  1.3232  1.0848  0.7035
 2165TIP3    H228131   2.011   5.000   7.937  0.4282  0.5192  0.5724
 2166TIP3   OH228132   5.014   4.794   2.622  0.5079  0.1260 -0.0590
 2166TIP3    H128133   5.063   4.818   2.701 -0.0531  0.1132  0.2963
 2166TIP3    H228134   4.956   4.868   2.607  0.7151  0.1925 -0.5484
 2167TIP3   OH228135   2.917   2.534   7.800 -0.2885 -0.0960 -0.6786
 2167TIP3    H128136   2.993   2.489   7.835 -0.4262 -0.3636 -0.7246
 2167TIP3    H228137   2.854   2.465   7.780 -0.8173  0.1725  0.0189
 2168TIP3   OH228138   3.082   6.655   8.649  0.7581  0.0603  0.3453
 2168TIP3    H128139   3.028   6.674   8.726 -0.2659  1.7226 -0.7081
 2168TIP3    H228140   3.126   6.738   8.631 -0.4018  0.2711 -1.8707
 2169TIP3   OH228141   0.999   5.277   1.854  0.5312  0.2309 -0.2374
 2169TIP3    H128142   1.024   5.347   1.793  0.5318 -1.0949 -1.8130
 2169TIP3    H228143   1.083   5.246   1.889  0.5738  0.5599 -0.0382
 2170TIP3   OH228144   4.534   6.519   7.814  0.5796  0.6081  0.0037
 2170TIP3    H128145   4.531   6.424   7.802 -0.9429  0.6680 -0.2715
 2170TIP3    H228146   4.466   6.538   7.879 -1.4842  1.7930 -2.3086
 2171TIP3   OH228147   5.792   5.499   1.269 -0.4373  0.0316 -0.3466
 2171TIP3    H128148   5.739   5.536   1.340 -0.7186 -0.9510 -0.0325
 2171TIP3    H228149   5.802   5.571   1.207  1.0197  1.3504  1.3296
 2172TIP3   OH228150   5.476   2.832   2.152  0.0352 -0.0181 -0.0722
 2172TIP3    H128151   5.547   2.877   2.196 -0.1081  0.4402 -0.3056
 2172TIP3    H228152   5.396   2.873   2.185 -0.2134 -1.5383  1.3418
 2173TIP3   OH228153   3.809   0.820   0.335 -0.0255 -0.6477 -0.8899
 2173TIP3    H128154   3.763   0.879   0.275 -0.8682 -1.5476 -1.1659
 2173TIP3    H228155   3.763   0.830   0.418  0.4092 -0.2549 -0.6925
 2174TIP3   OH228156   0.402   0.140   1.742 -1.0927  0.0402 -0.4546
 2174TIP3    H128157   0.489   0.137   1.703 -0.7650 -0.0795  0.2593
 2174TIP3    H228158   0.406   0.215   1.802 -1.9907  1.0207 -1.5585
 2175TIP3   OH228159   0.697   3.154   2.313  0.1709  0.5135 -0.0972
 2175TIP3    H128160   0.747   3.161   2.394 -0.0744 -0.5300  0.1665
 2175TIP3    H228161   0.645   3.234   2.309  1.1426  1.1707  0.1006
 2176TIP3   OH228162   5.336   1.910   8.618  0.0889  0.3815 -0.3150
 2176TIP3    H128163   5.356   1.993   8.575  0.4136 -0.3599 -1.6412
 2176TIP3    H228164   5.394   1.908   8.694  1.8783  0.2846 -1.6293
 2177TIP3   OH228165   3.831   6.316   1.285  0.6866  0.4352  0.6756
 2177TIP3    H128166   3.818   6.225   1.313 -1.2333 -0.7818 -3.3730
 2177TIP3    H228167   3.923   6.321   1.260  0.4244 -1.1254 -0.8501
 2178TIP3   OH228168   2.442   6.132   1.776 -0.6252 -0.1022  0.7130
 2178TIP3    H128169   2.520   6.141   1.723 -0.9752  1.5011  0.4299
 2178TIP3    H228170   2.413   6.222   1.793 -1.2747 -0.5932  2.5012
 2179TIP3   OH228171   1.102   1.581   2.932  0.6588  0.3941 -0.1711
 2179TIP3    H128172   1.041   1.557   3.002  0.8312 -0.0108 -0.1548
 2179TIP3    H228173   1.155   1.651   2.969  1.2608 -0.3385  0.3779
 2180TIP3   OH228174   0.559   3.643   1.295 -0.0724  0.0112  0.1618
 2180TIP3    H128175   0.511   3.651   1.212  0.6516  1.1091 -0.1660
 2180TIP3    H228176   0.490   3.636   1.362 -0.7499  2.0758 -0.2552
 2181TIP3   OH228177   6.043   2.521   0.934 -0.2508 -0.4493 -0.2305
 2181TIP3    H128178   5.975   2.494   0.995 -0.9054 -0.9574 -1.1607
 2181TIP3    H228179   6.044   2.617   0.940 -1.2714 -0.4141 -0.4260
 2182TIP3   OH228180   0.042   0.272   8.524  0.2280  0.4204  0.4140
 2182TIP3    H128181   0.016   0.263   8.433 -1.9618  2.6840  0.6853
 2182TIP3    H228182   0.135   0.294   8.521  0.5070 -0.8744 -1.1572
 2183TIP3   OH228183   5.225   2.992   1.822 -0.3212  0.4108  0.1358
 2183TIP3    H128184   5.316   2.986   1.795 -0.7123 -0.9175 -1.0059
 2183TIP3    H228185   5.228   3.022   1.913  1.2627 -0.1719  0.2927
 2184TIP3   OH228186   5.771   6.237   1.297 -0.3749 -0.7235 -0.2380
 2184TIP3    H128187   5.710   6.164   1.283 -1.6534  0.4322 -0.9362
 2184TIP3    H228188   5.813   6.217   1.381 -0.4154 -2.4355 -0.5878
 2185TIP3   OH228189   1.298   0.834   0.013  0.3874 -0.0812  0.1420
 2185TIP3    H128190   1.282   0.742  -0.007  0.5290  0.0480 -0.5901
 2185TIP3    H228191   1.387   0.836   0.048  1.1824  0.0273 -1.7619
 2186TIP3   OH228192   2.986   3.024   7.318  0.2116 -0.2361 -0.1422
 2186TIP3    H128193   3.028   2.938   7.310 -1.0041 -0.7901 -0.8408
 2186TIP3    H228194   2.897   3.004   7.346 -0.2458  0.7611 -0.8529
 2187TIP3   OH228195   3.801   1.645   0.580 -0.1689 -0.1807 -0.5165
 2187TIP3    H128196   3.706   1.637   0.583 -0.2664  0.9536  1.4057
 2187TIP3    H228197   3.818   1.737   0.599  1.3107 -0.3225 -1.0322
 2188TIP3   OH228198   5.463   5.130   7.685 -0.2896 -0.2812 -0.4670
 2188TIP3    H128199   5.477   5.195   7.754 -0.6141 -0.1507 -0.5229
 2188TIP3    H228200   5.505   5.167   7.608 -0.4131 -0.1682 -0.4804
 2189TIP3   OH228201   3.704   3.311   0.252 -1.0088  0.0777  1.0276
 2189TIP3    H128202   3.718   3.398   0.217  1.9607 -1.3053 -1.7127
 2189TIP3    H228203   3.612   3.292   0.234 -1.0210  1.6540 -0.8937
 2190TIP3   OH228204   6.626   6.713   1.464 -0.3164  0.3319  0.2319
 2190TIP3    H128205   6.708   6.749   1.430 -0.3353  0.4352  0.2963
 2190TIP3    H228206   6.561   6.781   1.448 -0.7389 -0.4117 -1.3698
 2191TIP3   OH228207   6.099   5.497   8.059 -0.7376 -0.0798  0.2835
 2191TIP3    H128208   6.060   5.410   8.069 -1.1469  0.1187  0.4443
 2191TIP3    H228209   6.193   5.480   8.046 -0.4831 -0.4655  2.3260
 2192TIP3   OH228210   0.952   5.144   7.728  0.3402  0.3006 -0.2470
 2192TIP3    H128211   1.040   5.166   7.758 -0.1685  3.5011 -0.7261
 2192TIP3    H228212   0.893   5.183   7.793 -0.7188 -0.4116 -0.7465
 2193TIP3   OH228213   1.015   0.900   0.856  0.1186 -0.0333 -0.7830
 2193TIP3    H128214   0.937   0.953   0.838  0.6952 -0.0632 -4.0793
 2193TIP3    H228215   0.981   0.813   0.876 -0.7220  0.2277 -1.0398
 2194TIP3   OH228216   1.517   0.783   1.362  0.3712 -0.6809 -0.0743
 2194TIP3    H128217   1.555   0.768   1.449  2.7877  0.9592 -0.7532
 2194TIP3    H228218   1.529   0.877   1.347 -1.4385 -0.6356 -1.5792
 2195TIP3   OH228219   4.009   1.734   1.659 -0.8937  0.6094  0.6248
 2195TIP3    H128220   4.008   1.768   1.748 -2.4504  0.5056  0.6758
 2195TIP3    H228221   4.030   1.809   1.604  2.6815  0.2074  1.1768
 2196TIP3   OH228222   6.149   0.654   1.464  0.1001  0.2343  0.0867
 2196TIP3    H128223   6.054   0.666   1.472 -0.1343 -0.9361 -0.6866
 2196TIP3    H228224   6.184   0.743   1.456 -0.8675  0.7106  0.9512
 2197TIP3   OH228225   4.326   2.468   2.206  0.3024  0.1373  0.3581
 2197TIP3    H128226   4.269   2.543   2.186 -1.0322 -1.2988 -1.6035
 2197TIP3    H228227   4.317   2.456   2.301 -0.8324  1.3899  0.4437
 2198TIP3   OH228228   5.978   0.199   1.012  0.6822 -0.0613  0.0511
 2198TIP3    H128229   6.053   0.246   0.975  1.6531 -1.0067  0.7376
 2198TIP3    H228230   5.982   0.113   0.971 -1.3052  0.5053 -1.4843
 2199TIP3   OH228231   3.067   1.788   7.997 -0.1480 -0.6746  0.2092
 2199TIP3    H128232   3.150   1.808   8.039 -0.0952 -2.6060  1.1217
 2199TIP3    H228233   3.076   1.698   7.967 -1.5987 -0.6173 -0.4829
 2200TIP3   OH228234   1.058   1.682   2.230 -0.4684 -0.5997  0.1446
 2200TIP3    H128235   1.090   1.755   2.282 -1.5196 -0.2172  0.2623
 2200TIP3    H228236   1.009   1.628   2.292 -2.3094  0.2122 -0.5439
 2201TIP3   OH228237   2.218   1.133   8.359 -0.1596  0.2244 -0.2717
 2201TIP3    H128238   2.172   1.211   8.329 -0.2858 -0.0528 -0.8211
 2201TIP3    H228239   2.305   1.164   8.384 -1.2248  1.0931  2.6358
 2202TIP3   OH228240   3.518   1.916   6.709 -0.1126  0.1464 -0.1350
 2202TIP3    H128241   3.431   1.919   6.669 -0.5599  0.9268  0.8601
 2202TIP3    H228242   3.530   2.003   6.747 -0.1120 -0.7924  2.2035
 2203TIP3   OH228243   4.817   5.032   1.376  0.5390 -0.3266 -0.2315
 2203TIP3    H128244   4.858   4.960   1.424  1.7141  0.7827  0.4607
 2203TIP3    H228245   4.850   5.022   1.286  1.8976  0.2054  0.1879
 2204TIP3   OH228246   4.491   5.732   2.455  0.6563 -0.3317  0.2380
 2204TIP3    H128247   4.556   5.688   2.511  0.4159 -1.3954 -0.2968
 2204TIP3    H228248   4.424   5.763   2.516  0.9385 -0.5129  0.6440
 2205TIP3   OH228249   2.302   2.818   7.713 -0.0064 -0.3406  0.0352
 2205TIP3    H128250   2.391   2.852   7.716 -0.3659  0.7967 -1.2939
 2205TIP3    H228251   2.270   2.839   7.626 -1.4389 -1.1223  0.3229
 2206TIP3   OH228252   4.843   2.659   0.460 -0.2773 -0.2913 -0.1948
 2206TIP3    H128253   4.837   2.753   0.450  1.0341 -0.3018 -1.2762
 2206TIP3    H228254   4.796   2.623   0.385  0.4007 -0.4777 -0.5376
 2207TIP3   OH228255   6.113   5.228   8.158 -0.0571  0.0872  0.0345
 2207TIP3    H128256   6.055   5.217   8.233 -0.2078  0.6108 -0.0056
 2207TIP3    H228257   6.116   5.141   8.117  0.2298 -0.2685  0.7867
 2208TIP3   OH228258   4.558   0.511   1.306  0.0209 -0.0152 -0.0083
 2208TIP3    H128259   4.531   0.567   1.379 -1.7956  1.6414 -1.8385
 2208TIP3    H228260   4.476   0.478   1.270  0.8573 -0.6671 -1.3912
 2209TIP3   OH228261   6.176   2.582   8.568 -0.5176  0.1674  0.3847
 2209TIP3    H128262   6.091   2.542   8.550 -1.3410  1.6521  0.8181
 2209TIP3    H228263   6.222   2.518   8.623 -1.9067 -0.0533  1.3374
 2210TIP3   OH228264   5.836   1.999   8.016  0.3790  0.4814  0.4519
 2210TIP3    H128265   5.754   2.001   7.967 -0.1527 -0.2197  1.2859
 2210TIP3    H228266   5.813   1.958   8.100  1.9514 -1.5188 -0.0219
 2211TIP3   OH228267   5.837   4.855   8.584  0.2808 -0.5070  0.6808
 2211TIP3    H128268   5.807   4.939   8.618  1.0443  0.1916 -0.3147
 2211TIP3    H228269   5.779   4.791   8.625  1.5863  0.1634  3.8353
 2212TIP3   OH228270   3.746   1.084   0.858  0.0111 -0.1360 -0.2405
 2212TIP3    H128271   3.679   1.020   0.835 -0.5846  0.4919 -0.2975
 2212TIP3    H228272   3.806   1.084   0.783 -1.9781  1.9860 -2.0006
 2213TIP3   OH228273   1.837   0.503   1.769  0.5275 -0.2528  0.3171
 2213TIP3    H128274   1.815   0.517   1.677  1.0296 -0.5967  0.1367
 2213TIP3    H228275   1.762   0.537   1.818  1.2805  2.1993 -0.1055
 2214TIP3   OH228276   3.910   2.146   0.416 -0.0033  0.2279  0.5984
 2214TIP3    H128277   3.917   2.146   0.320  0.9319  0.3922  0.6629
 2214TIP3    H228278   3.816   2.155   0.432 -0.1308  0.7013 -0.3030
 2215TIP3   OH228279   0.724   2.491   8.068  0.6431  0.3851 -0.4075
 2215TIP3    H128280   0.806   2.539   8.065  0.6410  0.3596 -2.7999
 2215TIP3    H228281   0.667   2.544   8.125  1.2771  2.1648 -1.3572
 2216TIP3   OH228282   4.753   6.527   7.595  0.1367  0.0220 -0.1625
 2216TIP3    H128283   4.686   6.524   7.662 -0.8006 -1.2446 -1.1033
 2216TIP3    H228284   4.836   6.522   7.643 -0.4520  0.8502  0.9656
 2217TIP3   OH228285   2.352   3.191   2.080 -0.3675 -0.0219  0.6576
 2217TIP3    H128286   2.425   3.226   2.130 -0.8424  0.3737  1.0840
 2217TIP3    H228287   2.376   3.100   2.063  0.2351  0.1152  0.7625
 2218TIP3   OH228288   2.635   0.764   8.452  0.0721  0.2765  0.6504
 2218TIP3    H128289   2.565   0.760   8.517  0.8763 -0.8009  1.4899
 2218TIP3    H228290   2.714   0.782   8.503  0.5710  0.4543 -0.1582
 2219TIP3   OH228291   6.399   4.046   2.838  0.0696  0.1729 -0.2861
 2219TIP3    H128292   6.396   4.045   2.934 -1.0608  0.6789 -0.2974
 2219TIP3    H228293   6.489   4.071   2.817 -0.2386  2.3162  0.6960
 2220TIP3   OH228294   3.046   6.466   0.244 -0.2000 -0.2616 -0.3430
 2220TIP3    H128295   3.099   6.521   0.188 -1.3204  0.9373 -0.2674
 2220TIP3    H228296   3.100   6.388   0.259  0.2440 -0.4995 -2.8216
 2221TIP3   OH228297   4.367   1.118   1.509 -0.2334 -0.5114 -0.1041
 2221TIP3    H128298   4.429   1.126   1.581 -1.5714 -1.2401  1.1707
 2221TIP3    H228299   4.381   1.197   1.457  0.2557  0.3996  1.3545
 2222TIP3   OH228300   3.571   0.594   8.425  0.0887  0.1991  0.0194
 2222TIP3    H128301   3.591   0.642   8.344  0.6352  1.8988  1.1108
 2222TIP3    H228302   3.620   0.513   8.418  0.6729  0.6260 -1.0536
 2223TIP3   OH228303   1.105   6.669   6.789  0.2617  0.1145 -0.0883
 2223TIP3    H128304   1.110   6.596   6.850 -2.3330 -0.3651 -0.3344
 2223TIP3    H228305   1.119   6.630   6.703  0.2487  0.1418 -0.1032
 2224TIP3   OH228306   0.581   1.441   1.514  0.0266  0.2041  0.1488
 2224TIP3    H128307   0.662   1.431   1.563 -0.3698  2.8983  1.4804
 2224TIP3    H228308   0.567   1.355   1.474  2.1249 -1.1006  2.0148
 2225TIP3   OH228309   4.704   6.002   0.625 -0.0397 -0.1640  0.3263
 2225TIP3    H128310   4.721   6.095   0.611  0.9637 -0.4439 -0.4489
 2225TIP3    H228311   4.616   5.988   0.590 -0.0587  0.4294  0.1273
 2226TIP3   OH228312   3.052   4.335   0.209 -0.6558  0.3351 -0.8272
 2226TIP3    H128313   3.121   4.392   0.243 -1.3629  0.5265  0.3217
 2226TIP3    H228314   3.081   4.246   0.231 -1.2521  0.4707  0.6202
 2227TIP3   OH228315   1.227   6.508   0.823 -0.2572 -0.5978  0.8377
 2227TIP3    H128316   1.185   6.574   0.767 -1.3375 -1.1834  0.9326
 2227TIP3    H228317   1.213   6.426   0.777  2.6613 -0.6118 -0.2101
 2228TIP3   OH228318   3.393   5.199   0.208 -0.0914  0.6980  0.3797
 2228TIP3    H128319   3.485   5.207   0.185 -0.1620  0.8611  0.1494
 2228TIP3    H228320   3.387   5.235   0.296  0.1696  0.1328  0.6270
 2229TIP3   OH228321   4.942   0.536   8.197  0.2404 -0.3350 -0.3138
 2229TIP3    H128322   4.908   0.624   8.213  0.5883 -0.2935  0.2225
 2229TIP3    H228323   4.881   0.478   8.242  0.6434 -0.2873  0.3053
 2230TIP3   OH228324   6.147   4.782   0.277  0.3458  0.1069 -0.7280
 2230TIP3    H128325   6.119   4.713   0.216 -0.3409  1.2698 -1.7723
 2230TIP3    H228326   6.068   4.832   0.295  0.4954 -0.2836  1.2883
 2231TIP3   OH228327   2.952   2.974   0.621 -0.1996 -0.4484 -0.1040
 2231TIP3    H128328   2.889   3.022   0.674 -0.8975 -0.1312 -1.1927
 2231TIP3    H228329   3.030   2.969   0.676 -0.2340  1.5747  0.1930
 2232TIP3   OH228330   3.092   4.471   2.160  0.2119  0.5683 -0.3778
 2232TIP3    H128331   3.173   4.480   2.210  0.7908 -2.3843 -0.6327
 2232TIP3    H228332   3.052   4.391   2.193 -0.6513 -0.1101 -2.8397
 2233TIP3   OH228333   2.148   5.810   1.346  0.2811  0.2212  0.0440
 2233TIP3    H128334   2.223   5.785   1.292  1.7014 -2.6737  3.0211
 2233TIP3    H228335   2.176   5.890   1.390  0.2184  1.0298 -1.3339
 2234TIP3   OH228336   6.678   2.363   7.906  0.3582 -0.6194 -0.0718
 2234TIP3    H128337   6.662   2.274   7.939  2.0711 -1.0237 -0.2008
 2234TIP3    H228338   6.674   2.354   7.811 -1.2408 -0.1630 -0.0637
 2235TIP3   OH228339   3.984   5.726   6.991  0.3300  0.1180 -0.1277
 2235TIP3    H128340   4.048   5.776   7.042  0.1745  0.4021 -0.2060
 2235TIP3    H228341   3.910   5.786   6.980  0.4297  0.1185 -0.8234
 2236TIP3   OH228342   2.523   2.172   0.889  0.1016  0.3617  0.3484
 2236TIP3    H128343   2.514   2.268   0.889 -0.4409  0.3581 -1.4560
 2236TIP3    H228344   2.453   2.141   0.946 -2.4761  0.9403 -2.2717
 2237TIP3   OH228345   2.730   2.542   8.151  0.0491 -0.0010 -0.1157
 2237TIP3    H128346   2.690   2.564   8.067 -1.4900 -1.6226  0.1546
 2237TIP3    H228347   2.765   2.454   8.139  0.2407 -0.0595  0.8077
 2238TIP3   OH228348   0.558   4.063   1.851 -0.5411  0.1838 -0.0409
 2238TIP3    H128349   0.617   4.124   1.895  1.4214 -0.6460 -1.3712
 2238TIP3    H228350   0.475   4.110   1.845  0.2596  1.8170  0.9767
 2239TIP3   OH228351   3.017   0.477   8.448 -0.4469 -0.3017  0.5042
 2239TIP3    H128352   3.037   0.397   8.400 -0.5753 -1.2443  1.9588
 2239TIP3    H228353   3.050   0.547   8.392 -2.7818 -1.1244 -2.1344
 2240TIP3   OH228354   0.962   3.945   8.262  0.0780 -0.4613 -0.0825
 2240TIP3    H128355   0.874   3.983   8.259  0.2813  0.0183 -2.2097
 2240TIP3    H228356   1.013   4.004   8.318 -1.3981 -1.9950  3.1260
 2241TIP3   OH228357   0.337   0.425   2.596 -0.0473 -0.2237  0.1734
 2241TIP3    H128358   0.319   0.353   2.657 -0.5294 -0.6386 -0.4446
 2241TIP3    H228359   0.372   0.494   2.652  0.3921 -0.9176  0.7856
 2242TIP3   OH228360   1.489   1.803   0.120  0.0873  0.6723 -0.8326
 2242TIP3    H128361   1.493   1.838   0.209 -2.1990  1.8016 -1.1269
 2242TIP3    H228362   1.401   1.766   0.112  0.5565 -0.2169 -2.3634
 2243TIP3   OH228363   0.013   1.042   0.108 -0.4333 -0.2101 -0.1548
 2243TIP3    H128364   0.064   0.962   0.090 -0.2085  0.1356 -1.1218
 2243TIP3    H228365   0.078   1.112   0.108 -0.7734  0.1066 -0.3357
 2244TIP3   OH228366   2.254   4.777   2.063  0.4811 -0.4610 -0.0638
 2244TIP3    H128367   2.177   4.820   2.025 -0.1575 -2.3070 -0.9592
 2244TIP3    H228368   2.221   4.734   2.142  0.6195 -1.1214 -0.3616
 2245TIP3   OH228369   1.628   2.193   2.222 -0.1821  0.0136  0.1177
 2245TIP3    H128370   1.547   2.145   2.204 -0.3845 -0.6346  2.4351
 2245TIP3    H228371   1.685   2.129   2.265  1.7794  0.3362 -1.8168
 2246TIP3   OH228372   0.138   1.744   2.211  0.1731 -0.4149 -0.1916
 2246TIP3    H128373   0.208   1.795   2.252 -0.5124 -0.1168  0.6486
 2246TIP3    H228374   0.176   1.711   2.130  0.4121  2.1681 -1.2382
 2247TIP3   OH228375   1.031   4.131   8.484  0.9449  0.2973  0.4699
 2247TIP3    H128376   1.125   4.125   8.502  1.1749  0.2932 -0.6245
 2247TIP3    H228377   0.989   4.107   8.566  1.9012  0.1971  0.9479
 2248TIP3   OH228378   5.403   3.475   8.747 -0.1004 -0.1632  0.6509
 2248TIP3    H128379   5.360   3.429   8.676 -0.3598  1.5059 -0.3183
 2248TIP3    H228380   5.452   3.407   8.794 -0.3502 -1.3810 -0.7898
 2249TIP3   OH228381   2.406   2.899   2.028  0.0232  0.0064 -0.1569
 2249TIP3    H128382   2.364   2.870   2.109 -0.7226  2.7249  0.5503
 2249TIP3    H228383   2.345   2.874   1.959  0.1104 -1.3126  0.2208
 2250TIP3   OH228384   4.949   3.497   7.306 -1.0385 -0.2154 -0.0590
 2250TIP3    H128385   4.910   3.542   7.381 -2.9085 -0.4697 -0.8281
 2250TIP3    H228386   4.984   3.568   7.251 -1.4193  0.1152  0.1191
 2251TIP3   OH228387   3.841   4.516   8.618  0.9537 -0.4044  0.4206
 2251TIP3    H128388   3.892   4.540   8.541 -0.2435 -0.6188 -0.4728
 2251TIP3    H228389   3.802   4.598   8.649 -0.0647 -0.5893 -0.3375
 2252TIP3   OH228390   2.164   0.374   8.487  0.3749 -0.0208 -0.3334
 2252TIP3    H128391   2.199   0.317   8.555  0.1566  1.1155  0.7818
 2252TIP3    H228392   2.228   0.368   8.416  1.0965 -0.5468  0.3377
 2253TIP3   OH228393   4.761   5.449   8.309  0.9754  0.4972 -0.4600
 2253TIP3    H128394   4.722   5.372   8.268  1.4104 -1.1315  1.9968
 2253TIP3    H228395   4.695   5.518   8.299  0.4037 -0.2651 -2.3458
 2254TIP3   OH228396   4.237   3.007   0.335 -0.2169  0.5632  0.1963
 2254TIP3    H128397   4.312   2.968   0.381 -1.5003  1.6128  3.4826
 2254TIP3    H228398   4.244   3.101   0.354 -0.5804  1.1429 -2.2852
 2255TIP3   OH228399   3.227   2.547   7.537 -0.2171  0.1629  0.1871
 2255TIP3    H128400   3.296   2.514   7.479  1.5810  0.9967  1.7374
 2255TIP3    H228401   3.150   2.556   7.481  1.1341 -0.1233 -1.7913
 2256TIP3   OH228402   6.621   0.017   1.741  0.0216  0.5391  0.0099
 2256TIP3    H128403   6.605  -0.076   1.728  0.2547  0.3555  0.9714
 2256TIP3    H228404   6.600   0.032   1.834  0.6873  1.2913  0.0456
 2257TIP3   OH228405   3.008   3.413   1.100  0.1702 -0.1880  0.1745
 2257TIP3    H128406   2.936   3.476   1.099 -2.0604 -2.5381  1.7322
 2257TIP3    H228407   2.994   3.359   1.022  1.4715  0.5140 -0.5899
 2258TIP3   OH228408   5.161   1.411   2.317 -0.0415 -0.1393 -0.0710
 2258TIP3    H128409   5.191   1.500   2.299  1.9817 -0.6285  0.5905
 2258TIP3    H228410   5.110   1.419   2.397 -0.4907  0.5076 -0.4051
 2259TIP3   OH228411   4.025   2.292   0.938  0.0691 -0.1588  0.1391
 2259TIP3    H128412   4.099   2.352   0.934 -0.9145  1.0245 -1.0649
 2259TIP3    H228413   4.051   2.218   0.883  0.5274  0.0250  0.1014
 2260TIP3   OH228414   4.318   4.018   0.871 -0.1114 -0.5805  0.2893
 2260TIP3    H128415   4.327   3.960   0.796  1.6078 -1.2628  0.9833
 2260TIP3    H228416   4.235   3.992   0.911 -2.3704  1.3938 -2.6125
 2261TIP3   OH228417   3.005   3.584   0.015 -0.0210  0.3705  0.1346
 2261TIP3    H128418   3.072   3.535  -0.032 -0.7871  0.4748 -1.0977
 2261TIP3    H228419   3.054   3.645   0.071  0.9497 -1.9336  1.9279
 2262TIP3   OH228420   2.580   5.967   8.313  0.5508 -0.2462  0.5840
 2262TIP3    H128421   2.634   6.046   8.315  2.7465 -1.6144 -0.2974
 2262TIP3    H228422   2.571   5.947   8.220 -1.3334 -0.1974  0.7295
 2263TIP3   OH228423   5.818   0.679   1.099  0.1753  0.7394  0.0406
 2263TIP3    H128424   5.736   0.718   1.068 -0.3912 -0.8049 -0.5063
 2263TIP3    H228425   5.794   0.639   1.183 -0.1756 -1.3452 -0.9793
 2264TIP3   OH228426   0.275   0.626   8.090 -0.5291 -0.1295  0.2846
 2264TIP3    H128427   0.335   0.602   8.160 -0.0826  0.9610  0.2893
 2264TIP3    H228428   0.327   0.678   8.029 -0.7743 -1.4850 -1.1431
 2265TIP3   OH228429   4.589   3.166   7.892  0.1818 -0.0165  0.2134
 2265TIP3    H128430   4.521   3.173   7.959  1.2158 -5.3991  2.3349
 2265TIP3    H228431   4.670   3.190   7.937  0.4376  0.3399 -0.4183
 2266TIP3   OH228432   2.780   0.877   2.087  0.1890  0.0833  0.1531
 2266TIP3    H128433   2.831   0.823   2.027 -0.1681  0.0997 -0.1680
 2266TIP3    H228434   2.844   0.938   2.124  0.8875 -1.3864  1.5339
 2267TIP3   OH228435   5.020   5.294   0.484 -0.3195  0.2475 -0.1846
 2267TIP3    H128436   5.046   5.321   0.571 -0.9475  0.3406 -0.0177
 2267TIP3    H228437   4.955   5.225   0.498 -1.4288  1.1773 -0.5354
 2268TIP3   OH228438   0.348   6.614   8.288  0.2296  0.0116 -0.3847
 2268TIP3    H128439   0.419   6.658   8.336 -1.1389 -0.0925  1.8953
 2268TIP3    H228440   0.354   6.522   8.315 -0.2410 -0.1587 -0.8500
 2269TIP3   OH228441   5.633   0.660   0.736 -0.0212  0.1751 -0.7105
 2269TIP3    H128442   5.688   0.582   0.746  1.3471  1.2590  1.0112
 2269TIP3    H228443   5.644   0.708   0.819 -1.9188  1.5127 -1.1557
 2270TIP3   OH228444   1.011   1.281   2.864 -0.6081  0.0409 -0.0977
 2270TIP3    H128445   1.084   1.336   2.892 -0.8863  0.3462  0.0324
 2270TIP3    H228446   1.006   1.294   2.769 -1.3097  1.0361  0.0580
 2271TIP3   OH228447   0.952   4.557   7.739 -0.4871  0.4998 -0.2133
 2271TIP3    H128448   1.026   4.564   7.679  0.5692 -0.3124  0.9535
 2271TIP3    H228449   0.908   4.476   7.714 -0.7641  0.7850 -0.6588
 2272TIP3   OH228450   5.486   1.696   0.636  0.1449 -0.4282 -0.0217
 2272TIP3    H128451   5.434   1.664   0.563  1.8074  0.7130 -1.8182
 2272TIP3    H228452   5.486   1.625   0.699 -1.9613 -1.1713 -0.7897
 2273TIP3   OH228453   6.155   5.477   1.079  0.6387  0.1903  0.4317
 2273TIP3    H128454   6.131   5.443   0.993  1.0616 -1.7039  1.0204
 2273TIP3    H228455   6.188   5.565   1.061  1.2549 -0.3615 -1.4209
 2274TIP3   OH228456   0.249   0.191   7.016 -0.0180  0.1033  0.2918
 2274TIP3    H128457   0.179   0.214   6.956 -2.4241 -2.1084  2.0075
 2274TIP3    H228458   0.283   0.275   7.047 -2.8802  1.3161  0.4255
 2275TIP3   OH228459   6.777   6.275   8.919 -0.2254  0.1735 -0.1545
 2275TIP3    H128460   6.731   6.358   8.926 -0.3158  0.0134  1.7237
 2275TIP3    H228461   6.721   6.212   8.966 -0.2829 -1.0233 -1.7321
 2276TIP3   OH228462   4.493   5.453   7.174  0.1581 -0.3372 -0.6149
 2276TIP3    H128463   4.567   5.442   7.233  0.9332 -0.9079 -1.6690
 2276TIP3    H228464   4.512   5.533   7.126 -0.7409  0.4294  0.2681
 2277TIP3   OH228465   5.027   5.732   1.518 -0.0365 -0.1844 -0.1064
 2277TIP3    H128466   5.040   5.718   1.425 -1.0070  2.0645 -0.6540
 2277TIP3    H228467   4.940   5.695   1.536 -0.3526  0.3925 -0.3898
 2278TIP3   OH228468   2.072   6.791   8.509  0.2060 -0.5112 -0.0611
 2278TIP3    H128469   2.156   6.837   8.508 -0.8898  1.9049  2.6619
 2278TIP3    H228470   2.096   6.699   8.520  2.5212  0.0820  0.5975
 2279TIP3   OH228471   6.098   5.106   7.632 -1.1643 -0.2722  0.2869
 2279TIP3    H128472   6.106   5.193   7.593  0.1494  0.2193  1.5922
 2279TIP3    H228473   6.047   5.120   7.712  2.2995  0.0838  2.6268
 2280TIP3   OH228474   6.260   1.964   2.032  0.1160 -0.6313 -0.0113
 2280TIP3    H128475   6.224   2.044   1.992 -1.3182 -0.6134  1.2332
 2280TIP3    H228476   6.196   1.939   2.098  1.4275 -1.8205  0.8716
 2281TIP3   OH228477   3.143   2.981   0.828 -0.5829  0.3889 -0.3021
 2281TIP3    H128478   3.149   3.070   0.864 -2.4270  0.1294  0.7857
 2281TIP3    H228479   3.217   2.935   0.866  0.2105  1.3578 -0.6146
 2282TIP3   OH228480   5.789   2.001   0.582 -0.5063 -0.0905 -0.3742
 2282TIP3    H128481   5.775   1.907   0.598 -0.6330  0.1998  1.4957
 2282TIP3    H228482   5.842   2.004   0.503 -0.1516 -1.7770 -0.2420
 2283TIP3   OH228483   2.441   4.748   1.475 -0.1243  0.0496  0.5595
 2283TIP3    H128484   2.422   4.818   1.412 -0.5709  0.5206  1.2039
 2283TIP3    H228485   2.363   4.743   1.530 -0.2294 -1.1770  0.3300
 2284TIP3   OH228486   5.184   6.542   7.536 -0.3946 -0.3045 -0.1214
 2284TIP3    H128487   5.276   6.523   7.552 -0.1260 -0.0549 -1.2745
 2284TIP3    H228488   5.183   6.633   7.507 -1.2486  0.3288  1.7324
 2285TIP3   OH228489   2.162   5.970   8.597 -0.3964 -0.2359 -0.1182
 2285TIP3    H128490   2.177   5.877   8.582 -3.8779 -0.7370 -1.3113
 2285TIP3    H228491   2.093   5.973   8.664 -0.6205  1.4598 -0.3792
 2286TIP3   OH228492   3.007   5.424   1.516  0.0855 -0.1496 -0.6145
 2286TIP3    H128493   2.935   5.375   1.556 -0.5426  1.4656  0.3444
 2286TIP3    H228494   2.971   5.511   1.499  1.1161 -0.0205 -2.4099
 2287TIP3   OH228495   4.330   4.949   2.098 -0.2026 -0.3442  0.5731
 2287TIP3    H128496   4.274   4.943   2.175  0.9552 -1.6466  1.3552
 2287TIP3    H228497   4.409   4.993   2.128  0.7431 -1.8879  0.4762
 2288TIP3   OH228498   5.073   0.453   2.278 -0.4064 -0.6365  0.0104
 2288TIP3    H128499   5.102   0.363   2.268  3.5375  0.3574  0.7110
 2288TIP3    H228500   5.053   0.462   2.371  2.0303 -0.1692  0.5397
 2289TIP3   OH228501   3.632   1.547   8.179  0.0313 -0.9089  0.1941
 2289TIP3    H128502   3.580   1.583   8.251 -0.3776 -0.1217 -0.4791
 2289TIP3    H228503   3.616   1.452   8.184 -1.6724 -0.6798 -0.1292
 2290TIP3   OH228504   0.928   3.412   8.016  0.4415 -0.4686 -0.5480
 2290TIP3    H128505   0.940   3.318   8.031 -0.4561 -0.8033 -1.7323
 2290TIP3    H228506   1.016   3.449   8.019  0.7946 -1.3298  0.0347
 2291TIP3   OH228507   5.407   5.599   2.501 -0.1409  0.0724 -0.5208
 2291TIP3    H128508   5.325   5.572   2.543  0.0876 -1.5831 -1.0874
 2291TIP3    H228509   5.474   5.581   2.567 -0.1990  1.3818 -0.0763
 2292TIP3   OH228510   0.036   1.586   8.385 -0.0092 -0.4121 -0.0691
 2292TIP3    H128511   0.030   1.502   8.430  0.0477 -0.0348  0.6660
 2292TIP3    H228512  -0.053   1.621   8.389 -0.2084 -0.7831 -1.0748
 2293TIP3   OH228513   5.571   1.519   2.092 -0.2473 -0.1686 -0.0095
 2293TIP3    H128514   5.601   1.595   2.143 -0.2483 -0.0956 -0.1168
 2293TIP3    H228515   5.539   1.457   2.157  1.9264 -1.0779  0.2782
 2294TIP3   OH228516   5.802   6.619   1.047  0.2182 -0.3198 -0.2307
 2294TIP3    H128517   5.778   6.651   1.134  0.7675 -0.8513  0.1265
 2294TIP3    H228518   5.860   6.686   1.011 -1.2782  0.6931 -0.8660
 2295TIP3   OH228519   5.090   3.360   1.760 -0.2640 -0.7742  0.9691
 2295TIP3    H128520   5.106   3.274   1.720  3.1170  0.2379 -0.2170
 2295TIP3    H228521   5.044   3.409   1.693  0.3541 -0.8128  0.5083
 2296TIP3   OH228522   2.091   1.705   0.892  0.9409  0.1588  0.0983
 2296TIP3    H128523   2.048   1.719   0.977  0.5259 -0.3324 -0.0288
 2296TIP3    H228524   2.060   1.619   0.863  0.3679  0.7196 -0.9841
 2297TIP3   OH228525   1.846   2.817   6.794 -0.4214 -0.0060  0.8181
 2297TIP3    H128526   1.889   2.856   6.870  0.1226  0.7786  0.1209
 2297TIP3    H228527   1.782   2.882   6.766 -0.1204  0.0113  0.1687
 2298TIP3   OH228528   3.948   0.524   7.973 -0.7514  0.3070  0.9498
 2298TIP3    H128529   3.972   0.451   8.030 -1.5711 -0.0041  0.9061
 2298TIP3    H228530   3.910   0.589   8.032 -0.7433  0.3743  0.8809
 2299TIP3   OH228531   1.052   3.502   2.351  0.3380  0.0777  0.0359
 2299TIP3    H128532   0.999   3.544   2.284  2.4916  1.8835 -0.6445
 2299TIP3    H228533   1.004   3.517   2.433 -0.9266  0.2908 -0.7191
 2300TIP3   OH228534   3.060   4.219   1.182  0.2303 -0.2160 -0.0500
 2300TIP3    H128535   3.084   4.211   1.274 -1.0120 -0.8442  0.2358
 2300TIP3    H228536   3.084   4.135   1.143 -0.7172 -0.5395  0.0566
 2301TIP3   OH228537   3.596   1.392   7.509 -0.3667 -0.7621  0.6829
 2301TIP3    H128538   3.534   1.331   7.468 -0.2123 -1.0557  0.8757
 2301TIP3    H228539   3.544   1.470   7.527 -0.5938 -0.8734  0.5204
 2302TIP3   OH228540   6.733   4.669   0.921  0.0596  0.4301  0.4983
 2302TIP3    H128541   6.777   4.754   0.915 -3.4016  2.3746 -0.2115
 2302TIP3    H228542   6.784   4.620   0.986  2.0609  3.0987  1.1249
 2303TIP3   OH228543   2.953   2.488   0.588  0.5795  0.2761  0.3875
 2303TIP3    H128544   3.034   2.479   0.538  0.3564  0.6671 -0.0570
 2303TIP3    H228545   2.893   2.427   0.547  0.4985  0.3521  0.3917
 2304TIP3   OH228546   2.372   2.698   7.937  0.1403  0.0256  0.2092
 2304TIP3    H128547   2.379   2.788   7.969  0.7138  0.1966 -0.3732
 2304TIP3    H228548   2.328   2.707   7.852  0.8728 -0.1650 -0.1915
 2305TIP3   OH228549   2.269   5.080   2.648  0.0764  0.0255  0.3198
 2305TIP3    H128550   2.287   5.006   2.589  0.5287  1.4128 -1.3636
 2305TIP3    H228551   2.173   5.089   2.646  0.0836  0.0409 -0.2033
 2306TIP3   OH228552   6.683   3.628   0.885  0.3204 -0.1284  0.0714
 2306TIP3    H128553   6.680   3.701   0.947 -0.4288  0.0586 -0.1852
 2306TIP3    H228554   6.684   3.669   0.799  1.1944 -0.3943 -0.0588
 2307TIP3   OH228555   6.482   3.980   8.453  0.6580  0.6657 -0.0688
 2307TIP3    H128556   6.550   3.938   8.399 -0.2051 -0.7011 -0.1447
 2307TIP3    H228557   6.530   4.020   8.525  1.4533 -1.8785  0.9218
 2308TIP3   OH228558   0.406   4.675   7.507 -0.1582 -0.7162 -0.2140
 2308TIP3    H128559   0.487   4.631   7.531  0.6825 -0.4221 -2.3136
 2308TIP3    H228560   0.430   4.729   7.432 -1.8814  0.8690  0.3076
 2309TIP3   OH228561   6.562   3.237   2.673 -0.5396  0.8140  0.3012
 2309TIP3    H128562   6.639   3.181   2.672 -1.1450 -0.2289 -3.7563
 2309TIP3    H228563   6.491   3.179   2.702 -0.4122  0.8130  0.6222
 2310TIP3   OH228564   3.128   0.212   2.873  0.0756  0.1764 -0.4504
 2310TIP3    H128565   3.183   0.161   2.814 -1.2415  2.0129 -3.4897
 2310TIP3    H228566   3.179   0.292   2.890 -1.3217  1.7180 -2.9817
 2311TIP3   OH228567   3.326   5.138   7.928  0.0520  0.3637 -0.1878
 2311TIP3    H128568   3.373   5.056   7.914 -0.1695  0.4946 -1.9216
 2311TIP3    H228569   3.385   5.190   7.984  0.3348 -0.8186  0.6543
 2312TIP3   OH228570   2.626   3.596   7.100 -0.1874 -0.0090  0.1961
 2312TIP3    H128571   2.627   3.520   7.041 -0.7953 -0.7011  1.0669
 2312TIP3    H228572   2.566   3.658   7.058  2.5738  1.3420 -2.1260
 2313TIP3   OH228573   1.270   6.014   7.967  0.0191 -0.3573 -0.1684
 2313TIP3    H128574   1.241   5.927   7.994  0.3409 -0.4951 -0.2659
 2313TIP3    H228575   1.245   6.071   8.039 -2.1552 -0.1531 -0.9936
 2314TIP3   OH228576   5.968   4.083   1.752  0.2163 -0.3608 -0.1309
 2314TIP3    H128577   6.049   4.085   1.701 -0.4680 -1.9693 -1.3711
 2314TIP3    H228578   5.995   4.111   1.840  1.7170  1.0374 -0.9644
 2315TIP3   OH228579   3.198   6.665   2.201  0.1629 -0.3236  0.5093
 2315TIP3    H128580   3.179   6.587   2.252  0.2232 -0.4526  0.3340
 2315TIP3    H228581   3.127   6.670   2.137  0.4923 -0.5815  0.1154
 2316TIP3   OH228582   5.185   3.351   8.033  0.7575 -0.1971 -0.7061
 2316TIP3    H128583   5.176   3.333   7.939  1.4718  0.3906 -0.8977
 2316TIP3    H228584   5.142   3.436   8.045  2.4508  0.7330 -0.9052
 2317TIP3   OH228585   0.691   0.012   8.624  0.0472  0.1653  0.2799
 2317TIP3    H128586   0.682   0.090   8.569  1.4781  0.6512  0.6790
 2317TIP3    H228587   0.687   0.046   8.714 -1.2335 -0.4904  0.5026
 2318TIP3   OH228588   6.582   0.789   0.047 -0.1710  0.6569 -0.1606
 2318TIP3    H128589   6.610   0.716  -0.008  1.0565 -0.1879  1.4867
 2318TIP3    H228590   6.489   0.774   0.061 -0.3488  0.5051 -1.3972
 2319TIP3   OH228591   0.853   3.660   8.867  0.6037  0.7158 -0.3858
 2319TIP3    H128592   0.872   3.576   8.909  0.8118  0.7583 -0.3954
 2319TIP3    H228593   0.846   3.640   8.774 -1.4569  0.3309 -0.2010
 2320TIP3   OH228594   0.938   1.538   0.987 -0.0349 -0.5492  0.3798
 2320TIP3    H128595   0.946   1.564   1.078  2.3296 -1.7380  0.5898
 2320TIP3    H228596   0.867   1.474   0.987 -1.8580  1.3452  0.8483
 2321TIP3   OH228597   1.983   4.655   2.913  0.5769 -0.0197 -0.1595
 2321TIP3    H128598   2.053   4.718   2.930  0.1242  0.0571  1.6869
 2321TIP3    H228599   1.905   4.708   2.900  0.7002 -0.1300 -1.4094
 2322TIP3   OH228600   6.565   6.340   1.294  0.0479 -0.2757  0.6918
 2322TIP3    H128601   6.623   6.304   1.360 -0.0638 -0.2373  0.8101
 2322TIP3    H228602   6.498   6.387   1.343 -0.6765 -1.1787  0.6118
 2323TIP3   OH228603   0.015   5.866   1.379 -0.1657  0.0377 -0.2998
 2323TIP3    H128604  -0.056   5.819   1.334  1.6758 -0.9367 -2.3529
 2323TIP3    H228605   0.052   5.801   1.439  0.8876 -0.4808 -1.4572
 2324TIP3   OH228606   0.826   5.490   6.906 -0.1223 -0.0541 -0.3166
 2324TIP3    H128607   0.871   5.409   6.881 -0.0179  0.0878 -0.6009
 2324TIP3    H228608   0.739   5.481   6.869 -0.4004 -0.4182  0.4109
 2325TIP3   OH228609   2.906   5.176   8.163 -0.0271  0.0729  0.5077
 2325TIP3    H128610   2.951   5.252   8.126 -2.6164  1.7639  0.5774
 2325TIP3    H228611   2.955   5.101   8.131  0.4205  1.6096 -2.8176
 2326TIP3   OH228612   4.626   0.311   1.896 -0.5214  0.7567  0.4543
 2326TIP3    H128613   4.603   0.398   1.862 -1.3466  0.1077 -0.7170
 2326TIP3    H228614   4.593   0.312   1.986 -0.7028  1.5863  0.3914
 2327TIP3   OH228615   3.386   2.094   1.561  0.0567  0.5476 -0.4403
 2327TIP3    H128616   3.322   2.035   1.522  0.8411 -0.3999 -0.3395
 2327TIP3    H228617   3.394   2.166   1.498 -1.6672  1.0949 -0.0798
 2328TIP3   OH228618   1.226   6.156   8.207 -0.5675  0.2677 -0.0752
 2328TIP3    H128619   1.228   6.251   8.220 -0.5741  0.2702 -0.0951
 2328TIP3    H228620   1.308   6.125   8.247 -1.5199  0.0475  1.8051
 2329TIP3   OH228621   6.209   6.610   7.138  0.6137  0.0768  0.4290
 2329TIP3    H128622   6.169   6.576   7.218  1.1511  0.3193  0.8114
 2329TIP3    H228623   6.162   6.691   7.120  1.0474  0.4674  0.9919
 2330TIP3   OH228624   3.857   3.497   8.438 -0.1420 -0.0102 -0.5640
 2330TIP3    H128625   3.800   3.433   8.397 -0.3942  0.4584 -0.9588
 2330TIP3    H228626   3.884   3.555   8.367 -0.3918  0.6693 -0.1253
 2331TIP3   OH228627   4.974   1.577   2.113 -0.1177 -0.3790  0.3544
 2331TIP3    H128628   4.907   1.570   2.181 -0.3151 -1.1275  0.0990
 2331TIP3    H228629   5.010   1.665   2.122 -0.4721 -0.3124  1.1153
 2332TIP3   OH228630   5.424   4.444   2.396  0.4708 -0.6515  0.5306
 2332TIP3    H128631   5.442   4.354   2.421  0.3930 -0.2593  2.0760
 2332TIP3    H228632   5.331   4.456   2.412  0.2756 -0.5441 -0.5622
 2333TIP3   OH228633   4.194   2.610   1.979  0.2019 -0.0174 -0.3293
 2333TIP3    H128634   4.247   2.656   1.914  0.3899  0.5406  0.2038
 2333TIP3    H228635   4.114   2.662   1.987  0.5583  0.4278  0.5197
 2334TIP3   OH228636   2.374   5.140   2.034  0.7798 -0.1319 -0.2782
 2334TIP3    H128637   2.468   5.128   2.038  0.6928 -0.5430  1.6676
 2334TIP3    H228638   2.343   5.116   2.121 -1.0701  0.4710 -0.7174
 2335TIP3   OH228639   0.058   4.283   1.779  0.2135  0.0581  0.0395
 2335TIP3    H128640  -0.010   4.242   1.833 -0.1243 -0.0982 -0.5009
 2335TIP3    H228641   0.036   4.376   1.779 -0.0111  0.0048 -0.1525
 2336TIP3   OH228642   6.639   2.031   8.445  0.0748  0.0533  0.1554
 2336TIP3    H128643   6.631   2.023   8.540  1.0240 -3.0247  0.0981
 2336TIP3    H228644   6.568   1.977   8.410 -0.3637  1.2832 -0.9210
 2337TIP3   OH228645   5.398   0.891   0.027 -0.6231  0.6919  0.1048
 2337TIP3    H128646   5.385   0.938   0.109  2.2207 -0.7369  1.5367
 2337TIP3    H228647   5.459   0.945  -0.022  1.1092 -0.4461  0.9074
 2338TIP3   OH228648   4.003   3.237   8.496 -0.1560 -0.0432  0.3321
 2338TIP3    H128649   3.960   3.182   8.561  2.3254 -1.0201  1.2594
 2338TIP3    H228650   3.961   3.323   8.506 -0.9159 -0.5794  2.1001
 2339TIP3   OH228651   3.108   2.935   2.349  0.6584 -0.3918 -0.3203
 2339TIP3    H128652   3.200   2.946   2.324  0.8998  1.9027  1.2411
 2339TIP3    H228653   3.060   2.989   2.286  0.3980 -1.2755 -0.8926
 2340TIP3   OH228654   6.184   5.122   0.821  0.8207  0.1133  0.0397
 2340TIP3    H128655   6.229   5.172   0.752  0.2749 -0.5300 -0.8132
 2340TIP3    H228656   6.091   5.141   0.807  0.2465 -3.3956 -2.3099
 2341TIP3   OH228657   2.148   6.595   8.047  0.1639 -0.1309 -0.6101
 2341TIP3    H128658   2.148   6.565   7.956  1.5129  0.2828 -0.7683
 2341TIP3    H228659   2.169   6.517   8.098 -0.2395 -0.2862 -0.6758
 2342TIP3   OH228660   1.869   0.119   8.683  0.0705  0.6210 -0.1759
 2342TIP3    H128661   1.870   0.104   8.589 -0.4753  1.3546 -0.3021
 2342TIP3    H228662   1.913   0.042   8.720 -1.0944 -0.4208 -0.9158
 2343TIP3   OH228663   0.636   4.195   2.064 -0.2097 -0.1242 -0.4100
 2343TIP3    H128664   0.700   4.246   2.114 -0.4728  0.9282 -1.1032
 2343TIP3    H228665   0.606   4.127   2.124 -1.6984  2.0389  1.4163
 2344TIP3   OH228666   6.660   4.133   1.921 -0.0078  0.1686 -0.1617
 2344TIP3    H128667   6.635   4.050   1.961 -1.1674  0.1285 -0.9365
 2344TIP3    H228668   6.582   4.161   1.872  0.7784  1.0991 -0.9231
 2345TIP3   OH228669   1.413   4.705   8.061 -0.1628  0.3124 -0.0043
 2345TIP3    H128670   1.415   4.660   7.976  0.0891  0.8845 -0.3040
 2345TIP3    H228671   1.338   4.666   8.106 -0.4882  0.2170 -0.6108
 2346TIP3   OH228672   3.770   1.807   8.113  0.0972 -0.0168 -0.9923
 2346TIP3    H128673   3.755   1.714   8.096 -1.3396  0.2286 -1.1761
 2346TIP3    H228674   3.810   1.841   8.033  3.4885 -1.0177  0.0786
 2347TIP3   OH228675   2.035   3.618   1.515 -0.6135 -0.1541 -0.1610
 2347TIP3    H128676   1.983   3.581   1.444  0.3325  1.3850 -1.7323
 2347TIP3    H228677   2.021   3.712   1.508  1.9208  0.2732 -0.3050
 2348TIP3   OH228678   2.131   6.339   1.064  0.1891 -0.4827 -0.0240
 2348TIP3    H128679   2.168   6.333   0.976 -1.4894 -0.8128 -0.7606
 2348TIP3    H228680   2.093   6.427   1.068 -2.0047 -1.3344 -0.6452
 2349TIP3   OH228681   4.534   0.798   7.612  0.2982 -0.2349 -0.1668
 2349TIP3    H128682   4.454   0.779   7.564 -0.3447  0.5120  0.5870
 2349TIP3    H228683   4.600   0.740   7.572 -0.6281 -0.9482 -0.7104
 2350TIP3   OH228684   0.884   0.386   0.466  0.2567  0.2470  0.5324
 2350TIP3    H128685   0.937   0.402   0.388 -0.9724  0.7025 -0.2342
 2350TIP3    H228686   0.809   0.335   0.435  0.8109 -1.4687  1.8141
 2351TIP3   OH228687   0.193   0.860   8.257  0.2393  0.0916 -0.1900
 2351TIP3    H128688   0.165   0.770   8.239  2.9595 -0.8442 -0.2352
 2351TIP3    H228689   0.275   0.850   8.305  0.7558  2.5586 -0.4507
 2352TIP3   OH228690   5.791   0.105   0.708  0.3132 -0.7820 -0.0240
 2352TIP3    H128691   5.752   0.036   0.655 -0.1690  0.0772 -0.8112
 2352TIP3    H228692   5.773   0.079   0.798 -1.0098 -1.0366 -0.3397
 2353TIP3   OH228693   0.308   1.438   1.162  0.1043 -0.6692 -0.0162
 2353TIP3    H128694   0.242   1.496   1.201  1.1386 -0.2732  1.2094
 2353TIP3    H228695   0.257   1.365   1.127 -1.1148  0.3303 -0.4306
 2354TIP3   OH228696   6.553   2.502   2.224  0.1361 -0.1772  0.0282
 2354TIP3    H128697   6.568   2.459   2.308 -0.6665 -0.5536 -0.0139
 2354TIP3    H228698   6.619   2.572   2.221 -0.0343  0.0491  1.1135
 2355TIP3   OH228699   1.543   1.653   1.710 -0.2081 -0.3594 -0.4621
 2355TIP3    H128700   1.448   1.653   1.722 -0.2081  1.5926 -0.2469
 2355TIP3    H228701   1.557   1.595   1.635 -1.3341 -2.3671  0.7831
 2356TIP3   OH228702   0.034   6.399   8.126  0.1412 -0.2196 -0.2013
 2356TIP3    H128703  -0.013   6.452   8.062 -0.1361 -0.7191 -0.4187
 2356TIP3    H228704   0.075   6.330   8.075 -0.5160 -0.9312  0.2085
 2357TIP3   OH228705   2.079   4.640   0.166 -0.4726  0.1234 -0.2354
 2357TIP3    H128706   2.105   4.667   0.078  2.0661 -0.2299  0.3141
 2357TIP3    H228707   2.158   4.654   0.219 -1.6973 -0.3801  1.8353
 2358TIP3   OH228708   2.070   0.005   7.682  0.7187 -0.0714  0.3311
 2358TIP3    H128709   2.051  -0.080   7.721  0.7075 -0.8015 -1.2055
 2358TIP3    H228710   2.122  -0.014   7.605 -2.8125  0.8411 -2.5891
 2359TIP3   OH228711   5.273   0.134   0.293 -0.0098  0.2600  0.1418
 2359TIP3    H128712   5.218   0.210   0.275 -0.6137 -0.1314  0.2794
 2359TIP3    H228713   5.228   0.061   0.250  0.5774 -0.0162 -0.0159
 2360TIP3   OH228714   4.775   5.098   0.262  0.7577  0.6150 -0.0141
 2360TIP3    H128715   4.790   5.097   0.356 -1.1462 -0.1072  0.3359
 2360TIP3    H228716   4.687   5.062   0.252  0.9030  0.7251 -2.0725
 2361TIP3   OH228717   5.936   6.018   2.099  0.7447  0.1606  0.1732
 2361TIP3    H128718   6.004   6.044   2.161  0.8029 -0.0903  0.2171
 2361TIP3    H228719   5.854   6.039   2.143  0.7796 -0.2803  0.4574
 2362TIP3   OH228720   6.495   3.488   1.611 -0.0770 -0.3338 -1.1695
 2362TIP3    H128721   6.465   3.558   1.669 -1.1862 -2.1499  0.5271
 2362TIP3    H228722   6.433   3.489   1.538  0.4208  0.9387 -1.6215
 2363TIP3   OH228723   4.094   0.021   1.290  0.0957  0.3816  0.0437
 2363TIP3    H128724   4.060   0.110   1.276  0.3677  0.4903  0.0643
 2363TIP3    H228725   4.027  -0.022   1.342  2.0656  2.1015  4.4892
 2364TIP3   OH228726   6.317   1.456   2.867 -0.0087 -0.2170  0.1086
 2364TIP3    H128727   6.232   1.416   2.883  0.1446 -0.0494  1.5493
 2364TIP3    H228728   6.298   1.549   2.857  0.0924  0.0189  1.7668
 2365TIP3   OH228729   1.543   3.530   7.740  0.2590  0.1005 -0.3453
 2365TIP3    H128730   1.557   3.452   7.793  1.4089 -0.2218 -1.0794
 2365TIP3    H228731   1.450   3.528   7.717  0.8196 -2.8743 -3.0567
 2366TIP3   OH228732   4.811   1.186   2.251 -0.0931 -0.0608 -0.4112
 2366TIP3    H128733   4.761   1.267   2.250 -1.5873 -0.9328 -0.0902
 2366TIP3    H228734   4.768   1.132   2.318  1.5525 -0.7147  0.1792
 2367TIP3   OH228735   4.871   3.582   2.203  0.6782  0.6441  0.6274
 2367TIP3    H128736   4.938   3.635   2.160  0.9974 -1.2212 -1.3315
 2367TIP3    H228737   4.860   3.622   2.289 -0.2616  4.8177 -1.2233
 2368TIP3   OH228738   3.108   3.189   8.062  0.4690  0.1899 -0.0291
 2368TIP3    H128739   3.126   3.250   7.991  0.6560 -1.5846 -1.6115
 2368TIP3    H228740   3.052   3.238   8.122  0.8092  1.9690 -1.0827
 2369TIP3   OH228741   2.109   4.977   1.933  0.3504 -0.3805 -0.3948
 2369TIP3    H128742   2.196   5.008   1.907  0.2332 -0.1713 -0.5463
 2369TIP3    H228743   2.087   5.028   2.011  0.3513 -0.4089 -0.3761
 2370TIP3   OH228744   0.342   0.069   0.404 -0.6190 -0.3335 -0.8798
 2370TIP3    H128745   0.400   0.055   0.329  4.6907  0.1319  2.5938
 2370TIP3    H228746   0.338  -0.017   0.447  2.7240  0.7069  1.9561
 2371TIP3   OH228747   5.154   2.608   1.313 -0.1939  0.5362 -0.0766
 2371TIP3    H128748   5.092   2.535   1.315 -2.3179  2.2352  1.6776
 2371TIP3    H228749   5.240   2.567   1.304 -1.3371 -2.1106  0.2067
 2372TIP3   OH228750   4.513   1.957   2.797  0.3354  0.0264  0.2155
 2372TIP3    H128751   4.438   1.900   2.816 -1.2137  1.1759 -1.9847
 2372TIP3    H228752   4.482   2.045   2.819  0.4517  0.7016 -2.0628
 2373TIP3   OH228753   2.451   1.179   1.377 -0.0991 -0.0926  0.6834
 2373TIP3    H128754   2.517   1.155   1.312  3.3712  1.3748  3.3639
 2373TIP3    H228755   2.467   1.119   1.450  0.3769  2.2001  2.5708
 2374TIP3   OH228756   2.784   3.321   1.257  0.2526  0.1201  0.4989
 2374TIP3    H128757   2.876   3.323   1.229 -0.1094  1.2158 -0.7330
 2374TIP3    H228758   2.759   3.414   1.263 -1.1572 -0.1592 -0.5404
 2375TIP3   OH228759   4.964   6.354   7.436 -0.6618 -0.0197  0.0663
 2375TIP3    H128760   4.902   6.423   7.413 -0.1750  0.6660  0.7850
 2375TIP3    H228761   5.050   6.397   7.436 -0.3491 -0.6220  0.5083
 2376TIP3   OH228762   6.202   6.011   7.511 -0.5505 -0.0572 -0.0054
 2376TIP3    H128763   6.110   5.991   7.495 -0.6588  2.0771 -2.6599
 2376TIP3    H228764   6.249   5.969   7.439  0.3597  0.3765  0.3192
 2377TIP3   OH228765   2.124   4.191   1.679  0.2352 -0.2611 -0.4773
 2377TIP3    H128766   2.043   4.237   1.705  0.8219  0.0700  0.8292
 2377TIP3    H228767   2.118   4.185   1.584 -1.2437 -0.0722 -0.4213
 2378TIP3   OH228768   4.921   3.161   2.989  0.2490 -0.2001  0.8863
 2378TIP3    H128769   4.855   3.094   3.001  1.0669 -1.1747  0.1504
 2378TIP3    H228770   5.002   3.112   2.975  0.9868  0.9523  1.0206
 2379TIP3   OH228771   0.367   2.052   1.692  0.4854 -0.0968  0.1351
 2379TIP3    H128772   0.319   2.094   1.763  0.0016  0.2175 -0.3730
 2379TIP3    H228773   0.333   2.092   1.612  0.3115 -1.1418 -0.3428
 2380TIP3   OH228774   3.587   4.646   1.491  0.3288  0.5210 -0.2040
 2380TIP3    H128775   3.674   4.643   1.450 -0.5052 -0.3054 -2.0695
 2380TIP3    H228776   3.586   4.572   1.552  0.7489  0.1802 -0.6054
 2381TIP3   OH228777   4.388   6.178   0.085  0.0739  0.0778 -0.5204
 2381TIP3    H128778   4.346   6.171   0.171  3.1969 -0.5928  1.0781
 2381TIP3    H228779   4.355   6.260   0.049 -1.8612  0.0343  0.9713
 2382TIP3   OH228780   0.533   6.102   0.803 -0.8701  0.2114  0.3546
 2382TIP3    H128781   0.625   6.123   0.818 -0.6182 -0.3478 -0.3691
 2382TIP3    H228782   0.486   6.149   0.872 -0.2640  2.5364 -0.7077
 2383TIP3   OH228783   1.480   6.069   8.639  0.2476  0.4343 -0.4946
 2383TIP3    H128784   1.479   5.975   8.622  0.1128  0.2609  0.3899
 2383TIP3    H228785   1.520   6.077   8.726  1.0920  1.2653 -0.9393
 2384TIP3   OH228786   2.761   4.890   0.977  0.2704  0.0517  0.2413
 2384TIP3    H128787   2.817   4.889   1.054  0.7122 -0.1771 -0.0805
 2384TIP3    H228788   2.687   4.946   1.002 -0.6108 -1.6270  1.5521
 2385TIP3   OH228789   2.788   5.311   1.620  0.6167 -0.0618  0.3592
 2385TIP3    H128790   2.757   5.227   1.585 -1.5570  1.2296 -1.0390
 2385TIP3    H228791   2.808   5.293   1.712 -1.2369 -1.7961  0.4942
 2386TIP3   OH228792   3.596   3.649   2.301  0.5376 -0.2777  0.2310
 2386TIP3    H128793   3.642   3.565   2.302 -0.5752 -0.9742 -2.1126
 2386TIP3    H228794   3.504   3.626   2.310  0.2892  0.7751  0.4512
 2387TIP3   OH228795   6.456   2.863   7.884  0.4521 -0.4490  0.0828
 2387TIP3    H128796   6.545   2.894   7.900  0.4526  0.1349 -0.9304
 2387TIP3    H228797   6.436   2.893   7.795 -0.0298 -2.2838 -0.4784
 2388TIP3   OH228798   4.634   3.802   7.714 -0.2771  0.0097  0.2668
 2388TIP3    H128799   4.716   3.781   7.669  0.4548  0.9041  1.1102
 2388TIP3    H228800   4.603   3.718   7.749  0.5667 -0.2651  0.3767
 2389TIP3   OH228801   1.961   6.685   8.783  0.4239 -0.2205 -0.5693
 2389TIP3    H128802   1.960   6.618   8.715  1.3007  0.4694 -1.2814
 2389TIP3    H228803   2.049   6.681   8.820  1.0828  1.6189 -1.7711
 2390TIP3   OH228804   5.939   5.037   8.299 -0.3517  0.2517 -0.3884
 2390TIP3    H128805   5.955   5.058   8.391 -0.0461  1.8074 -0.7637
 2390TIP3    H228806   5.845   5.051   8.288 -0.4326 -0.1691 -0.2747
 2391TIP3   OH228807   1.617   1.550   7.478 -0.2919  0.0582 -0.4482
 2391TIP3    H128808   1.581   1.462   7.469  0.8046 -0.4221 -0.1741
 2391TIP3    H228809   1.689   1.554   7.415  3.3538 -1.2039  3.2130
 2392TIP3   OH228810   2.077   4.067   0.633 -0.5317  0.1686 -0.2931
 2392TIP3    H128811   2.106   4.138   0.690  2.1162 -0.8053 -0.3125
 2392TIP3    H228812   2.094   4.100   0.544 -2.4870  0.7764 -0.4858
 2393TIP3   OH228813   5.974   2.159   0.081  0.1449  0.1797 -0.0073
 2393TIP3    H128814   5.888   2.198   0.069 -0.1895 -1.0059 -1.8164
 2393TIP3    H228815   6.035   2.233   0.076 -0.6480  0.8146 -0.5613
 2394TIP3   OH228816   5.325   5.528   7.559  0.6641  0.0740  0.3121
 2394TIP3    H128817   5.416   5.556   7.552  1.7841 -3.3325 -0.8139
 2394TIP3    H228818   5.300   5.508   7.468 -1.3481  1.2221  0.5716
 2395TIP3   OH228819   3.802   6.456   7.959 -0.1268  0.0895 -0.2324
 2395TIP3    H128820   3.869   6.391   7.983 -1.3023 -0.3718  2.1482
 2395TIP3    H228821   3.748   6.412   7.894  0.1525 -0.6604  0.0293
 2396TIP3   OH228822   6.716   4.494   8.426  0.2423  0.9678  0.1024
 2396TIP3    H128823   6.681   4.413   8.389  1.5998 -1.4450  3.5770
 2396TIP3    H228824   6.642   4.534   8.470 -0.1298  0.8138 -0.3777
 2397TIP3   OH228825   5.686   3.185   1.961  0.6589  0.0099  0.5020
 2397TIP3    H128826   5.693   3.248   1.890  3.2638  0.4210  1.0188
 2397TIP3    H228827   5.631   3.115   1.926  1.3266  0.5200 -1.6952
 2398TIP3   OH228828   2.521   6.326   8.244 -0.2236  0.5052  0.4895
 2398TIP3    H128829   2.607   6.284   8.246 -0.3587  0.2177  0.3860
 2398TIP3    H228830   2.537   6.411   8.204  0.3074  1.1799  2.0616
 2399TIP3   OH228831   1.360   4.238   0.083 -0.5482 -0.4239 -0.2539
 2399TIP3    H128832   1.412   4.290   0.145 -1.7751 -0.9367  1.2847
 2399TIP3    H228833   1.391   4.148   0.096 -1.3399 -0.6414  0.2001
 2400TIP3   OH228834   1.332   0.689   7.883  0.1119  0.4916 -0.0634
 2400TIP3    H128835   1.332   0.769   7.935  1.2723  0.0261  0.6980
 2400TIP3    H228836   1.287   0.713   7.802 -2.2685  1.0842  1.3315
 2401TIP3   OH228837   4.362   4.806   2.580 -0.0894  0.2387  0.3847
 2401TIP3    H128838   4.355   4.758   2.663 -0.6083  0.3034  0.3848
 2401TIP3    H228839   4.310   4.886   2.595  0.4941  0.6445  0.2731
 2402TIP3   OH228840   5.145   4.621   8.039 -0.1764  0.6254 -0.1642
 2402TIP3    H128841   5.227   4.580   8.064  0.9317  2.2531 -0.9824
 2402TIP3    H228842   5.097   4.553   7.991 -0.7373 -1.3587  2.9142
 2403TIP3   OH228843   2.254   6.687   2.445 -0.4059 -0.2465 -0.2396
 2403TIP3    H128844   2.313   6.612   2.454 -1.4500 -0.9848  0.8728
 2403TIP3    H228845   2.261   6.734   2.528 -1.2751 -0.2986 -0.1180
 2404TIP3   OH228846   0.469   3.044   7.892 -0.5732  0.1303 -0.3810
 2404TIP3    H128847   0.380   3.014   7.907 -0.2437 -0.2763  0.8363
 2404TIP3    H228848   0.484   3.028   7.799 -1.4138 -0.7713 -0.3780
 2405TIP3   OH228849   0.566   5.524   6.805  0.2878  0.9444  1.0868
 2405TIP3    H128850   0.509   5.554   6.876 -1.6850 -0.3392  0.1101
 2405TIP3    H228851   0.528   5.561   6.726  0.3350 -0.5821  0.3263
 2406TIP3   OH228852   2.252   6.002   2.143 -0.5101  0.1760 -0.2601
 2406TIP3    H128853   2.314   5.955   2.087  0.1098 -1.4410  1.6508
 2406TIP3    H228854   2.293   6.088   2.158  0.1617 -0.0308 -0.8611
 2407TIP3   OH228855   5.208   4.679   0.777  0.3347 -0.0961  0.1468
 2407TIP3    H128856   5.139   4.650   0.718 -1.8660  0.0108  2.4683
 2407TIP3    H228857   5.222   4.771   0.754 -0.2053 -0.1579 -0.4434
 2408TIP3   OH228858   4.652   5.478   2.538  0.4777  0.2445  0.5509
 2408TIP3    H128859   4.604   5.396   2.551 -1.4926  0.9991 -1.1939
 2408TIP3    H228860   4.674   5.508   2.626  0.2966 -1.5984  1.2685
 2409TIP3   OH228861   3.265   3.460   8.911  0.1923  0.2679  0.4035
 2409TIP3    H128862   3.298   3.435   8.997  0.0851  0.8302  0.6170
 2409TIP3    H228863   3.339   3.450   8.852  0.2616 -0.1370  0.5556
 2410TIP3   OH228864   1.129   6.681   1.264  0.1126 -0.4019 -1.0307
 2410TIP3    H128865   1.193   6.752   1.256  0.7684 -0.7202  0.8716
 2410TIP3    H228866   1.183   6.601   1.265 -0.2991 -0.6808  0.5022
 2411TIP3   OH228867   2.632   1.464   0.420  0.1118 -0.6551  0.2950
 2411TIP3    H128868   2.719   1.499   0.403 -0.2939 -0.2895 -1.0816
 2411TIP3    H228869   2.591   1.455   0.334 -0.6993 -2.1921  0.7905
 2412TIP3   OH228870   1.214   3.912   1.681 -0.0116 -0.1703 -0.1734
 2412TIP3    H128871   1.153   3.843   1.707  0.8809 -0.8140  0.2826
 2412TIP3    H228872   1.291   3.865   1.648  1.2165  0.5388  1.5082
 2413TIP3   OH228873   3.597   5.058   1.045 -0.3454 -0.8609  0.1580
 2413TIP3    H128874   3.606   5.084   1.137 -1.7642 -2.4765  0.8035
 2413TIP3    H228875   3.503   5.067   1.027  0.0312  0.3283 -1.4474
 2414TIP3   OH228876   0.565   1.957   0.488 -0.2959 -0.0563 -0.2252
 2414TIP3    H128877   0.550   1.886   0.550  1.0978  0.1711  0.4087
 2414TIP3    H228878   0.555   1.916   0.402  3.1738 -1.8135  0.0175
 2415TIP3   OH228879   0.779   1.260   8.399 -0.4389 -0.1104 -0.5785
 2415TIP3    H128880   0.771   1.325   8.329 -1.4662  1.3113  0.7893
 2415TIP3    H228881   0.859   1.212   8.378 -0.5817  0.4296 -2.5765
 2416TIP3   OH228882   3.497   2.489   8.055 -0.9720 -0.8716 -0.2520
 2416TIP3    H128883   3.510   2.473   7.962  1.2281 -1.9552  0.1740
 2416TIP3    H228884   3.464   2.579   8.060 -2.3306 -1.2184 -2.1036
 2417TIP3   OH228885   3.994   2.760   1.657  0.7749  0.6055  0.3334
 2417TIP3    H128886   3.966   2.695   1.592  0.4394 -1.4588  2.3834
 2417TIP3    H228887   4.084   2.782   1.632  1.9119 -2.7086  0.9021
 2418TIP3   OH228888   2.901   6.697   7.430  0.2147  0.2605 -0.5358
 2418TIP3    H128889   2.892   6.792   7.428 -1.0254  0.1538 -2.0712
 2418TIP3    H228890   2.931   6.674   7.342 -0.9998 -0.8870 -0.6773
 2419TIP3   OH228891   3.780   5.636   0.444  0.1604 -0.1084 -0.2852
 2419TIP3    H128892   3.807   5.591   0.364 -0.4130  0.1760 -0.6544
 2419TIP3    H228893   3.852   5.623   0.505  0.1248 -1.2948 -0.4668
 2420TIP3   OH228894   0.606   4.903   7.680 -0.4763 -0.4835 -0.2683
 2420TIP3    H128895   0.582   4.987   7.641 -1.3124 -1.0708 -1.0615
 2420TIP3    H228896   0.531   4.846   7.663 -0.3692 -1.1110  1.1918
 2421TIP3   OH228897   2.821   1.747   2.289  0.2197 -0.3027 -0.5288
 2421TIP3    H128898   2.878   1.821   2.311  0.9593 -1.4825  1.9155
 2421TIP3    H228899   2.874   1.692   2.231  0.6119 -0.1398 -0.3292
 2422TIP3   OH228900   0.710   0.195   0.467  0.6813  0.0302  0.1979
 2422TIP3    H128901   0.739   0.104   0.472  0.0221 -0.3812 -2.2871
 2422TIP3    H228902   0.638   0.200   0.530  1.7263 -0.7165  1.4978
 2423TIP3   OH228903   5.455   1.171   7.236  0.2113  0.1596  0.2013
 2423TIP3    H128904   5.485   1.099   7.180  1.3136  0.5356  0.2900
 2423TIP3    H228905   5.528   1.189   7.294 -0.1184  1.2271  0.3150
 2424TIP3   OH228906   0.698   0.087   7.828  0.2294  0.0101  0.0453
 2424TIP3    H128907   0.756   0.030   7.880  1.0825 -0.2401 -1.1412
 2424TIP3    H228908   0.645   0.132   7.894  1.2817 -0.2821  1.1515
 2425TIP3   OH228909   0.845   1.948   0.445 -0.3804 -0.3119  0.0858
 2425TIP3    H128910   0.898   1.963   0.524 -0.5732  3.3129 -0.3277
 2425TIP3    H228911   0.755   1.944   0.478 -0.3662 -0.0313  0.1588
 2426TIP3   OH228912   5.548   6.448   8.429  0.0085 -0.0748 -0.4453
 2426TIP3    H128913   5.511   6.360   8.442 -0.4595  0.1697 -0.0852
 2426TIP3    H228914   5.531   6.467   8.337 -0.3427 -0.1629 -0.4026
 2427TIP3   OH228915   4.760   1.811   8.501  0.8138  0.3049  0.4997
 2427TIP3    H128916   4.847   1.784   8.473  0.4595  1.3339 -1.8715
 2427TIP3    H228917   4.744   1.893   8.453 -1.2610  0.3882  1.2303
 2428TIP3   OH228918   4.465   0.655   1.559  0.0525  0.2110 -0.4663
 2428TIP3    H128919   4.394   0.719   1.570  0.9276  0.7346  3.8745
 2428TIP3    H228920   4.441   0.582   1.616  2.1040 -0.4361 -0.3428
 2429TIP3   OH228921   6.377   0.624   1.325 -0.6561 -0.0841 -0.7268
 2429TIP3    H128922   6.305   0.618   1.388  0.2172 -0.1161  0.2979
 2429TIP3    H228923   6.446   0.673   1.371  0.1042 -0.3353 -1.5582
 2430TIP3   OH228924   2.814   4.345   0.881 -0.3155 -0.0396 -0.4191
 2430TIP3    H128925   2.797   4.436   0.860  0.7870  0.0196 -1.0966
 2430TIP3    H228926   2.909   4.335   0.874 -0.5571 -1.6694 -2.1300
 2431TIP3   OH228927   2.534   1.707   8.122 -0.4727 -0.6214  0.2003
 2431TIP3    H128928   2.622   1.672   8.134  0.6098  1.8749  0.1695
 2431TIP3    H228929   2.539   1.758   8.041 -2.7098 -2.4660 -1.2683
 2432TIP3   OH228930   4.301   3.425   1.103 -0.7987  0.3101 -0.0926
 2432TIP3    H128931   4.308   3.456   1.012 -0.8341 -1.1125 -0.6050
 2432TIP3    H228932   4.360   3.350   1.106  0.2414  1.1415  1.4503
 2433TIP3   OH228933   6.393   0.747   8.559  0.1995 -0.3772 -0.4159
 2433TIP3    H128934   6.368   0.811   8.625 -1.1128  0.5269 -1.7205
 2433TIP3    H228935   6.348   0.667   8.584 -2.6818  0.7164 -1.6744
 2434TIP3   OH228936   4.814   3.300   0.861  0.1874  0.0636 -0.0462
 2434TIP3    H128937   4.848   3.388   0.879 -0.3654  0.0275  1.3150
 2434TIP3    H228938   4.772   3.308   0.776  1.2096  0.8030 -0.5060
 2435TIP3   OH228939   0.703   6.030   1.454  0.3196  0.0990  0.1948
 2435TIP3    H128940   0.783   6.039   1.507 -0.2963  1.6593  0.9067
 2435TIP3    H228941   0.634   6.014   1.518 -0.5563  2.6983  0.0005
 2436TIP3   OH228942   6.222   3.082   1.549  0.6120  0.4682 -0.1086
 2436TIP3    H128943   6.249   2.998   1.513 -1.9307 -0.2059 -0.5903
 2436TIP3    H228944   6.230   3.071   1.644 -0.4662 -0.6390 -0.1239
 2437TIP3   OH228945   4.270   2.118   1.268  0.0126 -0.4911 -0.4368
 2437TIP3    H128946   4.207   2.185   1.294  0.3036 -0.1672 -0.5614
 2437TIP3    H228947   4.219   2.037   1.269 -0.0937 -0.4209  0.6793
 2438TIP3   OH228948   2.079   5.910   1.036 -0.1716  0.4049 -0.5193
 2438TIP3    H128949   2.067   5.827   1.084  1.0964  0.7734  0.4768
 2438TIP3    H228950   1.990   5.937   1.014 -0.7140 -0.4321  0.5238
 2439TIP3   OH228951   5.868   6.594   1.509  0.3324  0.0989 -0.0120
 2439TIP3    H128952   5.857   6.658   1.438 -0.6811 -1.5672 -1.4276
 2439TIP3    H228953   5.929   6.529   1.474 -0.0371 -0.6520  0.7024
 2440TIP3   OH228954   6.444   5.783   7.754 -0.4301  0.8030  0.3829
 2440TIP3    H128955   6.416   5.863   7.708 -0.9287  0.4182  0.0056
 2440TIP3    H228956   6.392   5.784   7.835 -1.2363  0.3152 -0.1161
 2441TIP3   OH228957   3.430   6.636   8.332  0.2606 -0.1881 -0.1274
 2441TIP3    H128958   3.418   6.583   8.412  0.5573 -0.6813 -0.4063
 2441TIP3    H228959   3.501   6.593   8.285 -1.4130 -1.2831 -1.7862
 2442TIP3   OH228960   6.239   1.982   8.000 -0.3734 -0.1265 -0.2421
 2442TIP3    H128961   6.177   2.054   8.009 -0.4057 -0.0909 -0.6927
 2442TIP3    H228962   6.263   1.959   8.089 -2.5599 -1.4608  0.0683
 2443TIP3   OH228963   5.113   5.992   1.887  0.4498  0.0814 -0.4290
 2443TIP3    H128964   5.048   6.007   1.955  1.3668 -1.0557  0.7367
 2443TIP3    H228965   5.171   6.069   1.891  2.6143 -1.5121  2.6102
 2444TIP3   OH228966   1.594   2.662   2.226 -0.1805 -0.4063 -0.8289
 2444TIP3    H128967   1.684   2.666   2.195 -0.7178  2.3271 -2.3986
 2444TIP3    H228968   1.591   2.719   2.302 -0.5489 -0.5369 -0.7414
 2445TIP3   OH228969   4.069   1.459   7.537  0.6045  0.1268 -0.7053
 2445TIP3    H128970   4.141   1.518   7.516  0.7064  0.7357  1.1937
 2445TIP3    H228971   4.111   1.382   7.576  0.5578 -1.7364 -3.9604
 2446TIP3   OH228972   5.284   4.693   1.395 -0.1990 -0.1504 -0.2705
 2446TIP3    H128973   5.334   4.757   1.343  0.9676 -0.1689  0.7694
 2446TIP3    H228974   5.193   4.708   1.371  0.2808 -0.0191 -2.1491
 2447TIP3   OH228975   3.920   1.097   0.634  0.0070  0.2275  0.3005
 2447TIP3    H128976   4.004   1.132   0.664  0.7223 -0.3309 -0.9674
 2447TIP3    H228977   3.931   1.087   0.539 -1.5196  0.2046  0.1013
 2448TIP3   OH228978   4.299   1.333   1.976 -0.2306  0.3978  0.0084
 2448TIP3    H128979   4.236   1.404   1.994 -0.9289 -0.1275 -0.3443
 2448TIP3    H228980   4.385   1.377   1.978 -0.5780  1.0870  0.6978
 2449TIP3   OH228981   5.293   4.648   2.715 -0.2401 -0.0286 -0.4758
 2449TIP3    H128982   5.223   4.631   2.652  0.1189  1.5412 -1.3749
 2449TIP3    H228983   5.373   4.637   2.665  0.0431  1.7239 -0.4793
 2450TIP3   OH228984   6.199   4.584   1.446 -0.2922  0.3240  0.0608
 2450TIP3    H128985   6.132   4.531   1.488  2.0242 -1.5602  1.6424
 2450TIP3    H228986   6.161   4.672   1.442 -2.8826 -0.6848  0.6600
 2451TIP3   OH228987   2.514   2.349   8.203  0.3394  0.4013  0.0590
 2451TIP3    H128988   2.518   2.285   8.132 -1.7332  1.4388 -1.0893
 2451TIP3    H228989   2.499   2.296   8.281  0.4065 -0.6250 -0.5994
 2452TIP3   OH228990   6.665   0.549   8.819 -0.2383 -0.5260  0.3473
 2452TIP3    H128991   6.642   0.508   8.736  1.1935 -0.8765  0.0888
 2452TIP3    H228992   6.759   0.532   8.829  0.3838  2.4251  0.3814
 2453TIP3   OH228993   1.609   1.961   1.699  0.3843 -0.6037 -0.1121
 2453TIP3    H128994   1.704   1.956   1.689  0.5156 -0.5692  0.9728
 2453TIP3    H228995   1.579   1.870   1.690  0.4711 -0.5618 -0.8528
 2454TIP3   OH228996   3.047   2.608   1.678  0.0153 -0.1625 -0.0550
 2454TIP3    H128997   3.115   2.630   1.615 -0.6501  1.0752 -0.3678
 2454TIP3    H228998   3.070   2.657   1.757  0.0255 -0.5335  0.1772
 2455TIP3   OH228999   4.289   4.613   8.109  0.2136  0.0002 -0.4471
 2455TIP3    H129000   4.282   4.664   8.190 -0.6193 -2.5812  1.2344
 2455TIP3    H229001   4.383   4.594   8.100  0.0805 -1.9527  1.5157
 2456TIP3   OH229002   6.028   3.915   7.740 -0.3575  0.3092  0.1482
 2456TIP3    H129003   6.099   3.874   7.691 -1.8968  0.4583 -2.4255
 2456TIP3    H229004   6.035   4.008   7.719 -0.7985  0.4468  0.5858
 2457TIP3   OH229005   0.082   3.998   7.893  0.2595  0.5315  0.1907
 2457TIP3    H129006   0.012   4.015   7.957 -1.1144  1.5174 -1.4893
 2457TIP3    H229007   0.131   3.925   7.931 -0.5882  0.9607  2.2821
 2458TIP3   OH229008   3.779   5.030   0.418  0.7230  0.2669  0.3260
 2458TIP3    H129009   3.783   5.036   0.514 -0.0457  2.5946  0.2827
 2458TIP3    H229010   3.870   5.019   0.391  0.8743 -1.2594  1.3188
 2459TIP3   OH229011   2.720   1.122   0.500  0.3289  0.4468  0.2519
 2459TIP3    H129012   2.703   1.061   0.429  1.6396  0.3169  0.0111
 2459TIP3    H229013   2.729   1.067   0.578 -0.8170  0.5634  0.4845
 2460TIP3   OH229014   5.806   1.459   8.429  0.8575  0.4532  0.0686
 2460TIP3    H129015   5.751   1.535   8.443  1.3013  0.9536 -0.8171
 2460TIP3    H229016   5.764   1.411   8.357  1.7752  1.0521 -0.8875
 2461TIP3   OH229017   6.250   5.997   1.680 -0.4750 -0.2828 -0.0401
 2461TIP3    H129018   6.174   5.947   1.710  0.2121 -2.0628 -1.0892
 2461TIP3    H229019   6.234   6.009   1.586  0.8510 -1.3711 -0.4411
 2462TIP3   OH229020   0.849   4.203   2.811  0.0790 -0.0181  0.2127
 2462TIP3    H129021   0.769   4.255   2.819  0.4851  0.6056  0.3224
 2462TIP3    H229022   0.890   4.211   2.897  0.7613  0.5194 -0.1523
 2463TIP3   OH229023   4.392   0.084   0.545 -0.2138  0.3430  0.6625
 2463TIP3    H129024   4.330   0.156   0.554  0.5294  1.0843 -0.0319
 2463TIP3    H229025   4.459   0.101   0.611  0.0589  0.4018  0.3756
 2464TIP3   OH229026   2.220   0.631   8.311  0.0529 -0.3309 -0.3185
 2464TIP3    H129027   2.181   0.694   8.372 -0.4189 -0.2220 -0.7209
 2464TIP3    H229028   2.303   0.605   8.352 -0.9682 -1.4614  1.1245
 2465TIP3   OH229029   4.435   3.310   1.507 -0.5505 -0.5968 -0.2284
 2465TIP3    H129030   4.508   3.310   1.444  0.3557 -0.6253  0.7924
 2465TIP3    H229031   4.373   3.373   1.471 -0.8094 -1.7695 -1.9937
 2466TIP3   OH229032   2.638   6.058   2.036 -0.5544  0.3651 -0.3249
 2466TIP3    H129033   2.648   6.141   1.989 -0.2701  0.9299  0.7081
 2466TIP3    H229034   2.569   6.075   2.101 -2.8642 -1.1787 -2.2056
 2467TIP3   OH229035   3.205   3.087   0.437  0.4268  0.5091  0.0204
 2467TIP3    H129036   3.135   3.138   0.397  0.7790  1.1779  0.2506
 2467TIP3    H229037   3.262   3.152   0.478  1.9618  0.0885 -1.3437
 2468TIP3   OH229038   2.709   6.403   7.870 -0.4236  0.1061 -0.2482
 2468TIP3    H129039   2.795   6.391   7.830  0.3114  1.0672  0.9884
 2468TIP3    H229040   2.725   6.460   7.945 -2.1411  0.2908  0.0149
 2469TIP3   OH229041   2.092   4.271   6.974  0.3581  0.2747 -0.4242
 2469TIP3    H129042   2.093   4.357   7.016  0.9394  2.2166 -4.0398
 2469TIP3    H229043   2.184   4.251   6.957  0.3534 -1.7893  1.4554
 2470TIP3   OH229044   6.670   5.071   1.925  0.0462 -0.1397 -0.2139
 2470TIP3    H129045   6.668   4.980   1.896  1.9975 -0.3976  0.3728
 2470TIP3    H229046   6.620   5.072   2.006  0.3186 -0.7499 -0.0387
 2471TIP3   OH229047   2.358   1.759   0.393 -0.7442 -0.3090 -0.9653
 2471TIP3    H129048   2.430   1.775   0.333 -0.9161  2.8678 -0.4796
 2471TIP3    H229049   2.394   1.777   0.480 -1.6226 -0.6273 -0.5192
 2472TIP3   OH229050   6.176   6.569   1.954  1.2894  0.0874 -0.4242
 2472TIP3    H129051   6.260   6.596   1.917  0.5161  1.3684 -1.3096
 2472TIP3    H229052   6.118   6.557   1.879  1.0223 -2.1895  0.0673
 2473TIP3   OH229053   1.500   0.544   2.181  0.4990 -0.0813  0.4680
 2473TIP3    H129054   1.499   0.616   2.118  2.2889 -1.4856 -1.2864
 2473TIP3    H229055   1.414   0.548   2.223  0.4765  2.9554  0.3736
 2474TIP3   OH229056   6.450   4.748   2.378  0.2836  0.1276 -0.1907
 2474TIP3    H129057   6.455   4.684   2.449 -0.3700 -0.8502 -0.9978
 2474TIP3    H229058   6.512   4.817   2.403  0.3584 -0.3949  1.1190
 2475TIP3   OH229059   0.958   4.295   1.508 -0.4456 -0.2001  0.1863
 2475TIP3    H129060   0.991   4.348   1.436 -1.9440 -1.2778 -1.3825
 2475TIP3    H229061   1.010   4.215   1.504  0.1882  0.1610  1.0100
 2476TIP3   OH229062   3.483   3.201   0.163  0.1315 -0.7894  0.5640
 2476TIP3    H129063   3.448   3.122   0.204 -0.2136 -1.0830 -0.2667
 2476TIP3    H229064   3.454   3.195   0.072 -0.7783  0.8043  0.7134
 2477TIP3   OH229065   5.935   1.065   8.660  0.4458 -0.0355 -0.0758
 2477TIP3    H129066   6.028   1.082   8.675  0.4858  0.9167 -1.2024
 2477TIP3    H229067   5.895   1.152   8.658 -0.9189 -0.4732  2.7356
 2478TIP3   OH229068   0.503   1.538   1.776 -0.2720 -0.2346 -0.2731
 2478TIP3    H129069   0.512   1.505   1.687  0.8237  0.5329 -0.4722
 2478TIP3    H229070   0.436   1.606   1.770  0.3818  0.3878 -0.6949
 2479TIP3   OH229071   4.422   3.327   2.515  0.5743  0.2925  0.2986
 2479TIP3    H129072   4.363   3.284   2.452  0.3776 -1.6897  1.7420
 2479TIP3    H229073   4.365   3.352   2.588  0.0278  6.0542 -1.6306
 2480TIP3   OH229074   0.418   1.032   8.670  0.3759 -0.4215  0.8523
 2480TIP3    H129075   0.434   0.959   8.731  0.3073 -1.1365  0.0344
 2480TIP3    H229076   0.323   1.044   8.672  0.4288 -0.0329  1.3369
 2481TIP3   OH229077   3.340   6.131   7.863 -0.3830 -0.4054 -0.4868
 2481TIP3    H129078   3.388   6.192   7.919 -1.3044 -0.7798  0.7540
 2481TIP3    H229079   3.270   6.096   7.919 -0.3773 -1.9918 -1.3945
 2482TIP3   OH229080   2.842   6.551   8.065 -0.0223  0.6094 -0.1975
 2482TIP3    H129081   2.797   6.531   8.147 -0.1577  0.4247 -0.3160
 2482TIP3    H229082   2.802   6.632   8.034 -0.4988  0.2739 -0.4656
 2483TIP3   OH229083   1.796   4.066   2.019  0.2556  0.6321 -0.3255
 2483TIP3    H129084   1.759   4.154   2.030 -1.7925 -0.3496  1.2703
 2483TIP3    H229085   1.859   4.058   2.091  0.2586  0.7019 -0.3198
 2484TIP3   OH229086   4.899   0.446   0.591 -0.0216  0.3112  0.3030
 2484TIP3    H129087   4.850   0.524   0.569 -0.3437 -0.0426 -0.2649
 2484TIP3    H229088   4.873   0.425   0.680  0.0186  0.8130  0.4327
 2485TIP3   OH229089   0.145   6.181   7.684 -0.0369  0.1262  0.0431
 2485TIP3    H129090   0.202   6.109   7.710 -1.5531 -1.1301  0.0925
 2485TIP3    H229091   0.203   6.246   7.645  1.3813 -1.1544 -0.0565
 2486TIP3   OH229092   5.286   3.470   7.565  0.5172 -0.5534 -0.1753
 2486TIP3    H129093   5.249   3.541   7.512 -1.0644 -1.3846 -0.2470
 2486TIP3    H229094   5.362   3.440   7.516  0.4625  0.2707 -0.7760
 2487TIP3   OH229095   0.940   0.365   2.518 -0.1192  0.0750  0.5137
 2487TIP3    H129096   0.885   0.291   2.545 -0.2420  0.4268  1.2672
 2487TIP3    H229097   0.989   0.388   2.598  1.1617 -0.2614 -0.1471
 2488TIP3   OH229098   6.084   1.484   0.074  0.4878  0.1988  0.1386
 2488TIP3    H129099   6.058   1.522  -0.010  2.7440  0.5908 -0.4444
 2488TIP3    H229100   6.170   1.522   0.092  2.8413 -4.2513 -0.3126
 2489TIP3   OH229101   5.539   1.699   1.390 -0.1149 -0.1928 -0.4912
 2489TIP3    H129102   5.622   1.731   1.353  0.4633  1.7574  2.2137
 2489TIP3    H229103   5.491   1.778   1.413 -2.6551 -1.2941 -1.6625
 2490TIP3   OH229104   2.875   0.367   0.862  0.8491 -0.4525  0.3618
 2490TIP3    H129105   2.806   0.344   0.924  0.5640  1.2275  0.7153
 2490TIP3    H229106   2.950   0.390   0.918 -0.0822  3.3124  0.3290
 2491TIP3   OH229107   6.024   6.455   0.756  0.2384  1.0761 -0.1109
 2491TIP3    H129108   5.983   6.372   0.733 -1.1892  1.4620  0.9476
 2491TIP3    H229109   6.054   6.443   0.846 -0.3869  1.8404  0.2135
 2492TIP3   OH229110   4.581   0.216   1.640 -0.3238  0.5814 -0.4803
 2492TIP3    H129111   4.519   0.149   1.670  1.7946 -1.3677 -0.1576
 2492TIP3    H229112   4.630   0.239   1.719 -0.5000  1.9566 -0.7601
 2493TIP3   OH229113   4.181   4.460   1.171 -0.3284 -0.3144  0.1058
 2493TIP3    H129114   4.090   4.483   1.154 -0.5207 -1.1414 -0.0252
 2493TIP3    H229115   4.232   4.530   1.131 -0.8606 -0.6690 -1.2205
 2494TIP3   OH229116   2.382   4.295   0.472  0.0018 -0.5970 -0.0950
 2494TIP3    H129117   2.405   4.366   0.413  4.3290 -0.1314  1.8099
 2494TIP3    H229118   2.362   4.222   0.413  0.3732  0.8152 -2.1142
 2495TIP3   OH229119   1.673   4.322   7.876 -1.0133  0.3971  0.5926
 2495TIP3    H129120   1.635   4.298   7.791  0.5359 -1.1575  0.2856
 2495TIP3    H229121   1.604   4.306   7.939 -2.0201  1.0634 -0.3040
 2496TIP3   OH229122   3.670   5.169   0.199  0.3409  0.1692 -0.6792
 2496TIP3    H129123   3.686   5.118   0.279  1.1062  2.1616  0.4921
 2496TIP3    H229124   3.737   5.137   0.138  0.1481 -0.9342 -0.3499
 2497TIP3   OH229125   0.903   3.042   0.466  0.2904 -0.1424 -0.6369
 2497TIP3    H129126   0.920   3.052   0.373  3.1610 -0.2549 -0.2102
 2497TIP3    H229127   0.916   3.129   0.503  2.6486 -0.6819  0.0292
 2498TIP3   OH229128   0.979   3.146   2.420  0.4498  0.2665  0.1837
 2498TIP3    H129129   0.994   3.238   2.440  0.5724  0.1041  0.8811
 2498TIP3    H229130   0.977   3.142   2.324  1.6784  0.8051  0.1085
 2499TIP3   OH229131   5.092   3.997   7.883 -0.5890  0.3936 -0.4330
 2499TIP3    H129132   5.033   3.962   7.949 -0.7730  0.5030 -0.5393
 2499TIP3    H229133   5.035   4.023   7.810 -0.3999  0.3887 -0.5847
 2500TIP3   OH229134   3.746   4.095   0.249  0.1156  0.1355  0.2275
 2500TIP3    H129135   3.833   4.089   0.289  0.8165  0.5834 -1.1686
 2500TIP3    H229136   3.707   4.009   0.264  1.3000 -0.5033 -0.2147
 2501TIP3   OH229137   5.395   5.950   8.603  0.4244  0.1876  0.4246
 2501TIP3    H129138   5.428   5.944   8.693  2.2248  0.4381 -0.1614
 2501TIP3    H229139   5.385   5.859   8.576 -0.5724  0.1101  1.0147
 2502TIP3   OH229140   1.278   5.244   2.505  0.1086  0.1269  0.3291
 2502TIP3    H129141   1.356   5.219   2.555 -2.3916 -3.1688  3.1335
 2502TIP3    H229142   1.214   5.267   2.572 -1.6593  1.8850 -1.8213
 2503TIP3   OH229143   2.702   0.522   1.979 -0.9421 -0.7066  0.4539
 2503TIP3    H129144   2.750   0.520   2.062  2.5917  2.5522 -1.2096
 2503TIP3    H229145   2.643   0.596   1.987 -0.8775 -0.6249  0.1941
 2504TIP3   OH229146   1.481   6.549   1.800  1.0230  0.3288  0.0389
 2504TIP3    H129147   1.490   6.530   1.893 -2.3081 -1.5630  0.1743
 2504TIP3    H229148   1.494   6.643   1.792  0.1527  0.7378  2.6698
 2505TIP3   OH229149   3.739   4.738   8.742 -0.3516 -0.4717 -0.3272
 2505TIP3    H129150   3.815   4.796   8.737  2.7630 -4.0215  1.1742
 2505TIP3    H229151   3.714   4.740   8.835 -0.9750 -0.6775 -0.4845
 2506TIP3   OH229152   3.636   4.578   7.872  0.1546 -0.2570  0.0615
 2506TIP3    H129153   3.579   4.626   7.812  0.3726  1.0515  0.8563
 2506TIP3    H229154   3.721   4.576   7.828 -0.0386 -0.5454 -0.2966
 2507TIP3   OH229155   1.923   1.980   1.928  0.0960 -0.0060  0.1277
 2507TIP3    H129156   1.901   1.916   1.996  0.8486  0.0094  0.3945
 2507TIP3    H229157   1.905   2.065   1.969 -0.1297 -0.0197  0.0573
 2508TIP3   OH229158   1.807   0.857   1.541 -0.2887 -0.1067 -0.0714
 2508TIP3    H129159   1.787   0.767   1.515  0.6842  0.0376 -1.4324
 2508TIP3    H229160   1.852   0.849   1.625 -0.4262 -0.8606 -0.0618
 2509TIP3   OH229161   4.225   4.711   8.365 -0.4206 -0.1547  0.0372
 2509TIP3    H129162   4.313   4.750   8.369  0.0945 -1.3498  1.0899
 2509TIP3    H229163   4.186   4.749   8.286  1.2023  0.0650 -0.7084
 2510TIP3   OH229164   0.106   0.019   1.402  0.0312  0.1384 -0.3336
 2510TIP3    H129165   0.098  -0.054   1.341 -0.0832 -1.0445  1.0404
 2510TIP3    H229166   0.196   0.012   1.435  0.0415  0.6674 -0.2462
 2511TIP3   OH229167   6.071   4.985   6.840 -0.3106 -0.0796 -0.1173
 2511TIP3    H129168   6.101   4.895   6.833  0.0602  0.0424 -0.1408
 2511TIP3    H229169   6.087   5.023   6.753 -1.1184 -0.1866 -0.3152
 2512TIP3   OH229170   6.767   3.400   8.578  0.6070  0.5465  0.8857
 2512TIP3    H129171   6.785   3.485   8.620 -1.0889  1.0796  0.6296
 2512TIP3    H229172   6.750   3.422   8.487 -0.2181  0.0035  0.8969
 2513TIP3   OH229173   1.370   5.624   2.194 -0.4166  0.2145 -0.2923
 2513TIP3    H129174   1.310   5.554   2.168  0.8396 -0.6074 -1.0780
 2513TIP3    H229175   1.313   5.699   2.213 -1.8906 -1.3473  1.8398
 2514TIP3   OH229176   3.658   4.524   1.091  0.3510 -0.0530 -0.0573
 2514TIP3    H129177   3.635   4.484   1.174 -0.1131 -0.5767 -0.4319
 2514TIP3    H229178   3.575   4.528   1.043  0.6307  0.1614 -0.5286
 2515TIP3   OH229179   1.707   2.128   0.828 -0.6092  0.1058 -0.5437
 2515TIP3    H129180   1.695   2.037   0.855  1.1087 -0.4842 -1.6193
 2515TIP3    H229181   1.636   2.143   0.765 -3.2027  0.7690  2.3098
 2516TIP3   OH229182   1.332   3.949   0.878  0.2414  0.0392  0.1649
 2516TIP3    H129183   1.267   3.898   0.830 -0.7285 -0.4255  1.8732
 2516TIP3    H229184   1.413   3.900   0.867  0.5980  1.0884 -2.7307
 2517TIP3   OH229185   0.183   2.942   0.384 -0.3509  0.0443  0.5378
 2517TIP3    H129186   0.261   2.997   0.386 -0.4308  0.1929 -0.1329
 2517TIP3    H229187   0.126   2.979   0.452 -1.9318  3.1649 -2.1962
 2518TIP3   OH229188   3.281   1.746   1.066 -0.0830 -0.0190 -0.4111
 2518TIP3    H129189   3.329   1.781   0.991  0.1799  0.8044  0.1301
 2518TIP3    H229190   3.312   1.656   1.075  0.7818  0.2528 -0.5606
 2519TIP3   OH229191   1.673   1.094   1.444 -0.1004 -0.3510  0.2804
 2519TIP3    H129192   1.726   1.127   1.371 -0.6528  2.8275  1.1684
 2519TIP3    H229193   1.727   1.026   1.484  0.8333 -1.1468 -2.1845
 2520TIP3   OH229194   5.905   5.365   1.552  0.1432  0.1797 -0.1972
 2520TIP3    H129195   5.974   5.351   1.486 -0.2952 -1.3600 -0.3746
 2520TIP3    H229196   5.845   5.292   1.539 -1.2887  1.2299  0.2764
 2521TIP3   OH229197   2.606   1.867   7.883  0.0222  0.5730 -0.0575
 2521TIP3    H129198   2.671   1.799   7.870 -0.8812  0.0712 -2.6464
 2521TIP3    H229199   2.640   1.942   7.834  0.1134  1.3955  1.2125
 2522TIP3   OH229200   1.621   5.603   3.124  0.3762 -0.6693 -0.4632
 2522TIP3    H129201   1.646   5.523   3.171 -1.0320 -0.2004  1.1714
 2522TIP3    H229202   1.549   5.639   3.175  0.9972  1.6835 -1.1397
 2523TIP3   OH229203   1.383   2.049   2.643 -0.0268 -0.2477  0.0589
 2523TIP3    H129204   1.294   2.029   2.615 -0.5610 -0.0835  1.5538
 2523TIP3    H229205   1.391   2.144   2.630  0.4575 -0.4628 -1.4281
 2524TIP3   OH229206   6.667   2.432   1.167 -0.2776  0.4002  0.5210
 2524TIP3    H129207   6.755   2.419   1.200  0.7474  2.1876 -1.3073
 2524TIP3    H229208   6.649   2.354   1.114  0.1416 -0.0030  0.9651
 2525TIP3   OH229209   5.779   4.688   0.262  0.3857  0.4814  0.0429
 2525TIP3    H129210   5.773   4.750   0.189  0.9580 -1.3191 -1.6063
 2525TIP3    H229211   5.718   4.618   0.240 -0.6465  0.6268  2.1304
 2526TIP3   OH229212   6.414   3.604   2.012  0.0839  0.2703 -0.3924
 2526TIP3    H129213   6.355   3.531   1.995 -1.3608  1.4677 -0.7047
 2526TIP3    H229214   6.422   3.648   1.927  0.2419  0.9818 -0.0172
 2527TIP3   OH229215   0.803   2.878   7.867  0.1584  0.6218 -0.0997
 2527TIP3    H129216   0.880   2.932   7.884 -1.4569  2.9555  0.2305
 2527TIP3    H229217   0.798   2.873   7.772 -0.0520  1.7076 -0.1635
 2528TIP3   OH229218   3.818   2.152   1.423  0.2352  0.1057 -0.0210
 2528TIP3    H129219   3.795   2.149   1.330 -2.2760  0.4429  0.5197
 2528TIP3    H229220   3.797   2.065   1.456 -0.1578  0.3814  0.4755
 2529TIP3   OH229221   2.344   6.520   1.205 -0.2371  0.5542 -0.2735
 2529TIP3    H129222   2.366   6.473   1.285 -0.7150  0.6651 -0.0753
 2529TIP3    H229223   2.248   6.516   1.201 -0.3025  1.8102 -0.0856
 2530TIP3   OH229224   1.705   0.784   8.633 -0.1140 -0.8711 -0.1626
 2530TIP3    H129225   1.743   0.780   8.721  2.6080  0.4046 -1.1800
 2530TIP3    H229226   1.738   0.705   8.589  0.3715 -0.3783 -0.6954
 2531TIP3   OH229227   2.316   5.687   0.166 -0.9968 -0.6596  0.3359
 2531TIP3    H129228   2.230   5.711   0.199 -0.8960 -1.5018  1.2627
 2531TIP3    H229229   2.375   5.752   0.203 -1.3161  0.3919 -0.9404
 2532TIP3   OH229230   5.600   6.168   2.012  0.7169  0.4073 -0.1276
 2532TIP3    H129231   5.670   6.136   1.955  1.8263  1.0306  0.8508
 2532TIP3    H229232   5.554   6.234   1.959  1.5443  0.7645 -0.4133
 2533TIP3   OH229233   2.538   5.877   8.605 -0.1046  0.6649 -0.2749
 2533TIP3    H129234   2.554   5.788   8.636 -2.9175  0.2032  0.1431
 2533TIP3    H229235   2.534   5.870   8.510 -0.7857  0.2293 -0.2189
 2534TIP3   OH229236   5.248   1.782   7.522 -0.2610  0.4687 -0.3271
 2534TIP3    H129237   5.320   1.723   7.501 -1.6494 -1.0432 -1.1060
 2534TIP3    H229238   5.232   1.767   7.615 -0.8572 -0.7574 -0.5949
 2535TIP3   OH229239   0.377   1.937   7.255 -0.7461 -0.0647  0.3025
 2535TIP3    H129240   0.467   1.904   7.264 -1.4841 -2.4185 -0.0892
 2535TIP3    H229241   0.385   2.013   7.199  0.9494 -0.6401 -0.3151
 2536TIP3   OH229242   2.640   3.600   8.265 -0.3136 -0.2369  0.0674
 2536TIP3    H129243   2.715   3.591   8.205 -0.7614  0.0248 -0.5385
 2536TIP3    H229244   2.566   3.563   8.217 -0.6363 -0.2271  0.5486
 2537TIP3   OH229245   1.351   4.519   0.918 -0.0424  0.1779  0.3450
 2537TIP3    H129246   1.276   4.567   0.882  0.0942 -0.9476 -1.5841
 2537TIP3    H229247   1.377   4.460   0.847  0.0077 -2.5298  2.4895
 2538TIP3   OH229248   3.455   6.708   6.963  0.5417  0.5073  0.0007
 2538TIP3    H129249   3.418   6.734   6.879  1.2476  0.3351 -0.3719
 2538TIP3    H229250   3.414   6.624   6.983  3.2189 -1.4805 -2.1221
 2539TIP3   OH229251   1.445   2.200   6.838  0.6679 -0.8563  0.3610
 2539TIP3    H129252   1.365   2.228   6.883 -0.9217 -0.8445 -2.2192
 2539TIP3    H229253   1.450   2.106   6.854  1.1047 -0.5943  1.8959
 2540TIP3   OH229254   5.611   5.863   1.671 -0.0693  0.2232  0.2682
 2540TIP3    H129255   5.686   5.806   1.682  1.8402  2.6614  0.8983
 2540TIP3    H229256   5.556   5.846   1.748 -0.1823 -1.5424 -0.1646
 2541TIP3   OH229257   2.142   5.336   1.346  0.0439  0.2129  0.2783
 2541TIP3    H129258   2.097   5.416   1.317  0.5696 -0.1089 -1.5898
 2541TIP3    H229259   2.149   5.283   1.267  1.8380 -0.6484  0.9665
 2542TIP3   OH229260   2.625   0.539   8.265  0.3324  0.3456 -0.6804
 2542TIP3    H129261   2.605   0.602   8.335  0.5031  1.3072 -1.4859
 2542TIP3    H229262   2.720   0.528   8.269  0.2286 -0.4402 -0.0679
 2543TIP3   OH229263   5.538   0.217   0.319 -0.2844 -0.8678  0.3057
 2543TIP3    H129264   5.560   0.132   0.358  0.5460  0.1361  2.1216
 2543TIP3    H229265   5.445   0.210   0.298 -0.5114 -1.8188  1.5195
 2544TIP3   OH229266   2.013   5.641   0.905 -0.0917 -0.1741  0.3192
 2544TIP3    H129267   1.983   5.729   0.881  1.8112  0.4334 -0.0328
 2544TIP3    H229268   2.019   5.594   0.822  0.2798 -0.1570  0.3332
 2545TIP3   OH229269   5.083   0.215   1.651 -0.2182 -0.3121  0.3182
 2545TIP3    H129270   5.031   0.282   1.607  0.6562 -0.1261 -0.4548
 2545TIP3    H229271   5.170   0.221   1.610 -0.6694 -3.4261 -1.3669
 2546TIP3   OH229272   0.861   2.469   1.438 -0.2978 -0.1606 -0.9608
 2546TIP3    H129273   0.776   2.487   1.478  1.2533 -0.5746  3.0009
 2546TIP3    H229274   0.916   2.542   1.466  1.6697 -2.0601  0.4857
 2547TIP3   OH229275   3.761   2.179   8.886 -0.2900 -0.1056 -0.1901
 2547TIP3    H129276   3.744   2.086   8.896 -1.4525  0.0425 -0.6972
 2547TIP3    H229277   3.750   2.196   8.793  1.0361  0.3349 -0.2914
 2548TIP3   OH229278   1.385   1.780   8.091 -0.2719  0.2763  0.4235
 2548TIP3    H129279   1.317   1.769   8.157  0.3122 -0.0959  0.9812
 2548TIP3    H229280   1.338   1.803   8.011 -1.1410 -0.9140  0.5563
 2549TIP3   OH229281   2.857   3.266   8.417  0.0831 -0.4120 -0.5442
 2549TIP3    H129282   2.789   3.198   8.422  1.5627 -1.9042 -0.0671
 2549TIP3    H229283   2.908   3.255   8.497  0.7683  0.8433 -0.7835
 2550TIP3   OH229284   6.092   0.388   1.596  0.8021  0.4404  0.3123
 2550TIP3    H129285   6.141   0.327   1.541  0.9965  0.9088 -0.0351
 2550TIP3    H229286   6.065   0.458   1.537 -1.5730 -0.5253  0.1332
 2551TIP3   OH229287   5.652   0.063   2.224  0.6620  0.1142  0.1562
 2551TIP3    H129288   5.564   0.088   2.197 -0.4701 -0.5773  2.8684
 2551TIP3    H229289   5.688   0.014   2.149 -2.2477 -1.7942 -0.1381
 2552TIP3   OH229290   6.136   6.160   2.219  0.2060 -0.3335  0.1398
 2552TIP3    H129291   6.225   6.136   2.193  1.3126  1.8865  1.5226
 2552TIP3    H229292   6.139   6.165   2.314 -1.4993 -0.4941  0.2252
 2553TIP3   OH229293   5.002   3.688   7.105  0.4404 -0.3487 -0.2291
 2553TIP3    H129294   4.966   3.767   7.065  1.0955  0.7761  1.2855
 2553TIP3    H229295   5.095   3.691   7.086  0.7298  0.1056  1.1420
 2554TIP3   OH229296   0.939   6.695   7.476  0.2374  0.1655  0.0807
 2554TIP3    H129297   0.952   6.790   7.480  1.6739 -0.0325  0.6738
 2554TIP3    H229298   0.945   6.667   7.567  0.1330 -0.5428 -0.1299
 2555TIP3   OH229299   2.449   1.957   1.911  0.1686  0.3361 -0.0452
 2555TIP3    H129300   2.457   1.862   1.902 -3.1186 -0.1494  0.8007
 2555TIP3    H229301   2.378   1.981   1.851  1.1085  2.3564 -0.4505
 2556TIP3   OH229302   3.643   4.972   1.969  0.4120  0.1255 -0.3417
 2556TIP3    H129303   3.654   4.911   2.041 -0.6823  2.0737  1.5996
 2556TIP3    H229304   3.709   5.040   1.985 -0.6489  1.2122 -0.4346
 2557TIP3   OH229305   0.445   3.209   8.139  0.3060  0.4101  0.2039
 2557TIP3    H129306   0.458   3.144   8.069  0.8667  0.6280  0.1029
 2557TIP3    H229307   0.526   3.206   8.190  0.3159  0.9921  0.2285
 2558TIP3   OH229308   0.862   2.560   0.975 -0.0067 -0.4490  0.1551
 2558TIP3    H129309   0.767   2.552   0.988 -0.1112  1.0770  0.5119
 2558TIP3    H229310   0.872   2.639   0.922  1.0116 -1.3216 -0.9920
 2559TIP3   OH229311   3.660   5.584   7.197 -0.7412 -0.3222  0.5422
 2559TIP3    H129312   3.631   5.590   7.106 -1.0598 -0.1889  0.6503
 2559TIP3    H229313   3.676   5.491   7.211 -0.1255 -0.2793  0.1799
 2560TIP3   OH229314   5.500   4.718   7.390  0.4787 -0.6726  0.3004
 2560TIP3    H129315   5.582   4.761   7.366  2.4394 -3.1557  2.0587
 2560TIP3    H229316   5.476   4.758   7.474 -1.9213  2.1938 -1.5546
 2561TIP3   OH229317   1.248   6.660   0.116  0.1783  0.1823  0.6046
 2561TIP3    H129318   1.205   6.608   0.184  0.3651  0.1576  0.7056
 2561TIP3    H229319   1.212   6.626   0.034  0.1035  0.0714  0.6818
 2562TIP3   OH229320   3.549   0.889   0.856 -0.0161 -0.4274 -0.0302
 2562TIP3    H129321   3.470   0.897   0.803 -0.8946  2.3231  1.4518
 2562TIP3    H229322   3.522   0.840   0.934  0.4667 -1.7451 -0.6624
 2563TIP3   OH229323   2.893   0.857   8.583  0.6912 -0.3421 -0.1287
 2563TIP3    H129324   2.949   0.934   8.594  0.0854  0.0420  0.3279
 2563TIP3    H229325   2.947   0.783   8.613  1.0769 -0.0227 -0.0374
 2564TIP3   OH229326   6.423   5.048   2.132 -0.5593  0.8696  0.5114
 2564TIP3    H129327   6.446   5.055   2.225 -1.6976 -1.3973  1.0385
 2564TIP3    H229328   6.344   5.101   2.123  0.3087  2.1911  0.5039
 2565TIP3   OH229329   2.510   4.158   1.425  0.3687  0.1680  0.3756
 2565TIP3    H129330   2.531   4.244   1.463  0.7171 -0.4241  1.5935
 2565TIP3    H229331   2.585   4.138   1.369  0.0515  0.8665 -0.3248
 2566TIP3   OH229332   3.993   0.834   6.920  0.3967  0.1768 -0.3975
 2566TIP3    H129333   3.916   0.873   6.879  0.9477  1.1647 -0.5077
 2566TIP3    H229334   4.067   0.887   6.890  1.1535 -0.8824 -0.4525
 2567TIP3   OH229335   4.237   3.135   1.530  0.3258 -0.0862 -0.0774
 2567TIP3    H129336   4.307   3.199   1.518  0.7439 -0.4728  0.2320
 2567TIP3    H229337   4.198   3.158   1.615  1.4731 -1.1507  0.7674
 2568TIP3   OH229338   5.160   3.624   0.448  0.6575  0.4238  0.0401
 2568TIP3    H129339   5.091   3.615   0.383  0.3862 -0.6215  0.4584
 2568TIP3    H229340   5.130   3.695   0.505 -1.0843 -1.2860  1.3959
 2569TIP3   OH229341   2.261   0.675   2.949  0.0028  0.2405 -0.3684
 2569TIP3    H129342   2.253   0.580   2.940  0.5023  0.2831 -1.5570
 2569TIP3    H229343   2.300   0.703   2.866  1.2708  1.3176  0.5385
 2570TIP3   OH229344   3.035   5.716   0.318 -1.0082 -0.1968  0.4429
 2570TIP3    H129345   3.112   5.672   0.354 -0.3518  1.2771  0.9053
 2570TIP3    H229346   3.010   5.662   0.243  0.8464 -0.4040 -0.0900
 2571TIP3   OH229347   2.445   5.720   7.670  0.9669  0.2688 -0.3842
 2571TIP3    H129348   2.486   5.652   7.722 -0.0428 -0.6109 -0.6892
 2571TIP3    H229349   2.500   5.727   7.592 -0.4873 -2.3876 -1.7955
 2572TIP3   OH229350   4.200   4.193   1.127  0.0625  0.0240  0.5164
 2572TIP3    H129351   4.177   4.183   1.035  0.4956 -1.0686  0.5040
 2572TIP3    H229352   4.200   4.287   1.143 -0.1824  0.2120 -0.5545
 2573TIP3   OH229353   6.126   2.623   2.191 -0.0338  0.1463  0.1372
 2573TIP3    H129354   6.034   2.642   2.171 -0.2509 -1.4418 -0.5692
 2573TIP3    H229355   6.174   2.657   2.116 -0.4856 -2.4090 -1.4730
 2574TIP3   OH229356   2.463   2.232   8.460 -0.0732  0.4746 -0.4277
 2574TIP3    H129357   2.497   2.151   8.421 -1.0985  1.3972 -3.5762
 2574TIP3    H229358   2.389   2.203   8.513 -0.5655 -0.6737 -1.6685
 2575TIP3   OH229359   5.539   0.042   2.803 -0.2625 -0.3104 -0.3053
 2575TIP3    H129360   5.556  -0.051   2.822  3.1751  0.2492  0.0203
 2575TIP3    H229361   5.559   0.087   2.885 -0.7722  0.8077 -0.7877
 2576TIP3   OH229362   1.118   6.788   0.652  0.2893  0.4345 -0.2851
 2576TIP3    H129363   1.037   6.839   0.658  0.9705  1.4081  1.2974
 2576TIP3    H229364   1.137   6.784   0.558 -1.9075 -0.3812 -0.7593
 2577TIP3   OH229365   1.719   4.869   1.540 -0.0902 -0.3249 -0.3344
 2577TIP3    H129366   1.778   4.797   1.517 -1.3969 -1.4884 -0.1995
 2577TIP3    H229367   1.750   4.900   1.625  0.6635 -0.5419 -0.5278
 2578TIP3   OH229368   4.915   1.580   0.772 -0.3123  0.3178 -0.1372
 2578TIP3    H129369   4.911   1.484   0.778  2.4395  0.0727 -0.8531
 2578TIP3    H229370   4.856   1.602   0.700 -2.4467 -0.5818  1.2281
 2579TIP3   OH229371   1.803   2.625   0.948  0.2696 -0.0426  0.2463
 2579TIP3    H129372   1.786   2.595   1.037  0.1791 -0.1059  0.2081
 2579TIP3    H229373   1.720   2.661   0.918  0.7056  1.4485  0.7564
 2580TIP3   OH229374   0.354   3.657   0.524  0.1642  0.6386  0.2166
 2580TIP3    H129375   0.277   3.672   0.578  0.0009 -1.9245  0.7894
 2580TIP3    H229376   0.425   3.702   0.570 -0.4381  0.5714  1.2272
 2581TIP3   OH229377   6.624   5.358   8.646  0.2280 -0.1868 -0.4787
 2581TIP3    H129378   6.656   5.360   8.556 -0.2050  1.7106 -0.6395
 2581TIP3    H229379   6.541   5.310   8.640 -0.1598  0.5518 -1.2328
 2582TIP3   OH229380   4.202   3.166   7.304 -0.5015  0.4059 -0.1310
 2582TIP3    H129381   4.236   3.084   7.267 -0.8637 -0.4719  1.4259
 2582TIP3    H229382   4.160   3.140   7.385 -4.0893  1.5805 -1.4323
 2583TIP3   OH229383   1.183   0.162   0.017 -0.7876 -0.6063 -0.0978
 2583TIP3    H129384   1.241   0.173   0.092 -0.4586 -0.5984 -0.3531
 2583TIP3    H229385   1.239   0.127  -0.052 -0.9526 -0.0229 -0.5308
 2584TIP3   OH229386   0.684   1.125   8.820 -0.5580  0.4977  0.2823
 2584TIP3    H129387   0.610   1.125   8.760 -0.2634 -1.5639 -0.1550
 2584TIP3    H229388   0.753   1.078   8.774 -0.0403 -0.3864  1.8633
 2585TIP3   OH229389   2.957   4.484   7.945  0.2044 -0.3174  0.1859
 2585TIP3    H129390   2.996   4.511   8.028 -1.3421  0.8488  0.5866
 2585TIP3    H229391   2.935   4.567   7.902 -0.4305 -0.9299 -0.6902
 2586TIP3   OH229392   1.601   4.209   7.444  0.2663  0.1537 -0.5057
 2586TIP3    H129393   1.672   4.163   7.488 -0.0526 -0.3628 -0.5233
 2586TIP3    H229394   1.617   4.193   7.351  0.8125  1.0569 -0.5782
 2587TIP3   OH229395   6.672   0.878   2.859  0.1227  0.2245  0.0476
 2587TIP3    H129396   6.648   0.971   2.853  1.2122  0.5520  0.5948
 2587TIP3    H229397   6.607   0.841   2.920  1.8462  1.4557  2.8584
 2588TIP3   OH229398   4.714   3.485   1.198  0.2628  0.0207 -0.0552
 2588TIP3    H129399   4.720   3.515   1.289 -2.7320  0.9180 -0.0466
 2588TIP3    H229400   4.667   3.402   1.202 -1.8579  1.1042 -0.8361
 2589TIP3   OH229401   6.738   0.776   7.902 -0.5022  0.6608 -0.3037
 2589TIP3    H129402   6.671   0.746   7.963  0.1193 -0.3586 -0.0928
 2589TIP3    H229403   6.765   0.861   7.937 -0.3008  0.1868  0.7492
 2590TIP3   OH229404   1.244   5.754   0.298 -0.6775  0.2257 -0.1867
 2590TIP3    H129405   1.154   5.775   0.323  0.3648  0.4387  4.0452
 2590TIP3    H229406   1.290   5.838   0.303  0.1872 -0.2476 -0.1060
 2591TIP3   OH229407   0.728   0.715   0.274  0.3615  0.2612 -0.1570
 2591TIP3    H129408   0.729   0.724   0.369  1.3969  1.0002 -0.2167
 2591TIP3    H229409   0.802   0.768   0.245  0.2201 -0.1815 -1.3568
 2592TIP3   OH229410   2.312   1.560   2.060  0.0400  0.1009 -0.0093
 2592TIP3    H129411   2.234   1.542   2.113 -0.0630 -1.7405 -0.7125
 2592TIP3    H229412   2.325   1.481   2.008  0.9840  1.2742 -1.6949
 2593TIP3   OH229413   2.649   1.411   2.341 -0.3030  0.1849  0.1532
 2593TIP3    H129414   2.588   1.371   2.402 -0.9217  0.0224 -0.5586
 2593TIP3    H229415   2.615   1.389   2.255  0.3349  0.7473 -0.2552
 2594TIP3   OH229416   3.284   5.421   1.070 -0.3141 -0.0225  0.0072
 2594TIP3    H129417   3.192   5.444   1.059 -0.4798  0.5266  2.1346
 2594TIP3    H229418   3.330   5.505   1.068 -0.1659 -0.0482  1.3322
 2595TIP3   OH229419   5.655   6.686   1.920  0.0608 -0.4676  0.0361
 2595TIP3    H129420   5.663   6.702   1.826  1.0060  2.8450  0.5274
 2595TIP3    H229421   5.561   6.677   1.935 -0.1817  0.0130 -1.1163
 2596TIP3   OH229422   0.331   1.480   2.868 -0.3772  0.0429 -0.2778
 2596TIP3    H129423   0.258   1.448   2.921 -0.7144 -0.4040 -0.9875
 2596TIP3    H229424   0.316   1.574   2.861 -0.7748 -0.0133 -0.2312
 2597TIP3   OH229425   2.123   3.821   0.537  0.5129 -0.4302 -0.4264
 2597TIP3    H129426   2.117   3.896   0.597 -1.2486  0.1012 -1.1919
 2597TIP3    H229427   2.110   3.745   0.593 -2.1784  0.1086 -0.1815
 2598TIP3   OH229428   6.429   6.108   6.612 -0.2970 -0.1260 -0.0824
 2598TIP3    H129429   6.487   6.184   6.615 -0.2852 -0.1205 -0.3910
 2598TIP3    H229430   6.341   6.144   6.621 -0.2182 -0.1963  1.0648
 2599TIP3   OH229431   3.876   3.720   8.639  0.3454  0.2515 -0.1208
 2599TIP3    H129432   3.928   3.790   8.600 -0.2326  0.2783 -0.8833
 2599TIP3    H229433   3.840   3.673   8.564 -1.4300  0.7631  0.3730
 2600TIP3   OH229434   3.418   0.575   2.298  0.1193 -0.0225  0.5017
 2600TIP3    H129435   3.504   0.539   2.319  0.3914 -0.0925 -0.6594
 2600TIP3    H229436   3.360   0.540   2.365  1.0169  0.1128  1.3575
 2601TIP3   OH229437   4.069   5.541   2.813  0.0895 -0.0919 -0.8896
 2601TIP3    H129438   4.021   5.618   2.844 -1.9787 -1.3754 -0.6861
 2601TIP3    H229439   4.149   5.539   2.866 -0.7868  0.8046  0.5334
 2602TIP3   OH229440   4.578   1.423   1.904 -0.3725 -0.8338 -0.0590
 2602TIP3    H129441   4.607   1.494   1.846 -1.1568 -2.5849 -2.8342
 2602TIP3    H229442   4.658   1.375   1.925 -0.0447 -0.0404  0.5576
 2603TIP3   OH229443   4.585   4.215   8.836  0.0782 -0.2867  0.1180
 2603TIP3    H129444   4.607   4.169   8.917  0.4106 -0.4527 -0.0640
 2603TIP3    H229445   4.501   4.178   8.809  0.8414 -1.5725 -0.5974
 2604TIP3   OH229446   5.293   1.117   8.300  0.0604 -0.0998 -0.1740
 2604TIP3    H129447   5.238   1.053   8.345  0.4162  0.4115  1.0198
 2604TIP3    H229448   5.378   1.074   8.293  0.3660  0.3162  0.8452
 2605TIP3   OH229449   6.213   4.383   7.867  0.0738  0.1685  0.1103
 2605TIP3    H129450   6.154   4.363   7.939  2.3585  0.6724  2.2549
 2605TIP3    H229451   6.228   4.298   7.825 -1.0931 -0.1826  0.3520
 2606TIP3   OH229452   6.748   4.814   0.351 -0.0324  0.4058 -0.3998
 2606TIP3    H129453   6.757   4.723   0.324 -1.0268  0.5302 -1.2195
 2606TIP3    H229454   6.786   4.817   0.438  2.3091 -0.2450 -1.3172
 2607TIP3   OH229455   6.138   3.664   1.623 -0.3108 -0.8466  0.1009
 2607TIP3    H129456   6.109   3.590   1.570  0.1907 -0.0542 -1.3384
 2607TIP3    H229457   6.101   3.741   1.579  1.6040 -0.0278 -0.2100
 2608TIP3   OH229458   6.194   1.692   2.761  0.5161  0.2925 -0.8731
 2608TIP3    H129459   6.263   1.646   2.714 -0.6068 -1.2891 -1.0630
 2608TIP3    H229460   6.179   1.772   2.710  0.6921 -0.4223 -2.0890
 2609TIP3   OH229461   5.541   5.184   2.279  0.0006  0.1829 -1.1418
 2609TIP3    H129462   5.503   5.272   2.287  1.1913  0.6932 -0.9992
 2609TIP3    H229463   5.609   5.193   2.213  3.1068  0.4522  1.8430
 2610TIP3   OH229464   2.894   5.107   1.409  0.1129  0.2498 -0.1607
 2610TIP3    H129465   2.978   5.063   1.402  1.8605  2.8078  2.3408
 2610TIP3    H229466   2.910   5.195   1.373 -1.1909  1.0645  1.1237
 2611TIP3   OH229467   0.241   1.036   2.058 -0.3018  0.4208  0.1574
 2611TIP3    H129468   0.259   1.119   2.102  0.1834 -0.4037  1.5852
 2611TIP3    H229469   0.309   0.977   2.090 -1.6069 -0.9712  0.4621
 2612TIP3   OH229470   0.350   5.071   0.078  0.4736 -0.4886 -0.0485
 2612TIP3    H129471   0.332   5.126   0.002  1.9156 -0.7363 -0.6084
 2612TIP3    H229472   0.272   5.078   0.132 -0.0860  0.6720 -0.9649
 2613TIP3   OH229473   2.507   1.678   8.389 -0.4519 -0.1918 -0.6458
 2613TIP3    H129474   2.536   1.722   8.309  0.5137 -0.3107 -0.3641
 2613TIP3    H229475   2.505   1.585   8.366  1.7440 -0.4458  0.0156
 2614TIP3   OH229476   4.293   5.525   8.821 -0.1870 -0.0972  0.1149
 2614TIP3    H129477   4.356   5.579   8.772  1.2636 -1.4806  0.3426
 2614TIP3    H229478   4.304   5.552   8.912 -1.0347  0.6991 -0.0062
 2615TIP3   OH229479   5.252   0.306   0.810  0.4088  0.0471 -0.1862
 2615TIP3    H129480   5.183   0.267   0.864 -0.0212  1.7202  0.5398
 2615TIP3    H229481   5.212   0.319   0.724  0.8656 -1.9540 -0.7380
 2616TIP3   OH229482   2.077   0.870   8.725 -0.5912 -0.2388  0.2671
 2616TIP3    H129483   2.065   0.960   8.692 -3.5366  0.4454  2.7495
 2616TIP3    H229484   2.065   0.815   8.648 -2.6082  1.3935 -0.6970
 2617TIP3   OH229485   0.561   5.612   8.659  0.0724  0.5236  0.4106
 2617TIP3    H129486   0.594   5.523   8.659  0.7221  0.7494  1.1410
 2617TIP3    H229487   0.611   5.656   8.729 -0.7577  1.2568  0.5562
 2618TIP3   OH229488   6.077   1.482   8.274  0.2754  0.4329  0.0804
 2618TIP3    H129489   6.017   1.427   8.324  0.4410  0.6179  0.4878
 2618TIP3    H229490   6.022   1.553   8.241  0.1992  0.4078  0.1524
 2619TIP3   OH229491   6.560   3.613   8.896  0.2633  0.4438 -0.2524
 2619TIP3    H129492   6.619   3.542   8.922 -0.0761 -0.3407 -1.5323
 2619TIP3    H229493   6.518   3.640   8.978 -0.7170 -1.8698  0.1142
 2620TIP3   OH229494   1.044   4.549   7.992 -0.3590  0.1896  0.0258
 2620TIP3    H129495   1.080   4.634   8.020 -0.1011  0.6022 -1.4736
 2620TIP3    H229496   1.007   4.566   7.905  1.2663 -1.6125 -1.1061
 2621TIP3   OH229497   3.084   0.930   8.359  0.3527 -0.8963 -0.7092
 2621TIP3    H129498   2.999   0.889   8.374 -0.2077 -0.9983 -3.5909
 2621TIP3    H229499   3.098   0.923   8.265  2.7942  0.6447 -0.5565
 2622TIP3   OH229500   6.687   6.133   2.029 -0.2047  0.6857  0.4970
 2622TIP3    H129501   6.701   6.108   2.120 -0.0452  1.5382  0.7129
 2622TIP3    H229502   6.723   6.060   1.979 -0.2323  0.2411  1.1115
 2623TIP3   OH229503   1.283   2.479   1.436 -0.9123  0.3741  0.6049
 2623TIP3    H129504   1.219   2.447   1.500  0.9737 -0.6790  2.0692
 2623TIP3    H229505   1.363   2.493   1.487  0.6244 -0.2902 -1.4761
 2624TIP3   OH229506   6.507   6.485   0.991 -0.2478  0.3077  0.7877
 2624TIP3    H129507   6.482   6.472   1.082  0.7408 -0.4734  0.9779
 2624TIP3    H229508   6.509   6.580   0.979 -2.6089  0.4226  0.9077
 2625TIP3   OH229509   5.095   1.982   7.408  0.0151  0.2129  0.5678
 2625TIP3    H129510   5.171   1.929   7.433  0.9522  1.0938 -0.2972
 2625TIP3    H229511   5.133   2.067   7.384 -0.9379 -0.0674 -2.3010
 2626TIP3   OH229512   3.038   3.488   7.157  0.3071 -0.0021 -0.2228
 2626TIP3    H129513   2.977   3.418   7.132 -0.1202 -0.1602  1.1636
 2626TIP3    H229514   3.117   3.443   7.184 -0.4372 -0.1036  2.0055
 2627TIP3   OH229515   4.291   5.522   7.471  0.2303  0.3204  0.2043
 2627TIP3    H129516   4.267   5.566   7.390 -0.8453  0.5325  0.6138
 2627TIP3    H229517   4.293   5.429   7.448 -0.2325  0.3672 -0.0419
 2628TIP3   OH229518   5.980   1.058   2.197  0.1399 -0.6398  0.3618
 2628TIP3    H129519   5.949   1.043   2.107  0.2566 -1.6721  0.4870
 2628TIP3    H229520   5.913   1.016   2.252 -0.3902  0.7393  0.8065
 2629TIP3   OH229521   5.603   2.229   1.987 -0.2214  0.2211  0.0649
 2629TIP3    H129522   5.528   2.170   1.985 -0.3196  0.2973  0.9940
 2629TIP3    H229523   5.594   2.276   2.070 -0.1320  1.5265 -0.6363
 2630TIP3   OH229524   1.294   5.773   8.141  0.4356 -0.1903  0.2415
 2630TIP3    H129525   1.370   5.768   8.083  0.2470 -3.1746  0.0730
 2630TIP3    H229526   1.331   5.773   8.229  0.6520  0.6336  0.1552
 2631TIP3   OH229527   6.659   5.258   8.164  0.3973 -0.0790 -0.2443
 2631TIP3    H129528   6.679   5.165   8.150 -1.4168 -0.8426  1.6689
 2631TIP3    H229529   6.563   5.261   8.165  0.3319  1.1682  3.0718
 2632TIP3   OH229530   3.395   2.070   0.907 -0.0946  0.2472  0.1074
 2632TIP3    H129531   3.427   1.980   0.914  1.0912  0.5183 -1.2549
 2632TIP3    H229532   3.391   2.102   0.997  1.3854 -0.5525  0.4859
 2633TIP3   OH229533   5.443   6.619   7.593 -0.9888  0.3724 -0.2356
 2633TIP3    H129534   5.449   6.626   7.688  1.2985 -0.0148 -0.2921
 2633TIP3    H229535   5.512   6.557   7.569 -0.3534  1.7534 -2.2771
 2634TIP3   OH229536   5.218   1.753   7.789 -0.4509  0.1372  0.1723
 2634TIP3    H129537   5.158   1.811   7.838 -0.4838  1.3862 -1.2800
 2634TIP3    H229538   5.305   1.788   7.808 -0.3399 -0.3413  0.5581
 2635TIP3   OH229539   0.405   0.711   7.249 -0.3878 -0.0035  0.6286
 2635TIP3    H129540   0.400   0.746   7.338  2.0899 -1.0622  1.2559
 2635TIP3    H229541   0.483   0.753   7.211  0.9535 -2.5012  0.4025
 2636TIP3   OH229542   0.323   3.588   8.762 -0.0884 -0.0571  0.2965
 2636TIP3    H129543   0.367   3.665   8.798  0.8695  0.0328 -0.9935
 2636TIP3    H229544   0.373   3.513   8.795  1.0480  0.0417 -1.1104
 2637TIP3   OH229545   2.892   2.684   0.385 -0.2776 -0.7203  0.3583
 2637TIP3    H129546   2.906   2.775   0.359 -2.9534 -0.0592  0.9582
 2637TIP3    H229547   2.974   2.659   0.429  1.2101  0.7431 -1.4397
 2638TIP3   OH229548   6.618   2.090   7.986 -0.2783  0.3940  0.0600
 2638TIP3    H129549   6.651   2.017   8.038 -1.8074  0.8672  1.8006
 2638TIP3    H229550   6.583   2.049   7.907  1.1004 -0.4703 -0.1323
 2639TIP3   OH229551   2.189   2.366   2.092 -0.6309 -0.0644  0.2679
 2639TIP3    H129552   2.162   2.340   2.004  0.7924 -0.4229 -0.0860
 2639TIP3    H229553   2.221   2.455   2.082  0.7419 -0.5442  0.1315
 2640TIP3   OH229554   5.944   1.915   8.505 -0.0955 -0.2171 -0.8331
 2640TIP3    H129555   5.929   1.836   8.558  0.1250 -0.5382 -1.2403
 2640TIP3    H229556   5.863   1.927   8.456 -0.5787  0.5021  0.0980
 2641TIP3   OH229557   5.568   6.544   0.891  0.0468 -0.1073  0.6136
 2641TIP3    H129558   5.579   6.590   0.808 -1.5147 -0.3093  0.2630
 2641TIP3    H229559   5.654   6.550   0.933  0.3850  1.5414 -0.2184
 2642TIP3   OH229560   6.114   3.654   2.128 -0.0389 -0.2512 -0.0800
 2642TIP3    H129561   6.082   3.606   2.051  2.2718  0.1252 -1.3827
 2642TIP3    H229562   6.160   3.588   2.179 -1.2832 -0.4277  0.8508
 2643TIP3   OH229563   1.199   5.172   6.906 -0.1905 -0.3596 -0.1020
 2643TIP3    H129564   1.264   5.239   6.929 -0.8042 -0.0052  0.6502
 2643TIP3    H229565   1.176   5.132   6.990 -0.2580 -1.1254 -0.4806
 2644TIP3   OH229566   4.536   2.599   8.157  0.1197 -0.4536  0.1672
 2644TIP3    H129567   4.489   2.548   8.223 -0.8640  1.3229  0.8849
 2644TIP3    H229568   4.578   2.532   8.102 -2.8611 -2.1994 -0.2840
 2645TIP3   OH229569   1.603   2.286   1.368  0.0980 -0.2773  0.3511
 2645TIP3    H129570   1.557   2.234   1.433  0.5461 -0.0110  0.8878
 2645TIP3    H229571   1.608   2.229   1.291 -2.1563  0.1051 -0.1342
 2646TIP3   OH229572   3.237   5.589   0.487 -0.2930 -0.1016  0.2032
 2646TIP3    H129573   3.211   5.571   0.577 -1.5492  1.0930  0.1021
 2646TIP3    H229574   3.329   5.614   0.493 -0.6344  0.9472  1.2914
 2647TIP3   OH229575   0.997   4.958   0.531  0.1030 -0.5111 -0.0051
 2647TIP3    H129576   1.076   4.933   0.483  0.2650  0.5909 -0.3401
 2647TIP3    H229577   1.007   5.052   0.547 -2.0312  0.1204 -1.8226
 2648TIP3   OH229578   5.791   0.814   0.529 -0.6427 -0.1186 -0.3384
 2648TIP3    H129579   5.766   0.805   0.437  1.6466 -0.0827 -1.0316
 2648TIP3    H229580   5.837   0.733   0.550 -0.0181  0.4007  0.3726
 2649TIP3   OH229581   2.307   1.069   2.156  0.0882  0.1673  0.3142
 2649TIP3    H129582   2.283   1.155   2.190 -2.2406 -0.1777 -0.2684
 2649TIP3    H229583   2.401   1.075   2.139 -0.0667  2.7076 -0.0330
 2650TIP3   OH229584   0.776   1.784   8.753  0.4495  0.8147  0.2160
 2650TIP3    H129585   0.765   1.770   8.847 -1.7495  0.9449  0.0281
 2650TIP3    H229586   0.749   1.875   8.740 -2.3145 -0.0877 -0.9131
 2651TIP3   OH229587   0.464   6.765   1.456 -0.3392 -1.1943  0.1781
 2651TIP3    H129588   0.409   6.843   1.452 -1.5353 -2.0799 -1.8999
 2651TIP3    H229589   0.528   6.785   1.524  0.1694  2.0962 -1.0862
 2652TIP3   OH229590   4.966   4.584   1.650  0.4373  0.1216 -0.3899
 2652TIP3    H129591   4.900   4.597   1.583  1.7978 -0.1370 -1.8502
 2652TIP3    H229592   5.046   4.620   1.611  0.9927  1.2638  1.6650
 2653TIP3   OH229593   0.626   3.810   8.633  0.0578 -0.1716  0.5263
 2653TIP3    H129594   0.609   3.718   8.614 -0.8084  0.0338  0.2475
 2653TIP3    H229595   0.624   3.853   8.548 -1.6985  0.4154  0.8070
 2654TIP3   OH229596   3.036   1.526   1.047 -0.0344  0.8733  0.4631
 2654TIP3    H129597   3.047   1.592   0.979  1.1024 -0.0288 -0.2599
 2654TIP3    H229598   3.113   1.535   1.103 -0.0745  0.4360  0.5958
 2655TIP3   OH229599   2.048   0.728   2.460  0.1798  0.1370  0.7551
 2655TIP3    H129600   2.098   0.807   2.442 -0.1916 -0.2433 -2.5663
 2655TIP3    H229601   2.057   0.675   2.381 -5.3159  0.0115 -0.2332
 2656TIP3   OH229602   1.098   3.029   1.473 -0.3238 -0.4886 -0.2516
 2656TIP3    H129603   1.108   2.944   1.430  1.0158  0.6374 -2.3530
 2656TIP3    H229604   1.186   3.053   1.501 -1.0083 -0.6936  2.3087
 2657TIP3   OH229605   2.875   2.981   1.127 -0.1467  0.3558 -0.7436
 2657TIP3    H129606   2.797   3.037   1.130  0.0610  0.6192 -0.0439
 2657TIP3    H229607   2.925   3.014   1.052  0.3485  1.6392  0.1178
 2658TIP3   OH229608   2.701   4.157   6.873 -0.0844  0.3646 -0.0960
 2658TIP3    H129609   2.627   4.097   6.866  0.8091 -0.9054  0.9542
 2658TIP3    H229610   2.748   4.145   6.790  1.8291 -2.8838  1.2502
 2659TIP3   OH229611   5.492   6.388   1.845 -0.4573  0.3107  1.2697
 2659TIP3    H129612   5.503   6.397   1.751 -0.8169 -2.3007  0.8846
 2659TIP3    H229613   5.397   6.385   1.858 -0.4063  0.4209  1.6862
 2660TIP3   OH229614   0.375   6.472   8.624  0.6143  0.3847 -0.0034
 2660TIP3    H129615   0.421   6.537   8.571  0.8568  1.4621  1.4742
 2660TIP3    H229616   0.364   6.397   8.565 -0.2162  1.9409 -1.9535
 2661TIP3   OH229617   3.596   2.945   1.173 -0.3004 -0.1300 -0.1893
 2661TIP3    H129618   3.560   2.974   1.257 -0.6962 -0.5374 -0.2170
 2661TIP3    H229619   3.664   2.882   1.196 -0.3846 -0.2148 -0.1732
 2662TIP3   OH229620   0.119   5.199   1.489  0.2313 -0.2554 -0.2564
 2662TIP3    H129621   0.060   5.177   1.560  1.0291 -1.5779  0.0144
 2662TIP3    H229622   0.133   5.294   1.498 -1.4891  0.0154 -0.0841
 2663TIP3   OH229623   5.289   4.501   8.486 -0.4184  0.1891 -0.0329
 2663TIP3    H129624   5.259   4.539   8.403  0.2877 -1.9621 -1.3541
 2663TIP3    H229625   5.272   4.407   8.477  1.8956 -0.4345  1.2178
 2664TIP3   OH229626   0.536   2.759   1.877 -0.5289  0.2219 -0.0421
 2664TIP3    H129627   0.466   2.773   1.941 -0.3615  0.0630  0.1790
 2664TIP3    H229628   0.604   2.713   1.926 -0.4335  0.0221 -0.3557
 2665TIP3   OH229629   6.196   1.322   0.988  0.1382 -0.7814 -0.4753
 2665TIP3    H129630   6.194   1.258   0.916 -0.0818  0.9698 -2.1104
 2665TIP3    H229631   6.275   1.372   0.973  0.6880 -1.0889  1.2163
 2666TIP3   OH229632   1.035   4.853   1.746 -0.5282  0.0036 -0.0732
 2666TIP3    H129633   1.025   4.760   1.728 -1.4643 -0.6731  3.3361
 2666TIP3    H229634   1.119   4.876   1.704  0.6763 -2.8029  0.5421
 2667TIP3   OH229635   3.178   3.307   8.376 -0.1988 -0.1006  0.3749
 2667TIP3    H129636   3.221   3.241   8.431 -1.4910 -1.1960  0.1524
 2667TIP3    H229637   3.085   3.283   8.380 -0.4641  0.5124 -1.3249
 2668TIP3   OH229638   5.587   3.526   3.230  0.1827 -0.3822  0.0700
 2668TIP3    H129639   5.531   3.500   3.303 -0.1182  2.3759  0.9144
 2668TIP3    H229640   5.530   3.517   3.153 -0.4740 -0.3978  0.5482
 2669TIP3   OH229641   6.021   1.707   1.285  0.7756 -0.2304  0.1220
 2669TIP3    H129642   6.097   1.749   1.325  1.7051 -1.8637  0.1784
 2669TIP3    H229643   6.033   1.720   1.191  0.3561  0.7347  0.1924
 2670TIP3   OH229644   1.795   4.630   1.743  0.6694 -0.3811  0.1577
 2670TIP3    H129645   1.818   4.714   1.784  0.4147  0.2915 -1.0475
 2670TIP3    H229646   1.735   4.590   1.806  0.0233  0.7788  0.3267
 2671TIP3   OH229647   4.459   2.211   2.936 -0.4863  0.4806  0.2950
 2671TIP3    H129648   4.497   2.166   3.011 -1.5290 -0.2867  0.3961
 2671TIP3    H229649   4.528   2.269   2.904  0.1128  0.5016  1.5791
 2672TIP3   OH229650   3.123   5.145   8.817 -0.1222 -0.4894 -0.4947
 2672TIP3    H129651   3.155   5.223   8.862 -1.9269 -0.1139  0.2369
 2672TIP3    H229652   3.189   5.078   8.834 -0.6795 -0.3581  2.7292
 2673TIP3   OH229653   1.303   3.669   0.606  0.8679  0.1518  0.0966
 2673TIP3    H129654   1.383   3.629   0.640  2.0324  2.0667 -0.2601
 2673TIP3    H229655   1.319   3.680   0.512  0.0683  0.3082 -0.0340
 2674TIP3   OH229656   5.689   3.435   0.122 -0.3912  0.6708  0.1310
 2674TIP3    H129657   5.625   3.503   0.141 -0.6306  0.6423 -0.5362
 2674TIP3    H229658   5.636   3.358   0.101 -0.1245  0.3455  0.6414
 2675TIP3   OH229659   4.705   3.594   8.401 -0.0918  0.2746  0.6100
 2675TIP3    H129660   4.621   3.618   8.363  0.7534 -0.3631 -1.8491
 2675TIP3    H229661   4.697   3.501   8.421  0.3003 -0.0211 -0.5309
 2676TIP3   OH229662   5.492   5.774   7.339 -0.3011  0.4941  0.1023
 2676TIP3    H129663   5.550   5.698   7.334 -0.1108  0.6838 -0.9447
 2676TIP3    H229664   5.526   5.825   7.413 -0.1380 -0.1921  0.5128
 2677TIP3   OH229665   0.679   5.374   8.699 -0.0565 -0.4003  0.3690
 2677TIP3    H129666   0.762   5.377   8.747  1.7341  2.9251 -2.4610
 2677TIP3    H229667   0.686   5.296   8.644  0.3734 -1.1003  1.3719
 2678TIP3   OH229668   3.825   2.777   0.070 -0.0719 -0.0460  0.1251
 2678TIP3    H129669   3.909   2.806   0.034  0.1769 -0.5533  0.2794
 2678TIP3    H229670   3.839   2.772   0.164 -0.8135  1.5624  0.3431
 2679TIP3   OH229671   5.134   2.849   0.401  0.1128  0.1167 -0.3671
 2679TIP3    H129672   5.204   2.915   0.406 -0.1073  0.3605 -0.4975
 2679TIP3    H229673   5.112   2.845   0.308  0.5204 -0.5577 -0.4391
 2680TIP3   OH229674   3.526   5.709   1.966  0.6313 -0.3875 -0.5601
 2680TIP3    H129675   3.527   5.619   1.932 -0.4614 -0.0832 -1.4775
 2680TIP3    H229676   3.523   5.764   1.887  3.1335  0.5640 -0.0978
 2681TIP3   OH229677   3.128   4.698   7.257  0.6591  0.0643  0.5099
 2681TIP3    H129678   3.144   4.769   7.195 -1.3786  1.3963  1.3874
 2681TIP3    H229679   3.081   4.631   7.207 -1.8118  1.5286  0.7081
 2682TIP3   OH229680   1.578   0.107   2.101 -0.2195  0.6764  0.2303
 2682TIP3    H129681   1.659   0.072   2.138  0.2547  2.0871  0.5804
 2682TIP3    H229682   1.603   0.192   2.066 -1.2371  0.4939 -1.0158
 2683TIP3   OH229683   3.193   1.469   7.335 -0.1294 -0.5206  0.4383
 2683TIP3    H129684   3.190   1.535   7.266 -1.8603  0.6016  1.5308
 2683TIP3    H229685   3.186   1.385   7.289  3.1210 -0.1281 -1.0699
 2684TIP3   OH229686   0.829   3.873   0.471 -0.3895  0.1803  0.4440
 2684TIP3    H129687   0.740   3.839   0.464 -0.2923 -0.0625  0.3794
 2684TIP3    H229688   0.866   3.861   0.384 -0.5113  0.8965  0.2902
 2685TIP3   OH229689   0.927   0.310   8.351 -0.6828  0.2701  0.1283
 2685TIP3    H129690   0.886   0.320   8.265 -0.8916 -1.0783  0.0533
 2685TIP3    H229691   1.019   0.333   8.336 -1.0402  1.6843 -0.0642
 2686TIP3   OH229692   6.455   0.279   1.625  0.4136  0.1806  0.6134
 2686TIP3    H129693   6.540   0.244   1.652  2.0841  2.5633 -1.0783
 2686TIP3    H229694   6.406   0.288   1.707  1.5645 -1.6878  1.5831
 2687TIP3   OH229695   4.618   1.915   1.615 -0.0888 -0.4342  0.3056
 2687TIP3    H129696   4.709   1.944   1.624 -0.0698 -0.6748  0.9855
 2687TIP3    H229697   4.612   1.880   1.527  0.5297 -0.5878  0.3224
 2688TIP3   OH229698   2.586   1.393   2.043  0.7150 -0.1784  0.0752
 2688TIP3    H129699   2.609   1.300   2.042  2.4420  0.1708  1.6582
 2688TIP3    H229700   2.543   1.408   1.959 -0.2762 -2.5434  0.0725
 2689TIP3   OH229701   1.252   1.464   2.254 -0.1206 -0.3008 -0.0987
 2689TIP3    H129702   1.223   1.380   2.289 -0.0468  0.5763  2.2496
 2689TIP3    H229703   1.179   1.524   2.270  0.9300  0.7293  1.0648
 2690TIP3   OH229704   0.779   1.195   1.156  0.8705 -0.4436  0.0341
 2690TIP3    H129705   0.860   1.169   1.200  1.5473  1.0831 -0.2233
 2690TIP3    H229706   0.711   1.182   1.222  1.7771  1.2276  1.4065
 2691TIP3   OH229707   5.789   5.268   8.093 -0.1572 -0.4193 -0.5558
 2691TIP3    H129708   5.838   5.255   8.174 -1.8371  0.2086  0.6212
 2691TIP3    H229709   5.743   5.351   8.107 -1.0495 -0.6727 -1.8620
 2692TIP3   OH229710   5.637   2.086   7.856 -0.1933 -0.3293 -0.0367
 2692TIP3    H129711   5.654   2.104   7.763 -2.0971 -0.3120 -0.4322
 2692TIP3    H229712   5.573   2.153   7.882  2.1736  1.3224  2.0620
 2693TIP3   OH229713   1.930   2.364   2.225  0.6190 -0.7588 -0.0077
 2693TIP3    H129714   1.932   2.458   2.242 -0.8181 -0.6853 -0.1173
 2693TIP3    H229715   2.014   2.345   2.183  1.0325  0.4181  0.2638
 2694TIP3   OH229716   6.170   0.554   7.675  0.2394  0.2037 -0.0647
 2694TIP3    H129717   6.144   0.510   7.593  1.6903 -0.2965 -0.2832
 2694TIP3    H229718   6.131   0.500   7.744 -0.4932  0.2890 -0.4017
 2695TIP3   OH229719   2.357   5.609   8.812 -0.1335 -1.1669 -0.4772
 2695TIP3    H129720   2.449   5.609   8.783 -0.1011 -1.2198 -0.3728
 2695TIP3    H229721   2.362   5.624   8.906 -0.2845  0.1208 -0.6568
 2696TIP3   OH229722   4.329   1.099   1.049  0.1039  0.1739  0.1285
 2696TIP3    H129723   4.376   1.173   1.086 -0.8801  1.2220 -0.6450
 2696TIP3    H229724   4.375   1.081   0.966  0.1557  0.1041  0.1718
 2697TIP3   OH229725   2.565   5.345   2.346 -0.4572  0.3821 -0.1318
 2697TIP3    H129726   2.512   5.298   2.411  0.1840 -1.2077 -0.7261
 2697TIP3    H229727   2.609   5.414   2.397 -2.2138  1.0522  0.5660
 2698TIP3   OH229728   6.347   1.162   1.222 -0.4109  0.1214  0.2311
 2698TIP3    H129729   6.307   1.222   1.284  0.0752  0.2224  0.4545
 2698TIP3    H229730   6.396   1.218   1.162 -1.4586  0.0847 -0.7017
 2699TIP3   OH229731   2.812   6.489   2.096  0.3607  0.2631  0.1138
 2699TIP3    H129732   2.858   6.559   2.049  1.4733  1.5861  2.9642
 2699TIP3    H229733   2.882   6.433   2.129 -0.5190 -2.7987 -2.7377
 2700TIP3   OH229734   6.177   5.406   1.733 -0.3743 -0.1635 -0.1783
 2700TIP3    H129735   6.093   5.378   1.696 -0.4074  1.9413 -1.8628
 2700TIP3    H229736   6.231   5.326   1.731 -2.1611 -1.4659  0.5950
 2701TIP3   OH229737   6.648   2.987   0.216  0.1117 -0.2218  0.2503
 2701TIP3    H129738   6.581   3.049   0.188  0.4355 -0.4748 -1.1484
 2701TIP3    H229739   6.724   3.008   0.161  0.5289 -1.2411  0.4188
 2702TIP3   OH229740   1.834   5.821   8.629  0.1234 -0.7009 -0.0474
 2702TIP3    H129741   1.862   5.862   8.711  0.3596  0.5066 -0.6953
 2702TIP3    H229742   1.909   5.769   8.602  1.8766  2.3782 -1.6790
 2703TIP3   OH229743   6.101   0.765   8.102  0.3270  0.4169 -0.1021
 2703TIP3    H129744   6.061   0.830   8.160 -0.3300 -0.4087  0.4025
 2703TIP3    H229745   6.038   0.692   8.102  1.1680 -0.3222 -0.4417
 2704TIP3   OH229746   6.210   5.206   2.093  0.7800 -0.4234 -0.0968
 2704TIP3    H129747   6.223   5.216   1.999 -0.6464 -0.5159 -0.3291
 2704TIP3    H229748   6.177   5.291   2.122  1.7800 -0.2097  0.4309
 2705TIP3   OH229749   5.201   5.513   8.431  0.1929  0.5793 -0.0419
 2705TIP3    H129750   5.264   5.580   8.457 -0.4464  0.9394  0.6079
 2705TIP3    H229751   5.254   5.444   8.391  0.9765  0.9632  0.3186
 2706TIP3   OH229752   0.745   2.227   0.068 -1.0238 -0.1237 -0.0507
 2706TIP3    H129753   0.769   2.319   0.075 -0.8731  0.0162 -1.9228
 2706TIP3    H229754   0.828   2.181   0.055 -0.3632 -1.2944  5.6442
 2707TIP3   OH229755   3.055   3.805   2.542  0.2504 -0.1274  0.5062
 2707TIP3    H129756   3.074   3.761   2.460  2.5323  2.0524 -0.2540
 2707TIP3    H229757   2.959   3.812   2.544  0.1285  1.6918 -3.1265
 2708TIP3   OH229758   1.960   6.333   7.994 -0.3331  0.3108 -0.8450
 2708TIP3    H129759   2.044   6.321   7.949  0.6162 -0.7326  1.0651
 2708TIP3    H229760   1.972   6.414   8.045 -1.1369  1.0891 -1.8519
 2709TIP3   OH229761   6.656   0.482   1.573  0.2486  0.1960  0.3903
 2709TIP3    H129762   6.623   0.522   1.654  1.7146 -1.1760  1.7100
 2709TIP3    H229763   6.615   0.396   1.570  0.3147  0.1795 -0.2921
 2710TIP3   OH229764   1.867   4.745   0.432 -0.5619  0.6784 -0.0624
 2710TIP3    H129765   1.821   4.821   0.398 -0.8906  0.4304 -0.1821
 2710TIP3    H229766   1.945   4.781   0.475  0.1653  0.9544 -1.5719
 2711TIP3   OH229767   2.971   2.040   7.625 -0.6215 -0.1698  0.9523
 2711TIP3    H129768   2.954   1.974   7.558 -0.7802  1.3903 -0.6135
 2711TIP3    H229769   2.885   2.061   7.660 -1.0946  1.7187 -1.0998
 2712TIP3   OH229770   5.802   6.113   8.579  0.1119 -0.6091 -0.5165
 2712TIP3    H129771   5.724   6.111   8.523 -0.6699 -0.7659  0.5537
 2712TIP3    H229772   5.875   6.124   8.518 -0.7474 -0.4215 -1.5357
 2713TIP3   OH229773   5.284   5.495   8.063 -0.0944 -0.5619 -0.2417
 2713TIP3    H129774   5.314   5.585   8.079 -0.3913 -0.5794  0.4394
 2713TIP3    H229775   5.270   5.491   7.969  0.6856 -0.1321 -0.3888
 2714TIP3   OH229776   1.130   6.462   8.260 -0.6867 -0.6413  0.1805
 2714TIP3    H129777   1.044   6.505   8.264  0.1475  1.1384 -0.2452
 2714TIP3    H229778   1.190   6.531   8.234  0.5841 -2.3136 -1.5361
 2715TIP3   OH229779   5.829   3.074   0.641 -0.8511  0.2430  0.2698
 2715TIP3    H129780   5.815   3.054   0.733 -0.5226 -0.3600  0.1948
 2715TIP3    H229781   5.741   3.088   0.605 -0.9604  0.8086  0.7361
 2716TIP3   OH229782   6.416   6.039   8.652  0.1947  0.0720 -0.6463
 2716TIP3    H129783   6.328   6.010   8.628  0.1949  0.7970 -1.5578
 2716TIP3    H229784   6.430   6.118   8.600  1.9946 -0.8988 -1.7104
 2717TIP3   OH229785   6.406   0.300   8.727 -0.1894 -0.2864 -0.0612
 2717TIP3    H129786   6.348   0.225   8.739 -0.0163 -0.5286 -0.6844
 2717TIP3    H229787   6.475   0.268   8.669 -0.7942  0.6976 -1.3827
 2718TIP3   OH229788   3.823   5.736   8.591 -0.5254 -0.1870 -0.2308
 2718TIP3    H129789   3.901   5.792   8.593 -0.6137 -0.0808  0.2944
 2718TIP3    H229790   3.758   5.784   8.641 -0.7779 -0.5072 -0.2485
 2719TIP3   OH229791   0.833   4.272   7.799  0.1181  0.4934  0.0429
 2719TIP3    H129792   0.777   4.205   7.837 -0.0052  1.2562  1.2612
 2719TIP3    H229793   0.825   4.260   7.704  1.0181 -1.9575  0.2028
 2720TIP3   OH229794   4.491   4.673   1.487  0.0427 -0.0034  0.4986
 2720TIP3    H129795   4.566   4.650   1.431  0.2954 -0.0130  0.8336
 2720TIP3    H229796   4.531   4.702   1.569 -0.3176  0.2361  0.5917
 2721TIP3   OH229797   6.431   2.999   8.803 -0.0410  0.0926  0.0081
 2721TIP3    H129798   6.427   2.910   8.839 -0.5795  0.4629  0.9024
 2721TIP3    H229799   6.448   2.986   8.710  2.3306 -0.8929  0.4925
 2722TIP3   OH229800   6.611   3.297   1.780  0.2997 -0.0092  0.0634
 2722TIP3    H129801   6.671   3.360   1.820  0.9777 -0.1236 -0.7602
 2722TIP3    H229802   6.564   3.347   1.713 -0.2600 -0.0174  0.4383
 2723TIP3   OH229803   5.240   3.116   8.160  0.2602 -0.5660  0.1701
 2723TIP3    H129804   5.210   3.204   8.137 -0.1517 -0.9907 -0.9920
 2723TIP3    H229805   5.287   3.085   8.082 -3.0967 -2.9118 -1.1753
 2724TIP3   OH229806   0.383   2.385   8.299 -0.1440 -0.3056  0.3534
 2724TIP3    H129807   0.315   2.449   8.279 -0.4834 -0.7409  0.0942
 2724TIP3    H229808   0.338   2.314   8.344  0.5729  0.5429  2.5277
 2725TIP3   OH229809   2.011   6.551   6.904  0.4544 -0.0978 -0.2123
 2725TIP3    H129810   2.000   6.584   6.993  0.4505 -2.8252  0.9141
 2725TIP3    H229811   1.931   6.575   6.858 -1.1319 -1.5930  1.6124
 2726TIP3   OH229812   2.246   6.005   1.510  0.8619  0.3575 -1.1502
 2726TIP3    H129813   2.230   5.979   1.601  0.1786  3.4852 -0.2558
 2726TIP3    H229814   2.336   5.976   1.492  1.0359 -0.2608  0.5600
 2727TIP3   OH229815   3.621   3.134   7.378  0.4122 -0.0297  0.8836
 2727TIP3    H129816   3.583   3.221   7.365 -0.7703 -0.4538  1.4177
 2727TIP3    H229817   3.589   3.106   7.464  2.3511 -0.2081  1.6099
 2728TIP3   OH229818   3.510   2.351   8.920 -0.2267 -1.1362 -0.1495
 2728TIP3    H129819   3.544   2.286   8.982 -0.4543  0.6000  1.9321
 2728TIP3    H229820   3.569   2.345   8.845  1.1730 -2.1495  0.9514
 2729TIP3   OH229821   2.170   6.506   1.586  0.0786 -0.5415 -0.5902
 2729TIP3    H129822   2.098   6.452   1.619  0.1804 -0.0081  0.5419
 2729TIP3    H229823   2.219   6.448   1.528  0.6956 -1.9488  1.2790
 2730TIP3   OH229824   2.434   0.451   1.367  0.4092 -0.4284  0.4712
 2730TIP3    H129825   2.425   0.432   1.461  0.2549 -1.5926  0.2323
 2730TIP3    H229826   2.528   0.444   1.350  0.3228 -1.3598  0.3209
 2731TIP3   OH229827   1.878   4.878   1.810 -0.2369  0.1123  0.0848
 2731TIP3    H129828   1.967   4.914   1.817 -0.0162 -0.4539  0.2104
 2731TIP3    H229829   1.826   4.932   1.870 -0.0653  0.7011 -0.2824
 2732TIP3   OH229830   2.811   6.403   2.490 -0.8750  0.2316  0.3282
 2732TIP3    H129831   2.832   6.475   2.550 -2.1532  1.1193 -0.2497
 2732TIP3    H229832   2.740   6.356   2.533  0.1726 -0.9203  0.8580
 2733TIP3   OH229833   6.074   3.866   8.046 -0.4129  0.1069  0.3946
 2733TIP3    H129834   6.003   3.830   7.993 -0.2078 -0.8867  0.7714
 2733TIP3    H229835   6.141   3.892   7.982  0.5243 -2.5823  0.1802
 2734TIP3   OH229836   0.016   1.326   2.041 -0.5603  0.0942  0.2059
 2734TIP3    H129837   0.100   1.283   2.023  1.1999  2.7830  1.4503
 2734TIP3    H229838   0.002   1.313   2.135 -0.8749  0.7698  0.2574
 2735TIP3   OH229839   2.510   2.544   7.346  0.0264 -1.0151 -0.1006
 2735TIP3    H129840   2.535   2.477   7.408  0.5763 -1.8179 -1.1562
 2735TIP3    H229841   2.578   2.541   7.278 -0.8859 -0.6137 -1.0665
 2736TIP3   OH229842   5.509   6.272   0.168  0.7204 -0.3414 -0.3647
 2736TIP3    H129843   5.461   6.271   0.085  1.2772  0.2033 -0.7039
 2736TIP3    H229844   5.450   6.316   0.229  0.9551  0.7735 -0.9050
 2737TIP3   OH229845   6.087   1.924   1.773  0.0809 -0.0118 -0.3641
 2737TIP3    H129846   6.125   1.844   1.810 -0.6682 -1.6723 -2.9459
 2737TIP3    H229847   5.997   1.925   1.804  0.6012  1.0064  1.2972
 2738TIP3   OH229848   1.123   0.518   2.703  0.2571 -0.3377  0.0287
 2738TIP3    H129849   1.204   0.467   2.700  0.8404  0.3442  2.2642
 2738TIP3    H229850   1.152   0.609   2.698 -0.3580 -0.0879  0.8786
 2739TIP3   OH229851   3.708   0.598   1.169  0.7179 -0.2246  0.5166
 2739TIP3    H129852   3.716   0.687   1.203  2.4637 -0.8770  1.9854
 2739TIP3    H229853   3.652   0.553   1.232  0.1026 -0.2611 -0.0472
 2740TIP3   OH229854   5.442   1.374   2.288 -0.2582 -0.0702 -0.1700
 2740TIP3    H129855   5.408   1.335   2.368  1.4558 -0.4892  0.3940
 2740TIP3    H229856   5.380   1.443   2.266 -0.4010  0.5222  1.9090
 2741TIP3   OH229857   0.395   3.528   1.035 -0.4992  0.3876 -0.3555
 2741TIP3    H129858   0.474   3.498   0.989  0.7066  0.1637  1.6965
 2741TIP3    H229859   0.387   3.620   1.011  0.2056  0.3323 -0.8511
 2742TIP3   OH229860   1.644   2.853   2.461 -0.5263 -0.4261  0.0460
 2742TIP3    H129861   1.615   2.836   2.551  0.2056 -3.5267 -0.1598
 2742TIP3    H229862   1.738   2.837   2.463 -0.1481  1.4013 -0.9365
 2743TIP3   OH229863   2.213   1.351   7.801  0.4657 -0.5097 -0.1952
 2743TIP3    H129864   2.274   1.413   7.841 -1.2925  0.8220  0.5290
 2743TIP3    H229865   2.159   1.321   7.874 -0.5180 -0.7534 -1.0091
 2744TIP3   OH229866   1.194   0.663   8.569  0.1595  0.2111 -0.5307
 2744TIP3    H129867   1.206   0.679   8.476  0.2235 -1.2372 -0.7959
 2744TIP3    H229868   1.236   0.738   8.612  0.4176  0.7271 -1.6474
 2745TIP3   OH229869   0.949   5.275   7.477  0.0349  0.3045 -0.0643
 2745TIP3    H129870   1.022   5.227   7.438  0.4952  0.3334  0.7375
 2745TIP3    H229871   0.934   5.231   7.561 -1.9292 -0.7277 -0.8970
 2746TIP3   OH229872   6.023   6.437   0.352 -0.0370  0.0062  0.1455
 2746TIP3    H129873   5.979   6.514   0.389 -0.4755  0.4670 -1.2742
 2746TIP3    H229874   5.973   6.417   0.273  0.9985 -0.8252 -0.3187
 2747TIP3   OH229875   4.368   4.975   8.350 -0.5559  0.1996 -0.1285
 2747TIP3    H129876   4.304   4.978   8.278 -1.3308 -0.1499  0.5350
 2747TIP3    H229877   4.317   4.953   8.427  0.0936  1.7189  0.7708
 2748TIP3   OH229878   1.096   4.726   1.446 -0.4473  0.0599  0.1072
 2748TIP3    H129879   1.173   4.772   1.479 -0.3546  1.0938 -1.4739
 2748TIP3    H229880   1.065   4.780   1.373  0.4912 -3.0497 -2.8219
 2749TIP3   OH229881   2.720   3.631   0.618 -0.1585 -0.6351 -0.0105
 2749TIP3    H129882   2.692   3.706   0.566 -0.4682 -0.9040 -0.2392
 2749TIP3    H229883   2.716   3.662   0.709 -1.2877 -0.6798 -0.0296
 2750TIP3   OH229884   5.188   1.774   0.602  0.4748  0.3536 -0.0554
 2750TIP3    H129885   5.253   1.845   0.604  1.0299 -0.1005 -1.0880
 2750TIP3    H229886   5.126   1.796   0.671  0.5403  1.9443 -0.4640
 2751TIP3   OH229887   2.652   2.552   0.366 -0.0425 -0.3944  0.2754
 2751TIP3    H129888   2.737   2.593   0.378  1.5859 -3.2100 -0.6446
 2751TIP3    H229889   2.659   2.468   0.412 -2.1193 -0.9633 -0.3256
 2752TIP3   OH229890   2.895   6.527   1.240 -0.3189 -0.3252  0.5559
 2752TIP3    H129891   2.884   6.603   1.296  0.1637  1.0893 -1.1551
 2752TIP3    H229892   2.812   6.520   1.193  0.1255  0.0409 -0.3065
 2753TIP3   OH229893   4.561   5.232   1.962 -0.2340 -0.2480 -0.4229
 2753TIP3    H129894   4.503   5.253   2.035  1.6419  1.2986  0.7261
 2753TIP3    H229895   4.614   5.159   1.994  1.0896  0.8990  0.1217
 2754TIP3   OH229896   2.099   0.873   8.070  0.1446 -0.4902 -0.0876
 2754TIP3    H129897   2.159   0.903   8.139  0.0363 -1.0593  0.2573
 2754TIP3    H229898   2.132   0.914   7.990  0.1930  0.2915  0.3191
 2755TIP3   OH229899   1.699   1.379   7.053  0.3559 -0.4327  0.0564
 2755TIP3    H129900   1.757   1.454   7.070 -1.9504  1.2693  0.9641
 2755TIP3    H229901   1.669   1.392   6.963  0.0932 -0.3679  0.1531
 2756TIP3   OH229902   0.646   5.061   7.933  0.0881  0.2350 -0.8584
 2756TIP3    H129903   0.562   5.043   7.974  0.2068  0.2047 -0.6278
 2756TIP3    H229904   0.651   4.999   7.861  0.3408 -0.4207 -0.2836
 2757TIP3   OH229905   0.185   3.567   6.741  0.6923  0.3426  0.1321
 2757TIP3    H129906   0.170   3.521   6.658  2.6873 -0.6001  0.2339
 2757TIP3    H229907   0.251   3.633   6.720 -1.1824  2.4025  0.2943
 2758TIP3   OH229908   5.687   2.740   1.844  0.2561  0.0177 -0.1437
 2758TIP3    H129909   5.705   2.653   1.808 -2.6798  0.0840 -2.0963
 2758TIP3    H229910   5.753   2.797   1.805 -0.0275 -0.7519 -1.7950
 2759TIP3   OH229911   2.188   3.145   7.344  0.2021 -0.1199  0.3846
 2759TIP3    H129912   2.234   3.061   7.342 -0.1512 -0.3716  1.8017
 2759TIP3    H229913   2.143   3.150   7.259  1.2571 -0.7535 -0.2372
 2760TIP3   OH229914   4.883   4.756   2.025  0.0663  0.4858  0.2440
 2760TIP3    H129915   4.946   4.704   1.975 -0.8851  0.8487 -1.3986
 2760TIP3    H229916   4.937   4.820   2.072  0.9581  0.6572 -0.9732
 2761TIP3   OH229917   1.423   0.493   1.746 -0.4059  0.2175 -0.0170
 2761TIP3    H129918   1.333   0.486   1.779  0.1932  0.0568  1.6721
 2761TIP3    H229919   1.444   0.405   1.715  0.2628 -0.6792  2.7044
 2762TIP3   OH229920   2.389   4.895   7.533 -0.4818 -0.1121 -0.2214
 2762TIP3    H129921   2.441   4.824   7.497 -0.4443 -0.0248 -0.3408
 2762TIP3    H229922   2.373   4.870   7.624  1.2606  0.6905  0.3488
 2763TIP3   OH229923   5.394   2.118   2.613 -0.0665  0.3130 -0.6683
 2763TIP3    H129924   5.350   2.038   2.642 -0.3100  1.1000  1.2962
 2763TIP3    H229925   5.335   2.156   2.548  0.3379 -1.3649 -2.1005
 2764TIP3   OH229926   1.072   4.304   1.011  0.5903  0.2704  0.3086
 2764TIP3    H129927   1.165   4.296   1.033  0.6798 -1.8718 -0.6273
 2764TIP3    H229928   1.068   4.379   0.951  1.9769 -0.5333 -0.8509
 2765TIP3   OH229929   2.312   3.922   2.754  0.3889  0.0779  0.3530
 2765TIP3    H129930   2.407   3.934   2.742  0.3231 -0.6583 -1.0854
 2765TIP3    H229931   2.296   3.951   2.844  1.7752  1.3663  0.2295
 2766TIP3   OH229932   6.062   0.537   2.229 -0.4551  0.3240  0.0023
 2766TIP3    H129933   6.122   0.559   2.158 -0.6026  0.9115  0.0530
 2766TIP3    H229934   6.106   0.467   2.277  0.4018  1.0552  0.3065
 2767TIP3   OH229935   4.386   3.552   8.300 -0.3086  0.5839  0.1254
 2767TIP3    H129936   4.309   3.608   8.308 -0.6429  0.0593  0.5768
 2767TIP3    H229937   4.428   3.582   8.219 -1.1126  0.7158 -0.2549
 2768TIP3   OH229938   1.217   6.559   7.597  0.9322  0.0255 -0.2343
 2768TIP3    H129939   1.134   6.533   7.557  1.5398 -1.4814 -0.5988
 2768TIP3    H229940   1.283   6.526   7.536  1.8155  0.7553  0.3087
 2769TIP3   OH229941   5.043   1.984   8.121 -0.3616  0.5995  0.1662
 2769TIP3    H129942   5.117   1.924   8.109  0.0869  1.3775 -1.1563
 2769TIP3    H229943   5.024   2.017   8.033 -2.0734  0.6811  0.5299
 2770TIP3   OH229944   1.063   0.378   8.833  0.7832  0.1959 -0.1973
 2770TIP3    H129945   1.093   0.290   8.855  1.0109  0.2384 -0.3331
 2770TIP3    H229946   1.018   0.409   8.911  0.3413 -0.2010 -0.2910
 2771TIP3   OH229947   5.361   6.330   6.694 -0.2333  0.2165 -0.9154
 2771TIP3    H129948   5.288   6.362   6.747 -2.1869 -1.1979 -2.6114
 2771TIP3    H229949   5.395   6.409   6.651 -1.1556  0.8239 -0.5675
 2772TIP3   OH229950   5.299   0.785   2.078  0.0991  0.6269  0.0512
 2772TIP3    H129951   5.222   0.842   2.079  0.2044  0.7662  0.6040
 2772TIP3    H229952   5.365   0.833   2.129  0.6694  0.6695 -0.7135
 2773TIP3   OH229953   0.338   5.371   7.641 -0.1355 -1.3104 -0.1744
 2773TIP3    H129954   0.277   5.373   7.567 -0.6200  0.5376  0.2088
 2773TIP3    H229955   0.412   5.425   7.612 -1.1104  0.9487  1.2334
 2774TIP3   OH229956   4.755   3.124   8.578 -0.6360 -0.4012  0.2969
 2774TIP3    H129957   4.718   3.124   8.666 -0.3207 -1.2051  0.4354
 2774TIP3    H229958   4.712   3.051   8.533 -1.2368  0.3695 -0.4175
 2775TIP3   OH229959   2.161   4.560   1.456 -0.2897 -0.8034  0.5929
 2775TIP3    H129960   2.104   4.612   1.399 -1.5874 -2.4563  0.2989
 2775TIP3    H229961   2.126   4.573   1.544 -1.2234 -1.9099  0.3974
 2776TIP3   OH229962   5.333   4.941   1.688 -0.1596  0.1352  0.0594
 2776TIP3    H129963   5.359   5.009   1.749 -1.0557 -0.1459  0.7698
 2776TIP3    H229964   5.374   4.861   1.721 -1.3959 -0.2023  0.8717
 2777TIP3   OH229965   0.081   6.752   8.721 -0.1000  0.0919 -0.3745
 2777TIP3    H129966   0.130   6.751   8.803  2.2295  0.6789 -1.6855
 2777TIP3    H229967   0.080   6.661   8.692 -0.6720 -0.0700  0.1306
 2778TIP3   OH229968   1.878   4.092   8.163 -0.0954  0.6682 -0.4653
 2778TIP3    H129969   1.965   4.096   8.124 -0.4967  0.7369 -1.3624
 2778TIP3    H229970   1.825   4.044   8.099 -0.1650 -1.5329  1.1196
 2779TIP3   OH229971   4.500   1.850   8.202 -0.2897  0.3016 -0.3265
 2779TIP3    H129972   4.559   1.925   8.210  0.2533 -0.1851  0.2785
 2779TIP3    H229973   4.548   1.777   8.240 -1.8568  0.2209  1.7054
 2780TIP3   OH229974   4.528   5.002   0.222  0.0776  0.8023 -0.0652
 2780TIP3    H129975   4.522   4.925   0.165 -1.3411  0.3041  0.7129
 2780TIP3    H229976   4.465   4.985   0.292  1.2236  1.7433  1.2483
 2781TIP3   OH229977   5.466   2.366   2.205  0.3739 -0.4539 -0.1258
 2781TIP3    H129978   5.448   2.274   2.225 -2.0479  0.0572  0.3996
 2781TIP3    H229979   5.514   2.398   2.281 -0.5744 -0.8128  0.6494
 2782TIP3   OH229980   3.384   4.718   1.720  0.1953  0.7555  0.7009
 2782TIP3    H129981   3.462   4.739   1.668  0.1832  1.0414  0.7968
 2782TIP3    H229982   3.352   4.635   1.683 -1.2312  2.1387 -1.4328
 2783TIP3   OH229983   4.419   4.307   8.462 -0.0391 -0.1646  0.3051
 2783TIP3    H129984   4.338   4.342   8.426 -0.4134 -1.7127 -0.4404
 2783TIP3    H229985   4.450   4.374   8.523 -0.5694  1.5323 -1.2269
 2784TIP3   OH229986   1.129   5.839   1.990 -0.0385  0.5825  0.4350
 2784TIP3    H129987   1.083   5.757   1.971 -1.4202  1.3081  0.5426
 2784TIP3    H229988   1.068   5.908   1.964  1.0217  1.5904  0.5280
 2785TIP3   OH229989   0.239   3.070   7.649 -0.3166  0.4275  0.1393
 2785TIP3    H129990   0.304   3.139   7.646  0.2338 -0.0361  1.0820
 2785TIP3    H229991   0.270   3.005   7.586 -0.9963  1.1476 -0.9782
 2786TIP3   OH229992   2.166   4.900   1.519  0.5483 -0.1603  0.5226
 2786TIP3    H129993   2.222   4.976   1.531 -0.4021  0.5879  0.3696
 2786TIP3    H229994   2.113   4.921   1.442 -2.3867  0.7341  2.5930
 2787TIP3   OH229995   3.801   2.905   8.003 -0.5135 -0.5900  0.4397
 2787TIP3    H129996   3.755   2.979   8.042  0.7284  0.5800 -0.2557
 2787TIP3    H229997   3.869   2.882   8.066  0.4072  0.2106 -0.2271
 2788TIP3   OH229998   2.511   6.739   1.281 -0.2657  0.4135  0.3976
 2788TIP3    H129999   2.478   6.694   1.203  0.8364  1.7838 -0.9359
 2788TIP3    H230000   2.432   6.763   1.330 -0.9636 -0.8933 -0.0319
 2789TIP3   OH230001   6.209   3.180   2.418  0.4034 -0.3386 -0.7604
 2789TIP3    H130002   6.196   3.264   2.462  3.0715 -0.4460  0.4195
 2789TIP3    H230003   6.144   3.122   2.459 -0.9960  0.9072 -1.1004
 2790TIP3   OH230004   5.453   2.163   8.464  0.2791 -0.6660 -0.0243
 2790TIP3    H130005   5.482   2.247   8.500  1.1582 -0.9100 -0.1347
 2790TIP3    H230006   5.533   2.111   8.456 -0.0299 -0.9686 -1.4047
 2791TIP3   OH230007   4.175   0.027   7.299  0.2290  0.1753 -0.0131
 2791TIP3    H130008   4.161  -0.067   7.286  3.0846 -0.0552 -2.6015
 2791TIP3    H230009   4.095   0.069   7.269 -0.4732 -1.3608 -0.3588
 2792TIP3   OH230010   6.375   0.045   1.488  0.0823  0.0222  0.1126
 2792TIP3    H130011   6.379   0.137   1.514 -0.2141  0.0815 -0.0518
 2792TIP3    H230012   6.343  -0.001   1.566  1.6387 -0.1449  0.6859
 2793TIP3   OH230013   1.725   3.252   1.186 -0.7359 -0.3320  0.0568
 2793TIP3    H130014   1.693   3.266   1.097 -1.4721  1.3248  0.5556
 2793TIP3    H230015   1.778   3.172   1.179 -1.7597 -0.9252 -1.5988
 2794TIP3   OH230016   4.685   2.389   1.700 -0.8212  0.5725  0.1248
 2794TIP3    H130017   4.753   2.363   1.638 -1.2628  0.3279 -0.2645
 2794TIP3    H230018   4.651   2.306   1.734  0.4348  0.7030  1.8491
 2795TIP3   OH230019   6.363   2.039   0.113 -0.1758 -0.2707  0.2399
 2795TIP3    H130020   6.408   1.957   0.096 -0.7540 -0.6252  0.3994
 2795TIP3    H230021   6.311   2.055   0.035  0.6921  0.4614 -0.2058
 2796TIP3   OH230022   2.011   4.398   0.261  0.5943  0.3261  0.3009
 2796TIP3    H130023   1.935   4.352   0.226  0.8838  0.4146 -0.4599
 2796TIP3    H230024   2.021   4.474   0.204  0.3364  1.1497  1.3282
 2797TIP3   OH230025   4.006   1.294   8.704 -0.0155 -0.4359 -0.5565
 2797TIP3    H130026   4.044   1.265   8.787 -0.6347 -0.6404 -0.3436
 2797TIP3    H230027   4.077   1.283   8.641  1.5183  2.6662  0.4495
 2798TIP3   OH230028   6.310   0.170   2.478 -0.2309 -0.2779 -0.5064
 2798TIP3    H130029   6.304   0.207   2.566  1.9891  0.4198 -0.5756
 2798TIP3    H230030   6.258   0.090   2.482  1.2847 -1.2573  2.0223
 2799TIP3   OH230031   4.093   2.455   1.639 -0.4081  0.2981 -0.3325
 2799TIP3    H130032   4.171   2.425   1.685 -0.4699  0.6832  0.0292
 2799TIP3    H230033   4.028   2.468   1.707  0.0436  2.6503 -0.2493
 2800TIP3   OH230034   1.844   1.293   7.722  0.5244  0.3531  0.7962
 2800TIP3    H130035   1.802   1.228   7.666 -0.7551 -0.6433  2.7900
 2800TIP3    H230036   1.802   1.375   7.700 -1.6027 -0.4045  1.7832
 2801TIP3   OH230037   4.889   0.237   0.138 -0.0745 -0.2437  0.7725
 2801TIP3    H130038   4.849   0.150   0.147  1.9260 -1.2479  0.6203
 2801TIP3    H230039   4.932   0.252   0.222  1.3795 -0.3976  0.0899
 2802TIP3   OH230040   0.654   1.233   1.981 -0.0761 -0.2559 -0.0275
 2802TIP3    H130041   0.675   1.210   2.072 -0.3330 -0.5171 -0.0299
 2802TIP3    H230042   0.638   1.327   1.983  1.0881 -0.0517 -0.0309
 2803TIP3   OH230043   1.519   4.444   2.258  0.0273  0.2978  0.3255
 2803TIP3    H130044   1.447   4.489   2.214  0.5275 -0.4244 -1.2738
 2803TIP3    H230045   1.483   4.422   2.345 -2.2406 -1.3474 -0.9183
 2804TIP3   OH230046   5.564   5.468   0.040  0.4119 -0.3900 -0.1294
 2804TIP3    H130047   5.508   5.511   0.105  1.9687  1.7661 -0.1217
 2804TIP3    H230048   5.503   5.433  -0.025 -1.0609 -0.6871  1.3524
 2805TIP3   OH230049   3.477   0.692   1.000 -0.0674 -0.0530 -0.3481
 2805TIP3    H130050   3.411   0.675   1.066 -1.5370  2.8097 -0.9018
 2805TIP3    H230051   3.469   0.620   0.938 -1.3105 -0.7740  0.6201
 2806TIP3   OH230052   2.578   6.157   0.048 -0.3924  0.0360  1.0025
 2806TIP3    H130053   2.508   6.092   0.042  0.6006 -1.0781  0.9555
 2806TIP3    H230054   2.649   6.110   0.093  1.0681  0.4391 -0.7816
 2807TIP3   OH230055   4.115   5.342   2.463  0.3125  0.2100 -0.0453
 2807TIP3    H130056   4.118   5.285   2.386 -0.5706 -0.6529  0.5345
 2807TIP3    H230057   4.207   5.358   2.485  0.5681 -0.0784 -0.8782
 2808TIP3   OH230058   0.520   3.194   0.953  0.2006  0.1105 -0.3590
 2808TIP3    H130059   0.483   3.221   1.037 -0.0400 -0.4078 -0.2992
 2808TIP3    H230060   0.613   3.183   0.971  0.0817 -0.4183 -0.0541
 2809TIP3   OH230061   2.678   6.278   7.210  0.0520 -0.5090 -0.2049
 2809TIP3    H130062   2.588   6.313   7.206  0.1441 -0.0351  1.1313
 2809TIP3    H230063   2.666   6.188   7.240  0.0036 -0.5522 -0.3525
 2810TIP3   OH230064   6.458   6.407   7.061  0.2908 -0.5512 -0.6904
 2810TIP3    H130065   6.535   6.403   7.004 -1.2514  0.9685 -3.0527
 2810TIP3    H230066   6.393   6.352   7.017 -0.6899 -0.0137  0.0476
 2811TIP3   OH230067   2.706   5.298   7.998 -0.1840 -0.1352  0.4156
 2811TIP3    H130068   2.713   5.254   8.083 -0.8106 -0.0419  0.5189
 2811TIP3    H230069   2.782   5.266   7.949  0.2618 -0.0872  1.0517
 2812TIP3   OH230070   6.618   1.157   2.181 -0.0511  0.2276 -0.9106
 2812TIP3    H130071   6.524   1.156   2.166 -0.3393  2.4606  0.3166
 2812TIP3    H230072   6.630   1.214   2.257  2.2783 -0.1128 -0.9458
 2813TIP3   OH230073   0.637   3.545   8.485  0.9706 -0.2146  0.1122
 2813TIP3    H130074   0.594   3.461   8.468 -3.1208  1.7589 -0.5484
 2813TIP3    H230075   0.662   3.577   8.399  1.8591 -0.4028  0.2912
 2814TIP3   OH230076   5.421   4.496   0.769 -0.1753 -0.2310 -0.2708
 2814TIP3    H130077   5.335   4.537   0.783 -0.1029 -0.8620  2.5504
 2814TIP3    H230078   5.405   4.432   0.699 -1.4152  1.2244 -1.3933
 2815TIP3   OH230079   3.003   0.013   0.146  0.0378 -0.4424 -0.2314
 2815TIP3    H130080   3.084   0.058   0.126  0.7946 -1.2175  0.9414
 2815TIP3    H230081   2.973   0.054   0.228  0.0897 -1.2221  0.1843
 2816TIP3   OH230082   2.493   1.478   8.711  0.2252 -0.2272  0.0686
 2816TIP3    H130083   2.572   1.458   8.660  0.1109 -1.6292  0.4206
 2816TIP3    H230084   2.526   1.500   8.798  0.2427 -0.5704  0.1487
 2817TIP3   OH230085   5.545   6.173   8.053 -0.0359 -0.5312  0.0924
 2817TIP3    H130086   5.469   6.224   8.082 -0.6761 -2.2431  1.5880
 2817TIP3    H230087   5.585   6.227   7.984 -1.4741  1.3035  0.6128
 2818TIP3   OH230088   2.474   2.532   3.120  0.2296  0.0122 -0.0183
 2818TIP3    H130089   2.475   2.602   3.054 -0.6569  1.0180  0.9964
 2818TIP3    H230090   2.545   2.556   3.180 -0.1529  0.1115  0.3966
 2819TIP3   OH230091   2.655   4.460   6.982  0.2794  0.2348  0.2009
 2819TIP3    H130092   2.607   4.429   7.059  2.0446 -0.7384  0.9903
 2819TIP3    H230093   2.678   4.381   6.934  1.1215  0.6509 -0.1134
 2820TIP3   OH230094   3.099   0.332   8.733 -0.4998  0.1781 -0.1527
 2820TIP3    H130095   3.023   0.325   8.790 -1.0196 -0.9065 -0.9329
 2820TIP3    H230096   3.116   0.241   8.705  1.3065  0.3306  0.2919
 2821TIP3   OH230097   0.491   0.659   7.924 -0.8723  0.3717 -0.4180
 2821TIP3    H130098   0.585   0.643   7.935 -0.8132  0.8175 -0.2381
 2821TIP3    H230099   0.463   0.595   7.859 -0.5030  0.0423 -0.2568
 2822TIP3   OH230100   4.027   2.939   0.827  0.2857 -0.0872  0.2397
 2822TIP3    H130101   3.943   2.911   0.791  0.6183 -2.2294  0.9898
 2822TIP3    H230102   4.044   3.023   0.785 -1.5885 -0.2246 -0.9253
 2823TIP3   OH230103   6.393   3.944   2.561  0.1296  0.3570  0.7724
 2823TIP3    H130104   6.393   3.962   2.655  0.4414  2.6839  0.3846
 2823TIP3    H230105   6.318   3.992   2.527 -0.0254 -0.5246 -0.1774
 2824TIP3   OH230106   3.807   4.703   8.071  0.0033 -0.4426 -0.0568
 2824TIP3    H130107   3.803   4.611   8.096  0.9992 -0.4572  0.0733
 2824TIP3    H230108   3.788   4.703   7.977 -0.3605 -0.7384  0.0156
 2825TIP3   OH230109   2.996   0.984   0.662 -0.0666 -0.5886 -0.5708
 2825TIP3    H130110   3.006   0.892   0.639 -1.2715 -1.1893  1.1384
 2825TIP3    H230111   2.904   1.003   0.646  0.1889  0.3526 -0.9903
 2826TIP3   OH230112   4.747   1.849   1.351  0.1769  0.0043 -0.5298
 2826TIP3    H130113   4.712   1.806   1.273 -0.0375 -0.9771  0.0886
 2826TIP3    H230114   4.831   1.885   1.324 -0.2244  0.3231 -1.4009
 2827TIP3   OH230115   2.196   5.703   8.579 -0.3990 -0.6410  0.0991
 2827TIP3    H130116   2.241   5.679   8.660 -1.1605 -1.4589  0.2997
 2827TIP3    H230117   2.266   5.711   8.514  0.3106  0.7695  0.9759
 2828TIP3   OH230118   0.033   0.762   2.306  0.6422  0.2966  0.5684
 2828TIP3    H130119   0.068   0.688   2.355 -1.0734 -0.8065  0.2158
 2828TIP3    H230120   0.037   0.735   2.215 -0.2305  0.5104  0.4536
 2829TIP3   OH230121   3.276   4.563   2.594 -1.0808 -0.1188  0.1589
 2829TIP3    H130122   3.189   4.591   2.566 -0.5029 -0.5665 -2.3389
 2829TIP3    H230123   3.330   4.641   2.583 -0.6286 -0.5827 -1.1927
 2830TIP3   OH230124   5.963   4.902   1.750 -0.2050  0.2798  0.1643
 2830TIP3    H130125   5.887   4.844   1.758 -0.2227  0.5249  2.5451
 2830TIP3    H230126   6.029   4.862   1.806  0.6276  1.2559 -0.0987
 2831TIP3   OH230127   5.424   0.034   8.825 -0.0065  0.0647 -0.0048
 2831TIP3    H130128   5.495   0.098   8.824 -2.9246  3.6170 -0.3993
 2831TIP3    H230129   5.436  -0.016   8.745  1.0426  1.8790 -1.0605
 2832TIP3   OH230130   6.024   5.925   2.360 -0.2365 -0.7400 -0.2295
 2832TIP3    H130131   6.078   5.989   2.406  0.2432 -1.9352  0.9366
 2832TIP3    H230132   5.935   5.943   2.391 -0.0016 -1.1261  0.6899
 2833TIP3   OH230133   5.685   4.836   1.560 -1.0337  0.6746  0.4154
 2833TIP3    H130134   5.592   4.852   1.575 -0.8801  1.5882  0.4495
 2833TIP3    H230135   5.712   4.778   1.631 -1.4292  0.9561  0.7936
 2834TIP3   OH230136   2.376   6.371   7.110  0.2470 -0.0554  0.0533
 2834TIP3    H130137   2.355   6.464   7.095  0.3225 -0.0674 -0.1386
 2834TIP3    H230138   2.332   6.325   7.038 -1.3609 -0.3725  1.1912
 2835TIP3   OH230139   2.915   6.163   1.943  0.0881 -0.4711  0.3534
 2835TIP3    H130140   2.923   6.068   1.948  2.1001 -0.3134  1.1387
 2835TIP3    H230141   2.842   6.178   1.882 -0.8696 -2.4950  0.9265
 2836TIP3   OH230142   2.050   5.909   1.759  0.1953  0.5898 -0.1563
 2836TIP3    H130143   2.015   5.980   1.814 -1.5033  0.6200 -1.2078
 2836TIP3    H230144   1.974   5.878   1.710  1.0978 -1.3918 -0.3579
 2837TIP3   OH230145   2.901   0.109   6.883  0.3884 -0.1658  0.1942
 2837TIP3    H130146   2.917   0.097   6.790 -2.8529 -1.4887 -0.3305
 2837TIP3    H230147   2.976   0.068   6.926  0.6763 -1.9214 -1.8377
 2838TIP3   OH230148   4.694   0.994   8.213 -0.2816 -0.2059  0.0474
 2838TIP3    H130149   4.743   1.044   8.148  0.9550  0.2233  1.2605
 2838TIP3    H230150   4.640   1.059   8.259 -1.0093 -0.4771 -0.4099
 2839TIP3   OH230151   4.840   3.458   7.709  0.1740  0.9383 -0.2303
 2839TIP3    H130152   4.929   3.439   7.736 -0.1293 -0.6873 -0.3171
 2839TIP3    H230153   4.812   3.382   7.658 -0.8658  1.9253 -1.2013
 2840TIP3   OH230154   2.283   0.035   8.120  0.1452 -0.0649 -0.0799
 2840TIP3    H130155   2.312   0.032   8.029 -2.1789  1.2927 -0.9400
 2840TIP3    H230156   2.244  -0.051   8.136 -1.4550  0.4130 -1.1612
 2841TIP3   OH230157   4.002   1.647   0.956  0.0613  0.2189 -0.1074
 2841TIP3    H130158   3.974   1.736   0.934 -0.6704  0.0164 -0.0222
 2841TIP3    H230159   4.050   1.656   1.037  1.3561  0.7499 -0.9075
 2842TIP3   OH230160   4.249   2.397   0.330  0.8151  0.5219  0.0006
 2842TIP3    H130161   4.230   2.485   0.359 -0.0477  0.4744 -0.4074
 2842TIP3    H230162   4.236   2.342   0.408  1.5038  0.7587  0.2942
 2843TIP3   OH230163   3.716   3.735   0.544 -0.6337 -0.4012  0.0324
 2843TIP3    H130164   3.800   3.731   0.590 -0.1978  0.1302 -0.7044
 2843TIP3    H230165   3.657   3.777   0.607  0.0052  0.5000  0.0501
 2844TIP3   OH230166   3.203   1.559   2.286 -0.2277  0.0117  0.0874
 2844TIP3    H130167   3.151   1.569   2.205 -1.0721  0.1775  0.6372
 2844TIP3    H230168   3.142   1.581   2.356 -0.0110 -1.7966  0.8874
 2845TIP3   OH230169   2.729   0.285   1.848 -0.1425 -0.8223 -0.0404
 2845TIP3    H130170   2.680   0.224   1.902 -0.0575 -2.0075 -1.2526
 2845TIP3    H230171   2.713   0.371   1.888 -1.1062 -1.4952  1.0767
 2846TIP3   OH230172   0.603   2.953   0.672  0.1588  0.1790 -0.1901
 2846TIP3    H130173   0.644   2.957   0.586 -3.2781 -0.5196 -2.0363
 2846TIP3    H230174   0.547   3.030   0.676 -1.6364 -1.0779  0.2803
 2847TIP3   OH230175   4.303   5.412   8.211 -0.5499  0.2251  0.1126
 2847TIP3    H130176   4.368   5.421   8.141 -0.7988 -1.0748 -0.3090
 2847TIP3    H230177   4.354   5.382   8.286 -0.3858  0.9747  0.3049
 2848TIP3   OH230178   0.701   6.056   2.470  0.1553  0.1857  0.2119
 2848TIP3    H130179   0.715   6.081   2.562  0.5777  1.4069 -0.1620
 2848TIP3    H230180   0.646   6.126   2.435 -0.7032 -0.7182 -0.2578
 2849TIP3   OH230181   5.655   6.359   1.596  0.0618 -0.5596 -0.3452
 2849TIP3    H130182   5.603   6.377   1.517 -0.2000 -0.2889 -0.1135
 2849TIP3    H230183   5.694   6.444   1.618 -0.8338 -0.3547  0.5116
 2850TIP3   OH230184   1.977   0.297   0.971  0.4752  0.3347  0.0392
 2850TIP3    H130185   1.956   0.226   0.910  2.7459 -0.1290 -0.3154
 2850TIP3    H230186   1.896   0.313   1.019 -0.5086 -1.4622 -0.9190
 2851TIP3   OH230187   5.174   2.230   7.808 -0.0551 -0.5295 -0.6443
 2851TIP3    H130188   5.268   2.215   7.813  0.0217 -0.1099 -0.7946
 2851TIP3    H230189   5.148   2.191   7.724 -0.0224 -0.6769 -0.5867
 2852TIP3   OH230190   3.943   3.763   7.805  0.3920 -0.2127 -0.4733
 2852TIP3    H130191   3.885   3.834   7.778 -0.4945 -0.4573  0.6938
 2852TIP3    H230192   3.922   3.691   7.746  0.4791  0.1363 -0.9318
 2853TIP3   OH230193   0.861   0.585   8.143 -0.7338 -0.0939  0.0632
 2853TIP3    H130194   0.834   0.554   8.230  1.3457  1.7662  1.4952
 2853TIP3    H230195   0.866   0.680   8.153 -0.3380  0.1532 -2.1064
 2854TIP3   OH230196   1.739   5.932   7.223 -0.3561  0.2182  0.3213
 2854TIP3    H130197   1.741   6.004   7.285 -2.6868  0.5886  0.0637
 2854TIP3    H230198   1.649   5.900   7.226  0.2320 -1.7134 -0.6788
 2855TIP3   OH230199   6.322   6.788   1.048  0.6268 -0.4731  0.8174
 2855TIP3    H130200   6.328   6.842   0.970  0.8970 -2.3803 -0.5547
 2855TIP3    H230201   6.411   6.789   1.085  1.4487 -2.2683 -0.8973
 2856TIP3   OH230202   4.724   0.097   2.462 -0.6533  0.2846 -0.5963
 2856TIP3    H130203   4.776   0.026   2.499 -0.5220  0.1675 -0.9968
 2856TIP3    H230204   4.751   0.175   2.510 -1.1139 -0.0035  0.1468
 2857TIP3   OH230205   0.214   6.554   7.582 -1.1021  0.3564 -0.1711
 2857TIP3    H130206   0.156   6.489   7.543 -1.0425  0.0073  0.3068
 2857TIP3    H230207   0.214   6.532   7.675 -1.2023  1.1381  0.0186
 2858TIP3   OH230208   4.686   0.284   1.390  0.2970 -0.1990  0.2751
 2858TIP3    H130209   4.667   0.278   1.484  2.4991  1.6303  0.9339
 2858TIP3    H230210   4.658   0.372   1.365  3.2726  0.8770  0.2710
 2859TIP3   OH230211   0.389   1.883   2.221 -0.5111  0.6190 -1.1318
 2859TIP3    H130212   0.453   1.899   2.151  0.9619  0.7451  0.2016
 2859TIP3    H230213   0.371   1.970   2.257 -1.2311  0.5462 -1.2928
 2860TIP3   OH230214   5.231   3.578   1.801  0.1309 -0.2540 -0.1573
 2860TIP3    H130215   5.193   3.566   1.888 -0.0608 -0.1862 -0.2310
 2860TIP3    H230216   5.192   3.507   1.749 -1.0790  0.7052 -0.6211
 2861TIP3   OH230217   1.990   0.440   8.833  0.3385 -0.1513  0.2498
 2861TIP3    H130218   1.956   0.394   8.757  1.4052 -0.1365 -0.2519
 2861TIP3    H230219   2.003   0.372   8.899  0.9866 -0.4234 -0.1543
 2862TIP3   OH230220   5.669   0.314   7.838  0.2460  0.2596  0.3471
 2862TIP3    H130221   5.746   0.264   7.810  0.5795  1.1433 -0.3387
 2862TIP3    H230222   5.598   0.250   7.838  0.4200 -0.0020 -1.6562
 2863TIP3   OH230223   3.970   4.663   8.406  0.0993  0.3472  0.2402
 2863TIP3    H130224   4.059   4.693   8.389  0.0546  0.2178 -0.2227
 2863TIP3    H230225   3.920   4.744   8.416 -0.0222  0.4454 -1.0147
 2864TIP3   OH230226   3.453   3.637   1.240  0.6760 -0.3958  0.0416
 2864TIP3    H130227   3.512   3.626   1.166  0.6909 -0.0444 -0.0026
 2864TIP3    H230228   3.366   3.635   1.202  0.7105  1.0874 -0.1798
 2865TIP3   OH230229   6.192   4.636   2.413  0.7365 -0.1863 -0.2535
 2865TIP3    H130230   6.180   4.631   2.508  1.7464  0.3392 -0.0844
 2865TIP3    H230231   6.273   4.686   2.401  0.2131  0.4332 -1.4114
 2866TIP3   OH230232   5.580   1.850   7.462  0.3733  0.4599 -0.1861
 2866TIP3    H130233   5.640   1.802   7.519  1.0388  0.8102 -0.5749
 2866TIP3    H230234   5.532   1.908   7.521 -1.7974 -1.9415  0.5897
 2867TIP3   OH230235   1.404   6.143   7.356 -0.1978 -0.1983  0.3247
 2867TIP3    H130236   1.329   6.169   7.409  0.8534  1.4463  1.0909
 2867TIP3    H230237   1.478   6.144   7.417 -0.0530 -6.5045  0.9157
 2868TIP3   OH230238   5.197   2.248   0.231  0.1543 -0.0833  0.1058
 2868TIP3    H130239   5.142   2.199   0.170  1.1006  0.1571 -0.9649
 2868TIP3    H230240   5.169   2.217   0.317 -1.0392 -0.6057 -0.4399
 2869TIP3   OH230241   5.527   4.527   8.801 -0.4282  0.0427  0.1559
 2869TIP3    H130242   5.511   4.557   8.891 -1.1703  0.9354 -0.2566
 2869TIP3    H230243   5.527   4.431   8.808  1.5818  0.0666  1.4328
 2870TIP3   OH230244   3.751   1.958   1.220  0.0462 -0.3949 -0.0305
 2870TIP3    H130245   3.738   1.973   1.126 -0.5560  1.0576  0.2487
 2870TIP3    H230246   3.663   1.957   1.256  0.3077  0.2197  0.6558
 2871TIP3   OH230247   2.244   4.923   0.092  0.3019 -0.4586  0.0064
 2871TIP3    H130248   2.292   4.842   0.112  3.7979  1.4153  0.0351
 2871TIP3    H230249   2.246   4.973   0.174  0.6411  0.7313 -0.6969
 2872TIP3   OH230250   5.941   3.989   2.418  0.4211 -0.5821  0.3660
 2872TIP3    H130251   5.941   3.898   2.387 -2.5911 -0.8758  0.8896
 2872TIP3    H230252   5.855   4.000   2.459  0.3429  2.7740 -0.4244
 2873TIP3   OH230253   4.297   6.401   8.871 -0.2811  0.2837 -0.1331
 2873TIP3    H130254   4.353   6.479   8.880 -2.3374  1.7891  0.4205
 2873TIP3    H230255   4.233   6.426   8.804 -0.8635 -1.0112 -0.0769
 2874TIP3   OH230256   2.734   2.793   8.275  0.0049  0.0170  0.5123
 2874TIP3    H130257   2.737   2.706   8.236  0.0480  0.4290 -0.4168
 2874TIP3    H230258   2.795   2.846   8.224  0.0759  0.5726  1.1440
 2875TIP3   OH230259   0.814   3.883   1.079  0.1690  0.0446 -0.9333
 2875TIP3    H130260   0.768   3.944   1.137  1.1916  0.2664 -0.3392
 2875TIP3    H230261   0.866   3.828   1.137  2.0561  0.9743 -1.6628
 2876TIP3   OH230262   1.477   6.563   7.279  0.1216 -0.1733  1.3077
 2876TIP3    H130263   1.414   6.533   7.214  0.6003  3.8158 -1.3693
 2876TIP3    H230264   1.447   6.525   7.362 -2.2260 -3.1940 -0.7339
 2877TIP3   OH230265   5.871   3.152   0.003  0.3869 -0.1970  0.3598
 2877TIP3    H130266   5.788   3.191  -0.027  0.6643 -1.5412 -2.4646
 2877TIP3    H230267   5.936   3.183  -0.060  1.7850 -0.3650  1.6624
 2878TIP3   OH230268   6.151   6.470   7.398 -0.0410 -0.1580  0.0324
 2878TIP3    H130269   6.077   6.478   7.458  1.2859  0.4423  1.6662
 2878TIP3    H230270   6.224   6.510   7.445  0.9672  0.7538 -2.1873
 2879TIP3   OH230271   5.140   2.577   8.075  0.5513  0.2011 -0.5165
 2879TIP3    H130272   5.100   2.492   8.057  1.0170  0.2877 -2.1808
 2879TIP3    H230273   5.076   2.623   8.129 -0.6090 -0.4824 -1.2535
 2880TIP3   OH230274   0.038   4.502   0.503 -0.3515  0.0732 -0.8267
 2880TIP3    H130275   0.127   4.486   0.533 -0.1871  1.2504 -0.6049
 2880TIP3    H230276   0.012   4.422   0.457  0.0723 -1.0655  0.8369
 2881TIP3   OH230277   6.599   4.978   8.769 -0.8225 -0.5355  0.4796
 2881TIP3    H130278   6.548   4.946   8.694  1.9785 -1.7823 -1.0745
 2881TIP3    H230279   6.637   4.899   8.807  1.1598  0.3987  0.5631
 2882TIP3   OH230280   1.812   0.115   8.367 -0.4130  0.1489 -0.8118
 2882TIP3    H130281   1.895   0.084   8.403  1.0168  0.6083 -3.4796
 2882TIP3    H230282   1.830   0.205   8.338 -2.5951  1.1901  0.7560
 2883TIP3   OH230283   4.773   3.531   0.373 -0.7760  0.4327  0.0515
 2883TIP3    H130284   4.709   3.502   0.308 -1.4432 -0.0807  0.9092
 2883TIP3    H230285   4.832   3.457   0.384 -1.2883  0.1101  0.7715
 2884TIP3   OH230286   4.693   1.290   0.991  0.0516 -0.7670 -0.0526
 2884TIP3    H130287   4.651   1.209   0.962 -1.3212  0.9806 -3.4806
 2884TIP3    H230288   4.782   1.284   0.959 -0.5647 -0.2504 -2.0302
 2885TIP3   OH230289   1.127   1.230   7.950  0.3998  0.0211  0.0730
 2885TIP3    H130290   1.085   1.173   7.887  0.5548  0.9869 -0.9403
 2885TIP3    H230291   1.181   1.172   8.003  2.5228 -0.5664 -2.5139
 2886TIP3   OH230292   1.194   5.228   7.819 -0.0113 -0.1117 -0.6500
 2886TIP3    H130293   1.232   5.306   7.780 -0.1379  0.8954  1.1555
 2886TIP3    H230294   1.220   5.231   7.910 -0.3254 -2.0067 -0.4434
 2887TIP3   OH230295   5.441   0.155   7.905  0.0034 -0.6377  0.0841
 2887TIP3    H130296   5.392   0.147   7.987  0.8441 -1.0647  0.5617
 2887TIP3    H230297   5.400   0.091   7.847 -1.6336  0.7801 -0.3871
 2888TIP3   OH230298   2.460   0.429   0.822  0.3416 -0.1798  0.0888
 2888TIP3    H130299   2.464   0.430   0.918  2.2238  0.4878  0.0395
 2888TIP3    H230300   2.502   0.511   0.796  2.1999 -1.5148 -1.3351
 2889TIP3   OH230301   1.373   5.797   1.858  0.3978 -0.0245  0.1863
 2889TIP3    H130302   1.383   5.885   1.823 -3.6853  0.4524 -0.2585
 2889TIP3    H230303   1.346   5.810   1.949  1.9607 -0.9810  0.8402
 2890TIP3   OH230304   3.373   2.564   1.102  0.3095  0.4300  0.4308
 2890TIP3    H130305   3.453   2.544   1.151 -0.2660 -0.2627  1.1228
 2890TIP3    H230306   3.388   2.650   1.065  1.2183  0.4803  0.8941
 2891TIP3   OH230307   0.542   2.135   0.827 -0.5351 -0.1417 -0.3221
 2891TIP3    H130308   0.487   2.181   0.890  0.3763  0.8059 -0.1782
 2891TIP3    H230309   0.489   2.130   0.747 -0.7263  1.0389 -0.2853
 2892TIP3   OH230310   0.706   1.167   2.231  0.8684 -0.8439  0.5217
 2892TIP3    H130311   0.737   1.228   2.298  0.5283 -0.6507  0.5049
 2892TIP3    H230312   0.733   1.081   2.263 -0.9362 -0.9801  1.8907
 2893TIP3   OH230313   5.352   4.233   1.563  0.4652  0.1976 -0.0118
 2893TIP3    H130314   5.302   4.157   1.594  1.3959 -0.6422 -0.5039
 2893TIP3    H230315   5.443   4.204   1.565  0.6374  0.1594 -3.1845
 2894TIP3   OH230316   2.356   0.815   0.439  0.2680 -0.2450 -0.3261
 2894TIP3    H130317   2.299   0.748   0.400 -1.0149  0.2316  0.6720
 2894TIP3    H230318   2.323   0.898   0.403  0.9582 -0.0315 -0.4772
 2895TIP3   OH230319   6.619   0.271   8.040 -0.1129 -0.5173  0.0914
 2895TIP3    H130320   6.562   0.214   8.093  0.0700  0.0933  0.9759
 2895TIP3    H230321   6.564   0.298   7.967 -0.5899 -0.8663  0.3109
 2896TIP3   OH230322   6.421   5.237   0.927 -0.0026 -0.0172  0.3148
 2896TIP3    H130323   6.504   5.192   0.912  0.1872  0.0888  1.0455
 2896TIP3    H230324   6.355   5.168   0.915 -0.0581  0.4514 -3.0827
 2897TIP3   OH230325   4.569   6.500   1.246  0.3470  0.2685  0.0655
 2897TIP3    H130326   4.616   6.566   1.195 -0.6600  0.8748 -0.1003
 2897TIP3    H230327   4.536   6.547   1.322 -2.4094  0.5979 -1.2083
 2898TIP3   OH230328   6.391   0.954   2.050  0.2661  0.1085  0.0596
 2898TIP3    H130329   6.337   0.881   2.021 -0.6105  0.6217  0.3813
 2898TIP3    H230330   6.466   0.912   2.093  0.7767 -0.6248 -1.4767
 2899TIP3   OH230331   0.984   4.129   2.548 -0.3515  0.2515  0.1450
 2899TIP3    H130332   0.897   4.131   2.587 -0.3084  1.1718  0.2171
 2899TIP3    H230333   1.044   4.150   2.620 -0.1128  0.1123 -0.0093
 2900TIP3   OH230334   4.760   0.351   8.291  0.4315  0.5018 -0.1890
 2900TIP3    H130335   4.713   0.348   8.207 -0.2029 -2.2932  0.1917
 2900TIP3    H230336   4.710   0.294   8.349  3.8288 -2.1270  0.4620
 2901TIP3   OH230337   3.765   4.770   0.800 -0.0109 -0.1893 -0.0284
 2901TIP3    H130338   3.744   4.679   0.819 -1.2516  0.3023  1.1017
 2901TIP3    H230339   3.772   4.812   0.886  1.7020  0.5694 -0.4777
 2902TIP3   OH230340   3.970   1.265   8.197 -0.3829 -0.7871 -0.1126
 2902TIP3    H130341   3.938   1.212   8.124 -1.2621 -1.7391  0.9250
 2902TIP3    H230342   4.048   1.219   8.227  0.7232  0.3029 -1.2236
 2903TIP3   OH230343   0.415   0.495   8.292  0.5107 -0.1193  0.1727
 2903TIP3    H130344   0.451   0.408   8.306  3.8299  0.6445 -2.4616
 2903TIP3    H230345   0.487   0.555   8.310 -1.4452  2.1182  1.1476
 2904TIP3   OH230346   3.495   0.384   2.623  0.2572 -0.3325 -0.1032
 2904TIP3    H130347   3.502   0.300   2.669  1.3864  0.0150  0.3741
 2904TIP3    H230348   3.408   0.381   2.583 -0.1370 -1.2868  0.7749
 2905TIP3   OH230349   3.042   5.324   2.880  0.0020  0.2624  0.3779
 2905TIP3    H130350   2.950   5.334   2.855 -0.1598 -1.0197  0.3778
 2905TIP3    H230351   3.076   5.256   2.822  1.0390  0.8958  0.2059
 2906TIP3   OH230352   1.615   1.238   1.060 -0.2282  0.2968  0.3786
 2906TIP3    H130353   1.602   1.289   0.980  1.3185  0.9893  0.5233
 2906TIP3    H230354   1.700   1.196   1.047 -0.6334 -0.7774  1.0588
 2907TIP3   OH230355   3.277   6.283   0.284  0.1768  0.3801 -0.5689
 2907TIP3    H130356   3.261   6.196   0.248 -0.5853 -0.4576  1.6100
 2907TIP3    H230357   3.372   6.292   0.285  0.2359  0.2105 -2.1632
 2908TIP3   OH230358   4.433   0.509   0.575  0.1449  0.6644  0.3897
 2908TIP3    H130359   4.391   0.457   0.643  0.9156  0.0894  0.4480
 2908TIP3    H230360   4.499   0.560   0.622  0.6221  0.3279  0.0963
 2909TIP3   OH230361   3.269   1.734   8.906  0.3886 -0.4904 -0.1866
 2909TIP3    H130362   3.225   1.666   8.956  0.6098 -0.0029  0.6947
 2909TIP3    H230363   3.211   1.752   8.833  0.8714 -2.4584 -1.1168
 2910TIP3   OH230364   0.564   5.261   1.597  0.1671 -0.2574  0.4010
 2910TIP3    H130365   0.656   5.276   1.575  0.4642 -1.8780  0.4187
 2910TIP3    H230366   0.542   5.178   1.554 -1.4025  0.2765  0.0972
 2911TIP3   OH230367   2.628   6.639   2.367 -0.1430  0.3279  0.1143
 2911TIP3    H130368   2.706   6.647   2.422 -1.0102  1.0764  1.2860
 2911TIP3    H230369   2.568   6.585   2.419 -0.3346 -0.4363 -0.8694
 2912TIP3   OH230370   0.670   4.051   0.698 -0.0990  0.0015 -0.0900
 2912TIP3    H130371   0.689   4.116   0.766  0.1463  0.3578 -0.4910
 2912TIP3    H230372   0.757   4.019   0.671 -0.2121 -0.3770 -0.0047
 2913TIP3   OH230373   6.399   1.361   1.934 -0.0306  0.2468 -0.0652
 2913TIP3    H130374   6.438   1.414   2.003  1.9106 -1.2481  0.0553
 2913TIP3    H230375   6.472   1.311   1.898 -1.6319 -1.7163 -0.7492
 2914TIP3   OH230376   2.273   4.759   8.573  0.0363 -0.1178  0.2504
 2914TIP3    H130377   2.307   4.749   8.484  3.6388  1.3125  1.2956
 2914TIP3    H230378   2.240   4.849   8.576  0.0332 -0.1244  0.3971
 2915TIP3   OH230379   5.533   4.004   7.792  0.3316 -0.6484  0.1558
 2915TIP3    H130380   5.592   3.941   7.751 -0.6344 -2.4260  1.3633
 2915TIP3    H230381   5.445   3.976   7.766 -0.1215  2.0596 -1.7782
 2916TIP3   OH230382   6.180   6.747   1.300 -0.4471  1.0558  0.2002
 2916TIP3    H130383   6.249   6.728   1.364 -0.6261 -1.8925 -0.3334
 2916TIP3    H230384   6.227   6.774   1.221 -0.2045  4.1099  1.2527
 2917TIP3   OH230385   0.723   4.842   1.738  0.7643  0.3344  0.0271
 2917TIP3    H130386   0.811   4.868   1.765  0.7599 -0.5194  0.9117
 2917TIP3    H230387   0.677   4.823   1.820  0.0297 -0.0988 -0.4710
 2918TIP3   OH230388   1.674   3.155   8.592  0.2752 -0.3821 -0.1619
 2918TIP3    H130389   1.673   3.177   8.685 -0.0245  1.5491 -0.5881
 2918TIP3    H230390   1.762   3.178   8.563  0.0470  0.0133 -0.5581
 2919TIP3   OH230391   1.037   4.486   2.330  0.0234  0.1641 -0.1670
 2919TIP3    H130392   1.069   4.573   2.356  1.0811 -0.8829  2.3542
 2919TIP3    H230393   1.095   4.460   2.259  1.0996  0.6593  0.5022
 2920TIP3   OH230394   5.363   1.509   0.204 -0.5148 -0.1105  0.1884
 2920TIP3    H130395   5.363   1.415   0.223 -0.5974  0.3529  2.8712
 2920TIP3    H230396   5.352   1.551   0.289 -1.2918  2.3494 -1.0183
 2921TIP3   OH230397   0.382   4.348   1.216 -0.1810  0.0304  0.1584
 2921TIP3    H130398   0.370   4.440   1.192  0.0752  0.5367  1.8525
 2921TIP3    H230399   0.453   4.318   1.160  0.2985  1.1155  0.1564
 2922TIP3   OH230400   4.354   3.192   7.710  0.1542  0.9299  0.1184
 2922TIP3    H130401   4.258   3.183   7.708  0.3638 -2.5217 -1.8171
 2922TIP3    H230402   4.381   3.147   7.790  0.2608 -2.3733 -1.5977
 2923TIP3   OH230403   1.630   6.458   2.672 -0.0346 -0.6112  0.1431
 2923TIP3    H130404   1.570   6.452   2.597 -0.8278 -0.9115  0.7789
 2923TIP3    H230405   1.658   6.368   2.687  0.4780 -0.4871 -0.0730
 2924TIP3   OH230406   5.809   1.412   1.459 -0.0919 -0.0804 -0.4430
 2924TIP3    H130407   5.881   1.382   1.403  0.5615  1.9201 -0.7457
 2924TIP3    H230408   5.788   1.335   1.513  0.2510 -1.6188 -2.3581
 2925TIP3   OH230409   3.698   1.413   1.151  0.4408  0.4927 -0.5502
 2925TIP3    H130410   3.738   1.461   1.224  2.6899  1.1783 -2.1036
 2925TIP3    H230411   3.759   1.341   1.134  0.8559  1.2766 -2.7173
 2926TIP3   OH230412   4.262   5.205   1.819  0.3241 -0.0414 -0.5516
 2926TIP3    H130413   4.334   5.152   1.786  0.3994  0.1641 -0.7214
 2926TIP3    H230414   4.266   5.194   1.914 -0.9767 -2.0285 -0.6652
 2927TIP3   OH230415   1.994   3.648   8.247 -0.9840 -0.1600 -0.7245
 2927TIP3    H130416   1.948   3.625   8.167 -0.4398 -1.8111 -0.6082
 2927TIP3    H230417   2.064   3.708   8.218 -0.7351 -0.8106 -1.5129
 2928TIP3   OH230418   1.753   4.275   0.259  0.0455 -0.2073 -0.3773
 2928TIP3    H130419   1.678   4.327   0.229  0.9285  1.7358  0.6010
 2928TIP3    H230420   1.733   4.186   0.230 -2.4349  0.3045 -0.4920
 2929TIP3   OH230421   0.203   4.380   8.500  0.1338  0.1752 -0.1923
 2929TIP3    H130422   0.272   4.314   8.503  0.2217  0.2041 -1.1463
 2929TIP3    H230423   0.122   4.331   8.501  0.2004 -0.0014 -1.3588
 2930TIP3   OH230424   4.062   3.549   0.940  0.3135 -0.0066  0.3539
 2930TIP3    H130425   3.991   3.514   0.885  0.7473 -2.3007  1.1591
 2930TIP3    H230426   4.114   3.472   0.964  1.2392  1.1858  2.4164
 2931TIP3   OH230427   5.840   3.398   8.733 -0.1706  0.1215  0.0133
 2931TIP3    H130428   5.855   3.416   8.640 -0.5031 -1.4732 -0.3724
 2931TIP3    H230429   5.811   3.482   8.769 -1.5423  0.4118 -1.6565
 2932TIP3   OH230430   5.708   4.483   0.738  0.3175  0.3919 -0.0645
 2932TIP3    H130431   5.623   4.510   0.773 -1.3805 -1.3367 -2.4797
 2932TIP3    H230432   5.725   4.544   0.667  0.0048 -0.5256 -0.9470
 2933TIP3   OH230433   5.126   0.924   1.633 -0.7721 -0.4126  0.5124
 2933TIP3    H130434   5.164   0.851   1.584  0.2987 -0.7598  1.8098
 2933TIP3    H230435   5.201   0.974   1.665 -1.4794  1.0403  0.0083
 2934TIP3   OH230436   4.327   6.579   8.253  0.1012  0.1521  0.3693
 2934TIP3    H130437   4.283   6.495   8.266  1.9428 -0.7536  1.0351
 2934TIP3    H230438   4.328   6.619   8.340 -2.0514  1.5821 -0.1938
 2935TIP3   OH230439   3.078   2.781   1.935  0.0112  0.4748  0.2759
 2935TIP3    H130440   2.987   2.795   1.961  0.3197  2.6665  0.4041
 2935TIP3    H230441   3.122   2.863   1.959  1.9398 -0.4002 -0.1241
 2936TIP3   OH230442   0.606   4.179   8.712  0.5474  0.4714  0.1511
 2936TIP3    H130443   0.523   4.136   8.734  0.7264  0.0013 -0.0982
 2936TIP3    H230444   0.596   4.268   8.748 -0.8311  1.0503 -1.4946
 2937TIP3   OH230445   1.328   6.801   7.681  0.0197 -0.1434  0.6067
 2937TIP3    H130446   1.284   6.716   7.668  0.0995 -0.5264  2.5547
 2937TIP3    H230447   1.259   6.859   7.712  0.0386  0.4611 -0.4131
 2938TIP3   OH230448   5.348   5.766   8.002 -0.5543  0.2722 -0.5993
 2938TIP3    H130449   5.390   5.742   7.920 -1.0981 -1.5169 -0.3970
 2938TIP3    H230450   5.279   5.827   7.977  1.0722  1.9850 -1.1098
 2939TIP3   OH230451   1.465   5.143   7.369 -0.5808  0.2162 -0.0025
 2939TIP3    H130452   1.435   5.072   7.312 -2.7109  1.7576 -0.9451
 2939TIP3    H230453   1.559   5.128   7.379 -1.0680 -3.1778  0.5560
 2940TIP3   OH230454   4.148   4.925   2.343 -0.0908  0.1049 -0.3960
 2940TIP3    H130455   4.066   4.875   2.339  0.5536 -0.9951 -0.1503
 2940TIP3    H230456   4.174   4.920   2.434  0.0125  0.8590 -0.3814
 2941TIP3   OH230457   3.825   5.839   7.578 -0.0263  0.1974  0.4188
 2941TIP3    H130458   3.838   5.787   7.499  0.0075 -0.8948  1.1234
 2941TIP3    H230459   3.740   5.811   7.611 -0.0688  0.6920  0.7368
 2942TIP3   OH230460   6.732   4.981   8.023  0.7362  0.1977 -0.2367
 2942TIP3    H130461   6.802   4.931   7.980  0.4746 -0.5697  0.2075
 2942TIP3    H230462   6.651   4.939   7.992  0.5457 -0.4794  1.1146
 2943TIP3   OH230463   5.885   3.685   8.813 -0.3904 -1.0225 -0.1215
 2943TIP3    H130464   5.941   3.762   8.822 -0.2255 -0.9685 -1.3613
 2943TIP3    H230465   5.796   3.721   8.807 -0.3625 -0.9607 -0.1695
 2944TIP3   OH230466   3.056   6.033   0.455 -0.6321 -0.0795  0.7582
 2944TIP3    H130467   3.087   5.989   0.534 -0.5430 -1.2331  0.1017
 2944TIP3    H230468   3.031   5.962   0.396  0.4130  0.7213 -0.7102
 2945TIP3   OH230469   3.534   4.201   6.767  0.3072  0.0289 -1.0469
 2945TIP3    H130470   3.565   4.173   6.853  0.8799  2.5719 -0.3466
 2945TIP3    H230471   3.441   4.177   6.766  0.7135 -1.7165 -0.5158
 2946TIP3   OH230472   3.449   1.517   1.637  0.1498  0.1471  0.5295
 2946TIP3    H130473   3.375   1.542   1.582  0.4253 -0.3524 -0.0800
 2946TIP3    H230474   3.525   1.555   1.594  0.2706  0.4896  1.0448
 2947TIP3   OH230475   5.210   6.265   7.957  0.4873 -0.1688  0.4022
 2947TIP3    H130476   5.152   6.206   8.004  0.3854 -0.2546  0.1703
 2947TIP3    H230477   5.255   6.314   8.025  0.6556 -0.5919  0.5982
 2948TIP3   OH230478   3.172   2.509   0.015  0.8177 -0.2036 -0.0319
 2948TIP3    H130479   3.088   2.488   0.055  1.0688  1.5978  1.5504
 2948TIP3    H230480   3.150   2.558  -0.064  0.3713 -2.1572 -1.2008
 2949TIP3   OH230481   5.917   3.721   2.319 -0.1944 -0.0670 -0.7659
 2949TIP3    H130482   5.904   3.656   2.388 -1.8438  0.1228 -0.8521
 2949TIP3    H230483   5.973   3.676   2.255 -0.7441 -1.1805 -0.5045
 2950TIP3   OH230484   6.769   2.664   8.549 -0.3650  0.0632  0.3221
 2950TIP3    H130485   6.733   2.660   8.637  0.5085  0.7123  0.7205
 2950TIP3    H230486   6.729   2.742   8.510 -0.7402 -0.2158  0.1431
 2951TIP3   OH230487   1.018   0.782   1.357 -0.6733  0.1496 -0.8832
 2951TIP3    H130488   1.102   0.736   1.352 -1.0721 -0.8024  0.5871
 2951TIP3    H230489   1.025   0.851   1.291  1.1825 -0.0389 -0.9437
 2952TIP3   OH230490   1.892   2.967   0.511 -0.7800  0.5673  0.1482
 2952TIP3    H130491   1.900   2.871   0.510 -0.2978  0.5450 -2.7940
 2952TIP3    H230492   1.799   2.983   0.523 -0.9429 -0.2732  0.0991
 2953TIP3   OH230493   5.013   6.716   0.163 -0.4080 -0.2709 -0.3307
 2953TIP3    H130494   5.006   6.620   0.161  1.4255 -0.4317 -0.7151
 2953TIP3    H230495   4.939   6.744   0.217 -2.3874 -1.7181 -2.1054
 2954TIP3   OH230496   4.608   6.445   8.100  0.3578 -0.0824 -0.9200
 2954TIP3    H130497   4.625   6.410   8.188 -0.0319  0.6701 -0.5439
 2954TIP3    H230498   4.619   6.369   8.043 -0.5800 -0.8631 -0.1061
 2955TIP3   OH230499   3.861   4.906   8.436 -0.3302 -0.1630 -0.5667
 2955TIP3    H130500   3.767   4.910   8.451 -0.6322 -0.1282 -2.2000
 2955TIP3    H230501   3.875   4.963   8.360  1.1414  0.5112  0.1665
 2956TIP3   OH230502   5.427   1.212   2.512 -0.1889  1.3067 -0.6483
 2956TIP3    H130503   5.505   1.156   2.516  0.5352  2.3583  0.6272
 2956TIP3    H230504   5.379   1.191   2.591 -0.6579  1.4458 -0.8964
 2957TIP3   OH230505   4.363   0.448   8.895  0.4128  0.0314 -0.0048
 2957TIP3    H130506   4.456   0.428   8.880  1.3117  0.9005  3.5119
 2957TIP3    H230507   4.337   0.388   8.965 -1.3243  0.6718 -0.0718
 2958TIP3   OH230508   3.581   5.233   2.630 -0.1804 -0.3430  0.6433
 2958TIP3    H130509   3.613   5.286   2.703 -0.0718  0.1329  0.2537
 2958TIP3    H230510   3.488   5.252   2.625  0.2022  1.3762 -0.7567
 2959TIP3   OH230511   3.013   5.458   7.472  0.0246 -0.0012  0.5595
 2959TIP3    H130512   2.971   5.543   7.457  0.9813  0.1861 -1.4853
 2959TIP3    H230513   2.947   5.405   7.516 -1.2228  1.2606  0.2611
 2960TIP3   OH230514   5.500   3.544   8.279 -0.1072 -0.4484 -0.1091
 2960TIP3    H130515   5.516   3.477   8.212 -0.7884 -1.3865  0.6509
 2960TIP3    H230516   5.587   3.579   8.299  0.2079 -0.8208 -0.8013
 2961TIP3   OH230517   0.946   2.048   8.894 -0.3847 -0.3215 -0.1337
 2961TIP3    H130518   0.890   1.982   8.855 -0.9094  0.3933 -0.6031
 2961TIP3    H230519   0.967   2.013   8.981  0.0637 -1.4983 -0.6936
 2962TIP3   OH230520   0.656   0.449   1.131  0.2398 -0.0308  0.4480
 2962TIP3    H130521   0.705   0.527   1.156 -0.1245 -0.0160  1.1350
 2962TIP3    H230522   0.566   0.466   1.159  0.2683 -0.9246  1.1404
 2963TIP3   OH230523   0.199   6.215   8.010 -0.1909  0.3701 -0.2304
 2963TIP3    H130524   0.238   6.153   8.072 -1.2385  0.2137  0.3057
 2963TIP3    H230525   0.161   6.159   7.942 -1.2975  0.3945  0.3491
 2964TIP3   OH230526   1.976   4.311   7.224  0.5840  0.3298  0.0593
 2964TIP3    H130527   1.880   4.307   7.222  0.5888 -0.5735  1.0032
 2964TIP3    H230528   1.996   4.397   7.186 -0.6678  1.1640  1.1508
 2965TIP3   OH230529   4.362   3.847   1.621  0.2293  0.2122  0.1514
 2965TIP3    H130530   4.428   3.846   1.690  0.6041 -0.3154 -0.2041
 2965TIP3    H230531   4.296   3.908   1.652  0.1243 -0.4115  1.2246
 2966TIP3   OH230532   2.328   5.812   2.672  0.1266 -0.7111 -0.3120
 2966TIP3    H130533   2.353   5.883   2.731  0.4510  0.8428 -2.2060
 2966TIP3    H230534   2.249   5.775   2.711 -0.7443  1.4849  0.1504
 2967TIP3   OH230535   4.593   4.784   7.839 -0.5585 -0.4991  0.0593
 2967TIP3    H130536   4.513   4.834   7.857 -0.4556 -0.8401  1.6086
 2967TIP3    H230537   4.579   4.700   7.883  0.2706 -0.9297 -0.4629
 2968TIP3   OH230538   5.474   1.833   2.396  0.3759  0.4108  0.5914
 2968TIP3    H130539   5.511   1.804   2.312  1.6154  1.5291  0.7219
 2968TIP3    H230540   5.550   1.859   2.447 -0.3621 -0.2859  2.1027
 2969TIP3   OH230541   5.580   0.252   7.486  0.0685 -0.0242  0.1138
 2969TIP3    H130542   5.668   0.214   7.487 -0.4981 -1.4315  1.6100
 2969TIP3    H230543   5.524   0.183   7.522 -1.1424  1.9661  2.3269
 2970TIP3   OH230544   0.282   4.304   8.032 -0.1736  0.3113 -0.3931
 2970TIP3    H130545   0.348   4.263   8.088  0.2989  1.9409  0.3195
 2970TIP3    H230546   0.264   4.239   7.964  0.9178 -0.8282  0.3575
 2971TIP3   OH230547   0.652   1.649   2.505 -0.2197 -0.9752 -0.4806
 2971TIP3    H130548   0.656   1.679   2.596  2.0561  0.0758 -0.8765
 2971TIP3    H230549   0.559   1.655   2.482 -0.9539 -1.8632  1.9283
 2972TIP3   OH230550   0.580   4.287   1.020 -0.2184  0.6172 -0.5427
 2972TIP3    H130551   0.621   4.221   1.076 -0.7313 -0.2593 -1.1786
 2972TIP3    H230552   0.641   4.297   0.947 -0.6680  0.0408 -0.9951
 2973TIP3   OH230553   1.845   1.023   8.410 -0.3088 -0.0338 -0.3515
 2973TIP3    H130554   1.865   1.091   8.475 -3.1312  1.4189 -0.8370
 2973TIP3    H230555   1.762   0.986   8.439 -0.6882 -0.6733 -2.1250
 2974TIP3   OH230556   3.464   6.681   1.883  0.6267  0.1104 -0.6434
 2974TIP3    H130557   3.507   6.612   1.833  1.0752  0.0364 -0.1674
 2974TIP3    H230558   3.523   6.698   1.956 -0.0907  0.0928 -0.0453
 2975TIP3   OH230559   0.494   0.497   1.529 -0.2121 -0.1142  0.0291
 2975TIP3    H130560   0.401   0.506   1.549 -0.2488 -0.7675  0.1835
 2975TIP3    H230561   0.537   0.560   1.586 -0.6394  0.9804 -0.8358
 2976TIP3   OH230562   1.072   3.358   1.002 -0.0852  0.0365 -0.1127
 2976TIP3    H130563   1.075   3.285   1.064 -0.6057  0.8320  0.8793
 2976TIP3    H230564   1.061   3.436   1.057  2.4828  1.1228 -0.9914
 2977TIP3   OH230565   2.710   1.464   8.526 -0.2252 -0.0331 -0.2930
 2977TIP3    H130566   2.757   1.386   8.555 -0.3065 -0.0042 -0.0805
 2977TIP3    H230567   2.661   1.435   8.449 -1.1903 -0.5044  0.4817
 2978TIP3   OH230568   3.243   5.291   1.481 -0.4992 -0.6359  0.2568
 2978TIP3    H130569   3.200   5.208   1.459 -1.5534 -0.0794  0.1192
 2978TIP3    H230570   3.174   5.344   1.520  0.6821 -0.5895  2.4250
 2979TIP3   OH230571   2.447   4.940   1.747 -0.1125 -0.4869  0.3564
 2979TIP3    H130572   2.523   4.951   1.690  1.0363  0.0649  1.9368
 2979TIP3    H230573   2.452   4.849   1.776 -1.8629 -1.4067 -1.9511
 2980TIP3   OH230574   5.088   2.547   0.411 -0.1331 -0.2482 -0.4643
 2980TIP3    H130575   5.005   2.559   0.457  0.2233 -0.4365  0.2431
 2980TIP3    H230576   5.114   2.636   0.385 -0.7489 -0.2342 -1.0419
 2981TIP3   OH230577   4.306   2.031   7.913 -0.0786  0.3409 -0.0027
 2981TIP3    H130578   4.309   1.946   7.956 -0.8876  0.7617  0.9214
 2981TIP3    H230579   4.397   2.059   7.909  0.5013 -1.5326 -2.3853
 2982TIP3   OH230580   1.269   0.570   0.022  0.1544  0.9608  0.6975
 2982TIP3    H130581   1.333   0.525   0.077  2.2180  1.6473 -0.9852
 2982TIP3    H230582   1.206   0.502  -0.003  1.6008 -0.3396  0.4793
 2983TIP3   OH230583   1.897   1.442   1.656  0.6968 -0.5319  0.4843
 2983TIP3    H130584   1.912   1.450   1.562 -0.4129  0.1672  0.3498
 2983TIP3    H230585   1.805   1.416   1.664  0.7694 -0.5540  1.3709
 2984TIP3   OH230586   6.709   2.128   2.343  0.0880  0.5576 -0.1794
 2984TIP3    H130587   6.660   2.099   2.266 -1.9036 -1.3226  1.6572
 2984TIP3    H230588   6.660   2.203   2.376  0.3798  0.7503 -0.1739
 2985TIP3   OH230589   3.637   1.332   0.771  0.0240  0.4702 -0.3299
 2985TIP3    H130590   3.691   1.390   0.824 -0.8875  1.0036  0.0480
 2985TIP3    H230591   3.691   1.255   0.756  0.7756  0.8720  0.2659
 2986TIP3   OH230592   3.921   0.235   1.117 -0.2918 -0.3489  0.7005
 2986TIP3    H130593   3.904   0.143   1.096  0.7019 -0.1928 -0.9142
 2986TIP3    H230594   3.837   0.279   1.099 -0.2554 -0.6711 -0.3455
 2987TIP3   OH230595   6.444   1.566   1.358  0.1545  0.5081 -0.1995
 2987TIP3    H130596   6.503   1.616   1.301  1.0581 -0.2882  0.0166
 2987TIP3    H230597   6.408   1.498   1.301  2.2643 -1.2812  0.4760
 2988TIP3   OH230598   0.439   4.606   1.184  0.1383  0.0284 -0.6227
 2988TIP3    H130599   0.402   4.694   1.193 -0.3477 -0.3207  1.0984
 2988TIP3    H230600   0.527   4.613   1.219  0.4399  0.0173 -1.3511
 2989TIP3   OH230601   4.198   2.357   7.375 -0.3162 -0.3255 -0.2616
 2989TIP3    H130602   4.265   2.291   7.391 -0.3762 -0.0855  1.1198
 2989TIP3    H230603   4.137   2.317   7.313 -1.1341 -2.1419  1.6101
 2990TIP3   OH230604   1.992   5.937   0.155 -0.4492  0.1490  0.6088
 2990TIP3    H130605   2.025   6.019   0.190 -1.1443 -0.1775  2.1373
 2990TIP3    H230606   2.010   5.873   0.224  0.2736 -1.0430 -0.6335
 2991TIP3   OH230607   3.005   0.847   0.328  0.0853  0.9517  0.0990
 2991TIP3    H130608   2.980   0.804   0.410 -0.0333  1.8260  0.5331
 2991TIP3    H230609   2.924   0.854   0.278  0.3749 -0.7371 -0.6659
 2992TIP3   OH230610   4.547   2.613   8.484 -0.2415 -0.3761 -0.7595
 2992TIP3    H130611   4.474   2.556   8.459 -1.6805  0.8682  0.4375
 2992TIP3    H230612   4.590   2.634   8.401 -1.7605 -0.4411 -1.6001
 2993TIP3   OH230613   5.225   6.747   8.500 -0.2405  0.2297  0.0504
 2993TIP3    H130614   5.302   6.761   8.556 -1.9787  2.2627  2.1716
 2993TIP3    H230615   5.174   6.680   8.545  0.7660 -2.0462 -2.0055
 2994TIP3   OH230616   4.704   1.773   0.927  0.2625  0.4799 -0.0817
 2994TIP3    H130617   4.731   1.855   0.969  0.6144  0.9684 -1.2123
 2994TIP3    H230618   4.785   1.735   0.894  0.1398 -0.5035  0.7101
 2995TIP3   OH230619   5.804   3.959   2.007 -0.4056 -0.2196  0.7300
 2995TIP3    H130620   5.712   3.937   2.023 -0.4673  0.2410  1.0222
 2995TIP3    H230621   5.822   3.924   1.920 -1.0479  0.2488  0.3998
 2996TIP3   OH230622   5.475   2.635   0.919  0.1001  0.1613 -0.1056
 2996TIP3    H130623   5.523   2.576   0.976 -0.1090  0.3202  0.2372
 2996TIP3    H230624   5.383   2.621   0.942  0.0726  0.8847  0.2337
 2997TIP3   OH230625   5.266   1.720   1.765  0.0441  0.3305  0.9389
 2997TIP3    H130626   5.239   1.810   1.783  1.6690  0.8152  1.1084
 2997TIP3    H230627   5.213   1.693   1.690 -1.6016  0.8537  1.8779
 2998TIP3   OH230628   2.812   2.334   2.089  0.1646 -0.4732  0.7030
 2998TIP3    H130629   2.722   2.300   2.091  0.7698 -2.2074  0.1455
 2998TIP3    H230630   2.817   2.383   2.007 -0.1309 -0.8130  0.4766
 2999TIP3   OH230631   0.274   6.640   0.609  0.1347 -0.4489 -0.4513
 2999TIP3    H130632   0.206   6.576   0.588 -0.3168 -0.7608  1.7030
 2999TIP3    H230633   0.352   6.587   0.626 -0.2057 -0.4796  1.2009
 3000TIP3   OH230634   3.810   3.612   2.654 -0.1610 -0.3243 -0.5318
 3000TIP3    H130635   3.865   3.685   2.625  0.0270 -0.0449  0.4810
 3000TIP3    H230636   3.721   3.639   2.636 -0.0444 -0.1644 -0.8630
 3001TIP3   OH230637   4.977   1.312   2.676  1.1659 -0.6254 -0.5706
 3001TIP3    H130638   4.950   1.361   2.754  0.0101 -1.6492 -0.3025
 3001TIP3    H230639   4.969   1.375   2.604  0.4862 -0.1827 -0.1183
 3002TIP3   OH230640   2.102   0.550   1.086 -0.4799  0.2917 -0.8047
 3002TIP3    H130641   2.178   0.523   1.137  1.2755  2.5048 -2.0874
 3002TIP3    H230642   2.066   0.469   1.051  1.9307 -0.7458 -1.0339
 3003TIP3   OH230643   6.561   3.679   8.633 -0.5349  0.0178 -0.4320
 3003TIP3    H130644   6.564   3.644   8.722 -0.9660 -0.5392 -0.6252
 3003TIP3    H230645   6.576   3.773   8.643  0.5011 -0.1910  0.1170
 3004TIP3   OH230646   0.930   2.326   0.793 -0.5452  0.2499  0.3883
 3004TIP3    H130647   1.013   2.324   0.745  0.7525 -0.3405  2.5237
 3004TIP3    H230648   0.887   2.244   0.770 -0.0758  0.1009  0.0304
 3005TIP3   OH230649   6.694   5.987   7.893  0.4638 -0.8514 -0.1680
 3005TIP3    H130650   6.690   5.976   7.798  0.1372 -0.9621 -0.1428
 3005TIP3    H230651   6.656   6.074   7.908 -0.0253 -1.0736 -0.0931
 3006TIP3   OH230652   6.030   5.755   7.415 -0.5321 -0.0654 -0.2083
 3006TIP3    H130653   6.061   5.796   7.334 -0.5795  1.2816  0.4190
 3006TIP3    H230654   6.065   5.666   7.413  0.0401  0.1756 -1.3739
 3007TIP3   OH230655   3.491   5.547   7.729 -0.5557 -0.2424  0.2657
 3007TIP3    H130656   3.563   5.488   7.708 -0.2954  0.9072 -2.3778
 3007TIP3    H230657   3.415   5.508   7.687 -0.7304  0.3864 -0.0126
 3008TIP3   OH230658   1.547   5.678   7.452 -0.6224  0.4318  0.1362
 3008TIP3    H130659   1.518   5.746   7.392 -1.1039  0.9257  0.9080
 3008TIP3    H230660   1.522   5.596   7.410 -0.6365  0.7589 -0.4928
 3009TIP3   OH230661   4.289   1.003   8.317 -0.2182 -0.3852  0.0239
 3009TIP3    H130662   4.248   1.080   8.278  1.2483  0.3869 -0.0845
 3009TIP3    H230663   4.344   0.967   8.247 -1.9054 -2.4066 -0.3939
 3010TIP3   OH230664   1.734   6.246   7.027  0.3340 -0.6846  0.6862
 3010TIP3    H130665   1.713   6.307   6.957  0.7909 -1.1100  0.1630
 3010TIP3    H230666   1.667   6.260   7.093 -0.0698 -0.2342  0.1840
 3011TIP3   OH230667   6.639   5.732   2.596 -0.2083  0.2263  0.1335
 3011TIP3    H130668   6.637   5.812   2.648 -0.0913 -0.2498  0.8772
 3011TIP3    H230669   6.593   5.667   2.649 -1.9303  0.2514 -1.2572
 3012TIP3   OH230670   1.015   4.296   8.108 -0.5208 -0.1963  0.1270
 3012TIP3    H130671   1.057   4.280   8.192  0.1619  0.0547 -0.1577
 3012TIP3    H230672   1.057   4.375   8.075 -0.1802 -0.7534 -0.8185
 3013TIP3   OH230673   0.849   6.697   0.422  0.0990 -0.7755  0.2746
 3013TIP3    H130674   0.835   6.605   0.403  0.1033 -0.2825 -2.4469
 3013TIP3    H230675   0.901   6.730   0.348 -0.9704  1.6744  0.5137
 3014TIP3   OH230676   1.147   2.104   8.437  0.1411  0.0649  0.1431
 3014TIP3    H130677   1.064   2.135   8.472  0.5110  1.4050 -0.1296
 3014TIP3    H230678   1.189   2.181   8.399  1.1112 -0.7561 -0.5432
 3015TIP3   OH230679   2.211   3.004   8.752  0.3623 -0.0214 -0.0521
 3015TIP3    H130680   2.233   2.933   8.691 -0.1732 -0.5619  0.3699
 3015TIP3    H230681   2.295   3.028   8.792  0.3909 -1.2794  0.7089
 3016TIP3   OH230682   0.399   1.582   2.418 -0.3613 -0.2297 -0.3651
 3016TIP3    H130683   0.379   1.504   2.468 -0.8317 -1.4216 -2.3075
 3016TIP3    H230684   0.342   1.650   2.454 -1.3276 -1.2728  0.1102
 3017TIP3   OH230685   0.159   5.719   0.684 -0.7714 -0.9570  0.0870
 3017TIP3    H130686   0.118   5.781   0.743 -0.2362 -1.1172  0.6374
 3017TIP3    H230687   0.225   5.770   0.637 -0.6020 -1.0180  0.2562
 3018TIP3   OH230688   6.181   1.036   8.273  0.1678  0.7200  0.4964
 3018TIP3    H130689   6.166   1.103   8.206 -0.9745  0.1663  0.1679
 3018TIP3    H230690   6.207   1.086   8.350  1.4422  1.3783 -0.3170
 3019TIP3   OH230691   5.863   0.270   7.440 -0.2239  0.0278 -0.0523
 3019TIP3    H130692   5.898   0.190   7.479 -1.1036 -0.4273 -0.1966
 3019TIP3    H230693   5.941   0.326   7.429  0.3569 -0.6871  0.2942
 3020TIP3   OH230694   3.155   1.800   0.614 -0.5331 -0.4009 -0.3774
 3020TIP3    H130695   3.116   1.792   0.702 -0.0180  1.8112  0.0977
 3020TIP3    H230696   3.089   1.847   0.563  0.6880  1.7946 -0.0481
 3021TIP3   OH230697   0.609   5.734   7.619 -0.0357  0.1641 -0.1575
 3021TIP3    H130698   0.607   5.807   7.557  0.3384  1.1014  0.9095
 3021TIP3    H230699   0.543   5.673   7.586 -1.9079  1.9369  0.0645
 3022TIP3   OH230700   3.079   1.885   1.201 -0.0258  0.0522  0.5624
 3022TIP3    H130701   3.145   1.829   1.160 -0.7402 -2.0154  2.0176
 3022TIP3    H230702   3.032   1.925   1.128  1.3269 -0.2776 -0.5216
 3023TIP3   OH230703   2.809   2.302   0.466  0.0724 -0.2944 -0.3426
 3023TIP3    H130704   2.843   2.315   0.377  2.2182  0.8882  0.5969
 3023TIP3    H230705   2.783   2.210   0.468 -1.7133  0.0390 -2.6974
 3024TIP3   OH230706   5.239   0.294   7.385 -0.1556  0.0733  0.4473
 3024TIP3    H130707   5.262   0.286   7.293 -0.1359 -0.8500  0.5209
 3024TIP3    H230708   5.312   0.253   7.431  0.0439  0.9188  0.8997
 3025TIP3   OH230709   3.423   5.681   0.673  0.1904 -0.6055  0.3016
 3025TIP3    H130710   3.410   5.673   0.768 -0.2469  0.1457  0.3148
 3025TIP3    H230711   3.518   5.690   0.663  0.2537 -0.8574  0.6516
 3026TIP3   OH230712   3.991   0.570   2.143 -0.8090  0.0331  0.5205
 3026TIP3    H130713   4.035   0.634   2.199 -0.9950 -0.5946  1.4041
 3026TIP3    H230714   3.898   0.584   2.161 -1.1025  1.9550 -1.9851
 3027TIP3   OH230715   3.972   3.611   0.363 -0.3025  0.2505 -0.1884
 3027TIP3    H130716   3.978   3.656   0.447 -0.1529 -0.7956  0.3805
 3027TIP3    H230717   3.897   3.651   0.320  0.4217  1.7363 -0.1552
 3028TIP3   OH230718   0.824   6.631   8.908 -0.2012  0.2649 -0.2058
 3028TIP3    H130719   0.886   6.592   8.847 -0.8561  0.7536 -1.2116
 3028TIP3    H230720   0.743   6.581   8.897  0.1163 -0.6898  1.4556
 3029TIP3   OH230721   1.533   1.784   1.096 -0.3030  0.8041  0.5240
 3029TIP3    H130722   1.559   1.842   1.167  1.1518  0.5346  0.2563
 3029TIP3    H230723   1.542   1.696   1.132 -0.3320  0.6912  0.2631
 3030TIP3   OH230724   1.702   4.200   0.828  0.1436 -0.0220  0.1799
 3030TIP3    H130725   1.781   4.244   0.796  0.5642  0.5143  1.8355
 3030TIP3    H230726   1.645   4.272   0.856  0.0069 -0.4422  1.0255
 3031TIP3   OH230727   3.407   1.626   7.520  0.9609  0.2450  0.0412
 3031TIP3    H130728   3.427   1.686   7.592  0.7813  0.1825  0.1418
 3031TIP3    H230729   3.315   1.643   7.499  0.3571 -1.2522  1.2641
 3032TIP3   OH230730   0.119   3.956   0.868  0.0835 -0.0850  0.6615
 3032TIP3    H130731   0.149   4.047   0.873  0.7020 -0.1991 -0.5703
 3032TIP3    H230732   0.107   3.939   0.774 -0.9802 -0.9810  0.9295
 3033TIP3   OH230733   2.857   4.622   0.513 -0.5339  0.0491  0.1792
 3033TIP3    H130734   2.887   4.645   0.425 -0.3663  0.8388  0.4334
 3033TIP3    H230735   2.876   4.529   0.522  1.0015  0.3222 -0.0046
 3034TIP3   OH230736   6.558   5.985   8.386  0.6340 -0.0893 -0.0053
 3034TIP3    H130737   6.615   5.953   8.455  0.6690  1.2101  0.6024
 3034TIP3    H230738   6.596   6.069   8.360 -0.4044  0.3070 -0.3114
 3035TIP3   OH230739   5.471   6.582   2.281  0.3394  0.2278  0.4542
 3035TIP3    H130740   5.499   6.593   2.372  0.8761  0.1860  0.3024
 3035TIP3    H230741   5.450   6.489   2.272  4.4291 -0.8050 -0.5294
 3036TIP3   OH230742   6.262   3.841   8.359 -0.0842  0.3479 -0.1409
 3036TIP3    H130743   6.336   3.893   8.390  0.0851  0.5119 -0.8131
 3036TIP3    H230744   6.185   3.892   8.383  0.0512  0.5490 -0.1295
 3037TIP3   OH230745   0.075   5.797   0.105  0.1129  0.6792  0.2357
 3037TIP3    H130746   0.015   5.869   0.089  0.0012  0.8643  1.3796
 3037TIP3    H230747   0.032   5.744   0.173  0.8506  0.3538  0.4626
 3038TIP3   OH230748   0.081   0.075   7.952  0.1514  0.3418  0.4145
 3038TIP3    H130749   0.125   0.008   7.900  0.1890 -0.4897  1.4853
 3038TIP3    H230750   0.148   0.107   8.012  0.2188  1.5814 -0.2691
 3039TIP3   OH230751   6.558   2.951   1.254  0.7343 -0.2835  0.3591
 3039TIP3    H130752   6.544   2.905   1.337 -0.8410 -0.4597  0.0318
 3039TIP3    H230753   6.588   2.883   1.194  0.1765 -0.5142  0.3394
 3040TIP3   OH230754   6.283   0.888   7.934  0.0234  0.1745  0.5785
 3040TIP3    H130755   6.306   0.979   7.953 -0.8753  0.4595  0.3962
 3040TIP3    H230756   6.215   0.866   7.998  1.3057 -0.8887  1.6126
 3041TIP3   OH230757   6.142   3.113   1.128 -0.0402 -0.2703  0.2161
 3041TIP3    H130758   6.121   3.201   1.160 -0.3641 -0.2045 -0.1594
 3041TIP3    H230759   6.229   3.121   1.089 -0.5693  0.1921 -0.9260
 3042TIP3   OH230760   5.452   3.340   0.595 -0.7195 -0.1740  0.3421
 3042TIP3    H130761   5.469   3.276   0.526  0.5518 -0.0450  0.5140
 3042TIP3    H230762   5.536   3.351   0.639 -1.1732  0.8191  0.9959
 3043TIP3   OH230763   5.840   6.325   1.043 -0.1286 -0.2966 -0.2760
 3043TIP3    H130764   5.868   6.416   1.050  1.5447 -0.8097  0.3763
 3043TIP3    H230765   5.802   6.305   1.129 -1.6248  0.1055 -0.8211
 3044TIP3   OH230766   5.192   1.007   7.911 -0.0320  0.1521  0.8638
 3044TIP3    H130767   5.184   1.060   7.832  0.2167  0.4059  1.0065
 3044TIP3    H230768   5.286   1.005   7.930 -0.0602 -0.1520  0.9875
 3045TIP3   OH230769   3.752   5.253   8.495  0.3706 -0.1582 -0.4362
 3045TIP3    H130770   3.796   5.327   8.537 -1.7279  1.9840 -1.7960
 3045TIP3    H230771   3.700   5.213   8.565 -0.0204  0.8946 -0.1089
 3046TIP3   OH230772   6.623   3.949   7.754  0.4949  0.7144 -0.6250
 3046TIP3    H130773   6.626   3.854   7.741  0.5159  0.4762  0.9563
 3046TIP3    H230774   6.710   3.979   7.729  0.7000  0.2264 -0.5062
 3047TIP3   OH230775   6.031   0.229   2.644 -0.6447 -0.1826  0.4267
 3047TIP3    H130776   5.964   0.163   2.661 -0.3086 -0.5246  0.4574
 3047TIP3    H230777   5.986   0.297   2.594 -0.4797 -1.5634 -1.7730
 3048TIP3   OH230778   1.422   3.706   0.308 -0.2739  0.2220 -0.2472
 3048TIP3    H130779   1.471   3.710   0.390 -2.6710 -1.2138  1.3774
 3048TIP3    H230780   1.407   3.797   0.284  0.8585  0.6660  0.6590
 3049TIP3   OH230781   2.016   6.790   7.038  0.0935  0.5092  0.0415
 3049TIP3    H130782   1.922   6.805   7.029  0.1196  1.0827  0.6552
 3049TIP3    H230783   2.039   6.832   7.121  0.4639 -1.6685  1.1142
 3050TIP3   OH230784   6.375   2.516   1.089  0.5562  0.0227  0.0554
 3050TIP3    H130785   6.470   2.504   1.083  0.5690  0.5091 -0.7749
 3050TIP3    H230786   6.339   2.454   1.026  0.3872  0.7942 -0.6125
 3051TIP3   OH230787   6.440   3.983   1.736 -0.1920 -0.4846 -0.0183
 3051TIP3    H130788   6.510   4.023   1.685  0.5844 -1.1085  0.5298
 3051TIP3    H230789   6.365   4.041   1.724  1.0787  1.5349  1.3180
 3052TIP3   OH230790   4.228   0.026   8.908  0.0150  0.4406  0.0835
 3052TIP3    H130791   4.289  -0.048   8.902  0.1997  0.5748  0.3228
 3052TIP3    H230792   4.185   0.014   8.993 -0.2279  0.3993 -0.0423
 3053TIP3   OH230793   2.369   1.602   0.919  0.5880 -0.0994  0.3356
 3053TIP3    H130794   2.423   1.677   0.944 -1.0465  0.4135  2.6784
 3053TIP3    H230795   2.288   1.641   0.884  1.3980 -0.8523 -2.6951
 3054TIP3   OH230796   4.679   2.494   1.988  0.1660 -0.0437 -0.2459
 3054TIP3    H130797   4.774   2.493   1.993  0.2025  2.1844  0.1831
 3054TIP3    H230798   4.659   2.512   1.896  0.1649  0.0786 -0.2215
 3055TIP3   OH230799   4.840   2.896   3.016  0.2310  0.4873  0.1863
 3055TIP3    H130800   4.770   2.908   2.953  0.7309  0.2586 -0.4179
 3055TIP3    H230801   4.911   2.854   2.967  2.0333  3.4929 -0.0371
 3056TIP3   OH230802   2.653   5.559   1.619  0.5113  0.1268 -0.3923
 3056TIP3    H130803   2.689   5.471   1.621  0.8513  0.2722  0.5593
 3056TIP3    H230804   2.583   5.556   1.554 -0.4486 -1.2240  0.6599
 3057TIP3   OH230805   2.416   2.025   0.273  0.1123 -0.0176  0.1713
 3057TIP3    H130806   2.362   1.968   0.218 -2.0440  1.6534  0.4437
 3057TIP3    H230807   2.370   2.029   0.356  1.6458  0.0534  1.0493
 3058TIP3   OH230808   0.080   1.505   8.778 -0.3523 -0.4271  0.2744
 3058TIP3    H130809   0.083   1.598   8.754 -0.7479 -0.4426  0.1677
 3058TIP3    H230810   0.139   1.498   8.853  0.4877 -0.2806 -0.3523
 3059TIP3   OH230811   3.175   0.076   7.601  0.5157 -0.4004  0.6553
 3059TIP3    H130812   3.176  -0.020   7.593  0.1853 -0.4543  1.2542
 3059TIP3    H230813   3.082   0.099   7.606  0.4161  0.1907 -2.1467
 3060TIP3   OH230814   3.985   5.585   0.611  0.2428 -0.2368  0.1614
 3060TIP3    H130815   4.017   5.630   0.690  0.8872  0.5954 -0.5556
 3060TIP3    H230816   4.021   5.497   0.618 -0.0742 -0.3022  1.0240
 3061TIP3   OH230817   1.971   3.877   1.492  0.3120  0.0957  0.4541
 3061TIP3    H130818   1.875   3.879   1.501  0.3121 -0.8192  0.7411
 3061TIP3    H230819   2.000   3.957   1.535 -0.3151  0.3112  0.4953
 3062TIP3   OH230820   4.627   2.078   3.141  0.3026  0.0202 -0.8471
 3062TIP3    H130821   4.661   1.992   3.168 -0.6184 -0.3170 -0.7328
 3062TIP3    H230822   4.704   2.124   3.107  0.6437 -1.2153 -1.8401
 3063TIP3   OH230823   2.258   3.753   6.455 -0.5781  0.4509  0.4240
 3063TIP3    H130824   2.171   3.792   6.461 -0.7501  0.0393  0.6561
 3063TIP3    H230825   2.247   3.664   6.488  0.1109  0.6795  1.3167
 3064TIP3   OH230826   5.176   6.087   2.212 -0.1830  0.3993  0.1604
 3064TIP3    H130827   5.099   6.078   2.157 -0.2796 -0.5555  0.4258
 3064TIP3    H230828   5.196   5.998   2.240  0.3350  0.7690  1.0214
 3065TIP3   OH230829   4.444   0.921   8.107  0.1020 -0.1752  0.2796
 3065TIP3    H130830   4.442   0.892   8.016 -0.8519 -0.9596  0.5355
 3065TIP3    H230831   4.530   0.963   8.117  0.2936 -0.2501 -0.9166
 3066TIP3   OH230832   6.286   2.888   8.180  0.2084  0.4712  0.5917
 3066TIP3    H130833   6.267   2.819   8.243  3.9107 -0.5963  0.7760
 3066TIP3    H230834   6.350   2.944   8.224 -0.4106  2.2828 -0.6803
 3067TIP3   OH230835   2.971   3.867   2.226 -0.1183  0.2423  0.0058
 3067TIP3    H130836   2.879   3.892   2.237  0.1879  1.1344  0.6445
 3067TIP3    H230837   2.974   3.776   2.256 -1.0311 -0.2313 -1.2551
 3068TIP3   OH230838   4.684   4.797   1.159  0.1060  0.1970  0.4743
 3068TIP3    H130839   4.678   4.744   1.079  2.3685  2.0618 -1.0604
 3068TIP3    H230840   4.647   4.882   1.135  2.1014  1.2420  0.8807
 3069TIP3   OH230841   3.697   3.744   7.972 -0.7371  0.0772 -0.2864
 3069TIP3    H130842   3.637   3.674   7.945  1.3931 -1.7475 -0.5732
 3069TIP3    H230843   3.756   3.755   7.898 -0.6802  1.8699 -0.0327
 3070TIP3   OH230844   0.179   0.470   1.740  0.0660 -0.4626  0.0170
 3070TIP3    H130845   0.257   0.489   1.791  0.0452 -0.9970  0.2523
 3070TIP3    H230846   0.106   0.486   1.800  0.0444 -1.1499  0.1786
 3071TIP3   OH230847   0.528   1.683   8.185 -0.2373  0.1856 -0.1419
 3071TIP3    H130848   0.539   1.636   8.103  1.1527 -0.3614  0.3385
 3071TIP3    H230849   0.503   1.616   8.248 -1.7959  0.6782 -0.1824
 3072TIP3   OH230850   6.687   0.755   1.370  0.5136 -0.1453  0.5985
 3072TIP3    H130851   6.767   0.723   1.412 -0.0189 -1.5832  0.5877
 3072TIP3    H230852   6.620   0.747   1.439 -0.0474 -1.0516 -0.0282
 3073TIP3   OH230853   4.390   2.595   1.385  0.4390  0.3557 -0.8705
 3073TIP3    H130854   4.312   2.637   1.348 -0.0860 -0.3627 -0.6108
 3073TIP3    H230855   4.365   2.577   1.476  1.1101  0.5946 -0.6323
 3074TIP3   OH230856   3.197   0.280   7.853  0.4373 -0.3384  0.7338
 3074TIP3    H130857   3.267   0.215   7.858 -0.6483 -1.6800 -0.6815
 3074TIP3    H230858   3.201   0.313   7.763  0.8484  1.4794  1.3612
 3075TIP3   OH230859   6.639   5.532   0.679 -0.0737  0.0965  0.2213
 3075TIP3    H130860   6.579   5.585   0.731  0.5811  0.1476  0.9525
 3075TIP3    H230861   6.633   5.569   0.591 -1.9570 -0.6474 -0.0108
 3076TIP3   OH230862   4.336   1.925   8.893  0.1694 -0.5245 -0.1738
 3076TIP3    H130863   4.292   1.846   8.864 -1.5563  0.8143 -1.4128
 3076TIP3    H230864   4.282   1.959   8.964  0.9041 -0.4616  0.3666
 3077TIP3   OH230865   5.090   4.070   1.870  0.0259  0.2702  0.2280
 3077TIP3    H130866   5.139   4.000   1.914 -0.3628 -0.3993 -0.3721
 3077TIP3    H230867   5.133   4.080   1.785 -0.7644 -0.2312 -0.2496
 3078TIP3   OH230868   4.866   3.677   0.651 -0.0547 -0.3345 -0.4728
 3078TIP3    H130869   4.939   3.654   0.708 -0.0932  0.6975  0.0277
 3078TIP3    H230870   4.827   3.593   0.626  0.8794 -0.8625 -0.1943
 3079TIP3   OH230871   3.025   2.371   1.824  0.0854 -0.4002  0.8370
 3079TIP3    H130872   3.102   2.328   1.862 -0.5619 -2.3899  0.0027
 3079TIP3    H230873   3.058   2.409   1.742 -0.2505 -3.4742 -0.8614
 3080TIP3   OH230874   1.598   4.805   0.231  0.3883  0.0159  0.2660
 3080TIP3    H130875   1.647   4.881   0.198  0.0896  0.2121  0.2694
 3080TIP3    H230876   1.660   4.732   0.225  0.6787  0.2595  0.2617
 3081TIP3   OH230877   0.343   0.416   7.146  1.3338  0.1830 -0.2711
 3081TIP3    H130878   0.251   0.414   7.173  1.6853  0.1448  0.9790
 3081TIP3    H230879   0.361   0.508   7.128  0.7431  0.0451 -1.6864
 3082TIP3   OH230880   2.145   2.735   0.181 -0.0800  0.2803  0.3971
 3082TIP3    H130881   2.156   2.826   0.210 -0.3264  0.8419 -1.1584
 3082TIP3    H230882   2.166   2.682   0.258  0.4546  1.6452  1.2239
 3083TIP3   OH230883   0.894   6.787   7.992  0.4624  0.1957  0.1305
 3083TIP3    H130884   0.957   6.749   7.931  0.0019 -1.0142  0.3772
 3083TIP3    H230885   0.857   6.712   8.039 -0.0855  1.0011  1.0346
 3084TIP3   OH230886   1.085   0.904   7.254  0.0087 -0.3463 -0.5638
 3084TIP3    H130887   1.171   0.872   7.280 -0.3782 -1.0450 -0.1158
 3084TIP3    H230888   1.036   0.825   7.230  0.7107  0.2430 -4.7005
 3085TIP3   OH230889   6.472   4.542   7.220  0.0258 -0.5556 -0.0067
 3085TIP3    H130890   6.440   4.584   7.140  1.8286 -0.6604 -0.8321
 3085TIP3    H230891   6.551   4.591   7.242 -0.3048 -0.6981  1.5976
 3086TIP3   OH230892   4.006   4.496   8.897 -0.3122 -0.2498 -0.3872
 3086TIP3    H130893   4.078   4.473   8.956 -0.4916  0.2613  0.0404
 3086TIP3    H230894   3.929   4.453   8.935 -0.6244  0.9293  0.3423
 3087TIP3   OH230895   0.806   5.290   7.943  0.1313  0.6984  0.0515
 3087TIP3    H130896   0.773   5.372   7.980 -0.1996  0.3368  0.5678
 3087TIP3    H230897   0.729   5.233   7.938  0.9198 -0.8189  3.0311
 3088TIP3   OH230898   3.484   5.326   1.361 -0.0250  0.8622 -1.0998
 3088TIP3    H130899   3.440   5.308   1.279  0.2844  1.0612 -1.3130
 3088TIP3    H230900   3.414   5.327   1.427 -0.0807 -0.9577 -1.0852
 3089TIP3   OH230901   5.102   0.066   7.159 -0.3801  0.1963 -0.3297
 3089TIP3    H130902   5.167   0.033   7.097  0.3770 -0.9776  1.0483
 3089TIP3    H230903   5.019   0.056   7.114 -0.0136 -2.1134 -0.6078
 3090TIP3   OH230904   0.576   4.220   8.026 -0.0671  0.5119  0.1591
 3090TIP3    H130905   0.519   4.147   8.052 -1.0294  1.4797  0.8826
 3090TIP3    H230906   0.657   4.205   8.073 -0.3908  0.0941  0.5944
 3091TIP3   OH230907   0.568   4.296   0.122 -0.4502 -0.1164 -0.5048
 3091TIP3    H130908   0.527   4.342   0.048  0.1759  2.2253  0.5068
 3091TIP3    H230909   0.661   4.313   0.112 -0.4489  1.6304  1.5829
 3092TIP3   OH230910   1.453   2.439   0.423  0.0324 -0.0225 -0.3379
 3092TIP3    H130911   1.388   2.414   0.488 -0.1801  1.7600  0.1905
 3092TIP3    H230912   1.468   2.359   0.372 -1.1919 -0.9530  0.6911
 3093TIP3   OH230913   6.201   0.548   1.815 -0.2341 -0.8754 -0.0508
 3093TIP3    H130914   6.156   0.465   1.795 -0.0888 -0.8704 -0.4066
 3093TIP3    H230915   6.285   0.541   1.769 -0.3487 -0.3995 -0.3403
 3094TIP3   OH230916   4.454   3.476   0.862  0.2012  0.0339  0.1066
 3094TIP3    H130917   4.547   3.462   0.876 -0.2559 -1.2360  2.3294
 3094TIP3    H230918   4.424   3.399   0.814  0.2801  0.4416 -0.6082
 3095TIP3   OH230919   2.415   5.886   1.964  0.2437  0.1746  0.2714
 3095TIP3    H130920   2.361   5.821   1.918 -0.0515 -0.2675  1.2269
 3095TIP3    H230921   2.418   5.960   1.904 -1.8583  0.4084  0.3951
 3096TIP3   OH230922   2.533   5.501   7.853  0.6796  0.7935  0.0932
 3096TIP3    H130923   2.599   5.435   7.875  1.3957  1.4576 -0.0508
 3096TIP3    H230924   2.503   5.535   7.937  1.0989  1.0534  0.1401
 3097TIP3   OH230925   4.726   3.992   2.438 -0.2167  0.2836  0.3231
 3097TIP3    H130926   4.808   4.034   2.463 -0.0296 -0.3294  0.7623
 3097TIP3    H230927   4.670   4.064   2.409  0.7931  0.6211 -0.9061
 3098TIP3   OH230928   1.220   6.419   6.942 -0.0447 -0.0199  0.2061
 3098TIP3    H130929   1.271   6.352   6.988 -0.0966  0.2070  0.6060
 3098TIP3    H230930   1.225   6.394   6.850  1.1580  0.2495  0.1858
 3099TIP3   OH230931   2.822   3.407   8.728  0.0238  0.0593 -0.2556
 3099TIP3    H130932   2.854   3.457   8.803  0.8193 -0.7099 -0.0664
 3099TIP3    H230933   2.765   3.468   8.681 -0.6299  0.4931  1.0635
 3100TIP3   OH230934   2.251   0.020   1.304 -0.4800 -0.2749 -0.1082
 3100TIP3    H130935   2.189   0.079   1.260  0.0671 -0.5690 -1.3203
 3100TIP3    H230936   2.216  -0.067   1.289 -0.3150 -0.3758  0.0895
 3101TIP3   OH230937   1.497   3.249   1.759 -0.1508  0.1037 -0.1737
 3101TIP3    H130938   1.409   3.239   1.795 -0.3829  0.2729 -0.6881
 3101TIP3    H230939   1.517   3.342   1.768 -0.5195  0.2910 -1.1738
 3102TIP3   OH230940   2.078   3.379   0.646  0.6262 -0.1376 -0.2879
 3102TIP3    H130941   2.046   3.320   0.714 -0.2531 -0.9850 -1.4074
 3102TIP3    H230942   2.086   3.324   0.568 -3.1082  1.6629 -2.2340
 3103TIP3   OH230943   3.008   6.342   8.193  0.1560 -0.2169  0.3811
 3103TIP3    H130944   3.059   6.391   8.256  0.2301  0.2718 -0.0558
 3103TIP3    H230945   2.975   6.407   8.131 -1.3048 -0.4611  0.8485
 3104TIP3   OH230946   1.374   1.054   7.544  0.3823  1.4382  0.3572
 3104TIP3    H130947   1.341   1.132   7.589  2.0377  1.3137  1.8898
 3104TIP3    H230948   1.336   0.981   7.593  1.4882  1.3050  1.0548
 3105TIP3   OH230949   3.286   2.760   8.836  0.6143 -0.2883 -0.2127
 3105TIP3    H130950   3.309   2.742   8.927  2.6878  0.6942 -0.4849
 3105TIP3    H230951   3.222   2.831   8.840  0.6530 -0.2876  0.4824
 3106TIP3   OH230952   2.159   2.273   0.116 -0.4675 -0.0917 -0.5140
 3106TIP3    H130953   2.107   2.350   0.093 -0.6395 -0.1708 -0.3929
 3106TIP3    H230954   2.095   2.211   0.152 -0.1178  0.2676  0.7906
 3107TIP3   OH230955   1.060   4.622   2.070  0.0053 -0.4227  0.1877
 3107TIP3    H130956   0.989   4.568   2.036 -0.2752  0.7666 -1.2130
 3107TIP3    H230957   1.023   4.710   2.078  0.9424 -0.0520  0.7056
 3108TIP3   OH230958   6.582   5.014   2.381  0.1546 -0.2509  0.4994
 3108TIP3    H130959   6.646   5.085   2.390  2.2992 -2.0465  0.2929
 3108TIP3    H230960   6.543   5.006   2.468 -0.1602  1.1530  0.5194
 3109TIP3   OH230961   1.464   5.755   7.932 -0.1228 -0.1553 -0.1461
 3109TIP3    H130962   1.508   5.840   7.935  2.8875 -1.5370 -0.8709
 3109TIP3    H230963   1.529   5.696   7.894 -1.8607 -2.9275  0.8594
 3110TIP3   OH230964   0.271   0.878   0.050  0.4046 -0.1142 -0.9316
 3110TIP3    H130965   0.280   0.814  -0.021  2.1112 -0.6917 -0.2445
 3110TIP3    H230966   0.324   0.842   0.121 -0.9490  0.6571  0.5154
 3111TIP3   OH230967   2.859   1.681   0.560 -0.6268  0.4024  0.0191
 3111TIP3    H130968   2.845   1.701   0.652  1.3171 -1.1048  0.7269
 3111TIP3    H230969   2.804   1.743   0.512 -3.9461 -0.6434  2.1801
 3112TIP3   OH230970   1.186   1.838   8.277 -0.0302  0.3451 -0.6123
 3112TIP3    H130971   1.160   1.911   8.333 -1.4672 -0.5698 -0.0318
 3112TIP3    H230972   1.106   1.815   8.229  0.2422 -1.1966 -0.3653
 3113TIP3   OH230973   3.028   0.014   0.708 -0.4528 -0.1153  0.7974
 3113TIP3    H130974   3.088   0.054   0.771 -0.2201  0.5444  0.1722
 3113TIP3    H230975   2.977   0.087   0.674  0.1550 -0.3009 -0.5551
 3114TIP3   OH230976   3.285   5.239   1.820 -0.7032  0.3807  0.5003
 3114TIP3    H130977   3.206   5.203   1.779 -0.8758 -0.2515  1.3624
 3114TIP3    H230978   3.354   5.178   1.796 -0.4955  0.8520 -0.1261
 3115TIP3   OH230979   4.890   2.023   1.596  0.1597 -0.0162  0.2183
 3115TIP3    H130980   4.908   2.088   1.664 -0.6605 -0.4589  0.8681
 3115TIP3    H230981   4.952   2.045   1.526 -0.6186  1.9398  0.0897
 3116TIP3   OH230982   2.685   5.569   8.451  0.6758 -0.0019  0.2656
 3116TIP3    H130983   2.608   5.605   8.406  0.3291 -0.4380  0.4959
 3116TIP3    H230984   2.744   5.544   8.381  1.8078  2.7881  0.0884
 3117TIP3   OH230985   0.995   2.315   1.239  0.0688  0.0076  0.2924
 3117TIP3    H130986   0.937   2.360   1.301 -0.3377  1.2256 -0.9029
 3117TIP3    H230987   1.037   2.246   1.290 -3.0789 -1.5286  1.0622
 3118TIP3   OH230988   3.573   4.100   0.989 -0.6527  0.3255 -0.0023
 3118TIP3    H130989   3.575   4.098   0.894  2.3039  0.9574 -0.0368
 3118TIP3    H230990   3.589   4.009   1.016 -3.1313 -0.1844 -0.0072
 3119TIP3   OH230991   0.925   6.339   0.186  0.6236 -0.3389  0.4756
 3119TIP3    H130992   0.996   6.401   0.203 -0.5830  1.3935 -0.4752
 3119TIP3    H230993   0.846   6.387   0.210 -0.3735 -1.3606 -0.6615
 3120TIP3   OH230994   3.868   2.453   8.773 -0.3477 -0.1649  0.2739
 3120TIP3    H130995   3.953   2.468   8.814 -0.5299 -0.1781  0.6531
 3120TIP3    H230996   3.889   2.404   8.693  0.2904  2.1745 -1.1081
 3121TIP3   OH230997   3.006   3.755   1.961  0.2631 -0.1997  0.0443
 3121TIP3    H130998   2.945   3.740   2.034  0.0883 -1.2730 -0.2967
 3121TIP3    H230999   3.009   3.850   1.950  1.3105  0.1093  2.3270
 3122TIP3   OH231000   4.639   4.681   2.337 -0.4761 -0.1839  0.3917
 3122TIP3    H131001   4.646   4.725   2.422  1.3827 -0.1057  0.2432
 3122TIP3    H231002   4.651   4.588   2.356 -0.2976 -0.1925  0.2425
 3123TIP3   OH231003   2.301   3.850   1.477 -0.5588  0.2141  0.8795
 3123TIP3    H131004   2.358   3.920   1.508 -0.8286  0.1475  1.5401
 3123TIP3    H231005   2.332   3.831   1.388 -1.0588  1.7864  0.3427
 3124TIP3   OH231006   4.295   0.157   2.587  0.1117 -0.4679  0.2707
 3124TIP3    H131007   4.365   0.210   2.625 -1.5972  1.8218  0.4856
 3124TIP3    H231008   4.297   0.075   2.636  1.6103  0.1706  1.3363
 3125TIP3   OH231009   6.763   1.354   7.240  0.2936 -0.3144  0.2032
 3125TIP3    H131010   6.797   1.436   7.274  2.4052 -0.6763 -0.8650
 3125TIP3    H231011   6.810   1.286   7.288  0.7792 -0.8479 -0.9866
 3126TIP3   OH231012   4.535   1.203   0.679 -0.3766  0.0839  0.0135
 3126TIP3    H131013   4.583   1.207   0.762 -0.1680  1.7077 -0.1489
 3126TIP3    H231014   4.503   1.113   0.674 -0.3094 -0.0738  1.8121
 3127TIP3   OH231015   1.115   5.042   7.439  0.3666 -0.0756  0.5445
 3127TIP3    H131016   1.206   5.015   7.435  0.9620  1.9582 -1.5313
 3127TIP3    H231017   1.075   5.006   7.359 -0.0959  0.8590  0.3444
 3128TIP3   OH231018   3.192   3.998   1.119 -0.3859 -0.4503 -0.3260
 3128TIP3    H131019   3.271   4.014   1.171 -0.3852  0.6947 -0.6583
 3128TIP3    H231020   3.224   3.953   1.041  0.1186  1.0002 -0.9869
 3129TIP3   OH231021   4.138   1.745   2.516 -0.0887  0.3547 -0.3465
 3129TIP3    H131022   4.147   1.654   2.486  0.5707  0.0514  0.7178
 3129TIP3    H231023   4.043   1.757   2.527 -0.3634  0.4520 -2.3596
 3130TIP3   OH231024   4.881   1.313   1.251  0.1720 -0.7626  0.0022
 3130TIP3    H131025   4.826   1.285   1.324  1.0732  0.5531  1.2475
 3130TIP3    H231026   4.863   1.406   1.242  1.4367 -0.5223 -0.2230
 3131TIP3   OH231027   3.756   6.293   8.661  0.6202 -0.1153  0.1780
 3131TIP3    H131028   3.816   6.224   8.691  0.8905  0.1881  0.3354
 3131TIP3    H231029   3.671   6.248   8.653  0.7022 -0.3699  0.6923
 3132TIP3   OH231030   5.966   4.833   7.148 -0.3291  0.0316 -0.4473
 3132TIP3    H131031   5.999   4.811   7.061 -2.1355 -0.7337 -0.9786
 3132TIP3    H231032   6.041   4.818   7.206  0.9900  0.8226 -1.8698
 3133TIP3   OH231033   0.993   4.035   2.287 -0.3586  0.1040  0.0301
 3133TIP3    H131034   0.994   4.074   2.374 -0.7607  0.8256 -0.2816
 3133TIP3    H231035   0.988   3.941   2.303  2.0616  0.0499  0.8155
 3134TIP3   OH231036   3.535   1.555   0.601 -0.1417  0.2276  0.2463
 3134TIP3    H131037   3.567   1.483   0.654  3.8481  0.3935 -1.6009
 3134TIP3    H231038   3.487   1.513   0.529  0.5052 -0.4875  0.2212
 3135TIP3   OH231039   3.697   3.625   7.709 -0.0546  0.1327  0.3589
 3135TIP3    H131040   3.662   3.701   7.665 -1.3320 -0.1648  0.8343
 3135TIP3    H231041   3.653   3.550   7.668 -1.1893 -0.1531  2.0058
 3136TIP3   OH231042   1.960   1.034   2.866  0.3879 -0.7091 -0.3595
 3136TIP3    H131043   2.032   1.024   2.928 -1.2667 -0.4375  1.7003
 3136TIP3    H231044   1.968   1.124   2.834  0.3188 -0.3065  0.7267
 3137TIP3   OH231045   5.367   3.775   8.156 -0.2342 -0.9905 -0.3861
 3137TIP3    H131046   5.425   3.742   8.224 -1.2457 -0.4229  0.7797
 3137TIP3    H231047   5.279   3.758   8.189 -0.7575  0.3313 -1.0397
 3138TIP3   OH231048   2.721   3.099   7.909 -0.1256 -0.3840 -0.7659
 3138TIP3    H131049   2.802   3.088   7.859 -0.9333  0.4359 -2.3632
 3138TIP3    H231050   2.696   3.190   7.893 -2.2183 -1.0682 -1.7345
 3139TIP3   OH231051   5.185   6.576   7.992 -1.0286 -0.2876  0.4047
 3139TIP3    H131052   5.228   6.517   8.055  2.4291 -1.2442 -2.5499
 3139TIP3    H231053   5.137   6.517   7.934  1.7112 -0.3237 -2.0202
 3140TIP3   OH231054   5.046   4.558   1.901  0.2989  0.2999 -0.2687
 3140TIP3    H131055   5.026   4.538   1.810  0.0024 -1.8304  0.1996
 3140TIP3    H231056   5.129   4.512   1.917  0.1195  0.2756  0.6365
 3141TIP3   OH231057   6.550   4.790   1.279 -0.0791  0.0046 -0.3386
 3141TIP3    H131058   6.603   4.718   1.314  0.3074  0.7199  0.5908
 3141TIP3    H231059   6.511   4.754   1.199  1.0011 -0.8630 -0.5009
 3142TIP3   OH231060   5.190   2.185   2.971  0.3539  0.1663  0.9035
 3142TIP3    H131061   5.256   2.246   3.006  0.3264 -0.1101  1.4541
 3142TIP3    H231062   5.223   2.099   2.996  0.2465 -0.0288  0.3729
 3143TIP3   OH231063   5.280   2.312   1.942  0.0826  0.0884  0.1519
 3143TIP3    H131064   5.370   2.345   1.952  0.0599  0.7051 -1.3776
 3143TIP3    H231065   5.230   2.389   1.914 -0.4769 -0.6966 -1.0809
 3144TIP3   OH231066   1.506   4.267   2.728 -0.2248  0.3088  0.4574
 3144TIP3    H131067   1.449   4.254   2.652 -1.7547 -1.9751  1.8650
 3144TIP3    H231068   1.587   4.223   2.705 -0.9538 -1.0497  0.3825
 3145TIP3   OH231069   6.546   1.424   0.293  0.1261 -0.6679  0.2314
 3145TIP3    H131070   6.614   1.376   0.340  0.7956  1.7261  1.8384
 3145TIP3    H231071   6.581   1.436   0.205  0.5931 -1.7460  0.2566
 3146TIP3   OH231072   5.492   5.290   7.897  0.1138 -0.3671 -0.5730
 3146TIP3    H131073   5.551   5.358   7.930 -2.2200  0.8099  1.4638
 3146TIP3    H231074   5.483   5.229   7.969  0.6228 -1.8309 -1.7010
 3147TIP3   OH231075   6.395   1.077   0.083 -0.0339 -0.1259 -0.1594
 3147TIP3    H131076   6.441   1.127   0.015  0.7680  0.0615  0.5133
 3147TIP3    H231077   6.465   1.037   0.135 -0.6493 -1.4261 -0.2872
 3148TIP3   OH231078   2.075   5.717   2.083  0.5288 -0.9717 -0.1987
 3148TIP3    H131079   2.151   5.771   2.061  0.6876 -1.2075 -0.2257
 3148TIP3    H231080   2.076   5.646   2.019 -1.2428  0.4658 -1.9440
 3149TIP3   OH231081   0.587   3.001   1.298  0.9201  0.1440 -0.7581
 3149TIP3    H131082   0.545   3.073   1.251 -1.6202 -0.3766  0.5381
 3149TIP3    H231083   0.586   2.928   1.236 -0.2928  0.1098 -0.7265
 3150TIP3   OH231084   3.642   6.544   7.287 -0.0130  0.2794 -0.4404
 3150TIP3    H131085   3.572   6.480   7.277 -0.1011  0.2344  0.3884
 3150TIP3    H231086   3.657   6.578   7.198 -0.1448 -0.6903 -0.8406
 3151TIP3   OH231087   1.654   5.379   0.623  0.5212  0.4502  0.6436
 3151TIP3    H131088   1.740   5.397   0.585  0.0281 -1.6103 -1.6618
 3151TIP3    H231089   1.593   5.388   0.551 -0.6792 -2.0742  1.2309
 3152TIP3   OH231090   0.896   2.961   1.780 -0.0803  0.0268  0.3160
 3152TIP3    H131091   0.873   3.027   1.714  0.7382  0.0404  0.0231
 3152TIP3    H231092   0.851   2.882   1.752  0.2194  0.0462 -0.2505
 3153TIP3   OH231093   0.939   1.374   8.167  0.0970 -0.3671  0.2599
 3153TIP3    H131094   0.938   1.311   8.095 -2.7158 -0.9283  0.6843
 3153TIP3    H231095   1.024   1.418   8.160  0.6942 -1.7719 -2.1689
 3154TIP3   OH231096   0.493   4.820   7.288  0.3889 -0.0171 -0.2244
 3154TIP3    H131097   0.575   4.787   7.253  0.7812  0.3964  0.2991
 3154TIP3    H231098   0.492   4.913   7.266 -0.0046 -0.0475 -0.3524
 3155TIP3   OH231099   2.514   3.492   2.125 -0.0475 -0.5050 -0.2089
 3155TIP3    H131100   2.550   3.405   2.141  0.1735 -0.2834  0.5463
 3155TIP3    H231101   2.424   3.487   2.160 -0.5891 -0.8911 -1.5884
 3156TIP3   OH231102   6.361   6.069   7.048  0.2287 -0.4344  0.3622
 3156TIP3    H131103   6.373   6.113   7.133  3.3414  2.5793 -1.4017
 3156TIP3    H231104   6.339   6.140   6.988 -1.0611 -2.3614 -1.5898
 3157TIP3   OH231105   4.018   0.531   0.679  0.0213  0.4025  0.2152
 3157TIP3    H131106   4.077   0.456   0.671  0.3910  0.8832 -2.3859
 3157TIP3    H231107   3.948   0.501   0.736  0.5921 -1.6163 -0.0907
 3158TIP3   OH231108   2.904   0.176   7.599 -0.5430  0.5724  0.4884
 3158TIP3    H131109   2.815   0.189   7.567 -0.2486  1.5249  0.0130
 3158TIP3    H231110   2.900   0.198   7.692 -0.6368  1.4542  0.2851
 3159TIP3   OH231111   0.764   0.547   8.412 -0.0193 -0.2775 -0.5029
 3159TIP3    H131112   0.732   0.557   8.502  1.0451  2.3789 -0.3167
 3159TIP3    H231113   0.840   0.490   8.421  2.9384  3.4425  1.2443
 3160TIP3   OH231114   3.815   0.234   8.678  0.6375  0.1510  0.2111
 3160TIP3    H131115   3.871   0.209   8.752 -0.8976 -0.3413  1.2547
 3160TIP3    H231116   3.860   0.198   8.602  2.2742  0.6813  0.8751
 3161TIP3   OH231117   2.111   4.788   0.838  0.1402  0.2387 -0.2714
 3161TIP3    H131118   2.192   4.823   0.874  1.7566 -0.7721 -2.6691
 3161TIP3    H231119   2.101   4.702   0.879  0.0497  0.5153  0.2970
 3162TIP3   OH231120   1.077   4.796   8.119  0.1256  0.8745 -0.6024
 3162TIP3    H131121   1.100   4.883   8.152  0.3892 -0.1565  2.2365
 3162TIP3    H231122   0.985   4.784   8.145  0.0746  0.3075 -1.0196
 3163TIP3   OH231123   4.678   1.084   7.523 -0.0837  0.6681  0.6572
 3163TIP3    H131124   4.616   1.012   7.534  2.4515 -1.7343  0.2084
 3163TIP3    H231125   4.651   1.125   7.441 -0.7783 -0.6700  0.1760
 3164TIP3   OH231126   6.717   6.314   0.852 -0.0403 -0.6311 -0.8065
 3164TIP3    H131127   6.632   6.335   0.890  0.1217 -0.4934 -0.5175
 3164TIP3    H231128   6.743   6.233   0.894  0.5468 -0.0129  0.0417
 3165TIP3   OH231129   1.692   1.093   0.362 -0.1061 -0.3340 -0.7201
 3165TIP3    H131130   1.708   1.136   0.278  0.4333  0.1055 -0.4022
 3165TIP3    H231131   1.607   1.050   0.352  1.1668 -2.7398 -2.4984
 3166TIP3   OH231132   0.127   4.047   1.633  0.0945  0.5644  0.2532
 3166TIP3    H131133   0.210   4.082   1.603  0.7287 -0.5180  0.6940
 3166TIP3    H231134   0.104   4.103   1.708  1.7501 -0.6796  1.7831
 3167TIP3   OH231135   3.400   0.919   0.405  0.0497  0.0122 -0.0691
 3167TIP3    H131136   3.321   0.972   0.398 -0.1412 -0.3603 -0.9541
 3167TIP3    H231137   3.466   0.968   0.355 -0.0320 -0.3975 -0.5881
 3168TIP3   OH231138   3.160   1.511   0.053 -0.2242 -0.3712 -0.0654
 3168TIP3    H131139   3.246   1.472   0.040  0.5694  0.9082  1.1070
 3168TIP3    H231140   3.099   1.445   0.020  1.2441 -0.4649 -2.9020
 3169TIP3   OH231141   0.728   0.144   8.858  0.1616  0.0699 -0.1148
 3169TIP3    H131142   0.730   0.207   8.929 -0.4988  0.6632 -0.6166
 3169TIP3    H231143   0.757   0.062   8.898  2.6061  0.9987  0.2129
 3170TIP3   OH231144   6.693   6.041   7.160 -0.1332  0.5227  0.6518
 3170TIP3    H131145   6.766   6.098   7.184 -0.3575  0.9806  0.2540
 3170TIP3    H231146   6.661   6.077   7.077  0.2592 -0.6777 -0.0413
 3171TIP3   OH231147   1.253   5.185   0.079 -0.0198  0.1849  0.0977
 3171TIP3    H131148   1.309   5.258   0.105  0.9961 -1.4311  2.8454
 3171TIP3    H231149   1.175   5.194   0.133 -0.3654 -0.1755 -0.3316
 3172TIP3   OH231150   3.645   3.513   0.816  0.3018 -0.2274  0.0949
 3172TIP3    H131151   3.728   3.503   0.771  0.6672  0.0540  0.6961
 3172TIP3    H231152   3.668   3.515   0.909 -0.4854 -1.3860  0.3368
 3173TIP3   OH231153   4.838   0.206   0.462  0.4349 -0.0108  0.0140
 3173TIP3    H131154   4.858   0.298   0.482  0.6878  0.1271 -0.8226
 3173TIP3    H231155   4.918   0.159   0.485  0.2070 -0.0745  0.7167
 3174TIP3   OH231156   5.158   3.155   7.556  0.3082  0.2981 -0.4779
 3174TIP3    H131157   5.120   3.187   7.475  1.5475 -1.1502 -1.6833
 3174TIP3    H231158   5.252   3.160   7.542  0.5634  0.7270  1.1832
 3175TIP3   OH231159   2.351   3.577   0.086  0.2231 -0.0044 -0.2002
 3175TIP3    H131160   2.345   3.543   0.175 -0.2412  0.3344 -0.0968
 3175TIP3    H231161   2.277   3.637   0.078  0.3790  0.1249 -0.7477
 3176TIP3   OH231162   0.140   1.995   2.716  0.0066 -0.1308 -1.1127
 3176TIP3    H131163   0.088   1.951   2.649  1.0989 -1.6267 -1.0224
 3176TIP3    H231164   0.176   1.924   2.770  2.8202  0.7348 -1.6704
 3177TIP3   OH231165   6.260   0.570   0.873  0.2501 -0.6273  0.4804
 3177TIP3    H131166   6.212   0.591   0.953  0.6072  0.0309  0.5235
 3177TIP3    H231167   6.219   0.624   0.805  1.8429  1.0547  0.7919
 3178TIP3   OH231168   5.303   5.225   8.534 -0.1060 -0.5415 -0.3119
 3178TIP3    H131169   5.340   5.187   8.454 -0.0179  1.1534 -1.1346
 3178TIP3    H231170   5.280   5.150   8.589  1.5587 -1.7038 -1.1440
 3179TIP3   OH231171   5.626   2.184   7.598 -0.0383 -0.3569  0.7279
 3179TIP3    H131172   5.714   2.159   7.571 -1.0248 -1.6902 -1.5170
 3179TIP3    H231173   5.609   2.266   7.551 -0.2999 -0.5542  0.4774
 3180TIP3   OH231174   3.588   6.763   0.328 -0.0092  0.4173  0.2447
 3180TIP3    H131175   3.543   6.706   0.391  0.7294  1.0969  1.4275
 3180TIP3    H231176   3.654   6.707   0.288 -1.3052 -0.3619 -0.8905
 3181TIP3   OH231177   1.615   0.953   7.457  0.2511 -0.5603  0.0540
 3181TIP3    H131178   1.611   0.926   7.365 -0.3369  0.4458 -0.2295
 3181TIP3    H231179   1.530   0.992   7.475  0.7551  0.3063  0.6834
 3182TIP3   OH231180   0.006   3.385   0.646  0.7661  0.1195 -1.0597
 3182TIP3    H131181  -0.079   3.346   0.664  0.2898  0.3442 -2.6257
 3182TIP3    H231182   0.014   3.458   0.706  0.4491 -0.7020  0.0039
 3183TIP3   OH231183   4.272   0.518   0.994  0.2567  0.3764  0.4507
 3183TIP3    H131184   4.290   0.467   0.915 -0.3814  0.4806  0.2343
 3183TIP3    H231185   4.177   0.532   0.993 -0.3145 -2.4350  2.9801
 3184TIP3   OH231186   5.441   0.958   7.541  0.4351 -0.1171  0.0104
 3184TIP3    H131187   5.504   0.933   7.609  0.7085  0.5339  0.0041
 3184TIP3    H231188   5.444   1.054   7.540 -0.2201 -0.0981 -0.3089
 3185TIP3   OH231189   3.565   3.013   7.048  0.2423  0.2436 -0.0049
 3185TIP3    H131190   3.516   2.973   6.976 -0.9608  1.8807 -0.1477
 3185TIP3    H231191   3.547   3.107   7.040 -0.0363  0.4667  2.4872
 3186TIP3   OH231192   3.391   3.536   1.598 -0.0409 -0.6256  0.7573
 3186TIP3    H131193   3.352   3.475   1.536  0.1881  0.9731 -1.0333
 3186TIP3    H231194   3.436   3.480   1.661 -3.1854 -2.4437  1.5866
 3187TIP3   OH231195   6.435   2.834   0.657  0.1342 -0.3900  0.1996
 3187TIP3    H131196   6.502   2.868   0.716  1.4538 -2.0841 -0.2375
 3187TIP3    H231197   6.399   2.759   0.705 -0.0435 -0.6871 -0.3999
 3188TIP3   OH231198   6.069   5.748   8.385 -0.0047  0.1690 -0.5706
 3188TIP3    H131199   6.109   5.700   8.457 -0.1882  0.4200 -0.2968
 3188TIP3    H231200   6.107   5.836   8.390  0.1308  0.1299 -0.9020
 3189TIP3   OH231201   5.896   2.627   8.767 -0.1271 -0.1786  0.4977
 3189TIP3    H131202   5.954   2.687   8.813  0.1392  0.2606 -0.3859
 3189TIP3    H231203   5.868   2.675   8.690  1.2826 -1.6581 -1.0460
 3190TIP3   OH231204   0.405   1.494   2.135 -0.4951 -0.0563  0.0705
 3190TIP3    H131205   0.324   1.525   2.095 -0.4493  0.8137  0.6163
 3190TIP3    H231206   0.403   1.529   2.224  0.2417 -0.4491  0.2538
 3191TIP3   OH231207   3.556   4.026   7.697  0.4236 -0.0409 -0.5099
 3191TIP3    H131208   3.553   4.118   7.673  1.4558  0.0041 -0.5127
 3191TIP3    H231209   3.499   4.018   7.773 -0.7133  0.3410 -1.2961
 3192TIP3   OH231210   5.446   6.039   7.791  0.4108  0.4156  0.7178
 3192TIP3    H131211   5.353   6.022   7.775 -0.4696  2.5355  2.9615
 3192TIP3    H231212   5.455   6.033   7.886  2.7574 -0.3906  0.5073
 3193TIP3   OH231213   2.498   3.925   7.443 -0.1411  0.0372 -0.2347
 3193TIP3    H131214   2.537   3.922   7.530 -3.0977 -0.3025  1.2091
 3193TIP3    H231215   2.521   3.842   7.403  0.4445 -0.2169  0.6006
 3194TIP3   OH231216   3.963   4.921   8.717 -0.4965 -0.6319  0.3914
 3194TIP3    H131217   3.993   4.940   8.628  1.8058  0.2368  1.2712
 3194TIP3    H231218   3.945   5.007   8.755 -3.4245 -1.0669  0.2388
 3195TIP3   OH231219   0.752   0.184   1.903 -0.2578 -0.5762 -1.2709
 3195TIP3    H131220   0.797   0.229   1.974 -0.0602  1.0309 -2.3647
 3195TIP3    H231221   0.822   0.158   1.843 -0.5654 -0.2536 -1.7811
 3196TIP3   OH231222   6.473   5.677   0.899 -0.0537  0.1274 -0.7596
 3196TIP3    H131223   6.507   5.750   0.951  0.9902  0.7482 -2.2544
 3196TIP3    H231224   6.384   5.663   0.932  0.2283  1.1310  0.5047
 3197TIP3   OH231225   3.420   1.793   7.760 -0.0753 -0.0304  0.1780
 3197TIP3    H131226   3.431   1.749   7.845 -1.6439 -2.6132 -0.8474
 3197TIP3    H231227   3.347   1.853   7.773  0.1329  0.0869  0.8274
 3198TIP3   OH231228   5.924   1.731   0.317 -0.4517  0.1734  0.4907
 3198TIP3    H131229   5.888   1.692   0.397 -1.1799  0.5062  0.3302
 3198TIP3    H231230   6.014   1.698   0.313 -0.8299 -0.9470  0.7249
 3199TIP3   OH231231   0.334   4.613   1.855 -0.5224  0.7280 -0.2801
 3199TIP3    H131232   0.348   4.600   1.761  0.5669 -1.1185  0.0920
 3199TIP3    H231233   0.391   4.687   1.877 -1.1171  1.4659 -1.1216
 3200TIP3   OH231234   0.121   4.983   0.210  0.0342  0.7102  0.1147
 3200TIP3    H131235   0.058   4.931   0.260 -0.4048  0.6942 -0.4378
 3200TIP3    H231236   0.067   5.038   0.153  0.4129 -1.8041 -2.9732
 3201TIP3   OH231237   1.347   0.636   6.627 -0.2183 -0.3376 -0.3356
 3201TIP3    H131238   1.329   0.729   6.618  1.2480  0.1868  1.4772
 3201TIP3    H231239   1.437   0.626   6.595 -0.3179 -1.1215 -0.3972
 3202TIP3   OH231240   6.376   4.230   8.219 -0.2509  0.4882  0.1856
 3202TIP3    H131241   6.430   4.152   8.209 -0.6818  0.1739  0.3214
 3202TIP3    H231242   6.389   4.257   8.310  0.7741  1.2281 -0.1574
 3203TIP3   OH231243   1.996   6.384   2.135  0.0954  0.7615 -0.6411
 3203TIP3    H131244   2.071   6.376   2.076  2.0878 -0.7597  1.8573
 3203TIP3    H231245   2.027   6.444   2.203 -0.5607 -0.6099  0.9184
 3204TIP3   OH231246   5.029   4.815   8.683  0.7759 -0.2747  0.3669
 3204TIP3    H131247   4.972   4.742   8.708 -0.3841 -0.7815 -3.1928
 3204TIP3    H231248   5.109   4.773   8.651  0.9961  0.1692  0.3183
 3205TIP3   OH231249   2.963   4.754   7.829 -0.8383 -0.1087  0.0225
 3205TIP3    H131250   3.030   4.822   7.820 -1.3086  0.2507 -0.9269
 3205TIP3    H231251   2.936   4.735   7.739  0.3985 -2.6825  0.0917
 3206TIP3   OH231252   1.415   0.686   0.296  0.3041  0.1998  0.1662
 3206TIP3    H131253   1.449   0.769   0.263 -0.7332  0.1823 -1.0508
 3206TIP3    H231254   1.488   0.625   0.290  2.0424  1.6602  3.9731
 3207TIP3   OH231255   5.712   6.137   1.751 -0.2766  0.0204 -0.1528
 3207TIP3    H131256   5.675   6.206   1.696  0.8010 -1.2129 -2.5831
 3207TIP3    H231257   5.694   6.056   1.703  0.6396 -1.1665  1.3873
 3208TIP3   OH231258   1.807   0.054   0.091  0.0965 -0.1117 -0.0664
 3208TIP3    H131259   1.741   0.104   0.043 -0.9151 -1.0137  0.3373
 3208TIP3    H231260   1.845  -0.005   0.026  2.2096  1.9383 -0.8645
 3209TIP3   OH231261   6.479   5.519   1.157  0.6360 -0.2656 -0.6631
 3209TIP3    H131262   6.534   5.463   1.103 -1.4413 -0.7606 -2.3842
 3209TIP3    H231263   6.391   5.482   1.149 -0.2548  1.4174  0.6731
 3210TIP3   OH231264   0.091   0.289   2.512 -0.3589  0.5841  0.2742
 3210TIP3    H131265   0.014   0.321   2.560 -0.3188  0.8363  0.1699
 3210TIP3    H231266   0.159   0.353   2.530 -0.6300  1.2506 -0.9485
 3211TIP3   OH231267   2.351   6.324   7.389  0.1229 -0.3241 -0.5107
 3211TIP3    H131268   2.305   6.254   7.342 -1.6991  0.3162  0.2266
 3211TIP3    H231269   2.375   6.387   7.321  0.8029 -1.1250 -1.0338
 3212TIP3   OH231270   4.560   1.915   7.242 -0.1095 -0.4857  0.1335
 3212TIP3    H131271   4.500   1.975   7.197 -0.8441 -0.2329  1.3970
 3212TIP3    H231272   4.504   1.867   7.303  0.7022 -1.4868  0.1132
 3213TIP3   OH231273   5.832   0.014   0.081  0.0261 -0.2445  0.1855
 3213TIP3    H131274   5.869  -0.072   0.101 -0.7719 -0.5140  0.5446
 3213TIP3    H231275   5.815   0.011  -0.013 -1.8514 -1.2527  0.5008
 3214TIP3   OH231276   5.822   3.411   1.836 -0.2058  0.1163 -0.0723
 3214TIP3    H131277   5.764   3.462   1.891 -0.8229  1.4823 -1.8868
 3214TIP3    H231278   5.910   3.429   1.870 -0.7197 -1.6228  2.4115
 3215TIP3   OH231279   5.630   2.985   0.836 -0.2066 -0.3593 -0.1210
 3215TIP3    H131280   5.549   2.946   0.867  0.5394 -1.2578  0.7616
 3215TIP3    H231281   5.644   3.061   0.892 -0.2653 -0.3907 -0.0651
 3216TIP3   OH231282   0.346   2.547   3.023  0.1078 -0.0819 -0.1497
 3216TIP3    H131283   0.402   2.568   2.948 -0.1372  0.5000 -0.1779
 3216TIP3    H231284   0.388   2.472   3.065 -0.7210 -1.6133 -1.9107
 3217TIP3   OH231285   3.251   1.992   7.259 -0.3067 -0.2792  0.2370
 3217TIP3    H131286   3.343   1.976   7.239 -0.8130 -1.7627 -1.1333
 3217TIP3    H231287   3.203   1.945   7.190 -2.0715  2.1027 -0.2741
 3218TIP3   OH231288   5.314   1.566   8.277 -0.4953  0.7567 -0.2187
 3218TIP3    H131289   5.335   1.499   8.343 -0.7598  0.9330  0.0456
 3218TIP3    H231290   5.350   1.531   8.196 -0.1828  0.5274  0.0154
 3219TIP3   OH231291   1.304   6.646   8.158  0.0602 -0.6457  0.0997
 3219TIP3    H131292   1.394   6.616   8.172  0.3265 -0.4662 -1.1038
 3219TIP3    H231293   1.302   6.735   8.194  0.3828 -0.6240  0.0660
 3220TIP3   OH231294   2.443   1.202   0.591 -0.3057  0.2921  0.1579
 3220TIP3    H131295   2.471   1.113   0.615 -0.1870  0.1224 -0.5989
 3220TIP3    H231296   2.350   1.204   0.613  0.0735  0.5897  1.9015
 3221TIP3   OH231297   4.836   6.649   2.304 -0.4214 -0.2620  0.6034
 3221TIP3    H131298   4.877   6.670   2.220 -1.7770  1.8919  0.4160
 3221TIP3    H231299   4.894   6.583   2.343  1.5534  0.4687 -0.9285
 3222TIP3   OH231300   3.637   5.399   7.504 -0.2115 -0.0880 -0.1851
 3222TIP3    H131301   3.717   5.438   7.537 -0.6936  1.0701 -0.3536
 3222TIP3    H231302   3.647   5.400   7.409  0.4500 -1.8812 -0.1880
 3223TIP3   OH231303   1.625   6.271   2.179 -0.0039  0.2825  0.1995
 3223TIP3    H131304   1.605   6.232   2.093 -4.3212  0.5759  0.8183
 3223TIP3    H231305   1.689   6.339   2.160 -0.5324  0.1006 -2.7546
 3224TIP3   OH231306   3.370   5.795   0.014  0.2054  0.4684 -0.7297
 3224TIP3    H131307   3.314   5.758  -0.054 -1.7696 -0.4570  1.2781
 3224TIP3    H231308   3.357   5.889   0.007 -0.3467  0.3533 -1.3159
 3225TIP3   OH231309   1.628   5.045   1.288  0.3256  0.2881 -0.2628
 3225TIP3    H131310   1.631   5.139   1.270  2.3000  0.2623 -0.3130
 3225TIP3    H231311   1.627   5.038   1.383 -1.6858  0.3500 -0.2527
 3226TIP3   OH231312   0.884   0.053   2.344  0.2218 -0.0066  0.6037
 3226TIP3    H131313   0.846   0.099   2.419  0.7780  0.5353  0.5666
 3226TIP3    H231314   0.969   0.023   2.375 -0.2669 -1.3404  0.7357
 3227TIP3   OH231315   3.962   1.108   1.433 -0.0645  0.6339 -0.2214
 3227TIP3    H131316   3.978   1.136   1.343  0.5208  0.0416 -0.3110
 3227TIP3    H231317   4.010   1.170   1.487 -1.6754  1.9322 -0.2162
 3228TIP3   OH231318   2.438   1.908   8.538 -0.2380 -0.1295 -0.4723
 3228TIP3    H131319   2.363   1.953   8.498  1.5849  2.0171 -1.7070
 3228TIP3    H231320   2.461   1.840   8.475 -0.3832  0.0364 -0.7107
 3229TIP3   OH231321   5.004   5.632   2.800 -0.5026 -0.0556 -0.4540
 3229TIP3    H131322   4.969   5.558   2.850 -1.2488  1.2691  1.0771
 3229TIP3    H231323   5.041   5.690   2.867  2.2982 -0.1465 -1.7899
 3230TIP3   OH231324   3.549   4.967   2.697  0.1778  0.2524 -0.1130
 3230TIP3    H131325   3.573   5.047   2.649 -1.8270  0.3273 -1.0711
 3230TIP3    H231326   3.512   4.998   2.779  0.6354  0.2315  0.1081
 3231TIP3   OH231327   2.200   6.561   8.831 -0.0048  0.1641  0.2510
 3231TIP3    H131328   2.289   6.565   8.865 -0.2885  1.1131  0.9210
 3231TIP3    H231329   2.170   6.472   8.853  0.9276 -0.3319 -0.4130
 3232TIP3   OH231330   6.505   0.400   8.287  0.4173  0.1869 -0.7525
 3232TIP3    H131331   6.522   0.386   8.194 -0.6937 -1.6063 -0.7314
 3232TIP3    H231332   6.572   0.348   8.331 -0.5844 -1.0703 -0.6245
 3233TIP3   OH231333   4.273   3.379   8.759  0.7116  0.2430 -0.3892
 3233TIP3    H131334   4.219   3.403   8.684  1.6762  0.3066 -1.0709
 3233TIP3    H231335   4.351   3.338   8.721 -0.1607 -2.6193  0.6388
 3234TIP3   OH231336   4.940   3.128   1.983  0.0440  0.2863  0.2019
 3234TIP3    H131337   4.920   3.045   2.026  0.5771  0.1687  0.2308
 3234TIP3    H231338   4.928   3.195   2.051 -1.0638  0.3191  0.0014
 3235TIP3   OH231339   0.921   2.780   0.480 -0.1880  0.2665  0.0353
 3235TIP3    H131340   0.886   2.751   0.564 -0.1563 -0.3889 -0.1684
 3235TIP3    H231341   0.931   2.874   0.489 -0.4370  0.2364  0.6736
 3236TIP3   OH231342   1.944   5.684   6.627  0.1084 -0.2848 -1.1399
 3236TIP3    H131343   2.022   5.711   6.675 -1.3746  0.6157  0.9176
 3236TIP3    H231344   1.876   5.744   6.656 -1.0969 -0.1287 -3.9207
 3237TIP3   OH231345   1.832   0.352   6.496  0.0026  0.1322  0.5349
 3237TIP3    H131346   1.925   0.371   6.512  0.1274  0.5406 -0.5936
 3237TIP3    H231347   1.787   0.387   6.572  0.5498  2.0799  0.0071
 3238TIP3   OH231348   3.148   6.519   2.420  0.3901 -0.2520 -0.3489
 3238TIP3    H131349   3.207   6.456   2.462  0.8808  0.2724 -0.2426
 3238TIP3    H231350   3.137   6.589   2.484  0.4444  0.1316 -0.7487
 3239TIP3   OH231351   2.205   5.054   8.612 -0.3064 -0.4398 -0.5715
 3239TIP3    H131352   2.257   5.114   8.558 -1.7691  1.1045 -0.3518
 3239TIP3    H231353   2.191   5.101   8.694 -0.1783 -1.7500  0.2387
 3240TIP3   OH231354   2.674   0.085   8.082 -0.4278  0.0564  0.4760
 3240TIP3    H131355   2.762   0.114   8.107  0.0187 -0.5691 -0.3242
 3240TIP3    H231356   2.642   0.153   8.024 -0.7586  0.6275  1.3073
 3241TIP3   OH231357   0.964   2.802   8.887 -0.4927  0.2117  0.6451
 3241TIP3    H131358   1.001   2.891   8.886 -0.6328  0.2701  0.6228
 3241TIP3    H231359   0.870   2.815   8.875 -0.8060  0.2068  2.7598
 3242TIP3   OH231360   1.017   1.097   7.442 -0.1721  0.4371  0.1510
 3242TIP3    H131361   1.010   1.166   7.376  0.1713  0.6536  0.3333
 3242TIP3    H231362   1.042   1.019   7.393 -0.3512  0.4915 -0.0295
 3243TIP3   OH231363   4.765   4.783   2.919 -0.3041  0.3008  0.0275
 3243TIP3    H131364   4.825   4.828   2.978  0.6178  2.1570 -2.1508
 3243TIP3    H231365   4.810   4.701   2.898 -0.4228 -0.1473  1.4699
 3244TIP3   OH231366   3.581   4.820   7.187  0.1727 -0.7268  0.3944
 3244TIP3    H131367   3.613   4.907   7.163  0.4134 -0.9056  0.0625
 3244TIP3    H231368   3.501   4.809   7.135 -0.1777 -0.4688  0.8750
 3245TIP3   OH231369   1.774   1.028   2.567  0.2069 -0.1448  0.0659
 3245TIP3    H131370   1.858   1.074   2.572  0.0085  0.2495 -0.1542
 3245TIP3    H231371   1.778   0.980   2.485  0.7513 -1.1988  0.7020
 3246TIP3   OH231372   1.900   3.994   0.018  0.0393  0.1051 -0.4177
 3246TIP3    H131373   1.968   3.954   0.072 -0.7702  0.5002  0.9163
 3246TIP3    H231374   1.839   3.923  -0.001 -0.7798  0.4134  0.9695
 3247TIP3   OH231375   2.317   2.626   8.879 -0.6890  0.2061 -0.2337
 3247TIP3    H131376   2.409   2.652   8.880 -0.7823  0.9029  2.9414
 3247TIP3    H231377   2.278   2.675   8.952 -4.1438  1.6519 -2.7344
 3248TIP3   OH231378   2.882   4.316   1.862  0.3917  0.1126  0.5638
 3248TIP3    H131379   2.839   4.277   1.938  1.9368 -0.4880  1.1609
 3248TIP3    H231380   2.812   4.325   1.797 -0.4189 -1.8819  1.0929
 3249TIP3   OH231381   2.402   0.938   7.635  0.4270  0.3329  0.2669
 3249TIP3    H131382   2.359   0.948   7.721  0.5155 -2.8181  0.7922
 3249TIP3    H231383   2.332   0.953   7.572  0.0814  1.4860  0.8811
 3250TIP3   OH231384   5.107   3.029   2.715  0.2328 -0.2575 -0.2475
 3250TIP3    H131385   5.176   2.990   2.768  1.1217 -2.7343 -2.9293
 3250TIP3    H231386   5.033   2.970   2.725 -0.2938  0.4175 -0.1231
 3251TIP3   OH231387   0.865   6.075   0.330 -0.2392 -0.7156  0.4567
 3251TIP3    H131388   0.828   6.104   0.414 -1.0652 -1.0513  0.2228
 3251TIP3    H231389   0.908   6.153   0.295 -3.3665  0.6832 -0.6790
 3252TIP3   OH231390   3.981   1.238   1.751 -0.0709  0.5920 -0.1716
 3252TIP3    H131391   3.981   1.314   1.808 -0.2901 -0.8454  1.8577
 3252TIP3    H231392   4.050   1.255   1.687  2.3930  0.9520  2.4071
 3253TIP3   OH231393   4.693   3.006   0.942 -0.1230  0.1742  0.2904
 3253TIP3    H131394   4.616   3.009   0.998 -0.9795  2.1161 -0.9238
 3253TIP3    H231395   4.732   3.093   0.949  1.2749 -0.3804 -0.1138
 3254TIP3   OH231396   4.603   2.130   1.852 -0.2493  0.2140  0.0754
 3254TIP3    H131397   4.526   2.154   1.904 -1.4791  0.2788 -1.6882
 3254TIP3    H231398   4.577   2.049   1.808 -0.2635  1.4563 -2.3688
 3255TIP3   OH231399   2.039   4.474   1.794  0.2583  0.0140  0.1721
 3255TIP3    H131400   1.950   4.502   1.776 -0.2607 -1.7080 -0.1116
 3255TIP3    H231401   2.093   4.550   1.775 -1.1464  1.0903  0.3776
 3256TIP3   OH231402   6.603   1.095   0.266 -0.3474  0.6410 -0.0736
 3256TIP3    H131403   6.668   1.095   0.196 -0.8613  1.0154 -0.5554
 3256TIP3    H231404   6.638   1.033   0.331  1.1026  1.7861  0.2728
 3257TIP3   OH231405   0.327   0.176   8.552 -0.0548  0.6752 -0.1742
 3257TIP3    H131406   0.266   0.103   8.542  0.7071  0.1220 -0.9680
 3257TIP3    H231407   0.370   0.184   8.467 -0.2628  2.1965 -0.1604
 3258TIP3   OH231408   4.555   5.904   1.129  0.6087  0.6350 -0.0087
 3258TIP3    H131409   4.483   5.946   1.176  1.2559  2.5062 -0.5548
 3258TIP3    H231410   4.529   5.907   1.037  0.4710 -0.6358 -0.0243
 3259TIP3   OH231411   4.666   1.481   7.935  0.3666  0.1178 -0.0948
 3259TIP3    H131412   4.693   1.422   7.865 -2.7966 -0.3961 -1.0724
 3259TIP3    H231413   4.634   1.559   7.890  0.4126  0.7406  0.9143
 3260TIP3   OH231414   3.108   4.549   8.733 -0.1073 -0.3664  0.0607
 3260TIP3    H131415   3.062   4.473   8.769 -0.6344 -0.1244 -0.0869
 3260TIP3    H231416   3.068   4.624   8.776 -0.9698 -0.0533 -1.2351
 3261TIP3   OH231417   0.983   6.762   2.067 -0.0294 -0.5743 -0.6189
 3261TIP3    H131418   0.950   6.819   2.136  0.3292 -0.5245 -0.4850
 3261TIP3    H231419   1.047   6.706   2.111 -1.7963 -2.4488 -0.3299
 3262TIP3   OH231420   6.348   3.280   8.814  0.2987  0.1013 -0.4016
 3262TIP3    H131421   6.275   3.340   8.802  1.3189  1.3452 -0.5873
 3262TIP3    H231422   6.377   3.260   8.725 -0.4683 -1.2550 -0.3720
 3263TIP3   OH231423   1.015   0.919   0.592  0.1962 -0.5033  0.1267
 3263TIP3    H131424   1.098   0.883   0.559  0.2083 -1.4996  1.1699
 3263TIP3    H231425   1.028   0.923   0.687 -0.1533  1.4510  0.1326
 3264TIP3   OH231426   3.185   0.228   1.508 -0.7918  0.2901  0.0410
 3264TIP3    H131427   3.108   0.248   1.560  0.1557 -0.5296  1.8641
 3264TIP3    H231428   3.151   0.193   1.426 -2.3343  0.8178  0.4290
 3265TIP3   OH231429   3.526   0.194   1.231 -0.1436 -0.5915  0.1900
 3265TIP3    H131430   3.562   0.258   1.170 -0.1661 -0.7549  0.0036
 3265TIP3    H231431   3.600   0.167   1.285 -0.2916  0.1566  0.7759
 3266TIP3   OH231432   1.129   1.526   7.982  0.1905 -0.8039  0.4227
 3266TIP3    H131433   1.167   1.534   8.069  0.1925 -1.6693  0.5072
 3266TIP3    H231434   1.172   1.450   7.943 -1.5245 -1.9006  0.5677
 3267TIP3   OH231435   3.951   3.997   1.538 -0.0970 -0.0848 -0.4623
 3267TIP3    H131436   3.997   4.065   1.489 -0.3730  0.1472 -0.4015
 3267TIP3    H231437   3.973   4.013   1.629 -0.1235 -0.1099 -0.4514
 3268TIP3   OH231438   0.175   2.836   1.014  0.1288 -0.4319 -0.5257
 3268TIP3    H131439   0.121   2.912   1.036 -0.7361 -0.9540 -0.8255
 3268TIP3    H231440   0.116   2.775   0.971  1.1772 -0.6187 -1.7591
 3269TIP3   OH231441   5.061   1.188   1.836  0.0241 -0.3291 -0.2335
 3269TIP3    H131442   5.133   1.150   1.785 -1.2213 -1.3147 -1.3500
 3269TIP3    H231443   5.096   1.270   1.871  2.4090 -1.8136  1.1295
 3270TIP3   OH231444   5.584   4.880   8.754  0.3724  0.4815  0.3474
 3270TIP3    H131445   5.581   4.964   8.800 -2.5894  0.3136  0.6825
 3270TIP3    H231446   5.527   4.892   8.678  0.5121 -1.0068 -0.0332
 3271TIP3   OH231447   1.506   5.520   7.763 -0.4722 -0.2879  0.5355
 3271TIP3    H131448   1.419   5.482   7.757 -0.3939 -0.4560  0.4677
 3271TIP3    H231449   1.548   5.497   7.680  0.0932 -1.3456  1.0968
 3272TIP3   OH231450   3.411   2.414   0.789 -0.6851 -0.2865  0.0604
 3272TIP3    H131451   3.430   2.508   0.785  0.4272 -0.4683  0.8149
 3272TIP3    H231452   3.334   2.408   0.845 -2.4211  0.3541 -2.0749
 3273TIP3   OH231453   5.909   1.026   1.161 -0.0359  0.3345  0.9712
 3273TIP3    H131454   5.914   1.011   1.255 -1.3894  0.8430  1.1491
 3273TIP3    H231455   5.829   0.979   1.134  1.4007 -1.5536 -0.3006
 3274TIP3   OH231456   4.718   1.481   8.252  0.0411 -0.0475 -0.1939
 3274TIP3    H131457   4.791   1.535   8.222  0.1537  0.7402  1.3899
 3274TIP3    H231458   4.713   1.409   8.189 -0.8634  2.3483 -3.1140
 3275TIP3   OH231459   3.828   1.527   1.773 -0.3476 -0.0837  0.3251
 3275TIP3    H131460   3.899   1.567   1.722 -0.7196  0.2181  0.0349
 3275TIP3    H231461   3.772   1.486   1.707  0.0874 -1.1911  0.6277
 3276TIP3   OH231462   2.826   2.087   2.308 -0.1386  0.2378 -0.1383
 3276TIP3    H131463   2.901   2.030   2.326 -0.5566 -0.0640  0.6978
 3276TIP3    H231464   2.826   2.098   2.213  2.3029  2.0681 -0.0333
 3277TIP3   OH231465   3.659   2.884   1.610  0.3460 -0.1750  0.2892
 3277TIP3    H131466   3.710   2.940   1.669 -0.3668 -0.4489  1.1967
 3277TIP3    H231467   3.715   2.808   1.595  1.0459  0.4739 -0.4107
 3278TIP3   OH231468   5.603   2.748   8.146 -0.6616  0.1151  0.0339
 3278TIP3    H131469   5.666   2.788   8.085 -0.6062  0.7488  0.4944
 3278TIP3    H231470   5.519   2.788   8.123 -0.7510 -0.1100 -0.0315
 3279TIP3   OH231471   2.740   1.443   8.857 -0.9319 -0.5227  0.4713
 3279TIP3    H131472   2.672   1.435   8.924  1.0153 -0.8657  2.5051
 3279TIP3    H231473   2.734   1.361   8.808 -1.8062 -0.6560  0.7809
 3280TIP3   OH231474   3.127   5.393   8.519 -0.2218 -0.3587 -0.7488
 3280TIP3    H131475   3.161   5.304   8.528  1.1817 -0.4030 -4.4469
 3280TIP3    H231476   3.036   5.382   8.493 -0.2449 -0.7050 -0.5220
 3281TIP3   OH231477   4.521   5.609   7.569  0.5585  0.2953  0.7049
 3281TIP3    H131478   4.439   5.576   7.532  1.3188 -1.2300  0.3090
 3281TIP3    H231479   4.578   5.623   7.494  1.8948 -2.2085  1.1748
 3282TIP3   OH231480   0.714   2.504   7.783  0.0290  0.5185  0.2983
 3282TIP3    H131481   0.715   2.489   7.877  0.3714 -1.7875 -0.0240
 3282TIP3    H231482   0.744   2.422   7.744 -0.3709  1.3003 -1.8482
 3283TIP3   OH231483   2.087   2.331   7.945  0.3567  0.4872 -0.2093
 3283TIP3    H131484   2.016   2.317   7.881  1.8477 -0.5097 -1.7370
 3283TIP3    H231485   2.068   2.417   7.982 -0.8626  0.8984 -1.6440
 3284TIP3   OH231486   6.265   0.058   7.358  0.2615  0.9023  0.3712
 3284TIP3    H131487   6.287   0.091   7.271  0.2811 -0.7946 -0.2970
 3284TIP3    H231488   6.348   0.061   7.406  0.4414  1.0409  0.0553
 3285TIP3   OH231489   4.952   5.664   0.814  0.2144 -0.2387 -0.6385
 3285TIP3    H131490   4.992   5.625   0.892  0.7431  0.5161 -0.5289
 3285TIP3    H231491   4.907   5.590   0.771 -0.3421 -0.6119  0.5332
 3286TIP3   OH231492   0.869   1.646   1.872 -0.3484 -0.3563  0.5713
 3286TIP3    H131493   0.794   1.686   1.916 -1.3103 -2.0840  0.5930
 3286TIP3    H231494   0.848   1.653   1.778  0.1608  0.4376  0.5106
 3287TIP3   OH231495   2.599   4.060   7.225 -0.3964 -0.0187 -0.2844
 3287TIP3    H131496   2.591   4.020   7.311 -2.3315  1.6771  0.4072
 3287TIP3    H231497   2.533   4.015   7.171  1.2029 -1.4799 -1.1149
 3288TIP3   OH231498   4.509   5.311   0.463  0.6146 -0.1460 -0.4324
 3288TIP3    H131499   4.438   5.323   0.401  0.7968 -0.2480 -0.6637
 3288TIP3    H231500   4.589   5.320   0.410  0.7793 -1.9361 -0.5809
 3289TIP3   OH231501   1.648   3.767   7.803  0.6129 -0.0102  0.1251
 3289TIP3    H131502   1.714   3.748   7.737 -0.9975 -1.1973 -1.2210
 3289TIP3    H231503   1.594   3.688   7.806 -1.1975  1.1957  0.6128
 3290TIP3   OH231504   3.930   0.111   8.287  0.3020 -0.2611 -0.0955
 3290TIP3    H131505   3.872   0.040   8.314 -1.1099  0.0467 -2.1149
 3290TIP3    H231506   4.005   0.067   8.246  0.0631 -0.6044 -0.1659
 3291TIP3   OH231507   0.180   1.244   0.321  0.1995  0.2321 -0.3495
 3291TIP3    H131508   0.226   1.211   0.243  0.7227  1.5546 -0.6312
 3291TIP3    H231509   0.249   1.259   0.385  0.1203  1.5863 -0.5408
 3292TIP3   OH231510   3.128   2.172   1.283  0.0791 -0.2354  0.7543
 3292TIP3    H131511   3.101   2.082   1.295 -2.4803  0.2388 -0.8009
 3292TIP3    H231512   3.112   2.214   1.368 -1.3090 -0.6696  0.7225
 3293TIP3   OH231513   1.749   6.057   8.480 -0.1624  0.9620  0.1483
 3293TIP3    H131514   1.818   6.100   8.531 -1.3371  0.4398  2.2856
 3293TIP3    H231515   1.768   5.963   8.489  0.8202  0.8782 -2.2082
 3294TIP3   OH231516   3.747   6.033   7.253 -0.0183 -0.8436 -0.2436
 3294TIP3    H131517   3.726   6.119   7.289  0.3247 -0.8047 -0.1341
 3294TIP3    H231518   3.819   6.002   7.306 -0.1009 -1.1734 -0.3246
 3295TIP3   OH231519   0.595   4.589   1.696 -0.2475  0.1317  0.0691
 3295TIP3    H131520   0.632   4.524   1.755  0.5497 -0.2575 -0.8318
 3295TIP3    H231521   0.656   4.662   1.699  0.2600 -0.2278 -0.8837
 3296TIP3   OH231522   1.429   1.837   8.425 -0.2593 -0.2293 -0.5642
 3296TIP3    H131523   1.423   1.742   8.437  2.3240 -0.7771 -2.6302
 3296TIP3    H231524   1.361   1.857   8.361 -1.5372 -0.4374  0.6684
 3297TIP3   OH231525   2.265   0.856   1.929 -0.1778  0.3889 -0.7164
 3297TIP3    H131526   2.192   0.801   1.956  1.1515 -1.1815 -0.1222
 3297TIP3    H231527   2.252   0.939   1.974 -0.3726 -0.6739  1.2558
 3298TIP3   OH231528   5.535   5.907   8.180 -0.3015 -0.0062  0.1807
 3298TIP3    H131529   5.467   5.852   8.142 -0.7727 -0.4473  1.6130
 3298TIP3    H231530   5.507   5.997   8.162 -0.2872 -0.1989 -0.8617
 3299TIP3   OH231531   0.342   1.284   0.581 -0.2685 -0.0979  0.2342
 3299TIP3    H131532   0.434   1.312   0.582  1.0719 -3.9781  1.8959
 3299TIP3    H231533   0.299   1.341   0.644  1.4187  0.5621  0.8393
 3300TIP3   OH231534   1.656   5.619   2.283 -0.1195  0.2448  0.0981
 3300TIP3    H131535   1.720   5.690   2.287  1.0789 -0.7270 -0.8154
 3300TIP3    H231536   1.576   5.660   2.250  0.4373  1.2439 -0.0567
 3301TIP3   OH231537   6.639   2.904   8.155 -0.0132  0.0581 -0.1029
 3301TIP3    H131538   6.733   2.890   8.142  0.0077 -0.9515  0.9730
 3301TIP3    H231539   6.599   2.877   8.072  0.6245  0.2636 -0.4821
 3302TIP3   OH231540   3.131   0.365   7.583 -0.2822 -0.4357  0.7262
 3302TIP3    H131541   3.036   0.374   7.584 -0.6256 -2.4220 -1.6361
 3302TIP3    H231542   3.146   0.273   7.559  2.1610  0.3900 -1.4286
 3303TIP3   OH231543   0.555   3.425   2.014  0.5721  0.0559 -0.6799
 3303TIP3    H131544   0.522   3.498   2.067 -0.4456 -0.3101 -0.7906
 3303TIP3    H231545   0.644   3.411   2.046  0.8867  1.5328 -0.8656
 3304TIP3   OH231546   4.136   4.752   1.618  0.6298  0.0863  0.3762
 3304TIP3    H131547   4.149   4.791   1.704  0.4793  0.3221  0.2918
 3304TIP3    H231548   4.121   4.659   1.636 -3.0376  0.6307  0.9416
 3305TIP3   OH231549   4.470   2.199   1.475  0.2707  0.5377  0.1430
 3305TIP3    H131550   4.459   2.205   1.380 -1.3371  0.5529  0.3056
 3305TIP3    H231551   4.563   2.181   1.487  0.6428  1.2684 -1.4006
 3306TIP3   OH231552   6.783   2.634   2.222  0.2303  0.3775  0.4711
 3306TIP3    H131553   6.857   2.659   2.277  0.3333 -1.7679  1.3932
 3306TIP3    H231554   6.822   2.595   2.144  0.0881  0.1035  0.5333
 3307TIP3   OH231555   0.081   6.408   7.405  0.6812  0.1154  0.0460
 3307TIP3    H131556  -0.006   6.419   7.366 -0.7917 -2.0121  2.4258
 3307TIP3    H231557   0.120   6.336   7.354 -0.3918 -1.2440  1.0764
 3308TIP3   OH231558   2.375   5.807   1.046 -0.0452  0.2384 -0.0311
 3308TIP3    H131559   2.351   5.898   1.028  0.1047 -0.2984 -3.4260
 3308TIP3    H231560   2.431   5.781   0.973  0.9730 -2.2417  1.4936
 3309TIP3   OH231561   1.416   6.308   0.989  0.2137 -0.1201 -0.0906
 3309TIP3    H131562   1.371   6.371   0.933  0.3485 -0.8270 -1.0072
 3309TIP3    H231563   1.345   6.262   1.034 -0.0172 -1.2969 -1.6031
 3310TIP3   OH231564   2.637   3.303   0.373  0.4460 -0.0112 -0.3250
 3310TIP3    H131565   2.722   3.317   0.330  0.9223 -1.6602  0.0070
 3310TIP3    H231566   2.654   3.322   0.465 -0.3173  2.5196 -0.6535
 3311TIP3   OH231567   6.751   0.239   2.262  0.0670 -0.3970 -0.2792
 3311TIP3    H131568   6.802   0.202   2.334 -0.8528 -2.0526 -0.4307
 3311TIP3    H231569   6.807   0.229   2.185  0.6600  0.4869  0.0215
 3312TIP3   OH231570   5.413   5.888   1.457  0.0729  0.0622  0.4874
 3312TIP3    H131571   5.330   5.902   1.502  0.4617 -0.3593  1.3638
 3312TIP3    H231572   5.476   5.873   1.527  0.9564  0.6865 -0.1542
 3313TIP3   OH231573   6.773   0.664   1.116 -0.0113 -0.2347  0.9193
 3313TIP3    H131574   6.723   0.639   1.039  0.7238  1.0920 -0.0266
 3313TIP3    H231575   6.715   0.724   1.163  0.1453  0.1898  0.5706
 3314TIP3   OH231576   3.319   3.792   2.559  0.2401 -0.2115  0.4743
 3314TIP3    H131577   3.309   3.740   2.479  0.5577  0.4478 -0.0081
 3314TIP3    H231578   3.229   3.811   2.586  0.1214 -0.8592  0.5666
 3315TIP3   OH231579   1.196   0.365   8.359 -0.0698 -0.3626  0.1552
 3315TIP3    H131580   1.224   0.356   8.268 -2.4120  0.1148 -0.6887
 3315TIP3    H231581   1.265   0.416   8.401  0.9210 -0.3484 -1.4310
 3316TIP3   OH231582   1.265   3.304   2.320 -0.6616 -0.4669 -0.4514
 3316TIP3    H131583   1.253   3.269   2.408 -0.5907 -1.2130 -0.7270
 3316TIP3    H231584   1.219   3.388   2.320 -0.0142 -0.0961  0.5232
 3317TIP3   OH231585   4.323   2.217   8.436  0.3324  0.6240  0.6802
 3317TIP3    H131586   4.236   2.191   8.466  1.2059 -1.0184  1.9407
 3317TIP3    H231587   4.381   2.200   8.510  1.6753  2.2667  0.0942
 3318TIP3   OH231588   4.512   0.600   7.305 -0.4258 -0.1207  0.1994
 3318TIP3    H131589   4.556   0.635   7.228  0.5610 -1.9881 -0.1445
 3318TIP3    H231590   4.517   0.505   7.295 -1.7725 -0.4073  1.7415
 3319TIP3   OH231591   3.786   0.844   0.624  0.6066 -0.2135 -0.1928
 3319TIP3    H131592   3.808   0.819   0.714 -1.9030 -0.4649  0.4180
 3319TIP3    H231593   3.837   0.923   0.609  2.7405 -1.3297  0.6324
 3320TIP3   OH231594   6.325   1.588   0.182 -0.2439 -0.0609 -0.3256
 3320TIP3    H131595   6.266   1.596   0.257  0.7319  1.0511  0.3408
 3320TIP3    H231596   6.398   1.536   0.215  0.0257  0.1381 -0.6098
 3321TIP3   OH231597   4.554   4.899   8.887  0.5942 -0.3595 -0.4380
 3321TIP3    H131598   4.474   4.851   8.861 -0.1264  1.0704 -0.9896
 3321TIP3    H231599   4.603   4.908   8.806 -0.7303  2.4065 -1.0716
 3322TIP3   OH231600   2.002   5.338   2.054 -0.3453 -0.0581 -0.4700
 3322TIP3    H131601   2.062   5.405   2.023  0.5398  0.1764  1.5836
 3322TIP3    H231602   1.915   5.378   2.046 -0.0080  0.5633 -1.1275
 3323TIP3   OH231603   2.740   1.188   1.877 -0.2036  0.5217  0.0617
 3323TIP3    H131604   2.701   1.187   1.790 -0.5072 -2.7106  0.1142
 3323TIP3    H231605   2.835   1.187   1.860 -0.1577  2.5018 -0.1111
 3324TIP3   OH231606   1.174   5.568   2.486 -0.0330 -0.1510 -0.4065
 3324TIP3    H131607   1.196   5.475   2.484  1.4259  0.0994  1.5847
 3324TIP3    H231608   1.085   5.570   2.523  0.0779 -0.7376 -0.0912
 3325TIP3   OH231609   1.376   1.961   1.864  0.0434 -0.4311  0.1620
 3325TIP3    H131610   1.451   1.981   1.808 -1.1640  0.4597 -1.1963
 3325TIP3    H231611   1.361   1.867   1.852  0.8211 -0.5784  0.3118
 3326TIP3   OH231612   2.171   0.177   0.460  0.4489 -0.1805 -0.5423
 3326TIP3    H131613   2.100   0.132   0.415  0.4886 -0.7091 -0.0943
 3326TIP3    H231614   2.244   0.115   0.459  0.4961 -0.1502  0.1062
 3327TIP3   OH231615   1.809   1.222   0.599  0.7627  0.3611  0.1675
 3327TIP3    H131616   1.900   1.244   0.580  0.2963  1.4016 -0.9572
 3327TIP3    H231617   1.773   1.194   0.515 -0.4160  1.7001  0.1864
 3328TIP3   OH231618   0.329   5.314   7.315 -0.5386  0.2725 -0.3534
 3328TIP3    H131619   0.344   5.399   7.272  0.7262  0.3560  0.1888
 3328TIP3    H231620   0.240   5.320   7.348 -0.4329  1.4568 -0.2106
 3329TIP3   OH231621   6.322   6.468   8.897 -0.0821  0.5062  0.2984
 3329TIP3    H131622   6.410   6.487   8.928 -0.5393 -0.1629  2.1406
 3329TIP3    H231623   6.326   6.376   8.870  0.1958  0.9574 -1.2528
 3330TIP3   OH231624   5.081   2.717   2.862 -0.5533 -0.1219 -0.5022
 3330TIP3    H131625   5.140   2.793   2.857  0.7004 -0.9956  0.4875
 3330TIP3    H231626   5.045   2.709   2.773 -0.4348  1.3984 -0.7158
 3331TIP3   OH231627   2.856   3.372   8.147  0.0382  0.4584 -0.1717
 3331TIP3    H131628   2.767   3.340   8.130 -0.0249  0.4126  0.2344
 3331TIP3    H231629   2.860   3.382   8.242  1.5381 -2.7365  0.2033
 3332TIP3   OH231630   5.823   2.143   1.863 -0.3309 -0.4930  0.3318
 3332TIP3    H131631   5.751   2.181   1.914  0.2328  3.4563 -1.4738
 3332TIP3    H231632   5.902   2.173   1.907  0.2086 -1.1372 -0.1717
 3333TIP3   OH231633   4.603   2.633   1.731  0.0161 -0.0977 -0.2101
 3333TIP3    H131634   4.644   2.553   1.700  3.1656  1.4288 -0.3139
 3333TIP3    H231635   4.655   2.704   1.694 -1.3773  1.9948  1.5265
 3334TIP3   OH231636   2.084   4.829   2.445  0.0648  0.0774  0.7850
 3334TIP3    H131637   2.166   4.872   2.469  0.0138  0.4497  0.3213
 3334TIP3    H231638   2.111   4.744   2.411  0.4017  0.7421 -0.7107
 3335TIP3   OH231639   2.976   5.625   8.104  0.4668  0.2325 -0.4857
 3335TIP3    H131640   2.961   5.655   8.014  1.0989 -0.3055 -0.7809
 3335TIP3    H231641   3.071   5.630   8.115  0.4951 -0.7238 -0.2124
 3336TIP3   OH231642   5.643   1.263   8.780  0.1441  0.2353  0.1230
 3336TIP3    H131643   5.728   1.299   8.753 -0.6168  2.2269  0.1918
 3336TIP3    H231644   5.600   1.336   8.826 -1.9565 -0.4319 -0.6764
 3337TIP3   OH231645   6.471   3.789   1.124  0.0425  0.2282 -0.3062
 3337TIP3    H131646   6.474   3.795   1.219 -0.8093 -0.8871 -0.1904
 3337TIP3    H231647   6.563   3.792   1.097  0.6258 -3.1188  0.8468
 3338TIP3   OH231648   4.151   5.268   0.129  0.1820 -0.0810 -0.9218
 3338TIP3    H131649   4.210   5.194   0.118  1.9257  1.0329  0.5139
 3338TIP3    H231650   4.191   5.322   0.197 -1.4143  1.8130 -1.3782
 3339TIP3   OH231651   4.947   1.983   0.935  0.1654 -0.8795 -0.0110
 3339TIP3    H131652   5.008   1.993   1.008  0.0178  1.3524 -0.1056
 3339TIP3    H231653   4.966   2.058   0.878 -1.7013 -0.9121 -0.7541
 3340TIP3   OH231654   5.437   4.302   2.118  0.4855 -0.4908  0.3781
 3340TIP3    H131655   5.459   4.315   2.211 -0.4367  0.8928  0.4384
 3340TIP3    H231656   5.516   4.329   2.071  0.4701  0.1926  0.7257
 3341TIP3   OH231657   6.351   2.211   0.326 -0.9391  0.3507 -0.4012
 3341TIP3    H131658   6.296   2.154   0.380  1.2356 -1.4617  0.0650
 3341TIP3    H231659   6.400   2.151   0.270  0.8830  1.7901 -0.4521
 3342TIP3   OH231660   6.098   0.326   1.291  0.7773 -0.1620  0.1974
 3342TIP3    H131661   6.190   0.329   1.263  0.8658  0.1073  0.5014
 3342TIP3    H231662   6.049   0.301   1.213  1.0500  0.2591 -0.1078
 3343TIP3   OH231663   4.510   5.413   7.760 -0.0580 -0.0889 -0.3707
 3343TIP3    H131664   4.416   5.402   7.751 -0.3638  2.1949 -0.4129
 3343TIP3    H231665   4.535   5.467   7.685  1.1059  0.1777  0.1866
 3344TIP3   OH231666   5.409   2.823   0.148  0.1953 -0.0509  0.0570
 3344TIP3    H131667   5.343   2.804   0.081 -1.3945  0.5006  1.3905
 3344TIP3    H231668   5.464   2.745   0.151 -0.3314 -0.4937 -1.1466
 3345TIP3   OH231669   1.127   3.181   1.208  0.0445  0.4393  0.3727
 3345TIP3    H131670   1.051   3.127   1.229  1.0395 -0.6974  1.2492
 3345TIP3    H231671   1.175   3.188   1.290  2.2875 -1.2182 -0.6743
 3346TIP3   OH231672   1.873   3.014   2.757  0.6359 -0.6253 -0.5147
 3346TIP3    H131673   1.797   3.071   2.754  1.1828  0.2570  1.2447
 3346TIP3    H231674   1.842   2.930   2.723 -0.7730  0.0650 -0.9957
 3347TIP3   OH231675   1.896   6.552   1.760  0.4196  0.0785 -0.3494
 3347TIP3    H131676   1.952   6.618   1.800 -0.5034  1.1691 -0.8054
 3347TIP3    H231677   1.885   6.581   1.669 -0.2519 -0.5327 -0.4798
 3348TIP3   OH231678   1.673   1.560   7.814 -0.5613  0.1584  0.0337
 3348TIP3    H131679   1.682   1.621   7.887  1.2125 -0.9053  0.7737
 3348TIP3    H231680   1.585   1.576   7.780 -0.2063  3.0471  0.2091
 3349TIP3   OH231681   6.421   6.253   0.851 -0.0508 -0.6527  0.1968
 3349TIP3    H131682   6.425   6.199   0.930  0.9597 -1.3272 -0.2935
 3349TIP3    H231683   6.430   6.342   0.882 -0.0858 -0.8841  0.8790
 3350TIP3   OH231684   1.987   2.998   8.581  0.5289 -0.0570 -0.1178
 3350TIP3    H131685   1.980   2.909   8.545  1.4326  1.0161 -3.2993
 3350TIP3    H231686   2.081   3.013   8.590  0.3589 -0.4436  3.5483
 3351TIP3   OH231687   3.083   1.245   6.675 -0.8539  0.4766 -0.1560
 3351TIP3    H131688   3.127   1.308   6.732 -1.3009  0.8110 -0.1725
 3351TIP3    H231689   3.020   1.200   6.732 -0.8219  0.3317 -0.2350
 3352TIP3   OH231690   5.041   5.587   0.546  0.2203  0.0079 -0.4165
 3352TIP3    H131691   5.133   5.609   0.533  0.2235  0.1730 -0.1355
 3352TIP3    H231692   5.018   5.628   0.629  0.3806 -1.5485  0.4353
 3353TIP3   OH231693   3.487   4.920   7.434 -0.4561  0.1433  0.0057
 3353TIP3    H131694   3.416   4.973   7.396 -1.0304 -0.4069  0.2822
 3353TIP3    H231695   3.523   4.871   7.360  0.3039  1.1552 -0.3121
 3354TIP3   OH231696   1.643   5.958   7.954 -0.2419 -0.3161 -0.1492
 3354TIP3    H131697   1.705   5.940   7.883 -0.5553  1.0581 -0.8110
 3354TIP3    H231698   1.695   5.955   8.034  0.4314 -0.3577 -0.5841
 3355TIP3   OH231699   6.204   1.137   3.277  0.2624  0.5728  0.2612
 3355TIP3    H131700   6.149   1.198   3.228  0.1665 -0.5923 -1.1414
 3355TIP3    H231701   6.289   1.140   3.234  0.4495  0.1994  0.5935
 3356TIP3   OH231702   2.080   6.259   1.376  0.1579  0.5562 -0.2010
 3356TIP3    H131703   2.135   6.181   1.362 -0.6130 -0.2791  1.2582
 3356TIP3    H231704   2.007   6.228   1.429  0.5993  2.5587  1.7412
 3357TIP3   OH231705   3.035   5.919   7.497 -0.7285  0.4657 -0.4528
 3357TIP3    H131706   2.980   5.984   7.452 -0.4999  0.2043 -1.1167
 3357TIP3    H231707   3.067   5.862   7.428  0.8018  0.9064 -0.1508
 3358TIP3   OH231708   2.271   2.598   0.384  0.6240 -0.6492  0.0526
 3358TIP3    H131709   2.253   2.570   0.473 -2.6384 -1.6125 -0.7879
 3358TIP3    H231710   2.320   2.526   0.345  0.2246 -1.1632  0.4936
 3359TIP3   OH231711   1.570   6.651   7.658  0.2126  0.1255  0.0008
 3359TIP3    H131712   1.484   6.693   7.658  0.3334  0.4638  1.9267
 3359TIP3    H231713   1.632   6.724   7.654  0.4128 -0.0441 -0.0009
 3360TIP3   OH231714   1.427   2.583   1.992  0.6654 -0.3307  0.1210
 3360TIP3    H131715   1.396   2.514   2.050 -0.4964  1.8852  2.3487
 3360TIP3    H231716   1.489   2.634   2.046 -1.7824  2.8612  0.2380
 3361TIP3   OH231717   5.637   6.603   0.354 -0.7460  0.3606 -0.3643
 3361TIP3    H131718   5.563   6.630   0.299 -0.2790 -1.7706 -2.1881
 3361TIP3    H231719   5.713   6.614   0.298  0.0884  0.6541  0.8106
 3362TIP3   OH231720   4.908   2.810   1.269 -0.1863  0.6086 -0.4394
 3362TIP3    H131721   4.882   2.900   1.248 -0.7559  0.0158 -2.5320
 3362TIP3    H231722   4.989   2.796   1.219 -0.1055 -0.0437 -0.1351
 3363TIP3   OH231723   0.996   6.067   7.641 -0.2237 -0.1075  0.4412
 3363TIP3    H131724   1.069   6.007   7.656 -0.3396 -0.5468 -0.6368
 3363TIP3    H231725   0.979   6.060   7.547 -0.5388  1.2836  0.3804
 3364TIP3   OH231726   6.257   6.012   1.411  0.1533  0.4880 -0.0620
 3364TIP3    H131727   6.350   6.031   1.398  0.4047 -1.1900 -0.9216
 3364TIP3    H231728   6.214   6.060   1.340  0.2710  1.7308  0.6691
 3365TIP3   OH231729   5.872   3.479   8.462 -0.8866  0.1783  0.3042
 3365TIP3    H131730   5.819   3.548   8.502 -0.5983 -0.3772  1.7029
 3365TIP3    H231731   5.960   3.516   8.458 -1.3080  1.0787 -1.9644
 3366TIP3   OH231732   4.724   5.379   0.309  0.5098  0.0893 -0.2230
 3366TIP3    H131733   4.679   5.427   0.241  1.4583  0.8246 -0.3563
 3366TIP3    H231734   4.736   5.291   0.273 -2.2006 -0.6645  0.4500
 3367TIP3   OH231735   5.434   3.770   1.678 -0.2586  0.2769 -0.2320
 3367TIP3    H131736   5.368   3.703   1.695 -1.1321  1.6155  2.2320
 3367TIP3    H231737   5.462   3.755   1.588 -2.0559 -1.9403 -0.4977
 3368TIP3   OH231738   1.672   2.814   0.241 -0.2580 -0.3984 -0.2288
 3368TIP3    H131739   1.612   2.888   0.238  0.0282 -0.1112  0.7565
 3368TIP3    H231740   1.630   2.752   0.301 -0.1468 -0.7166 -0.4795
 3369TIP3   OH231741   0.192   6.477   7.834 -0.1764  0.2583  0.3252
 3369TIP3    H131742   0.174   6.383   7.836  0.8208  0.0496 -0.0650
 3369TIP3    H231743   0.281   6.485   7.867 -0.9218  1.2680  2.2729
 3370TIP3   OH231744   2.087   3.742   7.011  0.2980 -0.4084 -0.6977
 3370TIP3    H131745   2.107   3.761   6.919 -0.0077 -0.8454 -0.8580
 3370TIP3    H231746   1.994   3.720   7.011  0.6172 -1.8559 -0.5308
 3371TIP3   OH231747   3.026   6.275   1.271  0.5284 -0.1738 -0.1946
 3371TIP3    H131748   2.947   6.329   1.265  0.2095 -0.4259  1.3552
 3371TIP3    H231749   2.994   6.185   1.266  1.0705 -0.3088 -2.8827
 3372TIP3   OH231750   4.494   6.039   0.381  0.1660 -0.1505  0.1536
 3372TIP3    H131751   4.551   5.962   0.371 -0.8459 -1.5514  3.5822
 3372TIP3    H231752   4.406   6.006   0.364 -0.1967  0.4524  0.8433
 3373TIP3   OH231753   1.577   2.402   2.383  0.1404  0.1325 -0.2755
 3373TIP3    H131754   1.607   2.327   2.331 -0.7590  0.3985 -1.2074
 3373TIP3    H231755   1.555   2.468   2.318 -1.6531  0.2396  0.3923
 3374TIP3   OH231756   0.569   5.531   0.075  0.6178  0.0198 -1.4430
 3374TIP3    H131757   0.583   5.436   0.067 -0.0749 -0.0958 -1.3473
 3374TIP3    H231758   0.474   5.540   0.082  0.7612  0.5845  0.2245
 3375TIP3   OH231759   4.939   1.654   8.166 -0.3482  0.2835  0.1751
 3375TIP3    H131760   4.980   1.666   8.252 -0.5322 -1.3841  0.5376
 3375TIP3    H231761   4.916   1.742   8.137  4.5300  1.5992 -0.6252
 3376TIP3   OH231762   2.426   0.950   0.673  0.5607 -0.0623 -0.5701
 3376TIP3    H131763   2.424   0.907   0.588 -0.1012 -1.3078  0.0490
 3376TIP3    H231764   2.377   0.892   0.731 -1.0874  1.9228  0.1604
 3377TIP3   OH231765   0.004   6.091   0.503  0.0033 -0.5266  0.8109
 3377TIP3    H131766  -0.074   6.123   0.547  0.7157  2.5488  0.0243
 3377TIP3    H231767   0.076   6.113   0.562  0.8784  2.8520 -1.2421
 3378TIP3   OH231768   4.731   5.921   0.894  0.2275  0.0923 -0.2899
 3378TIP3    H131769   4.748   6.006   0.934 -1.0017  0.4905 -0.5862
 3378TIP3    H231770   4.778   5.923   0.811  1.9645 -0.3564  0.6282
 3379TIP3   OH231771   3.592   3.433   7.548 -0.3856 -0.1941 -0.1894
 3379TIP3    H131772   3.612   3.500   7.483 -0.9805 -0.3102 -0.5018
 3379TIP3    H231773   3.502   3.406   7.528 -0.0549 -1.2947 -0.2628
 3380TIP3   OH231774   1.435   1.021   0.384 -0.0761 -0.1494  0.0801
 3380TIP3    H131775   1.437   1.000   0.477 -0.3210  2.0439  0.6517
 3380TIP3    H231776   1.376   1.096   0.378  0.2493  0.0118 -1.7924
 3381TIP3   OH231777   0.960   1.812   1.199 -0.6485 -0.3167 -0.1122
 3381TIP3    H131778   0.919   1.737   1.243  0.7160 -0.7208  0.5172
 3381TIP3    H231779   1.051   1.786   1.187  0.5148  2.0987  2.3159
 3382TIP3   OH231780   2.714   4.811   1.761  0.7357 -0.0968 -0.5400
 3382TIP3    H131781   2.733   4.875   1.692 -1.4461  0.5504 -0.6038
 3382TIP3    H231782   2.675   4.737   1.714 -0.1149  0.0565 -0.0898
 3383TIP3   OH231783   1.784   1.220   0.120  0.2294 -0.1630  0.5990
 3383TIP3    H131784   1.826   1.289   0.172  2.5712 -1.2234  0.2358
 3383TIP3    H231785   1.760   1.263   0.038  0.5776  0.4901  0.8325
 3384TIP3   OH231786   3.689   0.681   7.866  0.8433 -0.5370 -0.4534
 3384TIP3    H131787   3.719   0.601   7.823  1.4659 -0.5497  0.0041
 3384TIP3    H231788   3.741   0.688   7.945 -0.6520 -0.7916  0.6029
 3385TIP3   OH231789   6.653   3.170   8.529  0.3748  0.3565 -0.4284
 3385TIP3    H131790   6.561   3.189   8.512  0.5259  0.4967 -1.1540
 3385TIP3    H231791   6.686   3.246   8.577 -0.5756 -0.9480  2.5237
 3386TIP3   OH231792   0.343   0.315   0.104  0.2010 -0.5761  0.1255
 3386TIP3    H131793   0.421   0.354   0.145  0.0714  1.8384 -1.7077
 3386TIP3    H231794   0.374   0.282   0.020 -0.5292 -0.6373 -0.1245
 3387TIP3   OH231795   4.814   4.875   1.619 -0.1396  0.3118  0.3840
 3387TIP3    H131796   4.907   4.857   1.635  0.3697  3.3775  1.5852
 3387TIP3    H231797   4.771   4.791   1.632  2.4750 -1.3098 -0.6257
 3388TIP3   OH231798   0.684   1.614   0.494  0.3111 -0.0160  0.4864
 3388TIP3    H131799   0.716   1.531   0.528 -0.3928 -0.7517 -0.5859
 3388TIP3    H231800   0.645   1.658   0.569  3.4071  0.7736  1.7926
 3389TIP3   OH231801   2.862   2.900   0.091 -0.1089 -0.0164 -0.2605
 3389TIP3    H131802   2.862   2.949   0.173  0.3339 -0.9179  0.2998
 3389TIP3    H231803   2.862   2.808   0.118  0.6208 -0.3308 -1.2637
 3390TIP3   OH231804   4.210   4.703   8.652 -0.1706  0.7123  0.6002
 3390TIP3    H131805   4.217   4.676   8.560 -2.5653 -1.8079  1.0253
 3390TIP3    H231806   4.180   4.793   8.649  1.1418  1.1463 -1.0436
 3391TIP3   OH231807   3.512   3.460   1.836  0.3101 -0.5863  0.6415
 3391TIP3    H131808   3.432   3.457   1.889 -0.1073  1.8846  0.2625
 3391TIP3    H231809   3.571   3.517   1.886  0.6982  0.0717 -0.5463
 3392TIP3   OH231810   1.572   2.540   1.441  0.2349  0.0671 -0.6130
 3392TIP3    H131811   1.602   2.454   1.413  1.9690  0.5097 -0.2743
 3392TIP3    H231812   1.620   2.556   1.523 -0.0371  1.3413 -0.6795
 3393TIP3   OH231813   1.037   5.779   1.534 -0.6750 -0.8096 -0.4240
 3393TIP3    H131814   0.970   5.718   1.564 -0.1435 -0.8487  0.7471
 3393TIP3    H231815   1.066   5.824   1.614  1.0371 -1.1492 -0.8235
 3394TIP3   OH231816   3.928   2.882   6.762  0.2160 -0.4444 -0.8232
 3394TIP3    H131817   3.994   2.909   6.698 -0.9664  2.5147 -0.9502
 3394TIP3    H231818   3.909   2.961   6.812 -2.4814 -1.4260 -0.1138
 3395TIP3   OH231819   6.614   6.379   1.966 -0.3105 -0.0446 -0.3267
 3395TIP3    H131820   6.700   6.421   1.972 -0.3875 -0.0796  1.7593
 3395TIP3    H231821   6.631   6.287   1.984 -0.9979  0.2880  2.3756
 3396TIP3   OH231822   4.049   4.654   0.583 -0.1453 -0.2508 -0.3716
 3396TIP3    H131823   4.080   4.713   0.515  1.5207 -0.5456  0.1039
 3396TIP3    H231824   3.994   4.708   0.640  0.3113  0.5207 -0.6651
 3397TIP3   OH231825   6.242   6.630   8.687  0.2857  0.5785  0.3326
 3397TIP3    H131826   6.251   6.588   8.772  0.0881 -1.9155 -0.7934
 3397TIP3    H231827   6.209   6.561   8.630 -0.2252  2.3575 -1.6268
 3398TIP3   OH231828   1.664   3.586   2.599 -0.2288 -0.2402 -0.1146
 3398TIP3    H131829   1.578   3.610   2.630 -0.2673 -1.0618  0.4479
 3398TIP3    H231830   1.661   3.491   2.590  0.6862 -0.3062  0.1327
 3399TIP3   OH231831   4.039   6.278   2.212  0.0484  0.1339 -0.2685
 3399TIP3    H131832   4.045   6.187   2.240 -0.0870  0.0548 -0.4931
 3399TIP3    H231833   3.995   6.274   2.127 -1.5001  0.5546  0.4758
 3400TIP3   OH231834   0.011   6.485   2.373  0.2770  0.2705  0.5048
 3400TIP3    H131835   0.104   6.486   2.350  0.1932  2.0909  0.1090
 3400TIP3    H231836  -0.020   6.573   2.353 -0.9497  0.5164  3.0603
 3401TIP3   OH231837   3.825   2.447   0.804 -0.5519 -0.2508 -0.0909
 3401TIP3    H131838   3.758   2.410   0.861 -0.9438  1.2547  0.4527
 3401TIP3    H231839   3.907   2.416   0.841 -0.8427 -0.0389  0.7656
 3402TIP3   OH231840   3.733   0.468   2.496 -0.7469 -0.1566  0.1890
 3402TIP3    H131841   3.733   0.422   2.412  1.3790  0.7240 -0.3631
 3402TIP3    H231842   3.647   0.450   2.533 -1.2215 -1.7544 -1.5197
 3403TIP3   OH231843   4.577   4.840   1.836  0.5440 -0.0586 -0.4475
 3403TIP3    H131844   4.628   4.769   1.797  1.2338 -0.1513  0.5918
 3403TIP3    H231845   4.577   4.821   1.930 -0.0540  0.8144 -0.2578
 3404TIP3   OH231846   5.498   1.204   8.543 -0.1142  0.2606 -0.0096
 3404TIP3    H131847   5.547   1.197   8.625 -0.0241  0.6110 -0.0295
 3404TIP3    H231848   5.476   1.114   8.520 -1.1304  0.2321  0.9891
 3405TIP3   OH231849   3.362   5.241   2.090 -0.2320  0.1768 -0.6594
 3405TIP3    H131850   3.298   5.275   2.151  0.4189  0.5099 -0.1556
 3405TIP3    H231851   3.327   5.263   2.003 -0.8607  0.2259 -0.3985
 3406TIP3   OH231852   5.643   5.566   7.253  0.5837 -0.1570  0.2992
 3406TIP3    H131853   5.660   5.510   7.329  0.7850 -0.6432 -0.0964
 3406TIP3    H231854   5.676   5.515   7.179 -1.9562 -0.8485 -0.4470
 3407TIP3   OH231855   5.383   3.022   8.455 -0.5807  0.3899  0.2253
 3407TIP3    H131856   5.473   2.993   8.444 -0.2091  1.5994 -0.0397
 3407TIP3    H231857   5.367   3.082   8.382 -1.1472  1.2232  1.0030
 3408TIP3   OH231858   1.186   5.429   2.080  0.0847  0.0346 -0.9053
 3408TIP3    H131859   1.190   5.343   2.037  0.9468 -0.2692 -0.2473
 3408TIP3    H231860   1.136   5.484   2.020 -1.5403 -1.2412 -0.8009
 3409TIP3   OH231861   5.676   2.359   8.580 -0.8069  0.4783 -0.5221
 3409TIP3    H131862   5.648   2.450   8.571 -1.1493  0.7810  2.6091
 3409TIP3    H231863   5.651   2.335   8.669  2.5529 -1.4997  0.0498
 3410TIP3   OH231864   2.274   2.324   0.843 -0.0004  0.5042 -0.2412
 3410TIP3    H131865   2.206   2.294   0.904  1.9464 -2.1203  0.7864
 3410TIP3    H231866   2.343   2.358   0.899  0.8334  0.2671 -1.1123
 3411TIP3   OH231867   4.876   2.534   8.285 -0.3297  0.1672 -0.0954
 3411TIP3    H131868   4.966   2.503   8.289  0.2794  1.8252 -0.0770
 3411TIP3    H231869   4.823   2.455   8.280  0.9911 -0.9393  2.1292
 3412TIP3   OH231870   1.450   0.249   7.722 -0.2445  0.0824 -0.5118
 3412TIP3    H131871   1.416   0.160   7.725 -0.2221  0.1058  0.8979
 3412TIP3    H231872   1.382   0.300   7.678 -0.2521 -0.6045 -1.3324
 3413TIP3   OH231873   5.753   3.916   8.508  0.1398 -0.4039 -0.2801
 3413TIP3    H131874   5.780   3.835   8.553  2.6045  0.7938  0.6095
 3413TIP3    H231875   5.710   3.886   8.428 -0.3255 -2.5926  0.7109
 3414TIP3   OH231876   0.980   3.049   0.198 -0.4119  0.0463 -0.1804
 3414TIP3    H131877   0.986   3.058   0.103 -1.7310  2.2516 -0.1298
 3414TIP3    H231878   1.054   3.100   0.232 -2.1427  2.7103 -0.0580
 3415TIP3   OH231879   0.759   3.958   2.751 -0.0408 -0.5768 -0.8174
 3415TIP3    H131880   0.803   4.042   2.765  1.1455 -1.2289 -0.5841
 3415TIP3    H231881   0.686   3.980   2.692 -1.8296  1.2093  1.7967
 3416TIP3   OH231882   6.590   4.184   8.885 -0.4248  0.2916  0.7523
 3416TIP3    H131883   6.646   4.257   8.911  0.9009  0.0541 -1.1874
 3416TIP3    H231884   6.524   4.223   8.829 -0.5187  0.1846  0.7891
 3417TIP3   OH231885   3.697   2.717   1.285 -0.3231  0.0029 -1.1362
 3417TIP3    H131886   3.622   2.684   1.334 -1.0538  0.6957 -1.7645
 3417TIP3    H231887   3.773   2.692   1.338 -1.0607  0.3669  0.1397
 3418TIP3   OH231888   1.220   6.213   1.185 -0.1771  0.4526  0.0020
 3418TIP3    H131889   1.220   6.133   1.132 -1.2842  0.9161 -0.7310
 3418TIP3    H231890   1.129   6.241   1.186  0.4243  2.6959 -1.2604
 3419TIP3   OH231891   0.171   5.683   1.174  0.6444 -0.0224  0.0283
 3419TIP3    H131892   0.156   5.693   1.268  2.6040  2.1426  0.2004
 3419TIP3    H231893   0.162   5.589   1.158  0.7420 -0.5183  2.4543
 3420TIP3   OH231894   1.304   1.707   0.708 -0.0742 -0.3082  0.2599
 3420TIP3    H131895   1.252   1.628   0.724  0.0025 -0.0342  2.0848
 3420TIP3    H231896   1.386   1.675   0.670 -1.1522 -0.8145 -1.7971
 3421TIP3   OH231897   1.581   4.638   1.943  0.0740 -0.0162 -0.0244
 3421TIP3    H131898   1.511   4.607   2.000  0.4776 -0.0503  0.4592
 3421TIP3    H231899   1.622   4.709   1.992 -0.7663  1.2477 -1.0714
 3422TIP3   OH231900   6.562   5.515   7.729  0.0355  0.1183  0.2483
 3422TIP3    H131901   6.528   5.604   7.734 -0.8336 -0.2327  0.8778
 3422TIP3    H231902   6.634   5.514   7.793 -0.2206  0.2568  0.5410
 3423TIP3   OH231903   2.025   4.651   8.552 -0.1232  0.0649 -0.4849
 3423TIP3    H131904   2.096   4.625   8.610 -1.5049 -0.5794  0.9924
 3423TIP3    H231905   2.067   4.708   8.487  1.5540  0.5373  0.9313
 3424TIP3   OH231906   3.598   4.751   2.219  0.3372 -0.2120 -0.3961
 3424TIP3    H131907   3.589   4.702   2.138 -0.8032  0.8606 -0.9525
 3424TIP3    H231908   3.628   4.687   2.283  3.1743 -0.7077 -2.0423
 3425TIP3   OH231909   2.528   6.781   7.630 -0.3869 -0.4715 -0.2588
 3425TIP3    H131910   2.581   6.852   7.596 -0.3780 -0.6179 -0.5556
 3425TIP3    H231911   2.504   6.730   7.552 -0.7496 -0.5475 -0.0984
 3426TIP3   OH231912   0.514   4.285   7.755 -0.2625  0.2767 -0.3575
 3426TIP3    H131913   0.546   4.260   7.842  0.8659 -0.5279 -0.9628
 3426TIP3    H231914   0.434   4.233   7.743 -0.2634  0.1690  0.0854
 3427TIP3   OH231915   2.382   2.564   8.559  0.1994 -0.1643  0.1322
 3427TIP3    H131916   2.391   2.488   8.616  1.0971 -0.6278 -0.5950
 3427TIP3    H231917   2.290   2.590   8.567 -0.1289 -1.3566  0.3521
 3428TIP3   OH231918   0.287   2.610   8.169 -0.3537 -0.5898 -0.6720
 3428TIP3    H131919   0.213   2.589   8.226 -0.6294 -1.8611 -1.4651
 3428TIP3    H231920   0.298   2.705   8.178 -0.7213 -0.6754  1.0666
 3429TIP3   OH231921   2.576   2.361   7.545  0.0875 -0.3464 -0.6118
 3429TIP3    H131922   2.501   2.303   7.550 -0.3843  0.2726 -0.3218
 3429TIP3    H231923   2.594   2.384   7.636 -0.9648  1.4916 -0.8136
 3430TIP3   OH231924   3.986   2.938   0.456  0.0764  0.4444 -0.9221
 3430TIP3    H131925   3.925   2.996   0.411  0.7949  1.3309 -0.8039
 3430TIP3    H231926   4.071   2.959   0.417  0.3439 -0.5921 -0.9227
 3431TIP3   OH231927   5.605   2.485   7.450  0.0914 -0.0904  0.0542
 3431TIP3    H131928   5.693   2.457   7.429 -0.9524 -2.4866 -1.4769
 3431TIP3    H231929   5.586   2.556   7.389  0.6587 -0.1409 -0.1793
 3432TIP3   OH231930   6.587   2.846   1.852 -0.6128 -0.1502 -0.2190
 3432TIP3    H131931   6.654   2.908   1.880  0.1628  0.2096 -2.7027
 3432TIP3    H231932   6.627   2.760   1.865  0.6605  0.0689 -2.2585
 3433TIP3   OH231933   1.555   3.568   8.683  0.0327 -0.0440  0.3641
 3433TIP3    H131934   1.598   3.579   8.598 -0.8613  2.1401  0.1425
 3433TIP3    H231935   1.466   3.599   8.670  0.1099  1.1861  2.3005
 3434TIP3   OH231936   3.912   3.702   1.466 -0.0287  0.1812  0.3865
 3434TIP3    H131937   3.905   3.644   1.542 -3.3704  0.7005  0.6218
 3434TIP3    H231938   3.943   3.785   1.502 -4.3073  1.3819  2.0277
 3435TIP3   OH231939   5.177   2.798   2.516  0.0267 -0.4097  0.7623
 3435TIP3    H131940   5.204   2.804   2.608 -0.6229  0.0417  0.9291
 3435TIP3    H231941   5.130   2.879   2.500 -0.0443 -0.5840  0.0865
 3436TIP3   OH231942   0.167   6.070   1.435 -0.0943 -0.3301 -0.5480
 3436TIP3    H131943   0.128   5.986   1.414 -1.3213  0.2091 -0.5412
 3436TIP3    H231944   0.192   6.108   1.351 -0.7500 -0.1527 -0.6701
 3437TIP3   OH231945   6.491   1.010   8.146  1.1294  0.8413  0.0957
 3437TIP3    H131946   6.519   0.919   8.158  0.6651  0.2189 -2.6796
 3437TIP3    H231947   6.401   1.012   8.178  0.3774 -0.3322 -1.7572
 3438TIP3   OH231948   4.080   4.318   0.865 -0.2657  0.0211 -0.1312
 3438TIP3    H131949   3.989   4.315   0.835 -0.3358 -0.1474  0.0963
 3438TIP3    H231950   4.079   4.379   0.938 -0.7470 -2.0767  1.7134
 3439TIP3   OH231951   3.824   2.706   0.340 -0.1026  0.7231 -0.3433
 3439TIP3    H131952   3.747   2.760   0.361  0.1572  1.1554 -0.4921
 3439TIP3    H231953   3.795   2.616   0.355 -0.4254  0.9257  0.2822
 3440TIP3   OH231954   2.796   5.417   6.703  0.0107  0.3980 -0.3854
 3440TIP3    H131955   2.854   5.362   6.755 -0.6457  0.5401  0.5264
 3440TIP3    H231956   2.731   5.356   6.667  0.8967  0.1902 -1.6781
 3441TIP3   OH231957   5.024   5.945   8.039  0.5571 -0.1901  0.1122
 3441TIP3    H131958   4.941   5.902   8.063  2.0569 -2.8345  0.9707
 3441TIP3    H231959   5.016   6.033   8.076 -2.3482  0.1164 -0.9519
 3442TIP3   OH231960   4.197   4.577   6.833 -0.1578 -0.8889  0.0300
 3442TIP3    H131961   4.218   4.657   6.881 -0.8072 -1.5217  1.4222
 3442TIP3    H231962   4.282   4.540   6.809  0.1791  1.2235 -2.4595
 3443TIP3   OH231963   6.572   2.233   1.025 -0.3079 -0.0055 -0.5960
 3443TIP3    H131964   6.511   2.161   1.035 -0.5015  0.0042 -1.5841
 3443TIP3    H231965   6.555   2.267   0.937  1.1624 -0.0605 -0.9390
 3444TIP3   OH231966   1.257   5.107   8.594  0.1661  0.0130 -0.4894
 3444TIP3    H131967   1.346   5.116   8.561  1.2367  1.0862  2.3246
 3444TIP3    H231968   1.268   5.062   8.678 -1.9385  0.1418 -0.0983
 3445TIP3   OH231969   4.016   1.867   1.914  0.4848  0.3791 -0.3279
 3445TIP3    H131970   3.940   1.833   1.962  1.6736 -1.9120  0.0703
 3445TIP3    H231971   4.052   1.935   1.971 -2.5580  3.3327 -1.6092
 3446TIP3   OH231972   0.381   2.679   7.826  0.1209  0.1631 -0.4772
 3446TIP3    H131973   0.462   2.691   7.877  1.2299  0.3191 -2.1730
 3446TIP3    H231974   0.389   2.742   7.754 -1.9797  0.8315 -0.1936
 3447TIP3   OH231975   5.211   5.828   6.933  0.1037 -0.4985 -0.7199
 3447TIP3    H131976   5.283   5.816   6.996  0.0222  0.1320 -0.5019
 3447TIP3    H231977   5.222   5.917   6.902  0.2594 -0.8690 -1.7583
 3448TIP3   OH231978   4.930   1.308   0.809  0.4172  0.4480  0.0607
 3448TIP3    H131979   4.949   1.306   0.715  2.2027 -1.1495  0.3756
 3448TIP3    H231980   4.994   1.247   0.847 -0.8266  0.3927  2.2151
 3449TIP3   OH231981   5.869   6.302   7.361  0.0111 -0.5008  0.3743
 3449TIP3    H131982   5.887   6.215   7.326 -0.2713 -0.5653  0.3871
 3449TIP3    H231983   5.811   6.287   7.436  1.2077 -0.4209  1.3433
 3450TIP3   OH231984   5.831   1.140   8.139  0.0627  0.0345 -0.0301
 3450TIP3    H131985   5.754   1.186   8.173 -0.5255  0.2306 -1.5163
 3450TIP3    H231986   5.888   1.210   8.107 -0.2655 -0.1809 -1.1427
 3451TIP3   OH231987   3.712   4.571   8.335  0.1420  0.1380  0.3404
 3451TIP3    H131988   3.653   4.611   8.399 -1.6441  1.1959 -1.7893
 3451TIP3    H231989   3.799   4.602   8.359 -0.3768  0.0501  2.5228
 3452TIP3   OH231990   2.493   5.757   7.390 -0.8667 -0.1754  0.0443
 3452TIP3    H131991   2.432   5.831   7.382 -0.1099  0.3940 -0.6261
 3452TIP3    H231992   2.483   5.708   7.309 -0.5334 -0.1586 -0.0081
 3453TIP3   OH231993   4.418   2.338   6.568 -0.0232  1.0766  0.7733
 3453TIP3    H131994   4.360   2.262   6.559  0.0784  0.7999  2.1969
 3453TIP3    H231995   4.368   2.411   6.531  0.6329  0.0550 -2.4870
 3454TIP3   OH231996   2.481   5.635   7.138  0.2761 -0.3766  0.1086
 3454TIP3    H131997   2.538   5.691   7.086 -0.2437  0.8040  0.7833
 3454TIP3    H231998   2.503   5.546   7.110  1.5280  0.1217 -0.5602
 3455TIP3   OH231999   6.467   4.683   1.035 -0.1175 -0.4470  0.2504
 3455TIP3    H132000   6.549   4.667   0.988 -0.4835  0.0328 -0.5549
 3455TIP3    H232001   6.399   4.679   0.968 -0.7038 -0.2744  0.8230
 3456TIP3   OH232002   3.603   4.053   7.034 -0.2887  0.0843 -0.6762
 3456TIP3    H132003   3.516   4.014   7.024  0.3823 -1.3047 -1.4768
 3456TIP3    H232004   3.662   3.978   7.046  1.2520  0.6230 -3.6568
 3457TIP3   OH232005   3.142   5.101   0.781  0.4227  0.1979  0.0480
 3457TIP3    H132006   3.079   5.043   0.739  0.7760 -0.4573  0.3946
 3457TIP3    H232007   3.204   5.123   0.712  2.1883 -2.5353  0.5998
 3458TIP3   OH232008   1.798   3.547   1.967 -0.0273  0.2818 -0.6296
 3458TIP3    H132009   1.737   3.553   2.040 -0.5434  0.5623 -1.0791
 3458TIP3    H232010   1.851   3.626   1.973 -0.0908  0.3208 -0.5862
 3459TIP3   OH232011   4.914   4.786   0.051 -0.0531  0.6400 -0.0080
 3459TIP3    H132012   4.995   4.735   0.059 -0.6850 -0.7848 -1.8656
 3459TIP3    H232013   4.943   4.875   0.034  1.1580  0.1247 -0.8000
 3460TIP3   OH232014   5.488   1.219   7.590 -0.7016 -0.1656  0.4759
 3460TIP3    H132015   5.495   1.294   7.649 -0.9898 -0.6015  1.0819
 3460TIP3    H232016   5.555   1.233   7.524 -0.4656  0.4060  0.8329
 3461TIP3   OH232017   1.093   5.148   1.570 -0.0839  0.1072 -0.7527
 3461TIP3    H132018   1.038   5.221   1.597 -0.1849  0.0199 -0.7212
 3461TIP3    H232019   1.033   5.073   1.564 -0.1200  0.1980 -1.5349
 3462TIP3   OH232020   4.776   0.902   7.856  0.2547 -0.0132 -0.4540
 3462TIP3    H132021   4.814   0.896   7.944  0.9009  0.0772 -0.7169
 3462TIP3    H232022   4.684   0.922   7.870  0.4229  0.3226  0.1992
 3463TIP3   OH232023   0.870   1.493   0.269  0.1666  0.2462 -0.4754
 3463TIP3    H132024   0.787   1.532   0.297  0.7331  0.2482  1.3996
 3463TIP3    H232025   0.863   1.483   0.174 -1.6582  0.9605 -0.4379
 3464TIP3   OH232026   0.357   1.934   1.261  0.2501  0.3631  0.2594
 3464TIP3    H132027   0.316   1.898   1.181  0.7912 -0.9691  0.5559
 3464TIP3    H232028   0.429   1.987   1.228  1.7716 -1.8024 -0.1632
 3465TIP3   OH232029   5.145   3.896   1.351  0.3258 -0.1800 -0.1448
 3465TIP3    H132030   5.175   3.922   1.438 -0.3351  0.2948 -0.0486
 3465TIP3    H232031   5.153   3.975   1.298 -0.0732 -0.2426 -0.2989
 3466TIP3   OH232032   5.237   5.847   7.323 -0.0931 -0.2283 -0.6468
 3466TIP3    H132033   5.242   5.918   7.259  1.8012 -0.7369 -1.1074
 3466TIP3    H232034   5.322   5.803   7.318 -0.3786 -1.1083  1.2743
 3467TIP3   OH232035   5.455   1.213   1.967 -0.4423  0.4922 -0.3966
 3467TIP3    H132036   5.526   1.276   1.972 -1.3865  1.5645 -0.2402
 3467TIP3    H232037   5.376   1.263   1.986 -1.1877 -0.7954  0.0609
 3468TIP3   OH232038   6.771   1.956   0.990  0.3926 -0.0455  0.2457
 3468TIP3    H132039   6.832   1.895   1.032 -0.5523 -0.5953  0.8516
 3468TIP3    H232040   6.791   2.041   1.028 -0.0327 -0.4306  1.3696
 3469TIP3   OH232041   2.125   6.719   0.920  0.2449 -0.5732 -0.2539
 3469TIP3    H132042   2.186   6.787   0.949  0.3185 -0.3044 -1.0039
 3469TIP3    H232043   2.177   6.665   0.859  0.3174 -1.5654  0.6603
 3470TIP3   OH232044   0.377   1.916   8.034  0.5783 -0.1822 -0.3620
 3470TIP3    H132045   0.430   1.905   7.955  1.3271 -1.5352  0.2950
 3470TIP3    H232046   0.401   1.843   8.090 -0.6591  0.1995  0.7335
 3471TIP3   OH232047   5.648   1.625   2.641 -0.7552  0.1070 -0.7153
 3471TIP3    H132048   5.609   1.550   2.686 -0.5210  1.2425  1.5253
 3471TIP3    H232049   5.663   1.594   2.551 -2.1113 -1.9771 -0.2967
 3472TIP3   OH232050   6.143   6.011   0.125  0.3207 -0.1736  0.2407
 3472TIP3    H132051   6.065   6.002   0.070 -0.0416 -0.4096  0.7809
 3472TIP3    H232052   6.135   5.941   0.189  1.2813 -0.5644 -0.0511
 3473TIP3   OH232053   5.476   3.936   8.609  0.3591  0.1675 -0.3559
 3473TIP3    H132054   5.465   3.939   8.704  1.8449  1.2709 -0.1934
 3473TIP3    H232055   5.569   3.917   8.596  0.0580 -0.5753 -1.6052
 3474TIP3   OH232056   0.132   1.046   0.569 -0.2019 -0.4057  0.0547
 3474TIP3    H132057   0.186   1.122   0.549  0.4690 -1.1631 -1.1084
 3474TIP3    H232058   0.142   1.034   0.664 -1.4092  1.7288  0.5395
 3475TIP3   OH232059   1.765   5.474   2.054 -0.0370 -0.3618 -0.1502
 3475TIP3    H132060   1.694   5.517   2.006 -1.3690 -2.3183 -0.0422
 3475TIP3    H232061   1.771   5.522   2.136 -0.9373  0.1248 -0.3531
 3476TIP3   OH232062   3.883   1.082   8.034 -0.9251 -0.3430 -0.6081
 3476TIP3    H132063   3.915   1.107   7.948 -1.5558 -1.3808 -1.1608
 3476TIP3    H232064   3.807   1.027   8.017 -1.7258  0.3216  0.6297
 3477TIP3   OH232065   4.950   4.972   3.075 -0.4973 -0.1755  0.2065
 3477TIP3    H132066   4.901   5.044   3.035 -1.3451  0.2255  1.9094
 3477TIP3    H232067   5.031   5.013   3.106 -0.4634 -0.2086  0.1636
 3478TIP3   OH232068   0.200   3.409   0.246  0.6362 -0.2655  0.1743
 3478TIP3    H132069   0.220   3.415   0.339  0.4764 -1.0359  0.2637
 3478TIP3    H232070   0.273   3.453   0.203  0.8168 -0.0920  0.6496
 3479TIP3   OH232071   3.448   3.859   8.684 -0.1273 -0.2552  0.0966
 3479TIP3    H132072   3.495   3.942   8.691 -0.9595  0.4228 -1.8209
 3479TIP3    H232073   3.395   3.855   8.763  0.0090  0.9858  0.2713
 3480TIP3   OH232074   2.982   6.393   2.261 -0.0199 -0.1138 -0.1292
 3480TIP3    H132075   3.045   6.447   2.309  0.2303  0.0107 -0.5892
 3480TIP3    H232076   2.924   6.358   2.328  1.2132 -1.1453  0.4415
 3481TIP3   OH232077   5.658   0.015   8.192 -0.6790  0.5153  0.3863
 3481TIP3    H132078   5.706  -0.057   8.231 -1.1733  0.7323  1.4226
 3481TIP3    H232079   5.567  -0.016   8.186 -0.5315  0.2896 -1.0971
 3482TIP3   OH232080   1.602   0.314   0.494 -0.5153  0.7603 -0.0470
 3482TIP3    H132081   1.557   0.379   0.548 -3.7286 -0.5078 -0.9673
 3482TIP3    H232082   1.603   0.352   0.406 -0.2556  0.5447 -0.1377
 3483TIP3   OH232083   4.257   2.257   1.799  0.2880  0.9025  0.3103
 3483TIP3    H132084   4.312   2.288   1.872 -1.4571  1.1929  1.5731
 3483TIP3    H232085   4.307   2.185   1.760  2.1366  1.9699  0.5517
 3484TIP3   OH232086   1.072   3.303   2.039 -0.0340  0.8132  0.3770
 3484TIP3    H132087   1.005   3.327   2.103 -0.2850  1.0934  0.0083
 3484TIP3    H232088   1.052   3.212   2.017  0.4371  0.5061  1.1700
 3485TIP3   OH232089   5.261   5.568   8.850  0.1088  0.2373 -0.8363
 3485TIP3    H132090   5.280   5.479   8.823 -0.0257 -0.1668  0.3445
 3485TIP3    H232091   5.331   5.621   8.811  0.6885 -0.5022 -0.8127
 3486TIP3   OH232092   6.299   1.387   2.348  0.7866 -0.2651  0.2227
 3486TIP3    H132093   6.252   1.323   2.295 -0.6278  0.5746  0.4002
 3486TIP3    H232094   6.233   1.452   2.371  2.2060  1.3757 -0.1075
 3487TIP3   OH232095   5.567   5.588   1.937  0.0531 -0.0140 -0.0160
 3487TIP3    H132096   5.492   5.632   1.978 -0.9150 -0.7282 -0.9401
 3487TIP3    H232097   5.629   5.658   1.920  0.3782  0.3529  2.3364
 3488TIP3   OH232098   5.859   4.757   8.171 -0.6576  0.1193  0.0151
 3488TIP3    H132099   5.803   4.789   8.241 -0.6763 -0.3012  0.1920
 3488TIP3    H232100   5.852   4.662   8.176  1.0928  0.0023  0.8891
 3489TIP3   OH232101   3.153   4.627   0.985 -0.1342 -0.2024  0.3104
 3489TIP3    H132102   3.089   4.590   1.046 -0.4546  0.3752  0.3320
 3489TIP3    H232103   3.152   4.721   1.003  0.2258 -0.1050 -0.1574
 3490TIP3   OH232104   4.085   3.244   7.789  0.2153  0.7601  0.1748
 3490TIP3    H132105   4.012   3.302   7.810 -1.7850 -1.5876  0.2289
 3490TIP3    H232106   4.113   3.209   7.873  0.7978  0.9755  0.0719
 3491TIP3   OH232107   1.195   4.198   2.705  0.0228 -0.3057 -0.5259
 3491TIP3    H132108   1.241   4.134   2.760  1.4384  1.7372  0.8085
 3491TIP3    H232109   1.219   4.283   2.742 -3.2692  1.0032 -1.0607
 3492TIP3   OH232110   0.642   1.935   2.508 -0.1938 -0.3007  0.3599
 3492TIP3    H132111   0.649   1.949   2.603 -0.9660  0.3641  0.3278
 3492TIP3    H232112   0.554   1.899   2.496 -0.2070 -0.1014 -0.1334
 3493TIP3   OH232113   2.934   2.029   8.060  0.3129 -0.7505  0.8380
 3493TIP3    H132114   2.955   1.940   8.034 -1.3068 -0.9840  0.2145
 3493TIP3    H232115   2.881   2.019   8.139  0.4576 -0.3131  0.9952
 3494TIP3   OH232116   1.428   4.957   1.098 -0.2633  0.2537 -0.5238
 3494TIP3    H132117   1.432   4.874   1.144  0.4055  1.4121  1.6412
 3494TIP3    H232118   1.502   5.007   1.132  0.0903  1.3276 -2.6624
 3495TIP3   OH232119   1.591   0.493   7.528  0.6299  0.9870  0.3225
 3495TIP3    H132120   1.663   0.431   7.525 -0.3938 -0.1977 -0.4119
 3495TIP3    H232121   1.564   0.504   7.437 -0.6828  0.7290  0.6659
 3496TIP3   OH232122   2.198   2.982   0.260 -0.8601 -0.3360  0.3768
 3496TIP3    H132123   2.287   3.009   0.280 -0.0617 -1.4540 -1.3814
 3496TIP3    H232124   2.172   3.038   0.186 -0.9470 -1.1736 -0.2375
 3497TIP3   OH232125   3.034   3.945   7.213  0.1074 -0.1588 -0.3125
 3497TIP3    H132126   2.965   3.995   7.256  0.5481 -0.6512  1.0336
 3497TIP3    H232127   3.050   3.991   7.131 -3.2915 -1.2369 -1.7315
 3498TIP3   OH232128   0.316   5.352   1.675  0.8601  0.3653  0.6890
 3498TIP3    H132129   0.394   5.348   1.621  1.1541  1.0663  1.0504
 3498TIP3    H232130   0.335   5.420   1.740  0.0100  0.4471  0.8641
 3499TIP3   OH232131   0.684   5.164   8.542  0.1096  0.7315  0.0909
 3499TIP3    H132132   0.642   5.117   8.469  3.4603 -0.4057 -1.2945
 3499TIP3    H232133   0.657   5.117   8.620 -2.0317  0.7905 -0.5481
 3500TIP3   OH232134   2.135   0.410   1.724  0.0344  0.4021 -0.0803
 3500TIP3    H132135   2.046   0.442   1.713 -0.3818 -0.7929 -0.3463
 3500TIP3    H232136   2.136   0.325   1.681  1.4140  0.5607 -0.4239
 3501TIP3   OH232137   5.253   6.440   2.500  0.1693  0.5511 -0.8041
 3501TIP3    H132138   5.286   6.419   2.412  0.5752 -1.1302 -0.2730
 3501TIP3    H232139   5.321   6.409   2.559 -0.4355  1.0145  0.1572
 3502TIP3   OH232140   2.685   6.689   7.887 -0.0203 -0.1990  0.1402
 3502TIP3    H132141   2.636   6.691   7.805  0.7006 -0.2068 -0.3001
 3502TIP3    H232142   2.672   6.776   7.925 -0.3897 -0.2093  0.0347
 3503TIP3   OH232143   3.116   6.422   7.796 -0.0658  0.4753  0.5651
 3503TIP3    H132144   3.087   6.511   7.774 -2.0888  0.6632  3.3888
 3503TIP3    H232145   3.210   6.423   7.779 -0.2038  2.8285 -0.4705
 3504TIP3   OH232146   4.373   0.072   1.347 -0.2138  0.6455 -0.1081
 3504TIP3    H132147   4.375   0.094   1.440 -0.8474 -0.9512  0.3251
 3504TIP3    H232148   4.282   0.047   1.330 -0.0029  0.4676 -1.0416
 3505TIP3   OH232149   6.410   5.899   1.116 -0.1166 -0.3357  0.5490
 3505TIP3    H132150   6.463   5.881   1.193 -0.8140 -0.5728  0.9865
 3505TIP3    H232151   6.416   5.994   1.103  1.1212 -0.4666  0.0551
 3506TIP3   OH232152   3.863   6.182   2.611 -0.4798 -0.0775  0.2116
 3506TIP3    H132153   3.852   6.276   2.597  1.5464  0.1215 -0.3507
 3506TIP3    H232154   3.787   6.143   2.568 -0.5571  1.2186 -0.9259
 3507TIP3   OH232155   4.809   4.242   0.996  0.0059  0.1039  0.4513
 3507TIP3    H132156   4.717   4.216   0.993 -0.2044  0.8087  0.6003
 3507TIP3    H232157   4.846   4.191   1.068  0.0261 -1.0682 -0.3608
 3508TIP3   OH232158   4.686   1.468   0.569  0.1163 -0.1261  0.4460
 3508TIP3    H132159   4.670   1.469   0.664  3.3408 -0.5872  1.1127
 3508TIP3    H232160   4.740   1.390   0.554  1.5113  1.0902 -1.3660
 3509TIP3   OH232161   1.475   5.136   0.359 -0.2347 -0.5094 -0.2359
 3509TIP3    H132162   1.529   5.101   0.288  0.9476  0.7869 -0.0142
 3509TIP3    H232163   1.523   5.115   0.439 -1.3277 -1.5417  0.1926
 3510TIP3   OH232164   1.538   3.900   1.057  0.0572  0.2366  0.1294
 3510TIP3    H132165   1.471   3.967   1.073 -0.8208 -0.6266  0.1625
 3510TIP3    H232166   1.503   3.821   1.098  0.0779 -0.7699 -1.6889
 3511TIP3   OH232167   4.928   3.514   8.834 -0.2449  0.1544 -0.2157
 3511TIP3    H132168   4.940   3.604   8.803  0.0191 -0.5700 -2.4533
 3511TIP3    H232169   4.841   3.513   8.873 -0.6552  1.1752 -1.0553
 3512TIP3   OH232170   4.251   1.402   8.280  0.5481 -0.4462 -0.1139
 3512TIP3    H132171   4.234   1.495   8.295  1.7428 -0.2525  0.1540
 3512TIP3    H232172   4.277   1.397   8.188  0.8454 -0.4487 -0.0323
 3513TIP3   OH232173   5.723   3.196   1.003  0.1020 -0.2862 -0.0469
 3513TIP3    H132174   5.687   3.238   1.081  1.5042 -0.5398  0.7780
 3513TIP3    H232175   5.778   3.263   0.963  0.3396 -0.5292 -0.1315
 3514TIP3   OH232176   5.998   2.265   1.365 -0.9220  0.4394 -0.0942
 3514TIP3    H132177   5.958   2.203   1.304 -0.3068 -0.6339  0.5589
 3514TIP3    H232178   6.056   2.211   1.419  1.0308  1.8259 -0.6693
 3515TIP3   OH232179   5.988   3.263   3.171 -0.1665  0.2509  0.1378
 3515TIP3    H132180   5.941   3.276   3.254  1.1308  1.6098  0.7094
 3515TIP3    H232181   5.941   3.317   3.108  0.3573  1.3075  0.6220
 3516TIP3   OH232182   5.615   3.794   1.905 -0.2982 -0.8836  0.3773
 3516TIP3    H132183   5.691   3.770   1.851 -0.1104 -2.0145  1.0913
 3516TIP3    H232184   5.539   3.776   1.850 -0.0893  2.3366 -1.1718
 3517TIP3   OH232185   3.790   2.737   2.943  0.1981 -0.4023 -0.9602
 3517TIP3    H132186   3.717   2.778   2.989  3.0576  1.9817  1.8792
 3517TIP3    H232187   3.802   2.653   2.986 -0.5429 -0.5925 -1.1182
 3518TIP3   OH232188   3.149   2.576   2.133 -0.4381 -0.3578  0.5886
 3518TIP3    H132189   3.153   2.642   2.203  0.6914  0.2885 -0.0506
 3518TIP3    H232190   3.140   2.628   2.053 -1.3075 -1.0745  0.2186
 3519TIP3   OH232191   0.497   3.535   8.188  0.2101 -0.1756  0.6297
 3519TIP3    H132192   0.481   3.444   8.163  1.1880 -0.0741 -0.4645
 3519TIP3    H232193   0.553   3.570   8.118 -0.7524  1.4952  0.6389
 3520TIP3   OH232194   4.259   5.708   8.606 -0.3741  0.3398  0.6393
 3520TIP3    H132195   4.307   5.789   8.625  0.7231  0.0365 -0.6255
 3520TIP3    H232196   4.188   5.735   8.548 -0.6985  0.5528  1.1331
 3521TIP3   OH232197   6.698   2.892   2.876  0.2161 -0.4326  0.2747
 3521TIP3    H132198   6.752   2.826   2.920  1.3210 -0.5373 -1.1368
 3521TIP3    H232199   6.734   2.976   2.906 -1.6302 -0.3679  2.6044
 3522TIP3   OH232200   2.378   6.265   8.505 -0.0449  0.5030 -0.4702
 3522TIP3    H132201   2.412   6.256   8.593  0.1445 -0.2504 -0.6113
 3522TIP3    H232202   2.453   6.248   8.448 -0.6715 -1.4712 -0.7827
 3523TIP3   OH232203   6.541   5.609   2.178  0.4626 -0.6973  0.0413
 3523TIP3    H132204   6.624   5.601   2.130  1.4895 -0.2121  1.6255
 3523TIP3    H232205   6.548   5.695   2.220 -0.4669 -1.0339  0.8956
 3524TIP3   OH232206   3.863   6.370   7.581 -0.0686 -1.1084  0.2535
 3524TIP3    H132207   3.888   6.461   7.598 -1.2364 -0.4736 -1.2033
 3524TIP3    H232208   3.934   6.318   7.620  0.3581  0.3842  1.5605
 3525TIP3   OH232209   3.773   6.699   7.472  0.0016  0.4513 -0.1391
 3525TIP3    H132210   3.742   6.643   7.401 -0.8559  2.0325 -1.0536
 3525TIP3    H232211   3.866   6.713   7.453  0.3626 -1.0121  0.3818
 3526TIP3   OH232212   1.429   3.088   8.026 -0.0546 -0.9474 -0.6647
 3526TIP3    H132213   1.349   3.071   7.976 -0.9079  0.8080  0.0135
 3526TIP3    H232214   1.400   3.094   8.117  1.0834 -1.6123 -0.2327
 3527TIP3   OH232215   3.378   4.939   1.882 -0.5141  0.4834 -0.2944
 3527TIP3    H132216   3.465   4.957   1.918 -1.0599 -1.9718  2.6808
 3527TIP3    H232217   3.387   4.856   1.836 -0.8357  1.3781 -2.0287
 3528TIP3   OH232218   1.346   0.512   8.096  0.5638  0.8011  0.6427
 3528TIP3    H132219   1.257   0.478   8.092  0.7779  0.3427 -0.6851
 3528TIP3    H232220   1.352   0.574   8.023  1.9009 -0.6598 -0.5756
 3529TIP3   OH232221   1.861   5.771   8.315  0.7273 -0.2056 -0.3534
 3529TIP3    H132222   1.857   5.768   8.411 -1.0181 -1.7402 -0.4003
 3529TIP3    H232223   1.888   5.682   8.290 -0.2454 -0.2606 -1.2828
 3530TIP3   OH232224   6.615   5.834   8.108  0.1006 -0.3156 -0.2243
 3530TIP3    H132225   6.673   5.888   8.054  0.6581 -0.2735  0.4089
 3530TIP3    H232226   6.659   5.749   8.112  0.2317 -0.2257  0.4177
 3531TIP3   OH232227   0.796   3.307   1.362 -0.8051 -0.0787  0.5453
 3531TIP3    H132228   0.853   3.365   1.412 -1.3756 -1.0598  2.4338
 3531TIP3    H232229   0.802   3.339   1.272  0.5859  1.5098  1.1496
 3532TIP3   OH232230   3.460   1.933   1.283 -0.2757 -0.7489  0.1884
 3532TIP3    H132231   3.387   1.930   1.344 -0.5574 -0.1908 -0.1196
 3532TIP3    H232232   3.440   2.006   1.225  1.1024  0.1936  0.8355
 3533TIP3   OH232233   6.618   1.135   2.915  0.2246  0.4991  0.8569
 3533TIP3    H132234   6.665   1.211   2.881 -0.1161  0.7632  0.9694
 3533TIP3    H232235   6.544   1.172   2.963  0.0650  0.0965  0.9262
 3534TIP3   OH232236   3.988   2.891   7.153  0.1000 -0.5044 -0.1067
 3534TIP3    H132237   3.902   2.931   7.166 -0.1963 -0.9339 -0.7003
 3534TIP3    H232238   4.040   2.960   7.111 -0.2768 -0.5880 -0.7224
 3535TIP3   OH232239   4.998   5.547   7.190  0.5001 -0.1866  0.4004
 3535TIP3    H132240   4.935   5.605   7.147  1.6599  0.8738  0.0638
 3535TIP3    H232241   4.954   5.462   7.195 -1.2603  0.7073  0.9119
 3536TIP3   OH232242   3.277   6.387   1.662 -0.0779  0.8494 -0.3164
 3536TIP3    H132243   3.212   6.455   1.681 -0.2986  0.4708  0.3279
 3536TIP3    H232244   3.294   6.347   1.747 -1.0880 -0.9177 -0.9072
 3537TIP3   OH232245   4.762   4.673   2.573 -0.4057  0.6680 -0.1462
 3537TIP3    H132246   4.857   4.677   2.581 -0.5276  2.2993  1.1098
 3537TIP3    H232247   4.739   4.587   2.606  0.5895  0.5734  0.3456
 3538TIP3   OH232248   4.852   2.147   2.013  0.0073  0.0921  0.2977
 3538TIP3    H132249   4.887   2.058   2.008 -1.2063 -0.5627  2.3013
 3538TIP3    H232250   4.774   2.145   1.958  0.4350  0.2092 -0.3409
 3539TIP3   OH232251   5.539   5.262   1.385 -0.1513 -0.2096 -0.2191
 3539TIP3    H132252   5.584   5.255   1.300 -1.2847  0.1969 -0.8824
 3539TIP3    H232253   5.454   5.220   1.370 -0.9516  1.1721  0.2711
 3540TIP3   OH232254   3.743   2.970   7.218 -0.2262  0.0046 -0.5385
 3540TIP3    H132255   3.682   2.990   7.148  0.1948 -0.3657 -1.0194
 3540TIP3    H232256   3.706   3.012   7.296 -0.5321  0.6847 -1.0484
 3541TIP3   OH232257   4.961   4.613   0.620 -0.4137 -0.0930 -0.5268
 3541TIP3    H132258   4.930   4.601   0.530 -0.5404  1.1759 -0.6767
 3541TIP3    H232259   4.915   4.546   0.671 -3.1964  1.4423 -0.7939
 3542TIP3   OH232260   0.283   3.718   0.224 -0.1173 -0.2371 -0.2386
 3542TIP3    H132261   0.317   3.704   0.312  0.0848  0.4414 -0.2070
 3542TIP3    H232262   0.188   3.705   0.233 -0.3860  1.9150  0.5367
 3543TIP3   OH232263   4.437   6.650   8.886  0.0069 -0.0911 -0.4146
 3543TIP3    H132264   4.486   6.645   8.968 -0.7403  0.5492  0.0877
 3543TIP3    H232265   4.502   6.632   8.818  0.8656  0.4407  0.2498
 3544TIP3   OH232266   2.620   4.780   0.210 -0.0106 -0.0761 -0.1246
 3544TIP3    H132267   2.591   4.761   0.299 -1.2982  0.6616 -0.3524
 3544TIP3    H232268   2.715   4.778   0.214 -0.0262  0.9442  1.4992
 3545TIP3   OH232269   6.504   1.426   1.111 -0.1114  0.1948  0.1782
 3545TIP3    H132270   6.513   1.462   1.023  0.3684  1.5555  0.7625
 3545TIP3    H232271   6.594   1.412   1.140 -0.2195  1.1098  0.9845
 3546TIP3   OH232272   3.208   6.322   8.838  0.4273 -0.4015  0.2184
 3546TIP3    H132273   3.200   6.315   8.743 -0.2700  1.2006  0.1212
 3546TIP3    H232274   3.238   6.411   8.853  2.9896 -1.3652  1.4242
 3547TIP3   OH232275   1.068   3.048   8.820  0.2796  0.2379 -0.4343
 3547TIP3    H132276   1.161   3.027   8.817  0.0429 -0.7912 -0.9291
 3547TIP3    H232277   1.048   3.083   8.733 -0.0938 -0.9536 -0.8548
 3548TIP3   OH232278   4.862   3.206   7.587  0.8893 -0.1757  0.5070
 3548TIP3    H132279   4.821   3.121   7.567 -0.9475  1.0153 -1.0935
 3548TIP3    H232280   4.954   3.193   7.568  0.4720 -1.5217 -0.8068
 3549TIP3   OH232281   4.723   4.066   8.407 -0.0984  0.6386 -0.1636
 3549TIP3    H132282   4.632   4.036   8.415  0.0737 -0.1639 -0.9388
 3549TIP3    H232283   4.727   4.106   8.320 -0.0028  1.7847  0.3559
 3550TIP3   OH232284   5.828   5.748   7.597 -0.2268 -0.0606  0.1019
 3550TIP3    H132285   5.771   5.789   7.532 -1.5700 -2.4938 -0.3403
 3550TIP3    H232286   5.915   5.750   7.556 -0.5539  0.8511 -0.5878
 3551TIP3   OH232287   1.263   0.277   0.752  0.1538 -0.2161  0.2881
 3551TIP3    H132288   1.283   0.370   0.750 -0.8990  0.0045 -1.0420
 3551TIP3    H232289   1.208   0.262   0.675 -0.9108 -1.6513  1.2659
 3552TIP3   OH232290   3.250   3.003   7.194 -0.3974 -0.8605 -0.1434
 3552TIP3    H132291   3.340   2.977   7.215  0.1971  1.9289  1.1508
 3552TIP3    H232292   3.197   2.930   7.224  1.3600 -2.3047 -0.3565
 3553TIP3   OH232293   1.535   3.564   0.735  0.2035  0.0583 -0.2700
 3553TIP3    H132294   1.623   3.527   0.747  0.1705 -0.9444 -2.7098
 3553TIP3    H232295   1.490   3.543   0.817  2.1802  0.5471  1.0304
 3554TIP3   OH232296   4.997   5.630   8.769 -0.5035 -0.3665 -0.1739
 3554TIP3    H132297   5.070   5.665   8.820 -1.3267 -1.4263  1.8465
 3554TIP3    H232298   5.033   5.552   8.727 -0.1164 -0.1130 -0.3220
 3555TIP3   OH232299   2.619   2.109   0.095  0.4627  0.2764 -0.3599
 3555TIP3    H132300   2.564   2.089   0.170 -1.6417 -0.3320 -1.9910
 3555TIP3    H232301   2.603   2.201   0.078  1.0795  0.4602  0.0022
 3556TIP3   OH232302   1.514   2.473   7.210 -0.0852  0.5366  0.3298
 3556TIP3    H132303   1.435   2.527   7.207 -0.8224 -0.5147  0.2829
 3556TIP3    H232304   1.558   2.490   7.127 -2.0940 -1.4927 -1.2776
 3557TIP3   OH232305   3.831   3.138   8.161 -0.1894  0.2093  0.7541
 3557TIP3    H132306   3.919   3.174   8.159 -0.2061  0.3633  1.9883
 3557TIP3    H232307   3.807   3.138   8.254 -0.7851 -1.5292  0.6399
 3558TIP3   OH232308   0.106   2.522   8.893  0.0909 -0.2303 -0.3513
 3558TIP3    H132309   0.184   2.510   8.838 -0.3575 -1.1613 -0.7984
 3558TIP3    H232310   0.058   2.593   8.851  1.0164  0.8410  0.3182
 3559TIP3   OH232311   0.137   5.374   1.968  0.0808 -0.1139 -0.3733
 3559TIP3    H132312   0.219   5.419   1.985  0.6430 -0.9162 -0.9236
 3559TIP3    H232313   0.120   5.388   1.875  0.5108 -1.4247 -0.6637
 3560TIP3   OH232314   3.014   1.219   0.332 -1.1231  0.2456  0.0658
 3560TIP3    H132315   2.972   1.161   0.396 -1.6636  0.5399 -0.0109
 3560TIP3    H232316   2.986   1.307   0.358 -0.6164  0.4402 -0.0414
 3561TIP3   OH232317   6.279   3.252   6.487 -0.1639  0.0037 -0.0411
 3561TIP3    H132318   6.242   3.300   6.561 -1.0358  2.4066 -1.8822
 3561TIP3    H232319   6.267   3.311   6.412  0.5208 -2.3527 -2.1492
 3562TIP3   OH232320   1.760   3.693   1.683  0.1814 -0.1497  0.2458
 3562TIP3    H132321   1.826   3.726   1.743  1.3728 -2.5716  0.3734
 3562TIP3    H232322   1.770   3.746   1.604  2.0308 -0.1835  0.4163
 3563TIP3   OH232323   0.720   6.146   2.126  0.1261  0.2266  0.0326
 3563TIP3    H132324   0.790   6.156   2.062  0.2303  4.0522  0.5442
 3563TIP3    H232325   0.752   6.189   2.204 -2.1755  0.6497  0.8202
 3564TIP3   OH232326   0.280   4.129   2.315  0.3198 -0.2997 -0.2570
 3564TIP3    H132327   0.262   4.191   2.385  0.8588 -1.3415  0.8376
 3564TIP3    H232328   0.214   4.060   2.327  0.6572 -0.6770 -0.5222
 3565TIP3   OH232329   5.980   4.314   3.174 -0.2281 -0.4246  0.1048
 3565TIP3    H132330   5.926   4.392   3.180 -0.7907 -0.8762  1.0036
 3565TIP3    H232331   5.975   4.288   3.082  0.3024  0.8234 -0.2929
 3566TIP3   OH232332   5.236   2.270   0.877 -0.3034  0.2330  0.1258
 3566TIP3    H132333   5.141   2.282   0.868 -0.0117  1.7186 -1.4125
 3566TIP3    H232334   5.274   2.325   0.809  1.6547 -1.2567 -0.0696
 3567TIP3   OH232335   0.211   4.222   0.958  0.6848 -0.4903  0.1279
 3567TIP3    H132336   0.173   4.217   1.046 -0.8465 -2.5249 -0.5711
 3567TIP3    H232337   0.231   4.315   0.946 -0.7921  0.1298  1.9398
 3568TIP3   OH232338   3.518   4.351   1.942  0.5970  0.3187  0.4069
 3568TIP3    H132339   3.592   4.296   1.914  0.3497  0.1249  0.1259
 3568TIP3    H232340   3.454   4.289   1.977  0.5427  0.4826  0.6000
 3569TIP3   OH232341   6.401   1.592   0.473  0.1328  0.2799  0.0646
 3569TIP3    H132342   6.397   1.521   0.536 -2.5078  0.8777  0.6817
 3569TIP3    H232343   6.482   1.576   0.424 -0.0614 -2.7970  0.5455
 3570TIP3   OH232344   5.052   0.100   0.596 -0.2631  0.5278  0.4835
 3570TIP3    H132345   5.140   0.061   0.595 -0.4505 -0.0515  2.4248
 3570TIP3    H232346   5.038   0.126   0.687 -1.1265  2.9805 -0.2610
 3571TIP3   OH232347   5.735   0.964   0.774  0.1731  0.1298 -0.0948
 3571TIP3    H132348   5.827   0.962   0.799 -0.0916  0.4507  0.9812
 3571TIP3    H232349   5.732   0.924   0.687  1.4965  1.2743 -0.7069
 3572TIP3   OH232350   6.770   2.264   8.616 -0.4029 -0.0290 -0.2192
 3572TIP3    H132351   6.836   2.218   8.667 -1.0461 -0.5309  0.1793
 3572TIP3    H232352   6.812   2.283   8.532  0.2283 -0.3621  0.0181
 3573TIP3   OH232353   0.103   3.438   1.548  0.2247 -0.3328 -0.0857
 3573TIP3    H132354   0.137   3.433   1.459  1.1516  1.2475  0.1471
 3573TIP3    H232355   0.048   3.516   1.549 -0.0012 -0.4886  0.6687
 3574TIP3   OH232356   6.494   0.165   2.250  0.1318  0.2533  0.9381
 3574TIP3    H132357   6.577   0.181   2.295 -0.5035 -0.1829  2.3035
 3574TIP3    H232358   6.436   0.130   2.317 -0.1566 -2.7884 -0.7176
 3575TIP3   OH232359   3.946   2.259   0.154 -0.2023  0.3264  0.4062
 3575TIP3    H132360   3.902   2.341   0.177  0.8127  1.1790 -0.5642
 3575TIP3    H232361   3.885   2.215   0.095 -0.7599  0.3627  0.9406
 3576TIP3   OH232362   1.024   5.171   8.748 -0.1651 -0.5620  0.5044
 3576TIP3    H132363   1.072   5.126   8.679  0.6512 -2.0340  1.9678
 3576TIP3    H232364   0.961   5.107   8.780 -0.0833 -0.1439  1.5580
 3577TIP3   OH232365   4.382   2.732   0.804  0.4652 -0.1422 -0.1026
 3577TIP3    H132366   4.392   2.663   0.739 -0.3937 -0.6693  0.2975
 3577TIP3    H232367   4.294   2.767   0.789  0.9643  1.0331 -0.4398
 3578TIP3   OH232368   1.027   1.799   8.625 -0.3931 -0.2774 -0.1339
 3578TIP3    H132369   0.949   1.789   8.679 -1.3848  1.4798 -1.1619
 3578TIP3    H232370   1.012   1.878   8.574  1.5236 -0.5786 -1.2940
 3579TIP3   OH232371   5.318   1.698   0.975 -0.3045 -0.0445 -0.1204
 3579TIP3    H132372   5.391   1.686   0.914  0.7852 -0.0690  1.1552
 3579TIP3    H232373   5.292   1.789   0.962 -1.5867 -0.6303 -2.1905
 3580TIP3   OH232374   4.092   2.590   8.533 -0.3144  0.5207  0.4375
 3580TIP3    H132375   4.130   2.568   8.618  0.3858  0.2116  0.0567
 3580TIP3    H232376   4.108   2.684   8.523  0.7375  0.3238  0.1113
 3581TIP3   OH232377   0.786   5.972   7.779  0.5191 -0.2811  0.2267
 3581TIP3    H132378   0.833   5.943   7.857  0.9889 -0.7952 -0.2389
 3581TIP3    H232379   0.851   6.021   7.728 -0.3734  2.1109  1.2304
 3582TIP3   OH232380   2.879   3.597   0.405 -0.1050 -0.1303  0.2603
 3582TIP3    H132381   2.921   3.683   0.411 -0.6366  0.0287  3.3988
 3582TIP3    H232382   2.845   3.581   0.493 -2.1211 -2.5299 -0.8456
 3583TIP3   OH232383   1.214   0.072   1.576  0.5295  0.8558 -0.1543
 3583TIP3    H132384   1.238  -0.020   1.566  0.1128  0.5923  1.0992
 3583TIP3    H232385   1.251   0.098   1.660  0.1570  1.6741 -0.2268
 3584TIP3   OH232386   6.535   5.283   0.589  0.4684 -0.1437 -1.0255
 3584TIP3    H132387   6.596   5.279   0.516  1.1166  0.8516 -0.5645
 3584TIP3    H232388   6.546   5.371   0.624 -1.9713  0.4224 -1.5370
 3585TIP3   OH232389   4.557   0.212   0.154 -0.4181 -0.3623 -0.0141
 3585TIP3    H132390   4.582   0.260   0.233 -0.1167 -2.0345  0.9510
 3585TIP3    H232391   4.503   0.140   0.186 -0.5239 -0.9100 -1.3728
 3586TIP3   OH232392   5.796   2.797   8.496 -0.5481 -0.6236 -0.1505
 3586TIP3    H132393   5.856   2.799   8.422 -2.2921  2.5593 -1.7228
 3586TIP3    H232394   5.845   2.836   8.568  0.1405 -0.6310 -0.6080
 3587TIP3   OH232395   0.447   3.999   0.411 -0.3859 -0.0087 -0.0114
 3587TIP3    H132396   0.370   3.957   0.450  0.8366 -2.7088 -0.2639
 3587TIP3    H232397   0.497   3.926   0.373  1.3095  1.8742 -1.5990
 3588TIP3   OH232398   3.192   1.601   8.263 -0.1878  0.1294 -0.3896
 3588TIP3    H132399   3.169   1.552   8.342  0.8585  0.1573 -0.0501
 3588TIP3    H232400   3.214   1.689   8.294 -3.1708  1.2396 -1.1183
 3589TIP3   OH232401   1.348   3.387   2.071 -0.2751 -0.3943 -0.0797
 3589TIP3    H132402   1.349   3.368   2.165  0.2395  0.6640  0.1393
 3589TIP3    H232403   1.262   3.357   2.042 -0.7989  0.0952  0.9063
 3590TIP3   OH232404   1.908   3.854   1.843  0.3561  0.1513 -0.4590
 3590TIP3    H132405   1.892   3.909   1.920 -0.7885 -0.0527 -0.5293
 3590TIP3    H232406   2.003   3.858   1.830  0.7476 -0.7587  1.6748
 3591TIP3   OH232407   6.398   6.537   1.430  0.3054 -0.3771 -0.1889
 3591TIP3    H132408   6.393   6.495   1.515 -0.5662  2.0134  1.0353
 3591TIP3    H232409   6.486   6.575   1.428 -0.4381  1.5629  0.7582
 3592TIP3   OH232410   5.116   1.311   8.302  0.3769  0.0749 -0.1059
 3592TIP3    H132411   5.142   1.355   8.383 -2.3225 -2.4046  2.3178
 3592TIP3    H232412   5.170   1.232   8.299 -0.5826 -0.5997  0.1192
 3593TIP3   OH232413   2.750   2.257   1.612  0.2858  0.2683 -0.0920
 3593TIP3    H132414   2.667   2.266   1.660  1.0003  0.5443  1.1416
 3593TIP3    H232415   2.771   2.347   1.584  0.8232  0.4205  0.7639
 3594TIP3   OH232416   3.054   2.767   7.253  0.3153 -0.5186 -0.4562
 3594TIP3    H132417   3.113   2.721   7.193  1.6777  0.8676 -0.2197
 3594TIP3    H232418   3.013   2.697   7.305 -0.0845 -1.6634 -2.2346
 3595TIP3   OH232419   0.306   0.537   8.539  0.4067 -0.5645  0.2725
 3595TIP3    H132420   0.347   0.537   8.452  0.0463 -4.0161 -0.0168
 3595TIP3    H232421   0.215   0.562   8.523  1.1258  2.4912  0.2890
 3596TIP3   OH232422   6.627   4.516   2.365 -0.0217  0.0025 -0.5933
 3596TIP3    H132423   6.608   4.453   2.296  1.4955  0.0500 -1.1000
 3596TIP3    H232424   6.542   4.537   2.403 -0.7902 -0.6942 -1.8593
 3597TIP3   OH232425   0.434   1.686   1.058 -0.1547 -0.1304 -0.4785
 3597TIP3    H132426   0.464   1.617   1.117 -0.6931 -0.3409 -0.4458
 3597TIP3    H232427   0.513   1.737   1.039 -0.1994  0.7938  1.5590
 3598TIP3   OH232428   6.218   4.237   6.832 -0.4471  0.6581  0.5163
 3598TIP3    H132429   6.208   4.252   6.738 -0.6939  1.2084  0.6212
 3598TIP3    H232430   6.213   4.325   6.870  3.4235  0.9315  0.7392
 3599TIP3   OH232431   1.967   3.905   7.642  0.6921 -0.3252  0.4171
 3599TIP3    H132432   2.054   3.871   7.661  1.4955  0.3420 -1.6989
 3599TIP3    H232433   1.921   3.832   7.602  0.7801 -0.2962  0.2585
 3600TIP3   OH232434   5.634   3.733   7.317  0.3647  0.4003 -0.1796
 3600TIP3    H132435   5.646   3.787   7.239 -1.5847  1.2610  0.0811
 3600TIP3    H232436   5.544   3.702   7.311  0.6166 -0.6393  1.0577
 3601TIP3   OH232437   2.212   0.861   1.324  0.2464  0.5544  0.2959
 3601TIP3    H132438   2.135   0.902   1.363 -0.4484  0.5652 -1.0305
 3601TIP3    H232439   2.236   0.792   1.386 -2.4515 -1.2153 -0.4740
 3602TIP3   OH232440   1.386   2.293   7.450 -0.4253  0.3734  0.4927
 3602TIP3    H132441   1.348   2.260   7.532  2.0669 -0.0554  1.5842
 3602TIP3    H232442   1.461   2.345   7.478  0.5389  0.1602 -1.5296
 3603TIP3   OH232443   3.274   0.747   1.856  0.3531  1.1080  0.0013
 3603TIP3    H132444   3.196   0.692   1.845  0.9857 -0.2441  1.8775
 3603TIP3    H232445   3.347   0.691   1.829  0.8499  1.7255  0.0394
 3604TIP3   OH232446   4.784   6.040   0.309 -0.4912 -0.4065 -0.3090
 3604TIP3    H132447   4.807   5.947   0.301  0.3140 -0.2826  0.3458
 3604TIP3    H232448   4.719   6.055   0.241 -1.3363 -1.6758  0.1821
 3605TIP3   OH232449   4.951   2.478   3.010 -0.0080 -0.1413  0.0294
 3605TIP3    H132450   4.892   2.535   3.059  0.1851  0.8969 -0.9030
 3605TIP3    H232451   5.038   2.514   3.026  0.1875 -0.5807 -0.0353
 3606TIP3   OH232452   3.601   1.819   8.321  0.5829  0.1950  0.1798
 3606TIP3    H132453   3.669   1.812   8.255  1.8807 -0.7656  1.5663
 3606TIP3    H232454   3.612   1.907   8.357  0.4035  0.4191 -0.3045
 3607TIP3   OH232455   5.720   6.291   7.885 -0.3659 -0.5693  0.0022
 3607TIP3    H132456   5.810   6.267   7.866  0.0310  0.5523  0.3477
 3607TIP3    H232457   5.727   6.363   7.949 -1.5658 -2.2645  2.1994
 3608TIP3   OH232458   4.211   5.190   0.916 -0.0105  0.1727 -0.0074
 3608TIP3    H132459   4.116   5.189   0.928 -0.5503  0.2444 -3.4357
 3608TIP3    H232460   4.242   5.113   0.964 -2.0499 -0.9414 -0.3609
 3609TIP3   OH232461   0.468   1.079   0.826  0.7545 -0.1389 -0.0722
 3609TIP3    H132462   0.478   0.985   0.809 -1.1948 -0.2051 -1.0316
 3609TIP3    H232463   0.462   1.119   0.739 -0.3294  0.6392  0.3396
 3610TIP3   OH232464   1.224   4.464   1.653 -0.3060 -0.5374 -0.4936
 3610TIP3    H132465   1.292   4.503   1.709 -0.6382  0.6655 -0.8863
 3610TIP3    H232466   1.183   4.398   1.708 -0.5236  0.5173  0.6672
 3611TIP3   OH232467   4.766   0.842   7.350  0.0500  0.0909  0.1259
 3611TIP3    H132468   4.811   0.922   7.379 -0.8833  0.2450  1.2413
 3611TIP3    H232469   4.781   0.779   7.420 -1.1557  0.0374  0.3525
 3612TIP3   OH232470   3.436   5.343   0.459  0.5799  0.4508 -0.1035
 3612TIP3    H132471   3.479   5.422   0.427  1.6978  0.2228  0.7891
 3612TIP3    H232472   3.468   5.332   0.549 -1.8028  0.5991  0.8383
 3613TIP3   OH232473   0.271   0.032   7.734  0.0340 -0.5475 -0.3346
 3613TIP3    H132474   0.239   0.111   7.691  0.9698  0.7247  1.1644
 3613TIP3    H232475   0.313  -0.018   7.664  0.0861  0.6552 -1.1946
 3614TIP3   OH232476   4.576   2.294   1.232  0.0952  0.1388  0.5890
 3614TIP3    H132477   4.643   2.328   1.292  0.1195  0.1630  0.5481
 3614TIP3    H232478   4.623   2.277   1.151 -0.7025  4.4239 -0.9982
 3615TIP3   OH232479   2.845   4.599   0.780  0.1574 -0.4125 -0.3936
 3615TIP3    H132480   2.881   4.673   0.830 -0.6454  0.0074 -0.4188
 3615TIP3    H232481   2.834   4.634   0.691 -0.9573 -0.3070 -0.2243
 3616TIP3   OH232482   1.308   3.217   8.600 -0.1009  0.1057 -0.6342
 3616TIP3    H132483   1.338   3.158   8.670 -0.4225  0.0495 -0.5412
 3616TIP3    H232484   1.366   3.198   8.527  0.6718  0.6419 -0.1672
 3617TIP3   OH232485   3.996   5.898   7.784  0.4482  0.0507 -0.4433
 3617TIP3    H132486   3.947   5.878   7.705  0.7033 -1.2886 -0.2824
 3617TIP3    H232487   3.982   5.823   7.841 -0.8152  1.5393  1.3542
 3618TIP3   OH232488   1.819   5.855   7.754  0.3534 -0.3331  0.6903
 3618TIP3    H132489   1.872   5.809   7.820  0.5083 -0.8528  0.2125
 3618TIP3    H232490   1.883   5.895   7.695  0.2154 -0.3681  0.5146
 3619TIP3   OH232491   2.672   6.322   1.886 -0.1401  0.4639  0.0859
 3619TIP3    H132492   2.614   6.383   1.841  1.6594  2.0007 -0.2495
 3619TIP3    H232493   2.717   6.374   1.952 -1.2889 -1.3482  2.4702
 3620TIP3   OH232494   4.959   0.681   7.769  0.2316  0.2510 -0.3535
 3620TIP3    H132495   5.004   0.756   7.729  0.2161  0.4099 -0.0844
 3620TIP3    H232496   4.886   0.721   7.818 -0.8412 -0.0838 -1.6212
 3621TIP3   OH232497   2.994   4.115   7.481  0.2998  0.4034  0.2653
 3621TIP3    H132498   3.023   4.172   7.553 -0.0027 -1.1764  1.6839
 3621TIP3    H232499   2.984   4.175   7.407  0.6640  2.0917  1.5026
 3622TIP3   OH232500   2.391   6.352   1.419  0.1678  0.0993 -0.0122
 3622TIP3    H132501   2.455   6.371   1.488  0.4450  1.8409 -0.6851
 3622TIP3    H232502   2.408   6.261   1.394  2.6263  0.5778 -0.3594
 3623TIP3   OH232503   4.099   6.758   2.454  0.3015 -0.2485  0.7411
 3623TIP3    H132504   4.132   6.680   2.409  0.5393  0.5575 -0.5460
 3623TIP3    H232505   4.178   6.799   2.491  0.4114  0.2171  0.0233
 3624TIP3   OH232506   0.136   1.951   7.916  0.3947  0.4809 -0.2344
 3624TIP3    H132507   0.060   1.971   7.971 -0.7448 -2.7487 -0.4356
 3624TIP3    H232508   0.207   1.937   7.979 -0.4687 -1.4106  0.4042
 3625TIP3   OH232509   6.710   5.108   0.058 -0.4913 -0.7385  0.5183
 3625TIP3    H132510   6.635   5.080   0.006  0.8728 -0.4339 -1.7124
 3625TIP3    H232511   6.722   5.200   0.037  1.3293 -1.1137 -0.2858
 3626TIP3   OH232512   0.417   1.625   0.064 -0.5463  0.4120  0.0345
 3626TIP3    H132513   0.348   1.561   0.080 -0.7530  0.4698 -0.6029
 3626TIP3    H232514   0.498   1.579   0.084 -0.7421  0.2123  0.3787
 3627TIP3   OH232515   6.757   3.428   0.123  0.0604  0.1063  0.9906
 3627TIP3    H132516   6.703   3.393   0.194 -0.1885  1.1980  1.3558
 3627TIP3    H232517   6.847   3.426   0.157 -0.0003  0.1782  1.1542
 3628TIP3   OH232518   6.491   0.261   7.378 -0.5061  0.1797  0.2596
 3628TIP3    H132519   6.461   0.268   7.468 -1.9249 -1.0320 -0.0666
 3628TIP3    H232520   6.521   0.349   7.355  1.2174  0.1971  2.3233
 3629TIP3   OH232521   2.858   4.940   7.000  0.1269 -0.2800 -0.3564
 3629TIP3    H132522   2.821   5.027   6.988  0.1623  0.2301  2.4453
 3629TIP3    H232523   2.948   4.955   7.028  0.8714 -1.3473 -2.0219
 3630TIP3   OH232524   6.629   1.856   0.407 -0.2083  0.5771  0.8310
 3630TIP3    H132525   6.589   1.852   0.320  0.6525  1.1891  0.3900
 3630TIP3    H232526   6.694   1.786   0.407 -0.0117  0.7589  0.8764
 3631TIP3   OH232527   2.438   6.594   7.332  0.0016  0.0308 -0.0499
 3631TIP3    H132528   2.461   6.656   7.263  1.9737 -0.5570  0.0138
 3631TIP3    H232529   2.521   6.552   7.354 -1.0941 -1.8252  0.6974
 3632TIP3   OH232530   2.261   5.345   8.904  0.3388 -0.0426  0.6282
 3632TIP3    H132531   2.185   5.308   8.858  1.4136 -2.0007  0.2950
 3632TIP3    H232532   2.297   5.410   8.843  0.0383 -0.5049 -0.0510
 3633TIP3   OH232533   0.375   1.995   7.526  0.5337 -0.1750 -0.4735
 3633TIP3    H132534   0.372   1.967   7.434 -1.7748  0.4525 -0.6741
 3633TIP3    H232535   0.448   2.056   7.530 -0.0289  0.6884 -2.2085
 3634TIP3   OH232536   6.375   5.234   8.582 -0.4723 -0.1669  0.2229
 3634TIP3    H132537   6.367   5.241   8.487 -0.4302  0.9008  0.2856
 3634TIP3    H232538   6.285   5.225   8.613 -0.5315  0.0084  0.1086
 3635TIP3   OH232539   0.968   5.951   2.372 -0.4644 -0.3230 -0.2364
 3635TIP3    H132540   0.891   5.902   2.343 -0.4973  0.1153 -0.9205
 3635TIP3    H232541   0.950   5.973   2.463 -2.3412  1.9948 -1.0652
 3636TIP3   OH232542   5.378   4.414   7.732  0.1013  0.9456 -0.3940
 3636TIP3    H132543   5.408   4.431   7.822 -1.1792  1.1088  0.0138
 3636TIP3    H232544   5.283   4.417   7.737 -0.0238 -0.2250 -1.5428
 3637TIP3   OH232545   5.302   3.882   7.733 -0.3746  0.5916  0.6723
 3637TIP3    H132546   5.311   3.794   7.768 -0.8553 -0.2730 -1.2535
 3637TIP3    H232547   5.233   3.922   7.787  0.4620  0.1306  2.1350
 3638TIP3   OH232548   4.330   5.206   7.537  0.5260 -0.1058  0.0921
 3638TIP3    H132549   4.301   5.235   7.451 -1.0080  0.1996  0.6859
 3638TIP3    H232550   4.339   5.111   7.530 -1.0078 -0.2648 -0.0336
 3639TIP3   OH232551   3.563   3.716   7.106 -0.4028  0.1942  0.4901
 3639TIP3    H132552   3.594   3.636   7.064 -0.9995  0.1177  0.1890
 3639TIP3    H232553   3.642   3.769   7.119 -0.0704 -0.2509  0.2809
 3640TIP3   OH232554   4.636   2.758   8.785 -0.5167 -0.4273  0.2363
 3640TIP3    H132555   4.617   2.847   8.756 -0.3625 -0.9735 -1.6929
 3640TIP3    H232556   4.728   2.759   8.810 -0.7885  0.1829  1.2784
 3641TIP3   OH232557   3.624   6.684   2.120 -0.1251 -0.1237 -0.6120
 3641TIP3    H132558   3.618   6.777   2.141 -1.1480 -0.3926  0.4055
 3641TIP3    H232559   3.712   6.659   2.145  0.3784  0.6999 -1.4963
 3642TIP3   OH232560   1.376   1.251   6.855 -0.4459 -0.0128  0.5743
 3642TIP3    H132561   1.306   1.274   6.794  1.7281 -1.6464 -2.8454
 3642TIP3    H232562   1.357   1.161   6.881 -0.0902 -0.1596  0.3352
 3643TIP3   OH232563   2.483   1.075   0.925 -0.5075  0.1283 -0.3897
 3643TIP3    H132564   2.496   1.019   0.848  0.6707 -0.9802  0.5759
 3643TIP3    H232565   2.455   1.015   0.994  0.6506  0.7288  0.6321
 3644TIP3   OH232566   1.121   5.412   0.597  0.0440  0.6930  0.0536
 3644TIP3    H132567   1.203   5.458   0.612  0.6730 -0.7442  1.3382
 3644TIP3    H232568   1.098   5.432   0.506 -0.1392  4.0740  0.7069
 3645TIP3   OH232569   5.744   0.016   2.474  0.5532  0.0889  0.7493
 3645TIP3    H132570   5.679  -0.053   2.489 -0.2339  1.1896  2.7755
 3645TIP3    H232571   5.725   0.049   2.387 -1.4234  0.1636  1.1787
 3646TIP3   OH232572   5.559   5.390   0.894 -0.5878 -0.4422 -0.0909
 3646TIP3    H132573   5.477   5.398   0.943 -0.4876  0.1477 -0.0157
 3646TIP3    H232574   5.554   5.458   0.827  0.1946  0.1508  0.4386
 3647TIP3   OH232575   1.879   1.972   1.667 -0.2043 -0.3700 -0.7017
 3647TIP3    H132576   1.888   1.879   1.647  1.0316 -0.5428  0.5068
 3647TIP3    H232577   1.896   1.978   1.761 -1.0748  0.9793 -0.6031
 3648TIP3   OH232578   1.887   5.097   1.399 -0.4035  0.3277  0.0046
 3648TIP3    H132579   1.825   5.026   1.417  0.2139 -0.0912  0.5148
 3648TIP3    H232580   1.882   5.110   1.304  1.9697 -2.8098 -0.7152
 3649TIP3   OH232581   0.179   2.519   7.894 -0.5829  0.3625 -0.7213
 3649TIP3    H132582   0.252   2.577   7.871 -0.9922  0.9065 -0.6715
 3649TIP3    H232583   0.157   2.475   7.813  0.4329 -0.5408 -0.5291
 3650TIP3   OH232584   2.978   2.366   1.138  0.4682  0.3168  0.0695
 3650TIP3    H132585   2.889   2.357   1.172 -0.3367 -2.1640 -2.3794
 3650TIP3    H232586   3.028   2.298   1.183  0.8173  0.7600  0.3692
 3651TIP3   OH232587   0.394   5.454   2.933 -0.0259 -0.1135 -0.3364
 3651TIP3    H132588   0.315   5.416   2.972  0.0764 -1.7279 -1.6018
 3651TIP3    H232589   0.450   5.378   2.916  0.8228  0.7780 -1.5787
 3652TIP3   OH232590   3.183   1.159   7.777  0.3900 -0.3917 -0.0422
 3652TIP3    H132591   3.238   1.096   7.824 -0.0806 -0.1157  0.9038
 3652TIP3    H232592   3.244   1.211   7.725  0.8626 -1.0917 -0.2010
 3653TIP3   OH232593   5.709   0.895   8.565  0.2136  0.0410  0.2351
 3653TIP3    H132594   5.773   0.947   8.614 -0.7969  0.9815  0.5961
 3653TIP3    H232595   5.745   0.890   8.476  1.0149  0.1387  0.5454
 3654TIP3   OH232596   0.869   1.054   1.885  0.0117  0.1319 -0.0638
 3654TIP3    H132597   0.788   1.085   1.924  0.2970  0.0633  0.5911
 3654TIP3    H232598   0.900   1.128   1.833 -0.1793  0.3551  0.1341
 3655TIP3   OH232599   2.655   4.163   7.616 -0.1950 -0.2325  0.2511
 3655TIP3    H132600   2.594   4.089   7.615  1.4189 -1.6168 -1.2696
 3655TIP3    H232601   2.735   4.128   7.657  1.5481 -0.2496 -2.8563
 3656TIP3   OH232602   0.122   5.868   2.480  0.8099 -0.1317  0.8047
 3656TIP3    H132603   0.180   5.924   2.429  2.0271 -1.0164  1.1732
 3656TIP3    H232604   0.071   5.928   2.534  2.1530  0.6330  1.2625
 3657TIP3   OH232605   0.780   3.116   8.578 -0.5801 -0.0718 -0.3817
 3657TIP3    H132606   0.801   3.191   8.633 -0.3919 -0.5618  0.2247
 3657TIP3    H232607   0.863   3.096   8.534  0.1626 -1.6750  1.6120
 3658TIP3   OH232608   5.663   0.492   8.030  0.4228  0.2047 -0.8185
 3658TIP3    H132609   5.613   0.463   8.106  2.4284 -0.5827  0.2541
 3658TIP3    H232610   5.656   0.419   7.968 -0.5315  0.5078 -1.0875
 3659TIP3   OH232611   3.796   3.197   2.482 -0.3399 -0.0461  0.1223
 3659TIP3    H132612   3.872   3.152   2.520  0.4253 -1.0945 -2.4486
 3659TIP3    H232613   3.731   3.127   2.470 -0.8469  0.4067  0.2127
 3660TIP3   OH232614   1.387   4.563   7.812  0.4133  0.5435 -0.6646
 3660TIP3    H132615   1.464   4.530   7.766  0.5823  1.3778 -1.0048
 3660TIP3    H232616   1.317   4.563   7.747  0.5480  1.3443 -0.8112
 3661TIP3   OH232617   3.296   2.654   2.535  0.3438  0.0347  0.1279
 3661TIP3    H132618   3.259   2.600   2.605  0.4338  0.3579  0.4281
 3661TIP3    H232619   3.278   2.744   2.563 -0.9290  0.1570 -0.9640
 3662TIP3   OH232620   4.454   1.859   2.399  0.0695 -0.2040 -0.0510
 3662TIP3    H132621   4.493   1.916   2.466 -0.3504  0.1326 -0.0850
 3662TIP3    H232622   4.451   1.773   2.439  0.2533 -0.0991  0.1915
 3663TIP3   OH232623   3.719   0.791   2.261  0.1570  0.0955  0.5892
 3663TIP3    H132624   3.700   0.711   2.211 -0.6732  0.0030  1.0361
 3663TIP3    H232625   3.742   0.759   2.348 -1.8322  0.3879  1.2700
 3664TIP3   OH232626   3.917   1.549   8.256 -0.3961  0.0226 -0.0952
 3664TIP3    H132627   3.969   1.475   8.224  0.4619  0.6075 -0.0948
 3664TIP3    H232628   3.830   1.535   8.220 -0.2316 -0.9698 -0.1238
 3665TIP3   OH232629   6.671   4.805   1.893 -0.2784 -0.1653  0.6345
 3665TIP3    H132630   6.763   4.797   1.868 -0.4653 -0.9688  0.1464
 3665TIP3    H232631   6.670   4.783   1.986  0.3273  2.1735  1.2571
 3666TIP3   OH232632   5.025   2.814   0.148 -0.1073 -0.4650 -0.0046
 3666TIP3    H132633   5.011   2.721   0.129  0.2903 -0.8920  1.6270
 3666TIP3    H232634   5.106   2.837   0.102 -0.4006 -0.8302 -0.7045
 3667TIP3   OH232635   4.017   0.540   7.712 -0.1898 -0.4973 -0.2522
 3667TIP3    H132636   4.109   0.531   7.734 -0.3312 -1.8490 -0.1700
 3667TIP3    H232637   3.971   0.530   7.795 -0.4220  0.2832 -0.2742
 3668TIP3   OH232638   3.082   3.571   7.979 -0.2638  0.2807  0.1054
 3668TIP3    H132639   3.122   3.497   7.933 -0.6436 -0.3885  0.8319
 3668TIP3    H232640   3.127   3.574   8.063 -0.9541  0.2385  0.4794
 3669TIP3   OH232641   0.488   3.933   1.186  0.6127  0.3008  0.3469
 3669TIP3    H132642   0.552   4.002   1.203  1.5876 -0.4182 -0.2894
 3669TIP3    H232643   0.539   3.852   1.189  0.1821 -0.1558 -2.3195
 3670TIP3   OH232644   0.136   3.717   1.292 -0.3135  0.4229  0.1629
 3670TIP3    H132645   0.153   3.726   1.386 -0.7855 -0.4545  0.3420
 3670TIP3    H232646   0.177   3.634   1.268 -2.2408 -0.5779  0.1212
 3671TIP3   OH232647   1.776   6.364   8.708  0.3351 -0.0697  0.0501
 3671TIP3    H132648   1.776   6.321   8.793  0.4846  1.3233  0.7842
 3671TIP3    H232649   1.848   6.322   8.660 -0.4401 -1.6233  0.1791
 3672TIP3   OH232650   4.463   4.294   7.937  0.1339  0.3140  0.2323
 3672TIP3    H132651   4.379   4.248   7.941  1.0125 -1.4121 -0.0751
 3672TIP3    H232652   4.476   4.329   8.025 -0.4662 -0.2366  0.5482
 3673TIP3   OH232653   2.890   2.821   8.653 -0.1613  0.2035  0.1642
 3673TIP3    H132654   2.825   2.762   8.616 -0.6064 -0.1557  1.4549
 3673TIP3    H232655   2.839   2.893   8.689  0.1111 -0.1608  1.3298
 3674TIP3   OH232656   5.707   2.718   0.428 -0.4910  0.2513 -0.6572
 3674TIP3    H132657   5.681   2.724   0.520  2.2985 -0.5380  0.2658
 3674TIP3    H232658   5.800   2.741   0.427 -0.3434 -0.1782 -3.2238
 3675TIP3   OH232659   1.716   2.949   8.396  0.2370 -0.4495 -0.0857
 3675TIP3    H132660   1.700   2.862   8.434 -0.7574  0.1713  1.0015
 3675TIP3    H232661   1.773   2.992   8.459  0.8341 -0.3484 -0.6887
 3676TIP3   OH232662   5.460   6.672   0.161  0.0581  0.2154 -0.4261
 3676TIP3    H132663   5.418   6.746   0.116  0.1453  0.2760 -0.4083
 3676TIP3    H232664   5.527   6.641   0.099  1.0871  1.1450  0.1921
 3677TIP3   OH232665   1.838   5.857   0.866 -0.4137  0.3567 -0.3739
 3677TIP3    H132666   1.752   5.853   0.825 -1.0233  0.6684  0.8288
 3677TIP3    H232667   1.884   5.926   0.817 -1.3219  1.1312 -0.1659
 3678TIP3   OH232668   4.260   1.969   8.289 -0.0254  0.2172  0.1100
 3678TIP3    H132669   4.333   1.914   8.261 -0.4831  0.1328 -0.9508
 3678TIP3    H232670   4.291   2.010   8.370  0.6483 -0.9243  0.4645
 3679TIP3   OH232671   6.271   6.163   0.342  0.5406  0.2066 -0.1833
 3679TIP3    H132672   6.218   6.117   0.276 -1.1794 -0.0696  1.3130
 3679TIP3    H232673   6.290   6.096   0.407  1.1028  0.7788  0.2401
 3680TIP3   OH232674   1.233   0.588   0.820  0.6495 -0.1504  0.3876
 3680TIP3    H132675   1.271   0.652   0.879  0.0064 -1.1484  1.9634
 3680TIP3    H232676   1.165   0.545   0.872 -1.7902  0.6688 -1.8708
 3681TIP3   OH232677   2.382   6.236   2.176 -0.4860  0.1039 -0.4887
 3681TIP3    H132678   2.444   6.303   2.149 -0.0637 -0.1377 -0.1456
 3681TIP3    H232679   2.359   6.259   2.266  0.0703 -0.4924 -0.1806
 3682TIP3   OH232680   1.500   4.298   8.643 -0.2249  0.0247 -0.5258
 3682TIP3    H132681   1.575   4.271   8.591 -0.0363 -0.3977 -0.0483
 3682TIP3    H232682   1.528   4.377   8.689 -0.9313  1.3564 -2.2829
 3683TIP3   OH232683   6.503   3.181   7.386  0.4158  0.6394 -0.8576
 3683TIP3    H132684   6.572   3.121   7.357  0.3776  0.6879 -1.0525
 3683TIP3    H232685   6.457   3.206   7.306 -0.3117  0.0271 -0.6384
 3684TIP3   OH232686   1.859   3.794   8.595  0.3542  0.1432 -0.0150
 3684TIP3    H132687   1.877   3.875   8.546 -1.3173 -1.0550 -2.8837
 3684TIP3    H232688   1.763   3.789   8.597  0.4314 -1.9658 -0.2672
 3685TIP3   OH232689   1.369   6.790   2.202 -0.1716 -0.4283 -0.2291
 3685TIP3    H132690   1.384   6.718   2.140  0.8407  1.3063 -2.1086
 3685TIP3    H232691   1.430   6.858   2.175 -1.7199  1.5155  0.9151
 3686TIP3   OH232692   0.885   4.509   8.745  0.3205  0.5219 -0.1222
 3686TIP3    H132693   0.817   4.526   8.681 -0.1778  0.6876  0.4485
 3686TIP3    H232694   0.910   4.595   8.778  4.1960  1.0918 -3.6853
 3687TIP3   OH232695   6.216   0.392   7.905 -0.0830 -0.5045  0.1400
 3687TIP3    H132696   6.286   0.344   7.862 -1.5763 -0.6286 -2.3586
 3687TIP3    H232697   6.259   0.441   7.975  2.9329  1.2752 -2.7097
 3688TIP3   OH232698   1.480   0.247   8.539 -0.0012  0.0192  0.2243
 3688TIP3    H132699   1.503   0.259   8.446 -0.3195 -0.5041  0.0761
 3688TIP3    H232700   1.463   0.336   8.570 -2.2801  0.0229 -0.8417
 3689TIP3   OH232701   3.040   3.843   8.151  0.2763  0.2135  0.3752
 3689TIP3    H132702   3.018   3.850   8.244 -1.5048 -0.1454  0.0231
 3689TIP3    H232703   3.067   3.752   8.139 -1.2356 -0.2559  0.2519
 3690TIP3   OH232704   5.492   4.008   8.259  0.0864  0.1934 -0.1296
 3690TIP3    H132705   5.436   3.938   8.224  0.7774 -0.8007  0.6744
 3690TIP3    H232706   5.436   4.054   8.322 -0.0665 -0.2879  0.0888
 3691TIP3   OH232707   3.783   2.575   2.647  0.3289 -0.5282  0.1937
 3691TIP3    H132708   3.763   2.565   2.740  0.6378 -1.0177  0.2086
 3691TIP3    H232709   3.846   2.506   2.628 -0.6271 -1.2032 -0.6506
 3692TIP3   OH232710   4.644   6.545   2.841  0.1408  0.5664  0.1144
 3692TIP3    H132711   4.707   6.489   2.795 -0.6086  1.3434 -1.9522
 3692TIP3    H232712   4.674   6.545   2.932  1.6845 -1.0442 -0.3407
 3693TIP3   OH232713   3.558   1.804   6.989  0.0557 -0.0287 -0.3405
 3693TIP3    H132714   3.529   1.713   6.986 -1.2051  0.3187  0.4081
 3693TIP3    H232715   3.636   1.806   6.934 -0.2521 -1.4272 -0.8816
 3694TIP3   OH232716   2.629   5.056   2.866  0.2401 -0.1868 -0.5682
 3694TIP3    H132717   2.698   5.018   2.919 -0.0038  0.6308  0.3739
 3694TIP3    H232718   2.551   5.004   2.887 -0.5501  1.8301  2.1813
 3695TIP3   OH232719   1.652   4.390   2.926 -0.3403 -0.8500 -0.5018
 3695TIP3    H132720   1.594   4.349   2.862 -0.4638 -1.0443 -0.2656
 3695TIP3    H232721   1.629   4.483   2.924  1.9304 -0.2131 -3.1992
 3696TIP3   OH232722   5.697   4.896   2.811  0.3521 -0.1518 -0.4026
 3696TIP3    H132723   5.788   4.908   2.782  0.2039  0.3305 -0.6742
 3696TIP3    H232724   5.676   4.977   2.858 -0.2770  0.1767 -1.2443
 3697TIP3   OH232725   6.650   4.079   8.033  0.2081  0.0514  0.4871
 3697TIP3    H132726   6.629   4.033   7.952 -0.1824 -2.1638  1.7719
 3697TIP3    H232727   6.592   4.041   8.099  2.2694 -0.0865  2.3537
 3698TIP3   OH232728   4.263   2.437   0.876 -0.2472  0.2366  0.1350
 3698TIP3    H132729   4.315   2.440   0.956 -1.7766  0.1627  1.1808
 3698TIP3    H232730   4.216   2.520   0.875 -1.6934 -0.5502  0.3566
 3699TIP3   OH232731   0.111   0.485   0.022  0.0531 -0.3573  0.0349
 3699TIP3    H132732   0.035   0.478   0.079 -0.0284  1.0760  0.1324
 3699TIP3    H232733   0.186   0.464   0.078 -0.1187  0.0227  0.4125
 3700TIP3   OH232734   3.104   0.545   1.802  0.2059 -0.3198  0.5411
 3700TIP3    H132735   3.183   0.519   1.754 -0.3036 -2.4244  0.7819
 3700TIP3    H232736   3.036   0.486   1.771 -0.8122  0.1376  1.8190
 3701TIP3   OH232737   5.287   0.677   7.849  0.2198 -0.6002  0.0472
 3701TIP3    H132738   5.286   0.773   7.850 -2.0880 -0.5836  0.3358
 3701TIP3    H232739   5.380   0.655   7.849  0.8264  1.6280  0.9918
 3702TIP3   OH232740   0.133   0.043   0.724  0.3761  0.2171 -0.0414
 3702TIP3    H132741   0.118  -0.021   0.655  0.3281  1.3757 -1.1343
 3702TIP3    H232742   0.225   0.068   0.715 -0.0906  1.7391 -0.9248
 3703TIP3   OH232743   4.701   1.338   7.692  0.4475  0.6636 -0.1552
 3703TIP3    H132744   4.682   1.254   7.649  1.1340 -0.2707  1.2835
 3703TIP3    H232745   4.628   1.395   7.667  0.6387  0.0716 -2.2281
 3704TIP3   OH232746   5.393   0.603   1.598 -0.0045  0.6992  0.0760
 3704TIP3    H132747   5.462   0.664   1.622  1.2533 -0.0793 -1.3994
 3704TIP3    H232748   5.327   0.657   1.555  1.1418  1.0430 -1.3141
 3705TIP3   OH232749   4.550   5.014   7.550 -0.0125  0.1224 -0.0774
 3705TIP3    H132750   4.496   5.025   7.629  0.9164  0.0022  0.5926
 3705TIP3    H232751   4.610   5.088   7.552  1.2670 -0.8733  0.3709
 3706TIP3   OH232752   2.751   3.828   0.234  0.4549  0.2760  0.5907
 3706TIP3    H132753   2.801   3.897   0.278 -1.0849  1.0354  1.2309
 3706TIP3    H232754   2.756   3.753   0.294  0.4033  0.5224  0.9077
 3707TIP3   OH232755   0.094   5.990   8.360  0.3314  0.8349 -0.5546
 3707TIP3    H132756   0.077   5.937   8.282 -0.4410 -0.0789  0.2077
 3707TIP3    H232757   0.025   6.056   8.360 -1.6423 -1.0911  0.9821
 3708TIP3   OH232758   6.470   0.696   7.913  0.3933 -0.1822  0.1529
 3708TIP3    H132759   6.411   0.646   7.969 -0.2624  1.3908  0.9500
 3708TIP3    H232760   6.428   0.782   7.906  2.3479  0.8335  0.3088
 3709TIP3   OH232761   3.783   6.566   0.572  0.0085 -0.5549 -0.0869
 3709TIP3    H132762   3.832   6.606   0.643  0.5286 -3.8006  1.5601
 3709TIP3    H232763   3.747   6.641   0.523  0.0431  1.8693  3.2268
 3710TIP3   OH232764   2.531   4.403   1.303  0.2396 -0.4358 -0.1087
 3710TIP3    H132765   2.546   4.357   1.221 -0.8542 -1.6246  0.3239
 3710TIP3    H232766   2.614   4.447   1.322  1.9256 -3.4942  0.2343
 3711TIP3   OH232767   6.188   5.588   0.657  0.0708 -0.4846 -0.8487
 3711TIP3    H132768   6.186   5.510   0.601 -0.2651 -0.5166 -0.7931
 3711TIP3    H232769   6.278   5.620   0.650  1.1310 -2.6342  1.5279
 3712TIP3   OH232770   5.879   4.509   7.735  0.5194  0.1464 -0.1339
 3712TIP3    H132771   5.903   4.459   7.813 -0.2812 -0.9853 -0.5888
 3712TIP3    H232772   5.785   4.522   7.742  0.9282  3.4679  1.0066
 3713TIP3   OH232773   4.155   1.836   2.259  0.5232 -0.4116 -0.7316
 3713TIP3    H132774   4.179   1.807   2.347 -0.2281  1.7794  0.2679
 3713TIP3    H232775   4.065   1.806   2.247  0.0345  0.7385 -0.0389
 3714TIP3   OH232776   6.118   4.577   2.158 -0.5114 -0.4724 -0.6439
 3714TIP3    H132777   6.043   4.610   2.207 -0.6186 -0.4518 -0.8191
 3714TIP3    H232778   6.193   4.593   2.215 -0.6595 -0.6326 -0.4073
 3715TIP3   OH232779   2.516   5.304   8.249  0.4063  0.0372  0.0522
 3715TIP3    H132780   2.561   5.388   8.257 -0.3883  0.8148 -2.5004
 3715TIP3    H232781   2.437   5.324   8.198  0.3946 -2.2800 -0.9832
 3716TIP3   OH232782   3.336   2.650   8.210 -0.4860  0.0109  0.2082
 3716TIP3    H132783   3.324   2.617   8.299  1.4021  0.8802  0.8259
 3716TIP3    H232784   3.296   2.737   8.211  0.4001  0.4221  0.5056
 3717TIP3   OH232785   0.799   0.070   0.878  0.1704  0.3259 -0.4082
 3717TIP3    H132786   0.725   0.028   0.922 -0.2506  0.1039 -1.3159
 3717TIP3    H232787   0.773   0.163   0.872  0.1762  0.3348 -0.3016
 3718TIP3   OH232788   0.783   3.946   1.399 -0.0341 -0.3072 -0.3128
 3718TIP3    H132789   0.864   3.994   1.416 -0.4225  0.6707 -1.0977
 3718TIP3    H232790   0.794   3.862   1.443  1.4202 -0.2021 -0.4515
 3719TIP3   OH232791   0.207   0.685   0.761  0.0651 -0.8426 -0.2023
 3719TIP3    H132792   0.131   0.659   0.709 -0.6120 -1.5338  1.0631
 3719TIP3    H232793   0.186   0.655   0.850  0.5799  1.4604  0.7617
 3720TIP3   OH232794   3.347   6.556   8.055  0.8891 -0.0081 -0.4641
 3720TIP3    H132795   3.321   6.596   7.972  2.6794  0.1084 -1.0110
 3720TIP3    H232796   3.348   6.628   8.118 -0.2744 -0.0612 -0.3595
 3721TIP3   OH232797   6.414   0.832   0.867 -0.0830 -0.3560 -0.1244
 3721TIP3    H132798   6.403   0.858   0.958 -2.0075  0.0236 -0.4388
 3721TIP3    H232799   6.491   0.775   0.868  0.2690  0.0915  1.6269
 3722TIP3   OH232800   6.580   4.512   0.591 -0.2048  0.1027  0.4796
 3722TIP3    H132801   6.609   4.466   0.670 -1.8264 -0.9412  0.5067
 3722TIP3    H232802   6.658   4.516   0.536  0.5975 -0.4072  1.5437
 3723TIP3   OH232803   5.127   1.421   1.139  0.3129  0.3110  0.6159
 3723TIP3    H132804   5.059   1.356   1.159  1.3174 -1.4212 -1.2105
 3723TIP3    H232805   5.078   1.499   1.111 -0.9678 -0.9517 -0.8477
 3724TIP3   OH232806   5.394   1.477   1.838  0.5071 -0.0442  0.7194
 3724TIP3    H132807   5.393   1.573   1.832  2.4177  0.1119  1.8470
 3724TIP3    H232808   5.326   1.457   1.902  0.8301  0.6713  1.3084
 3725TIP3   OH232809   3.169   3.366   1.538  0.2860 -0.0370  0.5366
 3725TIP3    H132810   3.134   3.385   1.625  0.9145 -0.4800  0.8888
 3725TIP3    H232811   3.131   3.434   1.482 -0.0290  0.3219  1.1755
 3726TIP3   OH232812   4.431   5.954   8.409 -0.8685  0.4841 -0.2425
 3726TIP3    H132813   4.501   6.000   8.363  0.2701 -1.5976 -0.6776
 3726TIP3    H232814   4.385   5.905   8.341 -0.1165 -1.4216  0.5441
 3727TIP3   OH232815   2.830   4.489   0.158 -0.7835  0.0157  0.5741
 3727TIP3    H132816   2.885   4.414   0.179  1.6569  1.0215 -1.6910
 3727TIP3    H232817   2.881   4.565   0.186 -1.1396  0.9760 -1.2343
 3728TIP3   OH232818   3.736   3.476   1.470  0.2413  0.5956 -0.4362
 3728TIP3    H132819   3.790   3.540   1.424  0.6305 -0.4412 -1.4629
 3728TIP3    H232820   3.672   3.447   1.405  0.3089 -0.3340 -0.1027
 3729TIP3   OH232821   1.061   2.790   0.264 -0.2602  0.5349  0.3453
 3729TIP3    H132822   1.009   2.768   0.341 -0.3457  1.5749  0.6023
 3729TIP3    H232823   1.023   2.872   0.232 -0.7237 -0.2537 -1.2695
 3730TIP3   OH232824   3.042   1.633   2.094  0.9665  0.9276  0.8155
 3730TIP3    H132825   2.962   1.591   2.063  0.3526  0.9847  2.2240
 3730TIP3    H232826   3.070   1.690   2.022 -1.0539  1.9722  0.7956
 3731TIP3   OH232827   3.897   4.959   8.161  0.6387  0.3677 -0.0833
 3731TIP3    H132828   3.806   4.987   8.163  0.8980  1.3905 -1.3006
 3731TIP3    H232829   3.893   4.865   8.144 -0.1862  0.3936 -0.0568
 3732TIP3   OH232830   5.092   6.426   1.385  0.7908  0.1915 -0.0882
 3732TIP3    H132831   5.082   6.512   1.425 -0.2894 -0.1895  0.5072
 3732TIP3    H232832   5.057   6.436   1.296  0.0816  0.2146  0.1912
 3733TIP3   OH232833   1.379   2.043   8.599  0.6435 -0.3856  0.0429
 3733TIP3    H132834   1.400   1.967   8.544 -0.7089 -0.8521  0.1105
 3733TIP3    H232835   1.284   2.052   8.591  0.6860  0.8225  0.6766
 3734TIP3   OH232836   6.207   5.736   1.017 -0.3835 -0.6567  0.0864
 3734TIP3    H132837   6.271   5.799   1.051 -0.5371 -0.5190  0.1217
 3734TIP3    H232838   6.123   5.781   1.024 -0.4395 -0.6955 -0.3073
 3735TIP3   OH232839   4.564   3.502   7.422  0.1264 -0.3521  0.5813
 3735TIP3    H132840   4.614   3.478   7.500 -3.0801  2.1225  3.7347
 3735TIP3    H232841   4.482   3.452   7.430 -1.2350  1.6868  0.2231
 3736TIP3   OH232842   4.002   4.165   8.123 -0.1447  0.3144  0.4170
 3736TIP3    H132843   3.926   4.168   8.064 -0.8621 -2.0390  1.1084
 3736TIP3    H232844   3.976   4.217   8.199 -1.3627 -0.9593  0.9161
 3737TIP3   OH232845   4.275   5.824   8.223 -0.3370 -0.1253 -0.1386
 3737TIP3    H132846   4.181   5.836   8.212 -0.1121  1.6048 -0.4898
 3737TIP3    H232847   4.309   5.824   8.134 -0.0010 -0.8569 -0.0182
 3738TIP3   OH232848   1.505   0.768   1.057 -0.2705  0.0248  0.2571
 3738TIP3    H132849   1.475   0.779   1.147  1.7374  0.7428  0.8785
 3738TIP3    H232850   1.442   0.817   1.004  0.8638  3.2906  1.7195
 3739TIP3   OH232851   3.818   3.100   7.792 -0.0605 -0.5032  0.2689
 3739TIP3    H132852   3.819   3.030   7.856 -1.2789  0.7159  1.6901
 3739TIP3    H232853   3.888   3.160   7.820  1.2712 -1.2883 -1.1841
 3740TIP3   OH232854   1.682   3.020   7.828 -0.2113  0.4093  0.0069
 3740TIP3    H132855   1.760   3.025   7.884 -0.3300 -1.2997  0.3867
 3740TIP3    H232856   1.609   3.010   7.890 -0.5150  0.0884 -0.3943
 3741TIP3   OH232857   4.438   2.043   2.121 -0.3748 -0.2975 -0.2575
 3741TIP3    H132858   4.373   2.103   2.156 -0.4818  0.7262 -2.0996
 3741TIP3    H232859   4.522   2.080   2.148 -0.4543  0.4872 -1.0419
 3742TIP3   OH232860   2.490   6.092   1.232  0.1086  0.1782 -0.3352
 3742TIP3    H132861   2.478   6.018   1.291  1.0270  0.4975  0.2722
 3742TIP3    H232862   2.406   6.101   1.188 -0.1899 -0.8771 -0.0210
 3743TIP3   OH232863   4.805   4.069   1.846  0.1685 -0.2172  0.0925
 3743TIP3    H132864   4.898   4.081   1.862  0.2963  0.5466 -1.0655
 3743TIP3    H232865   4.780   3.997   1.903  1.5777 -0.7610  0.0735
 3744TIP3   OH232866   2.021   3.432   2.789  0.3053 -0.5025 -0.9311
 3744TIP3    H132867   1.994   3.506   2.736  1.9503  0.8494  0.0036
 3744TIP3    H232868   2.076   3.470   2.857  1.8084 -2.6693 -0.8276
 3745TIP3   OH232869   4.559   4.499   8.604 -0.2821  0.3623  0.7629
 3745TIP3    H132870   4.610   4.429   8.646 -0.5398 -0.1529  0.2359
 3745TIP3    H232871   4.621   4.571   8.595  0.4983 -0.4134 -0.2765
 3746TIP3   OH232872   2.141   3.022   1.336 -0.3180  0.2132  0.0410
 3746TIP3    H132873   2.066   3.012   1.277 -1.2995 -3.7113  1.5783
 3746TIP3    H232874   2.216   3.037   1.278 -1.5003 -1.6242 -2.1088
 3747TIP3   OH232875   5.384   6.443   0.621  0.4567 -0.2522  0.3381
 3747TIP3    H132876   5.456   6.414   0.678  1.2390  0.8817 -0.0244
 3747TIP3    H232877   5.406   6.408   0.535 -0.1187 -0.9987  0.4917
 3748TIP3   OH232878   0.141   0.920   8.660 -0.6684 -0.1382 -0.0140
 3748TIP3    H132879   0.052   0.932   8.692 -0.3475 -0.5903  1.1004
 3748TIP3    H232880   0.171   0.840   8.702  0.6580  0.6247  0.5280
 3749TIP3   OH232881   5.988   6.196   7.846 -0.2758 -0.5646 -0.0336
 3749TIP3    H132882   6.080   6.220   7.835 -0.3840  1.0942  1.9778
 3749TIP3    H232883   5.986   6.101   7.834  1.7896 -0.7106  0.3925
 3750TIP3   OH232884   6.606   0.157   7.166 -0.0467 -0.6198 -0.1006
 3750TIP3    H132885   6.560   0.149   7.249  0.3201  0.5608  0.2326
 3750TIP3    H232886   6.541   0.135   7.100 -0.4786 -1.0661  0.4704
 3751TIP3   OH232887   5.127   0.381   6.931  0.1113  0.3570  0.0266
 3751TIP3    H132888   5.183   0.357   6.857  2.5819  2.1166  1.1853
 3751TIP3    H232889   5.185   0.378   7.007 -1.5667  1.6018  1.4434
 3752TIP3   OH232890   4.981   2.027   8.403  0.4462  0.7035  0.6950
 3752TIP3    H132891   4.983   2.000   8.312  0.0974 -0.9219  1.1249
 3752TIP3    H232892   4.897   2.073   8.413  0.6725  1.2452  0.1137
 3753TIP3   OH232893   2.366   0.315   2.072 -0.0113 -0.4224  0.3854
 3753TIP3    H132894   2.399   0.381   2.134 -0.0999 -1.3150  1.4000
 3753TIP3    H232895   2.329   0.246   2.127 -0.8676 -0.8437 -0.6854
 3754TIP3   OH232896   1.933   5.804   2.635 -0.0914  0.1158 -0.1925
 3754TIP3    H132897   1.996   5.790   2.706 -0.1362 -0.5231 -0.2722
 3754TIP3    H232898   1.864   5.740   2.651 -1.4412  1.7348  0.6923
 3755TIP3   OH232899   2.048   5.211   0.865 -0.3361 -0.2461  0.3857
 3755TIP3    H132900   2.043   5.130   0.814 -0.6974 -1.2062  1.8473
 3755TIP3    H232901   1.957   5.228   0.891 -0.4475  1.3652 -0.9323
 3756TIP3   OH232902   0.817   5.883   2.015  0.5935 -0.1623 -0.0002
 3756TIP3    H132903   0.797   5.886   2.108 -0.8406 -0.2021 -0.2760
 3756TIP3    H232904   0.851   5.970   1.994  0.2991  0.0593  0.4347
 3757TIP3   OH232905   0.139   0.781   1.792  0.0189  0.3946 -0.1945
 3757TIP3    H132906   0.180   0.779   1.878 -0.5053  2.7075  0.1691
 3757TIP3    H232907   0.161   0.868   1.757 -2.8670  0.9841 -0.8026
 3758TIP3   OH232908   6.247   2.791   1.435 -0.0713  0.2464  0.0223
 3758TIP3    H132909   6.203   2.762   1.516  2.4472  0.9037  1.7309
 3758TIP3    H232910   6.334   2.751   1.439  0.4014  0.9526 -2.0042
 3759TIP3   OH232911   3.449   1.654   7.981  0.3692 -0.2499 -0.3611
 3759TIP3    H132912   3.534   1.641   8.024  0.7612 -2.0860 -1.5822
 3759TIP3    H232913   3.404   1.717   8.037  1.4154 -1.4062  1.9551
 3760TIP3   OH232914   3.538   0.681   0.038 -0.2276  0.0514 -0.4373
 3760TIP3    H132915   3.623   0.701   0.078 -0.7736  0.9298  0.3164
 3760TIP3    H232916   3.560   0.628  -0.039  1.0110  0.3517 -0.3136
 3761TIP3   OH232917   4.098   0.409   1.514  0.4853 -0.0482 -0.2298
 3761TIP3    H132918   4.027   0.346   1.502  0.5951 -0.3430  0.5624
 3761TIP3    H232919   4.166   0.381   1.453 -0.2458  0.5264 -1.3506
 3762TIP3   OH232920   3.931   0.853   7.326  0.9736  0.0802 -0.1407
 3762TIP3    H132921   3.916   0.829   7.418 -0.9400  0.4485 -0.3238
 3762TIP3    H232922   3.968   0.942   7.331 -1.5176  1.1868  0.2686
 3763TIP3   OH232923   4.138   4.199   1.574  0.2028 -0.0426  0.0687
 3763TIP3    H132924   4.145   4.294   1.570 -1.0244  0.0939  0.6820
 3763TIP3    H232925   4.144   4.178   1.667 -1.7202 -0.3260  0.1778
 3764TIP3   OH232926   5.425   0.033   7.323  0.0839 -0.4454  0.3141
 3764TIP3    H132927   5.356   0.014   7.387 -1.2650  1.3732 -0.5193
 3764TIP3    H232928   5.443  -0.051   7.281 -1.8282 -0.9210  0.3679
 3765TIP3   OH232929   1.376   6.078   7.729 -0.2177 -0.3042 -0.3138
 3765TIP3    H132930   1.322   6.063   7.806 -2.0202 -2.6216 -1.8765
 3765TIP3    H232931   1.414   5.993   7.709  0.6953  0.3686 -1.6286
 3766TIP3   OH232932   3.884   4.438   0.636  0.0604  0.8175 -0.6963
 3766TIP3    H132933   3.811   4.470   0.689  2.4006  1.7726  2.2082
 3766TIP3    H232934   3.937   4.515   0.619  0.6624  0.0821 -2.3643
 3767TIP3   OH232935   5.691   2.431   8.081 -0.1729 -0.7043 -0.7232
 3767TIP3    H132936   5.699   2.452   7.988  1.5095  0.4532 -0.3634
 3767TIP3    H232937   5.666   2.514   8.122  0.6903 -0.7998  0.0346
 3768TIP3   OH232938   4.551   6.754   2.286  0.2859  0.3893  0.3278
 3768TIP3    H132939   4.595   6.761   2.201 -2.6931  2.0987 -1.2498
 3768TIP3    H232940   4.596   6.818   2.342  0.8562  0.9140 -0.7002
 3769TIP3   OH232941   0.665   6.245   1.287 -0.2006  0.0459  0.0629
 3769TIP3    H132942   0.679   6.304   1.361 -0.6070 -1.1968  1.1660
 3769TIP3    H232943   0.653   6.158   1.327 -0.2650 -0.6847 -1.4678
 3770TIP3   OH232944   2.240   2.694   1.081 -0.6277 -0.3291  0.2507
 3770TIP3    H132945   2.296   2.769   1.100  1.6628 -0.6719 -3.9160
 3770TIP3    H232946   2.276   2.623   1.133  0.2198  0.4096  0.6902
 3771TIP3   OH232947   6.724   3.031   0.527 -0.2882 -0.4864 -0.2031
 3771TIP3    H132948   6.684   3.019   0.441  0.3295 -0.6632 -0.4695
 3771TIP3    H232949   6.689   3.114   0.559  0.4256  0.2039 -1.1601
 3772TIP3   OH232950   1.143   2.405   1.715 -0.1101  0.0332  0.5332
 3772TIP3    H132951   1.101   2.475   1.765 -0.0451  0.4301  0.0319
 3772TIP3    H232952   1.236   2.426   1.716  0.2722 -1.4144  2.5597
 3773TIP3   OH232953   1.158   2.098   1.911  0.5203  0.4189  0.5485
 3773TIP3    H132954   1.107   2.073   1.988  0.7610 -0.3042  0.4854
 3773TIP3    H232955   1.223   2.028   1.903 -0.3132 -0.2015 -1.0744
 3774TIP3   OH232956   2.170   0.445   0.460 -0.3718  0.0331  0.3865
 3774TIP3    H132957   2.156   0.445   0.366  0.5121 -1.3400  0.2201
 3774TIP3    H232958   2.181   0.352   0.483  1.1513  0.4434  1.5586
 3775TIP3   OH232959   3.036   1.260   1.665 -0.0971 -0.0688  0.0700
 3775TIP3    H132960   2.950   1.297   1.647 -0.8000 -2.4647 -2.0800
 3775TIP3    H232961   3.019   1.186   1.723  0.8661  0.8520  1.5990
 3776TIP3   OH232962   5.980   6.127   1.468  0.0279  0.3797 -0.3269
 3776TIP3    H132963   5.971   6.037   1.499  1.5551  0.9382  2.0498
 3776TIP3    H232964   6.015   6.119   1.380 -0.3087 -1.3409 -0.3370
 3777TIP3   OH232965   2.630   0.937   7.992  0.4472 -0.3987  0.2961
 3777TIP3    H132966   2.594   0.852   7.969  3.1416 -1.2126 -1.3698
 3777TIP3    H232967   2.662   0.926   8.082 -1.8664 -0.1247  1.2168
 3778TIP3   OH232968   4.254   5.271   7.780 -0.2437 -0.5801  0.4287
 3778TIP3    H132969   4.267   5.244   7.689  2.6755 -1.7980  1.1051
 3778TIP3    H232970   4.253   5.188   7.829  0.3756  0.1593  1.7288
 3779TIP3   OH232971   4.692   0.535   1.072  0.2035 -0.4279 -0.6418
 3779TIP3    H132972   4.638   0.538   1.151  0.8277  1.7736 -0.2392
 3779TIP3    H232973   4.651   0.598   1.012  2.3401  1.4367 -0.2551
 3780TIP3   OH232974   0.586   6.171   1.801 -0.4063 -0.0489 -0.2124
 3780TIP3    H132975   0.521   6.175   1.872  1.1082  1.8352  1.1930
 3780TIP3    H232976   0.614   6.079   1.799 -0.6872 -0.2030  1.4792
 3781TIP3   OH232977   3.801   0.708   8.579  0.0815 -0.2627 -0.1258
 3781TIP3    H132978   3.866   0.644   8.609 -1.1716 -0.4714  2.3514
 3781TIP3    H232979   3.752   0.662   8.510  0.3464 -1.3364  0.3866
 3782TIP3   OH232980   5.553   6.418   1.351  0.2157 -1.2081  0.3267
 3782TIP3    H132981   5.483   6.404   1.287  0.3983 -2.0076  0.2942
 3782TIP3    H232982   5.620   6.353   1.328  0.3033 -1.4647  1.2964
 3783TIP3   OH232983   5.669   5.814   1.321 -0.1165 -0.8302  0.6352
 3783TIP3    H132984   5.606   5.766   1.374 -1.0390 -0.6774 -0.2883
 3783TIP3    H232985   5.741   5.834   1.381 -0.2675 -2.2862  1.3367
 3784TIP3   OH232986   5.205   1.999   1.699 -0.5806  0.4429 -0.3545
 3784TIP3    H132987   5.286   2.042   1.672 -0.5502 -1.1841 -3.1225
 3784TIP3    H232988   5.141   2.070   1.705  0.1435  1.2680 -1.9690
 3785TIP3   OH232989   0.061   4.581   1.925  0.3210  0.1030 -0.1548
 3785TIP3    H132990   0.154   4.574   1.902  0.4358 -0.0454  0.3379
 3785TIP3    H232991   0.015   4.575   1.841  0.8128  1.3899 -0.5546
 3786TIP3   OH232992   5.456   5.014   8.049 -0.1203  0.0958  0.2376
 3786TIP3    H132993   5.399   4.976   7.982 -0.9595 -0.5731  1.3131
 3786TIP3    H232994   5.509   4.941   8.080 -0.6337  0.1092  1.1914
 3787TIP3   OH232995   2.438   2.394   1.694 -0.5545  0.6851 -0.2692
 3787TIP3    H132996   2.366   2.441   1.736  0.0610  3.3593 -1.9073
 3787TIP3    H232997   2.396   2.331   1.636 -1.4120 -1.7670  2.7904
 3788TIP3   OH232998   1.114   2.497   8.650 -0.4006  0.0257 -0.4016
 3788TIP3    H132999   1.071   2.413   8.636  0.6248 -0.5429 -0.1786
 3788TIP3    H233000   1.106   2.513   8.744 -0.6062  0.1931 -0.4462
 3789TIP3   OH233001   1.359   4.718   2.492 -0.3575 -0.5757 -0.4080
 3789TIP3    H133002   1.372   4.624   2.478  0.7296 -0.4136 -0.5829
 3789TIP3    H233003   1.392   4.733   2.581  0.4608 -0.1871 -0.7670
 3790TIP3   OH233004   5.330   2.784   8.080  0.0748  0.0358  0.6765
 3790TIP3    H133005   5.307   2.793   8.172  0.0711  0.4843  0.6320
 3790TIP3    H233006   5.274   2.713   8.048 -1.9374  1.6822  0.3404
 3791TIP3   OH233007   4.484   2.760   0.254  0.0562 -0.3108 -0.0349
 3791TIP3    H133008   4.546   2.815   0.302 -0.7031 -0.8798  1.6616
 3791TIP3    H233009   4.539   2.709   0.194  1.0620  0.2333  0.3980
 3792TIP3   OH233010   2.568   2.767   8.900  0.1272 -0.0585 -0.3214
 3792TIP3    H133011   2.586   2.851   8.858  1.2154 -0.0060  0.1909
 3792TIP3    H233012   2.632   2.707   8.861  2.3047  0.3587  2.3182
 3793TIP3   OH233013   1.288   0.377   6.667  0.3889 -0.1120  0.0893
 3793TIP3    H133014   1.321   0.465   6.685  0.0213 -0.1382  0.9067
 3793TIP3    H233015   1.366   0.324   6.654  0.6652 -0.0101  1.2366
 3794TIP3   OH233016   6.593   6.558   7.948  0.4596  0.4252 -0.0051
 3794TIP3    H133017   6.614   6.626   8.011 -0.9634  3.0240 -2.1324
 3794TIP3    H233018   6.652   6.573   7.875  0.3970 -0.9356 -0.3731
 3795TIP3   OH233019   0.732   5.888   2.755  0.3353  0.0758 -0.2900
 3795TIP3    H133020   0.705   5.800   2.779  1.4087 -0.7540 -1.9432
 3795TIP3    H233021   0.652   5.931   2.724 -0.2975 -0.0926  1.0532
 3796TIP3   OH233022   2.264   2.177   8.148  0.4917 -0.6937  0.4208
 3796TIP3    H133023   2.239   2.222   8.067 -0.2195 -3.2032 -0.8632
 3796TIP3    H233024   2.253   2.243   8.216  2.2485  1.9022 -1.5975
 3797TIP3   OH233025   1.417   5.548   0.758 -0.5172 -0.1312 -0.6613
 3797TIP3    H133026   1.412   5.564   0.663 -1.1548  0.3072 -0.5610
 3797TIP3    H233027   1.510   5.538   0.776 -0.4288 -0.8834 -1.4396
 3798TIP3   OH233028   1.193   4.868   0.906 -0.0338 -0.4455 -0.1659
 3798TIP3    H133029   1.224   4.877   0.816 -1.8503 -1.4689 -0.9579
 3798TIP3    H233030   1.269   4.887   0.960  0.8146  1.3777 -1.8766
 3799TIP3   OH233031   1.123   0.127   8.128 -0.4425 -0.6320 -0.1136
 3799TIP3    H133032   1.098   0.218   8.110  0.2153 -0.2292  0.9033
 3799TIP3    H233033   1.090   0.078   8.053 -0.2504  0.5407 -1.0029
 3800TIP3   OH233034   6.754   2.715   0.263  0.6821  0.3043 -0.2484
 3800TIP3    H133035   6.756   2.696   0.169 -0.1232 -0.9536 -0.0296
 3800TIP3    H233036   6.669   2.758   0.276  0.4019 -0.3346  0.0465
 3801TIP3   OH233037   1.526   4.633   8.637 -0.3027 -0.9564 -0.3179
 3801TIP3    H133038   1.604   4.637   8.582 -0.0360 -0.1624  0.1019
 3801TIP3    H233039   1.454   4.655   8.578  0.0675  0.6739 -0.2051
 3802TIP3   OH233040   1.825   2.343   7.422 -0.0674  0.5238  0.4328
 3802TIP3    H133041   1.759   2.410   7.440 -1.3642 -0.7183  0.4149
 3802TIP3    H233042   1.851   2.358   7.331 -0.2717  1.0597  0.4597
 3803TIP3   OH233043   1.583   3.244   0.408  0.4819  0.2943  0.0594
 3803TIP3    H133044   1.656   3.297   0.439  1.3684 -1.4192  1.0738
 3803TIP3    H233045   1.519   3.246   0.479  0.8097 -0.4937  0.3895
 3804TIP3   OH233046   2.603   1.996   0.691  0.1368  0.0583 -0.7200
 3804TIP3    H133047   2.540   1.924   0.681  0.8622 -0.6826 -0.1336
 3804TIP3    H233048   2.565   2.053   0.757  0.2042 -0.5336 -0.1640
 3805TIP3   OH233049   2.070   0.541   0.162  0.2122  0.1137  0.0763
 3805TIP3    H133050   2.110   0.626   0.180 -2.1980  1.1830  0.8573
 3805TIP3    H233051   2.083   0.528   0.068  1.9798  0.5493  0.2185
 3806TIP3   OH233052   4.780   3.757   0.206 -0.1190  0.0134  0.2517
 3806TIP3    H133053   4.821   3.673   0.228  1.3659  1.0198  1.5462
 3806TIP3    H233054   4.764   3.798   0.290  1.9800  2.2925 -0.3555
 3807TIP3   OH233055   3.915   1.666   2.077  0.4676  0.0163  0.7924
 3807TIP3    H133056   3.868   1.582   2.076  0.2659  0.1283 -0.6817
 3807TIP3    H233057   3.873   1.715   2.148 -0.0806 -0.7471  1.0145
 3808TIP3   OH233058   3.833   4.304   8.326 -0.4952 -0.1154  0.2528
 3808TIP3    H133059   3.790   4.275   8.406 -0.6639 -0.1206  0.1600
 3808TIP3    H233060   3.775   4.371   8.291  0.0046  0.4960  0.5832
 3809TIP3   OH233061   5.892   2.942   1.787 -0.0512  0.0180 -0.3521
 3809TIP3    H133062   5.906   2.926   1.880  0.1804 -0.3636 -0.4518
 3809TIP3    H233063   5.930   3.028   1.771 -1.2981  0.7045  0.1890
 3810TIP3   OH233064   4.935   0.423   1.138  0.3337 -0.9117 -0.1794
 3810TIP3    H133065   4.852   0.431   1.091  0.1869 -1.1651  0.0330
 3810TIP3    H233066   4.921   0.474   1.218  0.2789 -1.1997 -0.0048
 3811TIP3   OH233067   2.753   6.608   6.932 -0.5154  0.3714  0.0741
 3811TIP3    H133068   2.724   6.517   6.919 -3.8138  1.2247  0.4349
 3811TIP3    H233069   2.730   6.652   6.851 -0.0329  1.1361  0.3452
 3812TIP3   OH233070   5.282   6.750   2.106 -0.5053  0.5108 -0.0692
 3812TIP3    H133071   5.296   6.724   2.015  0.4448  0.9806 -0.0746
 3812TIP3    H233072   5.347   6.698   2.155 -0.7129  0.5845  0.2850
 3813TIP3   OH233073   5.503   0.836   7.275 -0.1189 -0.3310  0.5083
 3813TIP3    H133074   5.567   0.808   7.209 -0.1137 -0.1342  0.4315
 3813TIP3    H233075   5.554   0.890   7.335 -0.6197  1.4459 -0.6193
 3814TIP3   OH233076   0.053   3.610   8.726  0.4746  0.5437 -0.7005
 3814TIP3    H133077   0.020   3.664   8.797 -0.1695 -0.8994  0.1520
 3814TIP3    H233078   0.145   3.594   8.749  0.1963 -0.1391 -0.0297
 3815TIP3   OH233079   2.379   5.330   1.834  0.3035  0.0866 -0.1913
 3815TIP3    H133080   2.462   5.294   1.802  1.6403  1.4591  1.5616
 3815TIP3    H233081   2.347   5.265   1.897 -0.2885 -0.7043 -1.2657
 3816TIP3   OH233082   0.983   2.146   0.318 -0.1801 -0.1083 -0.4599
 3816TIP3    H133083   0.915   2.079   0.318 -2.1393  1.7748 -0.7082
 3816TIP3    H233084   1.062   2.101   0.350 -1.3373 -2.5371 -0.8526
 3817TIP3   OH233085   6.352   5.852   6.667  0.5142 -0.3676 -0.1483
 3817TIP3    H133086   6.375   5.944   6.678  1.2496 -0.5842  0.1744
 3817TIP3    H233087   6.258   5.848   6.687  0.1168  0.5533 -1.6526
 3818TIP3   OH233088   0.387   0.129   0.668 -0.1655  0.1628  0.1436
 3818TIP3    H133089   0.377   0.100   0.577  0.5976 -2.5496  0.8388
 3818TIP3    H233090   0.429   0.215   0.660  0.2584 -0.1710 -2.0581
 3819TIP3   OH233091   5.349   2.563   2.503 -0.7277 -0.2210 -0.2009
 3819TIP3    H133092   5.373   2.652   2.527  0.2170 -0.6542  0.5397
 3819TIP3    H233093   5.291   2.573   2.428  1.3316  0.9370 -1.7452
 3820TIP3   OH233094   3.798   2.490   0.122  0.8361  0.0738 -0.1826
 3820TIP3    H133095   3.815   2.477   0.029 -0.1057  0.2890 -0.3908
 3820TIP3    H233096   3.797   2.585   0.134 -0.0230  0.0689 -0.1486
 3821TIP3   OH233097   2.568   0.690   2.854  0.1800 -0.3900 -0.4144
 3821TIP3    H133098   2.499   0.693   2.920  1.5383  2.2679  1.0094
 3821TIP3    H233099   2.643   0.650   2.899  0.7084  0.2117 -0.7502
 3822TIP3   OH233100   6.259   2.025   0.553  0.4621  0.2002  0.0651
 3822TIP3    H133101   6.185   1.971   0.581  0.2766  0.2160 -0.3985
 3822TIP3    H233102   6.336   1.979   0.587  0.4576 -1.4195 -1.9633
 3823TIP3   OH233103   5.017   2.613   2.618  0.5666 -0.5120  0.2789
 3823TIP3    H133104   4.984   2.550   2.554  0.0273  1.0753 -1.0939
 3823TIP3    H233105   5.100   2.644   2.580 -0.1799  1.0826 -0.1472
 3824TIP3   OH233106   4.422   4.062   1.875  0.0261  0.3758 -0.1604
 3824TIP3    H133107   4.500   4.007   1.863  1.6384  2.3726  0.4523
 3824TIP3    H233108   4.409   4.103   1.790 -0.3534  0.0484 -0.2595
 3825TIP3   OH233109   6.539   1.990   1.288  0.8051 -0.1592  0.4253
 3825TIP3    H133110   6.615   1.956   1.335  0.0646  0.0555  1.8378
 3825TIP3    H233111   6.551   2.085   1.289  0.1220 -0.0749  1.3827
 3826TIP3   OH233112   6.388   2.806   7.552 -0.4748  0.2362  0.0492
 3826TIP3    H133113   6.335   2.743   7.601 -1.1528  0.6391 -0.1525
 3826TIP3    H233114   6.395   2.769   7.464  2.4957 -1.5457  0.8916
 3827TIP3   OH233115   6.153   1.231   7.461  0.1529 -0.0476 -0.1227
 3827TIP3    H133116   6.116   1.166   7.401  0.5597  0.4078 -0.8837
 3827TIP3    H233117   6.214   1.181   7.516 -0.2679 -0.4794 -0.0413
 3828TIP3   OH233118   4.128   4.413   8.667 -0.3673  0.0519  0.3020
 3828TIP3    H133119   4.203   4.413   8.727  0.5739  0.1302 -0.8335
 3828TIP3    H233120   4.058   4.456   8.716  0.4650  0.3828  1.2317
 3829TIP3   OH233121   4.939   6.167   0.060  0.4439  0.0079 -0.8008
 3829TIP3    H133122   4.850   6.140   0.083  0.6089 -0.0049 -0.1596
 3829TIP3    H233123   4.933   6.193  -0.032 -0.2439  0.0844 -0.7419
 3830TIP3   OH233124   0.453   6.516   1.363  0.0863 -0.0140 -0.2642
 3830TIP3    H133125   0.458   6.611   1.377 -2.1255  0.1705 -0.4452
 3830TIP3    H233126   0.474   6.505   1.270 -0.1400  0.3649 -0.3652
 3831TIP3   OH233127   2.903   6.579   7.158  0.1791 -0.3160  0.6389
 3831TIP3    H133128   2.825   6.584   7.104 -0.4746 -1.4115  1.4481
 3831TIP3    H233129   2.961   6.519   7.111  0.5082  0.4153  0.0920
 3832TIP3   OH233130   0.090   5.134   7.583  0.1494  0.5089 -0.0696
 3832TIP3    H133131   0.080   5.223   7.550 -1.1190 -0.6882 -3.2364
 3832TIP3    H233132   0.162   5.097   7.532  0.4950 -0.4011  1.0252
 3833TIP3   OH233133   3.090   2.024   0.934  0.0786  0.3539 -0.6429
 3833TIP3    H133134   3.155   2.068   0.880  1.1604  0.4525  0.6760
 3833TIP3    H233135   3.011   2.078   0.927  0.5724  1.0147 -1.1421
 3834TIP3   OH233136   2.547   4.028   0.253  0.8231 -0.7237 -0.3863
 3834TIP3    H133137   2.621   3.974   0.280 -0.2685 -1.4412  1.3466
 3834TIP3    H233138   2.470   3.974   0.270 -0.2655  1.0465  0.6520
 3835TIP3   OH233139   0.778   0.382   7.384 -0.3177  0.1383  0.3587
 3835TIP3    H133140   0.796   0.447   7.316 -0.8369  0.8046  0.8445
 3835TIP3    H233141   0.692   0.347   7.361  0.5491 -1.4136 -0.6898
 3836TIP3   OH233142   1.940   5.389   7.644  0.5689  0.5422 -0.3357
 3836TIP3    H133143   1.920   5.323   7.577 -1.6606 -0.3061  1.0373
 3836TIP3    H233144   1.886   5.464   7.620  0.6394  0.6579 -0.1337
 3837TIP3   OH233145   4.704   1.074   2.467 -0.3970  0.5162  0.6538
 3837TIP3    H133146   4.633   1.133   2.491 -1.6814 -0.8448  0.3360
 3837TIP3    H233147   4.709   1.011   2.540 -0.1482  0.0479  0.2372
 3838TIP3   OH233148   2.260   0.259   0.979 -0.4643 -0.6687  0.3693
 3838TIP3    H133149   2.168   0.281   0.992 -0.0483  1.9717 -0.4305
 3838TIP3    H233150   2.267   0.239   0.885 -0.1881 -0.6543  0.3849
 3839TIP3   OH233151   2.029   5.652   8.094  0.0692  0.2715  0.1931
 3839TIP3    H133152   2.058   5.655   8.003 -0.0590  0.7551  0.1662
 3839TIP3    H233153   2.083   5.718   8.139  0.4019 -0.2325  0.5481
 3840TIP3   OH233154   4.128   1.691   1.204  0.2174 -0.1638  0.3602
 3840TIP3    H133155   4.129   1.644   1.287  0.1355 -0.5243  0.1555
 3840TIP3    H233156   4.204   1.658   1.156 -0.5096 -0.9514 -0.2645
 3841TIP3   OH233157   2.086   4.699   7.812  0.2058 -0.0657  0.1316
 3841TIP3    H133158   2.041   4.678   7.730 -1.4915  0.0610  0.9939
 3841TIP3    H233159   2.090   4.615   7.859  1.7171 -0.2652 -0.3012
 3842TIP3   OH233160   2.647   0.888   1.381 -0.0125  0.1819  0.0313
 3842TIP3    H133161   2.690   0.965   1.343  2.8180 -1.0352  0.4549
 3842TIP3    H233162   2.610   0.841   1.306 -0.0542  0.9792 -0.4490
 3843TIP3   OH233163   5.775   3.862   1.192 -0.1389  0.5463 -0.1248
 3843TIP3    H133164   5.695   3.820   1.159 -0.0655  0.3611 -0.0712
 3843TIP3    H233165   5.801   3.922   1.123 -1.6933  2.4570  0.8528
 3844TIP3   OH233166   2.277   6.448   7.632 -0.2948  0.0034 -0.2613
 3844TIP3    H133167   2.345   6.440   7.698  0.3098 -3.6068 -1.1341
 3844TIP3    H233168   2.313   6.405   7.555 -2.3960  0.8129 -1.7891
 3845TIP3   OH233169   4.298   4.750   7.077  0.1926  0.2639 -0.3120
 3845TIP3    H133170   4.331   4.718   7.161  0.1757 -0.7854 -0.6950
 3845TIP3    H233171   4.311   4.845   7.081  0.8320  0.1511  0.5928
 3846TIP3   OH233172   5.673   5.990   2.435  0.3267 -0.3882 -0.1013
 3846TIP3    H133173   5.607   6.058   2.440  1.1573  0.3725  1.2021
 3846TIP3    H233174   5.756   6.037   2.442  0.9094 -1.5431  1.3191
 3847TIP3   OH233175   4.294   0.464   8.102  0.2062  0.1145 -0.3859
 3847TIP3    H133176   4.214   0.412   8.100 -0.3030  0.9078 -1.4510
 3847TIP3    H233177   4.331   0.456   8.014  0.0638  1.5983 -0.6126
 3848TIP3   OH233178   6.195   1.354   1.379  0.0264 -0.1292  0.1893
 3848TIP3    H133179   6.177   1.431   1.432 -1.5774 -0.2290 -0.1591
 3848TIP3    H233180   6.109   1.329   1.343  0.8739 -0.7604 -1.4953
 3849TIP3   OH233181   0.951   4.720   1.063 -0.2313  0.2593 -0.1517
 3849TIP3    H133182   1.000   4.789   1.019  0.1413  0.4553  0.5646
 3849TIP3    H233183   0.956   4.741   1.156  0.9044 -1.3520  0.2098
 3850TIP3   OH233184   3.274   4.666   8.471 -0.2638  0.1188  0.7559
 3850TIP3    H133185   3.361   4.627   8.475 -0.7242 -1.1846 -0.7905
 3850TIP3    H233186   3.214   4.592   8.483 -1.3752  1.4564  6.3994
 3851TIP3   OH233187   4.626   4.972   2.771  0.1108  0.3069 -0.0796
 3851TIP3    H133188   4.620   4.884   2.808  1.9948 -0.1795 -0.8064
 3851TIP3    H233189   4.639   5.029   2.847 -0.8936 -0.0511  0.3746
 3852TIP3   OH233190   0.955   2.090   1.034  0.1348  0.3643 -0.0241
 3852TIP3    H133191   0.969   2.014   0.978 -1.3744 -0.0581  0.1318
 3852TIP3    H233192   0.952   2.054   1.123 -0.1318  0.6623  0.0906
 3853TIP3   OH233193   2.184   1.820   1.403  0.1186  0.3909 -0.1018
 3853TIP3    H133194   2.142   1.745   1.360 -0.5439  0.7603 -0.1198
 3853TIP3    H233195   2.170   1.893   1.344  0.1874  0.6685  0.2184
 3854TIP3   OH233196   1.760   0.093   0.541  0.0006  0.5583  0.7593
 3854TIP3    H133197   1.810   0.103   0.622  0.0885  1.5338  0.5925
 3854TIP3    H233198   1.728   0.181   0.521  1.3279  0.6835 -1.1178
 3855TIP3   OH233199   1.698   2.185   2.685 -0.1505  0.3684  0.1175
 3855TIP3    H133200   1.606   2.204   2.666 -0.1274 -0.7182 -1.2412
 3855TIP3    H233201   1.746   2.221   2.610  0.3637 -0.4749  0.0257
 3856TIP3   OH233202   5.323   5.610   2.076  0.0312  0.0108 -0.0248
 3856TIP3    H133203   5.244   5.569   2.112  0.1790 -1.6058 -1.4071
 3856TIP3    H233204   5.291   5.671   2.010 -0.1108  0.4163  0.4172
 3857TIP3   OH233205   5.335   1.072   2.718 -0.0566 -0.5340 -0.3950
 3857TIP3    H133206   5.383   0.989   2.719 -1.6752 -1.5095  0.5040
 3857TIP3    H233207   5.261   1.058   2.778 -2.1605  0.4911 -2.5961
 3858TIP3   OH233208   1.057   3.034   1.985  0.3296 -0.5016  0.0682
 3858TIP3    H133209   1.028   3.014   1.896  0.1498 -1.6883  0.3672
 3858TIP3    H233210   0.998   2.983   2.041 -0.2082  1.0140  0.9315
 3859TIP3   OH233211   0.727   5.856   2.278  0.2671 -0.0031 -0.1481
 3859TIP3    H133212   0.702   5.909   2.354 -2.5592  0.8286 -1.5237
 3859TIP3    H233213   0.690   5.770   2.297 -1.3294  0.4747 -0.9640
 3860TIP3   OH233214   5.351   3.584   0.704  0.2239 -0.0922 -0.0666
 3860TIP3    H133215   5.266   3.608   0.740  0.3561  0.3441 -0.0446
 3860TIP3    H233216   5.340   3.493   0.676 -0.0112 -0.2992  0.6695
 3861TIP3   OH233217   3.887   1.109   8.490 -0.1431 -0.7724  0.6545
 3861TIP3    H133218   3.971   1.065   8.504  0.1253 -1.0306 -1.3449
 3861TIP3    H233219   3.911   1.197   8.461 -0.5278 -0.9726 -0.3113
 3862TIP3   OH233220   1.248   3.673   0.015 -0.3704 -0.5415  0.5912
 3862TIP3    H133221   1.219   3.628   0.095 -1.6957  0.8868  0.9770
 3862TIP3    H233222   1.167   3.696  -0.030  0.2483  0.9508  0.1602
 3863TIP3   OH233223   3.045   1.075   8.678 -0.2644 -0.0347 -0.1433
 3863TIP3    H133224   3.122   1.079   8.621  0.3643  0.5002  0.7214
 3863TIP3    H233225   3.073   1.117   8.760 -1.1248 -0.8452  0.5924
 3864TIP3   OH233226   0.564   4.608   7.729  0.2066  0.3456 -0.2954
 3864TIP3    H133227   0.499   4.609   7.800 -0.9819 -0.3065 -1.3255
 3864TIP3    H233228   0.595   4.517   7.727  0.4058  0.4181 -0.4689
 3865TIP3   OH233229   5.487   1.874   7.789  0.1646 -0.0285  0.7787
 3865TIP3    H133230   5.540   1.795   7.803 -1.1764 -0.7793  1.8830
 3865TIP3    H233231   5.528   1.940   7.845  0.6810 -0.2375  0.6507
 3866TIP3   OH233232   5.015   0.888   2.057  0.7389 -0.3034  0.0542
 3866TIP3    H133233   4.961   0.870   1.979 -1.7039 -0.7185  1.7284
 3866TIP3    H233234   5.030   0.983   2.053  1.3687 -0.4273 -1.3056
 3867TIP3   OH233235   6.329   3.350   0.501 -0.5952  0.0665  0.1093
 3867TIP3    H133236   6.288   3.350   0.415 -1.0950 -0.5212  0.3448
 3867TIP3    H233237   6.274   3.293   0.554  0.0258 -0.0216  0.6692
 3868TIP3   OH233238   1.051   6.397   1.983 -0.2078 -0.0812 -0.5782
 3868TIP3    H133239   1.006   6.318   1.951  0.5002 -0.0215 -1.8046
 3868TIP3    H233240   1.046   6.390   2.078  0.1696 -1.8112 -0.6460
 3869TIP3   OH233241   0.283   3.812   2.187  0.2522  0.5589 -0.0312
 3869TIP3    H133242   0.237   3.872   2.128 -0.7700  1.3942  1.5235
 3869TIP3    H233243   0.212   3.765   2.231  0.9908 -0.1327  0.4240
 3870TIP3   OH233244   0.593   1.042   8.418  0.2544  0.1298 -0.0399
 3870TIP3    H133245   0.639   1.124   8.402 -1.0660  0.7454 -0.8733
 3870TIP3    H233246   0.543   1.059   8.498 -0.8703  0.5564 -0.8045
 3871TIP3   OH233247   2.820   4.791   2.620 -0.1031 -0.1926  0.9705
 3871TIP3    H133248   2.761   4.722   2.651 -1.1307  0.2040 -0.0361
 3871TIP3    H233249   2.764   4.868   2.610  0.8230  0.5080  1.0901
 3872TIP3   OH233250   0.297   1.380   2.599  0.1447  0.1111 -0.1348
 3872TIP3    H133251   0.310   1.392   2.693 -1.2050 -0.1080  0.0986
 3872TIP3    H233252   0.286   1.285   2.588 -0.9399  0.2418 -0.3203
 3873TIP3   OH233253   2.469   3.822   8.127  0.3814  0.0720  0.2165
 3873TIP3    H133254   2.561   3.838   8.107  0.7196 -0.2616  1.4555
 3873TIP3    H233255   2.470   3.767   8.205 -0.8223 -2.1771 -1.2431
 3874TIP3   OH233256   3.411   0.125   7.887  0.1646 -0.4249 -0.1503
 3874TIP3    H133257   3.480   0.062   7.909 -0.4395 -1.0071  0.1355
 3874TIP3    H233258   3.404   0.181   7.964 -0.3775 -1.0197  0.2481
 3875TIP3   OH233259   4.293   1.518   0.270 -0.3201 -0.0601  0.4797
 3875TIP3    H133260   4.343   1.492   0.347  1.9283 -1.5442 -1.3542
 3875TIP3    H233261   4.320   1.608   0.253  0.8047 -0.4200  0.2693
 3876TIP3   OH233262   0.638   4.515   8.411 -0.1703 -0.0533 -0.2102
 3876TIP3    H133263   0.597   4.530   8.326 -1.0114 -1.9912 -0.2020
 3876TIP3    H233264   0.732   4.526   8.395 -0.4812  2.5996 -0.6554
 3877TIP3   OH233265   3.174   4.073   8.047  0.3620  0.2040 -0.1357
 3877TIP3    H133266   3.112   4.009   8.082 -1.0100 -0.7127 -3.8222
 3877TIP3    H233267   3.120   4.150   8.026  1.2649  1.0049  0.3913
 3878TIP3   OH233268   0.565   1.491   1.222 -0.4781 -0.2120  0.4979
 3878TIP3    H133269   0.474   1.466   1.209 -0.7564  1.3529 -0.8875
 3878TIP3    H233270   0.568   1.523   1.312 -1.6701  1.0729  0.1127
 3879TIP3   OH233271   1.980   0.915   0.665  0.2599  0.2903 -0.0098
 3879TIP3    H133272   2.017   0.839   0.709 -0.0947  0.1213 -0.0088
 3879TIP3    H233273   1.901   0.935   0.714 -0.4287 -0.2238 -0.8946
 3880TIP3   OH233274   0.229   2.703   2.385  0.0311 -0.5350 -0.3674
 3880TIP3    H133275   0.283   2.650   2.444  0.9461  1.1168  0.3479
 3880TIP3    H233276   0.166   2.746   2.443  0.6247  0.7256 -0.6224
 3881TIP3   OH233277   0.086   5.435   1.068 -0.1748  0.0953  0.5227
 3881TIP3    H133278   0.085   5.462   0.976  1.4813  1.4210  0.8516
 3881TIP3    H233279   0.066   5.341   1.066  0.2854  0.0089 -1.2241
 3882TIP3   OH233280   0.887   1.548   1.285 -0.4700 -0.3622  0.6400
 3882TIP3    H133281   0.813   1.498   1.320 -0.9506 -0.4463 -0.4475
 3882TIP3    H233282   0.961   1.486   1.287 -0.6751 -0.6033  0.7775
 3883TIP3   OH233283   4.642   0.145   8.690 -0.3839  0.5282  0.5723
 3883TIP3    H133284   4.554   0.163   8.725 -0.4379  1.6504 -0.0847
 3883TIP3    H233285   4.694   0.123   8.767 -0.6934  2.1722  1.3026
 3884TIP3   OH233286   4.903   5.723   2.577 -0.5956  0.3025 -0.4007
 3884TIP3    H133287   4.921   5.689   2.665 -2.7873  0.4214  0.1504
 3884TIP3    H233288   4.860   5.807   2.592  1.9665  1.9867 -1.6978
 3885TIP3   OH233289   0.919   2.259   8.025 -0.4351  0.4982 -0.0790
 3885TIP3    H133290   0.881   2.175   8.000  0.0043  0.9326 -2.3746
 3885TIP3    H233291   0.850   2.303   8.074 -1.3445 -0.4394 -0.4984
 3886TIP3   OH233292   6.689   6.018   8.648 -0.2225 -0.5149  0.5560
 3886TIP3    H133293   6.738   6.100   8.639 -0.9591 -0.1632 -0.5680
 3886TIP3    H233294   6.604   6.045   8.682 -0.2880 -0.8724  0.6737
 3887TIP3   OH233295   4.985   6.424   0.196  0.5859  0.4736 -0.5067
 3887TIP3    H133296   4.945   6.360   0.254  0.1214  0.5728 -0.7076
 3887TIP3    H233297   4.967   6.391   0.108  0.1813  0.9716 -0.6135
 3888TIP3   OH233298   4.156   5.573   1.629 -0.1769 -0.5730 -0.0531
 3888TIP3    H133299   4.124   5.484   1.617 -2.0852  0.2423 -1.7019
 3888TIP3    H233300   4.232   5.564   1.687  0.0178 -3.2967 -0.5918
 3889TIP3   OH233301   4.352   0.123   8.287 -0.3990  0.1897  0.0879
 3889TIP3    H133302   4.423   0.083   8.337  0.0330  1.8472  0.8783
 3889TIP3    H233303   4.397   0.180   8.224 -0.9869 -0.6634 -1.1404
 3890TIP3   OH233304   4.302   1.770   2.767 -0.7542 -0.6552  0.0571
 3890TIP3    H133305   4.248   1.778   2.688 -1.3933 -1.5485  0.3903
 3890TIP3    H233306   4.275   1.687   2.806 -0.5016 -0.1783  1.2708
 3891TIP3   OH233307   1.440   5.889   7.282 -0.2855 -0.0924  0.1781
 3891TIP3    H133308   1.414   5.971   7.324 -0.2007 -1.3803  2.9417
 3891TIP3    H233309   1.379   5.880   7.208 -0.0424  2.5991 -0.4383
 3892TIP3   OH233310   2.751   0.806   6.953 -0.3097  0.7696  0.3927
 3892TIP3    H133311   2.834   0.778   6.915 -0.6107 -0.1004  0.3459
 3892TIP3    H233312   2.772   0.886   7.001  0.3992  0.9743 -0.2445
 3893TIP3   OH233313   6.713   3.844   1.788  0.3224 -0.1076  0.2302
 3893TIP3    H133314   6.637   3.901   1.776  1.5309  1.4457 -0.3550
 3893TIP3    H233315   6.733   3.850   1.882  1.1332  1.4169 -0.0081
 3894TIP3   OH233316   3.242   0.067   7.205  0.0127 -0.5078 -0.1064
 3894TIP3    H133317   3.198   0.149   7.227  0.6868 -0.5952  1.7343
 3894TIP3    H233318   3.191   0.031   7.132 -1.1327  0.8421 -0.0148
 3895TIP3   OH233319   0.445   6.422   7.843  0.1528  0.3307 -0.0700
 3895TIP3    H133320   0.472   6.508   7.810  1.9599 -1.2880 -3.3082
 3895TIP3    H233321   0.429   6.370   7.765 -1.4269 -2.1967  1.7676
 3896TIP3   OH233322   3.182   3.481   0.451  0.7343  0.3979 -0.0420
 3896TIP3    H133323   3.113   3.548   0.447 -1.0166 -1.3312 -0.0358
 3896TIP3    H233324   3.151   3.418   0.515  1.7572 -1.0350 -0.9012
 3897TIP3   OH233325   4.201   3.273   0.376  0.2155 -0.3457 -0.2853
 3897TIP3    H133326   4.233   3.355   0.413  2.6127 -0.9702 -0.7468
 3897TIP3    H233327   4.144   3.298   0.304  1.1172  0.9437 -0.5849
 3898TIP3   OH233328   3.572   1.447   6.828 -0.2563  0.1001 -0.2454
 3898TIP3    H133329   3.599   1.532   6.794 -0.2780  0.0837 -0.3038
 3898TIP3    H233330   3.596   1.449   6.921  1.9927 -0.7535 -0.7410
 3899TIP3   OH233331   2.196   0.797   1.647  0.0293  0.1144  0.1816
 3899TIP3    H133332   2.120   0.855   1.643 -1.3663 -1.3928  2.6699
 3899TIP3    H233333   2.234   0.813   1.734  1.3360 -0.6591 -0.2217
 3900TIP3   OH233334   3.704   2.060   7.080  0.4239 -0.0545  0.0484
 3900TIP3    H133335   3.752   2.127   7.031  0.3797  0.3349  0.5273
 3900TIP3    H233336   3.622   2.049   7.032 -0.1290  1.1757  0.6735
 3901TIP3   OH233337   3.273   3.419   1.188  0.3346 -0.2037 -0.5601
 3901TIP3    H133338   3.272   3.339   1.136  0.0642 -2.4090  2.5462
 3901TIP3    H233339   3.184   3.454   1.182 -0.2989 -1.6452  0.1310
 3902TIP3   OH233340   0.863   2.491   8.889  0.2822  0.0805 -0.4298
 3902TIP3    H133341   0.888   2.425   8.824 -0.4937 -0.8265  0.1625
 3902TIP3    H233342   0.798   2.545   8.843  0.9379  0.4575 -0.9258
 3903TIP3   OH233343   2.466   6.783   0.759 -0.2879 -0.3501  0.4751
 3903TIP3    H133344   2.489   6.737   0.840 -1.8349 -0.6861  0.7599
 3903TIP3    H233345   2.376   6.755   0.741 -0.6711  1.2770 -0.2737
 3904TIP3   OH233346   3.720   2.593   1.662  0.0399  0.4229  0.1128
 3904TIP3    H133347   3.802   2.551   1.688  0.4313  1.5933  0.8875
 3904TIP3    H233348   3.692   2.547   1.583  1.5568  0.1415 -0.2763
 3905TIP3   OH233349   3.980   6.639   2.652 -0.2050 -0.4327 -0.1664
 3905TIP3    H133350   4.027   6.687   2.583  0.6940 -1.0003  0.0425
 3905TIP3    H233351   4.047   6.588   2.696 -0.8914 -0.6158  0.6898
 3906TIP3   OH233352   3.593   6.699   0.976  0.6334  0.1562  0.5006
 3906TIP3    H133353   3.504   6.686   1.011  0.5121  0.2604  0.2311
 3906TIP3    H233354   3.622   6.611   0.953  1.3339 -0.1317  2.3432
 3907TIP3   OH233355   0.034   3.821   8.901  0.2253  0.1125  0.2278
 3907TIP3    H133356   0.097   3.889   8.924  0.7333 -0.4307  0.4776
 3907TIP3    H233357   0.009   3.782   8.985  0.8286 -0.7737  0.0182
 3908TIP3   OH233358   0.825   3.556   2.578 -0.0724  0.5609 -0.6648
 3908TIP3    H133359   0.841   3.585   2.668  0.7675  0.9555 -0.9279
 3908TIP3    H233360   0.778   3.629   2.538  0.8595  1.0238 -0.9494
 3909TIP3   OH233361   2.843   1.057   6.628 -0.2914 -0.2442  0.4208
 3909TIP3    H133362   2.898   1.077   6.552  0.4921  0.8525  1.2293
 3909TIP3    H233363   2.854   0.964   6.642  0.0571 -0.3429 -0.4254
 3910TIP3   OH233364   3.708   3.888   2.348 -0.3195  0.2260  0.2371
 3910TIP3    H133365   3.672   3.801   2.361 -0.1617  0.2867  1.1656
 3910TIP3    H233366   3.759   3.905   2.428  1.3607  0.3325 -0.7954
 3911TIP3   OH233367   1.893   1.926   0.552  0.0814 -0.4575  0.0269
 3911TIP3    H133368   1.946   1.988   0.602 -0.4687 -1.0867  1.4352
 3911TIP3    H233369   1.954   1.855   0.530  0.4352  0.0309 -0.6307
 3912TIP3   OH233370   2.389   0.914   1.129  0.0592 -0.3130  0.4265
 3912TIP3    H133371   2.333   0.836   1.130 -0.5153  0.1056  0.9694
 3912TIP3    H233372   2.396   0.941   1.220  1.1664 -0.3567  0.3753
 3913TIP3   OH233373   5.874   0.892   0.226 -0.7345 -0.2704 -0.6418
 3913TIP3    H133374   5.906   0.880   0.137 -0.0888 -0.4570 -0.3956
 3913TIP3    H233375   5.787   0.931   0.216 -0.8447 -0.6821 -1.3567
 3914TIP3   OH233376   6.469   2.079   1.567 -0.1160  0.0079  0.0482
 3914TIP3    H133377   6.386   2.036   1.590  0.5469 -0.8505  0.9595
 3914TIP3    H233378   6.513   2.015   1.510 -0.7816  1.1776 -1.8456
 3915TIP3   OH233379   2.401   5.299   0.446  0.0073 -0.0997 -0.4427
 3915TIP3    H133380   2.436   5.302   0.357  0.1280 -1.4454 -0.4724
 3915TIP3    H233381   2.321   5.352   0.443  1.5090  2.2591 -0.5907
 3916TIP3   OH233382   1.903   5.347   0.444  0.8143  0.2313  0.5119
 3916TIP3    H133383   1.998   5.343   0.451  0.9392 -1.7655 -1.2462
 3916TIP3    H233384   1.886   5.354   0.350 -0.7614  0.0176  0.7465
 3917TIP3   OH233385   5.651   3.128   8.219 -1.0319 -0.3886 -0.0098
 3917TIP3    H133386   5.585   3.196   8.206 -0.5641 -0.3667 -2.8882
 3917TIP3    H233387   5.644   3.073   8.141  0.9618 -1.6145  0.6152
 3918TIP3   OH233388   6.213   4.162   1.656  0.3128  0.1539 -0.0277
 3918TIP3    H133389   6.242   4.246   1.621  1.5582  0.4492  1.6433
 3918TIP3    H233390   6.220   4.102   1.581  0.3133  1.3070 -0.9895
 3919TIP3   OH233391   1.880   4.362   8.070 -0.2881 -0.4000 -0.1851
 3919TIP3    H133392   1.808   4.367   8.007 -0.1529 -0.2250 -0.3246
 3919TIP3    H233393   1.863   4.282   8.120  0.5702 -1.5064 -1.6086
 3920TIP3   OH233394   4.046   2.745   7.497  0.3282 -0.3942 -0.5513
 3920TIP3    H133395   4.070   2.752   7.589 -2.6309  1.4833  0.2317
 3920TIP3    H233396   4.123   2.778   7.449  2.0814 -1.8244  1.1506
 3921TIP3   OH233397   6.284   0.585   0.327 -0.6855  0.2892  0.2397
 3921TIP3    H133398   6.337   0.664   0.332  1.9494 -1.3675  0.5184
 3921TIP3    H233399   6.316   0.540   0.248 -1.0701 -1.1731  0.8842
 3922TIP3   OH233400   4.903   3.935   2.203  0.0464 -0.7112  0.5070
 3922TIP3    H133401   4.861   3.913   2.287  1.5935 -0.0679  1.4835
 3922TIP3    H233402   4.994   3.952   2.225  0.5613 -0.7917 -1.3736
 3923TIP3   OH233403   3.395   1.440   7.831  0.3593  0.1067 -0.4110
 3923TIP3    H133404   3.421   1.513   7.887  0.3148 -1.6079  1.9628
 3923TIP3    H233405   3.448   1.367   7.860 -1.8173 -1.6221 -0.5353
 3924TIP3   OH233406   4.506   3.258   0.419  0.1352  0.3920  0.0659
 3924TIP3    H133407   4.416   3.252   0.389  0.7795  0.0338 -1.9309
 3924TIP3    H233408   4.547   3.321   0.360  1.4224 -0.1694  0.3228
 3925TIP3   OH233409   2.761   3.003   8.794 -0.0389  0.6725  0.1010
 3925TIP3    H133410   2.806   2.950   8.859 -0.3722 -1.3296 -1.1981
 3925TIP3    H233411   2.738   3.084   8.839 -1.9647 -1.3506  3.1048
 3926TIP3   OH233412   4.450   3.152   1.030 -0.1511  0.0738 -0.1266
 3926TIP3    H133413   4.446   3.199   0.947  2.5142 -0.6479 -0.7828
 3926TIP3    H233414   4.427   3.061   1.008 -1.7602  0.3147  0.4341
 3927TIP3   OH233415   0.007   5.891   2.046 -0.1134  0.0904  0.6692
 3927TIP3    H133416   0.081   5.927   2.095 -2.7788  2.1482  3.5393
 3927TIP3    H233417  -0.034   5.829   2.105 -2.4282  1.3266  0.4938
 3928TIP3   OH233418   0.511   5.700   0.275  0.7766  0.4702  0.0156
 3928TIP3    H133419   0.547   5.613   0.253  2.5201  0.8640  1.0573
 3928TIP3    H233420   0.480   5.735   0.192  0.4609 -0.9534 -0.5060
 3929TIP3   OH233421   5.844   2.389   2.160 -0.0096  0.5067  0.2888
 3929TIP3    H133422   5.902   2.435   2.098 -1.0634  0.8440 -0.4700
 3929TIP3    H233423   5.788   2.458   2.195 -3.4737 -0.3864 -2.8656
 3930TIP3   OH233424   5.887   0.045   1.723  0.5719  0.6428  0.3027
 3930TIP3    H133425   5.922   0.062   1.636  2.7263  2.8888  1.4579
 3930TIP3    H233426   5.895  -0.049   1.735 -0.4574  0.1907 -2.1409
 3931TIP3   OH233427   0.047   5.487   0.248  0.4294 -0.0865 -0.5007
 3931TIP3    H133428   0.107   5.550   0.287  0.6172 -1.6733  2.0309
 3931TIP3    H233429   0.088   5.463   0.165  0.1252  3.3060 -1.7690
 3932TIP3   OH233430   0.646   2.323   8.311  0.1855  0.2120 -0.0923
 3932TIP3    H133431   0.635   2.243   8.259  0.8469 -1.3721  2.0800
 3932TIP3    H233432   0.566   2.373   8.294 -0.7295 -1.3706 -0.7160
 3933TIP3   OH233433   4.103   6.019   1.402  0.3884  0.3841  0.0622
 3933TIP3    H133434   4.173   5.954   1.403 -0.9062 -1.0800 -0.1493
 3933TIP3    H233435   4.052   6.000   1.481 -0.9397  0.0543 -0.8385
 3934TIP3   OH233436   6.675   1.129   0.826 -0.1147 -0.2320 -0.7208
 3934TIP3    H133437   6.691   1.223   0.827 -0.5277 -0.1487  0.7148
 3934TIP3    H233438   6.758   1.090   0.854 -1.2299  0.0401  3.7017
 3935TIP3   OH233439   6.512   6.179   0.599  0.0972  0.0000 -0.4553
 3935TIP3    H133440   6.492   6.202   0.689  0.9887  1.9924 -0.7047
 3935TIP3    H233441   6.451   6.108   0.577 -0.1520 -0.4894  1.6718
 3936TIP3   OH233442   1.133   0.605   0.288  0.4551 -0.7562 -0.3523
 3936TIP3    H133443   1.124   0.514   0.261  1.0778 -0.8230 -0.3387
 3936TIP3    H233444   1.219   0.632   0.255  0.7753 -0.5204  0.6190
 3937TIP3   OH233445   0.547   3.500   1.696  0.4499 -0.0095 -0.2972
 3937TIP3    H133446   0.635   3.474   1.724 -0.1508 -1.4150  0.3700
 3937TIP3    H233447   0.490   3.473   1.768 -0.6379  0.1268 -1.0855
 3938TIP3   OH233448   4.421   0.932   0.684  0.2137  0.0097  0.5866
 3938TIP3    H133449   4.354   0.913   0.619 -0.5042  0.8728  1.0588
 3938TIP3    H233450   4.379   0.914   0.768  0.0233  1.9937  0.9760
 3939TIP3   OH233451   4.123   5.624   7.251  0.0225 -0.6434  0.1367
 3939TIP3    H133452   4.108   5.565   7.177  0.5575 -1.4144  0.6291
 3939TIP3    H233453   4.192   5.683   7.222  1.1860 -1.7947  0.4679
 3940TIP3   OH233454   5.379   0.111   0.543 -0.3778 -0.3640  0.1225
 3940TIP3    H133455   5.344   0.103   0.455 -0.5297 -0.0694  0.1548
 3940TIP3    H233456   5.357   0.200   0.570 -1.2571 -0.7788  0.8544
 3941TIP3   OH233457   0.657   3.521   7.957 -0.5018 -0.0496  0.6842
 3941TIP3    H133458   0.744   3.482   7.961 -0.5041 -0.0517  0.7128
 3941TIP3    H233459   0.608   3.465   7.898 -0.5425 -0.1600  0.8238
 3942TIP3   OH233460   1.298   6.410   2.241 -0.3879 -0.6161 -0.1248
 3942TIP3    H133461   1.230   6.469   2.272  1.1993  0.5023  1.5193
 3942TIP3    H233462   1.291   6.333   2.298  0.2911 -0.0794  0.7140
 3943TIP3   OH233463   1.318   5.592   0.515 -0.1167  0.2993  0.1328
 3943TIP3    H133464   1.365   5.548   0.444  1.0974  2.3922 -0.4724
 3943TIP3    H233465   1.264   5.658   0.471 -0.0403  1.0231  1.0888
 3944TIP3   OH233466   1.749   1.265   8.206 -0.2402 -0.3179 -0.0360
 3944TIP3    H133467   1.796   1.182   8.213 -0.0972 -0.1364  1.6231
 3944TIP3    H233468   1.791   1.310   8.132  0.1068 -1.4406 -0.5511
 3945TIP3   OH233469   1.255   5.235   7.211 -0.8888  0.0332  0.4314
 3945TIP3    H133470   1.330   5.197   7.257 -0.7122 -0.8588 -0.5613
 3945TIP3    H233471   1.199   5.160   7.190 -1.8224  0.6306  0.7176
 3946TIP3   OH233472   5.693   5.069   0.596 -0.2863 -0.1595 -0.4909
 3946TIP3    H133473   5.735   5.118   0.526 -1.0441  0.0829 -0.7791
 3946TIP3    H233474   5.756   5.000   0.618  0.5881  0.6476 -0.3990
 3947TIP3   OH233475   0.409   0.797   8.419  0.3747  0.2180 -0.3065
 3947TIP3    H133476   0.459   0.879   8.416 -1.0685  1.1723  0.1054
 3947TIP3    H233477   0.382   0.789   8.510 -1.2771  0.4576 -0.7299
 3948TIP3   OH233478   1.863   5.344   7.939 -0.0871 -0.0207 -0.4203
 3948TIP3    H133479   1.888   5.335   7.847 -0.2853  1.7721 -0.6822
 3948TIP3    H233480   1.774   5.381   7.936  1.2149  3.5541  0.3818
 3949TIP3   OH233481   2.489   5.034   1.407 -0.1725  0.1021  0.2510
 3949TIP3    H133482   2.495   5.041   1.312  0.4223 -0.1487  0.2644
 3949TIP3    H233483   2.403   5.070   1.429 -0.5966 -0.4611 -0.4449
 3950TIP3   OH233484   3.942   4.068   0.650 -0.1455  0.5691  0.1278
 3950TIP3    H133485   4.030   4.104   0.652 -0.0603  0.4058 -0.5453
 3950TIP3    H233486   3.954   3.976   0.626 -0.4627  0.4213  0.5203
 3951TIP3   OH233487   0.100   3.318   8.182 -0.6901  0.9051  0.4084
 3951TIP3    H133488   0.030   3.288   8.123 -0.0689 -0.5566  0.3539
 3951TIP3    H233489   0.174   3.261   8.160 -0.3287  0.5863  2.3475
 3952TIP3   OH233490   4.611   1.497   1.155 -0.1552  0.4412  0.2926
 3952TIP3    H133491   4.704   1.519   1.160  0.3445 -1.4550  0.1937
 3952TIP3    H233492   4.610   1.406   1.124 -2.0350  0.2723  0.7525
 3953TIP3   OH233493   1.725   0.656   0.644 -0.3635 -0.3955  0.1566
 3953TIP3    H133494   1.685   0.667   0.730 -0.1078  2.8351 -0.0034
 3953TIP3    H233495   1.804   0.604   0.660 -0.4910 -0.1351  1.8263
 3954TIP3   OH233496   5.776   3.543   2.079 -0.0852  0.1459 -0.2779
 3954TIP3    H133497   5.766   3.495   2.161 -1.4253 -0.0005 -0.5105
 3954TIP3    H233498   5.770   3.635   2.104  0.0451  0.1180 -0.1432
 3955TIP3   OH233499   4.583   2.134   7.941 -0.6636  0.0950  0.0332
 3955TIP3    H133500   4.634   2.207   7.976 -0.9190  0.6101 -0.6653
 3955TIP3    H233501   4.596   2.138   7.846 -0.5487 -0.8700 -0.0064
 3956TIP3   OH233502   2.765   2.129   1.278  0.6261  0.0481 -0.9787
 3956TIP3    H133503   2.768   2.073   1.201 -4.7258  0.1549 -1.6167
 3956TIP3    H233504   2.772   2.069   1.352  0.1465 -0.8366 -1.6270
 3957TIP3   OH233505   5.511   0.697   1.030 -0.5090 -0.1890 -0.7273
 3957TIP3    H133506   5.449   0.711   0.958  1.2318 -0.6458 -2.4159
 3957TIP3    H233507   5.487   0.611   1.065 -3.1670  1.2179  1.2278
 3958TIP3   OH233508   0.461   0.918   8.015 -0.1782 -0.5023  0.0990
 3958TIP3    H133509   0.461   0.822   8.006  1.4365 -0.3880 -1.8581
 3958TIP3    H233510   0.408   0.948   7.940  1.3615  0.1648 -0.7671
 3959TIP3   OH233511   1.849   5.758   1.673  0.0042  0.4872 -0.0554
 3959TIP3    H133512   1.873   5.682   1.620  0.6083  1.2452 -0.8994
 3959TIP3    H233513   1.761   5.781   1.643  0.4322  1.0526 -0.9238
 3960TIP3   OH233514   4.216   4.458   1.447  0.7962 -0.3742  0.2995
 3960TIP3    H133515   4.293   4.514   1.458  1.7652 -1.5973 -0.0300
 3960TIP3    H233516   4.212   4.442   1.352 -0.4225  0.4090  0.1964
 3961TIP3   OH233517   3.995   1.465   0.705  0.2671 -0.3547  0.2309
 3961TIP3    H133518   3.924   1.529   0.695 -0.2410 -0.8281  0.7460
 3961TIP3    H233519   3.969   1.392   0.648  2.5620  1.2527 -3.2427
 3962TIP3   OH233520   3.410   1.583   7.076 -0.2653 -0.0430  0.0377
 3962TIP3    H133521   3.318   1.598   7.097  0.0206  1.3778  0.4315
 3962TIP3    H233522   3.421   1.488   7.080 -1.8338 -0.2779 -0.5935
 3963TIP3   OH233523   5.272   2.798   8.353  0.4614 -0.0784 -0.1997
 3963TIP3    H133524   5.292   2.874   8.407 -0.1366 -0.1882  0.1915
 3963TIP3    H233525   5.287   2.723   8.410 -2.3296 -0.1312  0.6225
 3964TIP3   OH233526   3.261   0.148   1.165  0.3320 -0.1192  0.2251
 3964TIP3    H133527   3.325   0.078   1.176  0.0055 -0.6044 -0.8584
 3964TIP3    H233528   3.291   0.217   1.224  0.4578 -1.3007  1.6067
 3965TIP3   OH233529   1.708   2.144   1.140  0.4723 -1.2035 -0.7065
 3965TIP3    H133530   1.792   2.116   1.104 -0.1099  0.3455 -3.5773
 3965TIP3    H233531   1.690   2.228   1.097 -0.0960  1.2897  3.7690
 3966TIP3   OH233532   3.997   2.564   2.396 -0.5662  0.0974 -0.3413
 3966TIP3    H133533   3.930   2.525   2.452 -0.6490  0.7714  0.0298
 3966TIP3    H233534   4.079   2.523   2.423 -0.6876  0.0019 -0.1227
 3967TIP3   OH233535   3.185   1.393   6.915 -0.1194  0.1261 -0.2822
 3967TIP3    H133536   3.279   1.378   6.928  0.1765  0.6679 -1.6214
 3967TIP3    H233537   3.162   1.460   6.979  0.0411 -1.1388  1.1340
 3968TIP3   OH233538   0.275   2.595   1.432  0.4012  0.2307 -0.1510
 3968TIP3    H133539   0.311   2.664   1.377 -0.1648  0.9297  0.3396
 3968TIP3    H233540   0.282   2.628   1.521  2.5938 -1.4677  0.3892
 3969TIP3   OH233541   3.256   4.313   8.261 -0.1753 -0.2319  0.6062
 3969TIP3    H133542   3.226   4.227   8.288 -0.7795 -0.3089 -0.2477
 3969TIP3    H233543   3.284   4.356   8.342 -2.9346 -0.0266  1.5682
 3970TIP3   OH233544   6.669   2.123   0.692 -0.3432  0.2136 -0.2233
 3970TIP3    H133545   6.583   2.136   0.731 -0.6334  1.0054 -1.0893
 3970TIP3    H233546   6.667   2.174   0.611  1.0762  0.5969 -0.0570
 3971TIP3   OH233547   5.534   4.259   0.968  0.2182 -0.3258 -0.1631
 3971TIP3    H133548   5.496   4.333   0.921 -1.3500 -0.9825  0.0025
 3971TIP3    H233549   5.571   4.297   1.047  0.5107  0.4346 -0.6557
 3972TIP3   OH233550   4.158   1.005   0.096 -0.5222  0.4248 -0.1119
 3972TIP3    H133551   4.253   1.000   0.092 -0.5129  0.2384  0.2927
 3972TIP3    H233552   4.134   0.948   0.169 -0.8674  1.4316  0.5758
 3973TIP3   OH233553   0.479   1.745   6.952 -0.2072 -0.0062  0.1292
 3973TIP3    H133554   0.539   1.817   6.931  1.6567 -1.1683  1.1425
 3973TIP3    H233555   0.493   1.682   6.882  0.0141 -0.4190  0.5389
 3974TIP3   OH233556   1.483   1.171   8.304  0.2651  0.2608 -0.0426
 3974TIP3    H133557   1.508   1.115   8.378 -2.8624  1.0937  1.8403
 3974TIP3    H233558   1.566   1.209   8.274  1.9173 -1.8188  1.5782
 3975TIP3   OH233559   5.853   6.652   8.412  0.4001  0.5041 -0.2592
 3975TIP3    H133560   5.868   6.741   8.443 -0.8698 -0.2301  2.8045
 3975TIP3    H233561   5.939   6.622   8.383  1.2379  2.0992  0.4383
 3976TIP3   OH233562   3.997   6.187   8.393  0.2561 -0.7665 -0.2734
 3976TIP3    H133563   3.930   6.172   8.460 -0.6958  1.1601 -0.7412
 3976TIP3    H233564   3.950   6.224   8.319  1.7735  0.3617 -0.7345
 3977TIP3   OH233565   5.698   0.554   8.614  0.0540 -0.3153 -0.1590
 3977TIP3    H133566   5.675   0.647   8.617  1.7850  0.1553 -0.4196
 3977TIP3    H233567   5.769   0.545   8.678  0.4885 -1.2667 -0.7576
 3978TIP3   OH233568   0.728   0.523   7.631 -0.0603  0.3579  0.1716
 3978TIP3    H133569   0.770   0.593   7.580  2.2554 -0.3476  0.9876
 3978TIP3    H233570   0.758   0.443   7.588 -1.0927 -0.1744  0.4422
 3979TIP3   OH233571   1.817   1.978   7.337 -0.7100  0.6744 -0.5217
 3979TIP3    H133572   1.782   1.996   7.425 -1.5416  1.1287 -0.9378
 3979TIP3    H233573   1.766   2.033   7.279 -0.7518 -0.2652 -1.4068
 3980TIP3   OH233574   5.611   1.008   8.843  0.2593 -0.1652 -0.3337
 3980TIP3    H133575   5.627   1.097   8.813 -1.3847 -0.6756 -3.1240
 3980TIP3    H233576   5.697   0.973   8.864  1.1441  1.4476 -1.1283
 3981TIP3   OH233577   4.676   1.444   2.562  1.1514  0.5946  0.6291
 3981TIP3    H133578   4.766   1.423   2.538  0.2965 -0.2412 -2.2461
 3981TIP3    H233579   4.625   1.369   2.532 -0.8335  2.3539 -0.6444
 3982TIP3   OH233580   0.782   5.173   2.596 -0.4497  0.1875 -0.3677
 3982TIP3    H133581   0.856   5.119   2.624 -0.4671  0.1566 -0.3813
 3982TIP3    H233582   0.710   5.112   2.586 -0.4753  0.2165 -0.3623
 3983TIP3   OH233583   1.842   2.694   0.536 -0.3900 -0.3831 -0.1113
 3983TIP3    H133584   1.899   2.619   0.514  0.3487 -0.5308  2.0864
 3983TIP3    H233585   1.754   2.663   0.517 -0.0213 -1.5132 -0.0708
 3984TIP3   OH233586   6.616   4.704   8.610  0.1648  0.3827  0.0453
 3984TIP3    H133587   6.537   4.758   8.601  0.6113  1.3117  1.4112
 3984TIP3    H233588   6.607   4.664   8.696  0.9627  0.1041  0.0019
 3985TIP3   OH233589   6.280   2.341   8.733 -0.3656 -0.9338  0.1795
 3985TIP3    H133590   6.371   2.369   8.743 -0.9880  0.7149  1.8970
 3985TIP3    H233591   6.280   2.286   8.654  1.8519  0.0938 -0.6183
 3986TIP3   OH233592   5.820   3.749   0.201  1.2388 -0.3601 -0.0055
 3986TIP3    H133593   5.814   3.701   0.118  0.1258 -2.0997  1.0126
 3986TIP3    H233594   5.845   3.683   0.265  1.9024  0.9138  1.0991
 3987TIP3   OH233595   3.462   4.911   7.913 -0.2926  0.4003  0.1850
 3987TIP3    H133596   3.493   4.885   8.000  1.3807 -1.2965 -0.8305
 3987TIP3    H233597   3.542   4.916   7.860 -1.2990  1.0959 -1.3330
 3988TIP3   OH233598   3.899   0.007   2.227 -0.1954  0.6551  0.1021
 3988TIP3    H133599   3.947  -0.064   2.269  0.3192  0.8138 -0.2124
 3988TIP3    H233600   3.840   0.039   2.295 -0.5591 -0.1862  0.1946
 3989TIP3   OH233601   4.272   3.418   3.245 -0.5430 -0.3260 -0.3964
 3989TIP3    H133602   4.291   3.327   3.221  0.3210  0.0848 -1.3593
 3989TIP3    H233603   4.210   3.447   3.178  1.0518  0.5050 -1.5801
 3990TIP3   OH233604   2.606   5.965   2.840  0.4177  0.4934  0.0790
 3990TIP3    H133605   2.529   5.909   2.850  1.1822 -0.5899  0.0732
 3990TIP3    H233606   2.570   6.053   2.827 -0.8199 -0.0251 -0.1693
 3991TIP3   OH233607   2.779   0.006   1.327 -0.5797 -0.1953  0.0578
 3991TIP3    H133608   2.685   0.025   1.315 -0.1259  3.4304  1.0566
 3991TIP3    H233609   2.789  -0.006   1.421 -0.4123 -4.0876 -0.2891
 3992TIP3   OH233610   5.943   1.697   8.177  0.0061 -0.7317 -0.0584
 3992TIP3    H133611   5.962   1.680   8.085 -0.1740  0.6403 -0.3703
 3992TIP3    H233612   5.871   1.759   8.176 -1.6549 -2.5227  1.0598
 3993TIP3   OH233613   2.542   4.641   0.879  0.2696 -0.3732 -0.0442
 3993TIP3    H133614   2.551   4.665   0.786  2.2327  2.0128  0.6527
 3993TIP3    H233615   2.481   4.706   0.914  1.0235 -0.0462  0.6927
 3994TIP3   OH233616   2.783   0.422   8.575 -0.0121 -0.0589 -0.3083
 3994TIP3    H133617   2.857   0.452   8.521 -0.5081  0.0781 -0.9239
 3994TIP3    H233618   2.818   0.349   8.626  0.1314 -1.0521 -1.7771
 3995TIP3   OH233619   0.855   0.847   7.761 -0.1503 -0.0766 -0.5895
 3995TIP3    H133620   0.838   0.801   7.679  0.1756 -2.7995  0.7574
 3995TIP3    H233621   0.813   0.793   7.828  2.3535  0.2232  1.3782
 3996TIP3   OH233622   2.530   3.095   0.206  0.7533  0.4982 -0.6730
 3996TIP3    H133623   2.543   3.002   0.227 -1.5482 -0.1445 -1.7021
 3996TIP3    H233624   2.542   3.140   0.289 -1.2188 -1.1388  0.6137
 3997TIP3   OH233625   1.446   2.386   0.766  0.9724  0.3520  0.0969
 3997TIP3    H133626   1.456   2.317   0.832  1.9420  0.6937  0.3228
 3997TIP3    H233627   1.536   2.405   0.738  0.7538  1.8160  0.3401
 3998TIP3   OH233628   0.747   1.233   7.864  0.2235  0.1307  0.2255
 3998TIP3    H133629   0.767   1.195   7.779 -0.6909 -2.1159  0.9294
 3998TIP3    H233630   0.672   1.289   7.848 -0.7006 -1.2004 -0.2861
 3999TIP3   OH233631   4.337   5.305   2.108 -0.7438  0.5013 -0.7982
 3999TIP3    H133632   4.270   5.248   2.147  0.3075 -0.0431  0.2889
 3999TIP3    H233633   4.340   5.381   2.166  0.2998  0.0359 -0.2271
 4000TIP3   OH233634   0.638   3.118   0.431 -0.1737  0.1439 -0.0792
 4000TIP3    H133635   0.719   3.104   0.480  0.5623  1.9879 -0.6702
 4000TIP3    H233636   0.661   3.098   0.340 -1.2158 -2.1367  0.1090
 4001TIP3   OH233637   3.552   4.865   0.644 -0.3383 -0.1608 -0.3173
 4001TIP3    H133638   3.482   4.847   0.707 -0.0687  2.0144  0.6819
 4001TIP3    H233639   3.632   4.843   0.691 -0.2273 -0.3067 -0.5757
 4002TIP3   OH233640   4.106   3.148   1.292 -0.7199  0.1187  0.1104
 4002TIP3    H133641   4.160   3.153   1.371  0.7548  0.4100 -0.8912
 4002TIP3    H233642   4.017   3.161   1.324  0.0163  2.3187  1.4908
 4003TIP3   OH233643   3.327   6.700   1.059 -0.6550  0.0624  0.2262
 4003TIP3    H133644   3.237   6.732   1.068 -0.7956 -0.7115  2.1361
 4003TIP3    H233645   3.322   6.608   1.087  0.5262 -0.3373 -0.8293
 4004TIP3   OH233646   0.171   3.928   7.578 -0.2486  0.4826  0.3220
 4004TIP3    H133647   0.095   3.923   7.519  0.0996 -0.6005 -0.0459
 4004TIP3    H233648   0.199   3.838   7.588 -1.0772  0.4505  3.1917
 4005TIP3   OH233649   1.760   2.819   1.813  0.1312 -0.0158  0.6043
 4005TIP3    H133650   1.768   2.777   1.898  0.0018 -0.9371  0.1744
 4005TIP3    H233651   1.694   2.887   1.826 -1.4778 -1.5465  0.7305
 4006TIP3   OH233652   4.467   3.018   0.698 -0.0545 -0.9160  0.7034
 4006TIP3    H133653   4.436   2.974   0.619  1.4604 -0.6572 -0.0761
 4006TIP3    H233654   4.554   2.981   0.714  0.9975  1.2697  0.3857
 4007TIP3   OH233655   2.474   4.578   8.435  0.0426 -0.5003 -0.0275
 4007TIP3    H133656   2.434   4.613   8.515 -0.0748 -0.3140 -0.1695
 4007TIP3    H233657   2.450   4.640   8.366  2.2315  0.7190  0.2201
 4008TIP3   OH233658   2.520   1.062   8.320 -0.3451  0.5016 -0.0697
 4008TIP3    H133659   2.520   1.040   8.413  2.0541  1.6365  0.2733
 4008TIP3    H233660   2.577   0.997   8.279  1.9711  2.3406  0.0055
 4009TIP3   OH233661   2.758   5.928   0.541  0.2696 -0.3825 -0.0609
 4009TIP3    H133662   2.794   5.841   0.560  0.2163 -0.9282 -2.1856
 4009TIP3    H233663   2.828   5.988   0.564  0.6520 -1.0444  0.5758
 4010TIP3   OH233664   3.981   4.304   7.727  0.1789  0.3814  0.4678
 4010TIP3    H133665   3.978   4.222   7.776 -0.2600 -0.6613 -1.2484
 4010TIP3    H233666   3.977   4.278   7.635 -0.3870  2.3406 -0.1100
 4011TIP3   OH233667   0.576   5.801   0.629 -0.0753  0.0054  0.1169
 4011TIP3    H133668   0.656   5.799   0.576  1.2383  0.4215  1.9908
 4011TIP3    H233669   0.606   5.821   0.718 -2.0874 -1.5043  1.2292
 4012TIP3   OH233670   5.915   4.876   2.475  0.3135 -0.0863 -0.2001
 4012TIP3    H133671   5.995   4.883   2.421  2.1157 -0.4576  2.2528
 4012TIP3    H233672   5.947   4.874   2.565 -2.5809  0.7454  0.9553
 4013TIP3   OH233673   4.051   0.576   7.394  0.3410  0.9235  0.0302
 4013TIP3    H133674   4.113   0.639   7.430  0.0242  0.9885  0.4710
 4013TIP3    H233675   4.100   0.529   7.326  0.1208  2.8006 -1.5264
 4014TIP3   OH233676   5.693   0.497   7.304 -0.0134 -0.1215 -0.2700
 4014TIP3    H133677   5.637   0.478   7.229 -0.2643 -0.4158 -0.0092
 4014TIP3    H233678   5.695   0.415   7.354  1.0534 -0.2738 -0.5410
 4015TIP3   OH233679   5.305   3.645   7.900  0.1754 -0.3063 -0.0627
 4015TIP3    H133680   5.343   3.685   7.978  0.2867  0.9004 -0.7035
 4015TIP3    H233681   5.215   3.625   7.924  0.0105  0.6770  0.1889
 4016TIP3   OH233682   3.349   5.779   7.420 -0.2646  0.5193 -0.0436
 4016TIP3    H133683   3.408   5.802   7.349 -1.3500 -1.2806 -1.6264
 4016TIP3    H233684   3.261   5.790   7.383 -0.8507 -0.8597  0.8639
 4017TIP3   OH233685   6.651   6.072   6.829  0.2830 -0.3755 -0.1152
 4017TIP3    H133686   6.594   6.117   6.767 -1.2180 -3.2052 -0.9133
 4017TIP3    H233687   6.737   6.070   6.785  0.4130  1.5456 -0.0613
 4018TIP3   OH233688   4.616   1.036   0.931 -0.1095 -0.0280 -0.7153
 4018TIP3    H133689   4.687   1.026   0.868  0.5202  1.4046 -0.2739
 4018TIP3    H233690   4.596   0.946   0.958  0.8598 -0.5332 -1.5633
 4019TIP3   OH233691   2.235   1.361   0.272 -0.1866 -0.8020 -0.0386
 4019TIP3    H133692   2.275   1.275   0.282  0.6285 -0.5555 -0.9543
 4019TIP3    H233693   2.299   1.411   0.220 -2.4974 -0.9664 -3.2931
 4020TIP3   OH233694   5.780   6.252   0.150 -0.0166 -0.6840 -0.1193
 4020TIP3    H133695   5.777   6.228   0.058 -1.3886 -3.0178  0.4616
 4020TIP3    H233696   5.688   6.260   0.176  0.3509  0.4349  0.9547
 4021TIP3   OH233697   4.995   2.210   8.736 -0.0319  0.3200 -1.1444
 4021TIP3    H133698   4.916   2.212   8.682  0.1890 -0.8628 -1.5489
 4021TIP3    H233699   5.062   2.173   8.678  0.5638  0.3780 -0.5008
 4022TIP3   OH233700   4.582   5.396   8.722  0.1820 -0.0433  0.7423
 4022TIP3    H133701   4.577   5.451   8.643  1.8346  1.7230  1.7812
 4022TIP3    H233702   4.674   5.397   8.746 -0.0495 -1.8428  1.8526
 4023TIP3   OH233703   3.842   5.644   1.868  0.0654 -0.2840 -0.1126
 4023TIP3    H133704   3.819   5.728   1.910 -1.8090 -0.7252 -0.1904
 4023TIP3    H233705   3.886   5.669   1.787 -0.8623  0.6638 -0.3503
 4024TIP3   OH233706   4.857   0.156   8.030  0.1078 -0.4923  0.1930
 4024TIP3    H133707   4.926   0.098   7.998  0.3153  0.1256 -0.5198
 4024TIP3    H233708   4.890   0.188   8.114  1.1441  0.5172 -0.5546
 4025TIP3   OH233709   4.139   5.593   8.052  0.0599  0.5062 -0.1707
 4025TIP3    H133710   4.087   5.667   8.081 -0.1122 -0.1100  1.1880
 4025TIP3    H233711   4.179   5.558   8.132 -0.1846 -1.0971 -0.6966
 4026TIP3   OH233712   5.906   6.563   7.239  0.6088  0.1113 -0.4524
 4026TIP3    H133713   5.898   6.474   7.273  2.1909  0.2155  0.3067
 4026TIP3    H233714   5.824   6.578   7.191 -0.6671 -0.9158  1.2984
 4027TIP3   OH233715   4.853   2.679   1.501  0.3232 -0.3950 -0.4716
 4027TIP3    H133716   4.896   2.738   1.563  1.1461 -1.8397  0.3914
 4027TIP3    H233717   4.850   2.728   1.419  1.4588  0.6436  0.0772
 4028TIP3   OH233718   5.309   0.695   8.730  0.2265 -0.4933  0.5406
 4028TIP3    H133719   5.330   0.747   8.807 -0.5657  0.6108  0.0449
 4028TIP3    H233720   5.213   0.694   8.727  0.2376  0.1044 -0.8059
 4029TIP3   OH233721   5.942   1.287   1.265  0.4039 -0.0746  0.8940
 4029TIP3    H133722   5.942   1.342   1.187  0.1252  1.2203  1.7774
 4029TIP3    H233723   5.932   1.198   1.231 -0.0259  0.4833 -0.5235
 4030TIP3   OH233724   1.336   3.494   1.398 -0.1934 -1.0557 -0.2789
 4030TIP3    H133725   1.287   3.495   1.480 -0.2434 -0.3196 -0.3052
 4030TIP3    H233726   1.414   3.443   1.417 -0.5074 -1.4257  0.0394
 4031TIP3   OH233727   3.649   2.989   8.659  0.5733 -0.0447 -0.2737
 4031TIP3    H133728   3.637   2.984   8.754 -1.4057  0.5065 -0.4491
 4031TIP3    H233729   3.573   2.943   8.623  0.8164  0.5331 -1.5909
 4032TIP3   OH233730   6.075   6.067   1.209  0.1426  0.0216  0.1562
 4032TIP3    H133731   6.003   6.076   1.147 -0.9551  0.7834  1.4948
 4032TIP3    H233732   6.072   5.975   1.236 -0.9967  0.2696  0.9485
 4033TIP3   OH233733   5.031   2.014   0.052  0.1368 -0.5466  0.3960
 4033TIP3    H133734   5.012   2.042  -0.037 -2.4030 -1.7327  0.4893
 4033TIP3    H233735   5.087   1.937   0.042 -0.3160 -0.8085 -0.2073
 4034TIP3   OH233736   1.211   4.971   2.556 -0.0392  0.3315 -0.3048
 4034TIP3    H133737   1.304   4.952   2.557  0.0004  0.4891  1.7764
 4034TIP3    H233738   1.206   5.060   2.520  0.6808  0.6017  0.2361
 4035TIP3   OH233739   2.719   4.658   8.870 -0.1766 -0.4994 -0.1568
 4035TIP3    H133740   2.720   4.587   8.934 -0.8849 -0.7288 -0.3981
 4035TIP3    H233741   2.632   4.696   8.877 -0.0137 -0.0624 -0.4789
 4036TIP3   OH233742   2.965   6.408   6.800  0.2179  0.6009 -0.0014
 4036TIP3    H133743   3.048   6.453   6.809  0.2873  0.7558 -1.2474
 4036TIP3    H233744   2.956   6.358   6.881  0.7999  1.7432  0.7925
 4037TIP3   OH233745   2.323   2.141   0.652  0.1570 -0.2767  0.3748
 4037TIP3    H133746   2.310   2.220   0.704 -0.0124  0.7106 -1.0790
 4037TIP3    H233747   2.315   2.069   0.714 -0.2704  0.8251  1.6453
 4038TIP3   OH233748   1.262   0.679   1.358 -0.4922  0.1349 -0.3030
 4038TIP3    H133749   1.277   0.585   1.348 -0.9685 -0.2387  1.9392
 4038TIP3    H233750   1.349   0.716   1.373  0.0043  0.4628 -3.3816
 4039TIP3   OH233751   0.452   4.596   0.487 -0.4897  0.1465 -0.2914
 4039TIP3    H133752   0.516   4.577   0.556  0.9028  3.2494 -0.5797
 4039TIP3    H233753   0.384   4.647   0.530 -1.1349 -0.3837 -0.6607
 4040TIP3   OH233754   5.569   6.337   2.237 -0.2369  0.1140 -0.8751
 4040TIP3    H133755   5.571   6.284   2.158  2.2237 -0.4184 -0.5567
 4040TIP3    H233756   5.656   6.325   2.276 -0.4800  2.3774  0.5644
 4041TIP3   OH233757   1.995   0.865   7.557  0.3223 -0.0877  0.7903
 4041TIP3    H133758   1.934   0.887   7.486  0.9457 -1.6468 -0.2937
 4041TIP3    H233759   1.939   0.855   7.634 -0.3673  1.6719  0.5605
 4042TIP3   OH233760   6.119   4.082   7.473 -0.2642  0.4420  1.0944
 4042TIP3    H133761   6.126   3.998   7.428 -2.0612  1.0253 -0.4186
 4042TIP3    H233762   6.209   4.116   7.474  0.2408 -0.7938  0.3132
 4043TIP3   OH233763   2.307   2.601   2.033  0.3068 -0.5063 -0.4315
 4043TIP3    H133764   2.392   2.571   2.000  0.9165  2.1551 -1.5277
 4043TIP3    H233765   2.326   2.639   2.119  0.3439  0.4114 -0.8271
 4044TIP3   OH233766   4.239   5.946   0.046  0.0015 -0.1373 -0.2231
 4044TIP3    H133767   4.308   5.999   0.007  1.5961 -2.0707 -0.1681
 4044TIP3    H233768   4.285   5.877   0.093 -1.9616 -0.5682  1.2094
 4045TIP3   OH233769   0.767   2.086   0.700 -0.6742  0.5840 -0.0231
 4045TIP3    H133770   0.709   2.126   0.635  0.0116  2.1351  0.2738
 4045TIP3    H233771   0.716   2.085   0.780 -0.9884  0.0691 -0.2250
 4046TIP3   OH233772   2.451   4.111   8.226  0.7510 -0.2800 -0.0379
 4046TIP3    H133773   2.425   4.026   8.190 -0.0636 -0.3753  0.7544
 4046TIP3    H233774   2.494   4.090   8.309 -0.2038  0.1146  0.5720
 4047TIP3   OH233775   2.355   0.692   2.681 -0.4321 -0.3280 -0.4562
 4047TIP3    H133776   2.341   0.786   2.688 -0.6049 -0.4299  0.9110
 4047TIP3    H233777   2.442   0.678   2.718 -0.5372 -0.7383 -0.3585
 4048TIP3   OH233778   3.755   1.668   7.505 -0.1038 -0.3820  0.0366
 4048TIP3    H133779   3.734   1.751   7.548 -1.2726 -0.3969 -0.4705
 4048TIP3    H233780   3.712   1.673   7.420  0.2013 -1.3248 -0.1937
 4049TIP3   OH233781   1.225   3.743   7.751  0.3257  0.0670 -0.3985
 4049TIP3    H133782   1.188   3.776   7.669 -0.1817 -1.3131 -0.7681
 4049TIP3    H233783   1.256   3.655   7.729  0.4515 -0.2078  0.8208
 4050TIP3   OH233784   1.087   5.322   2.692 -0.0531 -0.1517 -0.2051
 4050TIP3    H133785   1.012   5.376   2.714  0.1839  0.1743 -0.1927
 4050TIP3    H233786   1.061   5.233   2.715  0.1445  0.1500  1.2829
 4051TIP3   OH233787   3.888   0.680   2.439 -0.5153  0.3088 -0.5010
 4051TIP3    H133788   3.967   0.646   2.399 -1.1007  0.0996 -1.5189
 4051TIP3    H233789   3.850   0.605   2.485 -0.1602  0.3951 -0.0614
 4052TIP3   OH233790   5.874   1.020   1.454  0.4767  0.5188  0.4300
 4052TIP3    H133791   5.949   1.078   1.471  0.3354  0.4992  1.1337
 4052TIP3    H233792   5.809   1.044   1.519 -1.0312  2.0530 -1.5080
 4053TIP3   OH233793   2.104   4.147   0.378 -0.0748 -0.2395 -0.1286
 4053TIP3    H133794   2.185   4.167   0.331 -0.3217 -1.1788 -0.9845
 4053TIP3    H233795   2.034   4.184   0.324 -0.1495  3.7334  2.2803
 4054TIP3   OH233796   0.050   5.401   7.516 -0.1474 -0.0694  0.7398
 4054TIP3    H133797   0.054   5.463   7.589  1.9295  1.4286 -0.5469
 4054TIP3    H233798  -0.010   5.442   7.454 -0.3542 -0.3746  0.7353
 4055TIP3   OH233799   1.754   4.240   8.518 -0.4132 -0.1876 -0.0190
 4055TIP3    H133800   1.762   4.215   8.426 -0.8070  0.9623 -0.3774
 4055TIP3    H233801   1.833   4.289   8.537  0.1401 -1.2656  0.5558
 4056TIP3   OH233802   1.075   6.174   8.767  0.1897 -0.4111 -0.0433
 4056TIP3    H133803   1.164   6.174   8.803  0.5687  0.4336 -0.9286
 4056TIP3    H233804   1.071   6.095   8.713 -0.7811 -2.3670  2.6598
 4057TIP3   OH233805   4.085   3.223   8.236 -0.2516  0.2770 -0.7904
 4057TIP3    H133806   4.140   3.147   8.252  1.3362  1.1348 -1.8945
 4057TIP3    H233807   4.056   3.251   8.323 -0.7319 -1.4404 -0.3551
 4058TIP3   OH233808   5.273   5.034   1.428 -0.3374 -0.0482  0.4961
 4058TIP3    H133809   5.307   4.990   1.505  2.2267  0.9561  0.0459
 4058TIP3    H233810   5.218   5.105   1.462 -0.9733 -0.8985  1.2892
 4059TIP3   OH233811   3.095   3.401   7.481 -0.5963 -0.6761  0.5172
 4059TIP3    H133812   3.097   3.479   7.536  1.9251 -0.9405  0.9154
 4059TIP3    H233813   3.046   3.428   7.403  1.6661  1.9178 -0.1500
 4060TIP3   OH233814   0.888   5.363   1.514  0.1436  0.3648 -0.7656
 4060TIP3    H133815   0.972   5.380   1.470 -0.0033 -1.6400 -1.9714
 4060TIP3    H233816   0.839   5.310   1.451 -1.5208  0.4036  0.4434
 4061TIP3   OH233817   3.013   4.625   2.543  0.2371  0.0556  0.0457
 4061TIP3    H133818   2.970   4.548   2.582  2.2778 -0.6772  0.9660
 4061TIP3    H233819   2.945   4.693   2.544 -1.4904 -1.5996 -0.4068
 4062TIP3   OH233820   5.204   2.246   2.425 -0.1186 -0.2891  0.1028
 4062TIP3    H133821   5.110   2.263   2.416  0.0076  0.3828 -0.0268
 4062TIP3    H233822   5.216   2.158   2.391 -0.9116 -0.9326  1.3812
 4063TIP3   OH233823   3.966   0.871   1.238 -0.3269 -0.8628  0.3015
 4063TIP3    H133824   4.004   0.786   1.261  2.0432  0.3378  1.1720
 4063TIP3    H233825   3.978   0.926   1.315 -2.3697  0.1498 -0.0127
 4064TIP3   OH233826   3.944   0.532   8.392  0.1129  0.2348  0.2853
 4064TIP3    H133827   3.895   0.567   8.318 -0.8547  2.4034  1.8304
 4064TIP3    H233828   3.908   0.444   8.406  1.1556 -0.7149 -2.4686
 4065TIP3   OH233829   0.818   0.950   7.095  0.1044  0.2562 -0.3090
 4065TIP3    H133830   0.822   1.036   7.136 -0.0242  0.5713 -0.9383
 4065TIP3    H233831   0.895   0.903   7.129 -0.8175 -0.0591  1.4795
 4066TIP3   OH233832   0.140   3.174   8.407 -0.3935  0.0874 -0.7460
 4066TIP3    H133833   0.106   3.241   8.348 -1.9034 -0.7458 -0.8862
 4066TIP3    H233834   0.062   3.143   8.454  0.4003 -0.9850 -0.1061
 4067TIP3   OH233835   5.013   2.346   8.016  0.0980 -0.4396 -0.3218
 4067TIP3    H133836   5.025   2.260   8.057 -2.0914 -0.8476 -0.3785
 4067TIP3    H233837   5.053   2.338   7.930  0.3406 -1.2473 -0.1438
 4068TIP3   OH233838   2.891   3.339   7.848 -0.1008 -0.7665  1.0133
 4068TIP3    H133839   2.961   3.397   7.816 -0.2612 -0.7602  0.6758
 4068TIP3    H233840   2.889   3.354   7.943  1.3466 -1.8224  1.2598
 4069TIP3   OH233841   3.457   3.367   8.728 -0.0658 -0.4714  0.8171
 4069TIP3    H133842   3.550   3.377   8.709 -0.2363  0.1685  0.2748
 4069TIP3    H233843   3.445   3.273   8.743  0.6569 -0.5586  0.8613
 4070TIP3   OH233844   2.424   1.593   2.475 -0.7133  0.1184  0.0460
 4070TIP3    H133845   2.379   1.654   2.533 -1.4885  0.0316 -0.4497
 4070TIP3    H233846   2.361   1.522   2.462  0.5786 -1.3999  1.5496
 4071TIP3   OH233847   6.240   5.320   0.555  0.1156 -0.1238  0.1000
 4071TIP3    H133848   6.216   5.241   0.508  0.1162  0.0338 -0.1692
 4071TIP3    H233849   6.335   5.318   0.559  0.2597  0.9297 -1.8127
 4072TIP3   OH233850   0.799   0.665   1.206  0.5948  0.8234  1.0114
 4072TIP3    H133851   0.874   0.672   1.264 -0.1047 -1.1083  2.2340
 4072TIP3    H233852   0.743   0.740   1.229  0.6222  0.4288  2.4249
 4073TIP3   OH233853   0.210   5.095   0.741  0.0574  0.4079 -0.2038
 4073TIP3    H133854   0.274   5.165   0.737 -0.7203  1.1270 -0.2563
 4073TIP3    H233855   0.198   5.068   0.650 -0.8245  1.3161 -0.3785
 4074TIP3   OH233856   4.911   1.885   1.961 -0.0748 -0.0024 -0.2953
 4074TIP3    H133857   4.932   1.852   1.874  0.3559  0.0765 -0.2213
 4074TIP3    H233858   4.980   1.850   2.018  0.9740  1.8095 -0.3772
 4075TIP3   OH233859   4.475   0.543   8.282  0.0647  0.3696 -0.4500
 4075TIP3    H133860   4.481   0.452   8.251  0.2367  0.5474 -0.9494
 4075TIP3    H233861   4.401   0.580   8.232 -1.1982 -0.0038  1.0663
 4076TIP3   OH233862   3.592   0.949   7.395 -0.2462  0.4897  0.7947
 4076TIP3    H133863   3.635   0.912   7.471  1.8471  1.6264  0.2284
 4076TIP3    H233864   3.594   0.880   7.329  2.5638  1.0682  0.1377
 4077TIP3   OH233865   1.436   3.993   0.425  0.2698 -0.1845 -0.4466
 4077TIP3    H133866   1.460   4.079   0.459 -0.8364 -0.2314  0.4955
 4077TIP3    H233867   1.498   3.933   0.466 -1.3808 -0.3246  2.0759
 4078TIP3   OH233868   1.426   2.759   1.243  0.1418 -0.6413  0.2708
 4078TIP3    H133869   1.427   2.850   1.275 -2.3702 -0.0451 -1.1303
 4078TIP3    H233870   1.453   2.707   1.319 -1.0290  1.0624  1.9443
 4079TIP3   OH233871   1.918   0.523   0.766  0.0312 -0.0423 -0.3937
 4079TIP3    H133872   1.934   0.444   0.819  1.6332  1.3111  1.2888
 4079TIP3    H233873   2.005   0.556   0.746 -0.6126  1.3839 -0.9586
 4080TIP3   OH233874   3.584   6.377   0.680  0.1610 -0.5279 -0.0014
 4080TIP3    H133875   3.658   6.429   0.649 -0.2056  0.5118  0.8210
 4080TIP3    H233876   3.587   6.297   0.627  1.8041 -0.4632 -0.0644
 4081TIP3   OH233877   1.215   3.405   8.037 -0.0458  0.3957 -0.3130
 4081TIP3    H133878   1.296   3.413   8.088  1.3863 -0.1156 -2.3769
 4081TIP3    H233879   1.183   3.495   8.029 -0.9190  0.4166  2.2682
 4082TIP3   OH233880   4.751   3.651   2.437  0.1287  0.4948 -0.4585
 4082TIP3    H133881   4.682   3.601   2.393 -0.2375 -0.7743  1.4099
 4082TIP3    H233882   4.706   3.727   2.474 -0.3023 -0.2904  0.6906
 4083TIP3   OH233883   5.292   1.923   0.325 -0.1274 -0.2646 -0.1272
 4083TIP3    H133884   5.322   2.011   0.348 -0.5669 -0.3114  0.6552
 4083TIP3    H233885   5.199   1.922   0.348 -0.2677 -0.7512 -0.6830
 4084TIP3   OH233886   5.367   3.890   7.482  0.2040  0.0343  0.9509
 4084TIP3    H133887   5.389   3.983   7.478  1.6074 -0.2228  1.7596
 4084TIP3    H233888   5.336   3.876   7.571 -0.1896 -0.2411  0.7755
 4085TIP3   OH233889   6.048   0.431   0.698 -0.1865  0.0398 -0.3534
 4085TIP3    H133890   5.974   0.405   0.643 -1.1475  0.3400  0.7475
 4085TIP3    H233891   6.071   0.519   0.668  1.4205 -0.9860 -2.3906
 4086TIP3   OH233892   6.683   4.845   2.639  0.4299 -0.1837 -0.1875
 4086TIP3    H133893   6.715   4.815   2.554 -1.2286 -0.1681 -0.8525
 4086TIP3    H233894   6.608   4.902   2.618  2.1182  2.7557  1.1313
 4087TIP3   OH233895   6.264   1.459   8.613  0.1042 -0.2919 -0.1487
 4087TIP3    H133896   6.277   1.428   8.524 -2.2139  0.1152 -0.7106
 4087TIP3    H233897   6.223   1.545   8.603  0.3910  0.0497  1.3103
 4088TIP3   OH233898   0.354   1.628   7.384  0.1908  0.8200  0.0679
 4088TIP3    H133899   0.410   1.564   7.428 -0.3436 -0.0133 -0.4359
 4088TIP3    H233900   0.302   1.667   7.454 -0.0459  0.1216  0.2862
 4089TIP3   OH233901   2.638   0.688   1.149  0.3316  0.6402  0.0246
 4089TIP3    H133902   2.713   0.633   1.127  0.9201  0.8342  1.4520
 4089TIP3    H233903   2.562   0.639   1.116  0.9668 -0.2267 -0.1942
 4090TIP3   OH233904   4.995   1.406   8.066  0.2538  0.3561 -0.0007
 4090TIP3    H133905   5.046   1.372   8.139 -0.5188  0.2371  0.4868
 4090TIP3    H233906   4.991   1.501   8.081 -0.2192  0.2865  0.3106
 4091TIP3   OH233907   1.256   4.449   8.623  0.2086 -0.4440  0.4732
 4091TIP3    H133908   1.247   4.504   8.701  1.1622  2.7088 -1.4383
 4091TIP3    H233909   1.337   4.399   8.638  0.5975  0.4261  1.3552
 4092TIP3   OH233910   5.346   0.862   1.287 -1.0807 -0.5723  0.3233
 4092TIP3    H133911   5.310   0.898   1.206 -0.8264  0.6613  0.7517
 4092TIP3    H233912   5.382   0.937   1.333 -1.6460 -1.1829  1.8192
 4093TIP3   OH233913   4.190   0.768   0.718 -0.7163 -0.0823  0.0530
 4093TIP3    H133914   4.168   0.770   0.625 -2.6859  1.4539  0.4936
 4093TIP3    H233915   4.126   0.709   0.757 -0.5525  0.0988  0.6025
 4094TIP3   OH233916   5.672   1.369   0.273  0.4030  0.1615 -0.0646
 4094TIP3    H133917   5.620   1.439   0.234  1.0960 -0.0003 -1.3181
 4094TIP3    H233918   5.615   1.331   0.340 -0.1561  1.5980  0.3003
 4095TIP3   OH233919   1.773   0.148   1.297  0.5403 -0.0469  0.2338
 4095TIP3    H133920   1.684   0.140   1.265  0.2457  3.1895 -0.0562
 4095TIP3    H233921   1.765   0.148   1.392  0.2462  0.1331  0.2076
 4096TIP3   OH233922   1.616   5.468   8.000  0.1675  0.1266  0.3447
 4096TIP3    H133923   1.595   5.484   7.907  1.7285 -1.0539 -0.2474
 4096TIP3    H233924   1.535   5.490   8.046 -0.2743  1.9501 -1.1488
 4097TIP3   OH233925   4.240   2.437   7.629  0.2673 -0.0847 -0.2145
 4097TIP3    H133926   4.241   2.416   7.535  2.0122 -0.1972 -0.2080
 4097TIP3    H233927   4.159   2.398   7.661 -0.0992 -0.5185 -1.5805
 4098TIP3   OH233928   6.389   2.298   1.825 -0.0036  0.0563  0.5259
 4098TIP3    H133929   6.407   2.364   1.892  0.1694 -0.2834  0.8195
 4098TIP3    H233930   6.340   2.344   1.758  2.3283  1.1753 -0.5390
 4099TIP3   OH233931   1.763   1.207   6.820  0.4030 -0.0163  0.5913
 4099TIP3    H133932   1.765   1.214   6.915 -0.3846 -0.1806  0.6307
 4099TIP3    H233933   1.758   1.112   6.804 -1.8269  0.0731  0.4776
 4100TIP3   OH233934   3.866   1.878   0.888 -0.2442 -0.4194  0.2095
 4100TIP3    H133935   3.850   1.959   0.936  0.0833 -0.1154 -0.1823
 4100TIP3    H233936   3.802   1.879   0.817 -0.0894 -0.3896  0.0692
 4101TIP3   OH233937   1.419   3.882   7.883 -0.7710  0.0479  0.0246
 4101TIP3    H133938   1.342   3.841   7.843 -1.0735  0.4662  0.1687
 4101TIP3    H233939   1.491   3.823   7.863 -0.9755  0.0866 -0.8661
 4102TIP3   OH233940   5.046   0.576   0.889  0.4368  0.5337 -0.0709
 4102TIP3    H133941   5.007   0.525   0.960  3.8528  0.8440  2.2834
 4102TIP3    H233942   4.999   0.660   0.891 -0.4978  0.0193  0.8376
 4103TIP3   OH233943   5.651   1.718   8.403 -0.0433 -0.3231 -0.2865
 4103TIP3    H133944   5.680   1.773   8.330 -0.5018 -0.6290 -0.7083
 4103TIP3    H233945   5.561   1.694   8.381 -0.2653 -0.2378  0.4918
 4104TIP3   OH233946   6.415   4.653   8.846 -0.0192  0.2389  0.0915
 4104TIP3    H133947   6.426   4.701   8.928  0.0285  0.2676  0.0675
 4104TIP3    H233948   6.322   4.663   8.826  0.2294  1.4029 -0.5741
 4105TIP3   OH233949   2.852   5.240   8.441  0.2637  0.5754 -0.3411
 4105TIP3    H133950   2.876   5.215   8.352 -1.9022 -0.1698 -0.7970
 4105TIP3    H233951   2.886   5.169   8.496  1.7558  1.1236 -0.5290
 4106TIP3   OH233952   5.821   3.067   6.815 -0.0959 -0.4990  0.7652
 4106TIP3    H133953   5.749   3.107   6.863 -1.1804 -0.7100 -0.6401
 4106TIP3    H233954   5.885   3.138   6.805 -0.9890  0.2783  0.3133
 4107TIP3   OH233955   3.931   4.916   0.662  0.5827  0.9011  0.0665
 4107TIP3    H133956   3.868   4.890   0.728 -1.2296  1.5439 -1.3281
 4107TIP3    H233957   4.016   4.906   0.705 -0.3856 -0.6987  1.7698
 4108TIP3   OH233958   0.573   0.109   7.460  0.0171  0.3703 -0.1228
 4108TIP3    H133959   0.561   0.161   7.380 -0.0095  1.2489  0.4418
 4108TIP3    H233960   0.489   0.065   7.472  0.2772 -0.3986 -1.0079
 4109TIP3   OH233961   2.415   3.476   7.578  0.1726  0.0464 -0.0382
 4109TIP3    H133962   2.329   3.435   7.580  0.6346 -1.1913 -2.4937
 4109TIP3    H233963   2.468   3.418   7.525  2.1432  1.5523  0.1785
 4110TIP3   OH233964   2.747   1.148   1.299  0.4092  0.0201  0.2319
 4110TIP3    H133965   2.840   1.131   1.316  0.4701  0.2049  0.0772
 4110TIP3    H233966   2.746   1.221   1.238  0.1469  0.5676  0.8734
 4111TIP3   OH233967   3.176   0.933   1.152  0.8166  0.1010  0.3303
 4111TIP3    H133968   3.263   0.969   1.136  0.6617 -0.4124 -1.9766
 4111TIP3    H233969   3.117   1.007   1.135  0.6298 -0.5364 -2.2510
 4112TIP3   OH233970   4.514   4.444   0.834  0.6144 -0.1385 -0.7118
 4112TIP3    H133971   4.518   4.435   0.929  0.2432  3.5923 -0.1849
 4112TIP3    H233972   4.422   4.433   0.812  0.5577 -0.0903 -0.4966
 4113TIP3   OH233973   6.643   3.423   1.272  0.6803  0.1249  0.6977
 4113TIP3    H133974   6.621   3.516   1.282  1.9114  0.5918 -0.5770
 4113TIP3    H233975   6.578   3.377   1.326 -0.7058  1.6490  0.4249
 4114TIP3   OH233976   5.956   5.432   8.760  0.2219  0.3590  0.2649
 4114TIP3    H133977   5.995   5.354   8.721  0.1082  0.0066  0.8436
 4114TIP3    H233978   6.014   5.504   8.734  1.6797 -0.2472  1.7026
 4115TIP3   OH233979   4.240   0.431   7.260  0.6915  0.1080  0.0394
 4115TIP3    H133980   4.334   0.428   7.279  0.4388 -1.6211  1.3396
 4115TIP3    H233981   4.219   0.342   7.230 -0.4874  0.5195 -0.4072
 4116TIP3   OH233982   6.157   1.692   0.409 -0.0871 -0.4416 -0.1657
 4116TIP3    H133983   6.134   1.739   0.488  0.0876  0.6771 -0.7572
 4116TIP3    H233984   6.249   1.669   0.420  0.1950  0.5186 -0.4127
 4117TIP3   OH233985   2.298   4.739   0.306  0.5617  0.1864 -0.2349
 4117TIP3    H133986   2.373   4.763   0.360  0.4315 -0.4673  0.2432
 4117TIP3    H233987   2.222   4.764   0.358  0.4294 -0.8409  0.0821
 4118TIP3   OH233988   2.640   4.737   7.034 -0.0626 -0.5675  0.0874
 4118TIP3    H133989   2.708   4.794   6.999 -1.0059 -0.8953 -2.5367
 4118TIP3    H233990   2.668   4.649   7.009 -0.0223 -1.0177  1.6144
 4119TIP3   OH233991   4.285   4.651   1.020 -0.0424 -0.1680  1.0359
 4119TIP3    H133992   4.280   4.637   0.925 -1.0459  2.2519  0.6595
 4119TIP3    H233993   4.314   4.742   1.030  1.7974 -0.8891  3.1151
 4120TIP3   OH233994   4.210   0.368   0.430 -0.1099 -0.1416  0.9811
 4120TIP3    H133995   4.147   0.317   0.481  0.4310  0.3490  2.1853
 4120TIP3    H233996   4.272   0.400   0.495  1.1125 -0.2188 -0.1193
 4121TIP3   OH233997   1.955   5.139   1.130  0.0988  0.3330  0.0991
 4121TIP3    H133998   2.046   5.168   1.124  0.7945 -1.5219  0.8274
 4121TIP3    H233999   1.954   5.055   1.083 -0.8628 -0.4162  1.4053
 4122TIP3   OH234000   1.259   1.354   1.903  0.2627 -0.2494 -0.2101
 4122TIP3    H134001   1.354   1.367   1.905  0.3731 -1.0855  1.3309
 4122TIP3    H234002   1.222   1.441   1.919  0.7668  0.0592 -0.7061
 4123TIP3   OH234003   4.700   5.225   7.616 -0.0987 -0.1753  0.3384
 4123TIP3    H134004   4.702   5.255   7.525 -0.0802  0.0848  0.4229
 4123TIP3    H234005   4.716   5.305   7.667  0.1966 -0.3759  0.5592
 4124TIP3   OH234006   0.085   3.171   1.591  0.1245  0.0590 -0.1299
 4124TIP3    H134007   0.003   3.140   1.553  0.2675  0.7245 -0.9892
 4124TIP3    H234008   0.082   3.266   1.582  1.7173 -0.0005 -1.6929
 4125TIP3   OH234009   2.609   5.866   2.262 -0.2850  0.8099  0.0967
 4125TIP3    H134010   2.603   5.940   2.323 -2.7362  0.6669  0.1288
 4125TIP3    H234011   2.597   5.789   2.317 -4.1150  0.7350 -0.5845
 4126TIP3   OH234012   2.017   1.472   8.678 -0.3890 -0.5804  0.2315
 4126TIP3    H134013   2.079   1.476   8.605 -1.2504  0.3028 -0.4777
 4126TIP3    H234014   2.064   1.515   8.750 -0.5301  1.0273 -0.5932
 4127TIP3   OH234015   3.167   6.602   1.295 -0.0481  0.1157 -0.0753
 4127TIP3    H134016   3.106   6.530   1.275 -0.1130 -0.1448  1.0065
 4127TIP3    H234017   3.141   6.672   1.236 -0.4963 -0.4767 -0.6006
 4128TIP3   OH234018   0.026   0.613   8.193 -0.5743  0.1469 -0.0885
 4128TIP3    H134019   0.114   0.604   8.156 -0.8143  0.7563 -0.8498
 4128TIP3    H234020   0.030   0.570   8.278  0.5599  0.4924  0.0374
 4129TIP3   OH234021   4.231   3.059   8.021  0.7307  0.5980  0.0789
 4129TIP3    H134022   4.303   3.014   7.977  1.6518  1.7043  0.4338
 4129TIP3    H234023   4.268   3.142   8.050 -0.3441  0.6438  1.3960
 4130TIP3   OH234024   4.706   3.716   2.816  0.0408 -0.2299 -0.1136
 4130TIP3    H134025   4.664   3.801   2.829 -0.0264 -0.2441 -0.2485
 4130TIP3    H234026   4.643   3.664   2.766  0.2382 -0.2323 -0.3628
 4131TIP3   OH234027   5.604   3.883   7.101  0.7716  0.2628  0.8155
 4131TIP3    H134028   5.632   3.969   7.132  0.2652  0.5536  0.4933
 4131TIP3    H234029   5.615   3.887   7.006  2.7185 -0.7637  0.9455
 4132TIP3   OH234030   3.850   4.669   1.402  0.4840  0.5572 -0.2504
 4132TIP3    H134031   3.861   4.576   1.382  0.7613  0.3287  0.9023
 4132TIP3    H234032   3.915   4.714   1.348  2.6452 -0.2052  1.5769
 4133TIP3   OH234033   3.821   5.361   1.797  0.1083  0.3776  0.5096
 4133TIP3    H134034   3.819   5.453   1.822 -1.3221  0.7399 -0.8106
 4133TIP3    H234035   3.889   5.356   1.729  0.8779  0.2461  1.2728
 4134TIP3   OH234036   3.890   3.485   0.719 -0.6298 -0.2830  0.0975
 4134TIP3    H134037   3.932   3.569   0.704 -1.4745 -0.0627 -1.2238
 4134TIP3    H234038   3.889   3.443   0.633 -1.1883 -1.1783  0.5267
 4135TIP3   OH234039   6.285   4.561   0.821 -0.2866  0.5076  0.1178
 4135TIP3    H134040   6.216   4.501   0.852  0.6244 -0.3309  0.5838
 4135TIP3    H234041   6.238   4.639   0.793 -1.6155 -0.7758 -1.4166
 4136TIP3   OH234042   2.052   4.164   7.809  0.4235  0.1306  0.3811
 4136TIP3    H134043   1.992   4.094   7.782  0.8639 -0.0721 -0.0883
 4136TIP3    H234044   2.139   4.125   7.801  0.7103  0.9263 -0.4885
 4137TIP3   OH234045   3.509   4.525   0.274  0.2040 -0.6084  0.2448
 4137TIP3    H134046   3.553   4.605   0.303  1.6972 -1.8021  1.3944
 4137TIP3    H234047   3.546   4.456   0.328 -1.7911 -1.9606 -0.0161
 4138TIP3   OH234048   1.451   0.705   1.984 -0.3074  0.3690  0.1213
 4138TIP3    H134049   1.521   0.755   1.942  0.6294 -2.5590 -2.1425
 4138TIP3    H234050   1.386   0.692   1.914 -0.1138 -2.1512  0.3208
 4139TIP3   OH234051   1.066   5.414   7.156 -0.0669 -0.1269 -0.0487
 4139TIP3    H134052   1.148   5.375   7.187  0.3786 -0.2773 -1.3912
 4139TIP3    H234053   1.093   5.497   7.116 -0.7982  0.7182  1.1389
 4140TIP3   OH234054   4.068   0.802   0.235 -0.2877  0.2418  0.2482
 4140TIP3    H134055   3.979   0.819   0.266  0.4466  2.2476  1.4534
 4140TIP3    H234056   4.068   0.710   0.210 -2.7926  0.2855 -0.1386
 4141TIP3   OH234057   0.957   5.590   0.790 -0.3653 -0.2670 -0.0494
 4141TIP3    H134058   0.964   5.505   0.745 -0.1576 -0.5071  0.4378
 4141TIP3    H234059   0.862   5.603   0.800 -0.4015 -1.6037  2.0328
 4142TIP3   OH234060   1.682   2.307   6.957  0.1845  0.1536 -0.3967
 4142TIP3    H134061   1.741   2.372   6.917 -2.3447  2.4104 -0.7244
 4142TIP3    H234062   1.601   2.313   6.907 -1.0091 -1.4462  1.1974
 4143TIP3   OH234063   3.855   6.506   2.236  0.0197  0.1567  0.2616
 4143TIP3    H134064   3.830   6.471   2.151  0.7446 -0.6060  0.3442
 4143TIP3    H234065   3.944   6.471   2.251 -0.2140  0.0179  1.4551
 4144TIP3   OH234066   3.573   4.935   8.497  0.5786  0.1379 -0.4229
 4144TIP3    H134067   3.501   4.959   8.439 -0.6942 -2.5619 -0.1197
 4144TIP3    H234068   3.568   4.997   8.569 -0.9360  0.5235 -0.8291
 4145TIP3   OH234069   1.977   5.947   7.563 -0.0488 -0.5468  0.6674
 4145TIP3    H134070   1.991   5.934   7.469  0.8288 -0.4646  0.7837
 4145TIP3    H234071   2.064   5.945   7.601 -0.4423 -1.1975  1.5705
 4146TIP3   OH234072   4.171   2.929   1.064  0.5415  0.2714  0.0261
 4146TIP3    H134073   4.108   2.923   0.993 -1.1182 -0.1078  1.4693
 4146TIP3    H234074   4.170   3.021   1.091  1.0850  0.3925 -0.3463
 4147TIP3   OH234075   4.993   6.415   0.743  0.3671  0.0015 -0.1971
 4147TIP3    H134076   5.052   6.423   0.668 -0.3971  1.6023 -0.6718
 4147TIP3    H234077   5.005   6.496   0.792 -1.5036  0.4316 -0.3834
 4148TIP3   OH234078   2.968   5.758   0.631  1.1610 -0.4310  0.2671
 4148TIP3    H134079   2.980   5.673   0.673  2.5854  0.0771  0.9141
 4148TIP3    H234080   3.051   5.776   0.588  0.1044 -0.4414 -1.9286
 4149TIP3   OH234081   1.621   4.000   2.963 -0.0250  0.5349  0.4951
 4149TIP3    H134082   1.593   4.076   2.912 -0.9835  0.0632  0.2984
 4149TIP3    H234083   1.707   3.977   2.926  0.3335  1.5896  0.6509
 4150TIP3   OH234084   2.047   2.041   0.228 -0.2822 -0.0780 -0.1711
 4150TIP3    H134085   2.042   1.950   0.257 -0.4615 -0.1976 -0.5760
 4150TIP3    H234086   2.088   2.087   0.301 -1.4829 -0.2264  0.6344
 4151TIP3   OH234087   0.517   1.657   3.031  0.2028 -0.2143 -0.3643
 4151TIP3    H134088   0.584   1.697   3.087  1.1356 -1.1538 -0.7743
 4151TIP3    H234089   0.561   1.581   2.992 -0.9550 -0.5546 -1.0433
 4152TIP3   OH234090   4.280   1.761   7.992 -0.4987  0.7955  0.5024
 4152TIP3    H134091   4.200   1.764   8.045 -0.6767 -1.1273  0.4353
 4152TIP3    H234092   4.349   1.738   8.055 -0.2897  0.8819  0.3038
 4153TIP3   OH234093   1.008   5.967   8.231 -0.4252 -0.2988 -0.3317
 4153TIP3    H134094   1.099   5.996   8.234  0.0928 -1.8953  1.8394
 4153TIP3    H234095   0.957   6.048   8.227  1.0461  0.7385  0.9041
 4154TIP3   OH234096   6.175   1.789   8.646  0.2003 -0.6737 -0.3267
 4154TIP3    H134097   6.128   1.829   8.573 -2.1865 -0.9380  0.9357
 4154TIP3    H234098   6.203   1.863   8.700  0.6660 -0.5373 -0.7466
 4155TIP3   OH234099   5.217   1.363   0.541 -0.4113 -0.1167  0.0991
 4155TIP3    H134100   5.268   1.287   0.568  1.2832  0.9356  0.0046
 4155TIP3    H234101   5.126   1.332   0.541  0.2461 -2.2492 -0.3464
 4156TIP3   OH234102   2.091   2.945   6.583 -0.2159 -0.2957 -0.2480
 4156TIP3    H134103   2.179   2.927   6.614 -0.2273  0.2870  0.1383
 4156TIP3    H234104   2.055   2.859   6.561 -0.3041 -0.7831  1.6455
 4157TIP3   OH234105   1.577   6.549   8.149 -0.4252  0.4446  0.2869
 4157TIP3    H134106   1.580   6.465   8.194 -0.0574  1.0719  1.4848
 4157TIP3    H234107   1.543   6.529   8.062  1.5800 -1.2336 -0.1676
 4158TIP3   OH234108   2.519   1.162   0.096 -0.2440  0.0784 -0.0463
 4158TIP3    H134109   2.529   1.257   0.084  0.5011 -0.0744 -0.7757
 4158TIP3    H234110   2.468   1.153   0.176 -0.0371  1.0921  0.2193
 4159TIP3   OH234111   0.371   4.470   0.935 -0.1436  0.2530  0.1819
 4159TIP3    H134112   0.410   4.386   0.957  1.9943  0.7194 -1.5461
 4159TIP3    H234113   0.414   4.533   0.994 -1.8080  0.1914  1.5427
 4160TIP3   OH234114   5.964   1.446   1.024  0.4569  0.0820  0.6778
 4160TIP3    H134115   5.975   1.524   0.969  0.3740 -0.9115 -0.8053
 4160TIP3    H234116   6.047   1.399   1.016 -0.4906 -1.4190 -0.8143
 4161TIP3   OH234117   0.210   4.437   0.718 -0.4288 -0.4225 -0.1674
 4161TIP3    H134118   0.261   4.496   0.774 -0.7610  0.8504 -1.1590
 4161TIP3    H234119   0.258   4.354   0.720 -0.1193 -0.2328  1.5180
 4162TIP3   OH234120   1.080   4.700   8.468 -1.5020 -0.2261  0.0113
 4162TIP3    H134121   1.091   4.692   8.562 -0.0156  0.0776 -0.1054
 4162TIP3    H234122   1.066   4.794   8.453  0.2234  0.0478 -0.1892
 4163TIP3   OH234123   1.675   1.487   8.350 -0.3140 -0.2735  0.4328
 4163TIP3    H134124   1.705   1.489   8.441  0.1557 -1.0074  0.3007
 4163TIP3    H234125   1.713   1.407   8.314 -0.0466  0.2855 -0.5711
 4164TIP3   OH234126   0.843   4.474   1.939 -0.4248  0.1745  0.1684
 4164TIP3    H134127   0.885   4.509   1.860 -2.2768  2.0494 -0.0611
 4164TIP3    H234128   0.824   4.383   1.918  1.2081 -0.0175 -0.6349
 4165TIP3   OH234129   0.511   0.826   3.044  0.0061  0.1567 -0.4124
 4165TIP3    H134130   0.505   0.735   3.016  1.9880  0.0573 -0.6453
 4165TIP3    H234131   0.500   0.823   3.139 -1.2793 -0.1368 -0.5474
 4166TIP3   OH234132   4.999   5.372   7.867  0.6779  0.4524 -0.3770
 4166TIP3    H134133   4.975   5.280   7.858  0.9427  0.2354  0.9516
 4166TIP3    H234134   5.089   5.376   7.832 -0.0038  0.6195 -2.2385
 4167TIP3   OH234135   2.105   6.204   2.871 -0.3347  0.1615 -0.0968
 4167TIP3    H134136   2.062   6.178   2.952 -0.0537 -1.6045 -0.4829
 4167TIP3    H234137   2.053   6.279   2.840 -2.0632 -0.8066  0.3578
 4168TIP3   OH234138   2.579   4.368   1.734 -0.2311  0.3257 -0.0254
 4168TIP3    H134139   2.493   4.336   1.709  1.1171 -2.6209 -1.3739
 4168TIP3    H234140   2.583   4.458   1.701 -2.7436  0.5448  0.1376
 4169TIP3   OH234141   0.634   5.588   2.086  0.8046 -0.1888  0.2651
 4169TIP3    H134142   0.696   5.524   2.050  2.3248  1.4124 -0.0956
 4169TIP3    H234143   0.562   5.589   2.024  0.4522 -1.9513  0.5830
 4170TIP3   OH234144   5.408   5.979   2.113 -0.6247 -0.3786 -0.7536
 4170TIP3    H134145   5.338   6.033   2.149  1.6262  1.6765  0.9094
 4170TIP3    H234146   5.474   6.041   2.082  1.1582 -2.1620 -0.7969
 4171TIP3   OH234147   2.057   3.227   8.742  0.6098 -0.4943 -0.5665
 4171TIP3    H134148   2.106   3.145   8.737  2.7793  0.7595 -2.1667
 4171TIP3    H234149   2.120   3.290   8.778 -1.5178  0.2069  2.3047
 4172TIP3   OH234150   0.662   4.516   7.284  0.4043  0.0356 -0.4403
 4172TIP3    H134151   0.611   4.472   7.352 -0.3931  0.0680 -0.9948
 4172TIP3    H234152   0.733   4.456   7.264 -0.8299 -1.1960 -1.3969
 4173TIP3   OH234153   2.861   2.145   8.481  0.6826  0.6492 -0.5954
 4173TIP3    H134154   2.813   2.220   8.517  2.4509  1.0284  1.1082
 4173TIP3    H234155   2.933   2.184   8.432  1.9802  0.1365  0.8133
 4174TIP3   OH234156   0.007   3.219   7.429  0.4815  0.3226  0.0923
 4174TIP3    H134157  -0.032   3.266   7.356  0.6566  1.4503  0.7078
 4174TIP3    H234158   0.078   3.168   7.389  0.2216  0.4970 -0.6029
 4175TIP3   OH234159   4.456   6.377   2.633 -0.1845  0.1265 -0.4781
 4175TIP3    H134160   4.455   6.347   2.724 -0.1945  0.1461 -0.4715
 4175TIP3    H234161   4.536   6.341   2.596 -0.4878 -0.3889 -0.6376
 4176TIP3   OH234162   0.965   4.924   1.279 -0.5016 -0.2985 -0.0768
 4176TIP3    H134163   0.895   4.980   1.313 -0.0385 -0.1782  0.7129
 4176TIP3    H234164   1.009   4.977   1.213  0.0088  0.3450  0.7483
 4177TIP3   OH234165   2.823   6.161   7.647  0.0202  0.4578 -0.0848
 4177TIP3    H134166   2.845   6.139   7.557 -1.4724  0.3188 -0.4457
 4177TIP3    H234167   2.749   6.222   7.639  0.7065  1.4720  1.0208
 4178TIP3   OH234168   0.418   0.185   8.806  0.8747  0.2020 -0.7926
 4178TIP3    H134169   0.353   0.170   8.737  0.1167  0.7804 -0.2303
 4178TIP3    H234170   0.500   0.198   8.759  0.7328 -1.2588 -1.4893
 4179TIP3   OH234171   1.561   0.312   8.249  0.5286  0.0892 -0.6500
 4179TIP3    H134172   1.622   0.304   8.322  0.7463  0.9140 -0.7265
 4179TIP3    H234173   1.587   0.393   8.205 -0.1506  0.0590 -1.1267
 4180TIP3   OH234174   3.659   0.387   8.818  0.5255  0.1865 -0.1262
 4180TIP3    H134175   3.682   0.338   8.739 -0.5080  1.1881 -1.0671
 4180TIP3    H234176   3.737   0.379   8.874  2.1055  1.1258 -2.0532
 4181TIP3   OH234177   4.199   3.999   7.522  0.2093 -0.1247  0.0763
 4181TIP3    H134178   4.242   4.079   7.491 -0.6642 -0.3390 -1.8432
 4181TIP3    H234179   4.195   3.942   7.445 -0.3591 -1.5070  1.0752
 4182TIP3   OH234180   4.529   0.275   2.702 -0.2085 -0.2726  0.4259
 4182TIP3    H134181   4.620   0.292   2.681  0.0255 -0.7052  1.0510
 4182TIP3    H234182   4.529   0.190   2.746 -0.7695  0.1542  1.3076
 4183TIP3   OH234183   5.365   6.032   0.249  0.0627  0.0794 -0.4270
 4183TIP3    H134184   5.294   6.083   0.209  0.4186  0.6202 -0.3815
 4183TIP3    H234185   5.443   6.086   0.237  0.6903 -1.0326 -1.5091
 4184TIP3   OH234186   3.695   3.606   8.821 -0.2270 -0.1670  0.5657
 4184TIP3    H134187   3.619   3.664   8.823  0.2576  0.5003  0.0664
 4184TIP3    H234188   3.765   3.660   8.783 -0.3082 -1.7232 -2.0150
 4185TIP3   OH234189   4.551   0.196   0.804  0.1577  0.5662 -0.7097
 4185TIP3    H134190   4.549   0.133   0.876 -0.0783  1.1751 -0.1692
 4185TIP3    H234191   4.461   0.198   0.771  0.0317  1.0305 -0.3521
 4186TIP3   OH234192   1.437   6.249   0.454  0.7155  0.2649 -0.3656
 4186TIP3    H134193   1.443   6.248   0.359  0.1068 -0.1572 -0.4056
 4186TIP3    H234194   1.436   6.342   0.477  0.1602  0.3831 -0.8264
 4187TIP3   OH234195   5.903   1.218   0.117  0.6193 -0.3009  0.2027
 4187TIP3    H134196   5.910   1.229   0.022 -0.0905  1.0182  0.2794
 4187TIP3    H234197   5.870   1.303   0.148  0.7914 -0.7377  1.6193
 4188TIP3   OH234198   3.361   4.321   8.002 -0.0097  0.3581  0.4486
 4188TIP3    H134199   3.313   4.289   8.078  0.0667  0.8754  0.7161
 4188TIP3    H234200   3.328   4.410   7.989  0.1236  0.3446 -0.0017
 4189TIP3   OH234201   1.658   1.337   0.804 -0.2169  0.4997 -0.2953
 4189TIP3    H134202   1.718   1.411   0.810  1.7044 -0.7884 -2.2282
 4189TIP3    H234203   1.700   1.277   0.743 -1.3254 -2.5438  1.7094
 4190TIP3   OH234204   5.611   5.631   8.341 -0.1763 -0.4653  0.5647
 4190TIP3    H134205   5.681   5.657   8.281  0.2290 -0.2360  1.1290
 4190TIP3    H234206   5.581   5.546   8.308  0.4967 -0.6522  0.4276
 4191TIP3   OH234207   2.446   1.947   1.257 -0.0695 -0.4185  0.0583
 4191TIP3    H134208   2.450   1.955   1.353 -0.6373 -0.0033  0.0496
 4191TIP3    H234209   2.356   1.921   1.239  0.3395 -1.6440 -0.2943
 4192TIP3   OH234210   3.488   1.768   0.885  0.0847  0.1089 -0.1792
 4192TIP3    H134211   3.456   1.776   0.795 -0.6693  0.1631  0.0859
 4192TIP3    H234212   3.566   1.714   0.879  0.7723  1.1576 -1.0314
 4193TIP3   OH234213   5.449   0.947   8.535 -0.3948  0.7731  0.2807
 4193TIP3    H134214   5.383   0.885   8.565 -1.0262  0.5962 -1.3508
 4193TIP3    H234215   5.533   0.906   8.557 -0.8162 -0.2215  0.0535
 4194TIP3   OH234216   1.401   2.076   2.229  0.4687  0.3380  0.1563
 4194TIP3    H134217   1.327   2.089   2.289  0.5833  1.1653  0.1347
 4194TIP3    H234218   1.439   1.992   2.255 -1.1262 -0.6416 -0.5236
 4195TIP3   OH234219   6.095   6.280   8.152 -0.0019  0.3736 -0.2348
 4195TIP3    H134220   6.114   6.229   8.074 -0.4765  0.6832 -0.5569
 4195TIP3    H234221   6.031   6.345   8.123 -0.5838  0.1556  0.5297
 4196TIP3   OH234222   5.990   4.142   2.035 -0.0957  0.9139  0.1616
 4196TIP3    H134223   6.064   4.083   2.052 -0.0426  1.5766  2.5940
 4196TIP3    H234224   5.914   4.084   2.033  0.0074  0.6108  2.1154
 4197TIP3   OH234225   2.203   6.775   1.658  0.3449  0.0417  0.0109
 4197TIP3    H134226   2.180   6.686   1.634  2.0828 -0.8828  1.5617
 4197TIP3    H234227   2.150   6.794   1.736  0.0532  0.3420 -0.2556
 4198TIP3   OH234228   3.319   0.105   6.737 -0.3074  0.7119  0.0754
 4198TIP3    H134229   3.388   0.128   6.674 -0.2168 -1.0461 -0.5081
 4198TIP3    H234230   3.278   0.027   6.700 -1.1330  0.4172  1.5609
 4199TIP3   OH234231   3.365   1.034   7.090 -0.0381  0.2162 -0.2527
 4199TIP3    H134232   3.412   0.960   7.051  1.0348  0.5744  0.3141
 4199TIP3    H234233   3.289   0.995   7.132  0.9931 -0.7207  0.8336
 4200TIP3   OH234234   2.395   5.214   8.491  0.3361 -0.0770  0.1790
 4200TIP3    H134235   2.470   5.211   8.550  0.1464  0.8763  0.4809
 4200TIP3    H234236   2.424   5.270   8.419 -0.2603  0.7634  0.5739
 4201TIP3   OH234237   4.779   0.564   1.576  0.2355 -0.0077  0.1569
 4201TIP3    H134238   4.718   0.633   1.549 -1.3323 -1.6952 -0.8387
 4201TIP3    H234239   4.756   0.545   1.667 -1.2136 -1.0588 -0.3982
 4202TIP3   OH234240   4.183   5.943   2.251  0.0955  0.1460  0.1031
 4202TIP3    H134241   4.244   5.870   2.240 -0.1693 -0.4225  2.0632
 4202TIP3    H234242   4.180   5.985   2.165  1.0684 -1.5045 -0.7818
 4203TIP3   OH234243   1.649   4.158   7.164  0.6689  0.2452  0.7327
 4203TIP3    H134244   1.628   4.221   7.095 -0.1165 -0.6110  0.1709
 4203TIP3    H234245   1.742   4.139   7.151  0.6661  0.5302  0.2786
 4204TIP3   OH234246   6.595   5.066   1.319 -0.1283  0.2033 -0.5091
 4204TIP3    H134247   6.544   4.987   1.300 -1.1967  0.1951  1.9849
 4204TIP3    H234248   6.567   5.091   1.407  1.2200  2.5824 -0.6936
 4205TIP3   OH234249   5.781   3.467   3.023  0.8445 -0.5087  0.1880
 4205TIP3    H134250   5.772   3.508   3.109 -1.4427 -0.2103 -0.1131
 4205TIP3    H234251   5.713   3.400   3.021  1.2836 -0.9508 -1.1495
 4206TIP3   OH234252   1.685   0.534   8.144  0.1127 -0.2499 -0.0979
 4206TIP3    H134253   1.645   0.553   8.059 -1.0424  0.6369  0.5984
 4206TIP3    H234254   1.779   0.539   8.129 -0.0855  1.6490 -0.9630
 4207TIP3   OH234255   0.048   3.541   7.438 -0.0425  0.3796  0.3089
 4207TIP3    H134256   0.133   3.580   7.457  0.5315 -0.9319  0.6014
 4207TIP3    H234257   0.070   3.452   7.410 -1.3297 -0.0167  0.5300
 4208TIP3   OH234258   4.258   5.914   7.695 -0.0488 -0.2347 -0.4674
 4208TIP3    H134259   4.183   5.916   7.755 -0.1818  0.3097 -0.6440
 4208TIP3    H234260   4.322   5.858   7.738 -0.4060 -0.3810 -0.1262
 4209TIP3   OH234261   4.617   3.235   1.248  0.1715  0.3527  0.0864
 4209TIP3    H134262   4.695   3.182   1.237  1.1300  1.8760 -0.7698
 4209TIP3    H234263   4.549   3.189   1.199  0.5194 -0.9256  0.7525
 4210TIP3   OH234264   2.027   5.245   8.501 -0.2925  0.5212 -0.6809
 4210TIP3    H134265   1.933   5.253   8.483 -0.3832  0.0684 -0.4236
 4210TIP3    H234266   2.037   5.156   8.535 -0.0394  1.1120  0.8700
 4211TIP3   OH234267   3.044   1.775   8.713 -0.2219 -0.9733  0.0368
 4211TIP3    H134268   2.985   1.732   8.652 -0.1576 -1.0869  0.0534
 4211TIP3    H234269   3.006   1.862   8.727  0.0920 -0.7248 -0.6341
 4212TIP3   OH234270   2.659   4.852   0.706 -0.4747 -0.0964  0.1275
 4212TIP3    H134271   2.677   4.855   0.799 -0.0122  1.6221  0.0092
 4212TIP3    H234272   2.609   4.932   0.687 -5.2254 -2.7432 -0.2579
 4213TIP3   OH234273   2.751   6.487   0.985 -0.6229 -0.4859  0.0211
 4213TIP3    H134274   2.786   6.398   0.988 -0.4277 -0.4232 -0.3473
 4213TIP3    H234275   2.801   6.530   0.915 -0.3505  0.0648  0.5405
 4214TIP3   OH234276   1.003   4.136   1.837  0.0569 -0.1557  0.0695
 4214TIP3    H134277   1.068   4.184   1.785 -0.7514  0.4338 -0.4321
 4214TIP3    H234278   0.919   4.160   1.798 -0.4032 -1.7905 -0.0267
 4215TIP3   OH234279   2.410   5.293   2.558 -0.7498  0.1825  0.3281
 4215TIP3    H134280   2.395   5.207   2.598 -0.5914 -0.5865 -1.1568
 4215TIP3    H234281   2.418   5.353   2.631 -1.8974 -0.9006  1.3927
 4216TIP3   OH234282   6.190   4.706   7.295 -0.3077 -0.6724  0.0850
 4216TIP3    H134283   6.209   4.756   7.374 -0.7717  0.6045 -0.5674
 4216TIP3    H234284   6.274   4.704   7.248  0.3376 -2.6654  1.2168
 4217TIP3   OH234285   2.618   3.301   7.461 -0.3448 -0.6641  0.0631
 4217TIP3    H134286   2.707   3.296   7.495  0.1199 -0.2476 -1.0343
 4217TIP3    H234287   2.625   3.272   7.370 -1.8008 -3.2208  0.6671
 4218TIP3   OH234288   3.678   3.393   2.340 -0.3435 -0.4826  0.1251
 4218TIP3    H134289   3.707   3.340   2.415  0.3358 -1.1978 -0.6168
 4218TIP3    H234290   3.698   3.338   2.264 -0.3076  0.5556 -0.6219
 4219TIP3   OH234291   1.146   1.506   0.801  0.1858 -0.2670 -0.5894
 4219TIP3    H134292   1.060   1.532   0.834  1.3806  2.6992  0.5358
 4219TIP3    H234293   1.168   1.426   0.849 -0.0798  1.4456  2.6383
 4220TIP3   OH234294   4.279   6.254   1.757  0.0281 -0.3044 -0.5060
 4220TIP3    H134295   4.336   6.306   1.701 -1.3213 -0.2754 -1.8871
 4220TIP3    H234296   4.296   6.163   1.731  0.0283 -0.3513 -0.3438
 4221TIP3   OH234297   5.393   3.856   2.503 -0.0539 -0.4554  0.2265
 4221TIP3    H134298   5.322   3.921   2.503  0.8219  0.5773 -1.4155
 4221TIP3    H234299   5.446   3.879   2.579 -0.0887  0.3970  0.0027
 4222TIP3   OH234300   1.821   6.411   7.749 -0.7176  0.0691 -0.4725
 4222TIP3    H134301   1.829   6.338   7.809 -1.4261 -2.3124 -3.0669
 4222TIP3    H234302   1.727   6.432   7.749 -0.7595 -0.1109 -0.9217
 4223TIP3   OH234303   3.406   4.426   2.819  0.1062  0.1285  0.1412
 4223TIP3    H134304   3.353   4.469   2.751  0.0338 -1.5651 -0.9313
 4223TIP3    H234305   3.492   4.468   2.813 -0.2143  0.7408 -0.2485
 4224TIP3   OH234306   2.808   2.554   2.256 -0.0331 -0.2100  0.2075
 4224TIP3    H134307   2.812   2.470   2.210  0.6413  0.4603 -1.0107
 4224TIP3    H234308   2.900   2.576   2.273 -0.0803  1.0900 -1.0509
 4225TIP3   OH234309   3.557   5.617   8.224 -0.0154 -0.3399 -0.5901
 4225TIP3    H134310   3.647   5.636   8.251 -0.5294  0.6516  0.4879
 4225TIP3    H234311   3.566   5.551   8.155  1.4948 -0.7846 -0.0017
 4226TIP3   OH234312   1.779   1.253   1.990 -0.2666  0.4840 -0.0265
 4226TIP3    H134313   1.816   1.240   2.077 -1.6281 -0.9497  0.4007
 4226TIP3    H234314   1.827   1.192   1.934 -2.4758 -2.1774  0.7354
 4227TIP3   OH234315   5.059   5.375   8.191 -0.8311 -0.4540  0.1638
 4227TIP3    H134316   5.138   5.331   8.159 -0.7927 -1.7342  1.8997
 4227TIP3    H234317   5.018   5.411   8.112  0.4304 -1.4874 -1.0071
 4228TIP3   OH234318   0.092   2.313   8.053 -0.1954 -0.0277  0.4260
 4228TIP3    H134319   0.014   2.311   7.998 -0.2615  1.7256  0.3945
 4228TIP3    H234320   0.142   2.388   8.021  1.8930 -1.5239 -0.0457
 4229TIP3   OH234321   3.754   3.185   1.095  0.3425  0.1171  0.2505
 4229TIP3    H134322   3.778   3.223   1.180  1.6764  0.9758 -0.4700
 4229TIP3    H234323   3.701   3.108   1.117  1.1903 -0.0496  1.8767
 4230TIP3   OH234324   1.325   5.156   2.218 -0.4327  0.1820  0.0278
 4230TIP3    H134325   1.415   5.123   2.223 -0.0407  1.0653 -0.8562
 4230TIP3    H234326   1.315   5.209   2.297 -0.3805 -0.3847  0.4217
 4231TIP3   OH234327   1.259   0.784   0.501 -0.3232  0.4356 -0.0989
 4231TIP3    H134328   1.343   0.800   0.457 -0.6039  1.7996 -0.1944
 4231TIP3    H234329   1.214   0.721   0.445  0.4007  0.1382 -0.3548
 4232TIP3   OH234330   2.555   5.895   8.038 -0.1349  0.4949 -0.2084
 4232TIP3    H134331   2.543   5.953   7.962  0.2231  0.5720 -0.2073
 4232TIP3    H234332   2.617   5.830   8.008  1.2305  1.4307  0.5036
 4233TIP3   OH234333   3.277   1.710   1.942 -0.6784 -0.8769  0.2211
 4233TIP3    H134334   3.320   1.624   1.938  0.1944 -0.3950 -2.0258
 4233TIP3    H234335   3.273   1.739   1.851 -0.5529  1.6659  0.9619
 4234TIP3   OH234336   5.020   2.889   8.271 -0.0082  0.6326  0.4859
 4234TIP3    H134337   5.090   2.953   8.257 -0.3276  1.0589  0.8241
 4234TIP3    H234338   5.062   2.818   8.319  0.0217  1.2336  1.3690
 4235TIP3   OH234339   4.488   5.622   0.606  0.3715  0.2462  0.2874
 4235TIP3    H134340   4.401   5.638   0.572  0.2249 -0.8125  0.1427
 4235TIP3    H234341   4.511   5.534   0.576  2.1421  1.0893 -1.0480
 4236TIP3   OH234342   6.299   5.819   7.990 -0.5811  0.5656  0.4404
 4236TIP3    H134343   6.346   5.818   8.073  0.2978  1.9819 -0.0083
 4236TIP3    H234344   6.210   5.789   8.012  0.5147 -2.4856  1.2437
 4237TIP3   OH234345   2.920   2.772   1.306 -0.1255 -0.3628 -0.2556
 4237TIP3    H134346   2.942   2.836   1.238  2.2324 -1.7533 -0.9437
 4237TIP3    H234347   2.890   2.824   1.380  1.7834  1.5921 -0.7474
 4238TIP3   OH234348   3.796   1.436   7.750 -0.4552 -1.0199  0.1287
 4238TIP3    H134349   3.797   1.517   7.800 -0.2683 -0.7016 -0.3913
 4238TIP3    H234350   3.726   1.384   7.790 -0.6667 -0.5488  0.3708
 4239TIP3   OH234351   6.275   3.334   7.987  0.1607 -0.1745 -0.1806
 4239TIP3    H134352   6.267   3.239   7.992 -0.3138 -0.0871  1.4130
 4239TIP3    H234353   6.186   3.365   7.969 -0.2488  0.0597  1.9771
 4240TIP3   OH234354   2.811   5.345   0.528 -0.1924  0.4228 -0.5614
 4240TIP3    H134355   2.889   5.366   0.476 -1.1192  0.2736 -2.0566
 4240TIP3    H234356   2.789   5.255   0.503 -1.5698  0.8988 -1.1440
 4241TIP3   OH234357   5.247   2.208   7.410 -0.2386  0.1280 -0.4338
 4241TIP3    H134358   5.317   2.176   7.468  0.3127  1.7106 -0.1999
 4241TIP3    H234359   5.293   2.255   7.340 -0.8462 -2.1951 -2.5484
 4242TIP3   OH234360   1.437   5.209   0.743  0.1289 -0.2232 -0.4826
 4242TIP3    H134361   1.434   5.302   0.766 -0.1200 -0.3828  0.1589
 4242TIP3    H234362   1.530   5.189   0.735  0.1626  0.2130 -1.1802
 4243TIP3   OH234363   3.168   2.439   0.967 -0.2974  0.2552  0.2538
 4243TIP3    H134364   3.091   2.424   1.021 -1.7863  2.6128 -1.0692
 4243TIP3    H234365   3.229   2.487   1.024 -0.2376 -0.6427  0.9632
 4244TIP3   OH234366   3.852   1.418   1.424  0.7145 -0.0790 -0.7130
 4244TIP3    H134367   3.928   1.379   1.467 -0.4082 -1.0672  0.4665
 4244TIP3    H234368   3.777   1.389   1.476 -0.5264  0.4856 -2.1000
 4245TIP3   OH234369   3.987   4.189   8.578 -0.0196 -0.3221  0.3731
 4245TIP3    H134370   4.050   4.261   8.577  0.0446 -0.3605  1.3377
 4245TIP3    H234371   3.923   4.213   8.645 -0.1575 -1.0210  0.5019
 4246TIP3   OH234372   4.969   2.929   7.312  0.1094  0.4228 -0.4248
 4246TIP3    H134373   5.038   2.990   7.284  0.0889 -0.1447 -1.8201
 4246TIP3    H234374   4.920   2.911   7.232 -2.0041  1.1919  0.6149
 4247TIP3   OH234375   3.591   5.205   1.636 -0.1289 -0.1665 -0.1260
 4247TIP3    H134376   3.560   5.272   1.576 -0.1658  0.8971  1.0391
 4247TIP3    H234377   3.681   5.231   1.657 -0.2377 -0.2975  0.5469
 4248TIP3   OH234378   5.822   3.664   6.599  0.3167 -0.0677 -0.2941
 4248TIP3    H134379   5.910   3.644   6.567  0.3819 -0.6460  0.2448
 4248TIP3    H234380   5.827   3.757   6.624  0.7079 -0.0386 -0.4584
 4249TIP3   OH234381   4.309   6.070   0.897  0.4313 -0.2433 -0.1840
 4249TIP3    H134382   4.376   6.136   0.877  1.3808 -1.3690 -0.8635
 4249TIP3    H234383   4.348   5.987   0.869 -0.8679 -1.0625  0.3300
 4250TIP3   OH234384   3.504   1.660   1.325 -0.4234 -0.1722  0.3665
 4250TIP3    H134385   3.478   1.592   1.263 -2.0643 -0.8470  1.7235
 4250TIP3    H234386   3.497   1.741   1.276 -2.2081 -0.6404 -0.2248
 4251TIP3   OH234387   6.058   6.031   7.071 -0.0058 -0.0630  0.5761
 4251TIP3    H134388   6.114   6.066   7.002 -1.2916 -0.0556 -0.5003
 4251TIP3    H234389   6.065   6.095   7.142  0.6084  0.4179  0.0958
 4252TIP3   OH234390   6.152   4.723   8.800  0.1399  0.3325  0.0313
 4252TIP3    H134391   6.122   4.781   8.730  0.1740  0.8771  0.4618
 4252TIP3    H234392   6.134   4.635   8.767 -0.7014  0.6050 -0.2791
 4253TIP3   OH234393   3.547   3.669   2.612 -0.5098 -0.3158  0.5878
 4253TIP3    H134394   3.475   3.731   2.613 -0.6192 -0.3410  3.5348
 4253TIP3    H234395   3.511   3.591   2.570 -0.8162  1.0605 -1.8254
 4254TIP3   OH234396   5.642   3.222   8.724 -0.1266  0.0812  0.0587
 4254TIP3    H134397   5.671   3.179   8.644  0.4112 -0.9352  0.7887
 4254TIP3    H234398   5.704   3.294   8.736 -0.8670  0.9479 -1.0123
 4255TIP3   OH234399   0.210   3.102   0.126  0.2239 -0.2599 -0.1110
 4255TIP3    H134400   0.258   3.123   0.206  0.3403 -0.8854 -0.0081
 4255TIP3    H234401   0.146   3.172   0.117 -0.3594 -0.6268  1.0002
 4256TIP3   OH234402   6.426   1.301   3.095  0.0373 -0.3211 -0.0670
 4256TIP3    H134403   6.389   1.362   3.031  0.7323 -0.5082 -0.6599
 4256TIP3    H234404   6.514   1.336   3.114  0.5028 -1.2022 -0.5269
 4257TIP3   OH234405   3.577   4.364   1.290  0.1710 -0.6017 -0.3540
 4257TIP3    H134406   3.626   4.340   1.369  0.6408  0.3602 -0.3416
 4257TIP3    H234407   3.524   4.286   1.271 -1.0294 -0.3999  1.7347
 4258TIP3   OH234408   6.705   5.240   8.420 -0.8720  0.1462 -0.7417
 4258TIP3    H134409   6.720   5.261   8.328  0.9888 -0.6245 -0.6603
 4258TIP3    H234410   6.687   5.146   8.420 -1.7093  0.2961 -0.3821
 4259TIP3   OH234411   5.989   5.928   2.697  0.1579  0.3124 -0.1434
 4259TIP3    H134412   5.962   5.995   2.634  1.9072  0.7512 -0.4908
 4259TIP3    H234413   6.063   5.968   2.743 -0.4363 -0.4041  1.4862
 4260TIP3   OH234414   1.847   3.415   8.765  0.3597 -0.8214  0.1361
 4260TIP3    H134415   1.907   3.344   8.740  0.5512 -0.3543 -0.7396
 4260TIP3    H234416   1.903   3.492   8.774  0.0366 -0.6067  0.3298
 4261TIP3   OH234417   1.246   0.431   7.324 -0.2453  0.4836  0.4259
 4261TIP3    H134418   1.199   0.475   7.253 -0.5797  0.3364  0.5570
 4261TIP3    H234419   1.338   0.454   7.309 -0.4516  1.5636  0.7262
 4262TIP3   OH234420   3.239   3.155   2.137  0.0602  0.9713  0.3737
 4262TIP3    H134421   3.288   3.094   2.192  1.2108 -0.5251 -2.1438
 4262TIP3    H234422   3.275   3.241   2.161  0.8689  0.3415  1.5775
 4263TIP3   OH234423   4.086   4.038   1.814  0.2046 -0.0925 -0.1241
 4263TIP3    H134424   4.102   3.972   1.881  2.2861 -0.0438 -0.5337
 4263TIP3    H234425   4.073   4.119   1.864  0.0329 -0.3642  0.2811
 4264TIP3   OH234426   2.138   6.258   8.884  0.0186  0.4804 -0.3261
 4264TIP3    H134427   2.186   6.184   8.847  0.0474  0.2738  0.1061
 4264TIP3    H234428   2.177   6.270   8.971  1.1082  2.0387 -0.9904
 4265TIP3   OH234429   2.107   2.941   7.877  0.6597  0.0091  0.4804
 4265TIP3    H134430   2.076   3.017   7.828  1.0052  0.8003  1.4647
 4265TIP3    H234431   2.174   2.902   7.820 -0.7066 -0.5845 -0.7943
 4266TIP3   OH234432   5.680   5.280   1.117 -0.4231  0.2442  0.2121
 4266TIP3    H134433   5.738   5.338   1.167  1.3901  1.4562 -2.9965
 4266TIP3    H234434   5.633   5.338   1.058  0.3403 -1.3588 -2.0914
 4267TIP3   OH234435   4.422   6.197   2.181  0.1782  0.5461  0.1431
 4267TIP3    H134436   4.462   6.123   2.228  0.0626  1.3706  1.6025
 4267TIP3    H234437   4.413   6.265   2.248 -3.6600  0.4333 -0.0874
 4268TIP3   OH234438   0.267   5.258   8.783  0.2216  0.4188 -0.3997
 4268TIP3    H134439   0.184   5.237   8.741 -0.0381  1.7474 -0.5745
 4268TIP3    H234440   0.317   5.305   8.717  0.9997 -0.0764 -0.1868
 4269TIP3   OH234441   4.039   5.224   8.098 -0.0708  0.5083 -0.3945
 4269TIP3    H134442   4.100   5.255   8.031 -0.0058  0.0048 -0.5671
 4269TIP3    H234443   3.978   5.167   8.052 -0.2095  0.3958 -0.0808
 4270TIP3   OH234444   4.717   1.896   7.781  0.3062  0.3468  0.3130
 4270TIP3    H134445   4.698   1.984   7.748  0.8601 -0.8195 -3.6577
 4270TIP3    H234446   4.656   1.839   7.733  0.1666 -1.5198  2.5415
 4271TIP3   OH234447   4.225   0.303   1.282  0.0813  0.2031 -0.6174
 4271TIP3    H134448   4.278   0.223   1.291  0.1877  0.4054  0.7857
 4271TIP3    H234449   4.231   0.325   1.189  1.0703 -0.7266 -0.7991
 4272TIP3   OH234450   3.043   5.874   7.937  0.9361 -0.0730 -0.0180
 4272TIP3    H134451   3.082   5.942   7.992  0.5240  0.4953 -0.4162
 4272TIP3    H234452   2.972   5.918   7.891  1.9553 -0.2173 -1.8490
 4273TIP3   OH234453   2.737   3.526   2.680  0.1573  0.2697 -0.1949
 4273TIP3    H134454   2.794   3.532   2.756  1.8780  0.6051 -1.4518
 4273TIP3    H234455   2.711   3.616   2.661 -1.2707  0.0804  0.6586
 4274TIP3   OH234456   6.418   3.052   1.016 -0.1556 -0.2932  0.3733
 4274TIP3    H134457   6.388   2.961   1.026  2.7837 -1.1843  2.6625
 4274TIP3    H234458   6.472   3.068   1.093  0.4648  3.0220 -0.5923
 4275TIP3   OH234459   4.801   5.643   0.060  0.3966  0.0658 -0.4378
 4275TIP3    H134460   4.727   5.583   0.050  0.0870  0.0415  1.6106
 4275TIP3    H234461   4.855   5.628  -0.018 -2.1697  0.7625 -2.4977
 4276TIP3   OH234462   1.816   3.532   7.254  0.0766  0.1303  0.1462
 4276TIP3    H134463   1.855   3.612   7.290 -0.2524  0.7586 -0.8601
 4276TIP3    H234464   1.787   3.556   7.167 -1.4363 -0.6785  0.3847
 4277TIP3   OH234465   2.747   1.968   2.676  0.0050 -0.5340 -0.2223
 4277TIP3    H134466   2.833   2.004   2.658  0.3714 -1.3814 -0.2047
 4277TIP3    H234467   2.692   2.044   2.696  0.3880  0.1529 -1.6559
 4278TIP3   OH234468   3.000   5.404   1.876 -0.3938  0.4611  0.4647
 4278TIP3    H134469   3.024   5.324   1.829  0.0210  1.3443 -0.8974
 4278TIP3    H234470   3.038   5.393   1.963 -0.4643 -0.8780  0.3441
 4279TIP3   OH234471   5.660   1.332   8.205 -0.1248  0.2756  0.4991
 4279TIP3    H134472   5.679   1.351   8.113  0.0551 -0.0342  0.4683
 4279TIP3    H234473   5.570   1.302   8.205  0.0232 -0.1796  0.3530
 4280TIP3   OH234474   3.311   4.538   1.539 -0.2270  0.1479  0.2606
 4280TIP3    H134475   3.373   4.585   1.484  0.8863 -1.5819 -0.0369
 4280TIP3    H234476   3.234   4.526   1.483 -0.0118  0.4582 -0.1084
 4281TIP3   OH234477   0.167   1.749   7.163  0.0499  0.6299 -0.3747
 4281TIP3    H134478   0.173   1.841   7.188  1.9010  0.9951 -1.9270
 4281TIP3    H234479   0.117   1.708   7.234  1.5291  2.3092  1.7736
 4282TIP3   OH234480   5.284   2.078   7.043 -0.0321  0.7270  0.3247
 4282TIP3    H134481   5.216   2.131   7.084 -2.3470  1.3592 -3.7850
 4282TIP3    H234482   5.255   1.987   7.055  0.8852  0.6426  2.3671
 4283TIP3   OH234483   6.270   0.315   2.738 -0.3134  0.0150 -0.4057
 4283TIP3    H134484   6.241   0.399   2.772  1.8586 -0.1638  2.2107
 4283TIP3    H234485   6.189   0.268   2.719 -1.5828  2.3344 -1.1782
 4284TIP3   OH234486   3.281   3.701   2.296 -0.2673  0.2051  0.3458
 4284TIP3    H134487   3.278   3.748   2.212  0.0635  1.5371  1.0504
 4284TIP3    H234488   3.197   3.654   2.300 -0.0776 -0.2794 -0.9395
 4285TIP3   OH234489   5.814   4.891   6.922  0.0020 -0.3756 -0.3406
 4285TIP3    H134490   5.790   4.984   6.921  0.3077 -0.2970 -0.5269
 4285TIP3    H234491   5.910   4.891   6.928 -0.0614 -0.6839  0.8909
 4286TIP3   OH234492   6.433   6.049   7.653 -0.2036  0.7855  0.4945
 4286TIP3    H134493   6.465   6.120   7.596  1.5517 -1.7127 -1.8982
 4286TIP3    H234494   6.344   6.033   7.623 -0.3189  1.4269  0.4748
 4287TIP3   OH234495   2.570   1.790   1.028 -0.9790 -0.2205  0.1413
 4287TIP3    H134496   2.603   1.712   1.073 -1.1545  0.7007  1.9549
 4287TIP3    H234497   2.529   1.842   1.098 -1.1248  1.3579 -1.0776
 4288TIP3   OH234498   3.473   0.205   0.328  0.1165  0.0594 -0.3054
 4288TIP3    H134499   3.529   0.128   0.322  1.3680  0.9256 -0.0280
 4288TIP3    H234500   3.406   0.180   0.392 -0.6277 -1.4527 -1.6030
 4289TIP3   OH234501   6.668   0.449   1.285  0.3175 -0.2028  0.3359
 4289TIP3    H134502   6.702   0.522   1.232  1.7350 -0.3944  0.9269
 4289TIP3    H234503   6.654   0.487   1.372  2.4297 -0.9034  1.0410
 4290TIP3   OH234504   6.062   3.287   0.176  0.5482  0.1613 -0.0015
 4290TIP3    H134505   5.979   3.258   0.138 -0.0860  1.0268  0.6899
 4290TIP3    H234506   6.084   3.220   0.241  0.1817  0.1430  0.1042
 4291TIP3   OH234507   5.565   1.029   8.289  0.3777  0.3060 -0.1132
 4291TIP3    H134508   5.528   0.943   8.308  0.7060 -0.0998 -1.2465
 4291TIP3    H234509   5.599   1.059   8.373 -1.1886  0.0551  0.6461
 4292TIP3   OH234510   2.378   4.402   1.551  0.2836  0.6597  0.4024
 4292TIP3    H134511   2.295   4.443   1.525 -0.0293 -0.8749 -1.2715
 4292TIP3    H234512   2.437   4.420   1.478  1.4795  1.7805  1.6090
 4293TIP3   OH234513   3.225   5.144   0.532 -0.4703 -0.0597 -0.3083
 4293TIP3    H134514   3.276   5.067   0.505 -1.1371 -0.3593 -0.7517
 4293TIP3    H234515   3.281   5.219   0.510  1.1258 -0.4337  2.1093
 4294TIP3   OH234516   3.230   1.920   1.441 -0.0235 -0.1971  0.3918
 4294TIP3    H134517   3.192   1.854   1.499  0.8398  0.6398  1.9507
 4294TIP3    H234518   3.202   1.893   1.353  1.2909 -3.3417  0.8126
 4295TIP3   OH234519   4.130   1.321   1.525  0.0910  0.2532  0.2008
 4295TIP3    H134520   4.212   1.273   1.517 -0.0484  0.3536 -2.5202
 4295TIP3    H234521   4.152   1.411   1.504 -0.9256  0.0081 -2.2026
 4296TIP3   OH234522   1.248   5.470   7.777  0.1767  0.1029  0.0791
 4296TIP3    H134523   1.191   5.474   7.700 -0.0381 -1.8750  0.0682
 4296TIP3    H234524   1.199   5.516   7.845  0.5955  2.3307 -1.0442
 4297TIP3   OH234525   3.745   5.441   0.013 -0.4011 -0.3811 -0.0408
 4297TIP3    H134526   3.812   5.465  -0.051 -1.0903  1.4139 -0.1327
 4297TIP3    H234527   3.793   5.421   0.093  0.3266 -0.5952 -0.5243
 4298TIP3   OH234528   3.478   3.512   7.288  0.8645  0.4991 -0.5042
 4298TIP3    H134529   3.489   3.466   7.205 -0.9999  0.2037 -0.6109
 4298TIP3    H234530   3.502   3.602   7.268  1.9120  0.1456 -0.9576
 4299TIP3   OH234531   6.211   1.783   8.230 -0.4409  0.5091 -0.1806
 4299TIP3    H134532   6.259   1.746   8.156 -0.5426 -1.1632  0.5484
 4299TIP3    H234533   6.126   1.739   8.228 -0.8155  1.1871  0.3451
 4300TIP3   OH234534   0.252   6.225   2.577  0.0182  0.1204  0.3256
 4300TIP3    H134535   0.181   6.213   2.641  0.0065  1.2053  0.5219
 4300TIP3    H234536   0.208   6.250   2.496 -0.0748 -2.4435 -0.5051
 4301TIP3   OH234537   5.511   3.413   7.344 -0.2901 -0.2389  0.0520
 4301TIP3    H134538   5.510   3.419   7.248  0.3498  0.1679  0.0576
 4301TIP3    H234539   5.602   3.390   7.365 -0.7744 -1.8594  0.4955
 4302TIP3   OH234540   6.350   3.171   2.108  0.1624  0.4881 -0.2704
 4302TIP3    H134541   6.260   3.164   2.078 -0.2138  2.8314  0.0766
 4302TIP3    H234542   6.386   3.083   2.100 -1.5069 -0.0640 -2.4553
 4303TIP3   OH234543   3.537   5.864   7.632 -0.1513  0.7480  0.2589
 4303TIP3    H134544   3.472   5.819   7.579  0.0343  1.2272 -0.3976
 4303TIP3    H234545   3.512   5.846   7.722 -0.5771  0.0607  0.0130
 4304TIP3   OH234546   1.030   0.409   7.517 -0.0268 -0.3387 -0.0525
 4304TIP3    H134547   1.115   0.416   7.474  0.2221 -0.5035  0.3971
 4304TIP3    H234548   0.969   0.383   7.448  0.5841 -1.7988 -0.0852
 4305TIP3   OH234549   2.225   1.652   7.995  0.7316  0.2682  0.2210
 4305TIP3    H134550   2.144   1.646   7.944 -0.0514 -2.3142  1.6023
 4305TIP3    H234551   2.217   1.736   8.041  0.0773  1.2409 -1.5554
 4306TIP3   OH234552   4.991   4.426   8.198 -0.5316 -0.1469  0.0124
 4306TIP3    H134553   5.051   4.383   8.259 -1.9608 -0.6892  1.1013
 4306TIP3    H234554   4.996   4.374   8.118  0.8635  0.1749 -0.1449
 4307TIP3   OH234555   6.518   1.804   0.125 -0.3243 -0.0235 -0.1012
 4307TIP3    H134556   6.452   1.734   0.131  0.6569 -0.9635  0.0805
 4307TIP3    H234557   6.590   1.764   0.077 -0.2383  1.2811 -1.1064
 4308TIP3   OH234558   5.078   1.153   2.189  0.2246  0.3686 -0.0735
 4308TIP3    H134559   4.985   1.161   2.210  0.2527 -0.2269  0.2937
 4308TIP3    H234560   5.111   1.243   2.196  0.0872  0.3260  1.8061
 4309TIP3   OH234561   3.402   2.999   7.861  0.2702  0.2256  0.2657
 4309TIP3    H134562   3.351   2.998   7.941  0.4222 -1.1182  0.3813
 4309TIP3    H234563   3.455   2.919   7.865  2.6313  1.6853  0.2938
 4310TIP3   OH234564   2.195   3.580   1.070  0.2527 -0.0249  0.1851
 4310TIP3    H134565   2.198   3.670   1.035 -1.6813  0.2372  0.5805
 4310TIP3    H234566   2.209   3.590   1.164  0.5161 -0.1946  0.1647
 4311TIP3   OH234567   4.001   6.783   0.208  0.3222  1.1009 -0.1935
 4311TIP3    H134568   3.993   6.772   0.302  0.4624  1.7963 -0.0904
 4311TIP3    H234569   3.968   6.872   0.191 -2.2093  0.0561 -1.1549
 4312TIP3   OH234570   2.397   6.205   0.738 -0.2402  0.1722  0.0500
 4312TIP3    H134571   2.381   6.299   0.737 -0.1813  0.1810 -0.5471
 4312TIP3    H234572   2.437   6.188   0.823  0.6278  0.8443 -0.2004
 4313TIP3   OH234573   1.890   4.599   8.188  0.5822 -0.3181 -0.2430
 4313TIP3    H134574   1.806   4.641   8.169  1.1243  0.7978 -0.2352
 4313TIP3    H234575   1.880   4.510   8.154 -0.4227 -0.0506 -0.6958
 4314TIP3   OH234576   5.593   6.123   7.297 -0.3835  0.1165 -0.1917
 4314TIP3    H134577   5.590   6.197   7.236  0.9605 -0.7554 -1.3676
 4314TIP3    H234578   5.503   6.088   7.297 -1.0817  1.8152  0.5251
 4315TIP3   OH234579   0.771   1.043   0.915  0.6577 -0.4375 -0.4630
 4315TIP3    H134580   0.686   1.080   0.893  1.4223  1.6578 -0.0976
 4315TIP3    H234581   0.771   1.040   1.011  0.0749 -2.8429 -0.4693
 4316TIP3   OH234582   5.970   2.851   8.288  0.4146  0.3567 -0.0016
 4316TIP3    H134583   6.041   2.791   8.267 -1.3928 -1.7868 -0.4284
 4316TIP3    H234584   5.902   2.831   8.224 -0.3681  2.8009 -0.0464
 4317TIP3   OH234585   4.822   1.515   8.825 -0.5895  0.0840  0.2883
 4317TIP3    H134586   4.860   1.486   8.742 -0.9593 -0.9836  0.4765
 4317TIP3    H234587   4.776   1.596   8.803 -0.4794 -0.0533 -0.4984
 4318TIP3   OH234588   4.727   3.824   2.007  0.4667  0.1578 -0.2735
 4318TIP3    H134589   4.646   3.790   2.046  1.1724 -0.2483  0.8611
 4318TIP3    H234590   4.789   3.827   2.079  1.5977  0.0719 -1.2233
 4319TIP3   OH234591   2.906   3.336   0.300  0.0022  0.0527 -0.3521
 4319TIP3    H134592   2.886   3.428   0.316 -0.4467 -0.1756  0.4115
 4319TIP3    H234593   2.998   3.336   0.273 -0.0781  0.7524 -0.6447
 4320TIP3   OH234594   5.212   0.583   7.163 -0.0659  0.4585 -0.1220
 4320TIP3    H134595   5.226   0.665   7.116 -0.0037 -0.1040 -1.1246
 4320TIP3    H234596   5.120   0.584   7.187 -0.7368 -0.2702 -2.3816
 4321TIP3   OH234597   4.242   3.908   8.577  0.4247 -0.2548  0.9105
 4321TIP3    H134598   4.189   3.845   8.529 -0.0252 -0.0512  1.1258
 4321TIP3    H234599   4.183   3.942   8.644  0.6404  0.4371  0.7562
 4322TIP3   OH234600   2.019   1.002   1.449 -0.1040 -0.5891 -0.1202
 4322TIP3    H134601   1.939   0.965   1.486  0.3483 -0.6043  0.8456
 4322TIP3    H234602   1.993   1.030   1.361 -1.7957  1.5104  0.9546
 4323TIP3   OH234603   2.598   0.153   0.267  0.5847  0.2023 -0.4667
 4323TIP3    H134604   2.628   0.074   0.222  0.2073 -2.1136  2.9500
 4323TIP3    H234605   2.527   0.186   0.213  1.0283 -1.5589 -2.2350
 4324TIP3   OH234606   6.075   5.536   1.976 -0.2806  0.7592 -0.0240
 4324TIP3    H134607   6.126   5.511   1.899 -1.2509 -1.8872  0.1078
 4324TIP3    H234608   5.984   5.517   1.952 -0.6888  0.7655  1.4464
 4325TIP3   OH234609   5.381   3.432   1.031  0.0882 -0.1251 -0.2249
 4325TIP3    H134610   5.373   3.338   1.018 -0.3344 -0.2368  0.7458
 4325TIP3    H234611   5.421   3.441   1.118  0.4820  0.5907 -0.4703
 4326TIP3   OH234612   3.597   2.148   0.402  0.2708 -0.3638  0.5076
 4326TIP3    H134613   3.600   2.234   0.361  0.8632 -2.3299 -4.1925
 4326TIP3    H234614   3.525   2.155   0.465 -0.7184  3.1540 -0.7476
 4327TIP3   OH234615   2.068   6.551   7.760 -0.1111 -0.0837 -0.4301
 4327TIP3    H134616   1.983   6.509   7.750 -0.3987  0.2454  0.5274
 4327TIP3    H234617   2.126   6.502   7.703 -0.9733 -0.2160 -1.2213
 4328TIP3   OH234618   1.480   3.790   1.793 -0.1840 -0.2885 -0.3412
 4328TIP3    H134619   1.568   3.754   1.796 -0.0095 -0.0545 -1.8614
 4328TIP3    H234620   1.480   3.848   1.716 -2.0002 -1.2576 -1.1498
 4329TIP3   OH234621   6.546   2.011   8.692 -0.0317  1.0606 -0.7421
 4329TIP3    H134622   6.475   2.074   8.675 -3.0688 -0.9867  2.7322
 4329TIP3    H234623   6.579   2.036   8.778 -0.5282 -1.2698  0.2068
 4330TIP3   OH234624   6.641   3.729   8.126  0.0305  0.2769  0.6391
 4330TIP3    H134625   6.648   3.690   8.039 -0.7962  2.6677 -0.5909
 4330TIP3    H234626   6.548   3.751   8.134  0.6911  3.9211  0.2277
 4331TIP3   OH234627   4.325   4.417   8.920  0.0400 -0.3074  0.2967
 4331TIP3    H134628   4.354   4.506   8.903 -2.2929  0.3793 -0.4622
 4331TIP3    H234629   4.359   4.397   9.007  0.2127  1.4980  0.6752
 4332TIP3   OH234630   0.739   6.562   7.348 -0.3404  0.0085 -0.2959
 4332TIP3    H134631   0.794   6.629   7.389 -0.7547  0.1490  0.0361
 4332TIP3    H234632   0.753   6.484   7.401 -2.9134  0.8383  1.8687
 4333TIP3   OH234633   6.405   4.785   2.075 -0.3951  0.1795  0.0959
 4333TIP3    H134634   6.415   4.872   2.113  0.8358 -0.1973  0.6975
 4333TIP3    H234635   6.418   4.725   2.148 -0.7223 -0.5217 -0.4115
 4334TIP3   OH234636   1.397   2.491   1.174  0.1447 -0.0253 -0.7884
 4334TIP3    H134637   1.372   2.464   1.263  3.3890  0.4242  0.4155
 4334TIP3    H234638   1.379   2.585   1.171 -1.2854 -0.2943 -1.1567
 4335TIP3   OH234639   2.274   5.139   1.552 -0.4023 -0.7235 -1.0202
 4335TIP3    H134640   2.233   5.225   1.539 -0.9260 -0.7206  0.5239
 4335TIP3    H234641   2.296   5.137   1.645  0.1589 -2.0394 -1.1667
 4336TIP3   OH234642   3.735   0.477   0.776  0.3502 -0.1419  0.6753
 4336TIP3    H134643   3.730   0.573   0.773 -0.5576 -0.1961 -0.2306
 4336TIP3    H234644   3.644   0.448   0.763  0.6529 -1.1225  0.6839
 4337TIP3   OH234645   2.124   4.517   0.486 -0.2346  0.1525  0.2984
 4337TIP3    H134646   2.094   4.467   0.410 -1.5410 -1.8900  2.0289
 4337TIP3    H234647   2.158   4.451   0.546 -0.5713  1.5112  2.0766
 4338TIP3   OH234648   1.331   2.759   8.132 -0.0416 -0.2872 -0.1888
 4338TIP3    H134649   1.273   2.683   8.131  0.7087 -0.8684  0.2145
 4338TIP3    H234650   1.412   2.728   8.092 -0.2761  0.7521 -1.5353
 4339TIP3   OH234651   6.085   4.370   1.938  0.0471  0.1828 -0.0955
 4339TIP3    H134652   6.063   4.283   1.972 -2.2754  0.5640 -0.4418
 4339TIP3    H234653   6.073   4.428   2.013 -0.8201  0.4864 -0.4586
 4340TIP3   OH234654   1.569   6.737   2.537 -0.4067 -0.2959 -0.5990
 4340TIP3    H134655   1.511   6.661   2.527 -1.8621  0.5182  1.0435
 4340TIP3    H234656   1.604   6.728   2.626  1.3749 -0.2971 -1.2573
 4341TIP3   OH234657   4.579   1.201   1.705 -0.4640  0.2901  0.0036
 4341TIP3    H134658   4.562   1.281   1.756 -0.5302 -0.1896  0.7477
 4341TIP3    H234659   4.664   1.170   1.737  0.2073  0.7726 -1.2274
 4342TIP3   OH234660   4.973   0.011   1.831 -0.4249 -0.0671  0.6556
 4342TIP3    H134661   4.996   0.086   1.776 -1.0589 -0.6338 -0.4169
 4342TIP3    H234662   4.941  -0.055   1.770 -0.0157 -1.1705  1.6011
 4343TIP3   OH234663   3.261   5.001   0.077 -0.1350  0.1087 -0.0055
 4343TIP3    H134664   3.301   5.074   0.125 -0.1531 -0.3824  0.7655
 4343TIP3    H234665   3.334   4.943   0.055 -0.4344 -0.9661  1.7136
 4344TIP3   OH234666   3.342   3.786   1.442 -0.1163 -0.5946 -0.1875
 4344TIP3    H134667   3.342   3.714   1.504 -0.8874 -0.1748  0.3129
 4344TIP3    H234668   3.375   3.748   1.361 -1.8853 -1.9042 -0.3569
 4345TIP3   OH234669   3.790   0.546   7.526  0.3868  0.2301 -0.0155
 4345TIP3    H134670   3.886   0.547   7.521  0.4348  3.1041  0.1618
 4345TIP3    H234671   3.772   0.514   7.614  1.2070  0.4917  0.2596
 4346TIP3   OH234672   5.869   3.701   7.948 -0.3829 -0.3680 -0.0033
 4346TIP3    H134673   5.821   3.651   8.014 -0.9108 -0.6224 -0.5698
 4346TIP3    H234674   5.887   3.639   7.878  1.5394 -0.4991  0.5399
 4347TIP3   OH234675   0.592   5.944   0.376  0.3240  0.1712 -0.5959
 4347TIP3    H134676   0.525   5.887   0.339 -0.7556  0.3223  1.0170
 4347TIP3    H234677   0.664   5.885   0.399 -0.8667 -0.6547  1.2510
 4348TIP3   OH234678   5.806   5.100   8.733  0.2463  0.7147  0.0750
 4348TIP3    H134679   5.870   5.153   8.686 -0.2555  1.4169  0.1662
 4348TIP3    H234680   5.842   5.092   8.821  0.7115  0.2184 -0.1542
 4349TIP3   OH234681   2.042   5.225   8.770  0.0309 -0.7191 -0.5968
 4349TIP3    H134682   1.953   5.192   8.783  0.0897 -0.3016  1.1475
 4349TIP3    H234683   2.053   5.229   8.675 -0.8252 -3.3831 -0.8890
 4350TIP3   OH234684   4.969   3.808   2.643  0.2418 -1.1816  0.3353
 4350TIP3    H134685   4.891   3.767   2.679 -0.7948 -0.0126 -0.4713
 4350TIP3    H234686   4.937   3.890   2.605  1.7363 -1.0362 -0.7008
 4351TIP3   OH234687   0.539   6.022   7.645  0.5473 -0.2909  0.6240
 4351TIP3    H134688   0.578   6.009   7.558 -0.9990  2.5503 -0.6384
 4351TIP3    H234689   0.610   6.005   7.706  1.9179 -1.6312 -1.2045
 4352TIP3   OH234690   0.426   3.744   6.650  0.2682  0.9595 -0.6945
 4352TIP3    H134691   0.452   3.786   6.732  0.6765  0.2524 -0.4526
 4352TIP3    H234692   0.502   3.755   6.593  0.3452  0.6183 -0.6565
 4353TIP3   OH234693   0.001   2.259   8.330  0.5770  0.2875  0.1165
 4353TIP3    H134694   0.050   2.250   8.249  1.7711  0.5463  0.7780
 4353TIP3    H234695  -0.018   2.169   8.357  2.0975  0.0881  0.6433
 4354TIP3   OH234696   4.629   1.065   0.420 -0.1289  0.2123 -0.1849
 4354TIP3    H134697   4.704   1.125   0.422 -1.2354  1.6205  1.9980
 4354TIP3    H234698   4.584   1.086   0.338  0.2268  1.4701 -0.0769
 4355TIP3   OH234699   4.945   5.077   8.232 -0.3546 -0.2342  0.4755
 4355TIP3    H134700   5.011   5.028   8.184  2.9557  3.4573  0.7056
 4355TIP3    H234701   4.895   5.123   8.165  0.5465  0.6150  0.3660
 4356TIP3   OH234702   5.366   5.325   1.055 -0.2538  0.1569  0.0670
 4356TIP3    H134703   5.335   5.242   1.090 -0.4686  0.1134 -0.2291
 4356TIP3    H234704   5.348   5.389   1.125  0.3443 -0.1208  0.4864
 4357TIP3   OH234705   2.541   3.871   8.919 -0.1523 -0.1573  0.5266
 4357TIP3    H134706   2.608   3.803   8.907 -2.2479 -2.8105  2.4647
 4357TIP3    H234707   2.542   3.888   9.014 -1.1593  0.9462  0.3573
 4358TIP3   OH234708   5.320   6.442   0.319 -0.3085 -0.4817 -0.2027
 4358TIP3    H134709   5.362   6.504   0.260 -4.0592 -1.0798 -3.9831
 4358TIP3    H234710   5.248   6.491   0.358 -0.6946 -1.3366  0.1817
 4359TIP3   OH234711   3.509   2.078   8.669  0.4931  0.6099 -0.3481
 4359TIP3    H134712   3.567   2.153   8.658 -1.2269  1.9904 -0.3440
 4359TIP3    H234713   3.464   2.069   8.585 -1.8784  1.8627  0.6949
 4360TIP3   OH234714   2.126   5.469   0.590 -0.5370  0.6203 -0.3563
 4360TIP3    H134715   2.037   5.491   0.563 -0.7464  0.4486  0.1779
 4360TIP3    H234716   2.166   5.553   0.611 -0.4939  0.7198 -0.8368
 4361TIP3   OH234717   3.468   6.632   0.112  0.0650  0.3593  0.4457
 4361TIP3    H134718   3.520   6.693   0.060 -0.7508  0.4342 -0.2978
 4361TIP3    H234719   3.482   6.660   0.203  0.3328  1.1556  0.1641
 4362TIP3   OH234720   2.092   6.233   1.665 -0.4239 -0.1729  0.0415
 4362TIP3    H134721   2.154   6.196   1.603 -0.5247  1.2669 -0.9721
 4362TIP3    H234722   2.006   6.221   1.624 -0.5270  0.4677  0.0520
 4363TIP3   OH234723   4.714   4.113   7.521  0.6659 -0.0174  0.4007
 4363TIP3    H134724   4.703   4.154   7.435  1.8473  1.1393  0.7722
 4363TIP3    H234725   4.625   4.106   7.555  0.3249  1.3448 -0.1134
 4364TIP3   OH234726   4.278   0.848   1.595  0.9851  0.1210 -0.4236
 4364TIP3    H134727   4.264   0.919   1.657  0.5911 -0.5217  0.2301
 4364TIP3    H234728   4.315   0.891   1.517  0.2488  1.1099 -0.2396
 4365TIP3   OH234729   0.281   0.602   2.384 -0.1820  0.0161 -0.4713
 4365TIP3    H134730   0.370   0.612   2.351  0.2948  0.7861  0.9639
 4365TIP3    H234731   0.288   0.534   2.451 -0.5898  0.3765 -0.0610
 4366TIP3   OH234732   2.832   5.653   7.504 -0.0509  0.4261  0.0569
 4366TIP3    H134733   2.813   5.653   7.410  0.5633  0.9401 -0.0736
 4366TIP3    H234734   2.779   5.723   7.540  0.3414  0.7770 -0.0434
 4367TIP3   OH234735   2.314   3.358   1.850  0.5758 -0.0896  0.0154
 4367TIP3    H134736   2.231   3.405   1.852  0.2442 -0.6774  0.5526
 4367TIP3    H234737   2.324   3.325   1.939  0.8204 -0.9905 -0.3356
 4368TIP3   OH234738   4.397   0.827   6.905  0.3261  0.0882 -0.3266
 4368TIP3    H134739   4.376   0.736   6.924  0.9013 -0.2710 -1.3010
 4368TIP3    H234740   4.438   0.860   6.985 -0.2832 -0.3704  0.1854
 4369TIP3   OH234741   5.712   3.890   7.587  0.7756  0.8014 -0.2983
 4369TIP3    H134742   5.667   3.909   7.505 -1.8486  2.8916  1.4454
 4369TIP3    H234743   5.764   3.968   7.605  1.0533  0.5118  0.1945
 4370TIP3   OH234744   2.044   0.629   8.586 -0.2910 -0.3169 -0.3036
 4370TIP3    H134745   2.015   0.598   8.671  0.4573  1.3479  0.6072
 4370TIP3    H234746   2.098   0.557   8.551  0.8659 -0.3472  1.4283
 4371TIP3   OH234747   6.421   4.082   7.668 -1.2249  0.4389  0.2463
 4371TIP3    H134748   6.448   4.094   7.577 -0.1935  1.5453  0.6753
 4371TIP3    H234749   6.493   4.034   7.708 -1.8178 -0.3298  0.4292
 4372TIP3   OH234750   3.834   3.282   1.652 -0.4164  0.0787 -0.1131
 4372TIP3    H134751   3.742   3.264   1.669 -0.4192  0.7327  0.6138
 4372TIP3    H234752   3.835   3.366   1.606 -0.1361  0.6184  0.8444
 4373TIP3   OH234753   6.311   2.604   0.756  0.0517  0.0866  0.8172
 4373TIP3    H134754   6.343   2.515   0.743  0.9926  0.6178 -0.7866
 4373TIP3    H234755   6.220   2.601   0.725  0.3235 -0.1497  0.0205
 4374TIP3   OH234756   6.204   3.257   7.592  0.0852  0.0233  0.6134
 4374TIP3    H134757   6.151   3.177   7.581  0.8498 -0.3471 -0.5455
 4374TIP3    H234758   6.271   3.233   7.656 -0.0599 -0.0673  0.7316
 4375TIP3   OH234759   2.792   5.923   2.665  0.3536  0.1168  0.3244
 4375TIP3    H134760   2.720   5.890   2.718  0.5137 -0.3149  0.2734
 4375TIP3    H234761   2.852   5.964   2.728  1.0418 -1.2853  0.6087
 4376TIP3   OH234762   6.110   0.330   0.138  0.1306  0.4268  0.3701
 4376TIP3    H134763   6.119   0.319   0.233  2.2011  2.0630  0.4330
 4376TIP3    H234764   6.041   0.396   0.128 -1.3340 -1.0022  0.6038
 4377TIP3   OH234765   6.716   4.689   2.133  0.2929  0.2076  0.6049
 4377TIP3    H134766   6.749   4.644   2.055 -1.6975 -0.0037 -0.1915
 4377TIP3    H234767   6.675   4.620   2.185  1.1868  0.4279  1.6177
 4378TIP3   OH234768   3.594   0.295   1.683  0.5359  0.1536  0.3048
 4378TIP3    H134769   3.667   0.330   1.734 -0.2683  1.2518  0.7273
 4378TIP3    H234770   3.604   0.200   1.690  1.0646  0.2866  1.6174
 4379TIP3   OH234771   6.257   3.584   8.684 -0.5414  0.2229 -0.5024
 4379TIP3    H134772   6.345   3.574   8.720 -0.5713 -1.7405 -0.8830
 4379TIP3    H234773   6.201   3.532   8.741 -0.9706 -0.9496 -1.9291
 4380TIP3   OH234774   2.787   1.786   0.796 -0.2764  0.1348 -0.6595
 4380TIP3    H134775   2.738   1.770   0.877  0.9216 -0.8897 -0.1009
 4380TIP3    H234776   2.735   1.851   0.749 -3.1702 -2.1652 -0.9526
 4381TIP3   OH234777   4.273   3.413   7.414  0.0098 -0.0186  0.4928
 4381TIP3    H134778   4.255   3.319   7.403 -0.2358  0.0479  0.3256
 4381TIP3    H234779   4.302   3.442   7.328 -0.0477  0.0875  0.5090
 4382TIP3   OH234780   6.010   5.507   0.845 -0.0296  0.3222  0.3134
 4382TIP3    H134781   5.932   5.459   0.817 -2.0963  3.9325 -0.7696
 4382TIP3    H234782   6.057   5.524   0.764  0.5850  0.3221  0.6654
 4383TIP3   OH234783   4.587   3.389   0.188  0.4487  0.4390  0.4989
 4383TIP3    H134784   4.634   3.435   0.118  0.7050  1.5485  1.3607
 4383TIP3    H234785   4.498   3.424   0.184  0.9652  2.1209  2.0066
 4384TIP3   OH234786   2.533   2.597   1.484 -0.4098 -0.7080 -0.4395
 4384TIP3    H134787   2.624   2.568   1.481  0.1640  0.9960 -0.2029
 4384TIP3    H234788   2.504   2.572   1.572  0.8543  1.5453  0.7048
 4385TIP3   OH234789   1.804   3.694   7.572 -0.0869 -0.1380  0.0570
 4385TIP3    H134790   1.762   3.612   7.597  1.2482 -0.2885  1.9707
 4385TIP3    H234791   1.868   3.668   7.506  1.5302 -0.9834  1.8651
 4386TIP3   OH234792   5.136   1.819   7.042  0.4513 -0.3251 -0.2636
 4386TIP3    H134793   5.126   1.741   7.097 -1.1027 -0.4585 -0.7043
 4386TIP3    H234794   5.057   1.822   6.989  0.0510  2.0480  0.3552
 4387TIP3   OH234795   6.153   2.816   0.238  0.0115 -0.1220  0.3080
 4387TIP3    H134796   6.122   2.801   0.149  2.8498  1.6731 -1.1351
 4387TIP3    H234797   6.220   2.749   0.252 -1.5367 -1.4612  1.8426
 4388TIP3   OH234798   4.319   5.512   2.960  0.2490 -0.3513 -0.5878
 4388TIP3    H134799   4.375   5.434   2.961 -0.7864 -1.1674  1.6585
 4388TIP3    H234800   4.365   5.574   2.904  1.9654 -1.9806 -1.0825
 4389TIP3   OH234801   2.771   4.962   7.697  0.1376 -0.6814  0.3444
 4389TIP3    H134802   2.745   4.913   7.775 -1.1267 -1.8254 -0.7414
 4389TIP3    H234803   2.766   4.898   7.626 -0.2619  0.7067 -0.9290
 4390TIP3   OH234804   2.569   0.385   1.620  0.4906  1.0803 -0.2745
 4390TIP3    H134805   2.623   0.355   1.693 -0.3778  2.1177  0.8248
 4390TIP3    H234806   2.491   0.423   1.661 -0.1337  1.4700 -1.7527
 4391TIP3   OH234807   2.107   1.335   8.175 -0.2113 -0.3072  0.4998
 4391TIP3    H134808   2.113   1.268   8.107  0.2740  0.4596 -0.2381
 4391TIP3    H234809   2.024   1.380   8.158 -0.2058 -0.2692  0.5711
 4392TIP3   OH234810   2.536   6.420   0.660  0.2690 -0.5506  0.4147
 4392TIP3    H134811   2.567   6.488   0.720 -2.1848 -1.0014  2.3524
 4392TIP3    H234812   2.580   6.340   0.689  1.2429 -0.2830 -0.2661
 4393TIP3   OH234813   0.655   1.414   8.137  0.5731  0.0062  0.8960
 4393TIP3    H134814   0.750   1.414   8.122  0.0533  0.6818 -3.7604
 4393TIP3    H234815   0.624   1.336   8.091 -1.2940  0.3049  1.5757
 4394TIP3   OH234816   5.487   2.986   1.094 -0.1496  0.4373  0.0644
 4394TIP3    H134817   5.541   3.009   1.170 -1.3869  0.9613  0.8020
 4394TIP3    H234818   5.414   2.936   1.131  0.1795 -0.9223 -1.0149
 4395TIP3   OH234819   5.574   5.521   1.495 -0.2116 -0.3782  0.0283
 4395TIP3    H134820   5.480   5.538   1.503 -0.4106 -0.3377 -1.8955
 4395TIP3    H234821   5.580   5.439   1.446  0.7620 -0.2412 -0.1082
 4396TIP3   OH234822   0.191   4.048   8.735  0.3055 -0.1874 -0.1642
 4396TIP3    H134823   0.150   3.970   8.772  1.2365 -0.1224  1.1025
 4396TIP3    H234824   0.136   4.120   8.765 -0.1448 -0.3023 -0.7152
 4397TIP3   OH234825   2.901   4.022   1.468  0.0908 -0.3793 -0.2594
 4397TIP3    H134826   2.888   3.968   1.546 -0.6454  0.4861  0.2396
 4397TIP3    H234827   2.962   3.973   1.414  0.2563 -1.2054  0.6640
 4398TIP3   OH234828   0.744   6.592   8.162 -0.5743  0.1078  0.6838
 4398TIP3    H134829   0.789   6.580   8.246  1.4790 -0.9445 -0.5061
 4398TIP3    H234830   0.714   6.504   8.139 -0.9430  0.3585  0.2125
 4399TIP3   OH234831   6.225   5.178   8.870  0.3319  0.1092  0.2818
 4399TIP3    H134832   6.196   5.164   8.779  0.4429 -0.0034  0.2647
 4399TIP3    H234833   6.279   5.257   8.865 -0.6694  0.8282  0.4565
 4400TIP3   OH234834   3.784   5.667   7.864  0.2398  0.1670  0.1738
 4400TIP3    H134835   3.757   5.580   7.893  0.3056 -0.6340 -1.9834
 4400TIP3    H234836   3.706   5.722   7.878 -0.8881 -0.9763 -1.3011
 4401TIP3   OH234837   3.093   1.747   0.873  0.6374 -0.3772  0.0750
 4401TIP3    H134838   3.147   1.818   0.908  1.0967 -0.1805 -0.9834
 4401TIP3    H234839   3.006   1.786   0.861  0.7286 -0.1712  0.0900
 4402TIP3   OH234840   6.585   0.781   2.601 -0.8741 -0.2957  0.0636
 4402TIP3    H134841   6.628   0.847   2.545  0.6039 -1.5679 -0.3618
 4402TIP3    H234842   6.597   0.814   2.690 -2.1843  1.1385 -0.2414
 4403TIP3   OH234843   3.811   5.879   1.997 -0.2038 -0.1948  0.0847
 4403TIP3    H134844   3.752   5.887   2.072  0.1289 -0.7717  0.4175
 4403TIP3    H234845   3.867   5.956   2.002  0.9082 -1.0498  1.3996
 4404TIP3   OH234846   1.740   4.076   2.700 -0.2752 -0.0739 -0.0904
 4404TIP3    H134847   1.807   4.133   2.662 -1.2365  0.6404 -0.7761
 4404TIP3    H234848   1.751   3.992   2.655 -1.6529  0.8675 -2.3602
 4405TIP3   OH234849   1.835   2.517   8.598 -0.1287 -0.2094  0.3591
 4405TIP3    H134850   1.876   2.470   8.671 -1.9419 -1.3771  0.6684
 4405TIP3    H234851   1.861   2.468   8.520  0.6863  0.2481  0.3250
 4406TIP3   OH234852   3.577   6.787   8.703 -0.6927 -0.7733  0.2666
 4406TIP3    H134853   3.626   6.814   8.781 -1.2384 -1.8021  0.9977
 4406TIP3    H234854   3.620   6.707   8.674 -0.1686 -0.1149 -0.8286
 4407TIP3   OH234855   5.591   4.113   1.619  0.3564  0.2828  0.0028
 4407TIP3    H134856   5.629   4.122   1.531 -3.7042  1.0198 -1.8839
 4407TIP3    H234857   5.586   4.019   1.633 -2.8067 -0.1237 -2.6273
 4408TIP3   OH234858   5.372   4.842   8.539 -0.4903  0.0102  0.4371
 4408TIP3    H134859   5.344   4.829   8.630 -1.2052  1.5081  0.4594
 4408TIP3    H234860   5.292   4.832   8.488 -0.0541 -1.0176 -0.0627
 4409TIP3   OH234861   0.658   4.369   0.593  0.2073 -0.2552  0.1641
 4409TIP3    H134862   0.727   4.362   0.658  0.2428  0.8032  0.2581
 4409TIP3    H234863   0.697   4.422   0.523  0.6431 -2.4886 -1.3817
 4410TIP3   OH234864   2.011   1.193   2.507  0.1968  0.0500  0.0956
 4410TIP3    H134865   2.023   1.274   2.556  1.2824  0.2744 -0.5100
 4410TIP3    H234866   2.096   1.150   2.511 -0.3828 -1.0964  0.4575
 4411TIP3   OH234867   2.204   1.684   7.592 -0.1413 -0.5291 -0.3071
 4411TIP3    H134868   2.271   1.623   7.561  0.8946  1.3835 -2.1300
 4411TIP3    H234869   2.252   1.743   7.651 -0.9347 -0.9157  0.7570
 4412TIP3   OH234870   1.044   6.289   7.999 -0.0975  0.8008  0.0667
 4412TIP3    H134871   1.018   6.232   8.071  2.2033 -0.5896 -0.0965
 4412TIP3    H234872   1.071   6.370   8.041 -0.1162  0.5153  0.6472
 4413TIP3   OH234873   1.728   0.284   7.833  0.4287  0.0713  0.0263
 4413TIP3    H134874   1.647   0.245   7.799  0.3915 -1.7222  2.0022
 4413TIP3    H234875   1.703   0.374   7.854  0.0818  0.8270 -3.1178
 4414TIP3   OH234876   2.905   0.127   0.378 -0.5375 -0.5209 -0.0087
 4414TIP3    H134877   2.902   0.064   0.450 -0.0288  0.4352  0.8626
 4414TIP3    H234878   2.829   0.184   0.392 -0.9252 -0.8352 -0.7279
 4415TIP3   OH234879   6.666   5.260   0.345  0.0283 -0.5141  0.3838
 4415TIP3    H134880   6.661   5.185   0.285 -1.8589 -1.1146  1.2209
 4415TIP3    H234881   6.727   5.321   0.302  0.2450 -1.7527 -1.1721
 4416TIP3   OH234882   0.612   3.877   0.021 -0.0848  0.2986  0.1947
 4416TIP3    H134883   0.517   3.866   0.035  0.1166  0.9974  2.5160
 4416TIP3    H234884   0.635   3.807  -0.041 -1.8820 -0.7709  0.6514
 4417TIP3   OH234885   5.402   3.823   0.541  0.0432 -0.1069  0.0737
 4417TIP3    H134886   5.412   3.739   0.585  1.3093  0.7201  1.4279
 4417TIP3    H234887   5.308   3.832   0.528 -0.3313 -0.6618  2.0858
 4418TIP3   OH234888   5.975   0.073   1.467  0.3451  0.0120 -0.4701
 4418TIP3    H134889   5.957   0.165   1.449  0.9094  0.1220 -0.5005
 4418TIP3    H234890   6.022   0.041   1.389 -0.5093 -0.5055 -0.7869
 4419TIP3   OH234891   4.460   6.432   2.331 -0.3224  0.5839 -0.7656
 4419TIP3    H134892   4.484   6.443   2.423 -2.9862  1.3534 -0.0749
 4419TIP3    H234893   4.537   6.461   2.282  0.0510  3.2315  1.2009
 4420TIP3   OH234894   1.233   3.183   7.855  0.3918  0.2151  0.2432
 4420TIP3    H134895   1.219   3.218   7.767  3.0315  1.5148  0.2429
 4420TIP3    H234896   1.220   3.258   7.913  1.7554  0.1640  0.6482
 4421TIP3   OH234897   6.446   0.990   7.314  0.1550 -0.0995  0.4114
 4421TIP3    H134898   6.475   0.899   7.304  0.1455  0.0601 -1.3710
 4421TIP3    H234899   6.351   0.984   7.319  0.0530 -0.1096 -1.1697
 4422TIP3   OH234900   5.491   6.066   6.654  0.6768  0.0509  0.3994
 4422TIP3    H134901   5.455   6.152   6.635  1.5481  0.1947 -0.6408
 4422TIP3    H234902   5.571   6.061   6.602 -0.5712 -2.3135 -1.4954
 4423TIP3   OH234903   1.268   2.768   2.339 -0.7192 -0.1728  0.6785
 4423TIP3    H134904   1.311   2.803   2.261 -0.2367 -0.2416  0.9118
 4423TIP3    H234905   1.269   2.840   2.401 -0.4375 -0.3506  0.8810
 4424TIP3   OH234906   3.894   0.251   1.610 -0.1123  0.4996 -0.5049
 4424TIP3    H134907   3.901   0.187   1.682  3.0253  0.0302 -1.0669
 4424TIP3    H234908   3.893   0.336   1.654  0.0957  0.1701  0.1577
 4425TIP3   OH234909   4.312   2.783   7.427 -0.0623 -0.0747  0.1399
 4425TIP3    H134910   4.308   2.787   7.331 -1.9909  0.3424  0.1879
 4425TIP3    H234911   4.365   2.859   7.451  0.9096 -0.4957 -0.5990
 4426TIP3   OH234912   3.590   1.874   0.274  0.1326  0.4837  0.0770
 4426TIP3    H134913   3.586   1.953   0.328  0.2297  0.8274 -0.4133
 4426TIP3    H234914   3.503   1.835   0.282 -0.7279  1.9462 -1.6052
 4427TIP3   OH234915   5.529   3.656   0.972 -0.0709  0.0790  0.2396
 4427TIP3    H134916   5.468   3.585   0.990  0.8618 -1.1042 -1.1345
 4427TIP3    H234917   5.473   3.728   0.943 -0.8892 -0.6358  0.0119
 4428TIP3   OH234918   5.376   5.583   0.204 -0.5645  0.7627 -0.0865
 4428TIP3    H134919   5.307   5.612   0.145 -0.4044  1.5012  0.0795
 4428TIP3    H234920   5.352   5.619   0.289 -0.3328  0.4442  0.1163
 4429TIP3   OH234921   4.409   4.701   0.240  0.4808 -0.1987 -0.4251
 4429TIP3    H134922   4.498   4.719   0.272  0.5210 -0.8661 -0.1453
 4429TIP3    H234923   4.422   4.670   0.150  0.5679 -0.6882 -0.2465
 4430TIP3   OH234924   5.533   4.201   7.986  0.2086 -1.0690  0.0274
 4430TIP3    H134925   5.627   4.219   7.988 -0.0947  0.9572 -0.9277
 4430TIP3    H234926   5.524   4.127   7.926  1.1649 -1.0636 -0.1314
 4431TIP3   OH234927   5.499   3.828   1.424  0.5152 -0.0202  0.6328
 4431TIP3    H134928   5.463   3.789   1.344 -0.6959  0.2387  1.0355
 4431TIP3    H234929   5.535   3.912   1.395  0.3032 -0.0372  0.3062
 4432TIP3   OH234930   6.247   5.768   2.273 -0.2465  0.1951 -0.2571
 4432TIP3    H134931   6.213   5.850   2.310 -2.9637 -0.2708 -1.4966
 4432TIP3    H234932   6.252   5.784   2.179  3.2109  0.1944 -0.2139
 4433TIP3   OH234933   0.487   6.672   7.266  0.0526 -0.2365  0.4350
 4433TIP3    H134934   0.565   6.640   7.310  0.4106  1.6386  1.2302
 4433TIP3    H234935   0.518   6.741   7.208 -1.1432  1.5686  1.8502
 4434TIP3   OH234936   0.676   2.632   8.757 -0.3539  0.2994  0.3135
 4434TIP3    H134937   0.587   2.612   8.787 -0.7934  2.1969  0.4118
 4434TIP3    H234938   0.664   2.665   8.668  0.3152  0.1363  0.1589
 4435TIP3   OH234939   3.013   2.592   8.151 -0.8112 -0.0352  0.0842
 4435TIP3    H134940   2.936   2.600   8.208 -1.1290 -1.1318 -0.1590
 4435TIP3    H234941   2.988   2.524   8.088  0.5275 -0.7352  0.2774
 4436TIP3   OH234942   0.871   6.681   6.947  0.0982  0.0301  0.1495
 4436TIP3    H134943   0.939   6.690   6.880  0.7988 -1.9232  0.5508
 4436TIP3    H234944   0.855   6.771   6.976  1.7627  0.6429 -0.6888
 4437TIP3   OH234945   1.262   0.866   1.569 -0.0575  0.1187 -0.3073
 4437TIP3    H134946   1.223   0.953   1.563 -0.8617 -0.2025  0.2450
 4437TIP3    H234947   1.197   0.807   1.531 -1.6713 -0.8812  3.5855
 4438TIP3   OH234948   4.852   0.071   1.091  0.4679 -0.1643 -0.0760
 4438TIP3    H134949   4.765   0.043   1.118  0.9427 -1.3266  0.3286
 4438TIP3    H234950   4.875   0.141   1.152 -0.5727  0.8598 -0.8280
 4439TIP3   OH234951   2.044   2.945   2.209  0.6153 -0.2996  0.9200
 4439TIP3    H134952   2.033   2.955   2.304 -0.9405  0.7032  0.6773
 4439TIP3    H234953   2.048   3.035   2.176 -1.1701 -0.5692 -0.1724
 4440TIP3   OH234954   5.307   6.575   1.560  0.0276 -0.0468 -0.3912
 4440TIP3    H134955   5.331   6.488   1.528  1.2886 -0.3078  1.0915
 4440TIP3    H234956   5.341   6.635   1.494  1.3594 -0.6067 -0.2537
 4441TIP3   OH234957   1.268   3.146   1.839  0.1266  0.5561 -0.6435
 4441TIP3    H134958   1.211   3.218   1.866 -0.2563 -0.6090  1.9710
 4441TIP3    H234959   1.238   3.071   1.891  1.9413 -0.9319 -1.6290
 4442TIP3   OH234960   1.790   5.114   2.344  0.2137 -0.1266  0.1298
 4442TIP3    H134961   1.785   5.042   2.406  0.6592 -0.4577 -0.2121
 4442TIP3    H234962   1.708   5.162   2.356 -0.1216 -0.7368  0.3021
 4443TIP3   OH234963   1.756   6.571   8.433 -0.3066  0.5364 -0.4154
 4443TIP3    H134964   1.832   6.594   8.488  0.9569  0.0329 -1.8811
 4443TIP3    H234965   1.695   6.528   8.493  2.8157 -4.0322 -0.0427
 4444TIP3   OH234966   2.679   4.861   7.947 -0.0193 -0.6886 -0.1789
 4444TIP3    H134967   2.697   4.876   8.040 -1.0409 -0.6538  0.0346
 4444TIP3    H234968   2.585   4.841   7.944 -0.6883  2.1262 -1.5012
 4445TIP3   OH234969   2.160   2.411   1.730 -0.3084 -0.0921  0.1736
 4445TIP3    H134970   2.073   2.377   1.750 -0.7133 -0.5060 -2.0732
 4445TIP3    H234971   2.146   2.479   1.665  1.1682 -2.3204 -2.7064
 4446TIP3   OH234972   6.628   6.366   7.275  0.6745 -0.4421 -0.1832
 4446TIP3    H134973   6.563   6.379   7.206  1.1276 -0.5788 -0.6512
 4446TIP3    H234974   6.580   6.375   7.357  0.4913  1.7890 -0.4667
 4447TIP3   OH234975   2.936   5.940   1.784  0.2090  0.7251  0.5938
 4447TIP3    H134976   3.014   5.955   1.731 -0.7194 -1.0087 -1.4031
 4447TIP3    H234977   2.937   5.846   1.802 -0.0143  1.1107  2.9251
 4448TIP3   OH234978   4.787   4.924   7.665 -0.2698 -0.3069 -0.3093
 4448TIP3    H134979   4.810   5.017   7.666 -0.3889 -0.2700  0.8211
 4448TIP3    H234980   4.707   4.919   7.718  0.1608 -1.1504  0.2752
 4449TIP3   OH234981   2.847   6.234   0.451 -0.0733 -0.3138 -0.3845
 4449TIP3    H134982   2.819   6.266   0.365 -0.6244 -1.8261 -0.8150
 4449TIP3    H234983   2.927   6.185   0.434  1.3685  1.6557  0.4266
 4450TIP3   OH234984   0.633   3.376   2.424  0.1527 -0.4601 -0.1796
 4450TIP3    H134985   0.541   3.369   2.449 -1.2045  1.9328 -3.6945
 4450TIP3    H234986   0.669   3.443   2.483  0.2681 -2.5840  2.3374
 4451TIP3   OH234987   4.312   3.195   8.528  0.3251 -0.1188  0.0575
 4451TIP3    H134988   4.293   3.154   8.444 -0.3722  0.3938 -0.0457
 4451TIP3    H234989   4.256   3.149   8.591  1.6870 -1.2850  0.4666
 4452TIP3   OH234990   6.288   2.200   2.713  0.6580  0.5937 -0.2189
 4452TIP3    H134991   6.289   2.106   2.733 -1.3516  0.8331  1.4078
 4452TIP3    H234992   6.379   2.228   2.724  0.7949 -0.6076  2.4565
 4453TIP3   OH234993   3.283   6.761   0.568 -0.0068  0.2870  0.3114
 4453TIP3    H134994   3.216   6.748   0.635  0.1059  0.6752  0.5016
 4453TIP3    H234995   3.299   6.674   0.533 -0.9670  0.2627 -0.0784
 4454TIP3   OH234996   1.818   3.513   8.077 -0.2800  0.9175  0.2001
 4454TIP3    H134997   1.743   3.521   8.019  0.6295 -0.0469 -1.1683
 4454TIP3    H234998   1.828   3.419   8.093 -0.1836  1.1232  1.5066
 4455TIP3   OH234999   0.198   1.793   1.008 -0.4490  0.5011 -0.1390
 4455TIP3    H135000   0.212   1.804   0.914 -0.7455 -1.1915 -0.3969
 4455TIP3    H235001   0.273   1.742   1.038 -1.5856 -1.1061  0.0662
 4456TIP3   OH235002   0.514   6.232   2.412 -0.0395 -0.2610 -0.7836
 4456TIP3    H135003   0.512   6.328   2.407  0.3078 -0.2823 -1.6311
 4456TIP3    H235004   0.438   6.209   2.465  0.0717  0.4981 -0.2696
 4457TIP3   OH235005   0.652   3.843   2.070 -0.8019  0.0492 -0.2422
 4457TIP3    H135006   0.632   3.913   2.133  3.6459  0.0505  1.5306
 4457TIP3    H235007   0.699   3.888   2.000 -0.2208 -0.8036 -0.4028
 4458TIP3   OH235008   3.576   3.206   1.749  0.0714  0.3047 -0.2102
 4458TIP3    H135009   3.496   3.182   1.702 -0.1844  0.4229  0.1557
 4458TIP3    H235010   3.560   3.296   1.778 -0.2201 -0.1029  0.9919
 4459TIP3   OH235011   5.186   5.255   1.600 -0.5088 -0.0968 -0.5126
 4459TIP3    H135012   5.111   5.267   1.542 -0.4449  0.1604 -0.5448
 4459TIP3    H235013   5.148   5.251   1.687 -0.6178 -0.6124 -0.5819
 4460TIP3   OH235014   2.751   1.203   8.615 -0.2999 -0.0944  0.5373
 4460TIP3    H135015   2.670   1.156   8.633  0.0750 -0.5951  0.9756
 4460TIP3    H235016   2.813   1.134   8.590 -0.3073  0.3963 -0.9317
 4461TIP3   OH235017   6.589   6.511   8.537  0.1986  0.0208  0.0885
 4461TIP3    H135018   6.649   6.554   8.476  2.4784 -0.9382  1.4858
 4461TIP3    H235019   6.591   6.566   8.615 -0.5211 -0.1794  0.2503
 4462TIP3   OH235020   4.061   3.200   0.640 -0.1058 -0.4152  0.5776
 4462TIP3    H135021   4.062   3.234   0.551  0.0580  1.0161  1.0972
 4462TIP3    H235022   3.968   3.200   0.665 -0.2672 -1.8612  0.0471
 4463TIP3   OH235023   5.584   0.092   1.429 -0.3950 -0.1805  0.4809
 4463TIP3    H135024   5.528   0.093   1.351  0.4019  1.2877 -0.1149
 4463TIP3    H235025   5.631   0.175   1.425  2.4885 -1.6934  0.4810
 4464TIP3   OH235026   5.869   5.402   8.321 -0.0204 -0.0489  0.1754
 4464TIP3    H135027   5.941   5.381   8.380  0.9247  1.5611 -0.3391
 4464TIP3    H235028   5.889   5.490   8.289 -0.6237 -0.7409 -2.3329
 4465TIP3   OH235029   2.574   5.429   0.690  0.4563  0.6431 -0.0470
 4465TIP3    H135030   2.541   5.514   0.719 -3.6897 -0.5217 -0.6802
 4465TIP3    H235031   2.555   5.427   0.596  1.3824 -0.6400 -0.2285
 4466TIP3   OH235032   3.396   2.192   1.138  0.1208  0.1639 -0.5154
 4466TIP3    H135033   3.442   2.263   1.184 -1.3987  0.7392  0.1855
 4466TIP3    H235034   3.305   2.200   1.166 -1.1164  1.0447 -4.2387
 4467TIP3   OH235035   5.841   0.579   8.849  0.4295 -0.0941  0.4649
 4467TIP3    H135036   5.833   0.561   8.943  1.2517  0.4863  0.6540
 4467TIP3    H235037   5.924   0.539   8.824  1.4378  1.8835  0.5211
 4468TIP3   OH235038   0.214   6.206   1.194  0.0792  0.4139 -0.6167
 4468TIP3    H135039   0.192   6.299   1.185 -0.1063  0.5575  1.1114
 4468TIP3    H235040   0.299   6.198   1.151 -0.9700  0.8495 -2.9491
 4469TIP3   OH235041   3.489   3.766   7.570  0.2533 -0.2878  0.0703
 4469TIP3    H135042   3.401   3.751   7.534  0.2218  0.3784 -0.1531
 4469TIP3    H235043   3.480   3.847   7.621  1.1264  0.7983 -1.4117
 4470TIP3   OH235044   1.706   6.229   7.915 -0.0307  0.3178  0.1687
 4470TIP3    H135045   1.791   6.230   7.959  0.0003 -1.1148  0.1786
 4470TIP3    H235046   1.664   6.148   7.943 -0.4066 -0.1879 -1.6644
 4471TIP3   OH235047   4.944   6.426   1.991 -0.1643  0.1047 -1.0100
 4471TIP3    H135048   4.851   6.427   1.970 -0.2399  0.4724 -0.6604
 4471TIP3    H235049   4.961   6.510   2.033  0.3693  0.1219 -1.2467
 4472TIP3   OH235050   4.857   1.916   7.280  0.8503 -0.2436 -0.6113
 4472TIP3    H135051   4.911   1.924   7.358 -0.0363 -2.8584  0.3820
 4472TIP3    H235052   4.784   1.976   7.295  1.9641  1.1750 -0.6589
 4473TIP3   OH235053   2.701   4.027   8.749  0.0945 -0.1425 -0.1843
 4473TIP3    H135054   2.643   3.982   8.811 -1.3367  0.3639 -1.0831
 4473TIP3    H235055   2.715   4.113   8.788  0.0402 -0.1805 -0.0785
 4474TIP3   OH235056   5.685   1.127   1.616 -0.3100  0.1430  0.2638
 4474TIP3    H135057   5.644   1.203   1.657  2.0554  0.2782  2.5961
 4474TIP3    H235058   5.652   1.129   1.526 -2.2636  2.4462  0.9061
 4475TIP3   OH235059   2.088   2.381   2.569 -0.5703 -0.0053  0.5142
 4475TIP3    H135060   2.114   2.451   2.629 -0.3968  0.5840 -0.2359
 4475TIP3    H235061   2.171   2.336   2.549 -0.2865  1.0413 -0.8252
 4476TIP3   OH235062   1.503   0.495   7.281 -0.1580  0.2947  0.2541
 4476TIP3    H135063   1.562   0.567   7.260  0.7611 -0.4906  0.0339
 4476TIP3    H235064   1.524   0.427   7.217 -1.6753  0.1717 -0.1580
 4477TIP3   OH235065   4.938   3.985   7.640  0.3734  0.2178 -0.1604
 4477TIP3    H135066   4.969   3.943   7.560 -0.7197 -1.7215  0.3610
 4477TIP3    H235067   4.855   4.027   7.615 -1.4544 -2.7396  0.4199
 4478TIP3   OH235068   3.853   1.202   1.084  0.4634  0.2103 -0.0184
 4478TIP3    H135069   3.799   1.149   1.026 -1.8069  0.4901  1.7117
 4478TIP3    H235070   3.943   1.178   1.062 -0.4148 -2.1290 -1.3228
 4479TIP3   OH235071   0.262   1.808   0.751  0.2129 -0.4762  0.2161
 4479TIP3    H135072   0.228   1.872   0.689  1.8938 -1.8076 -2.2151
 4479TIP3    H235073   0.353   1.795   0.725  1.0885 -0.9410  3.1474
 4480TIP3   OH235074   3.755   0.313   8.370  0.6299 -0.1100  0.1715
 4480TIP3    H135075   3.774   0.243   8.308 -0.2613  0.4641 -0.7867
 4480TIP3    H235076   3.713   0.269   8.444  0.4054 -0.6422 -0.2668
 4481TIP3   OH235077   5.041   3.778   1.751  0.0986  0.2227 -0.3172
 4481TIP3    H135078   4.997   3.793   1.836  0.7996  0.4306  0.0175
 4481TIP3    H235079   5.118   3.726   1.773 -0.4368 -0.8806 -1.0240
 4482TIP3   OH235080   5.930   1.551   2.749  0.2876 -0.2556  0.1336
 4482TIP3    H135081   5.978   1.590   2.676  1.3759 -1.7414  0.0178
 4482TIP3    H235082   5.838   1.564   2.727  0.6054  0.3349 -0.9243
 4483TIP3   OH235083   4.591   4.649   0.476 -0.1167  0.3549 -0.4482
 4483TIP3    H135084   4.577   4.558   0.451 -1.5944  0.7091 -1.0121
 4483TIP3    H235085   4.659   4.680   0.417  0.0189 -0.2310 -0.6054
 4484TIP3   OH235086   5.150   4.084   1.138 -0.4374  0.0568 -0.0836
 4484TIP3    H135087   5.151   4.179   1.153  0.4042 -0.0994  0.9635
 4484TIP3    H235088   5.130   4.074   1.045  0.5662  1.2926 -0.4490
 4485TIP3   OH235089   0.443   3.231   0.695  0.0432 -0.3569  0.2175
 4485TIP3    H135090   0.477   3.318   0.673  0.2258  0.0190  1.8878
 4485TIP3    H235091   0.464   3.219   0.788 -3.6493 -0.3910  1.2218
 4486TIP3   OH235092   6.064   1.933   7.725 -0.1533 -0.1443 -0.0314
 4486TIP3    H135093   6.112   1.887   7.656  0.9539 -1.9331  1.7961
 4486TIP3    H235094   6.128   1.991   7.765 -1.1192  1.8484 -1.2367
 4487TIP3   OH235095   6.097   5.621   6.381 -0.3965  0.5514  0.4098
 4487TIP3    H135096   6.147   5.701   6.361  0.0888  0.3567  0.8325
 4487TIP3    H235097   6.016   5.653   6.421  0.1768  0.8041  1.3871
 4488TIP3   OH235098   2.374   3.636   2.566 -0.2450  0.0845  0.2359
 4488TIP3    H135099   2.365   3.544   2.590  0.5776 -0.1424 -0.2874
 4488TIP3    H235100   2.444   3.669   2.621  0.2872  0.0742 -0.4148
 4489TIP3   OH235101   4.321   0.681   1.250 -0.1077  0.2255  0.2766
 4489TIP3    H135102   4.320   0.617   1.179 -0.4030 -0.7755  1.1539
 4489TIP3    H235103   4.241   0.664   1.299 -0.4012  1.5676  0.2853
 4490TIP3   OH235104   4.810   2.175   0.139  0.1344 -0.1116  0.3315
 4490TIP3    H135105   4.886   2.125   0.108  0.9716  1.6048 -0.4794
 4490TIP3    H235106   4.736   2.135   0.093  0.6125 -1.3257  0.5639
 4491TIP3   OH235107   0.273   4.119   7.770 -0.7226  0.1308 -0.3070
 4491TIP3    H135108   0.211   4.078   7.830  0.2467  0.6889  1.1246
 4491TIP3    H235109   0.257   4.076   7.686 -1.7888 -1.0172  0.4543
 4492TIP3   OH235110   3.381   5.517   7.338  0.0928  0.0666  0.6823
 4492TIP3    H135111   3.466   5.557   7.320  0.0156  0.5118  1.2782
 4492TIP3    H235112   3.334   5.582   7.390 -1.2419  0.5102 -0.9846
 4493TIP3   OH235113   0.714   1.472   2.928 -0.3714 -0.4567  0.3840
 4493TIP3    H135114   0.734   1.552   2.878 -0.8007 -0.7977 -0.3405
 4493TIP3    H235115   0.798   1.426   2.932  0.0104  0.2717  1.2747
 4494TIP3   OH235116   5.093   1.538   8.610 -0.2147 -0.3164  0.9488
 4494TIP3    H135117   5.185   1.532   8.586 -0.1080 -0.7926  1.4734
 4494TIP3    H235118   5.087   1.616   8.665 -0.6202  1.3407 -1.3010
 4495TIP3   OH235119   5.659   2.207   3.059 -0.3397  0.1547  0.7241
 4495TIP3    H135120   5.576   2.249   3.085  0.6150  1.5158  1.7065
 4495TIP3    H235121   5.727   2.261   3.100  1.0659 -0.6725 -0.4414
 4496TIP3   OH235122   4.582   4.620   8.221 -0.2203 -0.2135  0.3553
 4496TIP3    H135123   4.659   4.635   8.166 -0.2536  1.9987  0.8097
 4496TIP3    H235124   4.574   4.524   8.226  1.3520 -0.4802 -1.2539
 4497TIP3   OH235125   6.190   0.245   0.836 -0.6576 -0.4161  0.1085
 4497TIP3    H135126   6.134   0.318   0.810 -0.9541 -0.5256  0.4324
 4497TIP3    H235127   6.268   0.254   0.782 -1.0524 -0.3490 -0.4600
 4498TIP3   OH235128   2.754   6.201   8.675 -0.0621  0.2124 -0.3468
 4498TIP3    H135129   2.804   6.271   8.716 -1.7082 -0.4401  3.1640
 4498TIP3    H235130   2.789   6.121   8.713 -1.8697 -0.4292  0.0854
 4499TIP3   OH235131   1.723   0.370   1.040 -0.1344 -0.2988 -0.3950
 4499TIP3    H135132   1.687   0.382   1.127  0.6166 -0.5743 -0.0331
 4499TIP3    H235133   1.684   0.289   1.008 -1.2028  0.3331 -0.7431
 4500TIP3   OH235134   1.528   2.195   7.154 -0.0229 -0.0023 -0.0202
 4500TIP3    H135135   1.502   2.275   7.199  0.2556 -0.0191  0.1708
 4500TIP3    H235136   1.601   2.221   7.099  1.5297 -0.5512  1.6683
 4501TIP3   OH235137   3.474   2.453   2.710  0.7028 -0.1416 -0.0274
 4501TIP3    H135138   3.517   2.392   2.770  2.2431 -0.1378 -1.0822
 4501TIP3    H235139   3.412   2.500   2.766  0.5195 -1.6315  1.1062
 4502TIP3   OH235140   2.495   3.261   0.785 -0.1161 -0.0918  0.0630
 4502TIP3    H135141   2.453   3.283   0.868 -0.6589  0.0290 -0.2390
 4502TIP3    H235142   2.497   3.166   0.783  1.1583 -0.1016  0.8374
 4503TIP3   OH235143   0.798   4.283   0.834  0.3268 -0.5628  0.2224
 4503TIP3    H135144   0.811   4.368   0.876  1.6200 -0.4951 -0.2566
 4503TIP3    H235145   0.886   4.244   0.831 -0.2969 -2.1177  0.8358
 4504TIP3   OH235146   5.408   5.825   1.871 -0.2625 -0.1601 -0.4865
 4504TIP3    H135147   5.399   5.887   1.944 -0.8214  0.2394 -0.8821
 4504TIP3    H235148   5.321   5.822   1.832 -0.1052 -0.8050 -0.7964
 4505TIP3   OH235149   4.474   2.391   7.775 -0.0446 -0.5679  0.2577
 4505TIP3    H135150   4.431   2.383   7.860  1.0344 -0.5953  0.8185
 4505TIP3    H235151   4.402   2.404   7.713 -0.7825  1.2069  1.3864
 4506TIP3   OH235152   1.997   6.614   0.532  0.0856 -0.1816 -0.3076
 4506TIP3    H135153   1.923   6.554   0.530 -1.2769  1.2423  2.1922
 4506TIP3    H235154   2.001   6.651   0.443 -1.2129 -1.4044 -0.9090
 4507TIP3   OH235155   5.779   3.735   1.461  0.5729 -0.5635 -0.3710
 4507TIP3    H135156   5.797   3.709   1.370  0.7807 -1.1396 -0.1685
 4507TIP3    H235157   5.692   3.775   1.457  1.1241  0.6241 -1.0488
 4508TIP3   OH235158   3.630   6.027   7.829 -0.4939  0.2998  0.9908
 4508TIP3    H135159   3.638   5.993   7.740 -0.4656  1.4728  0.5250
 4508TIP3    H235160   3.581   5.960   7.876 -1.6430  0.2439 -0.2382
 4509TIP3   OH235161   3.109   1.410   8.455 -0.3334  0.8547  0.5760
 4509TIP3    H135162   3.172   1.374   8.518 -0.9541  0.1718  0.8258
 4509TIP3    H235163   3.059   1.334   8.426  0.0062  1.1427 -0.8276
 4510TIP3   OH235164   3.450   5.569   8.524 -0.5806 -0.3042  0.3161
 4510TIP3    H135165   3.380   5.634   8.529 -0.5673 -0.3280  0.8261
 4510TIP3    H235166   3.524   5.616   8.486 -1.0408 -0.4236 -0.7696
 4511TIP3   OH235167   0.844   1.659   8.350  0.2321  0.6347 -0.5180
 4511TIP3    H135168   0.919   1.669   8.292  0.0063 -0.5645 -1.0393
 4511TIP3    H235169   0.774   1.710   8.308 -0.0088 -0.4331 -1.4813
 4512TIP3   OH235170   2.947   6.081   7.116  0.4195  0.0012 -0.1069
 4512TIP3    H135171   2.961   5.987   7.108  2.9507  0.3786 -1.4157
 4512TIP3    H235172   2.897   6.105   7.038  1.7745 -0.0046 -1.0181
 4513TIP3   OH235173   4.120   3.483   3.007 -0.3181  0.1885 -0.7378
 4513TIP3    H135174   4.063   3.560   3.016 -0.2687  0.0356  1.2912
 4513TIP3    H235175   4.087   3.438   2.930 -3.0802  0.0250  0.4468
 4514TIP3   OH235176   2.820   2.528   1.559 -0.0607  0.1443  0.4101
 4514TIP3    H135177   2.905   2.526   1.515  1.3611 -1.3377  2.9545
 4514TIP3    H235178   2.833   2.588   1.632 -1.1275 -0.2557  0.9508
 4515TIP3   OH235179   3.843   0.095   2.524  0.0024  0.2748 -0.0833
 4515TIP3    H135180   3.749   0.099   2.509 -0.2263  1.9149  1.4122
 4515TIP3    H235181   3.854   0.033   2.596  0.0712  0.0201 -0.3134
 4516TIP3   OH235182   5.948   6.494   8.004  0.8411 -0.2869 -0.4013
 4516TIP3    H135183   5.998   6.560   8.052  2.3287 -1.1126 -0.7288
 4516TIP3    H235184   5.928   6.534   7.920 -1.7064  1.1391  0.7681
 4517TIP3   OH235185   1.023   0.170   7.332  0.4522 -0.2859 -0.3550
 4517TIP3    H135186   0.975   0.159   7.250 -0.0512 -0.9024  0.0061
 4517TIP3    H235187   0.956   0.196   7.395  0.8422  0.2170 -0.1450
 4518TIP3   OH235188   3.940   6.146   0.551 -0.1162  0.0935 -0.1170
 4518TIP3    H135189   4.016   6.175   0.601  0.0178  1.8526 -1.2820
 4518TIP3    H235190   3.902   6.075   0.604 -0.4127  2.3006  2.8475
 4519TIP3   OH235191   5.532   3.646   0.153 -0.2598  0.2779  0.1437
 4519TIP3    H135192   5.486   3.587   0.213 -1.1092 -1.6745 -2.2799
 4519TIP3    H235193   5.507   3.734   0.183  2.1280 -0.2732  4.7513
 4520TIP3   OH235194   0.168   4.799   0.007 -0.3762  0.5465 -0.1895
 4520TIP3    H135195   0.226   4.830  -0.063  1.9812 -1.1575  0.8724
 4520TIP3    H235196   0.163   4.872   0.068 -0.7800  1.3068 -1.0928
 4521TIP3   OH235197   2.895   5.951   8.840 -0.2188  0.5973  0.3500
 4521TIP3    H135198   2.980   5.989   8.863 -0.4593  0.8480  0.8307
 4521TIP3    H235199   2.917   5.879   8.780  0.5520 -1.0645  2.4953
 4522TIP3   OH235200   1.943   1.856   8.360  0.4863  0.4601 -0.1361
 4522TIP3    H135201   1.956   1.839   8.454 -0.7652 -1.8815 -0.3034
 4522TIP3    H235202   1.863   1.908   8.356 -0.1315 -0.4395  0.0896
 4523TIP3   OH235203   0.735   5.490   0.548  0.0540  0.4646  0.2888
 4523TIP3    H135204   0.725   5.416   0.487  0.2435 -0.1495  0.9924
 4523TIP3    H235205   0.648   5.499   0.588  0.1250  0.4122  0.4513
 4524TIP3   OH235206   0.685   1.782   7.882  0.2057 -0.0673  0.1297
 4524TIP3    H135207   0.602   1.794   7.835 -0.0005  1.5129  0.8706
 4524TIP3    H235208   0.714   1.694   7.856 -0.2935  0.4294 -2.3247
 4525TIP3   OH235209   3.895   3.934   2.156  0.2150 -0.0062 -0.7808
 4525TIP3    H135210   3.915   4.024   2.185 -0.1872  0.8488 -2.9958
 4525TIP3    H235211   3.812   3.914   2.200 -0.1774  1.0747 -0.9835
 4526TIP3   OH235212   6.505   0.159   0.712  0.2826  0.0999  0.1261
 4526TIP3    H135213   6.469   0.212   0.641 -1.1026 -1.2943 -0.2767
 4526TIP3    H235214   6.511   0.071   0.674  0.9231 -0.3705  1.2876
 4527TIP3   OH235215   0.026   3.249   7.709  0.2841  0.2978 -0.2383
 4527TIP3    H135216   0.092   3.181   7.698  2.0639  2.0966 -1.3706
 4527TIP3    H235217   0.011   3.283   7.621  0.1463  1.9653  0.3874
 4528TIP3   OH235218   0.603   6.448   8.826 -0.5093 -0.2173 -0.0015
 4528TIP3    H135219   0.651   6.367   8.812  0.0768 -0.1219  1.2599
 4528TIP3    H235220   0.536   6.449   8.758  1.0203 -0.5343 -1.6010
 4529TIP3   OH235221   6.476   0.747   1.557 -0.0891  0.0180  0.5245
 4529TIP3    H135222   6.387   0.780   1.574 -0.9998 -1.4924 -1.0132
 4529TIP3    H235223   6.503   0.709   1.641 -1.7734 -1.3559  0.5073
 4530TIP3   OH235224   3.568   3.101   7.660 -0.1081  0.5145 -0.0149
 4530TIP3    H135225   3.652   3.107   7.706 -0.0815  1.0532 -0.1282
 4530TIP3    H235226   3.502   3.105   7.729 -0.0550 -3.1473  0.4470
 4531TIP3   OH235227   3.430   5.821   8.385 -0.1451 -0.9996 -0.0268
 4531TIP3    H135228   3.354   5.766   8.403 -1.2304 -0.1172 -1.7349
 4531TIP3    H235229   3.468   5.785   8.305 -0.0289 -0.1542 -0.3633
 4532TIP3   OH235230   0.698   0.249   8.489 -0.2238  0.2559  0.2252
 4532TIP3    H135231   0.687   0.320   8.552 -0.4496  1.0008 -0.6302
 4532TIP3    H235232   0.788   0.258   8.458  0.0416 -0.4027  0.7685
 4533TIP3   OH235233   1.754   0.566   1.501  0.1130 -0.8523 -0.0772
 4533TIP3    H135234   1.673   0.547   1.453  1.1647 -0.6299 -2.0661
 4533TIP3    H235235   1.814   0.495   1.477  0.4367 -1.2082  1.6471
 4534TIP3   OH235236   1.357   3.542   2.641 -0.1960  0.0492  0.0648
 4534TIP3    H135237   1.265   3.549   2.668  0.0353  0.8225  0.7030
 4534TIP3    H235238   1.382   3.453   2.664 -0.9752 -0.4041 -0.7563
 4535TIP3   OH235239   4.008   5.190   8.737  0.5708 -0.8157  0.2220
 4535TIP3    H135240   4.103   5.192   8.745  0.4117  0.1220  3.1508
 4535TIP3    H235241   3.987   5.260   8.675  1.7889 -1.9453 -1.5595
 4536TIP3   OH235242   2.966   6.573   0.832 -0.2307  0.1564 -0.0551
 4536TIP3    H135243   2.975   6.650   0.775 -1.0276  1.2126  1.1958
 4536TIP3    H235244   3.028   6.510   0.796  0.8695  1.5853 -0.7714
 4537TIP3   OH235245   6.309   2.372   1.325  0.7007  0.0877 -0.4238
 4537TIP3    H135246   6.256   2.435   1.276  0.6056  1.6373  1.5076
 4537TIP3    H235247   6.314   2.295   1.269  0.7763  1.7839 -2.8737
 4538TIP3   OH235248   3.552   1.508   8.731 -0.0004  0.5667  0.6901
 4538TIP3    H135249   3.568   1.602   8.724  1.3125  0.2444 -1.6857
 4538TIP3    H235250   3.630   1.474   8.775  0.8714  0.3082 -0.9760
 4539TIP3   OH235251   6.393   5.515   8.370  0.4201  0.1311 -0.3391
 4539TIP3    H135252   6.375   5.592   8.316 -0.8910  0.3809  0.4019
 4539TIP3    H235253   6.387   5.441   8.309  0.1050  0.4968 -0.7566
 4540TIP3   OH235254   4.997   0.168   0.864 -0.0947 -0.2881 -0.2624
 4540TIP3    H135255   4.930   0.236   0.853  1.7008  1.7114  0.5558
 4540TIP3    H235256   4.964   0.114   0.936 -0.9937  0.4458 -0.0939
 4541TIP3   OH235257   0.580   0.256   2.467  0.1872 -0.1923 -0.7573
 4541TIP3    H135258   0.496   0.244   2.512  0.5583 -0.4192 -0.1057
 4541TIP3    H235259   0.645   0.224   2.529  0.8114  0.6060 -0.9777
 4542TIP3   OH235260   0.884   0.979   0.053 -0.4123  0.0754  0.5778
 4542TIP3    H135261   0.834   1.054   0.021  0.2148  0.2285 -0.0621
 4542TIP3    H235262   0.875   0.913  -0.015 -0.3136 -0.1456  0.7785
 4543TIP3   OH235263   4.027   2.046   2.132  0.1400 -0.0028 -0.1803
 4543TIP3    H135264   4.090   2.018   2.197 -0.2582 -0.1456  0.1525
 4543TIP3    H235265   4.032   2.142   2.132  1.0473 -0.0419 -0.8605
 4544TIP3   OH235266   6.248   0.511   8.627 -0.2708  0.7728  0.8583
 4544TIP3    H135267   6.303   0.434   8.641 -1.8898 -0.9052 -1.3574
 4544TIP3    H235268   6.171   0.496   8.682 -0.8821  0.4336 -0.0605
 4545TIP3   OH235269   2.457   2.237   1.256  0.0017 -0.6079  0.0272
 4545TIP3    H135270   2.407   2.164   1.221  0.3516 -0.2714 -1.2434
 4545TIP3    H235271   2.549   2.215   1.237  0.2572 -0.6237  1.1728
 4546TIP3   OH235272   5.638   6.580   8.865  0.2032  0.0951 -0.3138
 4546TIP3    H135273   5.721   6.620   8.889 -0.1761  0.7915 -0.1192
 4546TIP3    H235274   5.624   6.605   8.773  1.2174 -1.8074 -1.0286
 4547TIP3   OH235275   1.344   0.884   0.766  0.2322  0.3721 -0.1406
 4547TIP3    H135276   1.301   0.840   0.693 -0.9434  2.0720 -0.5179
 4547TIP3    H235277   1.438   0.878   0.746 -0.0320  0.0403 -1.3149
 4548TIP3   OH235278   6.791   2.753   0.538 -0.2026  0.4717  0.0819
 4548TIP3    H135279   6.797   2.740   0.443 -0.9695  1.7278 -0.1599
 4548TIP3    H235280   6.780   2.847   0.548  0.2172  0.3871  1.4519
 4549TIP3   OH235281   0.032   1.697   0.481 -0.2649  0.2834 -0.0875
 4549TIP3    H135282  -0.012   1.644   0.548  0.6972 -1.7069 -0.9576
 4549TIP3    H235283   0.125   1.692   0.504  0.0571 -0.2677 -1.4185
 4550TIP3   OH235284   0.337   3.135   1.732 -0.3970  0.3238  0.2965
 4550TIP3    H135285   0.258   3.127   1.680 -0.4969 -1.8155  0.6874
 4550TIP3    H235286   0.403   3.085   1.684  0.8066  2.1503 -0.0756
 4551TIP3   OH235287   3.173   3.085   1.860 -0.1021  0.3481 -0.3215
 4551TIP3    H135288   3.249   3.060   1.807 -0.2302 -1.0107  0.0901
 4551TIP3    H235289   3.209   3.106   1.946 -0.0889  0.7384 -0.4207
 4552TIP3   OH235290   6.041   3.220   6.883  0.4104 -0.6615  0.1117
 4552TIP3    H135291   6.093   3.275   6.825  0.0786 -0.9096 -0.4289
 4552TIP3    H235292   6.105   3.165   6.928  0.6332 -0.8204 -0.3949
 4553TIP3   OH235293   4.648   3.680   6.867 -0.3588  0.6026 -0.1712
 4553TIP3    H135294   4.573   3.630   6.835 -2.4992  2.4331  1.5928
 4553TIP3    H235295   4.720   3.618   6.867 -2.3592 -1.8741 -0.0670
 4554TIP3   OH235296   6.305   0.404   2.284 -0.7220  0.1180  0.1728
 4554TIP3    H135297   6.344   0.321   2.311  0.4400  0.4749 -0.3282
 4554TIP3    H235298   6.294   0.453   2.366 -0.8170 -0.2802  0.4010
 4555TIP3   OH235299   3.836   3.088   0.292 -0.5831  0.0720 -0.0978
 4555TIP3    H135300   3.782   3.164   0.272 -0.5526  0.5391  1.5010
 4555TIP3    H235301   3.901   3.085   0.221 -0.0571  2.0310  0.2500
 4556TIP3   OH235302   2.197   4.191   8.329  0.4786 -0.6972  0.0501
 4556TIP3    H135303   2.222   4.126   8.394 -0.4415 -1.5697 -0.4329
 4556TIP3    H235304   2.279   4.223   8.293  0.9529 -1.3409  0.5397
 4557TIP3   OH235305   1.271   1.705   1.795  0.1315 -0.0487 -0.2492
 4557TIP3    H135306   1.261   1.638   1.728  0.4483  0.3777 -0.7292
 4557TIP3    H235307   1.216   1.675   1.867  1.3854 -1.5800  0.1294
 4558TIP3   OH235308   2.887   1.397   0.634 -0.1292  0.0887  0.3950
 4558TIP3    H135309   2.951   1.379   0.703  1.0618  0.6387 -0.5148
 4558TIP3    H235310   2.910   1.485   0.603 -1.5306  0.4270  0.2342
 4559TIP3   OH235311   0.546   1.171   1.309  0.2247 -0.3752  0.2914
 4559TIP3    H135312   0.494   1.165   1.229  0.6895  0.8447 -0.1365
 4559TIP3    H235313   0.482   1.181   1.379 -0.2004 -1.8251  0.1328
 4560TIP3   OH235314   6.007   0.331   1.869  0.0554  0.0321  0.0339
 4560TIP3    H135315   5.976   0.329   1.778  0.4611  0.4645 -0.1158
 4560TIP3    H235316   5.954   0.400   1.910 -0.3833 -0.4124  0.2231
 4561TIP3   OH235317   1.957   4.507   2.052  0.1031  0.0532  0.2676
 4561TIP3    H135318   1.983   4.594   2.081 -1.4504  0.9948 -1.0339
 4561TIP3    H235319   2.001   4.496   1.967 -1.9782  0.8102 -0.9611
 4562TIP3   OH235320   1.880   2.680   0.096  0.0856 -0.4856 -0.3365
 4562TIP3    H135321   1.970   2.711   0.106  0.1442 -0.8274  0.2176
 4562TIP3    H235322   1.829   2.732   0.158  0.1660 -1.3790  0.5194
 4563TIP3   OH235323   5.701   5.911   7.892  0.0699 -0.2659  0.3092
 4563TIP3    H135324   5.659   5.997   7.903 -0.8317 -0.4278 -1.5436
 4563TIP3    H235325   5.789   5.931   7.862 -0.2438  0.0225 -0.4356
 4564TIP3   OH235326   6.399   3.937   0.840  0.1940 -0.6404  0.3730
 4564TIP3    H135327   6.390   3.940   0.744  2.1802 -1.3839  0.1140
 4564TIP3    H235328   6.488   3.904   0.854 -0.1505 -0.7628  2.4905
 4565TIP3   OH235329   4.507   1.410   7.514  0.6824  0.0724  0.2590
 4565TIP3    H135330   4.415   1.436   7.503  1.2246  2.1429  0.2499
 4565TIP3    H235331   4.547   1.425   7.428  1.3886  0.8839  0.7108
 4566TIP3   OH235332   4.724   0.300   7.803 -0.1917 -0.6966 -0.3255
 4566TIP3    H135333   4.704   0.237   7.872 -1.5241  1.7591  1.7239
 4566TIP3    H235334   4.737   0.383   7.849 -0.3091  0.9274 -2.9784
 4567TIP3   OH235335   3.619   6.016   0.169 -0.0947 -0.1272 -0.1607
 4567TIP3    H135336   3.690   6.060   0.216 -1.6837  0.9816  1.3496
 4567TIP3    H235337   3.653   5.928   0.151  1.3216  0.0688  1.2969
 4568TIP3   OH235338   0.959   3.162   0.743  0.0015  0.4795 -0.0952
 4568TIP3    H135339   0.971   3.073   0.776 -2.8798 -0.0245 -0.1404
 4568TIP3    H235340   0.899   3.203   0.805  2.7714  3.1629  1.0538
 4569TIP3   OH235341   1.586   2.240   1.740 -0.0150 -0.0438 -0.0145
 4569TIP3    H135342   1.595   2.147   1.763  1.0720 -0.6088 -2.3894
 4569TIP3    H235343   1.677   2.272   1.737 -0.3883  1.1576  0.9078
 4570TIP3   OH235344   4.961   2.285   1.041  0.4086 -0.7143  0.6454
 4570TIP3    H135345   4.921   2.363   1.081 -2.9846 -2.5366  1.1502
 4570TIP3    H235346   4.950   2.299   0.947 -1.2370 -1.0401  0.7702
 4571TIP3   OH235347   6.179   0.857   7.399  0.3383  0.9805  0.4162
 4571TIP3    H135348   6.175   0.846   7.494 -1.1782  0.3753  0.3189
 4571TIP3    H235349   6.138   0.778   7.364 -2.2154  2.6206 -0.6179
 4572TIP3   OH235350   4.252   0.475   1.756 -0.2548 -0.5048  0.1780
 4572TIP3    H135351   4.217   0.478   1.667 -0.3932  0.5622  0.2535
 4572TIP3    H235352   4.194   0.415   1.803  0.4187 -1.8821 -0.6872
 4573TIP3   OH235353   0.208   3.486   0.843  0.4143 -0.9320  0.1381
 4573TIP3    H135354   0.281   3.426   0.859  0.3510 -0.8257  0.8673
 4573TIP3    H235355   0.203   3.538   0.923 -0.6924 -1.1890  0.2449
 4574TIP3   OH235356   2.240   4.036   7.660  0.2459  0.0832 -0.1091
 4574TIP3    H135357   2.229   4.067   7.570  0.6955 -1.2199 -0.6299
 4574TIP3    H235358   2.278   3.949   7.651 -2.1233 -1.1942  1.2509
 4575TIP3   OH235359   4.670   3.568   8.906  0.3385  0.6727 -0.0239
 4575TIP3    H135360   4.662   3.632   8.977 -1.6233 -1.2490  1.6746
 4575TIP3    H235361   4.613   3.602   8.837 -0.5266  0.9008  0.7738
 4576TIP3   OH235362   5.045   4.753   1.296 -0.1366  0.1175  0.0319
 4576TIP3    H135363   5.030   4.835   1.249 -0.3133  0.0120 -0.0970
 4576TIP3    H235364   4.958   4.726   1.325 -0.4064 -1.1799 -1.8532
 4577TIP3   OH235365   4.992   2.325   2.179  0.1273 -0.8545  0.2496
 4577TIP3    H135366   4.921   2.339   2.242  0.0042  0.3953 -0.1246
 4577TIP3    H235367   4.962   2.253   2.124 -0.0919 -1.4591  1.1438
 4578TIP3   OH235368   0.698   5.154   6.992 -0.1140  0.8123  0.4047
 4578TIP3    H135369   0.642   5.080   6.967  1.6315 -0.7850  0.9089
 4578TIP3    H235370   0.764   5.159   6.923 -1.1489  3.0654 -0.5083
 4579TIP3   OH235371   5.535   4.153   0.214  0.2192 -0.0880 -0.3760
 4579TIP3    H135372   5.621   4.195   0.215 -0.0508  0.4740  0.0654
 4579TIP3    H235373   5.507   4.154   0.306 -0.7711  0.8419 -0.6617
 4580TIP3   OH235374   2.506   3.859   6.367 -0.1919 -0.5657 -0.4228
 4580TIP3    H135375   2.435   3.819   6.417  0.7640  0.2031  1.6904
 4580TIP3    H235376   2.478   3.950   6.356 -0.2965 -0.6788 -1.1373
 4581TIP3   OH235377   0.216   5.796   8.143 -0.3702 -0.3675 -0.5337
 4581TIP3    H135378   0.253   5.716   8.179  0.6800  1.0565  1.7313
 4581TIP3    H235379   0.278   5.864   8.166 -0.4250  0.9632 -3.7800
 4582TIP3   OH235380   3.539   6.474   8.528  0.2558 -0.1528  0.0453
 4582TIP3    H135381   3.627   6.472   8.491  0.7568  2.5900  0.8395
 4582TIP3    H235382   3.541   6.409   8.597  2.0033  0.4509  0.6259
 4583TIP3   OH235383   5.144   4.606   2.476  0.1680  0.1154 -0.0211
 4583TIP3    H135384   5.130   4.636   2.386  0.5630  0.9168  0.1769
 4583TIP3    H235385   5.090   4.664   2.529  1.1655  0.6811  0.3947
 4584TIP3   OH235386   4.009   2.778   8.138  0.0816 -0.2076  0.5625
 4584TIP3    H135387   4.019   2.684   8.131  0.1918 -0.1754  0.2911
 4584TIP3    H235388   4.095   2.814   8.114 -0.0243 -0.0298  0.4416
 4585TIP3   OH235389   0.595   0.178   1.196  0.1552 -0.5919 -0.1395
 4585TIP3    H135390   0.513   0.176   1.145 -1.1298  0.8502  1.7443
 4585TIP3    H235391   0.623   0.269   1.193  0.3113 -0.5761  1.3055
 4586TIP3   OH235392   3.268   5.526   1.741  0.2302 -0.6219  0.7728
 4586TIP3    H135393   3.176   5.500   1.742 -0.2722  1.0240  0.2972
 4586TIP3    H235394   3.317   5.444   1.737 -1.2905 -1.5387 -2.9910
 4587TIP3   OH235395   4.541   5.846   8.850 -0.3330 -0.1809 -0.8316
 4587TIP3    H135396   4.509   5.803   8.929 -1.5788 -0.2396 -1.3525
 4587TIP3    H235397   4.624   5.802   8.831  1.6779  1.8903  2.1659
 4588TIP3   OH235398   2.697   5.493   2.615  0.9316  0.0117 -0.3207
 4588TIP3    H135399   2.697   5.410   2.664  1.0728 -0.1071 -0.5188
 4588TIP3    H235400   2.789   5.508   2.595  1.0991  1.0457  1.1057
 4589TIP3   OH235401   4.524   4.702   2.844  0.0394 -0.0794  0.0433
 4589TIP3    H135402   4.606   4.711   2.892  0.5980 -0.0519 -0.8939
 4589TIP3    H235403   4.533   4.621   2.794 -0.4539 -0.0165 -0.1583
 4590TIP3   OH235404   5.271   4.706   6.399  0.2201 -0.0821 -0.5303
 4590TIP3    H135405   5.295   4.636   6.460 -1.6780 -3.8460 -3.6393
 4590TIP3    H235406   5.323   4.689   6.321 -0.4363  1.9089 -1.4769
 4591TIP3   OH235407   2.655   1.404   8.021 -0.2868 -0.6020 -0.3904
 4591TIP3    H135408   2.660   1.355   8.102  0.1619  0.7595  0.4312
 4591TIP3    H235409   2.737   1.452   8.015  0.2326 -1.6111 -2.2957
 4592TIP3   OH235410   1.581   0.884   0.617  0.3349 -0.0376  0.1031
 4592TIP3    H135411   1.650   0.921   0.672  2.2668 -2.4426 -0.5007
 4592TIP3    H235412   1.620   0.805   0.580 -2.0905 -0.4196 -1.9321
 4593TIP3   OH235413   0.918   5.895   1.239 -0.5052 -0.3484 -0.3997
 4593TIP3    H135414   1.001   5.853   1.214 -0.5084 -2.1522  2.1849
 4593TIP3    H235415   0.945   5.963   1.301 -0.9433 -1.2194  0.7720
 4594TIP3   OH235416   5.767   2.938   2.270 -0.0557 -0.7958 -0.2505
 4594TIP3    H135417   5.806   3.025   2.278 -0.9222 -0.1706 -2.2713
 4594TIP3    H235418   5.725   2.922   2.355 -0.6287  1.1592 -0.1244
 4595TIP3   OH235419   6.709   1.495   0.641  0.6916  0.2447  0.1868
 4595TIP3    H135420   6.720   1.417   0.587  0.2048 -0.2868  0.8473
 4595TIP3    H235421   6.625   1.483   0.684  1.2272  0.5014  1.3202
 4596TIP3   OH235422   1.721   0.701   2.355 -0.3982  0.4031  0.0066
 4596TIP3    H135423   1.794   0.649   2.321 -0.6474 -1.2247  1.7571
 4596TIP3    H235424   1.707   0.668   2.444 -1.3596  2.7234  0.8098
 4597TIP3   OH235425   6.245   1.979   0.965 -0.0893 -0.3907  0.2923
 4597TIP3    H135426   6.218   1.889   0.987 -1.1650 -0.3400 -0.7250
 4597TIP3    H235427   6.340   1.973   0.954 -0.1044 -1.3431  0.5392
 4598TIP3   OH235428   4.972   4.990   0.839 -0.3826  0.3051 -0.1765
 4598TIP3    H135429   5.067   4.986   0.833 -0.4192 -1.1251  0.0091
 4598TIP3    H235430   4.940   4.935   0.768 -1.0628  0.1609  0.2254
 4599TIP3   OH235431   4.324   0.242   2.042 -0.3569  0.7556 -0.2653
 4599TIP3    H135432   4.412   0.275   2.061 -0.1365  0.9257 -1.4909
 4599TIP3    H235433   4.313   0.167   2.102  0.4126  1.0487  0.2574
 4600TIP3   OH235434   3.990   6.451   0.440 -0.8070  0.0038 -0.0148
 4600TIP3    H135435   3.984   6.356   0.450  1.8746 -0.4278 -1.5234
 4600TIP3    H235436   3.908   6.484   0.475 -2.6451 -3.0057 -1.1115
 4601TIP3   OH235437   3.954   0.806   7.594 -0.5285  0.4452  0.4851
 4601TIP3    H135438   4.016   0.871   7.628  0.2415  0.3013 -0.6096
 4601TIP3    H235439   3.986   0.722   7.628 -1.0398  0.5233  1.1991
 4602TIP3   OH235440   0.433   1.519   0.851 -0.0463 -0.1824  0.0135
 4602TIP3    H135441   0.425   1.585   0.920 -1.1869 -0.7379  0.4373
 4602TIP3    H235442   0.492   1.453   0.888  1.7213  0.9093 -0.7008
 4603TIP3   OH235443   2.030   5.724   0.341 -0.3817  0.3467 -0.3968
 4603TIP3    H135444   2.107   5.702   0.394  0.9754 -0.2990 -2.5137
 4603TIP3    H235445   1.960   5.737   0.405  0.3844 -3.3878  1.4577
 4604TIP3   OH235446   3.832   4.094   1.324  0.2904  0.6016  0.1797
 4604TIP3    H135447   3.739   4.074   1.337 -0.0037  2.8754  2.5071
 4604TIP3    H235448   3.878   4.020   1.364 -0.4500 -0.7648 -1.3831
 4605TIP3   OH235449   6.015   5.793   1.297  0.0558  0.1220 -0.1147
 4605TIP3    H135450   5.971   5.722   1.250 -1.3292 -0.3394  1.7637
 4605TIP3    H235451   6.093   5.752   1.335 -1.0029 -0.5967  1.3859
 4606TIP3   OH235452   0.277   4.680   8.261 -0.0826  0.3773 -0.3889
 4606TIP3    H135453   0.292   4.774   8.268  3.1413 -0.1443  1.1825
 4606TIP3    H235454   0.295   4.660   8.169 -0.2751  1.1767 -0.6141
 4607TIP3   OH235455   5.070   4.933   6.989  0.4522  0.4303 -0.0753
 4607TIP3    H135456   4.999   4.997   6.994 -0.0878 -0.2340  1.3814
 4607TIP3    H235457   5.046   4.875   6.917 -0.1380  0.6045 -0.0190
 4608TIP3   OH235458   0.169   6.451   0.102  0.5913 -0.0610  0.5164
 4608TIP3    H135459   0.178   6.437   0.197 -0.6824 -0.0840  0.6466
 4608TIP3    H235460   0.122   6.374   0.071  1.3300 -0.2303 -0.2128
 4609TIP3   OH235461   3.670   1.447   7.086  0.0114  0.1450 -0.0893
 4609TIP3    H135462   3.656   1.353   7.092  1.7057 -0.3473 -2.4980
 4609TIP3    H235463   3.751   1.463   7.135 -0.0231  0.2732 -0.0731
 4610TIP3   OH235464   4.577   3.564   1.716  0.3485 -0.1764 -0.0904
 4610TIP3    H135465   4.559   3.656   1.693  1.1275  0.0626  0.2323
 4610TIP3    H235466   4.510   3.542   1.780 -0.4578 -0.1526 -0.8938
 4611TIP3   OH235467   3.784   1.683   8.488  0.7145 -0.0427 -0.9394
 4611TIP3    H135468   3.715   1.711   8.428  1.4287 -1.2853 -2.4159
 4611TIP3    H235469   3.825   1.608   8.444  0.4214 -1.8898  1.7219
 4612TIP3   OH235470   2.683   0.574   7.059  0.6873 -0.5224 -0.4416
 4612TIP3    H135471   2.686   0.661   7.019 -0.7136 -0.7764 -1.1585
 4612TIP3    H235472   2.715   0.515   6.992 -1.0784 -0.8745 -1.0260
 4613TIP3   OH235473   3.104   0.967   8.092 -0.3455 -0.0881  0.0788
 4613TIP3    H135474   3.182   1.007   8.130  0.6224  0.1312 -1.9671
 4613TIP3    H235475   3.061   1.039   8.046 -1.6405 -0.2654  0.9701
 4614TIP3   OH235476   1.074   2.661   8.266 -0.0947  0.3851  0.0611
 4614TIP3    H135477   1.015   2.720   8.218 -0.5230 -0.2247 -0.1712
 4614TIP3    H235478   1.016   2.598   8.308  0.2668  0.9443  1.4690
 4615TIP3   OH235479   5.987   1.032   1.928  0.3520 -0.3465  0.1207
 4615TIP3    H135480   6.017   0.985   1.850 -0.8737  0.0514 -0.6185
 4615TIP3    H235481   6.046   1.107   1.935  0.0779 -0.0191 -0.8347
 4616TIP3   OH235482   6.555   0.788   2.200  1.3201 -0.4573  0.6238
 4616TIP3    H135483   6.601   0.704   2.199  0.7726 -0.7869  1.4778
 4616TIP3    H235484   6.603   0.840   2.264  1.9124  0.0396 -0.2129
 4617TIP3   OH235485   3.220   0.587   0.426  0.1910  0.2829 -0.6774
 4617TIP3    H135486   3.218   0.644   0.349 -0.4062  3.9057  1.7632
 4617TIP3    H235487   3.132   0.552   0.433 -0.2650  1.3813 -0.7122
 4618TIP3   OH235488   1.537   0.478   8.893  0.1788  0.0867 -0.2931
 4618TIP3    H135489   1.469   0.504   8.831  1.0286  0.1499 -1.2239
 4618TIP3    H235490   1.595   0.421   8.842 -0.1125 -1.3920  0.9417
 4619TIP3   OH235491   3.869   5.713   7.345  0.2913  0.3423 -0.1253
 4619TIP3    H135492   3.957   5.698   7.311  0.6005  2.5047 -0.4338
 4619TIP3    H235493   3.815   5.647   7.301  1.7845 -1.2426  0.3389
 4620TIP3   OH235494   2.307   4.413   1.917 -0.5175  0.0471 -0.1525
 4620TIP3    H135495   2.263   4.397   1.834  0.1359 -1.1480 -0.2952
 4620TIP3    H235496   2.250   4.371   1.983  0.6251 -2.0368 -0.4016
 4621TIP3   OH235497   5.204   3.041   3.019 -0.0548 -0.2169  0.0767
 4621TIP3    H135498   5.269   3.111   3.016 -1.4754  1.1149 -1.0320
 4621TIP3    H235499   5.250   2.969   3.063  1.9598  0.8460 -0.1225
 4622TIP3   OH235500   6.455   3.980   0.547 -0.0383  0.5723  0.3777
 4622TIP3    H135501   6.396   3.912   0.513  0.8588  0.3647 -0.8436
 4622TIP3    H235502   6.400   4.058   0.557 -0.6429  0.2181 -0.1640
 4623TIP3   OH235503   2.568   1.861   2.483  0.4247  0.3115  0.8322
 4623TIP3    H135504   2.621   1.907   2.547  1.2049  1.8148 -0.8168
 4623TIP3    H235505   2.497   1.922   2.461  1.5988  0.9495 -1.5537
 4624TIP3   OH235506   0.406   6.035   1.576  0.2095 -0.1420  1.1858
 4624TIP3    H135507   0.327   6.028   1.524  0.3935  0.5150  0.8024
 4624TIP3    H235508   0.421   6.129   1.585  2.9995 -0.1149 -1.9553
 4625TIP3   OH235509   5.914   4.902   7.926  0.0656  0.1633 -0.2065
 4625TIP3    H135510   5.841   4.963   7.918  0.2020  0.2091 -1.1577
 4625TIP3    H235511   5.885   4.840   7.993 -1.0801 -0.1255 -0.9356
 4626TIP3   OH235512   1.342   4.514   1.256  0.4033  0.3191  0.1864
 4626TIP3    H135513   1.366   4.602   1.287  0.7570  0.1863  0.2913
 4626TIP3    H235514   1.362   4.516   1.163  1.6430 -0.0660  0.4339
 4627TIP3   OH235515   1.501   0.759   1.651  0.1333  0.2160  0.0768
 4627TIP3    H135516   1.414   0.792   1.630  0.3390  0.0575 -1.1365
 4627TIP3    H235517   1.486   0.674   1.691 -0.2663 -0.0395 -0.5923
 4628TIP3   OH235518   6.793   5.219   2.158 -0.0172 -0.0175  0.1132
 4628TIP3    H135519   6.717   5.254   2.204  0.3225  0.1473  0.5489
 4628TIP3    H235520   6.787   5.255   2.070 -1.2403 -1.1549 -0.3033
 4629TIP3   OH235521   3.553   3.335   1.285 -0.0502  0.5983 -0.1219
 4629TIP3    H135522   3.491   3.408   1.279 -1.5128 -0.2710  2.4180
 4629TIP3    H235523   3.504   3.259   1.253  0.8703  0.4364 -1.1738
 4630TIP3   OH235524   2.581   5.039   2.259 -0.2253 -0.2875 -0.0766
 4630TIP3    H135525   2.591   4.964   2.317  0.5980 -0.1278  0.0065
 4630TIP3    H235526   2.549   5.109   2.315 -2.5821 -0.9689 -0.4589
 4631TIP3   OH235527   6.560   4.791   1.666  0.2346  0.6884 -0.0263
 4631TIP3    H135528   6.617   4.789   1.743 -0.3701  0.2582  0.4226
 4631TIP3    H235529   6.474   4.767   1.700 -0.5616  2.8006 -0.4175
 4632TIP3   OH235530   5.691   1.472   2.434  0.0329  0.7884  0.1568
 4632TIP3    H135531   5.740   1.393   2.412 -0.6056  0.9006 -1.9042
 4632TIP3    H235532   5.599   1.445   2.429 -0.1894  1.0856  1.9152
 4633TIP3   OH235533   0.528   6.331   7.405 -0.5057  0.1602  0.2491
 4633TIP3    H135534   0.551   6.302   7.316 -0.9819 -0.6400  0.3799
 4633TIP3    H235535   0.612   6.335   7.451 -0.4247 -1.1257  0.2478
 4634TIP3   OH235536   2.057   0.435   6.611  0.4833 -0.4277  0.3219
 4634TIP3    H135537   2.034   0.506   6.672 -1.5775 -1.7049  1.1252
 4634TIP3    H235538   2.129   0.389   6.654  0.0276 -0.4308  1.0929
 4635TIP3   OH235539   1.697   1.846   0.889 -0.0908 -0.2107 -0.7772
 4635TIP3    H135540   1.700   1.778   0.822 -0.1417  0.3196 -1.3294
 4635TIP3    H235541   1.641   1.810   0.957  1.4713 -1.5275 -0.1325
 4636TIP3   OH235542   2.438   3.280   1.347 -0.3526 -0.0432  0.4594
 4636TIP3    H135543   2.456   3.304   1.438  2.2896  0.5450 -0.1083
 4636TIP3    H235544   2.419   3.187   1.350  0.4583 -0.1961  1.5691
 4637TIP3   OH235545   4.250   6.196   8.176  0.7787 -0.5648 -0.1388
 4637TIP3    H135546   4.225   6.133   8.243 -0.3258  0.4443  0.4313
 4637TIP3    H235547   4.310   6.256   8.221 -2.1691  1.8379  0.8810
 4638TIP3   OH235548   5.238   3.551   2.244 -0.4097  0.3980 -0.0888
 4638TIP3    H135549   5.176   3.482   2.267  1.4087 -0.8026  1.5322
 4638TIP3    H235550   5.216   3.624   2.302 -0.8873  0.3205 -0.1755
 4639TIP3   OH235551   1.580   0.896   8.096  0.0124 -0.1218 -0.1737
 4639TIP3    H135552   1.576   0.818   8.152 -0.2177 -0.2864 -0.4178
 4639TIP3    H235553   1.672   0.921   8.096 -0.1405  0.5695  1.2285
 4640TIP3   OH235554   1.393   1.362   8.648 -0.0871  0.4107  0.1193
 4640TIP3    H135555   1.435   1.312   8.718  0.6318  1.0278  0.1347
 4640TIP3    H235556   1.332   1.300   8.608 -0.3525 -0.0134  1.1455
 4641TIP3   OH235557   2.390   3.082   1.570  0.4803 -0.2129  0.0239
 4641TIP3    H135558   2.450   3.007   1.561  0.8469 -0.2593  2.1640
 4641TIP3    H235559   2.448   3.157   1.585  0.1292  0.6324 -2.4879
 4642TIP3   OH235560   3.390   0.630   7.859 -0.2106  0.1411 -0.2271
 4642TIP3    H135561   3.477   0.595   7.881 -1.0287 -1.9971 -0.1554
 4642TIP3    H235562   3.348   0.646   7.944  0.0658  1.1331 -0.2623
 4643TIP3   OH235563   6.631   2.723   1.104 -0.0447  0.4938  0.3940
 4643TIP3    H135564   6.675   2.671   1.037 -3.8703 -2.0704 -0.4444
 4643TIP3    H235565   6.674   2.698   1.186  0.3442 -1.5375 -0.3806
 4644TIP3   OH235566   4.923   0.244   7.420 -0.3872 -0.6443  0.6958
 4644TIP3    H135567   4.851   0.245   7.357  0.2139 -1.3615 -0.0342
 4644TIP3    H235568   5.001   0.262   7.367  0.3043 -2.5361  0.9632
 4645TIP3   OH235569   3.900   3.606   1.213  0.3309  0.6083 -0.3537
 4645TIP3    H135570   3.986   3.569   1.193  0.0663 -0.3547  0.2044
 4645TIP3    H235571   3.912   3.651   1.297  0.8894  2.7025 -1.4817
 4646TIP3   OH235572   5.947   2.540   1.968 -0.6162 -1.1850 -0.0801
 4646TIP3    H135573   6.002   2.614   1.940 -0.5866 -1.7345 -1.5339
 4646TIP3    H235574   5.908   2.508   1.888 -3.2155 -0.7321  0.9211
 4647TIP3   OH235575   6.358   5.288   7.732  0.0193  0.0261  0.9298
 4647TIP3    H135576   6.395   5.200   7.722 -0.8879 -0.2867  0.1049
 4647TIP3    H235577   6.433   5.345   7.743  0.8705 -0.4207 -1.8019
 4648TIP3   OH235578   0.152   5.476   8.365 -0.1327  0.0390 -0.2542
 4648TIP3    H135579   0.144   5.411   8.434  0.4905  1.2387  0.9963
 4648TIP3    H235580   0.069   5.525   8.368 -0.0859  0.1237 -0.3308
 4649TIP3   OH235581   0.787   5.009   0.856  0.2535 -0.0207 -0.0917
 4649TIP3    H135582   0.821   4.973   0.774  0.2737  1.0003 -0.5517
 4649TIP3    H235583   0.829   4.957   0.925 -0.3816 -1.4247 -0.7264
 4650TIP3   OH235584   1.819   3.669   2.335 -0.7021  0.2928  0.0636
 4650TIP3    H135585   1.781   3.655   2.421 -2.0082  0.2645 -0.4991
 4650TIP3    H235586   1.744   3.671   2.275  0.2687 -1.1504 -1.2776
 4651TIP3   OH235587   3.329   4.420   7.694  0.2930  0.0168 -0.2559
 4651TIP3    H135588   3.261   4.478   7.661 -0.4700 -0.9489 -0.4208
 4651TIP3    H235589   3.339   4.443   7.786 -0.1766  0.2409 -0.2597
 4652TIP3   OH235590   0.088   2.316   0.738  0.1880 -0.1551  0.0550
 4652TIP3    H135591   0.049   2.229   0.729 -1.5469  0.4274  1.5211
 4652TIP3    H235592   0.036   2.371   0.679  0.0176  0.2554  0.5835
 4653TIP3   OH235593   3.354   1.065   8.168  0.2233 -0.3666  0.1795
 4653TIP3    H135594   3.409   1.126   8.118 -0.5573 -0.7303 -1.1736
 4653TIP3    H235595   3.410   0.990   8.185  0.6443 -0.0344  0.2632
 4654TIP3   OH235596   4.759   2.517   8.651  0.2703 -0.8241  0.0592
 4654TIP3    H135597   4.684   2.565   8.615  2.1939  0.1137 -3.0910
 4654TIP3    H235598   4.804   2.581   8.706 -1.1474 -1.4142  2.0325
 4655TIP3   OH235599   5.063   4.626   7.109 -0.4912  0.0029 -0.2619
 4655TIP3    H135600   5.039   4.680   7.033 -1.3191  0.9910  0.6750
 4655TIP3    H235601   5.150   4.593   7.087 -0.1221  1.4059 -1.0578
 4656TIP3   OH235602   0.566   4.775   6.940 -0.2813  0.4153  0.6213
 4656TIP3    H135603   0.530   4.860   6.916 -2.6051 -0.7742 -0.4288
 4656TIP3    H235604   0.490   4.723   6.966  0.7527 -1.9654 -0.7650
 4657TIP3   OH235605   3.901   6.679   1.480  0.1666  0.1532  0.2027
 4657TIP3    H135606   3.855   6.603   1.445 -0.1420 -0.2231  1.3934
 4657TIP3    H235607   3.841   6.717   1.543  0.9009  0.5236  0.6951
 4658TIP3   OH235608   1.605   1.930   1.299 -0.1096  0.2392 -0.5401
 4658TIP3    H135609   1.535   1.975   1.346  1.8335  2.0334  0.7829
 4658TIP3    H235610   1.646   1.999   1.246  1.6609 -0.3991 -0.0428
 4659TIP3   OH235611   3.266   1.353   7.593 -0.6532 -0.0983  0.0070
 4659TIP3    H135612   3.309   1.412   7.655 -1.2760  0.7917 -0.3876
 4659TIP3    H235613   3.264   1.403   7.511 -2.5894 -0.0495  0.0568
 4660TIP3   OH235614   2.460   4.459   7.876  0.6063 -1.0400 -0.3040
 4660TIP3    H135615   2.550   4.427   7.872  0.5636 -1.2773  0.4639
 4660TIP3    H235616   2.456   4.509   7.957 -0.9309 -4.2049  1.7497
 4661TIP3   OH235617   1.886   0.000   7.334  0.2516  0.4769 -0.0839
 4661TIP3    H135618   1.970   0.044   7.327 -0.1248  1.0938 -0.9447
 4661TIP3    H235619   1.841   0.022   7.252 -0.1340 -1.1275 -0.3230
 4662TIP3   OH235620   5.811   2.900   2.849  0.2459 -0.2227 -0.0110
 4662TIP3    H135621   5.874   2.830   2.864 -0.7046 -0.9396  0.7409
 4662TIP3    H235622   5.735   2.855   2.812 -0.2278  0.4759  0.1053
 4663TIP3   OH235623   1.186   4.420   1.940  0.2034 -0.1156 -0.1316
 4663TIP3    H135624   1.152   4.495   1.988  1.5355  2.1082 -2.4455
 4663TIP3    H235625   1.143   4.344   1.980 -0.2156  1.7023  3.1665
 4664TIP3   OH235626   5.434   5.745   7.067 -0.4689 -0.2509 -0.0611
 4664TIP3    H135627   5.454   5.753   7.160 -0.0717  0.4154 -0.1982
 4664TIP3    H235628   5.518   5.756   7.023 -0.7266 -0.0500 -0.5180
 4665TIP3   OH235629   5.618   0.143   3.045 -0.4236  0.1380  0.3317
 4665TIP3    H135630   5.531   0.184   3.048 -0.2495  0.4265  2.6743
 4665TIP3    H235631   5.672   0.196   3.103  1.5689  0.3867 -1.6405
 4666TIP3   OH235632   1.583   1.006   8.524  0.3368  0.0842  0.1274
 4666TIP3    H135633   1.584   1.064   8.600 -1.2232 -0.3663  0.5169
 4666TIP3    H235634   1.602   0.919   8.559  1.3557  0.1293 -0.2699
 4667TIP3   OH235635   5.787   5.231   0.386 -0.5312 -0.2107 -0.4560
 4667TIP3    H135636   5.718   5.292   0.359 -0.0762  0.3181 -0.4210
 4667TIP3    H235637   5.869   5.273   0.360 -0.1443 -0.2589  0.6370
 4668TIP3   OH235638   5.384   3.137   8.774 -0.6896  0.4043  0.1894
 4668TIP3    H135639   5.471   3.163   8.744 -0.8194 -0.3242 -0.8842
 4668TIP3    H235640   5.326   3.159   8.701 -1.5808  1.7596  1.2469
 4669TIP3   OH235641   4.854   3.648   7.528  0.0191  0.3726 -0.0442
 4669TIP3    H135642   4.936   3.696   7.542  0.4904 -0.4423  0.0597
 4669TIP3    H235643   4.849   3.587   7.601  0.3368 -0.9602 -1.0869
 4670TIP3   OH235644   5.193   0.250   1.948 -0.0169 -0.1647  0.3595
 4670TIP3    H135645   5.208   0.343   1.965 -0.4295 -0.2355  1.1251
 4670TIP3    H235646   5.153   0.248   1.861 -0.1012  0.3778  0.3802
 4671TIP3   OH235647   1.083   3.385   8.704 -0.0921 -0.0804 -0.4791
 4671TIP3    H135648   1.170   3.356   8.674 -0.6146 -1.3902 -0.7662
 4671TIP3    H235649   1.068   3.467   8.657  0.8993  0.0534 -0.5854
 4672TIP3   OH235650   0.292   1.214   8.027 -0.1020  0.5814  0.4252
 4672TIP3    H135651   0.344   1.229   7.948  0.3303 -1.1581  0.3445
 4672TIP3    H235652   0.353   1.232   8.099  0.5804 -1.1593  0.3311
 4673TIP3   OH235653   3.588   5.210   2.219 -0.0862  0.2982  0.5575
 4673TIP3    H135654   3.511   5.212   2.162 -0.1635  0.3249  0.6631
 4673TIP3    H235655   3.569   5.273   2.288  0.5936  1.2708 -0.1301
 4674TIP3   OH235656   6.274   6.092   7.947  0.3317 -0.0338 -0.1140
 4674TIP3    H135657   6.361   6.103   7.909  0.5883 -0.3569  0.3802
 4674TIP3    H235658   6.264   5.997   7.958 -1.0248 -0.2339 -2.3588
 4675TIP3   OH235659   1.031   2.134   7.372  0.6200  0.0400  0.2399
 4675TIP3    H135660   1.062   2.046   7.350 -2.5771 -0.2621 -4.8657
 4675TIP3    H235661   0.943   2.121   7.407 -0.3529  1.0415 -1.6345
 4676TIP3   OH235662   6.016   3.913   8.813  0.2315 -0.3559 -0.7590
 4676TIP3    H135663   6.110   3.913   8.792  1.0127 -1.2245  2.1619
 4676TIP3    H235664   6.004   3.989   8.870 -0.5478 -0.8744 -0.2038
 4677TIP3   OH235665   4.991   6.689   2.083  0.3696  0.2718  0.0397
 4677TIP3    H135666   5.078   6.727   2.074 -0.0678  0.9750 -1.4786
 4677TIP3    H235667   4.947   6.708   2.000 -1.2477 -0.0364  0.7789
 4678TIP3   OH235668   6.121   3.418   8.867  0.8761  0.0170 -0.3653
 4678TIP3    H135669   6.132   3.356   8.939  0.8306 -0.6737 -0.9426
 4678TIP3    H235670   6.027   3.430   8.859  0.8537 -0.4211 -0.7438
 4679TIP3   OH235671   2.898   0.810   1.748  0.7419 -0.2852  0.2658
 4679TIP3    H135672   2.964   0.791   1.681  0.6479 -1.4809  0.4928
 4679TIP3    H235673   2.913   0.745   1.816  0.0982  0.1958  0.8832
 4680TIP3   OH235674   0.287   4.622   7.988  0.1188 -0.0029  0.8867
 4680TIP3    H135675   0.277   4.532   8.017  0.6711 -0.4520 -0.2627
 4680TIP3    H235676   0.200   4.647   7.954  0.3530 -0.6296 -0.2041
 4681TIP3   OH235677   2.276   0.440   7.807  0.2151  0.2276 -0.7561
 4681TIP3    H135678   2.293   0.491   7.887  0.1223 -1.6989  0.5589
 4681TIP3    H235679   2.182   0.423   7.809 -0.0343  1.3151 -2.0426
 4682TIP3   OH235680   6.234   2.760   2.390 -0.1913 -0.3907 -0.7073
 4682TIP3    H135681   6.175   2.752   2.465  0.7428  1.1527  0.2523
 4682TIP3    H235682   6.200   2.699   2.325 -2.3932 -0.0909  0.1010
 4683TIP3   OH235683   4.476   5.585   1.112  0.0537 -0.7075  0.7764
 4683TIP3    H135684   4.495   5.666   1.065 -0.9752 -0.8632  0.0654
 4683TIP3    H235685   4.469   5.611   1.204 -0.7441  0.1031  0.4979
 4684TIP3   OH235686   1.303   5.196   1.031 -0.8942 -0.1335 -0.0367
 4684TIP3    H135687   1.333   5.182   0.941  1.0103 -1.0308  0.6799
 4684TIP3    H235688   1.361   5.142   1.084 -1.4316  1.0287  1.8228
 4685TIP3   OH235689   1.139   5.842   7.730  0.1371 -0.0020  0.2300
 4685TIP3    H135690   1.138   5.769   7.792 -2.9346  0.7717  1.2927
 4685TIP3    H235691   1.223   5.834   7.684  0.6697 -3.1465  1.4905
 4686TIP3   OH235692   6.577   0.119   2.666  0.2019  0.3244 -0.1655
 4686TIP3    H135693   6.638   0.193   2.666  0.9521 -0.2692  0.8838
 4686TIP3    H235694   6.548   0.112   2.575 -0.6053  2.4693 -0.1148
 4687TIP3   OH235695   0.164   3.788   1.549  0.0465  0.0413  0.1591
 4687TIP3    H135696   0.141   3.875   1.580  0.8939 -0.8276  3.6094
 4687TIP3    H235697   0.093   3.732   1.580  1.4127 -1.0344  1.4720
 4688TIP3   OH235698   2.244   2.111   8.569  0.3465  0.5389 -0.4874
 4688TIP3    H135699   2.153   2.121   8.544 -0.3110 -2.3518  0.3298
 4688TIP3    H235700   2.247   2.133   8.662 -0.5138 -3.1406  0.5758
 4689TIP3   OH235701   5.116   6.785   7.414  0.0054 -0.7903  0.0868
 4689TIP3    H135702   5.133   6.820   7.326 -0.0501 -1.1331 -0.0639
 4689TIP3    H235703   5.021   6.793   7.424 -0.0252 -1.0312 -0.0068
 4690TIP3   OH235704   5.152   5.364   0.091  0.6369 -0.4361 -0.0704
 4690TIP3    H135705   5.158   5.410   0.175 -0.2286  0.1137 -0.2896
 4690TIP3    H235706   5.183   5.428   0.027  0.1461 -0.4244 -0.2978
 4691TIP3   OH235707   0.479   0.380   0.356  0.3429 -0.3121 -0.2981
 4691TIP3    H135708   0.389   0.356   0.380  0.5966 -0.7994  0.2006
 4691TIP3    H235709   0.529   0.364   0.436  0.7374  0.7146 -0.3310
 4692TIP3   OH235710   0.341   1.250   2.222 -0.4034 -1.0667  0.2042
 4692TIP3    H135711   0.385   1.327   2.187 -0.8900 -0.8259  0.1143
 4692TIP3    H235712   0.404   1.211   2.283  0.3944 -1.3818 -0.7835
 4693TIP3   OH235713   6.260   0.172   1.853 -0.0601  0.0325 -0.0612
 4693TIP3    H135714   6.175   0.210   1.832 -0.0946  1.5430  2.3789
 4693TIP3    H235715   6.282   0.118   1.777 -2.5411  0.6825 -1.3458
 4694TIP3   OH235716   6.280   3.506   0.253 -0.1259  0.8006  0.0602
 4694TIP3    H135717   6.357   3.540   0.210 -0.0286 -0.2422 -0.6218
 4694TIP3    H235718   6.231   3.460   0.184  1.6280 -3.7747  1.4461
 4695TIP3   OH235719   0.227   4.973   7.761  0.3177  0.4202 -0.1611
 4695TIP3    H135720   0.168   5.026   7.707 -1.4817 -1.3258 -0.0192
 4695TIP3    H235721   0.222   4.886   7.723 -1.6876 -1.1323  3.1480
 4696TIP3   OH235722   4.838   2.269   8.507 -0.1169 -0.1389 -0.3796
 4696TIP3    H135723   4.818   2.282   8.415 -1.7249  0.8569  0.0834
 4696TIP3    H235724   4.807   2.348   8.551 -0.2108 -0.9636  1.1341
 4697TIP3   OH235725   0.968   3.739   1.719  0.8155  0.1167  0.2071
 4697TIP3    H135726   0.948   3.784   1.801 -0.3536 -0.8490  0.4809
 4697TIP3    H235727   0.883   3.733   1.674  0.9742 -1.5845  0.0784
 4698TIP3   OH235728   6.001   1.544   7.704 -0.3874 -0.0888 -0.3037
 4698TIP3    H135729   5.943   1.468   7.700 -1.1526  0.5192 -1.3625
 4698TIP3    H235730   6.004   1.577   7.614  1.0940  0.2913 -0.1422
 4699TIP3   OH235731   2.299   3.044   6.958  0.1141  0.9479 -0.3579
 4699TIP3    H135732   2.230   3.069   7.020  0.9717  1.2342  0.5209
 4699TIP3    H235733   2.333   3.128   6.926  0.9870  0.8585  0.2989
 4700TIP3   OH235734   6.754   5.247   2.474 -0.5521 -0.6751 -0.6335
 4700TIP3    H135735   6.849   5.236   2.488 -0.3777 -0.4153 -1.5557
 4700TIP3    H235736   6.729   5.315   2.536 -0.4964 -1.9801  0.9018
 4701TIP3   OH235737   4.000   0.242   8.880 -0.1614 -0.1466  0.3444
 4701TIP3    H135738   3.942   0.236   8.956  0.6622 -2.7591  0.8410
 4701TIP3    H235739   4.088   0.253   8.918  0.2904 -1.7476 -0.1565
 4702TIP3   OH235740   5.272   3.706   1.222  0.0608  0.8966 -0.0368
 4702TIP3    H135741   5.194   3.754   1.250 -1.9309 -1.0375 -1.8626
 4702TIP3    H235742   5.275   3.630   1.281 -1.2223 -0.5301 -1.6759
 4703TIP3   OH235743   1.284   3.934   8.146  0.3794 -0.3477  0.2160
 4703TIP3    H135744   1.304   3.864   8.083  0.2266 -0.4097  0.2359
 4703TIP3    H235745   1.352   4.000   8.131  0.7982 -0.7035  0.5128
 4704TIP3   OH235746   6.675   1.161   8.278 -0.1471 -0.5040  0.2460
 4704TIP3    H135747   6.743   1.096   8.290  1.1068  0.2959 -2.0032
 4704TIP3    H235748   6.607   1.116   8.228 -0.5360 -0.8311  1.0560
 4705TIP3   OH235749   6.172   4.573   2.681  0.3391  0.4793 -0.3313
 4705TIP3    H135750   6.106   4.563   2.749  0.0069 -0.2131 -0.7453
 4705TIP3    H235751   6.210   4.659   2.697 -2.2478  1.9492 -1.4545
 4706TIP3   OH235752   0.903   3.923   1.987  0.5819 -0.0153  0.0114
 4706TIP3    H135753   0.978   3.910   2.044  1.7631 -1.0858 -1.6842
 4706TIP3    H235754   0.906   4.015   1.962  0.8915  0.1142  0.5214
 4707TIP3   OH235755   4.318   0.699   7.456  0.4534 -0.3917 -0.7144
 4707TIP3    H135756   4.297   0.642   7.530  2.7016 -0.0038  0.3246
 4707TIP3    H235757   4.380   0.649   7.404  1.3618  0.5387 -0.5592
 4708TIP3   OH235758   6.767   1.921   8.150 -0.1513 -0.4166  0.1172
 4708TIP3    H135759   6.836   1.935   8.215  0.1529 -1.0660 -0.0529
 4708TIP3    H235760   6.695   1.881   8.200  0.0564 -0.8517  0.0754
 4709TIP3   OH235761   6.432   5.726   0.647  0.4859 -0.3781 -0.2310
 4709TIP3    H135762   6.429   5.709   0.741  0.1490 -0.0070 -0.1723
 4709TIP3    H235763   6.513   5.775   0.635 -0.3094  1.0695  0.1264
 4710TIP3   OH235764   1.225   0.792   7.616 -0.5741 -0.3028  0.0969
 4710TIP3    H135765   1.133   0.812   7.597 -0.2249  0.2999 -1.0610
 4710TIP3    H235766   1.270   0.802   7.532  0.6449 -0.0779  0.7496
 4711TIP3   OH235767   0.954   0.622   0.037  0.2247  0.0275  0.5607
 4711TIP3    H135768   1.036   0.668   0.057  0.8064 -0.4409 -0.6437
 4711TIP3    H235769   0.955   0.545   0.094  1.5099 -0.9222 -0.6763
 4712TIP3   OH235770   1.971   2.117   0.753  0.0337  0.1132 -0.0541
 4712TIP3    H135771   2.019   2.187   0.797 -1.2525 -1.2353  3.9067
 4712TIP3    H235772   1.880   2.132   0.775 -0.4365 -1.9771 -0.3442
 4713TIP3   OH235773   4.717   2.148   0.596 -0.0906  0.0277  0.1356
 4713TIP3    H135774   4.684   2.210   0.531  1.2271  1.0792  0.4199
 4713TIP3    H235775   4.751   2.075   0.545  0.8739  0.8160 -0.4045
 4714TIP3   OH235776   0.528   2.954   7.644 -0.1600 -0.0322  0.6517
 4714TIP3    H135777   0.570   2.868   7.642  3.4576  1.4725  1.9103
 4714TIP3    H235778   0.540   2.988   7.556  2.5776  0.7778  1.2250
 4715TIP3   OH235779   6.112   1.028   0.512  0.3435  0.1085 -0.2470
 4715TIP3    H135780   6.197   0.992   0.490  1.3910  2.4755 -0.4295
 4715TIP3    H235781   6.093   0.994   0.599  0.7865 -1.5395 -0.7513
 4716TIP3   OH235782   3.125   2.719   7.928  0.0795 -0.0334  0.5710
 4716TIP3    H135783   3.083   2.685   8.007 -0.6294 -1.2743 -0.3084
 4716TIP3    H235784   3.179   2.647   7.896  2.3739  1.2784  1.2480
 4717TIP3   OH235785   1.587   3.519   2.158  0.4239  0.5244  0.2467
 4717TIP3    H135786   1.532   3.547   2.232 -0.8047  0.4098 -0.6024
 4717TIP3    H235787   1.528   3.520   2.083  1.3200 -0.6695 -0.4950
 4718TIP3   OH235788   5.466   3.633   2.108 -0.2520  0.2888 -0.3840
 4718TIP3    H135789   5.523   3.558   2.093  0.5378  0.4754  1.4326
 4718TIP3    H235790   5.382   3.595   2.135 -0.5380  0.0434 -1.5687
 4719TIP3   OH235791   2.575   4.358   8.848  0.0091  0.9859 -0.0656
 4719TIP3    H135792   2.494   4.402   8.874 -2.1484 -1.3869 -2.1138
 4719TIP3    H235793   2.570   4.356   8.752  2.5070  0.6882 -0.2389
 4720TIP3   OH235794   0.965   0.788   2.524 -0.1911 -0.2253  0.0050
 4720TIP3    H135795   0.978   0.872   2.480 -1.8821 -1.3276 -2.8111
 4720TIP3    H235796   1.047   0.741   2.508  0.6967  0.7381  1.4454
 4721TIP3   OH235797   0.654   0.309   1.609 -0.9463 -0.6057  0.3623
 4721TIP3    H135798   0.744   0.321   1.580 -1.2944 -1.1148 -1.0115
 4721TIP3    H235799   0.622   0.397   1.624 -0.4205 -0.3859  0.2217
 4722TIP3   OH235800   1.757   5.540   1.317 -0.3663  0.4157 -0.3019
 4722TIP3    H135801   1.686   5.549   1.380  0.9578  1.0795  1.1768
 4722TIP3    H235802   1.836   5.536   1.371  0.7925  0.5610 -1.9178
 4723TIP3   OH235803   3.694   6.417   6.900  0.7689 -0.2460  0.0164
 4723TIP3    H135804   3.627   6.398   6.966 -0.1519 -0.2063 -0.8820
 4723TIP3    H235805   3.768   6.362   6.925 -0.1298 -1.4202  0.2025
 4724TIP3   OH235806   6.713   3.290   7.968 -0.3978  0.0812 -0.0089
 4724TIP3    H135807   6.753   3.300   7.881  1.6001  1.0977  0.9594
 4724TIP3    H235808   6.629   3.336   7.960  0.1539  0.9603 -1.1607
 4725TIP3   OH235809   3.999   4.579   6.620  0.2693 -0.2475  0.5650
 4725TIP3    H135810   4.085   4.601   6.656  1.7655 -0.9744 -2.2975
 4725TIP3    H235811   3.970   4.659   6.577  0.7982 -0.7323 -0.7450
 4726TIP3   OH235812   0.555   2.234   0.463  0.4291 -0.0453  0.1471
 4726TIP3    H135813   0.478   2.244   0.519  1.0496  1.3239  0.7943
 4726TIP3    H235814   0.569   2.139   0.458 -0.5590 -0.2527  1.0367
 4727TIP3   OH235815   5.619   5.148   2.914  0.0567  0.0865 -0.0648
 4727TIP3    H135816   5.646   5.208   2.845  0.9748 -0.3904 -0.1509
 4727TIP3    H235817   5.659   5.183   2.994  0.8883 -0.5723 -0.1739
 4728TIP3   OH235818   5.369   6.684   1.285  0.3942 -0.1136  0.5787
 4728TIP3    H135819   5.397   6.755   1.227 -0.4834  0.7319  1.1631
 4728TIP3    H235820   5.376   6.605   1.232 -0.7246  0.6716 -0.8110
 4729TIP3   OH235821   0.542   5.263   0.135  0.5865  0.5166  0.2961
 4729TIP3    H135822   0.504   5.272   0.223 -1.6893 -1.9799 -0.2632
 4729TIP3    H235823   0.497   5.187   0.098  2.6798  0.4582 -2.4469
 4730TIP3   OH235824   6.649   3.547   7.607 -0.0337 -0.4070 -0.0400
 4730TIP3    H135825   6.723   3.563   7.547  0.5839  0.4313  0.9007
 4730TIP3    H235826   6.582   3.508   7.552  0.7216 -0.1887 -1.1639
 4731TIP3   OH235827   1.631   1.400   2.364  0.0755 -0.5413 -0.7703
 4731TIP3    H135828   1.636   1.359   2.450  1.2436  1.3243  0.1286
 4731TIP3    H235829   1.713   1.375   2.320  0.2539 -0.1369 -0.6723
 4732TIP3   OH235830   0.007   0.411   7.896  0.1255 -0.0933  0.0396
 4732TIP3    H135831  -0.019   0.375   7.981  0.4564  2.9642  1.5570
 4732TIP3    H235832   0.101   0.427   7.905  0.3200 -0.4302 -1.2231
 4733TIP3   OH235833   3.190   2.378   8.089  0.4123  0.7093  0.1889
 4733TIP3    H135834   3.201   2.470   8.113  2.9139  0.7579 -0.9275
 4733TIP3    H235835   3.255   2.363   8.021 -0.2926 -1.7762 -0.0053
 4734TIP3   OH235836   5.119   2.309   1.414  0.5027  0.2218  0.3635
 4734TIP3    H135837   5.050   2.362   1.453  0.1229 -0.2904  0.3937
 4734TIP3    H235838   5.200   2.341   1.455  0.2941  0.8630  0.2828
 4735TIP3   OH235839   2.871   6.102   7.385  0.2978  0.1349  0.0840
 4735TIP3    H135840   2.888   6.196   7.377 -0.7512  0.5501  2.1767
 4735TIP3    H235841   2.855   6.073   7.295  0.8198  1.9085 -0.6188
 4736TIP3   OH235842   6.119   4.475   8.716  0.2461 -0.5066  1.1687
 4736TIP3    H135843   6.138   4.476   8.622  0.1212  2.6972  1.0834
 4736TIP3    H235844   6.059   4.401   8.727  0.2745 -0.9756 -1.2694
 4737TIP3   OH235845   5.493   0.431   1.157 -0.0373  0.7258  0.7879
 4737TIP3    H135846   5.469   0.461   1.245 -0.1009  0.9925  0.6783
 4737TIP3    H235847   5.586   0.412   1.164 -0.2614 -0.2960  1.2094
 4738TIP3   OH235848   2.914   4.247   7.070  0.3490  0.1194  0.1814
 4738TIP3    H135849   2.853   4.246   6.997  0.4736 -1.2848  0.0733
 4738TIP3    H235850   2.987   4.192   7.041  0.5617 -0.1658  1.2153
 4739TIP3   OH235851   0.603   6.025   8.067 -0.2079 -0.2384  0.1440
 4739TIP3    H135852   0.601   6.118   8.045 -0.4477  0.0048  1.1596
 4739TIP3    H235853   0.582   5.980   7.985 -0.3810  0.6092 -0.2810
 4740TIP3   OH235854   4.170   0.216   1.017 -0.2281  0.0007  0.6693
 4740TIP3    H135855   4.158   0.251   0.928 -3.0015 -0.4534  0.7774
 4740TIP3    H235856   4.086   0.230   1.060  0.6284 -1.0058  2.8243
 4741TIP3   OH235857   6.337   0.591   8.138  0.2070  0.0049 -0.2093
 4741TIP3    H135858   6.410   0.625   8.190 -1.3757  1.6969  1.0316
 4741TIP3    H235859   6.259   0.632   8.176 -1.2241 -0.1210 -2.7948
 4742TIP3   OH235860   5.341   3.942   1.952  0.8088 -0.0349  0.2702
 4742TIP3    H135861   5.420   3.904   1.913  0.5049  1.0452 -1.4968
 4742TIP3    H235862   5.368   3.968   2.040  1.5983 -2.2972  0.7460
 4743TIP3   OH235863   6.008   3.813   0.940  0.7586 -1.0363  0.3635
 4743TIP3    H135864   6.044   3.897   0.969 -0.8777 -0.8456  1.9559
 4743TIP3    H235865   5.985   3.827   0.848 -0.8640  0.7507  1.0009
 4744TIP3   OH235866   6.742   2.461   0.579 -0.1178 -0.0658 -0.5264
 4744TIP3    H135867   6.653   2.450   0.548 -0.3818  1.2710 -0.3190
 4744TIP3    H235868   6.780   2.527   0.521  0.0980  0.8173  0.5866
 4745TIP3   OH235869   4.083   2.945   0.093 -0.2455 -0.4791  0.0485
 4745TIP3    H135870   4.125   2.859   0.103  0.3534 -0.0925  1.0462
 4745TIP3    H235871   4.115   2.995   0.168 -1.2241  0.3622 -0.0873
 4746TIP3   OH235872   4.656   1.726   7.486 -0.3978 -0.5849  0.3042
 4746TIP3    H135873   4.662   1.714   7.392 -1.1128  2.8337 -0.3329
 4746TIP3    H235874   4.563   1.747   7.501 -0.3967 -1.5530  1.8615
 4747TIP3   OH235875   4.844   5.622   2.039  0.4756  0.3073 -0.2510
 4747TIP3    H135876   4.839   5.701   1.986 -0.3806 -0.0138 -0.6732
 4747TIP3    H235877   4.791   5.558   1.991 -0.0777 -0.0820  0.8522
 4748TIP3   OH235878   5.990   0.676   0.873 -0.5654  0.3261  0.3704
 4748TIP3    H135879   6.023   0.586   0.863  4.5040  1.8773  0.3147
 4748TIP3    H235880   5.945   0.675   0.958  0.8803 -1.9524  1.2184
 4749TIP3   OH235881   5.311   3.515   1.452  1.0336  0.6588  0.2000
 4749TIP3    H135882   5.297   3.421   1.463  1.5006 -0.2048 -4.4991
 4749TIP3    H235883   5.229   3.555   1.483  0.0539 -1.4552  0.5125
 4750TIP3   OH235884   1.034   5.721   8.375  0.5675 -0.2724 -0.1301
 4750TIP3    H135885   1.130   5.714   8.376  0.5593 -0.3991 -0.2501
 4750TIP3    H235886   1.017   5.795   8.315  0.7383  2.2459  2.6882
 4751TIP3   OH235887   1.534   2.068   8.065  0.2455 -0.2747 -0.2001
 4751TIP3    H135888   1.603   2.051   8.130  1.9141 -1.8852 -2.2306
 4751TIP3    H235889   1.479   1.990   8.068  0.7321 -0.6672 -1.1544
 4752TIP3   OH235890   0.319   3.109   1.422  0.4701 -0.2277  0.0339
 4752TIP3    H135891   0.394   3.149   1.465 -0.3008  0.9891  0.2970
 4752TIP3    H235892   0.244   3.136   1.475 -0.2478 -0.7026 -0.7137
 4753TIP3   OH235893   4.097   6.609   1.681 -0.0718  0.2125 -0.4352
 4753TIP3    H135894   4.023   6.613   1.621 -0.8188  1.1039  0.5043
 4753TIP3    H235895   4.169   6.572   1.629 -1.7603 -2.9522 -0.7806
 4754TIP3   OH235896   3.395   0.285   8.838 -0.1707 -0.9024  0.1901
 4754TIP3    H135897   3.342   0.357   8.872  0.0815 -0.0286 -1.1475
 4754TIP3    H235898   3.480   0.325   8.819  0.8449 -2.1682  1.8471
 4755TIP3   OH235899   3.571   5.213   7.711  0.3810  0.1681 -0.1024
 4755TIP3    H135900   3.565   5.277   7.641 -0.0559 -0.5274 -0.7194
 4755TIP3    H235901   3.527   5.135   7.676 -0.6986  0.0996  1.2829
 4756TIP3   OH235902   3.764   2.504   8.109  0.3606 -0.3250 -0.1155
 4756TIP3    H135903   3.680   2.465   8.084 -0.3320  0.9452  0.1361
 4756TIP3    H235904   3.751   2.530   8.200  1.6759 -1.7826  0.5259
 4757TIP3   OH235905   3.183   3.847   7.456 -0.5313  0.1710  0.2047
 4757TIP3    H135906   3.127   3.914   7.416 -2.1745 -1.5240 -0.5120
 4757TIP3    H235907   3.232   3.810   7.383 -1.6504 -1.1996  0.0966
 4758TIP3   OH235908   4.846   6.155   0.966 -0.1119 -0.1902 -0.0520
 4758TIP3    H135909   4.900   6.208   0.907 -0.4608 -1.6497 -1.7351
 4758TIP3    H235910   4.797   6.220   1.017  0.8610  1.1185 -0.7154
 4759TIP3   OH235911   6.551   5.669   1.787 -0.0011 -0.1960  0.2868
 4759TIP3    H135912   6.552   5.764   1.780 -1.6287 -0.2566 -1.5596
 4759TIP3    H235913   6.628   5.648   1.839  0.8745  2.0737  0.0139
 4760TIP3   OH235914   5.628   2.387   2.456 -0.1867 -0.0915  0.1701
 4760TIP3    H135915   5.676   2.460   2.417 -0.4294  0.3508  0.6836
 4760TIP3    H235916   5.687   2.312   2.450 -0.9135 -0.5513 -2.8491
 4761TIP3   OH235917   3.201   5.869   0.613  0.5614 -0.1465 -0.1193
 4761TIP3    H135918   3.242   5.783   0.611  0.6651 -0.0814 -1.2478
 4761TIP3    H235919   3.268   5.928   0.580 -0.1837  0.0650 -1.2748
 4762TIP3   OH235920   3.110   2.825   0.460  0.1116  0.4098 -0.3107
 4762TIP3    H135921   3.054   2.859   0.530  0.1569  0.5017 -0.3182
 4762TIP3    H235922   3.180   2.890   0.453  0.6214 -0.0862  0.2024
 4763TIP3   OH235923   6.735   1.649   2.740  0.0105  0.0537  0.3069
 4763TIP3    H135924   6.747   1.613   2.652  1.4822  0.2858  0.3779
 4763TIP3    H235925   6.653   1.697   2.736 -0.4382 -0.7642 -0.6569
 4764TIP3   OH235926   4.850   2.593   7.855 -0.0677 -0.0632 -0.0639
 4764TIP3    H135927   4.777   2.598   7.793  0.1572 -0.1907 -0.3429
 4764TIP3    H235928   4.834   2.665   7.917 -1.0014 -0.7481  0.5155
 4765TIP3   OH235929   3.867   6.677   7.770  0.2216 -0.0019 -0.5137
 4765TIP3    H135930   3.937   6.665   7.706  0.4691 -0.1242 -0.2265
 4765TIP3    H235931   3.870   6.597   7.823 -0.3051 -0.1212 -0.6619
 4766TIP3   OH235932   2.445   0.846   7.055  0.2290  0.5509 -0.2911
 4766TIP3    H135933   2.481   0.769   7.010  2.1376  0.6715  0.9054
 4766TIP3    H235934   2.364   0.865   7.009 -1.9118 -3.8839  1.0294
 4767TIP3   OH235935   4.087   2.256   1.413  0.2736  0.1505  0.1428
 4767TIP3    H135936   3.995   2.233   1.425 -0.0949  1.7364  0.5887
 4767TIP3    H235937   4.110   2.303   1.493  0.6681  2.1383 -1.0660
 4768TIP3   OH235938   1.506   6.304   8.216 -0.1133 -0.3702  0.2452
 4768TIP3    H135939   1.491   6.304   8.121 -2.1168  0.3385  0.5230
 4768TIP3    H235940   1.514   6.212   8.239 -0.7490 -0.6117 -0.4645
 4769TIP3   OH235941   3.884   4.708   1.872 -0.1324 -0.5258  0.6784
 4769TIP3    H135942   3.857   4.687   1.783 -1.4012 -0.7798  1.0985
 4769TIP3    H235943   3.833   4.649   1.928 -0.2011  0.3836  1.6210
 4770TIP3   OH235944   3.742   6.438   1.511 -0.2478 -0.1712  0.9385
 4770TIP3    H135945   3.655   6.472   1.493 -0.6915 -0.9871  1.4408
 4770TIP3    H235946   3.769   6.396   1.429 -0.6957 -0.6587  1.0335
 4771TIP3   OH235947   5.037   3.922   7.401  0.8371 -0.0782  0.1956
 4771TIP3    H135948   5.079   3.838   7.385  1.4661  0.2916 -0.1075
 4771TIP3    H235949   5.060   3.975   7.325  2.2560  1.0805  1.3902
 4772TIP3   OH235950   3.968   5.777   8.146  0.3033  0.2093  0.6535
 4772TIP3    H135951   3.913   5.849   8.114  1.0851  1.0850  1.2461
 4772TIP3    H235952   3.912   5.731   8.209 -0.4514 -0.1572 -0.2489
 4773TIP3   OH235953   3.826   3.668   8.219 -0.7127 -0.0652 -0.0838
 4773TIP3    H135954   3.762   3.660   8.148  0.5421  0.1915 -1.2765
 4773TIP3    H235955   3.868   3.753   8.205 -0.3014 -0.1016  0.8499
 4774TIP3   OH235956   2.367   3.485   8.075  0.2463 -0.3017 -0.4535
 4774TIP3    H135957   2.347   3.515   8.163 -0.2059 -0.0068 -0.6502
 4774TIP3    H235958   2.388   3.566   8.027  0.4951 -0.4597 -0.6091
 4775TIP3   OH235959   3.732   6.589   6.692  0.3918 -0.0724 -0.0136
 4775TIP3    H135960   3.657   6.594   6.633  0.9276  0.5596 -0.6692
 4775TIP3    H235961   3.708   6.524   6.757  0.8399 -2.9913 -2.5281
 4776TIP3   OH235962   4.426   1.777   0.193 -0.0869 -0.1650  0.5077
 4776TIP3    H135963   4.403   1.787   0.100 -0.9677 -1.1665  0.5970
 4776TIP3    H235964   4.460   1.862   0.218 -0.2179  0.2481 -0.6376
 4777TIP3   OH235965   6.344   0.402   0.674  0.7930  0.1836  0.4249
 4777TIP3    H135966   6.401   0.463   0.625  0.9738  0.1189  0.5530
 4777TIP3    H235967   6.314   0.453   0.749 -1.7544  1.2423 -1.1590
 4778TIP3   OH235968   0.262   6.187   0.612  0.2389 -0.3618  0.4797
 4778TIP3    H135969   0.325   6.256   0.633 -1.7574  1.2140  1.6077
 4778TIP3    H235970   0.253   6.138   0.694 -0.0249 -0.5596  0.3348
 4779TIP3   OH235971   6.041   5.342   0.332  0.3506 -0.0465  1.0245
 4779TIP3    H135972   6.068   5.262   0.287  1.0463  1.3302 -1.2004
 4779TIP3    H235973   6.093   5.344   0.412  0.8779 -1.4399  0.7349
 4780TIP3   OH235974   4.232   1.704   8.435 -0.6926 -0.0683 -0.1847
 4780TIP3    H135975   4.264   1.789   8.465 -1.3460  0.5513 -1.1963
 4780TIP3    H235976   4.155   1.688   8.489 -0.7269  0.1049 -0.1812
 4781TIP3   OH235977   2.542   1.349   1.099 -0.4746 -0.5527  0.3889
 4781TIP3    H135978   2.494   1.274   1.066 -1.2882  0.3012 -0.4070
 4781TIP3    H235979   2.482   1.391   1.161 -0.7016  0.4075 -0.4621
 4782TIP3   OH235980   4.097   6.265   0.814  0.5106 -0.5762 -0.4700
 4782TIP3    H135981   4.119   6.357   0.803 -1.7129 -0.0419 -0.8222
 4782TIP3    H235982   4.181   6.220   0.806  1.5099  1.3206 -1.3857
 4783TIP3   OH235983   3.704   4.028   8.440 -0.1433  0.4602 -0.3203
 4783TIP3    H135984   3.679   4.011   8.349 -1.7490 -0.4404  0.2458
 4783TIP3    H235985   3.784   3.978   8.452  0.2523  0.8186 -1.3012
 4784TIP3   OH235986   2.623   3.496   0.109  0.1302 -0.0015  0.7006
 4784TIP3    H135987   2.531   3.490   0.087  0.1670  0.4754  0.3946
 4784TIP3    H235988   2.639   3.590   0.123  0.8846  0.0993 -0.6923
 4785TIP3   OH235989   5.863   5.557   0.357  0.4151  0.1166  0.4489
 4785TIP3    H135990   5.931   5.490   0.346 -0.8319 -1.4877  1.8222
 4785TIP3    H235991   5.824   5.566   0.271  0.8890 -0.6369  0.1437
 4786TIP3   OH235992   5.406   1.429   1.135 -0.9500  0.3460  0.3616
 4786TIP3    H135993   5.310   1.429   1.133 -0.9743  0.3132  1.0255
 4786TIP3    H235994   5.430   1.521   1.146 -0.9629  0.2294  1.5001
 4787TIP3   OH235995   6.440   6.599   0.210 -0.3280 -0.4691  0.5194
 4787TIP3    H135996   6.422   6.661   0.281  2.1460 -1.9354  2.6011
 4787TIP3    H235997   6.404   6.516   0.240  0.3205 -1.0166 -0.1556
 4788TIP3   OH235998   5.201   2.716   8.873  0.2606 -0.0318  0.4210
 4788TIP3    H135999   5.265   2.729   8.803  0.6905 -1.3419  0.5333
 4788TIP3    H236000   5.224   2.631   8.911 -1.3584 -0.3880  0.6827
 4789TIP3   OH236001   5.639   3.220   6.920 -0.1610  0.2787  0.0247
 4789TIP3    H136002   5.566   3.175   6.962 -1.4167  0.4036 -1.9168
 4789TIP3    H236003   5.691   3.254   6.993 -1.6764 -0.3625  1.4676
 4790TIP3   OH236004   2.355   4.158   7.947  0.2212 -0.6224  0.0749
 4790TIP3    H136005   2.425   4.160   7.881 -0.9985  0.5195 -1.2536
 4790TIP3    H236006   2.384   4.220   8.014 -0.4088  1.5100 -1.5109
 4791TIP3   OH236007   4.219   2.088   0.188 -0.4058 -0.4808 -0.3692
 4791TIP3    H136008   4.148   2.153   0.184  0.4253  0.6604  1.8578
 4791TIP3    H236009   4.246   2.088   0.280  2.9532 -0.3391 -1.2254
 4792TIP3   OH236010   3.956   6.044   7.431 -0.5134  0.5816  0.2056
 4792TIP3    H136011   3.947   6.088   7.516 -2.3372 -1.6492  1.2758
 4792TIP3    H236012   3.958   5.951   7.453 -0.8188 -0.0478 -2.1991
 4793TIP3   OH236013   0.137   2.452   0.988 -0.0340 -0.3397 -0.5217
 4793TIP3    H136014   0.088   2.533   0.977  2.1048  0.8150 -2.2783
 4793TIP3    H236015   0.141   2.414   0.900  1.9763 -0.4759 -0.4275
 4794TIP3   OH236016   0.490   6.255   1.049  0.0913 -0.2042  0.1641
 4794TIP3    H136017   0.515   6.347   1.039 -2.2127  0.5937  1.0366
 4794TIP3    H236018   0.538   6.225   1.126  1.7480 -0.1378 -0.7843
 4795TIP3   OH236019   4.602   0.602   8.546  0.7658 -0.1155 -0.4248
 4795TIP3    H136020   4.534   0.579   8.483 -0.1262  2.2594 -0.4261
 4795TIP3    H236021   4.680   0.617   8.494  1.1790 -2.2090 -0.4901
 4796TIP3   OH236022   2.076   6.512   1.266  0.1003  0.1405 -0.3956
 4796TIP3    H136023   2.085   6.419   1.285 -0.9614  0.1759  0.3413
 4796TIP3    H236024   1.982   6.530   1.273  0.1657  1.0730 -1.4859
 4797TIP3   OH236025   5.592   5.992   0.515  0.2957  0.1811  0.0103
 4797TIP3    H136026   5.669   6.021   0.466  1.4788 -1.9220  0.4918
 4797TIP3    H236027   5.544   5.936   0.455 -0.4963  0.8741 -0.0333
 4798TIP3   OH236028   3.458   1.131   2.365  0.3272  0.3653 -0.0957
 4798TIP3    H136029   3.398   1.191   2.409 -0.9266  0.5211 -1.9068
 4798TIP3    H236030   3.521   1.188   2.320  0.5016  0.2641  0.0192
 4799TIP3   OH236031   1.362   4.659   2.137 -0.7103 -0.3343 -0.3914
 4799TIP3    H136032   1.375   4.746   2.175  0.4699 -0.9280  0.6011
 4799TIP3    H236033   1.271   4.660   2.106 -1.1851  0.7432  0.9581
 4800TIP3   OH236034   1.122   4.387   8.374  0.1018 -0.1672 -0.8139
 4800TIP3    H136035   1.168   4.430   8.446 -0.2352 -1.2485  0.0940
 4800TIP3    H236036   1.082   4.309   8.415 -0.0148 -0.8619 -2.1960
 4801TIP3   OH236037   3.094   5.301   2.197  0.1707  0.1643 -0.3686
 4801TIP3    H136038   3.098   5.271   2.288  1.9121 -2.5430 -1.2120
 4801TIP3    H236039   3.013   5.263   2.163 -1.2111  2.3035  0.2862
 4802TIP3   OH236040   2.897   1.565   0.307 -0.5906  0.6143  0.2949
 4802TIP3    H136041   2.850   1.627   0.362  2.0428  1.8153  1.3738
 4802TIP3    H236042   2.899   1.605   0.220  1.4045  2.3476  1.0622
 4803TIP3   OH236043   3.801   1.408   2.091  0.0722  0.1620 -0.0864
 4803TIP3    H136044   3.730   1.354   2.127  2.0412 -1.9297  0.9554
 4803TIP3    H236045   3.817   1.371   2.004  2.4851 -2.2716  1.2193
 4804TIP3   OH236046   1.580   5.738   7.010  0.2291 -0.3716 -0.5437
 4804TIP3    H136047   1.610   5.737   6.919  0.4499 -0.2057 -0.4753
 4804TIP3    H236048   1.490   5.770   7.006  0.5496  0.5376 -0.6195
 4805TIP3   OH236049   3.468   1.478   1.917  0.0977  0.5399  0.2187
 4805TIP3    H136050   3.434   1.473   1.828  0.3009 -1.7821  0.2016
 4805TIP3    H236051   3.505   1.391   1.933  2.1590  1.6240  1.7576
 4806TIP3   OH236052   1.301   4.904   1.909  0.0747 -0.6144 -0.8155
 4806TIP3    H136053   1.295   4.819   1.868 -2.6724  0.3613 -2.6761
 4806TIP3    H236054   1.382   4.943   1.874 -0.2024 -1.3134 -2.2603
 4807TIP3   OH236055   4.807   0.836   0.422  0.5217  0.0499 -0.5402
 4807TIP3    H136056   4.817   0.749   0.383  1.6734  0.0627 -0.3255
 4807TIP3    H236057   4.897   0.863   0.442  0.0036 -1.0973  4.5982
 4808TIP3   OH236058   5.046   4.881   7.419 -0.8373 -0.6901  0.2250
 4808TIP3    H136059   5.033   4.976   7.411  0.7468 -0.3827  0.7677
 4808TIP3    H236060   5.054   4.866   7.514 -0.8038 -1.3144  0.1269
 4809TIP3   OH236061   4.100   1.111   1.178 -0.0189  0.1681  0.0618
 4809TIP3    H136062   4.048   1.031   1.178  0.9841 -0.5032 -0.1089
 4809TIP3    H236063   4.181   1.087   1.132  1.1071  0.7372  1.6620
 4810TIP3   OH236064   3.063   4.125   2.766 -0.2119  0.1115 -0.1552
 4810TIP3    H136065   3.023   4.039   2.750 -0.8978  0.6118 -1.3193
 4810TIP3    H236066   3.156   4.106   2.776 -0.4420 -0.8423  0.3231
 4811TIP3   OH236067   4.802   5.394   0.654 -0.8415  0.5535 -0.5138
 4811TIP3    H136068   4.844   5.332   0.714 -0.1425 -1.0767 -2.5262
 4811TIP3    H236069   4.711   5.397   0.681 -0.5671 -0.2088  0.5561
 4812TIP3   OH236070   0.377   3.064   8.416  0.4248  0.3864  0.5195
 4812TIP3    H136071   0.446   3.125   8.389 -1.1720  2.1772  0.2299
 4812TIP3    H236072   0.296   3.115   8.408 -0.8222 -1.2334  2.0234
 4813TIP3   OH236073   0.586   2.211   1.634 -0.5607 -0.0681  0.4291
 4813TIP3    H136074   0.661   2.154   1.650 -0.1767  0.8868  2.3452
 4813TIP3    H236075   0.510   2.156   1.648 -0.2071 -0.6872 -0.0691
 4814TIP3   OH236076   0.723   3.168   1.878 -0.0809  0.3420 -0.0728
 4814TIP3    H136077   0.694   3.077   1.890 -0.4825 -0.0955 -3.4558
 4814TIP3    H236078   0.762   3.169   1.791 -0.7962  3.6203 -0.4581
 4815TIP3   OH236079   5.587   0.699   7.864 -0.5017 -0.0616 -0.2740
 4815TIP3    H136080   5.610   0.666   7.777  0.4200  0.5590 -0.2850
 4815TIP3    H236081   5.626   0.635   7.924  1.4863  1.0357 -0.2897
 4816TIP3   OH236082   0.584   1.173   0.173 -0.5949 -0.8715  0.7366
 4816TIP3    H136083   0.490   1.157   0.170 -0.8410  0.3592  1.3474
 4816TIP3    H236084   0.610   1.182   0.082 -0.7753 -2.6974  0.4631
 4817TIP3   OH236085   5.510   4.237   8.834  0.5396 -0.2459 -0.1614
 4817TIP3    H136086   5.471   4.158   8.871  1.2326  0.0844  1.4075
 4817TIP3    H236087   5.603   4.215   8.825  0.7532  0.3868  0.3737
 4818TIP3   OH236088   0.332   4.862   8.700  0.1619  0.1266  0.0329
 4818TIP3    H136089   0.265   4.887   8.635  1.2436  1.9321 -0.4513
 4818TIP3    H236090   0.405   4.829   8.647 -0.6269 -2.7825  0.5995
 4819TIP3   OH236091   2.834   6.334   1.565  0.4965 -0.3631 -0.6787
 4819TIP3    H136092   2.765   6.394   1.592 -0.3004 -2.4083  2.2354
 4819TIP3    H236093   2.841   6.347   1.470 -0.8284  2.9720 -0.4360
 4820TIP3   OH236094   4.789   0.357   0.822 -0.6670 -0.5276 -0.0898
 4820TIP3    H136095   4.695   0.347   0.811 -0.6034  0.1497 -1.4746
 4820TIP3    H236096   4.800   0.442   0.864 -0.6141  0.7502 -2.5005
 4821TIP3   OH236097   2.833   5.963   0.812  0.5898 -0.1648 -0.0737
 4821TIP3    H136098   2.895   5.899   0.777 -0.5042 -1.5178  0.3494
 4821TIP3    H236099   2.747   5.927   0.789 -0.0628  0.7879  0.8284
 4822TIP3   OH236100   6.694   1.003   8.763  0.4760 -0.0727  0.3673
 4822TIP3    H136101   6.668   0.990   8.855  1.2022 -0.4826  0.5183
 4822TIP3    H236102   6.651   1.085   8.738  0.6673  0.3091  1.2311
 4823TIP3   OH236103   3.172   0.145   0.900  0.2162 -0.6918 -0.5646
 4823TIP3    H136104   3.254   0.179   0.866  0.5148 -1.6792 -0.8813
 4823TIP3    H236105   3.174   0.167   0.993  0.1929  0.4957 -0.8306
 4824TIP3   OH236106   2.187   5.463   1.679  0.1381 -0.3098 -0.6849
 4824TIP3    H136107   2.114   5.403   1.694 -1.2071  1.6733  1.4295
 4824TIP3    H236108   2.264   5.416   1.712 -0.6612 -1.3292 -0.2303
 4825TIP3   OH236109   3.676   0.261   7.978 -0.3067  0.2423 -0.0444
 4825TIP3    H136110   3.692   0.287   8.068 -0.0352  0.7597 -0.2334
 4825TIP3    H236111   3.754   0.211   7.953 -0.0757  0.6683 -0.1950
 4826TIP3   OH236112   5.153   0.328   1.317 -0.2876  0.4822  0.1283
 4826TIP3    H136113   5.068   0.344   1.358 -0.8889  0.6920 -1.1591
 4826TIP3    H236114   5.141   0.353   1.225  1.1904  0.5972 -0.0659
 4827TIP3   OH236115   3.683   1.638   0.167  0.3156  0.6621 -0.3600
 4827TIP3    H136116   3.661   1.705   0.232 -1.9766 -0.5997  0.2511
 4827TIP3    H236117   3.745   1.581   0.212  0.6625  1.1823 -0.1645
 4828TIP3   OH236118   6.765   2.211   1.540  0.1751 -0.3969  0.1335
 4828TIP3    H136119   6.814   2.260   1.474 -0.0883  0.6812  0.7142
 4828TIP3    H236120   6.772   2.120   1.512 -0.1386  0.0526 -1.5097
 4829TIP3   OH236121   2.128   0.994   0.440  0.0009  0.4821  0.4379
 4829TIP3    H136122   2.067   0.927   0.470 -1.0234  1.2912  0.2033
 4829TIP3    H236123   2.129   1.059   0.510  2.0753 -0.3951  1.3276
 4830TIP3   OH236124   5.035   1.860   1.223  0.3713  0.1183 -0.0511
 4830TIP3    H136125   5.071   1.816   1.146  0.3593  1.2878 -0.7486
 4830TIP3    H236126   5.076   1.946   1.223 -0.6094  0.6043  0.5063
 4831TIP3   OH236127   4.360   5.970   8.671  0.2248 -0.0707 -0.2331
 4831TIP3    H136128   4.390   5.954   8.581 -1.5767 -2.9059 -0.4657
 4831TIP3    H236129   4.436   5.952   8.726  0.8734 -0.0324 -1.0914
 4832TIP3   OH236130   5.157   4.906   8.385 -0.2661  0.5214  0.0138
 4832TIP3    H136131   5.071   4.940   8.410  0.0290  1.0751  0.2936
 4832TIP3    H236132   5.155   4.904   8.289 -0.2428  1.4703 -0.0149
 4833TIP3   OH236133   1.832   5.372   0.150 -0.2567 -0.2024  0.1513
 4833TIP3    H136134   1.836   5.448   0.208 -1.5412  0.3963 -0.4961
 4833TIP3    H236135   1.820   5.410   0.062 -0.5845 -1.1340 -0.2145
 4834TIP3   OH236136   0.518   5.056   0.938 -0.3864 -0.1239  0.3251
 4834TIP3    H136137   0.446   5.044   0.877 -0.8539  1.5644  0.4883
 4834TIP3    H236138   0.597   5.041   0.886 -0.8165 -0.3550 -0.2661
 4835TIP3   OH236139   2.151   3.501   8.550  0.2011 -0.0607  0.5049
 4835TIP3    H136140   2.141   3.536   8.638 -0.9785  0.0548  0.3329
 4835TIP3    H236141   2.062   3.491   8.517  0.6256  1.8385 -1.4645
 4836TIP3   OH236142   0.189   1.514   0.674  0.5835 -0.0091 -0.4593
 4836TIP3    H136143   0.196   1.596   0.724  2.7933 -0.0093 -0.6821
 4836TIP3    H236144   0.097   1.488   0.684  0.3530  1.3205  1.4577
 4837TIP3   OH236145   0.046   5.598   2.398  0.3282 -0.0711 -0.2702
 4837TIP3    H136146  -0.045   5.580   2.423 -0.1277 -1.7115 -2.7503
 4837TIP3    H236147   0.048   5.693   2.383 -0.2788  0.3797  2.1452
 4838TIP3   OH236148   6.284   4.193   0.725 -0.2861 -0.1332 -1.0300
 4838TIP3    H136149   6.240   4.113   0.754  0.6338 -0.8596 -1.6079
 4838TIP3    H236150   6.302   4.241   0.806  0.1275 -1.0240 -0.5830
 4839TIP3   OH236151   1.659   2.159   7.567 -0.5152  0.1460  0.1127
 4839TIP3    H136152   1.698   2.194   7.487 -0.7681 -1.3674 -0.7081
 4839TIP3    H236153   1.617   2.235   7.608  2.6762  1.7271  0.7228
 4840TIP3   OH236154   5.453   3.355   2.093  0.3718 -0.4459  0.6833
 4840TIP3    H136155   5.503   3.276   2.115 -0.3513 -0.9347  0.6362
 4840TIP3    H236156   5.361   3.327   2.099  0.1174  0.1954 -0.0728
 4841TIP3   OH236157   3.035   6.338   7.069 -0.7199 -0.3475 -0.4026
 4841TIP3    H136158   3.130   6.336   7.080 -0.4746 -0.0921 -2.1146
 4841TIP3    H236159   3.007   6.247   7.081 -0.3426 -0.3409  0.6019
 4842TIP3   OH236160   4.970   1.038   7.332  0.1861 -0.3120 -0.6266
 4842TIP3    H136161   5.053   1.068   7.370  0.2367 -1.6288  0.3855
 4842TIP3    H236162   4.980   1.053   7.238  2.7093 -2.8676 -0.9201
 4843TIP3   OH236163   2.962   6.662   1.932 -0.5602 -0.1430  0.1549
 4843TIP3    H136164   3.047   6.672   1.888 -0.5421 -0.4156  0.1257
 4843TIP3    H236165   2.926   6.751   1.934 -0.4960 -0.1020 -0.2832
 4844TIP3   OH236166   1.141   3.337   0.719 -0.2614 -0.3383 -0.2776
 4844TIP3    H136167   1.077   3.272   0.689  0.1981 -1.0170  0.1760
 4844TIP3    H236168   1.126   3.345   0.813  1.7331 -2.1973  0.3000
 4845TIP3   OH236169   6.149   1.533   0.769  0.3829 -0.0614  0.0161
 4845TIP3    H136170   6.110   1.466   0.713 -0.9634  1.5466 -1.0796
 4845TIP3    H236171   6.240   1.507   0.778 -0.1366 -2.0974 -0.2363
 4846TIP3   OH236172   3.760   0.216   1.946  0.1185  1.0014  0.3225
 4846TIP3    H136173   3.709   0.218   2.027 -1.7345 -1.1825 -0.6697
 4846TIP3    H236174   3.810   0.135   1.950 -0.2495  0.6878 -0.8234
 4847TIP3   OH236175   2.430   3.710   0.660  0.1144  0.2934 -0.5457
 4847TIP3    H136176   2.508   3.765   0.654  0.2500  0.2972  1.0259
 4847TIP3    H236177   2.421   3.673   0.572  0.7612  1.7959 -1.2857
 4848TIP3   OH236178   5.443   3.400   1.843 -0.1541  0.6655 -0.0912
 4848TIP3    H136179   5.400   3.484   1.830  1.2983  1.4920  0.1567
 4848TIP3    H236180   5.439   3.385   1.937 -1.7115 -0.3035 -0.2795
 4849TIP3   OH236181   5.532   5.698   7.807 -0.2063 -0.5022 -0.6172
 4849TIP3    H136182   5.556   5.659   7.723  1.7352  0.3959 -0.5471
 4849TIP3    H236183   5.594   5.770   7.818  0.1701 -1.1182  1.9889
 4850TIP3   OH236184   1.122   4.725   2.356 -0.5463 -0.1998 -0.5807
 4850TIP3    H136185   1.187   4.734   2.427 -1.3733 -1.9682  0.4700
 4850TIP3    H236186   1.105   4.815   2.328  2.1109  0.3493 -0.7025
 4851TIP3   OH236187   3.684   4.492   0.813 -0.0483  0.1521 -0.2880
 4851TIP3    H136188   3.703   4.476   0.906 -0.7975  0.9306  0.0176
 4851TIP3    H236189   3.589   4.498   0.809 -0.0709 -0.5870 -1.2455
 4852TIP3   OH236190   5.895   4.795   0.038 -0.3040  0.0875 -0.7128
 4852TIP3    H136191   5.831   4.771  -0.029  0.3440 -3.1080 -0.3330
 4852TIP3    H236192   5.977   4.755   0.009  0.5317  0.5681  0.8540
 4853TIP3   OH236193   4.671   5.933   7.424  0.4156  0.2975 -0.0283
 4853TIP3    H136194   4.602   5.869   7.441  0.9556 -0.3675 -0.2874
 4853TIP3    H236195   4.659   6.000   7.491 -1.2474  0.8465 -0.8310
 4854TIP3   OH236196   1.114   3.652   8.018 -0.3088 -0.5393  0.3191
 4854TIP3    H136197   1.091   3.734   8.061 -0.9225 -0.5442  0.0194
 4854TIP3    H236198   1.129   3.676   7.926 -3.2202 -1.1223 -0.4160
 4855TIP3   OH236199   3.218   0.399   0.728 -0.3193  0.4224  0.2978
 4855TIP3    H136200   3.210   0.430   0.637  1.4270 -0.7981 -0.3401
 4855TIP3    H236201   3.160   0.324   0.733  0.0421  0.1102 -0.0327
 4856TIP3   OH236202   3.033   0.619   0.876  0.0248  0.1095 -0.4360
 4856TIP3    H136203   3.114   0.647   0.833 -0.1228 -1.0233 -1.5050
 4856TIP3    H236204   2.991   0.561   0.813 -0.8109 -0.6526  0.7786
 4857TIP3   OH236205   2.694   5.879   7.569  0.1241 -0.7679  0.0646
 4857TIP3    H136206   2.611   5.924   7.586  0.3751 -0.3720  0.2536
 4857TIP3    H236207   2.732   5.927   7.495 -0.3754 -1.7002 -0.8339
 4858TIP3   OH236208   4.148   3.825   0.991 -0.0367  0.0293 -0.1093
 4858TIP3    H136209   4.161   3.742   0.945  0.4091 -1.4871  2.5017
 4858TIP3    H236210   4.075   3.807   1.051 -2.5391  2.7884 -2.0267
 4859TIP3   OH236211   0.860   3.701   2.829 -0.1724  0.5052 -0.0480
 4859TIP3    H136212   0.817   3.667   2.907  0.5300 -0.9707 -0.2634
 4859TIP3    H236213   0.806   3.774   2.801 -2.3847 -1.0698 -0.1349
 4860TIP3   OH236214   2.463   1.540   7.637  0.3391  0.9036  0.6036
 4860TIP3    H136215   2.419   1.465   7.597 -1.8585  2.5129 -0.1700
 4860TIP3    H236216   2.458   1.523   7.731  1.3159 -0.6469  0.4037
 4861TIP3   OH236217   4.909   5.026   2.705  0.7071  0.1086 -0.2629
 4861TIP3    H136218   4.841   4.960   2.715 -0.7749  0.8930 -3.7683
 4861TIP3    H236219   4.898   5.084   2.781 -0.2327 -1.6372  1.0164
 4862TIP3   OH236220   0.843   2.806   0.756  0.2143  0.1097 -0.1021
 4862TIP3    H136221   0.750   2.828   0.749 -0.8285 -3.2799  0.9648
 4862TIP3    H236222   0.872   2.846   0.838  0.0265  2.0549 -0.9521
 4863TIP3   OH236223   3.225   6.600   7.522  0.0135  0.1714 -0.0489
 4863TIP3    H136224   3.287   6.652   7.472  1.3488 -0.7555  0.5955
 4863TIP3    H236225   3.273   6.573   7.601 -0.6872 -1.7831 -0.2234
 4864TIP3   OH236226   5.631   0.719   7.050  0.3016 -0.0210  0.4608
 4864TIP3    H136227   5.709   0.707   6.996  0.4143  0.9086  0.4029
 4864TIP3    H236228   5.599   0.631   7.065 -0.0672 -0.2815 -1.6252
 4865TIP3   OH236229   2.132   3.193   6.516  0.1031 -0.0399  0.0483
 4865TIP3    H136230   2.108   3.103   6.537  1.3190 -0.6399 -1.0535
 4865TIP3    H236231   2.217   3.187   6.473 -0.2350  1.5318 -0.9525
 4866TIP3   OH236232   0.108   4.376   2.138  0.3705  0.2711 -0.6689
 4866TIP3    H136233   0.085   4.446   2.077  0.3080  1.8751  1.1168
 4866TIP3    H236234   0.202   4.363   2.125  0.2410  0.1380 -1.5294
 4867TIP3   OH236235   3.164   2.460   0.411 -0.2949  0.5264  0.0749
 4867TIP3    H136236   3.201   2.423   0.331  0.2826  2.0229 -0.3790
 4867TIP3    H236237   3.240   2.486   0.463 -0.6152 -1.6508  1.7752
 4868TIP3   OH236238   2.630   1.489   0.799 -0.2719 -0.5179 -0.1715
 4868TIP3    H136239   2.675   1.512   0.880  0.1222  2.0412 -1.0003
 4868TIP3    H236240   2.537   1.507   0.817 -0.2408 -0.3936 -0.1306
 4869TIP3   OH236241   4.835   1.453   8.558 -0.3620  0.3868  0.3217
 4869TIP3    H136242   4.930   1.464   8.558 -0.1080 -1.4168  0.9640
 4869TIP3    H236243   4.810   1.458   8.466  0.1665  2.0335  0.2354
 4870TIP3   OH236244   5.072   2.520   0.125 -0.1348 -0.5599  0.7323
 4870TIP3    H136245   4.981   2.502   0.103 -0.5280  1.3431  0.5969
 4870TIP3    H236246   5.085   2.478   0.210 -1.5516  0.2184  1.3700
 4871TIP3   OH236247   2.846   5.719   2.042  0.5399 -0.4551  0.0602
 4871TIP3    H136248   2.901   5.675   2.107 -0.0432 -0.6651  0.4310
 4871TIP3    H236249   2.867   5.676   1.959 -0.2598 -1.6998  0.4641
 4872TIP3   OH236250   2.454   5.571   2.166 -0.5331  0.3084  0.1275
 4872TIP3    H136251   2.427   5.644   2.221  1.4602  2.1522 -1.1904
 4872TIP3    H236252   2.531   5.535   2.209 -0.8298 -0.3129  0.1587
 4873TIP3   OH236253   0.936   1.260   0.777 -0.3786 -0.4400  0.0489
 4873TIP3    H136254   0.944   1.299   0.690 -2.5698  1.4318  0.5863
 4873TIP3    H236255   0.862   1.200   0.770 -1.1263  0.3560  0.7630
 4874TIP3   OH236256   0.624   4.018   2.508 -0.8096 -0.4129 -0.4947
 4874TIP3    H136257   0.685   3.950   2.479 -1.1074 -1.3487  0.9460
 4874TIP3    H236258   0.541   3.995   2.467 -1.0299 -1.2403  0.3829
 4875TIP3   OH236259   0.052   6.534   1.931  0.0738 -0.2707 -0.0677
 4875TIP3    H136260   0.118   6.464   1.931  1.4912  0.9727 -1.9974
 4875TIP3    H236261   0.098   6.610   1.896 -1.5041  1.5891  1.6516
 4876TIP3   OH236262   1.289   1.665   7.009 -0.0863  0.4513 -1.0723
 4876TIP3    H136263   1.350   1.723   6.965  0.2925  0.3279 -0.7165
 4876TIP3    H236264   1.214   1.721   7.031 -0.0887  0.6078 -1.4793
 4877TIP3   OH236265   0.399   2.627   7.160 -0.2328  0.5613 -0.8439
 4877TIP3    H136266   0.335   2.563   7.128 -0.0975  0.9378 -1.8755
 4877TIP3    H236267   0.348   2.706   7.176 -0.3401  0.3190  0.1281
 4878TIP3   OH236268   2.923   0.734   0.556  0.0812 -0.2611  0.2351
 4878TIP3    H136269   2.888   0.653   0.592  0.4025 -0.1719  0.7547
 4878TIP3    H236270   2.846   0.787   0.537 -0.0878 -0.2611  0.9037
 4879TIP3   OH236271   6.722   1.394   2.842  0.1977  0.2348  0.7679
 4879TIP3    H136272   6.710   1.485   2.869  1.1993  0.1045  1.6962
 4879TIP3    H236273   6.773   1.399   2.762 -2.9006  0.6306 -1.3626
 4880TIP3   OH236274   0.555   2.098   1.160 -0.3349 -0.1634 -0.0247
 4880TIP3    H136275   0.547   2.165   1.092 -1.4649  0.4595  0.6825
 4880TIP3    H236276   0.611   2.139   1.226  2.2600 -1.4219 -1.2852
 4881TIP3   OH236277   0.840   2.533   8.348 -0.0659  0.3445 -0.0278
 4881TIP3    H136278   0.764   2.474   8.341  0.5917 -0.6547  0.8513
 4881TIP3    H236279   0.804   2.613   8.386 -1.2528  1.1301 -2.5946
 4882TIP3   OH236280   3.469   0.830   1.507  0.2541  0.1052 -0.2498
 4882TIP3    H136281   3.428   0.744   1.501  0.8256 -0.1474 -0.6020
 4882TIP3    H236282   3.488   0.855   1.417  0.4556  0.4239 -0.1246
 4883TIP3   OH236283   0.333   4.247   1.829 -0.0677  0.2023 -0.0037
 4883TIP3    H136284   0.333   4.250   1.733  0.5904 -4.1267 -0.3450
 4883TIP3    H236285   0.240   4.243   1.852 -0.2207 -0.9701 -0.7157
 4884TIP3   OH236286   1.102   6.573   2.474  0.3103 -0.2739  0.3363
 4884TIP3    H136287   1.123   6.531   2.557  0.1169 -1.1887 -0.0716
 4884TIP3    H236288   1.147   6.658   2.479  0.9600 -0.6431  1.0356
 4885TIP3   OH236289   6.470   3.578   8.371  0.4751 -0.0796 -0.2289
 4885TIP3    H136290   6.559   3.555   8.398  0.2930  0.9300  1.3940
 4885TIP3    H236291   6.445   3.650   8.429 -1.5024 -0.5175 -0.4418
 4886TIP3   OH236292   6.147   4.501   7.567  0.6623 -0.2201 -0.7289
 4886TIP3    H136293   6.138   4.430   7.631  0.7282 -0.0354 -0.5135
 4886TIP3    H236294   6.162   4.579   7.620  0.6569 -0.0557 -0.9688
 4887TIP3   OH236295   1.194   2.252   0.700 -0.3557  0.0090 -0.1747
 4887TIP3    H136296   1.218   2.230   0.610 -1.3946  0.5255 -0.5912
 4887TIP3    H236297   1.259   2.317   0.727 -0.0077 -0.1905 -0.5308
 4888TIP3   OH236298   6.621   5.605   6.993 -0.1312 -0.0326  0.3030
 4888TIP3    H136299   6.579   5.688   7.017 -0.6968  0.2352 -1.4434
 4888TIP3    H236300   6.712   5.629   6.975 -0.2376  0.1677  0.0277
 4889TIP3   OH236301   0.323   5.885   1.074  0.4953 -0.2186 -0.5847
 4889TIP3    H136302   0.416   5.872   1.094  0.6205  2.0903  0.5975
 4889TIP3    H236303   0.279   5.815   1.123  1.4881 -0.3577  0.1492
 4890TIP3   OH236304   6.793   6.738   0.269  0.1655 -0.2940  0.4127
 4890TIP3    H136305   6.850   6.813   0.256 -0.4724  0.1607  0.1619
 4890TIP3    H236306   6.840   6.665   0.229  0.2084  0.2407 -0.5687
 4891TIP3   OH236307   2.563   0.264   7.901  0.3593 -0.1523  0.8020
 4891TIP3    H136308   2.563   0.294   7.810 -2.8383 -2.1127 -0.0145
 4891TIP3    H236309   2.542   0.342   7.952 -0.5444  0.4731 -0.4691
 4892TIP3   OH236310   5.789   0.388   1.124 -0.3506  0.0780  0.3147
 4892TIP3    H136311   5.844   0.315   1.096  0.2955 -0.4778  2.7423
 4892TIP3    H236312   5.802   0.455   1.057  1.4110 -0.9399 -0.4339
 4893TIP3   OH236313   1.348   0.497   7.598  0.7488 -0.4345  0.9134
 4893TIP3    H136314   1.300   0.503   7.516  0.4831 -0.0587  1.0922
 4893TIP3    H236315   1.436   0.469   7.573  0.6922 -0.2403  0.4945
 4894TIP3   OH236316   5.308   4.582   0.317 -0.1383  0.5273 -0.2557
 4894TIP3    H136317   5.331   4.674   0.332  1.0785  0.0255  1.2168
 4894TIP3    H236318   5.272   4.553   0.401 -0.4318 -0.3791 -0.6824
 4895TIP3   OH236319   2.144   4.107   7.396 -0.1473  0.0071 -0.0905
 4895TIP3    H136320   2.121   4.169   7.326  0.7797 -1.0259 -1.3798
 4895TIP3    H236321   2.145   4.022   7.353 -2.2133 -1.0751  1.8343
 4896TIP3   OH236322   3.067   1.752   7.662 -0.4092  0.0544  0.1617
 4896TIP3    H136323   3.139   1.733   7.601  0.8347 -0.3426  1.6899
 4896TIP3    H236324   2.991   1.768   7.606  1.0937  1.6053 -1.5785
 4897TIP3   OH236325   4.904   1.295   0.188 -0.8750 -0.2727 -0.1189
 4897TIP3    H136326   4.937   1.214   0.149 -1.1684 -0.8672  0.8448
 4897TIP3    H236327   4.936   1.294   0.278 -1.7099  0.1814  0.1994
 4898TIP3   OH236328   3.726   5.583   1.205 -0.4757  0.1562 -0.6124
 4898TIP3    H136329   3.780   5.632   1.267 -0.0164 -0.3808 -0.5813
 4898TIP3    H236330   3.715   5.497   1.245 -0.0806 -0.2353 -1.3161
 4899TIP3   OH236331   3.602   4.775   0.362  0.1256 -0.2627 -0.0822
 4899TIP3    H136332   3.675   4.826   0.397 -0.7561  1.2228 -0.3372
 4899TIP3    H236333   3.528   4.799   0.416 -0.9089  0.8637 -1.8941
 4900TIP3   OH236334   2.309   5.398   8.075 -0.5396 -0.0478  0.0639
 4900TIP3    H136335   2.331   5.486   8.045 -0.4580 -0.5644 -1.4639
 4900TIP3    H236336   2.214   5.395   8.076 -0.5481  0.2119  0.6428
 4901TIP3   OH236337   0.254   3.794   8.565  0.3435 -0.0584 -0.0066
 4901TIP3    H136338   0.282   3.718   8.617 -1.1744 -0.2234  0.6140
 4901TIP3    H236339   0.286   3.869   8.614  0.6509 -0.2611  0.1109
 4902TIP3   OH236340   2.934   6.095   8.123  0.0201  0.2508 -0.4293
 4902TIP3    H136341   2.974   6.175   8.158 -0.9516 -0.2058  1.8688
 4902TIP3    H236342   2.852   6.125   8.083 -2.0875  0.1814  3.4003
 4903TIP3   OH236343   5.529   3.549   7.106  0.0583 -0.5450  0.6440
 4903TIP3    H136344   5.566   3.586   7.025 -1.8322  0.8911  0.3763
 4903TIP3    H236345   5.456   3.495   7.077 -1.9986  1.6424  1.3766
 4904TIP3   OH236346   2.984   3.756   6.481  0.3761  0.2691 -0.1367
 4904TIP3    H136347   3.037   3.800   6.414 -1.5243  0.6714 -1.4970
 4904TIP3    H236348   2.897   3.748   6.440 -0.6820 -0.1168  2.0405
 4905TIP3   OH236349   3.564   4.416   1.656 -0.2124 -0.2508 -0.2906
 4905TIP3    H136350   3.478   4.396   1.617  0.4291 -2.7519 -0.5655
 4905TIP3    H236351   3.546   4.426   1.749 -1.0894  1.3995 -0.5915
 4906TIP3   OH236352   1.872   0.283   8.053 -0.2378 -0.1012 -0.2669
 4906TIP3    H136353   1.955   0.237   8.042 -0.3060 -0.3019  0.0265
 4906TIP3    H236354   1.826   0.270   7.971  0.1749  0.3321 -0.5740
 4907TIP3   OH236355   3.670   6.784   7.094 -0.0349  0.0059 -0.1112
 4907TIP3    H136356   3.629   6.795   7.180 -0.5581  0.7156 -0.4406
 4907TIP3    H236357   3.600   6.750   7.038  0.3791 -0.7246 -0.1958
 4908TIP3   OH236358   3.712   4.325   8.772  0.3571 -0.0837 -0.4530
 4908TIP3    H136359   3.716   4.369   8.856 -0.0370  0.3683 -0.6698
 4908TIP3    H236360   3.738   4.391   8.708 -0.0610 -0.2113 -0.7611
 4909TIP3   OH236361   2.132   3.829   2.570  0.5775 -0.3463  0.2968
 4909TIP3    H136362   2.215   3.855   2.610  0.1519  0.4640  0.6662
 4909TIP3    H236363   2.094   3.910   2.539 -0.8094 -0.5018  1.5233
 4910TIP3   OH236364   0.398   0.744   1.100 -0.4737  0.2365  0.0461
 4910TIP3    H136365   0.335   0.686   1.058  0.7071 -1.3901  0.4468
 4910TIP3    H236366   0.422   0.700   1.181 -1.5564  2.5974  1.7906
 4911TIP3   OH236367   6.215   5.083   7.093 -0.6957 -0.1514  0.0988
 4911TIP3    H136368   6.149   5.039   7.040  1.1956  0.2693 -2.8763
 4911TIP3    H236369   6.166   5.125   7.164 -3.3897 -0.9907 -1.1395
 4912TIP3   OH236370   3.450   3.329   7.799 -0.4442 -0.3670 -0.0129
 4912TIP3    H136371   3.514   3.366   7.739 -0.2458 -1.0019 -0.1992
 4912TIP3    H236372   3.501   3.272   7.857 -0.9266 -1.5544 -0.7021
 4913TIP3   OH236373   2.028   0.727   1.985 -0.5719  0.1185  0.0541
 4913TIP3    H136374   2.077   0.650   1.956 -0.6735  0.1096 -0.0945
 4913TIP3    H236375   2.025   0.719   2.080 -0.8162 -0.2055  0.0222
 4914TIP3   OH236376   5.902   1.821   2.361  0.1189  0.4299  0.3049
 4914TIP3    H136377   5.952   1.898   2.386  0.2516  0.4666 -0.0686
 4914TIP3    H236378   5.817   1.833   2.403  0.6883 -0.0436  1.6472
 4915TIP3   OH236379   0.215   1.763   2.502 -0.2600 -0.4899 -0.8891
 4915TIP3    H136380   0.128   1.794   2.475 -0.0075 -0.3450 -1.5495
 4915TIP3    H236381   0.267   1.843   2.511 -0.3229 -0.5330  0.0216
 4916TIP3   OH236382   4.318   5.451   0.893 -0.4054 -0.6563  0.4035
 4916TIP3    H136383   4.266   5.384   0.938  1.3880 -1.4370  1.4067
 4916TIP3    H236384   4.347   5.510   0.962  0.4360 -0.5057 -0.0630
 4917TIP3   OH236385   0.331   0.815   7.490 -0.7244  0.1590 -0.2200
 4917TIP3    H136386   0.347   0.760   7.566  0.3527 -2.1872 -2.0213
 4917TIP3    H236387   0.266   0.879   7.520 -1.4116 -1.5547  2.2413
 4918TIP3   OH236388   3.941   6.793   0.461  0.0927  0.1284 -0.4980
 4918TIP3    H136389   3.989   6.727   0.512 -1.8230 -1.4855 -0.6618
 4918TIP3    H236390   3.920   6.862   0.525 -1.7124 -1.5475  0.8361
 4919TIP3   OH236391   5.058   2.843   0.689 -0.1143  0.1844  0.3664
 4919TIP3    H136392   5.072   2.832   0.595 -0.4867  0.2405  0.3012
 4919TIP3    H236393   5.021   2.931   0.697 -1.1553 -0.2498  0.4455
 4920TIP3   OH236394   1.357   1.206   1.157 -1.0430  0.1404 -0.0220
 4920TIP3    H136395   1.450   1.206   1.132 -0.7822 -3.0757  0.5635
 4920TIP3    H236396   1.311   1.181   1.077 -1.4423  1.4829 -0.2424
 4921TIP3   OH236397   5.504   6.103   1.294 -0.0719 -0.4810 -0.3496
 4921TIP3    H136398   5.492   6.045   1.369  0.4620 -0.6853 -0.4222
 4921TIP3    H236399   5.452   6.062   1.224 -1.3910  0.2378  0.1714
 4922TIP3   OH236400   5.467   2.583   2.021 -0.1360 -0.3852  0.0771
 4922TIP3    H136401   5.485   2.669   2.057  1.8942 -0.0772 -1.4955
 4922TIP3    H236402   5.485   2.522   2.093  0.3636  0.4001  0.6228
 4923TIP3   OH236403   2.267   0.135   2.301 -0.3184  0.2823 -0.6807
 4923TIP3    H136404   2.251   0.046   2.334  0.6976 -0.1931 -1.4104
 4923TIP3    H236405   2.302   0.182   2.377  0.1711 -0.2537 -0.5630
 4924TIP3   OH236406   6.299   6.438   0.405 -0.4723 -0.1709 -0.1528
 4924TIP3    H136407   6.211   6.463   0.378 -0.3556 -0.4625 -0.8173
 4924TIP3    H236408   6.300   6.343   0.399 -0.5272 -0.2746  1.1691
 4925TIP3   OH236409   5.685   3.063   8.489 -0.2922  0.0817 -0.3696
 4925TIP3    H136410   5.680   3.088   8.397  1.8322 -0.0456 -0.5735
 4925TIP3    H236411   5.717   2.973   8.488 -1.4301 -0.3594  0.4926
 4926TIP3   OH236412   6.121   2.147   1.582 -0.1989  0.1248 -0.0816
 4926TIP3    H136413   6.105   2.115   1.671  0.1311  3.3459  1.3013
 4926TIP3    H236414   6.176   2.225   1.595  2.5434 -1.0406 -3.3940
 4927TIP3   OH236415   5.427   2.172   0.417 -0.6670 -0.0713  0.0831
 4927TIP3    H136416   5.415   2.267   0.421  0.4746  0.0297  2.0891
 4927TIP3    H236417   5.519   2.157   0.438 -0.7324 -1.6256 -0.5357
 4928TIP3   OH236418   4.768   5.192   2.216 -0.5154 -0.1060  0.1646
 4928TIP3    H136419   4.840   5.199   2.153  0.5297  0.2429  1.3513
 4928TIP3    H236420   4.743   5.283   2.234 -0.3763 -0.1706  0.7114
 4929TIP3   OH236421   0.675   0.726   0.541  0.1732 -0.1810  0.0453
 4929TIP3    H136422   0.594   0.679   0.561 -0.2338  0.7718  0.7317
 4929TIP3    H236423   0.659   0.815   0.571  1.6111 -0.0547  0.5180
 4930TIP3   OH236424   0.997   5.245   2.182 -0.3417 -0.3527 -0.0134
 4930TIP3    H136425   1.040   5.324   2.214 -1.6929 -0.0145  1.0382
 4930TIP3    H236426   1.029   5.175   2.239 -2.1192  0.1144  1.6554
 4931TIP3   OH236427   0.100   5.798   7.915  0.4385  0.0865 -0.2277
 4931TIP3    H136428   0.028   5.860   7.920  0.6552  0.3172  0.0496
 4931TIP3    H236429   0.133   5.791   8.005 -0.8497 -1.9515  0.1494
 4932TIP3   OH236430   2.727   5.330   2.104  0.1662  0.5059  0.4095
 4932TIP3    H136431   2.652   5.336   2.163 -0.5305 -0.5223 -0.3229
 4932TIP3    H236432   2.767   5.245   2.124 -0.3902 -0.0988 -0.9076
 4933TIP3   OH236433   5.100   4.221   0.688 -0.0988 -0.7165  0.4920
 4933TIP3    H136434   5.069   4.139   0.726  0.4966 -0.8788  0.6347
 4933TIP3    H236435   5.021   4.261   0.651 -0.7639 -0.3616  2.2144
 4934TIP3   OH236436   2.325   5.963   7.623  0.6330  0.6415 -0.2943
 4934TIP3    H136437   2.320   5.984   7.529 -0.3706 -1.5897 -0.8045
 4934TIP3    H236438   2.373   5.880   7.626  2.6125  1.7323  1.4130
 4935TIP3   OH236439   2.919   0.661   0.100 -0.0559 -0.2440 -0.6082
 4935TIP3    H136440   2.914   0.749   0.063 -0.3666  0.6329  1.3707
 4935TIP3    H236441   3.003   0.626   0.069  0.5734  1.1726 -0.5461
 4936TIP3   OH236442   3.206   3.696   7.080 -0.1379 -0.2507  0.4973
 4936TIP3    H136443   3.144   3.635   7.119 -0.0462 -0.5887  0.1208
 4936TIP3    H236444   3.203   3.773   7.136 -2.2869  0.5130 -0.5482
 4937TIP3   OH236445   2.720   5.841   6.993  0.0250  0.3581  0.1771
 4937TIP3    H136446   2.800   5.844   7.044  0.0592  2.2387  0.0833
 4937TIP3    H236447   2.729   5.763   6.938  1.6704  0.4107  0.3418
 4938TIP3   OH236448   0.235   5.696   1.775 -0.8318 -0.1109  0.7342
 4938TIP3    H136449   0.272   5.774   1.815  0.7541 -0.9219  0.9143
 4938TIP3    H236450   0.155   5.726   1.732  0.8152  2.0676 -1.0475
 4939TIP3   OH236451   4.932   5.770   7.401 -0.0128  0.1121  0.1704
 4939TIP3    H136452   5.024   5.765   7.373  0.1680  2.4324  0.0962
 4939TIP3    H236453   4.936   5.816   7.485 -1.1410  0.8515 -0.1632
 4940TIP3   OH236454   1.503   4.095   8.296 -0.1729 -0.3554  0.1685
 4940TIP3    H136455   1.411   4.105   8.322 -0.4778 -0.9684 -0.6098
 4940TIP3    H236456   1.539   4.031   8.357 -0.6851 -1.2423 -0.4219
 4941TIP3   OH236457   1.143   2.442   8.076  0.6955 -0.3581  0.4596
 4941TIP3    H136458   1.093   2.364   8.099 -1.8445  0.4920 -1.5615
 4941TIP3    H236459   1.098   2.514   8.122  1.4033  0.2000  0.2966
 4942TIP3   OH236460   4.240   5.326   8.625 -0.1670 -0.2235  0.0970
 4942TIP3    H136461   4.285   5.374   8.695 -0.4595 -0.8668  0.7380
 4942TIP3    H236462   4.302   5.327   8.552  1.1500 -1.5458  1.1221
 4943TIP3   OH236463   1.629   5.449   0.877  0.1601 -0.0429  0.1440
 4943TIP3    H136464   1.652   5.439   0.785 -1.6918 -1.9367 -0.1697
 4943TIP3    H236465   1.650   5.365   0.917 -0.7851  0.1275  1.0477
 4944TIP3   OH236466   3.629   2.328   0.949 -0.2603  0.1282 -0.5038
 4944TIP3    H136467   3.583   2.349   1.031 -1.2167  0.6565 -1.1536
 4944TIP3    H236468   3.564   2.343   0.881  0.9842  1.2252 -1.4994
 4945TIP3   OH236469   1.642   1.320   1.617 -0.6189  0.1970 -0.4225
 4945TIP3    H136470   1.594   1.313   1.700 -1.3333  1.9311 -0.6267
 4945TIP3    H236471   1.636   1.233   1.578 -1.6020 -0.2481  0.6526
 4946TIP3   OH236472   6.566   1.605   8.283  0.3150  0.0977  0.1474
 4946TIP3    H136473   6.565   1.553   8.203  0.4976 -0.0864  0.2634
 4946TIP3    H236474   6.516   1.684   8.262  0.0668 -0.1127 -0.0363
 4947TIP3   OH236475   1.960   5.567   8.529  0.5456  0.0305 -0.6834
 4947TIP3    H136476   2.045   5.606   8.547 -0.0541  0.8415  0.4637
 4947TIP3    H236477   1.967   5.477   8.561  0.3448  0.6802  1.3170
 4948TIP3   OH236478   6.409   3.572   0.629 -0.0768  0.2066  0.4517
 4948TIP3    H136479   6.359   3.500   0.590 -0.9488  1.0874 -0.0853
 4948TIP3    H236480   6.410   3.552   0.723  1.2400 -1.4277  0.1487
 4949TIP3   OH236481   4.924   0.662   8.490  0.2844  0.2538  0.1544
 4949TIP3    H136482   4.972   0.738   8.521  2.2742  0.1234 -2.2872
 4949TIP3    H236483   4.860   0.697   8.427  0.1136  0.0478  0.2104
 4950TIP3   OH236484   5.809   3.328   1.260 -0.7326 -0.2274  0.1802
 4950TIP3    H136485   5.781   3.413   1.228  3.0600  1.1111  0.0103
 4950TIP3    H236486   5.796   3.332   1.355 -2.4756 -0.3426 -0.0130
 4951TIP3   OH236487   4.077   3.136   1.768 -0.0576 -0.0244  1.0120
 4951TIP3    H136488   4.006   3.151   1.706  1.2276  0.1656 -0.4616
 4951TIP3    H236489   4.052   3.185   1.846 -1.1186  0.7423  0.2113
 4952TIP3   OH236490   0.023   5.358   7.211 -0.0092 -0.6140 -0.8922
 4952TIP3    H136491   0.062   5.319   7.133 -0.7699 -2.2370 -0.4887
 4952TIP3    H236492  -0.044   5.418   7.177  0.7507 -0.1029 -1.5069
 4953TIP3   OH236493   1.510   3.268   8.388 -0.0997 -0.3990 -0.0965
 4953TIP3    H136494   1.518   3.183   8.343  0.4882  0.1833 -1.1343
 4953TIP3    H236495   1.574   3.263   8.459 -0.6823 -1.1425  0.4010
 4954TIP3   OH236496   4.918   6.245   0.391  0.4039 -0.0211  0.6702
 4954TIP3    H136497   4.948   6.209   0.474  1.2881 -0.2587  0.2565
 4954TIP3    H236498   4.863   6.175   0.353 -1.0807  0.5830  1.6226
 4955TIP3   OH236499   2.665   1.644   6.512 -0.4709  0.1281 -0.3344
 4955TIP3    H136500   2.758   1.664   6.512 -0.3932 -0.0857  1.1530
 4955TIP3    H236501   2.657   1.569   6.571 -1.7424  1.1037  0.8105
 4956TIP3   OH236502   5.018   0.142   8.501  0.0264 -0.1709 -0.6870
 4956TIP3    H136503   5.007   0.235   8.520  0.5177 -0.1157 -0.6651
 4956TIP3    H236504   5.107   0.121   8.531 -0.4105 -0.8663  0.1856
 4957TIP3   OH236505   2.541   6.210   0.969  0.4705  0.0179 -0.1463
 4957TIP3    H136506   2.627   6.251   0.979 -0.0695  0.9808  0.7049
 4957TIP3    H236507   2.529   6.159   1.049 -0.1624  0.6783  0.1863
 4958TIP3   OH236508   2.005   2.034   8.813  0.0858 -0.1411 -0.0749
 4958TIP3    H136509   2.031   2.010   8.902  0.7763 -0.0065 -0.2316
 4958TIP3    H236510   1.922   2.079   8.824  1.1765  1.8231  0.7745
 4959TIP3   OH236511   6.730   5.424   1.711 -0.4554 -0.1883  0.0155
 4959TIP3    H136512   6.680   5.464   1.640 -1.6164 -0.7838  0.4684
 4959TIP3    H236513   6.722   5.329   1.695 -1.0202 -0.3403  1.1109
 4960TIP3   OH236514   4.100   6.460   7.876  0.1361 -0.1408  0.2442
 4960TIP3    H136515   4.121   6.366   7.879  1.3556  0.1259  0.4897
 4960TIP3    H236516   4.086   6.478   7.783  1.1189 -0.3092  0.0620
 4961TIP3   OH236517   3.360   5.942   2.182  0.0467 -0.4172 -0.4002
 4961TIP3    H136518   3.367   6.036   2.165 -0.2540 -0.4959 -0.9855
 4961TIP3    H236519   3.340   5.936   2.276  0.6138  0.0764 -0.2406
 4962TIP3   OH236520   4.925   1.772   1.694 -0.0602  0.3870 -0.1241
 4962TIP3    H136521   4.935   1.733   1.607 -1.4075  0.2125 -0.2228
 4962TIP3    H236522   4.922   1.866   1.678 -0.3093  0.3554 -0.2781
 4963TIP3   OH236523   6.042   3.926   8.504 -0.3090 -0.1899  0.0321
 4963TIP3    H136524   6.094   3.889   8.575  0.2909  1.7737  0.6775
 4963TIP3    H236525   5.961   3.955   8.546 -1.1984 -1.5709 -0.6433
 4964TIP3   OH236526   3.647   1.897   7.642  0.2443 -0.1811  0.6655
 4964TIP3    H136527   3.563   1.872   7.680 -1.8092 -0.8538 -3.7398
 4964TIP3    H236528   3.654   1.991   7.658 -0.5208 -0.3674  2.3534
 4965TIP3   OH236529   2.200   6.714   7.434  0.1211  0.4253 -0.1280
 4965TIP3    H136530   2.170   6.776   7.368 -3.0013 -1.4958 -0.7541
 4965TIP3    H236531   2.272   6.667   7.392 -0.4138  0.6672 -1.3714
 4966TIP3   OH236532   0.981   5.829   2.706 -0.6845  0.4819  0.4916
 4966TIP3    H136533   0.906   5.866   2.753 -0.6798 -2.3675  3.0693
 4966TIP3    H236534   1.056   5.879   2.736 -1.2361  1.7264 -0.1567
 4967TIP3   OH236535   6.780   3.029   1.067  0.5924  0.6413  0.1703
 4967TIP3    H136536   6.726   3.015   1.145  3.2605 -1.2946  1.8640
 4967TIP3    H236537   6.833   3.106   1.088  2.5125 -0.8478  1.1529
 4968TIP3   OH236538   5.413   4.846   7.634 -0.6670  0.1853  0.3556
 4968TIP3    H136539   5.437   4.796   7.711  1.2258  0.1185 -0.2284
 4968TIP3    H236540   5.449   4.933   7.649 -2.0772  0.7748  0.4290
 4969TIP3   OH236541   3.139   6.508   8.390 -0.0423 -0.3818  0.7607
 4969TIP3    H136542   3.115   6.574   8.455  0.4855  0.1555  0.4182
 4969TIP3    H236543   3.215   6.545   8.345 -0.8215 -0.4220 -0.6347
 4970TIP3   OH236544   5.716   1.708   1.759 -0.4169  0.2087 -0.4230
 4970TIP3    H136545   5.747   1.718   1.669  0.3212  0.5466 -0.1394
 4970TIP3    H236546   5.677   1.793   1.780  0.2307  0.4343 -0.1199
 4971TIP3   OH236547   3.637   0.957   8.499  0.2579 -0.7909  0.0204
 4971TIP3    H136548   3.692   0.894   8.545  0.4147 -1.1440 -0.6477
 4971TIP3    H236549   3.690   1.036   8.494  0.4111 -0.8925  0.0485
 4972TIP3   OH236550   1.453   1.792   0.394  0.0222  0.5869  0.1529
 4972TIP3    H136551   1.521   1.858   0.411  0.4506 -0.3465  2.2923
 4972TIP3    H236552   1.466   1.726   0.462 -0.1168 -1.9944 -2.1638
 4973TIP3   OH236553   5.364   3.189   0.936 -0.1759 -0.6217 -0.0272
 4973TIP3    H136554   5.330   3.156   0.853 -1.3223 -0.1086  0.2169
 4973TIP3    H236555   5.399   3.112   0.980  1.6989 -0.6918 -1.5450
 4974TIP3   OH236556   2.442   1.508   7.896 -0.2358  0.3133 -0.0983
 4974TIP3    H136557   2.391   1.566   7.953  1.2964  1.2923  0.3590
 4974TIP3    H236558   2.511   1.475   7.954  0.2004 -0.2158 -0.9183
 4975TIP3   OH236559   0.854   2.483   1.801 -0.2037 -0.1813  0.2227
 4975TIP3    H136560   0.808   2.435   1.732 -0.9619 -0.2778  0.7813
 4975TIP3    H236561   0.875   2.416   1.866  0.3204 -0.0546  0.1895
 4976TIP3   OH236562   2.025   1.382   7.522  0.5048 -0.4211 -0.3075
 4976TIP3    H136563   1.972   1.346   7.594  1.2843 -1.1023 -0.0603
 4976TIP3    H236564   2.098   1.320   7.513  1.7217  0.9301 -0.0757
 4977TIP3   OH236565   6.358   5.102   0.192 -0.9562  0.1004 -0.3502
 4977TIP3    H136566   6.423   5.033   0.178 -0.1980  0.6746  0.2332
 4977TIP3    H236567   6.297   5.093   0.119 -0.9097 -1.2200 -0.2514
 4978TIP3   OH236568   6.215   3.073   0.293 -0.4886 -0.1480  0.0874
 4978TIP3    H136569   6.183   2.985   0.274  0.5058 -0.6200  0.4776
 4978TIP3    H236570   6.224   3.075   0.389 -0.2002  0.2584  0.0574
 4979TIP3   OH236571   4.586   0.910   1.706 -0.3384  0.3542 -0.4086
 4979TIP3    H136572   4.570   0.887   1.797  3.5586 -1.2760  0.0542
 4979TIP3    H236573   4.613   1.002   1.709  0.8508  0.0109  0.3340
 4980TIP3   OH236574   0.289   5.979   7.825  0.1475  0.6530  0.3587
 4980TIP3    H136575   0.218   5.920   7.853  1.6985 -0.6419  1.8226
 4980TIP3    H236576   0.365   5.922   7.819  0.9292  1.8523 -2.0178
 4981TIP3   OH236577   1.948   4.977   0.140  0.1185  0.2819 -0.2460
 4981TIP3    H136578   1.983   4.973   0.051 -0.9809  3.0706 -0.9124
 4981TIP3    H236579   2.025   4.976   0.196  0.8357 -1.3540 -1.1940
 4982TIP3   OH236580   3.705   6.279   7.386  0.0478 -0.3613  0.5303
 4982TIP3    H136581   3.759   6.315   7.457  1.2713 -0.3453 -0.3678
 4982TIP3    H236582   3.638   6.345   7.371  2.0777  1.5209 -0.8897
 4983TIP3   OH236583   4.687   4.670   0.850 -0.4738 -0.5768  0.1482
 4983TIP3    H136584   4.754   4.602   0.850 -1.1228 -1.2548  1.0972
 4983TIP3    H236585   4.604   4.622   0.844 -0.9449  0.1204  0.7907
 4984TIP3   OH236586   5.640   4.096   1.345 -0.0741 -0.0754 -0.3618
 4984TIP3    H136587   5.584   4.091   1.268  0.4237  0.7457 -0.7889
 4984TIP3    H236588   5.725   4.063   1.315  0.3527  1.0335 -0.4020
 4985TIP3   OH236589   2.841   1.767   2.872  0.1024  0.1404  0.1269
 4985TIP3    H136590   2.899   1.818   2.929 -1.2974 -0.7962  2.5549
 4985TIP3    H236591   2.791   1.832   2.824  2.4062  0.9654 -1.3147
 4986TIP3   OH236592   3.312   0.063   8.694  0.2316  0.1859 -0.6362
 4986TIP3    H136593   3.355   0.147   8.712 -1.2285  0.5548  1.5630
 4986TIP3    H236594   3.384   0.000   8.687  1.2649  1.2585 -0.0640
 4987TIP3   OH236595   6.564   1.287   8.698  0.3008 -0.1552 -0.2060
 4987TIP3    H136596   6.568   1.318   8.607  0.8760  0.4160  0.0084
 4987TIP3    H236597   6.552   1.366   8.750  0.9315 -0.3781  0.2886
 4988TIP3   OH236598   1.266   1.535   1.594 -0.4353 -0.0008 -0.5905
 4988TIP3    H136599   1.200   1.472   1.567 -1.2383  0.2446  0.7164
 4988TIP3    H236600   1.313   1.556   1.514 -0.9302 -1.3427 -1.2660
 4989TIP3   OH236601   0.597   3.103   0.153 -0.0353  0.1026  0.2606
 4989TIP3    H136602   0.579   3.126   0.062  1.4531  1.5431  0.2776
 4989TIP3    H236603   0.511   3.084   0.191 -0.8846  1.3266 -0.9777
 4990TIP3   OH236604   1.315   2.999   2.483  0.3682 -0.1927 -0.3577
 4990TIP3    H136605   1.262   3.071   2.516  0.7222 -0.2335  0.3126
 4990TIP3    H236606   1.401   3.012   2.520  0.6345 -0.5553 -0.8256
 4991TIP3   OH236607   6.502   2.056   2.125 -0.1179 -0.0719  0.1192
 4991TIP3    H136608   6.525   1.966   2.149 -1.2390 -0.6106 -0.7562
 4991TIP3    H236609   6.429   2.047   2.065  0.1667  1.4149 -0.4872
 4992TIP3   OH236610   6.650   1.989   1.774 -0.3028  0.2983 -0.0290
 4992TIP3    H136611   6.660   1.937   1.694  0.1838  2.4799 -1.4756
 4992TIP3    H236612   6.728   1.970   1.825  0.3380  0.3369 -0.9750
 4993TIP3   OH236613   3.590   6.691   7.918 -0.3571  0.2449 -0.6018
 4993TIP3    H136614   3.680   6.660   7.911 -0.9149 -2.6850  2.4623
 4993TIP3    H236615   3.552   6.678   7.831  1.4635 -1.0530 -1.2538
 4994TIP3   OH236616   0.820   1.124   0.307  0.2999  0.2282  0.0486
 4994TIP3    H136617   0.872   1.088   0.235 -0.1050 -2.3027  0.8968
 4994TIP3    H236618   0.729   1.118   0.275  0.1462 -0.5803  0.6094
 4995TIP3   OH236619   4.334   1.794   1.422 -0.3206  0.2880 -0.1679
 4995TIP3    H136620   4.343   1.810   1.328  0.3838 -0.5162 -0.2470
 4995TIP3    H236621   4.291   1.873   1.456  0.8468  1.2722 -0.9042
 4996TIP3   OH236622   0.694   3.790   8.022  0.7878  0.1232  0.5753
 4996TIP3    H136623   0.674   3.705   7.984 -1.3410  1.2660 -1.0960
 4996TIP3    H236624   0.700   3.775   8.116  0.1382 -1.8038  0.3397
 4997TIP3   OH236625   4.214   4.158   7.957  0.3535 -0.2842  0.2100
 4997TIP3    H136626   4.164   4.126   7.881  0.2908  1.9814 -0.7651
 4997TIP3    H236627   4.148   4.201   8.011  0.7491 -0.0818  0.5269
 4998TIP3   OH236628   1.779   2.913   0.802  0.1008 -0.1268 -0.3569
 4998TIP3    H136629   1.872   2.898   0.821  0.2729  1.4853  0.2514
 4998TIP3    H236630   1.776   2.922   0.707  1.1219  2.6988 -0.2316
 4999TIP3   OH236631   4.816   3.179   8.066  0.0197  0.0350  0.5455
 4999TIP3    H136632   4.888   3.222   8.112  2.1064  0.0723 -2.5208
 4999TIP3    H236633   4.854   3.102   8.026 -2.3056 -1.4227  0.9159
 5000TIP3   OH236634   3.994   5.313   0.474  0.5303  0.1769 -0.1333
 5000TIP3    H136635   4.034   5.233   0.439  0.0629 -0.8559  1.6063
 5000TIP3    H236636   4.057   5.346   0.537  0.5451  0.9938 -0.5606
 5001TIP3   OH236637   2.219   5.510   2.004  0.0713  0.0288  1.0582
 5001TIP3    H136638   2.278   5.493   1.931  1.1205  3.8857  0.8326
 5001TIP3    H236639   2.275   5.543   2.074 -1.5891  2.4901  1.3333
 5002TIP3   OH236640   4.166   6.507   2.317 -0.3717 -0.1208  0.0416
 5002TIP3    H136641   4.249   6.491   2.360  1.1489  2.0634 -1.7918
 5002TIP3    H236642   4.141   6.423   2.280  1.0775 -0.8112  0.5570
 5003TIP3   OH236643   1.859   2.331   7.787  0.0476  0.2499  0.4628
 5003TIP3    H136644   1.769   2.305   7.805  0.2093  0.1125  1.0748
 5003TIP3    H236645   1.884   2.278   7.711 -0.4220  0.3682  0.2223
 5004TIP3   OH236646   0.523   5.658   2.819  0.0525 -0.7569 -0.5541
 5004TIP3    H136647   0.462   5.611   2.875  0.0659 -2.6967 -2.0529
 5004TIP3    H236648   0.570   5.589   2.772  1.7456  0.7319 -1.1852
 5005TIP3   OH236649   0.872   1.381   1.867  0.4909 -0.5383 -0.0778
 5005TIP3    H136650   0.795   1.378   1.924  0.5872 -2.2101  0.0266
 5005TIP3    H236651   0.882   1.473   1.844 -1.1699 -0.2068  0.4078
 5006TIP3   OH236652   3.299   4.814   0.783 -0.2042  0.4212 -0.3654
 5006TIP3    H136653   3.255   4.738   0.744 -0.2906  0.2326  0.0980
 5006TIP3    H236654   3.241   4.841   0.854  0.7862 -0.2901  0.7476
 5007TIP3   OH236655   0.658   1.844   1.915 -0.1601 -0.0788 -0.2243
 5007TIP3    H136656   0.647   1.937   1.935  0.1195  0.0486 -0.6604
 5007TIP3    H236657   0.595   1.827   1.845  0.1762 -0.0897 -0.5253
 5008TIP3   OH236658   4.048   5.576   2.032  0.2311 -0.6296 -0.5532
 5008TIP3    H136659   3.963   5.609   2.005 -1.1473 -0.7056  3.1404
 5008TIP3    H236660   4.038   5.481   2.032  0.1247 -0.6292  0.2744
 5009TIP3   OH236661   6.054   6.011   0.715 -0.4395  0.0764  0.4329
 5009TIP3    H136662   6.032   5.938   0.657 -0.6449  0.1847  0.3753
 5009TIP3    H236663   6.023   6.089   0.669  0.1992  0.2486  0.2797
 5010TIP3   OH236664   2.889   2.913   1.548 -0.6332 -0.2561 -0.2863
 5010TIP3    H136665   2.846   2.873   1.624 -1.6898  0.5466 -0.4307
 5010TIP3    H236666   2.851   3.001   1.544  1.6436  0.8291  0.0764
 5011TIP3   OH236667   5.791   4.875   0.955  0.0825 -0.3342 -0.2259
 5011TIP3    H136668   5.773   4.862   0.862  0.5813 -1.3263 -0.1984
 5011TIP3    H236669   5.854   4.807   0.976  0.5135  0.3335  0.6802
 5012TIP3   OH236670   2.554   0.717   0.849 -0.1133 -0.3997 -0.0779
 5012TIP3    H136671   2.589   0.750   0.932  0.1934 -1.4994  0.2446
 5012TIP3    H236672   2.460   0.714   0.863 -0.1865  0.7549 -0.2714
 5013TIP3   OH236673   0.497   4.421   8.828 -0.4480 -0.1148 -0.1863
 5013TIP3    H136674   0.557   4.495   8.832 -0.8476  0.1546  2.3095
 5013TIP3    H236675   0.412   4.460   8.809 -0.4252 -0.1099 -0.2803
 5014TIP3   OH236676   5.734   4.350   2.077 -0.0687  0.4424 -0.6606
 5014TIP3    H136677   5.702   4.382   1.993  0.9151 -0.4143 -1.3910
 5014TIP3    H236678   5.797   4.282   2.054 -0.3753 -0.3636  0.7967
 5015TIP3   OH236679   4.121   3.502   8.119  0.3409 -0.0845 -0.3891
 5015TIP3    H136680   4.068   3.483   8.042  0.2467  1.2927 -0.6982
 5015TIP3    H236681   4.129   3.418   8.165 -1.6939 -0.4408 -0.5757
 5016TIP3   OH236682   3.934   2.559   6.802 -0.0989  0.7704 -0.5312
 5016TIP3    H136683   3.978   2.535   6.884  0.7085  2.1588 -0.5218
 5016TIP3    H236684   3.931   2.654   6.804  0.0435  0.8332 -2.1663
 5017TIP3   OH236685   0.091   3.414   1.238  0.8818 -0.3811 -0.8820
 5017TIP3    H136686  -0.001   3.391   1.247  1.1255 -1.1590 -0.2119
 5017TIP3    H236687   0.131   3.336   1.199  1.1879  0.1297 -1.6344
 5018TIP3   OH236688   3.827   2.554   7.836 -0.2825  0.2363 -0.5048
 5018TIP3    H136689   3.755   2.504   7.799 -0.9901  1.2535 -0.5503
 5018TIP3    H236690   3.807   2.560   7.930 -0.0966  0.2523 -0.4649
 5019TIP3   OH236691   6.089   3.373   1.197 -0.1443  0.6222  0.0419
 5019TIP3    H136692   6.006   3.337   1.227  0.8539 -1.1883  0.8394
 5019TIP3    H236693   6.065   3.442   1.136 -2.2376  1.6130  1.8500
 5020TIP3   OH236694   4.338   2.723   1.780 -0.1459 -0.1751 -0.0777
 5020TIP3    H136695   4.420   2.688   1.746 -2.1649 -3.9406 -1.7657
 5020TIP3    H236696   4.297   2.765   1.704  0.5455  2.7142  1.0191
 5021TIP3   OH236697   1.564   4.337   1.036  0.2537  0.3131  0.4650
 5021TIP3    H136698   1.631   4.372   1.095 -0.9378  1.6907  1.0445
 5021TIP3    H236699   1.509   4.412   1.014  1.2784  0.1279 -3.3645
 5022TIP3   OH236700   6.396   2.983   2.448 -0.1432  0.3073  0.5150
 5022TIP3    H136701   6.357   3.070   2.441  0.3504  0.6876  1.9921
 5022TIP3    H236702   6.323   2.922   2.437 -0.6202  0.9306  0.2103
 5023TIP3   OH236703   6.135   5.448   7.765 -0.0994 -0.2863 -0.7915
 5023TIP3    H136704   6.066   5.388   7.792  0.3734  0.8765  3.7559
 5023TIP3    H236705   6.210   5.392   7.746 -0.6245 -1.2787  0.0085
 5024TIP3   OH236706   6.008   1.787   0.999 -0.1050  0.1545 -0.4165
 5024TIP3    H136707   5.999   1.877   0.968 -2.1462 -0.6632 -2.4725
 5024TIP3    H236708   5.919   1.753   1.003  0.5740 -1.6935  0.7195
 5025TIP3   OH236709   0.094   1.294   2.340 -1.1469  0.1374  0.0431
 5025TIP3    H136710   0.187   1.313   2.327 -1.1772  0.7833  0.6834
 5025TIP3    H236711   0.088   1.199   2.334 -0.7224  0.1787 -1.6411
 5026TIP3   OH236712   1.685   5.268   1.126 -0.1309 -0.1710 -0.1820
 5026TIP3    H136713   1.669   5.345   1.181 -1.3323  1.5006 -2.6755
 5026TIP3    H236714   1.780   5.263   1.119  0.0231  0.0927  1.2556
 5027TIP3   OH236715   3.576   0.866   1.185  0.2204 -0.2028  0.2972
 5027TIP3    H136716   3.537   0.805   1.123 -0.2579 -0.3134  0.7077
 5027TIP3    H236717   3.527   0.947   1.173 -1.1320 -0.7627  1.8428
 5028TIP3   OH236718   4.615   5.973   2.011 -0.4443 -0.4202  0.0872
 5028TIP3    H136719   4.574   5.971   2.097  0.1485  2.6309  0.5513
 5028TIP3    H236720   4.686   5.908   2.017  0.7267  0.9332  2.5765
 5029TIP3   OH236721   6.603   1.603   1.702  0.0844 -0.3107  0.5265
 5029TIP3    H136722   6.623   1.691   1.670 -2.0584  1.1751  2.8830
 5029TIP3    H236723   6.663   1.589   1.775 -0.9488  0.1168  1.4813
 5030TIP3   OH236724   2.787   5.497   8.888 -0.1076 -0.3515  0.2315
 5030TIP3    H136725   2.720   5.516   8.954  0.6176  1.3181  0.5324
 5030TIP3    H236726   2.784   5.402   8.879 -2.3947 -0.3623  0.3489
 5031TIP3   OH236727   0.535   6.682   7.759  0.4476  0.5041 -0.3579
 5031TIP3    H136728   0.514   6.751   7.697  1.1172 -0.5241 -1.7774
 5031TIP3    H236729   0.602   6.719   7.816  0.9529  0.9615 -1.2374
 5032TIP3   OH236730   1.602   6.702   0.646  0.0641 -0.3011  0.1655
 5032TIP3    H136731   1.659   6.761   0.597 -0.9783  0.9859  0.4417
 5032TIP3    H236732   1.516   6.745   0.646 -0.7655 -1.8429  0.3360
 5033TIP3   OH236733   1.536   6.643   1.172 -0.0939 -0.2811  0.3286
 5033TIP3    H136734   1.462   6.678   1.123  0.3699 -0.6584 -0.6780
 5033TIP3    H236735   1.565   6.715   1.228 -1.5773 -0.3183  1.1834
 5034TIP3   OH236736   4.668   6.112   2.412 -0.5941 -0.1931 -0.0428
 5034TIP3    H136737   4.667   6.165   2.492 -0.3482 -0.6283  0.2568
 5034TIP3    H236738   4.728   6.157   2.354 -0.6221  0.0226  0.0938
 5035TIP3   OH236739   3.555   5.935   0.836 -0.1807  0.1377  0.1893
 5035TIP3    H136740   3.513   6.012   0.798 -0.6286  0.1321  0.6556
 5035TIP3    H236741   3.608   5.969   0.908 -0.1422  0.0429  0.2062
 5036TIP3   OH236742   1.769   6.320   0.791  0.4074  0.6357  0.0587
 5036TIP3    H136743   1.755   6.390   0.855  1.4132  0.9344 -0.0173
 5036TIP3    H236744   1.801   6.246   0.844  1.0128  0.8062 -0.0646
 5037TIP3   OH236745   0.800   0.746   7.494 -0.5628 -0.1768 -0.1764
 5037TIP3    H136746   0.749   0.814   7.450 -1.9438 -2.0300 -1.6220
 5037TIP3    H236747   0.837   0.694   7.423 -0.7028 -1.7453  0.8431
 5038TIP3   OH236748   6.749   3.041   8.861  0.0479 -0.1267  0.3809
 5038TIP3    H136749   6.804   3.117   8.841  1.2763 -1.1696 -0.3526
 5038TIP3    H236750   6.660   3.072   8.847  0.4504  1.4324  0.9792
 5039TIP3   OH236751   0.957   0.227   0.675 -0.4770 -0.0627 -0.7287
 5039TIP3    H136752   0.916   0.267   0.599 -0.0451  3.6250  0.7931
 5039TIP3    H236753   0.894   0.240   0.746  1.8069  2.8241  0.9423
 5040TIP3   OH236754   5.759   4.640   8.733 -0.0713  0.4544  0.1175
 5040TIP3    H136755   5.665   4.624   8.749 -0.1977  1.0410 -0.0189
 5040TIP3    H236756   5.803   4.576   8.789 -0.5576 -0.3139 -0.3587
 5041TIP3   OH236757   2.898   4.051   0.610 -0.1068 -0.0918 -0.2206
 5041TIP3    H136758   2.901   4.064   0.515 -0.9231  1.7733 -0.0494
 5041TIP3    H236759   2.805   4.041   0.630 -0.0096  0.2786  0.4486
 5042TIP3   OH236760   6.591   5.673   1.353 -0.9130  0.0597 -0.1921
 5042TIP3    H136761   6.573   5.669   1.259 -0.5820 -1.5134 -0.2002
 5042TIP3    H236762   6.506   5.686   1.393 -1.0115  1.1836 -0.7119
 5043TIP3   OH236763   6.531   0.565   0.505 -0.2492 -0.0675  0.2975
 5043TIP3    H136764   6.558   0.649   0.469  1.5156  0.4193  2.5552
 5043TIP3    H236765   6.489   0.520   0.431  3.5513  0.5887 -2.5753
 5044TIP3   OH236766   1.785   5.061   8.389 -0.5872 -0.2458  0.0770
 5044TIP3    H136767   1.769   5.103   8.304 -2.5222  1.2826  1.1063
 5044TIP3    H236768   1.846   4.990   8.369 -0.2386  0.6327 -2.4233
 5045TIP3   OH236769   1.336   5.890   0.654  0.2021 -1.1578  0.2566
 5045TIP3    H136770   1.276   5.935   0.593 -0.5469 -2.4930 -0.0355
 5045TIP3    H236771   1.320   5.797   0.638  1.4565 -1.5362  1.0955
 5046TIP3   OH236772   0.829   1.569   7.721 -0.5082 -0.5318  0.3146
 5046TIP3    H136773   0.833   1.602   7.632 -2.2033  0.0483  0.4193
 5046TIP3    H236774   0.920   1.568   7.750 -0.0778  0.8983 -0.8432
 5047TIP3   OH236775   3.557   2.883   8.901  0.2365  0.6891 -0.0049
 5047TIP3    H136776   3.640   2.836   8.908  0.5134  0.9737 -1.0894
 5047TIP3    H236777   3.522   2.885   8.990  0.4528 -1.1218  0.1449
 5048TIP3   OH236778   6.481   1.312   2.710 -0.1281 -0.4269  0.5853
 5048TIP3    H136779   6.564   1.332   2.751 -0.9267  1.3398  1.4110
 5048TIP3    H236780   6.416   1.359   2.762 -1.7666 -2.4600  0.5006
 5049TIP3   OH236781   3.734   3.584   0.180  0.1659 -0.4052  1.2289
 5049TIP3    H136782   3.726   3.579   0.084 -2.3603 -1.3948  1.4175
 5049TIP3    H236783   3.684   3.661   0.204  0.9323 -0.0661  1.7739
 5050TIP3   OH236784   0.053   5.154   8.675  0.1453 -0.2404  0.0510
 5050TIP3    H136785  -0.015   5.199   8.625  0.9931 -0.5606 -1.4508
 5050TIP3    H236786   0.008   5.079   8.714 -0.2360 -0.9458 -1.6338
 5051TIP3   OH236787   5.334   6.645   1.830 -0.4392  0.7913 -0.0837
 5051TIP3    H136788   5.360   6.734   1.804 -2.1661  1.1972 -0.5347
 5051TIP3    H236789   5.309   6.602   1.748 -0.2673  0.1019  0.2158
 5052TIP3   OH236790   4.889   4.672   7.753 -0.4539 -0.3254 -0.2402
 5052TIP3    H136791   4.857   4.754   7.717 -1.6099 -0.5265  0.3028
 5052TIP3    H236792   4.817   4.638   7.806  0.4002 -1.1428  0.4491
 5053TIP3   OH236793   4.537   2.999   0.425  0.5102  0.0605  0.6799
 5053TIP3    H136794   4.534   3.095   0.419  1.0145  0.0223 -0.3354
 5053TIP3    H236795   4.629   2.977   0.408  0.2989 -0.6333  0.4238
 5054TIP3   OH236796   5.183   6.642   0.679 -0.0738  0.1609 -0.3490
 5054TIP3    H136797   5.267   6.597   0.672  0.7241  1.7957 -2.2452
 5054TIP3    H236798   5.133   6.613   0.602 -0.4073  0.7935 -0.3804
 5055TIP3   OH236799   3.564   2.596   2.475 -0.3148 -0.0227 -0.3159
 5055TIP3    H136800   3.640   2.570   2.528  0.9246 -0.1072 -2.0680
 5055TIP3    H236801   3.492   2.601   2.538  1.1823  0.3153  1.4558
 5056TIP3   OH236802   1.026   5.744   7.301  0.5186  0.6264  0.2684
 5056TIP3    H136803   1.009   5.735   7.395  0.7619 -0.5578  0.2166
 5056TIP3    H236804   1.109   5.699   7.288  0.2748  0.4176 -0.5945
 5057TIP3   OH236805   0.265   2.596   0.377  0.6044  0.5387  0.0101
 5057TIP3    H136806   0.212   2.635   0.307 -0.7530  0.0332  0.7219
 5057TIP3    H236807   0.285   2.668   0.436 -1.0743  0.3728  0.8161
 5058TIP3   OH236808   0.910   3.579   8.600 -0.2933 -0.4500  0.7071
 5058TIP3    H136809   0.833   3.623   8.562  0.8408  1.6799  0.6873
 5058TIP3    H236810   0.903   3.489   8.570 -2.6968 -0.3001  0.5941
 5059TIP3   OH236811   3.735   0.035   6.802  0.3628  0.1511  0.1768
 5059TIP3    H136812   3.774   0.032   6.890  0.2580  0.0336  0.2188
 5059TIP3    H236813   3.734  -0.056   6.773  4.2445  0.4673 -1.6465
 5060TIP3   OH236814   3.594   5.819   1.513 -0.5077 -0.3365 -0.2709
 5060TIP3    H136815   3.508   5.778   1.523 -0.1071 -1.0955  0.1982
 5060TIP3    H236816   3.611   5.861   1.597 -0.5797  0.1326 -0.4896
 5061TIP3   OH236817   1.246   0.698   2.510 -0.1661 -0.0300 -0.4027
 5061TIP3    H136818   1.288   0.616   2.536 -1.7149 -0.2141  1.7637
 5061TIP3    H236819   1.315   0.764   2.521  0.3375 -0.6763  0.5334
 5062TIP3   OH236820   4.930   5.223   8.457 -1.0489  0.7094  0.0434
 5062TIP3    H136821   4.887   5.179   8.530 -1.1950  0.1971 -0.3415
 5062TIP3    H236822   4.931   5.157   8.387 -2.4907  1.7422 -1.0099
 5063TIP3   OH236823   1.878   4.672   1.098  0.7827  0.3374  0.5367
 5063TIP3    H136824   1.964   4.641   1.071 -0.1917 -1.5266 -0.6585
 5063TIP3    H236825   1.829   4.592   1.118 -1.1890  1.2167 -0.4728
 5064TIP3   OH236826   6.689   1.815   2.120  0.3061 -0.3936 -0.5089
 5064TIP3    H136827   6.777   1.777   2.130  0.8528  0.8503 -0.4080
 5064TIP3    H236828   6.637   1.772   2.187  1.5598  0.9113  1.3830
 5065TIP3   OH236829   3.622   0.075   8.198 -0.1763 -0.5027  0.2364
 5065TIP3    H136830   3.539   0.119   8.183  0.1609 -0.0174 -0.2397
 5065TIP3    H236831   3.637   0.025   8.117  1.5554  1.9637 -1.0972
 5066TIP3   OH236832   3.573   4.659   8.548  0.5752  0.1892 -0.3715
 5066TIP3    H136833   3.621   4.676   8.629 -1.5222  0.7564  0.8211
 5066TIP3    H236834   3.566   4.744   8.506  0.8848  0.0499 -0.7081
 5067TIP3   OH236835   1.396   3.708   1.229 -0.1279  0.0443 -0.4118
 5067TIP3    H136836   1.382   3.790   1.277  0.8659  0.8917 -1.5222
 5067TIP3    H236837   1.401   3.642   1.298 -1.6235  0.7847  0.4716
 5068TIP3   OH236838   3.199   1.111   7.462  0.3093 -0.6851  0.9810
 5068TIP3    H136839   3.241   1.028   7.485  1.8468  0.6314  3.2302
 5068TIP3    H236840   3.197   1.161   7.543 -0.4658  1.5648 -0.3286
 5069TIP3   OH236841   2.917   0.225   1.488 -0.5270 -0.4493  0.6745
 5069TIP3    H136842   2.916   0.133   1.516 -1.0978 -0.3276  1.0701
 5069TIP3    H236843   2.918   0.220   1.392 -0.2636 -0.8711  0.6967
 5070TIP3   OH236844   0.810   0.721   2.147 -0.5148  0.2843  0.1250
 5070TIP3    H136845   0.834   0.799   2.198  0.1969  0.0103  0.2182
 5070TIP3    H236846   0.752   0.671   2.206 -2.1720  1.4257 -0.4656
 5071TIP3   OH236847   6.469   3.073   8.289 -0.2913  0.3222  0.2561
 5071TIP3    H136848   6.542   3.038   8.238 -0.2674 -0.7711  1.0127
 5071TIP3    H236849   6.457   3.162   8.256  0.0304 -0.1862 -1.3210
 5072TIP3   OH236850   4.693   1.435   1.452 -0.0693 -0.3406 -0.0339
 5072TIP3    H136851   4.701   1.506   1.517  3.2461  0.6799 -1.3450
 5072TIP3    H236852   4.618   1.460   1.399  0.7337  2.0363 -0.1783
 5073TIP3   OH236853   2.982   1.169   6.909  0.6782  0.1483 -0.0006
 5073TIP3    H136854   3.027   1.249   6.938  0.9544 -0.0417  0.1009
 5073TIP3    H236855   2.920   1.149   6.980  0.3047  0.5099 -0.2213
 5074TIP3   OH236856   1.898   6.334   3.036  0.2691  0.2885  0.1935
 5074TIP3    H136857   1.845   6.258   3.011  0.7819  0.0497 -0.1807
 5074TIP3    H236858   1.836   6.394   3.076 -0.4956  0.4751 -1.2072
 5075TIP3   OH236859   5.757   6.480   8.605 -0.0084 -0.1399 -0.3701
 5075TIP3    H136860   5.793   6.548   8.548  0.8511 -0.2465  0.0259
 5075TIP3    H236861   5.689   6.438   8.553 -0.8261  1.2558 -0.4939
 5076TIP3   OH236862   4.883   5.033   8.655  0.3040  0.1530  0.4467
 5076TIP3    H136863   4.910   4.942   8.643 -0.8624 -0.0250 -1.1911
 5076TIP3    H236864   4.842   5.034   8.742  0.0863 -0.9584  0.3819
 5077TIP3   OH236865   6.621   0.451   8.562 -0.4104  0.3707 -0.4121
 5077TIP3    H136866   6.553   0.482   8.503  1.4388  0.3612 -2.7031
 5077TIP3    H236867   6.616   0.356   8.558  1.1267  0.3121 -2.4535
 5078TIP3   OH236868   6.059   2.794   0.936 -0.3833 -0.0579 -0.1742
 5078TIP3    H136869   6.049   2.863   0.870  2.2126 -0.2070 -0.8513
 5078TIP3    H236870   6.136   2.821   0.987  0.6245 -2.3074 -0.3663
 5079TIP3   OH236871   6.646   6.752   8.121 -0.2600 -0.2013 -0.2244
 5079TIP3    H136872   6.677   6.821   8.062  0.8976 -0.3479  0.1920
 5079TIP3    H236873   6.711   6.749   8.190 -0.9783 -0.8551  0.4392
 5080TIP3   OH236874   2.712   4.603   1.073  0.0588 -0.1114 -0.3862
 5080TIP3    H136875   2.652   4.593   0.999  0.1543 -1.1260 -0.3439
 5080TIP3    H236876   2.722   4.697   1.084 -0.8349  0.0593 -0.9592
 5081TIP3   OH236877   1.917   4.065   7.077 -0.0950 -0.2200 -0.1160
 5081TIP3    H136878   1.909   4.031   6.988 -1.5907  1.0741 -0.5214
 5081TIP3    H236879   1.970   4.144   7.068  0.1383 -0.3335  0.2274
 5082TIP3   OH236880   2.870   1.822   7.493  0.3969 -0.0558 -0.2399
 5082TIP3    H136881   2.862   1.790   7.403 -0.0542  0.2854 -0.3264
 5082TIP3    H236882   2.782   1.812   7.530  0.6650 -0.5405  0.2818
 5083TIP3   OH236883   6.797   1.700   0.177 -0.2302 -0.6312  0.4052
 5083TIP3    H136884   6.847   1.620   0.159  1.5289  0.1520  1.4682
 5083TIP3    H236885   6.831   1.730   0.262 -0.5358  1.4641 -0.1661
 5084TIP3   OH236886   1.516   1.972   6.938  0.4214 -0.0816  0.1420
 5084TIP3    H136887   1.569   2.026   6.997  0.3317  0.1954 -0.0306
 5084TIP3    H236888   1.552   1.884   6.947 -1.0348 -0.5385  2.3700
 5085TIP3   OH236889   3.052   1.622   2.507  0.1358 -0.0045 -0.3049
 5085TIP3    H136890   3.102   1.695   2.543 -1.5865  1.3778 -0.5795
 5085TIP3    H236891   2.965   1.631   2.545  0.2485 -2.9098  0.9256
 5086TIP3   OH236892   4.971   3.958   0.787 -0.6533  0.3379  0.2382
 5086TIP3    H136893   4.923   3.988   0.864  0.0249 -0.0363  0.8182
 5086TIP3    H236894   4.904   3.921   0.730 -1.1317  0.3432  0.7845
 5087TIP3   OH236895   0.934   5.451   8.827 -0.3613 -0.3146 -0.4052
 5087TIP3    H136896   0.933   5.475   8.734  0.0266 -0.3661 -0.4265
 5087TIP3    H236897   0.992   5.374   8.831  0.4585  0.3092  0.0229
 5088TIP3   OH236898   1.232   0.532   2.257  0.7212  0.2149  0.1846
 5088TIP3    H136899   1.206   0.599   2.321  0.1094  0.4161 -0.2628
 5088TIP3    H236900   1.200   0.566   2.173  2.6321  0.5698 -0.4346
 5089TIP3   OH236901   1.133   4.386   0.141  0.1810 -0.0504  0.4213
 5089TIP3    H136902   1.172   4.406   0.227 -0.4746 -1.6081  1.1064
 5089TIP3    H236903   1.197   4.330   0.098  0.1693  0.1157  0.1824
 5090TIP3   OH236904   4.306   5.431   0.323 -0.6393  0.1019 -0.2394
 5090TIP3    H136905   4.291   5.473   0.408  0.7487  0.6351 -0.2254
 5090TIP3    H236906   4.320   5.503   0.262  1.5244 -0.2590 -0.2597
 5091TIP3   OH236907   0.799   1.171   7.599  0.4269 -0.0044  0.2147
 5091TIP3    H136908   0.728   1.113   7.570 -0.3496  0.1324  1.7319
 5091TIP3    H236909   0.871   1.153   7.538 -1.0032  0.1270 -1.6153
 5092TIP3   OH236910   6.302   2.464   2.313  0.2656  0.3376 -0.1917
 5092TIP3    H136911   6.244   2.530   2.275 -1.0986  0.0151  1.1916
 5092TIP3    H236912   6.388   2.484   2.277 -0.6080  1.1048 -2.0027
 5093TIP3   OH236913   1.187   2.976   8.187 -0.4469 -0.5187 -0.4028
 5093TIP3    H136914   1.230   2.903   8.143 -0.5144 -0.8476  0.0697
 5093TIP3    H236915   1.209   2.964   8.280  0.6819  0.8225 -0.4667
 5094TIP3   OH236916   5.650   4.376   1.203 -0.3335 -0.0277 -0.6532
 5094TIP3    H136917   5.571   4.369   1.257 -0.3190 -1.5779 -0.7851
 5094TIP3    H236918   5.671   4.469   1.204 -0.1379 -0.0040  2.2676
 5095TIP3   OH236919   1.626   3.719   8.185  0.6412 -0.3529  0.1911
 5095TIP3    H136920   1.717   3.689   8.181  1.3206  1.2636  2.1571
 5095TIP3    H236921   1.625   3.800   8.133  0.1446 -0.7209 -0.3881
 5096TIP3   OH236922   0.690   0.741   1.476  0.4436 -0.0674 -0.1256
 5096TIP3    H136923   0.603   0.725   1.440  0.9212  0.1132 -1.4009
 5096TIP3    H236924   0.726   0.654   1.490 -0.5551 -0.2016  2.0593
 5097TIP3   OH236925   5.493   1.487   0.823  0.0349  0.1162 -0.4242
 5097TIP3    H136926   5.573   1.462   0.869  0.0659  0.3373 -0.3557
 5097TIP3    H236927   5.425   1.431   0.861  0.1352  0.0173 -0.3914
 5098TIP3   OH236928   5.355   1.032   1.724 -0.4540  0.2500 -0.4103
 5098TIP3    H136929   5.395   1.085   1.655  0.3993  1.4775  0.9483
 5098TIP3    H236930   5.397   1.062   1.805 -1.7934 -0.7388  0.7195
 5099TIP3   OH236931   2.363   0.545   1.722 -0.0014  0.4769  0.0859
 5099TIP3    H136932   2.275   0.512   1.700  0.1624  0.5598 -0.7107
 5099TIP3    H236933   2.359   0.639   1.703 -0.2405  0.8119  1.6556
 5100TIP3   OH236934   1.427   6.497   2.510  0.5021  0.0716  0.4921
 5100TIP3    H136935   1.369   6.461   2.577  0.8761 -0.0972  0.7264
 5100TIP3    H236936   1.401   6.453   2.429  1.5213 -1.3807  0.9152
 5101TIP3   OH236937   4.988   2.580   0.700  0.3029 -0.0359  0.1926
 5101TIP3    H136938   5.000   2.674   0.683 -0.9822  0.0855 -0.2176
 5101TIP3    H236939   4.899   2.562   0.669 -0.3238 -0.9033  2.3249
 5102TIP3   OH236940   2.854   5.253   7.606 -0.2163 -0.1509  0.7649
 5102TIP3    H136941   2.856   5.167   7.649  0.1096  0.3796  1.8513
 5102TIP3    H236942   2.921   5.247   7.538 -1.2747 -1.2660 -0.2120
 5103TIP3   OH236943   1.330   3.130   1.578  0.3352  0.1269  0.0639
 5103TIP3    H136944   1.416   3.136   1.619 -0.3055  2.3468  1.2370
 5103TIP3    H236945   1.269   3.125   1.652 -0.5824 -1.0073 -0.7411
 5104TIP3   OH236946   5.946   4.110   1.061  0.1843  0.1029  0.6085
 5104TIP3    H136947   6.009   4.165   1.106 -1.1478  1.4369  0.8984
 5104TIP3    H236948   5.901   4.168   1.001 -1.0300 -0.7254  0.6718
 5105TIP3   OH236949   4.351   6.520   0.895  0.1455 -0.0779 -0.3072
 5105TIP3    H136950   4.433   6.550   0.855  0.3000 -1.0618 -0.7880
 5105TIP3    H236951   4.313   6.598   0.935  1.8088  0.2056  0.8037
 5106TIP3   OH236952   4.197   2.865   8.533  0.0480 -0.1700  0.7518
 5106TIP3    H136953   4.181   2.909   8.616 -1.4082 -0.7327  0.7959
 5106TIP3    H236954   4.293   2.860   8.527  0.3657  3.4919  0.4270
 5107TIP3   OH236955   1.336   4.181   1.032  0.1620  0.1046  0.2455
 5107TIP3    H136956   1.407   4.244   1.020  1.2044 -1.0597  0.0699
 5107TIP3    H236957   1.348   4.118   0.962 -0.5390 -0.5758  0.7218
 5108TIP3   OH236958   0.422   3.289   2.599  0.6696  0.4451 -0.2553
 5108TIP3    H136959   0.403   3.369   2.648 -0.7571 -0.2574  0.3962
 5108TIP3    H236960   0.350   3.230   2.620  0.8035 -0.4289 -2.0336
 5109TIP3   OH236961   2.859   4.350   0.571 -0.3967 -0.0812  0.4243
 5109TIP3    H136962   2.905   4.266   0.570 -1.0425 -0.4385 -0.1168
 5109TIP3    H236963   2.805   4.347   0.650  0.5888  0.3977  1.1386
 5110TIP3   OH236964   0.430   4.901   1.190  0.6183  0.1857 -0.0502
 5110TIP3    H136965   0.487   4.967   1.230 -1.7723  2.1285  0.3829
 5110TIP3    H236966   0.448   4.907   1.096  0.7650  1.1745  0.0275
 5111TIP3   OH236967   4.300   2.375   7.971  0.0330  0.1374 -0.5889
 5111TIP3    H136968   4.240   2.437   8.013  0.2157 -0.4639  0.6137
 5111TIP3    H236969   4.246   2.297   7.955  0.1579  0.0815 -0.7317
 5112TIP3   OH236970   5.413   2.523   1.246  0.2284  0.1854  0.6368
 5112TIP3    H136971   5.492   2.551   1.199 -0.5961 -0.0034 -0.8902
 5112TIP3    H236972   5.407   2.429   1.229  0.3913 -0.0680  1.8709
 5113TIP3   OH236973   6.594   0.761   8.223 -0.3613  0.3499 -0.5202
 5113TIP3    H136974   6.583   0.768   8.318 -1.2700  0.7921 -0.6437
 5113TIP3    H236975   6.672   0.707   8.212 -0.1321  0.4549  0.4776
 5114TIP3   OH236976   4.217   1.201   7.094  0.2503 -0.5226  0.4600
 5114TIP3    H136977   4.146   1.214   7.031  0.8723  0.5959 -0.0486
 5114TIP3    H236978   4.254   1.116   7.072 -0.6612 -0.9281  0.4605
 5115TIP3   OH236979   0.768   4.724   7.925 -0.2494  0.4098  0.2369
 5115TIP3    H136980   0.808   4.757   8.006  2.3775  0.3081 -0.9182
 5115TIP3    H236981   0.766   4.629   7.937  0.4919  0.3641  0.0669
 5116TIP3   OH236982   5.138   3.738   2.050 -0.7215 -0.4532  0.7212
 5116TIP3    H136983   5.219   3.764   2.007 -1.5286 -0.1502 -0.6817
 5116TIP3    H236984   5.130   3.798   2.125 -0.4163  0.5107 -0.0050
 5117TIP3   OH236985   0.610   0.984   7.342 -0.5615  0.0018  0.0537
 5117TIP3    H136986   0.565   0.963   7.260  0.2729 -0.4905 -0.2948
 5117TIP3    H236987   0.676   1.049   7.317 -0.7728  0.3818  0.4733
 5118TIP3   OH236988   2.203   3.814   1.808  0.4306  0.2325 -0.0563
 5118TIP3    H136989   2.258   3.885   1.774 -0.4858  0.2514 -1.5886
 5118TIP3    H236990   2.246   3.734   1.778  0.2405  0.2065 -0.2549
 5119TIP3   OH236991   2.523   6.319   8.735  0.4198  0.1768  0.1141
 5119TIP3    H136992   2.597   6.289   8.684  0.5651 -0.0943  0.4787
 5119TIP3    H236993   2.549   6.304   8.826  0.5790  1.5787  0.3221
 5120TIP3   OH236994   2.555   3.518   7.823 -0.2508  0.0618 -0.1216
 5120TIP3    H136995   2.535   3.433   7.863 -0.3022 -0.1701 -0.6281
 5120TIP3    H236996   2.524   3.509   7.733 -2.8844  1.5924  0.5258
 5121TIP3   OH236997   6.701   5.456   2.617 -0.2919  0.3291 -0.1344
 5121TIP3    H136998   6.683   5.494   2.703  0.5821  0.7963 -0.1468
 5121TIP3    H236999   6.797   5.452   2.613 -0.3279 -1.6637 -0.2156
 5122TIP3   OH237000   0.305   5.517   8.598  0.2466  0.2405 -0.3389
 5122TIP3    H137001   0.241   5.567   8.648  0.9510  1.8827 -1.0161
 5122TIP3    H237002   0.387   5.564   8.610  1.0755 -1.0855 -0.5585
 5123TIP3   OH237003   1.977   2.968   2.493 -0.0354 -0.0328 -0.1536
 5123TIP3    H137004   2.035   3.018   2.549 -0.2117 -0.2889  0.2582
 5123TIP3    H237005   1.942   2.899   2.549  0.5404 -0.8971 -0.8214
 5124TIP3   OH237006   3.394   3.935   0.050 -0.1513 -0.5019 -0.1944
 5124TIP3    H137007   3.411   3.866   0.114  1.3487 -0.5045 -0.5734
 5124TIP3    H237008   3.478   3.980   0.039 -1.3402  2.2900  1.0432
 5125TIP3   OH237009   5.053   4.899   2.196  0.2198  0.2727 -0.0349
 5125TIP3    H137010   5.019   4.928   2.281 -0.1560  1.8074 -0.6840
 5125TIP3    H237011   5.124   4.961   2.176 -1.4114  1.6159 -2.0276
 5126TIP3   OH237012   4.540   3.738   2.192 -0.1601 -0.0004  0.1726
 5126TIP3    H137013   4.515   3.797   2.263 -0.2758  0.8514 -0.5686
 5126TIP3    H237014   4.525   3.650   2.228  0.0006  0.4051  1.2781
 5127TIP3   OH237015   6.355   2.785   0.993  0.1297  0.0202 -0.0090
 5127TIP3    H137016   6.337   2.711   0.935  0.5731  0.2235 -0.4127
 5127TIP3    H237017   6.425   2.755   1.050  0.7213  0.3274 -0.5663
 5128TIP3   OH237018   3.959   2.148   2.428  0.4954  0.3418  0.4768
 5128TIP3    H137019   4.042   2.102   2.442  0.9925  0.9411 -0.3661
 5128TIP3    H237020   3.896   2.079   2.408  0.9020 -0.0887  0.6690
 5129TIP3   OH237021   5.888   1.960   1.480 -0.9941 -0.2302 -0.0070
 5129TIP3    H137022   5.846   1.875   1.495 -0.5187 -0.4944 -0.1636
 5129TIP3    H237023   5.974   1.952   1.521 -0.3106 -0.3985 -1.4055
 5130TIP3   OH237024   4.691   2.056   1.038  0.2057 -0.0864  0.1916
 5130TIP3    H137025   4.786   2.059   1.034  0.2595 -1.4598 -0.1153
 5130TIP3    H237026   4.662   2.101   0.959  0.6383 -0.6328 -0.2883
 5131TIP3   OH237027   5.923   2.149   1.125 -0.5988 -0.1773  0.7171
 5131TIP3    H137028   5.958   2.130   1.038 -0.9541 -0.1179  0.5624
 5131TIP3    H237029   5.829   2.161   1.112 -0.7912 -1.0477  1.2451
 5132TIP3   OH237030   2.388   2.729   0.783  0.3007  0.2389  0.7144
 5132TIP3    H137031   2.313   2.675   0.756  1.8268 -1.6236 -0.0739
 5132TIP3    H237032   2.451   2.720   0.712  1.4216  1.4766  1.4964
 5133TIP3   OH237033   1.414   5.808   7.670  0.3377 -0.3410 -0.1423
 5133TIP3    H137034   1.473   5.769   7.607  1.3426  0.7441  0.0974
 5133TIP3    H237035   1.434   5.764   7.753  0.6972 -0.0879 -0.0950
 5134TIP3   OH237036   6.414   4.788   0.231 -0.5887 -0.3556  0.0523
 5134TIP3    H137037   6.321   4.779   0.252 -0.1000 -2.1568  1.7362
 5134TIP3    H237038   6.449   4.844   0.301 -0.4937  0.9062 -0.9678
 5135TIP3   OH237039   4.148   3.953   8.266 -0.3056 -0.1476 -0.3302
 5135TIP3    H137040   4.206   4.029   8.277 -0.6418  0.0735 -0.0604
 5135TIP3    H237041   4.101   3.971   8.185  0.6381 -0.7551 -1.0324
 5136TIP3   OH237042   5.904   5.653   1.060 -0.2016 -0.1486 -0.3958
 5136TIP3    H137043   5.943   5.581   1.010 -0.4148 -0.6811  0.1910
 5136TIP3    H237044   5.901   5.726   0.998  1.1952 -0.2614 -0.6244
 5137TIP3   OH237045   4.393   4.117   1.603  0.5656 -0.1305  0.3513
 5137TIP3    H137046   4.313   4.153   1.567  1.0506 -0.6379 -1.3017
 5137TIP3    H237047   4.417   4.046   1.543  1.8896 -0.4290  1.1825
 5138TIP3   OH237048   4.603   5.470   2.811 -0.5205 -0.1949  0.4214
 5138TIP3    H137049   4.589   5.561   2.834  0.9754  0.3403 -0.6373
 5138TIP3    H237050   4.680   5.444   2.861  0.6857 -0.0402 -1.2745
 5139TIP3   OH237051   5.795   6.070   0.348 -0.3086 -0.3543  0.5005
 5139TIP3    H137052   5.731   6.120   0.297  0.2673 -0.7654 -0.6710
 5139TIP3    H237053   5.838   6.013   0.284  0.1707 -1.1909  1.5263
 5140TIP3   OH237054   1.157   3.230   0.328  0.6378 -0.1640  0.3649
 5140TIP3    H137055   1.126   3.291   0.394  0.6305  1.4717 -1.0864
 5140TIP3    H237056   1.249   3.254   0.314  1.4218 -2.2103  1.6056
 5141TIP3   OH237057   5.707   4.985   1.964  0.8008  0.3481 -0.1074
 5141TIP3    H137058   5.776   5.042   1.930  1.1592 -0.6104 -1.0676
 5141TIP3    H237059   5.711   4.996   2.059  1.9226  0.7212 -0.1811
 5142TIP3   OH237060   1.524   5.798   8.330 -0.0817  0.2576  0.1722
 5142TIP3    H137061   1.618   5.807   8.311  0.2310 -1.0830  0.9411
 5142TIP3    H237062   1.518   5.720   8.384 -1.5767  0.7492  0.7767
 5143TIP3   OH237063   0.868   3.406   8.318 -0.4189  0.3533  0.5665
 5143TIP3    H137064   0.937   3.354   8.276 -0.2713 -0.9275  2.3304
 5143TIP3    H237065   0.862   3.485   8.263  1.0224 -0.4152 -0.7854
 5144TIP3   OH237066   2.204   1.938   0.847  0.1259 -0.1596  0.7151
 5144TIP3    H137067   2.124   1.963   0.801 -0.7474 -2.0090  1.1528
 5144TIP3    H237068   2.193   1.845   0.866  1.1424  0.1503  3.2203
 5145TIP3   OH237069   3.806   1.896   1.575  0.1739  0.1764  0.5595
 5145TIP3    H137070   3.813   1.832   1.504 -0.0058  0.1198  0.5902
 5145TIP3    H237071   3.786   1.843   1.653 -1.2905  0.3620  0.3492
 5146TIP3   OH237072   0.533   3.797   0.689 -0.0999 -0.0542  0.0342
 5146TIP3    H137073   0.523   3.793   0.784  0.1930 -0.3985  0.0517
 5146TIP3    H237074   0.578   3.880   0.674 -0.4919  0.1848  0.1631
 5147TIP3   OH237075   2.993   6.067   8.548  0.8740 -0.2272  0.1674
 5147TIP3    H137076   2.997   6.030   8.459 -0.7939  0.6743 -0.3177
 5147TIP3    H237077   2.941   6.004   8.598  2.4628 -1.1300  0.7551
 5148TIP3   OH237078   3.820   6.787   1.074 -0.0217  0.1573  0.7381
 5148TIP3    H137079   3.864   6.743   1.002 -1.8978 -1.5652  0.5647
 5148TIP3    H237080   3.726   6.773   1.057 -0.5321 -0.0094  3.3108
 5149TIP3   OH237081   4.638   3.302   8.785  0.9125  0.2722  0.1837
 5149TIP3    H137082   4.672   3.370   8.844  0.0374  1.6677 -0.8678
 5149TIP3    H237083   4.632   3.345   8.700 -2.0620 -0.3021  0.0021
 5150TIP3   OH237084   5.904   1.501   1.853  0.1542 -0.1989 -0.5062
 5150TIP3    H137085   5.840   1.439   1.888 -1.0765  0.9738 -0.5749
 5150TIP3    H237086   5.865   1.587   1.870  1.8717  0.5792 -0.2703
 5151TIP3   OH237087   3.819   4.355   6.725 -0.1865  0.1898 -0.0282
 5151TIP3    H137088   3.761   4.333   6.652  2.2741  0.9564 -2.3740
 5151TIP3    H237089   3.872   4.427   6.692 -1.7100  3.5932  4.0760
 5152TIP3   OH237090   1.398   2.147   0.900 -0.3512  0.1004 -0.1408
 5152TIP3    H137091   1.424   2.150   0.993  0.7657  0.3892 -0.4426
 5152TIP3    H237092   1.341   2.071   0.894  0.9142 -0.9544  0.4767
 5153TIP3   OH237093   6.121   5.519   7.495  0.0929  0.2334 -0.4369
 5153TIP3    H137094   6.129   5.509   7.590  0.2702  1.0627 -0.3568
 5153TIP3    H237095   6.033   5.486   7.475 -0.2374  0.7509  0.1244
 5154TIP3   OH237096   1.563   1.497   1.152  0.0608  0.0358  0.3313
 5154TIP3    H137097   1.585   1.405   1.167 -0.2711 -0.6074 -2.5787
 5154TIP3    H237098   1.469   1.497   1.133 -0.2332  1.2126  1.5735
 5155TIP3   OH237099   5.002   1.490   0.342  0.3820 -0.2399 -0.2264
 5155TIP3    H137100   5.048   1.562   0.387 -1.8005  0.0170  1.7338
 5155TIP3    H237101   4.977   1.430   0.412 -2.9471  0.0519 -1.0369
 5156TIP3   OH237102   1.078   6.084   0.897 -0.9887 -0.2548  0.1632
 5156TIP3    H137103   1.107   6.073   0.807 -1.6742 -0.9826  0.0229
 5156TIP3    H237104   0.984   6.097   0.891 -1.4477 -2.7390  0.8973
 5157TIP3   OH237105   3.429   3.223   0.534  0.2533  0.7922 -0.0660
 5157TIP3    H137106   3.471   3.137   0.533  0.8450  1.0679 -1.8574
 5157TIP3    H237107   3.500   3.284   0.513 -0.4527  1.5663 -0.2259
 5158TIP3   OH237108   5.692   4.631   1.160  0.3071  0.2489  0.0822
 5158TIP3    H137109   5.754   4.696   1.129  0.3892  0.5936  0.9394
 5158TIP3    H237110   5.618   4.637   1.099  0.3803  1.0380  0.0625
 5159TIP3   OH237111   3.896   5.123   0.066 -0.0317  0.0955 -0.7494
 5159TIP3    H137112   3.927   5.150  -0.021 -0.3188 -1.0277 -1.2134
 5159TIP3    H237113   3.969   5.142   0.124  0.6066 -0.2231 -1.4292
 5160TIP3   OH237114   1.541   2.275   8.573  0.2796  0.2420 -0.6844
 5160TIP3    H137115   1.485   2.198   8.578  2.7212 -1.6062  0.2921
 5160TIP3    H237116   1.535   2.304   8.482  0.9847 -2.5134 -1.6854
 5161TIP3   OH237117   6.733   0.382   7.121  0.2897 -0.0245  0.0069
 5161TIP3    H137118   6.674   0.432   7.177 -1.3391  0.4313 -1.9791
 5161TIP3    H237119   6.709   0.290   7.135  0.2765  0.0455  0.4407
 5162TIP3   OH237120   5.548   4.715   0.075  0.1137 -0.1051 -0.4352
 5162TIP3    H137121   5.466   4.753   0.104  0.7356  0.9519 -0.0020
 5162TIP3    H237122   5.571   4.765  -0.004 -0.6889 -1.7913 -1.8111
 5163TIP3   OH237123   1.588   2.804   8.889  0.3731  0.3710 -0.1187
 5163TIP3    H137124   1.556   2.840   8.972  1.6605 -1.9293  1.4751
 5163TIP3    H237125   1.683   2.810   8.895  0.5249 -0.9117 -0.9192
 5164TIP3   OH237126   3.779   2.399   2.977 -0.7497 -0.5778  0.1916
 5164TIP3    H137127   3.733   2.444   3.048 -0.3707  0.4062 -0.1717
 5164TIP3    H237128   3.712   2.342   2.939 -1.7611  0.9320 -0.4206
 5165TIP3   OH237129   0.721   6.436   0.355  0.7019  0.1908 -0.3078
 5165TIP3    H137130   0.655   6.494   0.317  1.1537  1.0470  0.1771
 5165TIP3    H237131   0.673   6.356   0.377  0.0642  0.3837 -0.9812
 5166TIP3   OH237132   4.755   3.871   1.506  0.4517  0.4771 -0.8990
 5166TIP3    H137133   4.688   3.834   1.450  1.2396  1.0842 -2.3129
 5166TIP3    H237134   4.826   3.806   1.505  0.8127  0.8670 -1.3321
 5167TIP3   OH237135   2.150   1.600   1.243 -0.3192  0.0775  0.3854
 5167TIP3    H137136   2.172   1.578   1.153 -2.5273  2.4488 -0.8667
 5167TIP3    H237137   2.067   1.555   1.259 -1.7496  2.3640 -0.1014
 5168TIP3   OH237138   5.453   1.107   1.374 -0.3606  0.5277  0.0427
 5168TIP3    H137139   5.363   1.140   1.365 -0.7216 -0.0019  1.3738
 5168TIP3    H237140   5.507   1.186   1.372 -0.9620  0.9628  0.3007
 5169TIP3   OH237141   6.106   3.316   8.332  0.4625 -0.1431  0.1452
 5169TIP3    H137142   6.113   3.398   8.382 -0.5895  0.2053 -0.2601
 5169TIP3    H237143   6.179   3.320   8.270 -0.2346  1.0394 -0.6425
 5170TIP3   OH237144   2.529   3.695   0.371 -0.2148 -0.1304 -0.0983
 5170TIP3    H137145   2.463   3.759   0.345 -0.4034 -0.3996 -0.2910
 5170TIP3    H237146   2.499   3.613   0.331  1.0165  0.0455 -1.4578
 5171TIP3   OH237147   0.933   6.280   1.211  0.5839  0.3779  0.1713
 5171TIP3    H137148   0.969   6.331   1.283 -0.7527  0.9748  0.4359
 5171TIP3    H237149   0.857   6.236   1.248  1.1555 -1.0652 -0.3077
 5172TIP3   OH237150   1.293   6.678   1.044 -0.0342  0.2135 -0.3978
 5172TIP3    H137151   1.261   6.614   0.980  1.4740  0.2464 -1.2206
 5172TIP3    H237152   1.326   6.750   0.991  3.0797 -0.5856  0.2299
 5173TIP3   OH237153   5.073   3.161   7.072 -0.3123  0.4391  0.0154
 5173TIP3    H137154   5.048   3.233   7.014  0.1389  0.9265  0.4122
 5173TIP3    H237155   5.140   3.113   7.023 -0.4698  0.4099 -0.1705
 5174TIP3   OH237156   6.333   4.114   2.179 -0.6239 -0.3826 -0.2617
 5174TIP3    H137157   6.282   4.095   2.258 -1.4563  0.1604 -0.6588
 5174TIP3    H237158   6.300   4.052   2.114 -0.7349 -0.0885 -0.4923
 5175TIP3   OH237159   3.946   3.769   7.484  0.0303  0.2363  0.4132
 5175TIP3    H137160   4.019   3.795   7.427 -0.7357 -0.0205 -0.7163
 5175TIP3    H237161   3.988   3.726   7.558  1.1305  1.5848  0.6221
 5176TIP3   OH237162   6.065   4.463   0.935 -0.1105  0.0244  0.1165
 5176TIP3    H137163   6.024   4.526   0.994  0.6429 -0.8492  1.6563
 5176TIP3    H237164   5.993   4.406   0.907 -0.5408  0.6798 -0.1286
 5177TIP3   OH237165   5.127   3.861   0.581 -0.4264  0.2258  0.6104
 5177TIP3    H137166   5.114   3.927   0.513 -1.5280 -0.0954  0.4890
 5177TIP3    H237167   5.112   3.908   0.663  2.8824  1.1260  0.8476
 5178TIP3   OH237168   2.937   1.189   8.317  0.5191 -0.5139 -0.5960
 5178TIP3    H137169   2.974   1.112   8.360  1.3138  1.1234  1.8534
 5178TIP3    H237170   2.859   1.156   8.273  1.1158 -2.8081 -0.0752
 5179TIP3   OH237171   2.711   5.238   1.853 -0.0800  0.3529  0.2146
 5179TIP3    H137172   2.744   5.308   1.909  1.6610  0.2554 -0.6317
 5179TIP3    H237173   2.702   5.163   1.911 -0.3978  0.8263  0.7912
 5180TIP3   OH237174   2.818   3.815   8.605  0.7075 -0.4439 -0.4343
 5180TIP3    H137175   2.886   3.788   8.667  1.6572  2.6023  0.0311
 5180TIP3    H237176   2.767   3.880   8.653 -0.2879 -0.0352 -1.9873
 5181TIP3   OH237177   4.552   3.909   6.602  0.4321 -0.3367  0.2003
 5181TIP3    H137178   4.632   3.952   6.631  0.3656 -1.6107  2.5735
 5181TIP3    H237179   4.580   3.849   6.533  0.9597  1.4382 -1.1825
 5182TIP3   OH237180   3.101   4.534   8.192  0.2870  0.1143  0.3587
 5182TIP3    H137181   3.148   4.467   8.243  1.1261  2.2324  2.5897
 5182TIP3    H237182   3.166   4.564   8.128 -0.2284 -1.4219 -0.9351
 5183TIP3   OH237183   6.523   0.162   1.972 -0.0087 -0.2182  0.8287
 5183TIP3    H137184   6.435   0.150   1.936  0.7188 -0.2565 -0.9868
 5183TIP3    H237185   6.509   0.167   2.067 -2.4127  3.2588  0.5004
 5184TIP3   OH237186   5.579   2.606   0.193  0.0909 -0.6042  0.0739
 5184TIP3    H137187   5.613   2.624   0.281 -3.0391  1.5752  0.9985
 5184TIP3    H237188   5.521   2.530   0.205 -0.1682 -0.4430 -0.1462
 5185TIP3   OH237189   3.565   5.361   0.733  0.1007 -0.3084 -0.0378
 5185TIP3    H137190   3.503   5.305   0.780  1.7732 -1.8610  0.4311
 5185TIP3    H237191   3.591   5.427   0.796 -0.0310 -0.4932  0.2128
 5186TIP3   OH237192   1.026   6.499   2.241  0.1987 -0.1164  0.4125
 5186TIP3    H137193   1.055   6.512   2.331  0.4197  1.2130  0.1690
 5186TIP3    H237194   0.933   6.477   2.248 -0.6002  2.9800  0.8692
 5187TIP3   OH237195   3.240   0.114   0.067 -0.2943  0.4733  0.1741
 5187TIP3    H137196   3.299   0.168   0.119 -0.2685  1.0451 -0.4350
 5187TIP3    H237197   3.287   0.100  -0.015 -0.7438  0.4088 -0.0746
 5188TIP3   OH237198   5.152   4.889   8.104 -0.2448 -0.3478  0.1373
 5188TIP3    H137199   5.217   4.920   8.042 -3.0057  2.6669 -1.5273
 5188TIP3    H237200   5.136   4.798   8.078  1.0996 -0.2101 -1.3342
 5189TIP3   OH237201   0.763   1.855   0.109 -0.0187  0.5273  0.1107
 5189TIP3    H137202   0.837   1.873   0.167 -0.1905 -1.3819  0.9939
 5189TIP3    H237203   0.706   1.797   0.160 -2.0565  1.7981 -0.6141
 5190TIP3   OH237204   3.332   5.961   1.387 -0.0764 -0.2788  0.4267
 5190TIP3    H137205   3.294   5.931   1.470  2.6145  0.2724  1.9681
 5190TIP3    H237206   3.368   5.883   1.347  0.3099 -0.2676  0.7438
 5191TIP3   OH237207   1.215   1.588   8.696 -0.0783  0.1274  0.5580
 5191TIP3    H137208   1.270   1.533   8.640  1.6321  0.6299  1.6734
 5191TIP3    H237209   1.174   1.650   8.636 -0.3021 -0.9426 -0.4379
 5192TIP3   OH237210   3.314   0.085   8.393  0.8170 -0.2353  1.2141
 5192TIP3    H137211   3.240   0.052   8.445  0.9042 -1.0057  0.8613
 5192TIP3    H237212   3.370   0.008   8.381  0.4598 -0.2460 -0.6020
 5193TIP3   OH237213   3.654   4.497   7.506 -0.7660  0.0246 -0.2892
 5193TIP3    H137214   3.596   4.563   7.543 -1.9403 -1.0022 -0.1865
 5193TIP3    H237215   3.676   4.531   7.419 -1.2637  0.6039 -0.1992
 5194TIP3   OH237216   4.421   6.694   8.500 -0.3925 -0.7150  0.2848
 5194TIP3    H137217   4.403   6.773   8.550  0.5131  0.6200 -1.3797
 5194TIP3    H237218   4.514   6.677   8.515  0.2818  0.5598 -1.9608
 5195TIP3   OH237219   1.159   0.034   7.009 -0.4513 -0.1491  0.1565
 5195TIP3    H137220   1.080   0.066   7.054  0.3625  0.5654  1.1020
 5195TIP3    H237221   1.131   0.023   6.918 -2.0368 -1.2964  0.7329
 5196TIP3   OH237222   1.366   5.108   1.505  0.2220 -0.6230 -0.5694
 5196TIP3    H137223   1.275   5.130   1.525  0.5277 -1.7056  2.5400
 5196TIP3    H237224   1.399   5.184   1.455 -2.1459  0.0760 -1.1906
 5197TIP3   OH237225   5.493   0.170   0.872  0.5496  0.1664  0.1131
 5197TIP3    H137226   5.489   0.109   0.799  1.7920  0.9208 -0.6097
 5197TIP3    H237227   5.416   0.225   0.862  1.3335  1.0374 -1.3522
 5198TIP3   OH237228   2.210   6.110   8.361 -0.0807 -0.4768 -0.0817
 5198TIP3    H137229   2.207   6.051   8.436  0.0271 -0.6727 -0.2285
 5198TIP3    H237230   2.268   6.181   8.389  0.6060 -0.9568 -0.2651
 5199TIP3   OH237231   3.008   2.274   8.759 -0.4500  0.4608  0.1207
 5199TIP3    H137232   3.103   2.286   8.752 -0.6025  1.2829 -0.7378
 5199TIP3    H237233   2.972   2.362   8.749 -1.3370  0.0779 -0.1255
 5200TIP3   OH237234   2.836   5.206   1.106 -0.7425  0.1355  0.5555
 5200TIP3    H137235   2.779   5.132   1.084  1.7404 -1.0802 -2.5547
 5200TIP3    H237236   2.823   5.268   1.034  1.5703 -0.0940 -0.1426
 5201TIP3   OH237237   1.081   1.291   1.715 -0.0484  0.0038  0.9503
 5201TIP3    H137238   1.141   1.317   1.785 -0.2784 -0.0727  1.1767
 5201TIP3    H237239   0.997   1.331   1.738  0.0335  0.5395  0.3641
 5202TIP3   OH237240   0.335   5.554   1.999 -0.1690 -0.6037  0.4412
 5202TIP3    H137241   0.346   5.614   2.073  2.3909 -1.1392  0.5799
 5202TIP3    H237242   0.296   5.608   1.930  0.8612  0.9054  0.9868
 5203TIP3   OH237243   2.260   4.940   7.292  0.3620 -0.0799  0.1552
 5203TIP3    H137244   2.180   4.988   7.271 -0.7634 -2.0962 -0.4582
 5203TIP3    H237245   2.275   4.956   7.385 -1.9627 -1.2937  0.7997
 5204TIP3   OH237246   6.158   1.786   7.522  0.0068 -0.6493  0.3881
 5204TIP3    H137247   6.130   1.715   7.464 -1.0179 -0.4089  0.5534
 5204TIP3    H237248   6.249   1.767   7.542  0.7774 -0.1060 -2.2313
 5205TIP3   OH237249   6.661   5.559   2.868 -0.0209  0.4109  0.6629
 5205TIP3    H137250   6.604   5.508   2.926  0.2046 -1.3939 -0.6030
 5205TIP3    H237251   6.712   5.614   2.927 -0.3746 -0.7445  2.1091
 5206TIP3   OH237252   2.153   3.686   6.735  0.0791  0.1848  0.7180
 5206TIP3    H137253   2.178   3.623   6.668  0.4538  0.9159  0.1436
 5206TIP3    H237254   2.227   3.747   6.739 -0.2155  0.5114  1.3511
 5207TIP3   OH237255   5.498   5.031   7.161  0.2360  0.3660  0.4835
 5207TIP3    H137256   5.535   4.949   7.128  1.3434  1.5671 -1.4101
 5207TIP3    H237257   5.566   5.066   7.219  0.6290  0.8686 -0.2578
 5208TIP3   OH237258   3.845   5.176   2.007  0.1911 -0.2881 -0.1907
 5208TIP3    H137259   3.859   5.224   1.925  0.0921 -1.8393 -1.1620
 5208TIP3    H237260   3.917   5.113   2.011 -0.4261 -0.9860  0.3395
 5209TIP3   OH237261   2.821   0.443   7.295  0.0013  0.0472 -0.1120
 5209TIP3    H137262   2.794   0.471   7.208  0.7442 -1.3721 -0.8188
 5209TIP3    H237263   2.798   0.350   7.300 -1.1037  0.3518  1.6584
 5210TIP3   OH237264   5.118   4.498   7.715 -0.3534 -0.1268  0.2785
 5210TIP3    H137265   5.035   4.526   7.754  0.8765  0.6387  2.5657
 5210TIP3    H237266   5.147   4.573   7.663 -0.8534 -0.1946 -0.0945
 5211TIP3   OH237267   6.690   5.554   8.371  0.0523  0.7526  0.1483
 5211TIP3    H137268   6.602   5.519   8.360 -0.8615  2.2656  2.0841
 5211TIP3    H237269   6.680   5.625   8.435  2.5100  1.6332 -0.3333
 5212TIP3   OH237270   4.613   0.017   2.782 -0.0917  0.1345  0.3650
 5212TIP3    H137271   4.613  -0.077   2.803  0.9297 -0.1083 -0.6767
 5212TIP3    H237272   4.696   0.032   2.737 -0.0901  1.6189  0.8056
 5213TIP3   OH237273   2.683   0.076   8.503  0.2029  0.2703 -0.8297
 5213TIP3    H137274   2.660   0.007   8.441 -0.1428 -0.6451  0.2686
 5213TIP3    H237275   2.643   0.155   8.468  1.1966  0.0870 -2.4877
 5214TIP3   OH237276   4.125   3.854   2.063  1.4536 -0.1990 -0.8631
 5214TIP3    H137277   4.033   3.855   2.090  0.9160 -4.7797 -1.6428
 5214TIP3    H237278   4.173   3.885   2.140 -0.6435  0.4248  0.2750
 5215TIP3   OH237279   2.855   5.653   1.450  0.2063 -0.1284  0.0395
 5215TIP3    H137280   2.797   5.616   1.517  1.7953 -0.8274  1.0931
 5215TIP3    H237281   2.848   5.747   1.462 -2.8439  0.0039 -1.7706
 5216TIP3   OH237282   0.190   1.710   2.772 -0.0396  0.0787  0.1935
 5216TIP3    H137283   0.098   1.687   2.789  0.3211  0.1511  2.5682
 5216TIP3    H237284   0.195   1.717   2.677 -2.8053  1.3160  0.0346
 5217TIP3   OH237285   4.681   6.514   2.496 -0.3996 -1.0342 -0.0444
 5217TIP3    H137286   4.713   6.581   2.435  0.8867 -2.2071 -0.7236
 5217TIP3    H237287   4.759   6.489   2.546 -0.1456 -3.9505 -1.7002
 5218TIP3   OH237288   6.467   0.941   1.143 -0.6884 -0.2737 -0.3009
 5218TIP3    H137289   6.418   1.009   1.189 -1.1142 -0.5123 -0.4006
 5218TIP3    H237290   6.496   0.882   1.212  1.2517  0.9598  0.0213
 5219TIP3   OH237291   3.916   0.852   1.556 -0.1996  0.5120  0.0037
 5219TIP3    H137292   3.905   0.925   1.495 -1.2610  0.2115 -0.1861
 5219TIP3    H237293   3.861   0.783   1.521  0.7027 -0.3510  0.2506
 5220TIP3   OH237294   2.471   1.823   1.545  0.1243 -0.1103  0.6105
 5220TIP3    H137295   2.522   1.878   1.605  0.2391 -1.3268  1.6846
 5220TIP3    H237296   2.380   1.843   1.566  0.1670 -0.2922  0.9898
 5221TIP3   OH237297   3.912   1.357   2.341  0.7908  0.4404 -0.0030
 5221TIP3    H137298   3.889   1.388   2.254 -0.8615  0.2291  0.3313
 5221TIP3    H237299   3.828   1.344   2.385  1.5466 -0.9400  1.1088
 5222TIP3   OH237300   0.622   0.923   1.175 -0.3944 -0.0252 -0.4911
 5222TIP3    H137301   0.544   0.885   1.214  1.4856 -2.7051  1.0189
 5222TIP3    H237302   0.648   0.992   1.235  0.3222 -1.5473  1.0422
 5223TIP3   OH237303   1.970   0.591   8.177 -0.2726  0.2723  0.1880
 5223TIP3    H137304   1.977   0.593   8.082 -1.3322  0.2454  0.1007
 5223TIP3    H237305   2.054   0.624   8.208  0.8769 -1.6025 -0.7249
 5224TIP3   OH237306   2.609   0.150   0.572  0.3256 -0.1696 -0.2098
 5224TIP3    H137307   2.542   0.132   0.507 -0.0567 -0.3246  0.2189
 5224TIP3    H237308   2.574   0.113   0.653 -0.6726  2.8067  0.8323
 5225TIP3   OH237309   4.283   0.925   0.444  0.6179  0.4402 -0.0398
 5225TIP3    H137310   4.303   1.006   0.397  3.0354 -0.5458 -0.8749
 5225TIP3    H237311   4.198   0.897   0.408  0.7992  1.4613 -1.3462
 5226TIP3   OH237312   5.228   1.665   2.341  0.2348  0.1092 -0.3501
 5226TIP3    H137313   5.178   1.715   2.406  1.8139  0.1543  0.8761
 5226TIP3    H237314   5.319   1.686   2.358  0.7268  0.1461 -2.6400
 5227TIP3   OH237315   6.541   2.513   1.381 -0.6966 -0.2390 -0.1828
 5227TIP3    H137316   6.466   2.455   1.369  0.7051 -2.1931 -0.0375
 5227TIP3    H237317   6.572   2.531   1.292 -1.8103  1.2829 -0.2896
 5228TIP3   OH237318   6.367   2.734   1.705  0.6890 -0.1034  0.6125
 5228TIP3    H137319   6.278   2.704   1.726 -0.1111  0.7174 -1.3546
 5228TIP3    H237320   6.391   2.790   1.778  1.5165 -3.8271  3.5405
 5229TIP3   OH237321   5.137   3.564   6.294 -0.5179 -0.2438  0.1615
 5229TIP3    H137322   5.223   3.598   6.318 -1.1845  1.7221 -0.0751
 5229TIP3    H237323   5.121   3.494   6.357  2.4776 -2.7698 -1.6041
 5230TIP3   OH237324   0.489   3.999   2.207  0.2632 -0.5044 -0.0962
 5230TIP3    H137325   0.415   4.057   2.224  0.0994 -0.6827 -0.2090
 5230TIP3    H237326   0.450   3.916   2.181  0.4895 -1.0755  1.3296
 5231TIP3   OH237327   1.795   3.353   0.527 -0.0300  0.1582  0.3763
 5231TIP3    H137328   1.880   3.309   0.519  0.1660  0.7930 -1.6022
 5231TIP3    H237329   1.811   3.428   0.584  0.6468  0.0308  0.3544
 5232TIP3   OH237330   3.376   1.314   7.139 -0.4269  0.2655 -0.4152
 5232TIP3    H137331   3.354   1.225   7.112  0.2183  0.2984 -1.0851
 5232TIP3    H237332   3.413   1.304   7.226 -0.7523 -0.0702 -0.3119
 5233TIP3   OH237333   0.287   1.307   1.959 -0.3928 -0.3508 -0.8525
 5233TIP3    H137334   0.343   1.277   2.031 -0.5696  1.6082  0.1662
 5233TIP3    H237335   0.346   1.354   1.900 -0.9668  2.4939  0.6696
 5234TIP3   OH237336   3.793   5.930   7.012 -0.0864  0.1024  0.6500
 5234TIP3    H137337   3.764   5.979   7.089 -0.2850 -0.4326  0.9200
 5234TIP3    H237338   3.728   5.951   6.945 -0.0402  0.3917  0.6965
 5235TIP3   OH237339   4.694   5.327   7.331  0.1493 -0.2559 -0.1453
 5235TIP3    H137340   4.722   5.417   7.347  2.1280 -0.2910 -2.7537
 5235TIP3    H237341   4.749   5.297   7.258 -1.6566 -2.9883 -0.5420
 5236TIP3   OH237342   1.045   0.646   2.054  0.5781  0.1536  0.0619
 5236TIP3    H137343   1.032   0.560   2.015  0.9431 -0.8396  2.0195
 5236TIP3    H237344   0.958   0.684   2.058  0.4492 -0.0106 -1.0555
 5237TIP3   OH237345   2.865   0.674   1.389 -0.6419  0.3382 -0.0881
 5237TIP3    H137346   2.812   0.754   1.399  1.0570  1.5948 -0.5941
 5237TIP3    H237347   2.914   0.688   1.308  0.7415 -0.5823  0.5529
 5238TIP3   OH237348   4.093   6.458   1.907 -0.0687  0.0323 -0.0173
 5238TIP3    H137349   4.082   6.539   1.858 -1.0545 -0.2378 -0.2565
 5238TIP3    H237350   4.144   6.401   1.849  0.0210  0.2303 -0.1325
 5239TIP3   OH237351   3.566   4.282   7.646  0.1149 -0.2070  0.0657
 5239TIP3    H137352   3.479   4.322   7.645 -0.9429 -2.3265 -2.1858
 5239TIP3    H237353   3.621   4.343   7.597 -0.4124  0.4922  0.3243
 5240TIP3   OH237354   3.841   5.502   7.662  0.4113  0.0776 -0.4609
 5240TIP3    H137355   3.911   5.474   7.721 -0.7721 -0.6308  0.6328
 5240TIP3    H237356   3.802   5.578   7.705  0.2957  0.2780 -0.9138
 5241TIP3   OH237357   5.526   5.329   0.321  0.1455  0.3712  0.6351
 5241TIP3    H137358   5.445   5.279   0.328  1.1503 -1.0799  3.1355
 5241TIP3    H237359   5.524   5.365   0.232 -1.7143 -2.2364 -0.5123
 5242TIP3   OH237360   0.153   0.109   0.151  0.0899  0.1819 -0.0633
 5242TIP3    H137361   0.213   0.183   0.138  0.8486 -0.1228  1.5068
 5242TIP3    H237362   0.187   0.040   0.093 -0.5676  0.9865 -1.4689
 5243TIP3   OH237363   4.357   3.991   6.787 -0.2320 -0.6135  0.3816
 5243TIP3    H137364   4.280   4.004   6.732  1.0429  3.3591 -0.8404
 5243TIP3    H237365   4.425   3.959   6.727  0.3287  0.7010  0.2834
 5244TIP3   OH237366   2.121   3.548   2.480  0.0231  0.1026  0.3526
 5244TIP3    H137367   2.048   3.594   2.438  0.2139 -0.5648 -0.7199
 5244TIP3    H237368   2.167   3.617   2.529 -2.4480  0.2258  2.7675
 5245TIP3   OH237369   0.136   2.698   2.941  0.2017  0.0950  0.6823
 5245TIP3    H137370   0.219   2.704   2.989  0.4188  1.2311  0.1799
 5245TIP3    H237371   0.159   2.651   2.860  0.2615  0.0337  0.7341
 5246TIP3   OH237372   6.524   2.336   0.496  0.7599  0.8788 -0.3424
 5246TIP3    H137373   6.444   2.308   0.452  0.4408 -1.8056  1.7386
 5246TIP3    H237374   6.593   2.282   0.457  1.2279  1.6380 -0.5909
 5247TIP3   OH237375   4.001   1.139   7.784 -0.5053  0.4248 -0.2257
 5247TIP3    H137376   3.941   1.171   7.717  0.5834  0.6922 -1.1061
 5247TIP3    H237377   4.014   1.046   7.762 -0.4352  0.4215 -0.1707
 5248TIP3   OH237378   1.665   6.034   6.894 -0.0570 -0.0518 -0.3298
 5248TIP3    H137379   1.695   6.111   6.942  0.6421 -0.9581  0.7538
 5248TIP3    H237380   1.572   6.026   6.914  0.5532 -1.4272  2.4635
 5249TIP3   OH237381   0.858   2.895   2.110 -0.2013  0.1044 -0.0907
 5249TIP3    H137382   0.822   2.853   2.032 -0.6158  1.0898 -0.4506
 5249TIP3    H237383   0.784   2.902   2.170 -0.1629  0.4075 -0.0771
 5250TIP3   OH237384   4.969   0.515   1.809  0.1815 -0.4120  0.1038
 5250TIP3    H137385   5.060   0.498   1.784 -0.2773 -1.4839 -0.9527
 5250TIP3    H237386   4.950   0.451   1.877 -0.0224 -0.7775 -0.2870
 5251TIP3   OH237387   0.923   4.883   7.636  0.3979  0.2828  0.6792
 5251TIP3    H137388   0.937   4.974   7.662 -1.8519  0.6596  0.7954
 5251TIP3    H237389   0.957   4.878   7.546  1.7682  0.8542  1.1480
 5252TIP3   OH237390   3.566   1.238   8.901  0.2268 -0.3199 -0.0788
 5252TIP3    H137391   3.522   1.198   8.826  2.0310  0.5335 -1.6908
 5252TIP3    H237392   3.507   1.309   8.928 -1.3375 -1.7971  0.5935
 5253TIP3   OH237393   3.833   6.461   8.875 -0.0908 -0.2570 -0.0257
 5253TIP3    H137394   3.868   6.549   8.860 -2.1481  0.7285  0.4193
 5253TIP3    H237395   3.801   6.433   8.789 -0.4665 -0.0522  0.0426
 5254TIP3   OH237396   1.576   1.753   2.989  0.6084 -1.0598  0.7056
 5254TIP3    H137397   1.552   1.840   2.956 -1.9844 -1.8472  0.2799
 5254TIP3    H237398   1.670   1.758   3.002  0.6421  1.6183  0.1133
 5255TIP3   OH237399   5.108   4.079   0.417  0.0417 -0.0170 -0.3636
 5255TIP3    H137400   5.095   4.174   0.410 -1.0897 -0.0617  0.9599
 5255TIP3    H237401   5.048   4.042   0.352 -1.3461  0.0889  0.8225
 5256TIP3   OH237402   2.367   3.636   1.656  0.5359  0.3557  0.1170
 5256TIP3    H137403   2.449   3.614   1.612  0.0763 -0.1341 -0.5187
 5256TIP3    H237404   2.325   3.700   1.598 -0.3132 -0.6816 -0.4467
 5257TIP3   OH237405   6.045   3.824   0.668 -0.0173 -0.6157  0.2690
 5257TIP3    H137406   5.978   3.833   0.600 -1.2546 -2.3823  1.1808
 5257TIP3    H237407   6.084   3.738   0.653  2.6768  0.6757 -0.7148
 5258TIP3   OH237408   3.377   4.830   8.847 -0.6853  0.2040  0.1321
 5258TIP3    H137409   3.330   4.848   8.765 -1.7728  2.4845  1.1544
 5258TIP3    H237410   3.393   4.736   8.846 -2.4282 -0.1365 -1.7793
 5259TIP3   OH237411   2.728   0.635   0.311 -0.4037  0.0620 -0.4944
 5259TIP3    H137412   2.797   0.636   0.245  1.6473  1.2270  1.5262
 5259TIP3    H237413   2.730   0.546   0.346  1.1410  0.4508  0.5169
 5260TIP3   OH237414   5.624   3.756   8.833  0.4053 -0.2578  0.4479
 5260TIP3    H137415   5.594   3.692   8.898  1.7427 -1.0282  0.3319
 5260TIP3    H237416   5.620   3.840   8.878  0.0329 -0.6138  1.0853
 5261TIP3   OH237417   2.146   3.245   0.172  0.0696 -0.2243  0.2475
 5261TIP3    H137418   2.125   3.333   0.205  0.3680 -0.1383  0.2161
 5261TIP3    H237419   2.176   3.260   0.082  0.7800 -0.2743  0.4666
 5262TIP3   OH237420   0.807   4.084   0.135  0.1148  0.3470  0.1681
 5262TIP3    H137421   0.803   4.145   0.062  1.6339 -0.2442 -0.4463
 5262TIP3    H237422   0.756   4.008   0.106 -0.6526  0.7676  0.3960
 5263TIP3   OH237423   3.832   4.481   1.658 -0.5971  0.6362 -0.3076
 5263TIP3    H137424   3.746   4.447   1.681 -0.6582  0.9367 -0.0878
 5263TIP3    H237425   3.837   4.471   1.563 -0.9008  0.6779 -0.3293
 5264TIP3   OH237426   6.241   0.219   8.320 -0.0024  0.1503 -0.6749
 5264TIP3    H137427   6.262   0.219   8.414  1.6456 -0.9503 -1.0130
 5264TIP3    H237428   6.282   0.299   8.287 -1.5010  1.1131 -0.3090
 5265TIP3   OH237429   4.331   5.777   7.177 -0.3952  0.1000  0.8897
 5265TIP3    H137430   4.406   5.718   7.189 -0.4175 -0.8160 -2.4350
 5265TIP3    H237431   4.367   5.853   7.133 -1.3722 -0.4543 -0.9749
 5266TIP3   OH237432   0.011   4.103   2.190 -0.5132 -0.0994 -0.1637
 5266TIP3    H137433   0.062   4.184   2.191 -1.0157  0.2705  2.1093
 5266TIP3    H237434  -0.005   4.086   2.097  0.9628  1.5205 -0.7769
 5267TIP3   OH237435   2.069   2.607   2.256 -0.5050  0.1415  0.1801
 5267TIP3    H137436   2.138   2.570   2.310  0.9511  0.2705 -1.4849
 5267TIP3    H237437   2.057   2.696   2.290  0.2754  0.1672  0.4137
 5268TIP3   OH237438   1.144   2.775   8.676 -0.1401  0.1570  0.0311
 5268TIP3    H137439   1.110   2.691   8.644 -0.7507  0.1677  0.6330
 5268TIP3    H237440   1.085   2.799   8.747 -0.3507  1.4205 -0.5553
 5269TIP3   OH237441   3.066   1.109   6.449  0.0165 -0.1450  0.5917
 5269TIP3    H137442   3.046   1.164   6.525  2.8961  0.1745  1.2354
 5269TIP3    H237443   3.153   1.138   6.421 -0.6009 -0.8309 -2.3603
 5270TIP3   OH237444   4.766   5.433   1.450 -0.1477 -0.0032 -0.1265
 5270TIP3    H137445   4.684   5.389   1.475  0.4873 -0.3822  1.4205
 5270TIP3    H237446   4.767   5.512   1.503  0.0435  0.4842 -0.8521
 5271TIP3   OH237447   1.230   5.952   1.078  0.4245  0.1674  0.3513
 5271TIP3    H137448   1.170   5.975   1.007  0.7810  0.5471  0.1701
 5271TIP3    H237449   1.199   5.867   1.109 -0.3583  0.4636  0.4215
 5272TIP3   OH237450   4.538   5.381   0.753 -0.2122 -0.5338  0.2549
 5272TIP3    H137451   4.489   5.329   0.690 -1.9319  0.0914  1.0141
 5272TIP3    H237452   4.471   5.424   0.807  1.1201  1.7379  0.2473
 5273TIP3   OH237453   0.796   0.800   8.516  0.2872 -0.2304 -0.0836
 5273TIP3    H137454   0.723   0.837   8.467  0.8696 -1.4011 -1.9935
 5273TIP3    H237455   0.805   0.711   8.481  0.7263 -1.1664  2.2679
 5274TIP3   OH237456   1.287   6.061   0.018  0.4141 -0.1563  0.2753
 5274TIP3    H137457   1.334   5.982  -0.009 -0.5269 -0.7398  0.3184
 5274TIP3    H237458   1.244   6.037   0.099  1.1710  0.8165  0.9858
 5275TIP3   OH237459   0.976   5.225   0.175 -0.7137 -0.4355 -0.3855
 5275TIP3    H137460   0.952   5.217   0.083  0.2997  1.0002 -0.8044
 5275TIP3    H237461   0.895   5.209   0.223 -1.4233 -0.4304 -1.5534
 5276TIP3   OH237462   1.617   0.341   1.971 -0.2656 -0.6007  0.3025
 5276TIP3    H137463   1.557   0.409   2.003 -0.2930 -1.2693  1.7643
 5276TIP3    H237464   1.591   0.327   1.880 -1.3649  0.1614  0.4742
 5277TIP3   OH237465   5.379   2.784   8.651  0.4050  0.0435 -0.4649
 5277TIP3    H137466   5.379   2.876   8.622  0.6633  0.6685  1.3851
 5277TIP3    H237467   5.463   2.773   8.695 -0.4985 -0.3928  1.2590
 5278TIP3   OH237468   6.671   4.163   1.045 -0.6653  0.1343  1.0410
 5278TIP3    H137469   6.646   4.214   0.968 -0.4608  0.1271  0.9710
 5278TIP3    H237470   6.758   4.196   1.069 -0.9327  0.4918  1.5681
 5279TIP3   OH237471   5.943   3.569   1.042 -0.0438 -0.2453  0.5582
 5279TIP3    H137472   5.975   3.655   1.014  0.5525  0.1797  2.3584
 5279TIP3    H237473   5.866   3.589   1.095 -1.8180 -1.0914 -1.5530
 5280TIP3   OH237474   2.635   5.095   2.545 -0.8161  0.0834  0.3493
 5280TIP3    H137475   2.590   5.156   2.603 -0.0526 -0.3024  1.3737
 5280TIP3    H237476   2.609   5.008   2.575 -1.2258 -0.1220 -0.5602
 5281TIP3   OH237477   2.685   5.108   0.759 -0.1056 -1.0632 -0.3317
 5281TIP3    H137478   2.731   5.024   0.753  0.4589 -0.8063  0.2158
 5281TIP3    H237479   2.748   5.167   0.802 -0.5060 -0.3724 -0.6705
 5282TIP3   OH237480   5.425   3.141   2.298 -0.4486 -0.0532 -0.5681
 5282TIP3    H137481   5.334   3.114   2.286 -0.9850  0.8195  1.2310
 5282TIP3    H237482   5.420   3.221   2.350  1.3085  0.6900 -1.4347
 5283TIP3   OH237483   5.980   5.065   0.022 -0.1474  0.5948  0.3072
 5283TIP3    H137484   5.999   4.973   0.039  0.7301  0.8572  0.8457
 5283TIP3    H237485   6.064   5.109   0.035 -0.1850  1.2711 -1.4725
 5284TIP3   OH237486   2.327   1.318   7.550 -0.1559  1.0533  0.3226
 5284TIP3    H137487   2.408   1.269   7.566 -0.1087  0.6071 -1.1630
 5284TIP3    H237488   2.284   1.320   7.635  1.2269  0.9686  1.0689
 5285TIP3   OH237489   5.438   2.281   7.889 -0.2318  0.4171  0.2983
 5285TIP3    H137490   5.493   2.356   7.868 -0.7541  0.8187  0.3629
 5285TIP3    H237491   5.424   2.287   7.983 -0.1041  0.1197  0.3372
 5286TIP3   OH237492   0.009   5.897   1.751  0.5573  0.4115 -0.4530
 5286TIP3    H137493  -0.078   5.924   1.724  1.4503  2.1713 -1.7781
 5286TIP3    H237494   0.007   5.900   1.847 -0.0432  3.2994 -0.4865
 5287TIP3   OH237495   2.226   1.384   1.557 -0.7417 -1.0003 -0.0327
 5287TIP3    H137496   2.244   1.303   1.603 -0.6881 -1.3468 -0.6530
 5287TIP3    H237497   2.191   1.357   1.472 -0.6558 -0.3837 -0.2743
 5288TIP3   OH237498   4.362   6.690   2.486 -0.3502 -0.3434  0.2420
 5288TIP3    H137499   4.397   6.617   2.537  0.0535  0.2262  0.8024
 5288TIP3    H237500   4.435   6.717   2.431 -0.3469 -0.0677  0.3793
 5289TIP3   OH237501   4.464   2.303   8.206  0.1487  0.0612  0.4745
 5289TIP3    H137502   4.423   2.319   8.121  0.2720  0.5572  0.5105
 5289TIP3    H237503   4.399   2.251   8.254 -0.3501  0.6555  0.4500
 5290TIP3   OH237504   4.719   0.879   2.699  0.3247  0.0346 -0.0121
 5290TIP3    H137505   4.746   0.930   2.775 -1.1622 -0.7794  1.1284
 5290TIP3    H237506   4.702   0.791   2.734  0.5910 -0.6333 -1.4883
 5291TIP3   OH237507   5.322   5.079   1.175  0.2190  0.3719  0.2023
 5291TIP3    H137508   5.288   5.053   1.261 -0.1646 -0.7140 -0.2589
 5291TIP3    H237509   5.399   5.025   1.162 -0.5129 -0.4827 -0.7215
 5292TIP3   OH237510   6.546   0.599   1.782 -0.4695  0.6687  0.2770
 5292TIP3    H137511   6.539   0.541   1.859 -0.7813  0.6128  0.2087
 5292TIP3    H237512   6.591   0.677   1.815 -1.0704  0.8680  0.6493
 5293TIP3   OH237513   5.206   6.212   0.118  0.5987 -0.5893 -0.7785
 5293TIP3    H137514   5.119   6.207   0.079  0.3869 -1.1926 -0.2500
 5293TIP3    H237515   5.202   6.287   0.177  0.8493  0.1853 -1.7164
 5294TIP3   OH237516   5.041   4.986   1.148 -0.3193  0.0611 -0.1232
 5294TIP3    H137517   5.004   4.987   1.059 -2.8554  0.0806  0.8437
 5294TIP3    H237518   5.120   5.039   1.142 -0.8598  0.7348 -2.1814
 5295TIP3   OH237519   0.126   1.244   1.093 -0.1435 -0.2851  0.0850
 5295TIP3    H137520   0.208   1.208   1.059  0.6939  0.2182  1.4733
 5295TIP3    H237521   0.067   1.169   1.100  0.7133 -0.9318  0.5017
 5296TIP3   OH237522   4.422   6.665   1.818  0.5798  0.2395 -0.4613
 5296TIP3    H137523   4.516   6.663   1.839  0.6591  0.2412 -0.8157
 5296TIP3    H237524   4.381   6.615   1.889  0.8793 -0.0106 -0.4603
 5297TIP3   OH237525   4.746   0.621   2.158 -0.2936 -0.6850 -0.1377
 5297TIP3    H137526   4.654   0.635   2.136 -0.4933 -0.5524  0.7337
 5297TIP3    H237527   4.744   0.551   2.224 -0.0334  1.1905  1.9940
 5298TIP3   OH237528   1.044   1.052   7.737  0.1086 -0.2170  0.0620
 5298TIP3    H137529   1.050   1.083   7.646 -1.3616 -0.6811 -0.2094
 5298TIP3    H237530   0.985   0.977   7.733  1.4440 -1.3771  1.1412
 5299TIP3   OH237531   5.415   6.695   8.257  0.0361  0.7694 -0.4174
 5299TIP3    H137532   5.399   6.602   8.240 -0.8057  0.7396  0.4357
 5299TIP3    H237533   5.360   6.715   8.333  0.8765  1.7536 -0.0483
 5300TIP3   OH237534   4.327   3.622   6.997  0.1716  0.2822  0.0759
 5300TIP3    H137535   4.407   3.639   7.047  0.1040 -1.5666  0.8898
 5300TIP3    H237536   4.353   3.632   6.906  1.4818 -0.7259  0.3023
 5301TIP3   OH237537   0.916   5.604   2.551  0.1242 -0.6258 -0.3293
 5301TIP3    H137538   0.926   5.684   2.602  2.4359 -0.2332 -1.2654
 5301TIP3    H237539   0.824   5.580   2.561 -0.1744  1.0616  1.5407
 5302TIP3   OH237540   4.177   4.803   0.414  0.0629 -0.2330 -0.0254
 5302TIP3    H137541   4.215   4.761   0.336  0.9524  0.8533 -0.2048
 5302TIP3    H237542   4.116   4.868   0.378 -1.3450 -1.3507  0.2508
 5303TIP3   OH237543   5.178   5.802   0.255  0.2086 -0.3542  0.0340
 5303TIP3    H137544   5.212   5.869   0.315 -0.9397 -0.2281  0.5629
 5303TIP3    H237545   5.151   5.851   0.178  0.7725 -0.4011 -0.2008
 5304TIP3   OH237546   4.332   2.795   8.144 -0.1746 -0.0705  0.4025
 5304TIP3    H137547   4.409   2.739   8.157 -1.2246 -1.5306  0.6017
 5304TIP3    H237548   4.347   2.836   8.059  0.3089 -1.2510 -0.1125
 5305TIP3   OH237549   0.262   2.213   0.082  0.6040  0.2185  0.3935
 5305TIP3    H137550   0.281   2.171   0.166  0.8527  0.7899  0.6254
 5305TIP3    H237551   0.334   2.274   0.068 -0.2600  1.3107  0.5504
 5306TIP3   OH237552   3.671   3.961   1.661 -0.3974 -0.2986 -0.0024
 5306TIP3    H137553   3.762   3.968   1.630 -0.7240  1.8256 -0.6142
 5306TIP3    H237554   3.646   3.871   1.641  1.0048 -0.4024 -1.4605
 5307TIP3   OH237555   3.276   2.262   8.766  0.1285  0.3682 -0.7192
 5307TIP3    H137556   3.341   2.195   8.746 -0.7729 -0.7037 -0.2046
 5307TIP3    H237557   3.323   2.328   8.817  0.3572 -1.5218  1.6942
 5308TIP3   OH237558   4.847   6.764   2.652 -0.4900 -0.0685  0.2373
 5308TIP3    H137559   4.912   6.829   2.680 -1.4595  0.1593  2.1265
 5308TIP3    H237560   4.893   6.680   2.661  0.3319  0.2325 -0.9048
 5309TIP3   OH237561   3.600   2.179   7.330  0.2952 -0.3989  0.0449
 5309TIP3    H137562   3.543   2.225   7.268 -0.5504 -0.1424  0.9704
 5309TIP3    H237563   3.614   2.093   7.291 -2.8098 -1.4277  0.8724
 5310TIP3   OH237564   1.422   3.539   0.979  0.2086  0.0328 -0.5699
 5310TIP3    H137565   1.341   3.585   0.954  0.7428  0.7122 -1.1052
 5310TIP3    H237566   1.423   3.543   1.074 -0.3436  0.1091 -0.5650
 5311TIP3   OH237567   1.047   0.869   8.024 -0.6479  0.0940 -0.4925
 5311TIP3    H137568   1.122   0.810   8.021 -0.1318  0.7822 -1.3429
 5311TIP3    H237569   0.984   0.832   7.962 -1.4211 -0.9823  0.8659
 5312TIP3   OH237570   1.290   3.104   0.982  0.2517  0.0592  0.1708
 5312TIP3    H137571   1.265   3.156   1.059 -0.3183  0.7482 -0.4649
 5312TIP3    H237572   1.313   3.169   0.916 -1.0686 -0.4612 -0.8380
 5313TIP3   OH237573   4.254   3.762   6.616  0.9301  0.6249  0.1539
 5313TIP3    H137574   4.173   3.712   6.622  0.9867  0.3311 -1.0807
 5313TIP3    H237575   4.226   3.851   6.595  0.8656  0.9321  1.4871
 5314TIP3   OH237576   1.642   4.109   1.341  1.0360 -0.1058 -0.1777
 5314TIP3    H137577   1.640   4.201   1.370 -0.3905  0.6405 -2.4233
 5314TIP3    H237578   1.673   4.113   1.251  2.4147 -2.0437  0.1576
 5315TIP3   OH237579   2.099   0.901   8.446  0.8018 -0.5723 -0.2977
 5315TIP3    H137580   2.017   0.913   8.399  0.3504 -1.0596  0.3569
 5315TIP3    H237581   2.149   0.980   8.426  0.7072 -0.8387 -1.7428
 5316TIP3   OH237582   4.509   0.969   7.819 -0.0856 -0.3618  0.0801
 5316TIP3    H137583   4.529   0.904   7.751 -0.8567  1.8368 -2.4034
 5316TIP3    H237584   4.471   1.043   7.771 -0.9249  1.2271  2.9766
 5317TIP3   OH237585   3.631   5.931   1.788  0.3073  0.8289 -0.3166
 5317TIP3    H137586   3.600   6.021   1.796 -0.8336  0.4428 -0.1520
 5317TIP3    H237587   3.686   5.918   1.866 -1.6153  0.6101  1.0901
 5318TIP3   OH237588   5.504   3.192   0.104 -0.0481 -0.2060 -0.1879
 5318TIP3    H137589   5.463   3.145   0.031  0.5590 -1.6629  0.3822
 5318TIP3    H237590   5.572   3.133   0.135  0.9240  1.1767  0.3956
 5319TIP3   OH237591   4.339   3.758   7.566 -0.5212 -0.5983  0.0994
 5319TIP3    H137592   4.284   3.834   7.545  2.0125  1.3120 -0.0188
 5319TIP3    H237593   4.427   3.784   7.540  0.4972 -3.5440  0.2653
 5320TIP3   OH237594   6.017   3.045   2.527  0.4818 -0.3247 -0.0122
 5320TIP3    H137595   5.941   3.101   2.544 -0.2810 -0.5552 -2.3453
 5320TIP3    H237596   5.991   2.958   2.556  0.6986  0.0034  1.2098
 5321TIP3   OH237597   6.430   0.034   7.581  0.4138  0.4674 -0.1204
 5321TIP3    H137598   6.422  -0.002   7.669  1.7348 -0.0119 -0.1865
 5321TIP3    H237599   6.405   0.126   7.591 -0.2444  0.2243  0.5844
 5322TIP3   OH237600   3.106   6.192   1.577 -0.1580 -0.4794 -0.0078
 5322TIP3    H137601   3.175   6.256   1.563  0.3961 -0.8961  0.7319
 5322TIP3    H237602   3.025   6.243   1.577  0.3254  0.3269  1.1965
 5323TIP3   OH237603   6.476   1.773   2.756  0.5545 -0.7797 -0.6913
 5323TIP3    H137604   6.444   1.815   2.676 -1.1416  0.3702  0.5156
 5323TIP3    H237605   6.464   1.840   2.824 -0.6440 -2.6190  1.0094
 5324TIP3   OH237606   5.735   1.770   0.994 -0.6426 -0.2311  0.3467
 5324TIP3    H137607   5.702   1.843   0.942  1.9570  0.5972 -0.3140
 5324TIP3    H237608   5.724   1.798   1.085 -2.6995 -0.4957  0.2143
 5325TIP3   OH237609   0.851   0.537   0.685 -0.2377 -0.6311  0.4767
 5325TIP3    H137610   0.900   0.491   0.618 -0.1222  0.9889 -0.6067
 5325TIP3    H237611   0.804   0.606   0.638 -0.3808  0.3727  2.0209
 5326TIP3   OH237612   0.259   5.960   8.773  0.0520  0.1170  0.0267
 5326TIP3    H137613   0.314   6.004   8.838 -0.0116  1.2349 -0.6366
 5326TIP3    H237614   0.172   5.999   8.786 -0.7196 -1.9153  1.3323
 5327TIP3   OH237615   6.729   2.194   0.385  0.1307  0.4247 -0.1203
 5327TIP3    H137616   6.782   2.117   0.363  1.6701  1.3555  0.1323
 5327TIP3    H237617   6.767   2.265   0.333 -0.5684  1.2306  0.4336
 5328TIP3   OH237618   6.315   0.517   2.534 -0.5136  0.4968  0.1211
 5328TIP3    H137619   6.354   0.458   2.599 -1.2271  1.1329  1.1591
 5328TIP3    H237620   6.238   0.553   2.577 -0.7745  1.2620 -0.9385
 5329TIP3   OH237621   6.755   1.861   2.480  0.2176 -0.4973 -0.4222
 5329TIP3    H137622   6.734   1.944   2.436  1.7922 -0.9720 -2.1972
 5329TIP3    H237623   6.697   1.797   2.438 -0.3245 -0.4754  0.2777
 5330TIP3   OH237624   0.977   1.770   8.116 -0.2921  0.5088  0.4125
 5330TIP3    H137625   0.945   1.825   8.045  1.3234 -0.4849 -1.1559
 5330TIP3    H237626   0.972   1.680   8.081 -0.0732 -0.0719  1.8021
 5331TIP3   OH237627   4.703   5.936   7.776 -0.0086  0.4343 -0.1173
 5331TIP3    H137628   4.755   5.977   7.845 -0.7415  0.3892  0.4768
 5331TIP3    H237629   4.677   6.009   7.719 -0.8052  0.7345  0.6029
 5332TIP3   OH237630   4.993   0.677   7.328 -0.2639 -1.2314 -0.5749
 5332TIP3    H137631   4.921   0.734   7.356 -2.1039 -2.3233 -2.7490
 5332TIP3    H237632   5.030   0.643   7.410 -1.1340  0.6408  0.6465
 5333TIP3   OH237633   1.118   1.574   1.987  0.0591 -0.1471 -0.0783
 5333TIP3    H137634   1.039   1.601   1.941  1.8901  2.3230 -2.0850
 5333TIP3    H237635   1.105   1.601   2.078 -0.9392  1.3653 -0.6404
 5334TIP3   OH237636   2.034   1.306   2.873  1.3946  0.3530 -0.2556
 5334TIP3    H137637   2.057   1.356   2.794 -2.3878 -0.7376 -2.3060
 5334TIP3    H237638   2.017   1.373   2.939  0.5344  1.6372 -1.6933
 5335TIP3   OH237639   2.441   2.741   1.773 -0.7374 -0.0478 -0.4898
 5335TIP3    H137640   2.528   2.779   1.760 -1.2661  1.1062 -0.8746
 5335TIP3    H237641   2.455   2.669   1.834 -0.1563  3.2087  3.7564
 5336TIP3   OH237642   5.019   0.413   7.951  0.1115  0.3103  0.0344
 5336TIP3    H137643   5.000   0.320   7.958  0.0787  0.3155  0.0122
 5336TIP3    H237644   4.991   0.450   8.034  0.4886  0.2359  0.1997
 5337TIP3   OH237645   1.771   5.608   7.599 -0.8317 -0.2465  0.1621
 5337TIP3    H137646   1.691   5.637   7.556  0.6912  1.3923 -1.8135
 5337TIP3    H237647   1.803   5.686   7.645 -0.4858 -0.9540  1.1626
 5338TIP3   OH237648   3.166   3.619   8.537  0.1830 -0.4933  0.0080
 5338TIP3    H137649   3.223   3.689   8.503 -2.1583  0.7812 -1.5364
 5338TIP3    H237650   3.197   3.540   8.495  1.0906  0.0842 -0.4432
 5339TIP3   OH237651   2.898   5.659   1.780 -0.5934 -0.1272  0.0410
 5339TIP3    H137652   2.813   5.635   1.743 -0.6684  0.7500 -0.4012
 5339TIP3    H237653   2.939   5.576   1.803 -1.9159 -0.5491  1.0663
 5340TIP3   OH237654   1.178   6.572   7.926 -0.7641  0.2811  0.4133
 5340TIP3    H137655   1.255   6.550   7.873 -2.5514 -1.8369 -1.5186
 5340TIP3    H237656   1.211   6.580   8.015  1.8749  0.7820 -0.5270
 5341TIP3   OH237657   0.141   2.362   2.974 -0.2593 -0.5006 -0.0210
 5341TIP3    H137658   0.133   2.332   3.064  1.8089  2.2972  1.2645
 5341TIP3    H237659   0.162   2.455   2.981 -0.8970  0.0510 -3.4483
 5342TIP3   OH237660   0.388   2.744   0.904  0.3050 -0.1274  0.2202
 5342TIP3    H137661   0.348   2.740   0.817  0.1705 -3.5089  0.3170
 5342TIP3    H237662   0.315   2.765   0.962  0.1318  0.8282 -0.3212
 5343TIP3   OH237663   1.155   3.739   2.186 -0.2918  0.2766 -0.2108
 5343TIP3    H137664   1.212   3.785   2.124 -0.3128  0.2346 -0.2609
 5343TIP3    H237665   1.178   3.776   2.271 -0.0779  0.1488 -0.2113
 5344TIP3   OH237666   3.427   1.288   1.296 -0.8619  0.1159  0.2214
 5344TIP3    H137667   3.509   1.316   1.255 -1.0684 -0.4460 -0.5815
 5344TIP3    H237668   3.445   1.290   1.390  0.1067 -0.1067  0.0437
 5345TIP3   OH237669   4.396   1.295   0.110 -0.1689  0.4256 -0.2277
 5345TIP3    H137670   4.396   1.295   0.015  0.0728 -0.7180 -0.2401
 5345TIP3    H237671   4.334   1.363   0.134 -1.5155 -0.4060 -1.2142
 5346TIP3   OH237672   5.891   4.469   8.898 -0.1927  0.2389  0.1340
 5346TIP3    H137673   5.958   4.511   8.952  1.9011 -1.5160 -0.9432
 5346TIP3    H237674   5.820   4.450   8.960  2.0912 -1.7198  2.4048
 5347TIP3   OH237675   3.442   0.140   0.868  0.2212 -0.4443 -0.0829
 5347TIP3    H137676   3.406   0.093   0.943  2.1207 -0.6491  0.7567
 5347TIP3    H237677   3.446   0.074   0.799 -1.1925 -0.3491 -0.2922
 5348TIP3   OH237678   0.491   3.651   2.128 -0.1933  0.0996  0.0994
 5348TIP3    H137679   0.425   3.687   2.188 -0.9373 -0.9656 -0.0467
 5348TIP3    H237680   0.543   3.727   2.102  0.5206  0.5239  2.5162
 5349TIP3   OH237681   2.822   2.114   0.852 -0.2138  0.0692 -0.1985
 5349TIP3    H137682   2.873   2.190   0.823 -1.7036  2.2257  2.3756
 5349TIP3    H237683   2.733   2.130   0.818 -0.5852 -0.4358  0.5051
 5350TIP3   OH237684   4.592   6.645   0.834 -0.2997 -0.6832 -0.3223
 5350TIP3    H137685   4.623   6.696   0.759  0.0573  1.1412  0.9661
 5350TIP3    H237686   4.672   6.621   0.881 -0.5807 -0.2278  0.4102
 5351TIP3   OH237687   3.319   4.063   8.415  0.6081  0.2960 -0.1296
 5351TIP3    H137688   3.334   4.034   8.325 -2.2339  1.6246 -1.1378
 5351TIP3    H237689   3.403   4.102   8.442  1.3223  0.5233 -2.4665
 5352TIP3   OH237690   2.955   5.116   0.417 -0.7150 -0.3688 -0.1058
 5352TIP3    H137691   2.980   5.056   0.488 -0.3469  1.5407  1.4428
 5352TIP3    H237692   3.016   5.189   0.425 -2.9170  1.5744 -0.1054
 5353TIP3   OH237693   0.828   3.441   1.766  0.7704 -0.0484 -0.1882
 5353TIP3    H137694   0.866   3.515   1.812 -1.3901  0.4770  0.8536
 5353TIP3    H237695   0.803   3.380   1.835 -1.2498  0.1261 -0.7185
 5354TIP3   OH237696   3.170   2.444   7.771 -0.3689 -0.1814 -0.1227
 5354TIP3    H137697   3.185   2.475   7.682 -3.0573 -0.9664 -0.9547
 5354TIP3    H237698   3.200   2.354   7.772  1.9832  0.5444  0.5732
 5355TIP3   OH237699   6.592   1.456   8.040 -0.1417  0.3724  0.1365
 5355TIP3    H137700   6.671   1.404   8.029  0.4630  1.4459 -0.8180
 5355TIP3    H237701   6.523   1.392   8.060  1.0787 -0.5197  1.7244
 5356TIP3   OH237702   5.658   2.645   6.750  0.4507 -0.3491 -0.1548
 5356TIP3    H137703   5.727   2.640   6.684 -0.0182  0.9647 -0.7763
 5356TIP3    H237704   5.629   2.736   6.747  0.2680 -0.3071  1.7294
 5357TIP3   OH237705   2.199   0.798   0.178 -0.0900 -0.0073  0.4234
 5357TIP3    H137706   2.291   0.815   0.158  0.0140 -0.9713  0.0368
 5357TIP3    H237707   2.154   0.879   0.154  0.4685 -0.0146 -0.7327
 5358TIP3   OH237708   0.846   6.259   8.213  0.2081  0.4243 -0.0982
 5358TIP3    H137709   0.798   6.239   8.293  0.1450  0.1870 -0.1972
 5358TIP3    H237710   0.788   6.231   8.142  1.6300 -2.6033 -0.2202
 5359TIP3   OH237711   0.795   1.806   0.719  0.6728 -0.2702  0.3008
 5359TIP3    H137712   0.889   1.812   0.702  0.7737  1.3263  1.2176
 5359TIP3    H237713   0.772   1.892   0.754 -0.8914 -1.0590  1.2794
 5360TIP3   OH237714   5.338   2.432   1.542  0.0051 -0.3559 -0.2908
 5360TIP3    H137715   5.368   2.488   1.613  0.9665 -1.3381  0.1040
 5360TIP3    H237716   5.396   2.453   1.468 -0.1176 -0.2946 -0.3699
 5361TIP3   OH237717   0.277   0.923   7.803  0.4226  0.5148  0.3409
 5361TIP3    H137718   0.271   0.829   7.785 -0.1261  0.7417 -0.8013
 5361TIP3    H237719   0.243   0.964   7.723  0.2973  1.6765  0.9741
 5362TIP3   OH237720   1.975   0.254   6.876 -0.2124 -0.0700 -0.0150
 5362TIP3    H137721   2.028   0.210   6.809 -0.4771 -0.3190 -0.0619
 5362TIP3    H237722   2.020   0.234   6.958  0.6390  1.0102 -0.1962
 5363TIP3   OH237723   0.135   3.524   2.161  0.2350 -0.0836 -0.0018
 5363TIP3    H137724   0.084   3.605   2.168  0.3234 -0.1035  1.0347
 5363TIP3    H237725   0.148   3.496   2.252  2.4666  0.1489 -0.1971
 5364TIP3   OH237726   3.057   2.300   8.320 -0.0794 -0.5578  0.1171
 5364TIP3    H137727   3.140   2.335   8.289  0.4664 -0.7160  1.3244
 5364TIP3    H237728   3.008   2.280   8.240  0.5598  0.6386 -0.6073
 5365TIP3   OH237729   6.199   0.253   0.387 -0.4331  0.8820  0.5966
 5365TIP3    H137730   6.216   0.322   0.451 -2.8227  0.5865  1.6583
 5365TIP3    H237731   6.163   0.181   0.438  0.7203 -0.6784 -0.6787
 5366TIP3   OH237732   5.670   5.508   7.940 -0.1700  0.8276  0.1091
 5366TIP3    H137733   5.756   5.525   7.902 -0.2185  0.2771 -0.2615
 5366TIP3    H237734   5.615   5.579   7.907  0.1833  1.2830  0.4945
 5367TIP3   OH237735   0.693   1.417   0.998 -0.8690 -0.7649  0.0409
 5367TIP3    H137736   0.706   1.326   1.026  1.6352 -0.2119  0.9041
 5367TIP3    H237737   0.646   1.458   1.070 -2.8974 -1.5291 -0.7624
 5368TIP3   OH237738   6.332   6.723   8.441  0.1117  0.5170 -0.5630
 5368TIP3    H137739   6.269   6.687   8.379  0.7975  0.3283 -1.1751
 5368TIP3    H237740   6.324   6.668   8.519 -0.2211  0.2636 -0.7733
 5369TIP3   OH237741   2.193   0.140   0.742  0.2763 -0.0039  0.2397
 5369TIP3    H137742   2.195   0.167   0.650  2.2604  0.1742  0.3012
 5369TIP3    H237743   2.128   0.070   0.745  0.6246 -0.4363 -1.4297
 5370TIP3   OH237744   6.414   0.073   2.954 -0.2753  0.5119  0.3596
 5370TIP3    H137745   6.394   0.164   2.974  1.0335  1.0685 -0.6628
 5370TIP3    H237746   6.445   0.074   2.863  0.3214 -0.8475  0.5101
 5371TIP3   OH237747   1.760   2.841   8.115  0.0044 -0.1353  0.1629
 5371TIP3    H137748   1.730   2.861   8.203 -1.3149  0.9386 -0.4893
 5371TIP3    H237749   1.800   2.922   8.084  0.7150 -0.5865 -0.1357
 5372TIP3   OH237750   1.796   2.638   1.238 -0.3295 -0.1188 -0.3262
 5372TIP3    H137751   1.796   2.719   1.188 -1.0883 -1.1501 -2.0758
 5372TIP3    H237752   1.730   2.651   1.306  1.1333  1.5238  0.8907
 5373TIP3   OH237753   1.330   5.423   7.440 -0.1952 -0.6966  0.0133
 5373TIP3    H137754   1.239   5.403   7.461 -0.3449  0.6767  0.7860
 5373TIP3    H237755   1.341   5.391   7.350 -1.6440 -0.2856 -0.3429
 5374TIP3   OH237756   4.073   2.722   7.748 -0.3877 -0.1127  0.2679
 5374TIP3    H137757   4.054   2.760   7.834 -1.3307 -1.5959  0.7519
 5374TIP3    H237758   4.021   2.642   7.745 -0.6416  0.0679 -1.8373
 5375TIP3   OH237759   0.440   6.179   8.483 -0.2260 -0.7691 -0.1654
 5375TIP3    H137760   0.419   6.086   8.497 -0.7852 -0.4879  1.0343
 5375TIP3    H237761   0.507   6.198   8.548 -0.1449 -0.3178 -0.3794
 5376TIP3   OH237762   5.540   0.707   0.279  0.4384  0.2174 -0.6937
 5376TIP3    H137763   5.549   0.685   0.186 -3.2375 -0.5497 -1.0395
 5376TIP3    H237764   5.528   0.802   0.280  3.0842  0.6162 -0.6301
 5377TIP3   OH237765   1.632   5.858   1.525  0.2578 -0.1810  0.4222
 5377TIP3    H137766   1.570   5.826   1.459  0.1073  0.1439  0.4047
 5377TIP3    H237767   1.717   5.853   1.481  0.1203  0.3403  0.0863
 5378TIP3   OH237768   4.213   1.502   2.816  0.2525  0.4256 -0.5956
 5378TIP3    H137769   4.271   1.477   2.744  0.1364 -0.8983 -0.2653
 5378TIP3    H237770   4.131   1.456   2.799  0.1722  0.2134  0.2922
 5379TIP3   OH237771   6.124   6.461   1.463  0.1813  1.1644  0.0635
 5379TIP3    H137772   6.163   6.386   1.508 -0.5854 -0.5456 -1.9472
 5379TIP3    H237773   6.199   6.515   1.439  0.8647  0.5159  0.6711
 5380TIP3   OH237774   5.070   3.611   0.164  0.4266  0.3747 -0.1211
 5380TIP3    H137775   5.097   3.521   0.146 -0.7256 -0.1085  0.4310
 5380TIP3    H237776   5.025   3.639   0.085  1.6007  0.8168 -0.6513
 5381TIP3   OH237777   0.327   5.895   0.570 -0.3838  0.3640  0.3311
 5381TIP3    H137778   0.419   5.867   0.569 -0.2269  0.7805  1.6229
 5381TIP3    H237779   0.324   5.966   0.633 -1.0317  2.4794 -1.9180
 5382TIP3   OH237780   5.013   3.020   7.984 -0.2566 -0.5768 -0.0922
 5382TIP3    H137781   5.081   3.062   8.037 -0.4460 -0.1128 -0.2162
 5382TIP3    H237782   5.051   2.935   7.960 -0.8749 -1.6352  2.3208
 5383TIP3   OH237783   0.239   3.961   0.571  0.1986 -0.2148  0.5247
 5383TIP3    H137784   0.230   3.871   0.602  2.0704 -0.5456  0.2348
 5383TIP3    H237785   0.156   3.980   0.527 -0.1024 -1.9266  0.2975
 5384TIP3   OH237786   4.963   5.682   8.414  0.1939  0.2050 -0.1340
 5384TIP3    H137787   4.922   5.759   8.455  1.1432  0.6904 -0.0781
 5384TIP3    H237788   5.040   5.717   8.369  0.3051 -0.6318 -0.6082
 5385TIP3   OH237789   3.277   5.928   1.913 -0.4893  0.3353 -0.4799
 5385TIP3    H137790   3.323   5.944   1.996 -0.3125 -0.2279 -0.4666
 5385TIP3    H237791   3.240   5.840   1.923 -1.3220  0.6618 -0.6070
 5386TIP3   OH237792   5.353   1.819   8.344  0.0496  0.6761 -0.0377
 5386TIP3    H137793   5.332   1.726   8.335  0.8174  0.3952  0.8872
 5386TIP3    H237794   5.331   1.839   8.435 -0.8047  1.5986 -0.4335
 5387TIP3   OH237795   5.728   1.922   8.255 -0.1979  0.7875 -0.4650
 5387TIP3    H137796   5.644   1.926   8.208 -2.2731  1.7358  2.9849
 5387TIP3    H237797   5.723   1.994   8.318  1.8607 -0.9932  1.9187
 5388TIP3   OH237798   6.659   0.986   2.444 -0.5826  0.2601  0.4212
 5388TIP3    H137799   6.729   0.993   2.379  0.6887 -1.0930  1.5840
 5388TIP3    H237800   6.632   1.077   2.459  1.3993  0.8977  0.4239
 5389TIP3   OH237801   3.231   3.298   7.173  0.4996 -0.8694  0.4615
 5389TIP3    H137802   3.218   3.204   7.186 -1.1570 -0.9014 -1.0251
 5389TIP3    H237803   3.324   3.307   7.155  0.5509 -2.3334 -0.1619
 5390TIP3   OH237804   4.973   5.520   2.407  0.1263  0.0398 -0.5714
 5390TIP3    H137805   4.968   5.440   2.460  1.9333 -0.3775 -0.9646
 5390TIP3    H237806   4.970   5.591   2.471  0.8521 -0.4193 -0.0097
 5391TIP3   OH237807   0.805   6.149   2.728  0.1862  0.1103  0.3454
 5391TIP3    H137808   0.814   6.066   2.774  0.7881  0.2451  0.4790
 5391TIP3    H237809   0.731   6.193   2.770 -0.6998 -0.7200 -0.2993
 5392TIP3   OH237810   0.028   0.706   7.588 -0.6467 -0.1868  0.1012
 5392TIP3    H137811   0.030   0.798   7.614  0.2146 -0.6457  1.7990
 5392TIP3    H237812   0.065   0.706   7.500  2.3126  0.8176  1.2111
 5393TIP3   OH237813   6.484   4.449   0.238 -0.1407 -0.5168  0.9410
 5393TIP3    H137814   6.462   4.532   0.279  3.9299  0.9708  0.5110
 5393TIP3    H237815   6.399   4.407   0.223 -2.3883  3.3576  1.4650
 5394TIP3   OH237816   0.222   2.970   8.813  0.0643  0.0061 -0.1353
 5394TIP3    H137817   0.242   3.001   8.902  0.6927 -2.1997  0.5605
 5394TIP3    H237818   0.127   2.978   8.806 -0.3401 -2.0000  1.7261
 5395TIP3   OH237819   1.734   3.925   8.010  0.0328 -0.7189 -0.0403
 5395TIP3    H137820   1.674   3.886   7.946  1.4241 -0.5990 -1.4771
 5395TIP3    H237821   1.820   3.893   7.984  0.7600  0.2578  1.1010
 5396TIP3   OH237822   4.372   1.798   0.665 -0.1488  0.1095 -0.4984
 5396TIP3    H137823   4.279   1.774   0.662 -0.4644  1.3091 -1.7707
 5396TIP3    H237824   4.387   1.828   0.754 -0.7857 -0.8380 -0.0663
 5397TIP3   OH237825   3.848   0.436   1.829 -0.0439  0.0618 -0.3937
 5397TIP3    H137826   3.814   0.360   1.875  0.2833 -1.1783 -2.1239
 5397TIP3    H237827   3.943   0.434   1.846  0.1186 -0.5717 -1.3530
 5398TIP3   OH237828   1.543   4.772   2.737  0.2211  0.3961  0.4881
 5398TIP3    H137829   1.625   4.806   2.774  1.1749 -2.3705  1.1565
 5398TIP3    H237830   1.489   4.754   2.814 -0.1276  0.0734  0.1672
 5399TIP3   OH237831   1.996   6.625   2.350  0.2371  0.0332 -0.1707
 5399TIP3    H137832   2.001   6.686   2.276  1.7397  0.8125  0.5196
 5399TIP3    H237833   2.063   6.656   2.411  0.9410 -2.2354  0.2944
 5400TIP3   OH237834   5.352   1.158   0.677 -0.1761 -0.0520 -0.2433
 5400TIP3    H137835   5.426   1.114   0.718  0.3307  1.6881  0.7595
 5400TIP3    H237836   5.294   1.181   0.750  0.2614  2.1913 -0.5396
 5401TIP3   OH237837   2.233   5.791   0.545  0.2885  0.4532 -0.0456
 5401TIP3    H137838   2.265   5.881   0.543  1.6613 -0.0093 -0.2109
 5401TIP3    H237839   2.224   5.769   0.638 -0.3127  0.8291 -0.0069
 5402TIP3   OH237840   3.450   4.997   0.438  0.2014 -0.0508  0.1749
 5402TIP3    H137841   3.528   5.016   0.386  1.2228 -3.3121  0.3078
 5402TIP3    H237842   3.483   4.973   0.524 -1.0820  0.1353  0.7441
 5403TIP3   OH237843   4.222   1.256   8.528 -0.2907 -0.1488  0.5480
 5403TIP3    H137844   4.220   1.288   8.438  0.5878 -1.5952 -0.0260
 5403TIP3    H237845   4.256   1.166   8.520  1.9928  0.4552  2.5445
 5404TIP3   OH237846   0.800   0.600   2.417 -0.2711 -0.0686  0.0400
 5404TIP3    H137847   0.856   0.544   2.470  0.3386  0.5224  0.0361
 5404TIP3    H237848   0.841   0.687   2.422  1.9574 -0.5712 -4.1661
 5405TIP3   OH237849   1.374   6.413   0.083 -0.3246  0.2712  0.3994
 5405TIP3    H137850   1.317   6.475   0.128 -2.0500 -0.8938 -0.0982
 5405TIP3    H237851   1.377   6.443  -0.008  0.5344  0.7762  0.5807
 5406TIP3   OH237852   3.232   3.072   6.572  0.4437 -0.0910 -0.2187
 5406TIP3    H137853   3.320   3.090   6.605 -0.5253 -0.5121  2.9070
 5406TIP3    H237854   3.229   2.978   6.559  0.2151 -0.1722  0.4288
 5407TIP3   OH237855   3.809   1.689   1.414 -1.0877  0.2847 -0.5419
 5407TIP3    H137856   3.832   1.596   1.414 -0.6864  0.3830  0.1241
 5407TIP3    H237857   3.753   1.699   1.336  0.7180 -0.0338 -1.9434
 5408TIP3   OH237858   0.152   6.201   7.216  0.5169  0.5895 -0.2108
 5408TIP3    H137859   0.115   6.216   7.129  1.3612  1.1364 -0.4812
 5408TIP3    H237860   0.240   6.168   7.200  0.1170 -0.8917  0.4328
 5409TIP3   OH237861   2.875   0.350   8.884  0.5667 -0.2726 -0.2217
 5409TIP3    H137862   2.782   0.330   8.899 -0.1801  1.6847 -1.7755
 5409TIP3    H237863   2.908   0.377   8.970 -0.7747  0.6509  0.0345
 5410TIP3   OH237864   0.403   2.328   1.014 -0.1345  0.4248 -0.4921
 5410TIP3    H137865   0.424   2.345   1.106 -0.0982  0.4954 -0.5141
 5410TIP3    H237866   0.328   2.384   0.995 -1.0308 -0.6159 -0.1051
 5411TIP3   OH237867   2.986   0.128   8.535  0.3123  0.0018  0.1591
 5411TIP3    H137868   2.989   0.157   8.444 -1.9812 -0.0079  0.0413
 5411TIP3    H237869   2.897   0.096   8.548  0.7140 -0.4288  2.2968
 5412TIP3   OH237870   3.014   3.834   0.431  0.0295 -0.4600  0.3565
 5412TIP3    H137871   3.058   3.873   0.507 -1.7966  1.0848  0.6843
 5412TIP3    H237872   3.079   3.841   0.360  0.2508  2.1915  0.7061
 5413TIP3   OH237873   2.561   1.042   2.076  0.1748  0.0357  0.2052
 5413TIP3    H137874   2.593   1.094   2.003 -0.7901  0.1158 -0.1785
 5413TIP3    H237875   2.627   0.974   2.088  0.3848  0.0696 -0.6926
 5414TIP3   OH237876   2.404   3.443   6.385 -0.0808  0.1904  0.1221
 5414TIP3    H137877   2.421   3.354   6.353 -0.5723  0.3164 -0.4915
 5414TIP3    H237878   2.402   3.497   6.307 -0.9981  0.5481  0.3791
 5415TIP3   OH237879   1.846   0.974   8.129  0.2098  0.4506  0.4254
 5415TIP3    H137880   1.833   0.988   8.223  2.3717 -0.7978  0.9719
 5415TIP3    H237881   1.911   0.903   8.124 -0.0809  0.2763 -2.0217
 5416TIP3   OH237882   5.953   1.349   2.254  0.1590  0.3726 -0.0029
 5416TIP3    H137883   5.913   1.301   2.326  0.5988 -0.1250 -0.0871
 5416TIP3    H237884   5.957   1.285   2.182  1.7915  0.1788  0.2364
 5417TIP3   OH237885   3.219   6.030   0.232  0.0258  0.1597 -0.0679
 5417TIP3    H137886   3.168   6.051   0.310  1.6539  0.5646  0.9177
 5417TIP3    H237887   3.277   5.959   0.259  0.9176  0.5926 -0.7794
 5418TIP3   OH237888   5.955   6.450   7.640 -0.4600 -0.5920  0.1247
 5418TIP3    H137889   5.886   6.515   7.654 -0.7104 -0.3199 -2.0844
 5418TIP3    H237890   5.910   6.366   7.645 -1.0169 -0.4143 -1.3899
 5419TIP3   OH237891   2.148   4.570   2.372  0.4542 -0.0095 -0.0318
 5419TIP3    H137892   2.243   4.581   2.372  0.3681  0.8011  0.9092
 5419TIP3    H237893   2.135   4.483   2.410  0.8064  0.0305  0.1900
 5420TIP3   OH237894   5.579   5.834   1.041  0.8388  0.6924  0.0211
 5420TIP3    H137895   5.629   5.855   0.962  1.6053 -3.6562 -0.9371
 5420TIP3    H237896   5.645   5.810   1.106  0.1645 -0.4659  0.3178
 5421TIP3   OH237897   4.053   5.136   8.349 -0.3684  0.4575 -0.2865
 5421TIP3    H137898   3.965   5.165   8.372 -1.1305 -1.5507 -0.5503
 5421TIP3    H237899   4.061   5.155   8.255  0.1231  2.1236  0.0567
 5422TIP3   OH237900   0.877   0.554   1.559  0.1727 -0.4083  0.6848
 5422TIP3    H137901   0.913   0.638   1.588  0.7631  0.0580 -1.2427
 5422TIP3    H237902   0.954   0.498   1.546 -0.2058 -1.2084  1.7803
 5423TIP3   OH237903   2.198   1.226   1.276 -0.7541 -0.3657 -0.2468
 5423TIP3    H137904   2.211   1.254   1.186 -0.4489 -0.5524 -0.2624
 5423TIP3    H237905   2.286   1.201   1.306 -0.8944 -0.5353  0.0212
 5424TIP3   OH237906   3.181   2.854   2.681 -0.0425 -0.0978 -0.0628
 5424TIP3    H137907   3.095   2.838   2.720  0.2948  0.9035  1.1484
 5424TIP3    H237908   3.243   2.830   2.750  0.5965  0.7147 -0.3425
 5425TIP3   OH237909   2.084   0.338   2.350 -0.6035 -0.2403 -0.4121
 5425TIP3    H137910   2.139   0.397   2.402 -0.5172  0.4702 -1.2913
 5425TIP3    H237911   2.146   0.286   2.300 -0.7162  0.2177 -1.0324
 5426TIP3   OH237912   4.883   0.620   8.816 -0.2680 -0.7507  0.2641
 5426TIP3    H137913   4.908   0.670   8.738  1.9567  2.1962  2.5982
 5426TIP3    H237914   4.848   0.538   8.782  0.7718  0.2617 -3.7871
 5427TIP3   OH237915   2.190   5.469   8.330 -0.0854  0.0877  0.5343
 5427TIP3    H137916   2.167   5.409   8.401 -0.8506  0.8949  0.9883
 5427TIP3    H237917   2.169   5.420   8.250 -2.0686  0.2405  0.9158
 5428TIP3   OH237918   3.740   6.756   1.702  0.0925 -0.0660 -0.1626
 5428TIP3    H137919   3.702   6.669   1.715 -0.2063 -0.0512 -0.8465
 5428TIP3    H237920   3.799   6.769   1.776  1.7763 -1.7346 -1.1187
 5429TIP3   OH237921   4.776   1.172   1.466 -0.0834 -0.2787 -0.1201
 5429TIP3    H137922   4.727   1.253   1.482 -3.2484 -1.7632 -1.4334
 5429TIP3    H237923   4.769   1.124   1.549 -0.4253 -0.2846 -0.1525
 5430TIP3   OH237924   2.016   5.153   2.632  0.4236 -0.5174 -0.4791
 5430TIP3    H137925   1.982   5.127   2.717  1.6079 -1.0690 -0.1551
 5430TIP3    H237926   1.996   5.246   2.625  2.3709  0.1430  1.4610
 5431TIP3   OH237927   5.443   1.011   8.005  0.1114  0.0973 -0.3371
 5431TIP3    H137928   5.430   0.919   8.026 -0.9219  0.1371 -0.7196
 5431TIP3    H237929   5.518   1.038   8.058 -1.3670 -0.2233  2.0808
 5432TIP3   OH237930   6.102   1.338   0.328 -0.5502  0.1199  0.5642
 5432TIP3    H137931   6.112   1.369   0.238  0.0876 -1.7091 -0.0206
 5432TIP3    H237932   6.190   1.339   0.365 -0.7827  0.6901  1.1298
 5433TIP3   OH237933   3.528   5.776   7.925 -0.5946 -0.0352 -0.1915
 5433TIP3    H137934   3.528   5.690   7.883 -0.3267 -0.4735  0.6745
 5433TIP3    H237935   3.470   5.764   8.001  0.7134  0.0706  0.8569
 5434TIP3   OH237936   3.931   1.909   8.594 -0.2644 -0.1770 -0.3679
 5434TIP3    H137937   3.896   1.865   8.517 -0.3287  0.0029 -0.4423
 5434TIP3    H237938   3.965   1.839   8.649  1.5744 -0.1868 -1.4502
 5435TIP3   OH237939   6.352   1.793   1.549 -0.0715  0.1527  0.0488
 5435TIP3    H137940   6.351   1.700   1.527 -0.4088  0.0181  0.5956
 5435TIP3    H237941   6.336   1.795   1.644 -3.0664  0.8797 -0.3814
 5436TIP3   OH237942   0.764   5.918   8.667 -0.4599 -0.4218  0.2956
 5436TIP3    H137943   0.731   5.862   8.737 -1.1080  0.7194  0.9371
 5436TIP3    H237944   0.697   5.914   8.599 -1.3264  0.8607  1.0441
 5437TIP3   OH237945   6.684   5.570   8.080  0.7840  0.0230 -0.1692
 5437TIP3    H137946   6.727   5.499   8.032  0.4402 -0.4519  0.2068
 5437TIP3    H237947   6.709   5.554   8.172  0.5861  0.3073 -0.0663
 5438TIP3   OH237948   4.882   4.082   1.212  0.0525  0.7225  0.2028
 5438TIP3    H137949   4.880   4.160   1.268  0.0532 -0.3144  1.6885
 5438TIP3    H237950   4.975   4.065   1.198  0.0893  2.3685 -2.2010
 5439TIP3   OH237951   5.979   3.147   1.417 -0.0273 -0.1945  0.0966
 5439TIP3    H137952   5.993   3.080   1.350  0.2849  1.0606 -1.1213
 5439TIP3    H237953   6.061   3.149   1.466  0.2944 -0.0813 -0.4398
 5440TIP3   OH237954   4.987   3.496   8.552 -0.4403 -0.2182 -0.0543
 5440TIP3    H137955   4.936   3.553   8.496 -0.2275  2.0629  1.9290
 5440TIP3    H237956   4.946   3.504   8.638  0.4079 -2.0758  0.5763
 5441TIP3   OH237957   5.177   1.187   1.330  0.3318  0.3586 -0.0153
 5441TIP3    H137958   5.106   1.127   1.352  0.1468  0.1017 -1.2796
 5441TIP3    H237959   5.175   1.252   1.400  0.3966 -0.9593  1.2759
 5442TIP3   OH237960   3.931   4.387   1.362 -0.0610 -0.3818 -0.0978
 5442TIP3    H137961   4.005   4.377   1.423  0.1499  1.3195 -0.0343
 5442TIP3    H237962   3.946   4.318   1.296  0.5950 -1.2035  0.8704
 5443TIP3   OH237963   6.068   4.532   0.204 -0.1675  0.4297  0.0546
 5443TIP3    H137964   6.147   4.494   0.164  0.0740  0.1257  0.7989
 5443TIP3    H237965   6.034   4.462   0.260 -0.2097  1.0134  0.7707
 5444TIP3   OH237966   0.564   0.274   7.230  0.3337 -0.4302 -0.5307
 5444TIP3    H137967   0.482   0.312   7.199 -0.7931 -2.0786  0.2438
 5444TIP3    H237968   0.614   0.257   7.151  0.7009  2.1614 -0.9150
 5445TIP3   OH237969   5.144   6.222   1.059 -0.1743 -0.3440  0.2080
 5445TIP3    H137970   5.110   6.171   0.986 -0.5876  0.6872 -0.3495
 5445TIP3    H237971   5.205   6.164   1.104  0.6336 -0.7740 -1.3876
 5446TIP3   OH237972   5.844   4.232   0.556  0.4558 -0.0711 -0.1169
 5446TIP3    H137973   5.755   4.229   0.520  0.3098  0.1510  0.2190
 5446TIP3    H237974   5.901   4.211   0.482  0.2343  1.3443 -0.7093
 5447TIP3   OH237975   2.415   5.657   8.378  0.0088 -0.8791 -0.3930
 5447TIP3    H137976   2.360   5.586   8.410  0.2466 -0.3750  1.2030
 5447TIP3    H237977   2.393   5.663   8.285 -0.9411 -2.1896 -0.2919
 5448TIP3   OH237978   0.613   2.702   2.318 -0.2962 -0.4056  0.4324
 5448TIP3    H137979   0.704   2.695   2.289 -0.5841 -1.7736 -0.2122
 5448TIP3    H237980   0.579   2.778   2.272  0.8520  0.9367  1.6837
 5449TIP3   OH237981   6.656   0.801   8.521 -0.4299  0.6765  0.4978
 5449TIP3    H137982   6.564   0.783   8.538  0.1397 -0.8280  2.3875
 5449TIP3    H237983   6.673   0.885   8.564 -0.9322  1.0157  0.0400
 5450TIP3   OH237984   5.294   3.258   1.488 -0.1951  1.0965 -0.0197
 5450TIP3    H137985   5.286   3.190   1.421 -0.7274  0.9230  0.2115
 5450TIP3    H237986   5.380   3.244   1.526  0.8021  2.1980 -1.7364
 5451TIP3   OH237987   5.206   3.687   7.404 -0.4419 -0.1514 -0.2196
 5451TIP3    H137988   5.226   3.649   7.319  3.2605 -0.1760  0.4875
 5451TIP3    H237989   5.271   3.756   7.416 -0.8015 -0.1638  2.5618
 5452TIP3   OH237990   5.963   4.053   1.338  0.1425 -1.1762  0.2585
 5452TIP3    H137991   5.957   4.040   1.243  0.3698 -0.8585  0.2026
 5452TIP3    H237992   5.950   3.965   1.375  0.3005 -1.3397 -0.0741
 5453TIP3   OH237993   5.083   3.740   3.045 -0.1238  0.3384  0.0642
 5453TIP3    H137994   5.019   3.811   3.048  0.0433  0.4817  2.4747
 5453TIP3    H237995   5.050   3.676   3.109  1.1871 -0.4364  0.0003
 5454TIP3   OH237996   1.002   3.438   0.036 -0.5611 -0.4837  0.4147
 5454TIP3    H137997   1.041   3.419  -0.049 -1.3334  1.2000 -0.3622
 5454TIP3    H237998   1.074   3.427   0.098  0.6514  0.5759 -0.7390
 5455TIP3   OH237999   3.641   5.035   8.151 -0.5970 -0.4861 -0.2574
 5455TIP3    H138000   3.569   5.027   8.214 -1.1451  0.8750 -0.6635
 5455TIP3    H238001   3.648   5.129   8.136  4.0241 -0.0294  2.8670
 5456TIP3   OH238002   5.206   2.564   1.898  0.2363  0.3226 -0.1965
 5456TIP3    H138003   5.206   2.616   1.818  0.3812 -0.9734 -1.0776
 5456TIP3    H238004   5.295   2.574   1.933  0.0136  1.3166  0.1077
 5457TIP3   OH238005   5.605   2.694   8.853 -0.5744 -0.3285 -0.3318
 5457TIP3    H138006   5.607   2.665   8.944  1.0254 -1.8895 -0.8054
 5457TIP3    H238007   5.695   2.680   8.821 -0.2443  3.0667 -1.3153
 5458TIP3   OH238008   3.864   6.243   0.980  0.0089  0.4046 -0.0474
 5458TIP3    H138009   3.934   6.219   0.920  1.7122  0.6025  1.7678
 5458TIP3    H238010   3.908   6.280   1.056 -2.1635  2.6096  0.2973
 5459TIP3   OH238011   4.142   0.113   1.839  0.5300  0.0903  0.0362
 5459TIP3    H138012   4.233   0.107   1.866 -0.5239 -1.9397  4.1018
 5459TIP3    H238013   4.113   0.199   1.870  0.7368  0.1549  0.0490
 5460TIP3   OH238014   4.771   4.441   7.591 -1.0320 -0.3674 -0.4288
 5460TIP3    H138015   4.703   4.407   7.532 -0.6588 -0.2471 -0.9329
 5460TIP3    H238016   4.748   4.533   7.602 -0.6532 -0.2009 -1.0199
 5461TIP3   OH238017   0.750   3.733   8.290 -0.2912 -0.2399 -0.0734
 5461TIP3    H138018   0.725   3.796   8.357 -0.2364 -1.5949  1.2888
 5461TIP3    H238019   0.844   3.748   8.277 -0.4512  0.5194 -0.4076
 5462TIP3   OH238020   3.690   2.149   7.753  0.0425 -0.4197  0.9002
 5462TIP3    H138021   3.721   2.210   7.686 -1.8100 -0.0658  0.3223
 5462TIP3    H238022   3.748   2.164   7.828  0.5701  0.9547  0.2433
 5463TIP3   OH238023   4.314   6.078   6.898  0.0855  0.4265 -0.2867
 5463TIP3    H138024   4.390   6.041   6.943  0.0112  0.0632 -0.4523
 5463TIP3    H238025   4.247   6.084   6.966 -0.8563 -2.4723 -0.8033
 5464TIP3   OH238026   4.305   6.771   0.973  0.2778 -0.0455  0.3826
 5464TIP3    H138027   4.249   6.740   1.045  0.1720  1.5252  1.0132
 5464TIP3    H238028   4.293   6.866   0.972  1.3270  0.1062 -0.8520
 5465TIP3   OH238029   4.151   5.913   0.611 -0.2437 -0.1075  0.2187
 5465TIP3    H138030   4.058   5.937   0.608 -0.5626 -0.9925  1.6828
 5465TIP3    H238031   4.187   5.946   0.529 -2.0697 -0.6081 -0.8546
 5466TIP3   OH238032   2.001   5.987   8.800 -0.2167  0.0821 -0.4698
 5466TIP3    H138033   2.029   5.941   8.880  1.9012  0.9237 -0.6606
 5466TIP3    H238034   1.956   6.065   8.832  1.1169  0.7077 -0.0471
 5467TIP3   OH238035   5.023   1.964   0.390 -0.2725 -0.5232 -0.2218
 5467TIP3    H138036   5.015   1.940   0.482 -0.4024  1.1429  0.2268
 5467TIP3    H238037   4.934   1.984   0.363 -0.1994 -0.7646 -0.6577
 5468TIP3   OH238038   2.928   5.196   7.319 -0.6058 -0.4833 -0.0737
 5468TIP3    H138039   2.943   5.102   7.322 -0.6097 -0.5346 -1.2783
 5468TIP3    H238040   2.834   5.207   7.333 -0.4887 -0.5939  0.8639
 5469TIP3   OH238041   1.498   1.619   2.206  0.4045  0.3719 -0.1791
 5469TIP3    H138042   1.411   1.580   2.214  0.4783  0.3600  0.7282
 5469TIP3    H238043   1.558   1.548   2.229  0.5867  0.7148  0.4473
 5470TIP3   OH238044   3.606   2.130   1.714 -0.5112  1.0392  0.3377
 5470TIP3    H138045   3.659   2.054   1.692 -0.4393  0.1454  3.1679
 5470TIP3    H238046   3.522   2.115   1.671 -0.0174  0.0924 -0.3207
 5471TIP3   OH238047   0.682   6.291   7.982  0.3133 -0.0663  0.5435
 5471TIP3    H138048   0.603   6.313   7.933 -0.9945 -0.1360  2.5280
 5471TIP3    H238049   0.754   6.313   7.923 -1.1253  1.7864 -0.6055
 5472TIP3   OH238050   4.545   3.855   1.342  0.1019  0.2781  0.2856
 5472TIP3    H138051   4.475   3.918   1.322  1.0635  0.5960 -2.5893
 5472TIP3    H238052   4.546   3.796   1.266  2.8907  0.2470  0.2668
 5473TIP3   OH238053   2.326   2.878   6.726  0.3008  0.2173  0.9456
 5473TIP3    H138054   2.418   2.850   6.730  0.4265  0.4611  0.0617
 5473TIP3    H238055   2.314   2.930   6.806  1.8424  2.7428 -0.3382
 5474TIP3   OH238056   3.940   1.180   2.759  0.1045 -0.6123 -0.7610
 5474TIP3    H138057   3.900   1.268   2.761 -1.5218 -1.3003  1.3960
 5474TIP3    H238058   4.027   1.192   2.797 -0.6712 -0.1189  0.9527
 5475TIP3   OH238059   5.025   0.420   8.564  0.1687 -0.0227 -0.1966
 5475TIP3    H138060   4.976   0.495   8.531  0.4636  1.0094  1.5716
 5475TIP3    H238061   4.985   0.400   8.648 -1.2623 -3.2542 -1.4861
 5476TIP3   OH238062   0.206   3.570   8.188  0.2246  0.0946 -0.0150
 5476TIP3    H138063   0.180   3.478   8.177  0.5179  0.1075 -0.8835
 5476TIP3    H238064   0.302   3.567   8.187  0.2391  0.3479  0.5246
 5477TIP3   OH238065   0.793   6.327   1.723  0.1910 -0.5081 -0.0040
 5477TIP3    H138066   0.705   6.289   1.729 -0.4971  1.1619  2.8738
 5477TIP3    H238067   0.850   6.262   1.763 -0.1035 -0.6991  0.1133
 5478TIP3   OH238068   5.051   1.673   1.014 -0.2492  0.1393 -0.5658
 5478TIP3    H138069   5.027   1.679   0.922 -0.2037 -1.5986 -0.7233
 5478TIP3    H238070   5.141   1.640   1.014 -0.5855 -0.8383  0.0825
 5479TIP3   OH238071   3.086   2.269   1.526  0.2922 -0.2546 -0.2698
 5479TIP3    H138072   2.994   2.266   1.552  0.5367  0.6819  0.7960
 5479TIP3    H238073   3.127   2.201   1.580  0.0213 -1.7242 -1.8181
 5480TIP3   OH238074   3.949   5.416   7.425 -0.0984  0.4614  0.7523
 5480TIP3    H138075   4.020   5.480   7.421  0.0322  0.3732  1.4702
 5480TIP3    H238076   3.905   5.434   7.508 -0.3635 -0.0546  0.7284
 5481TIP3   OH238077   6.066   1.587   2.373 -0.2234  0.1607  0.2039
 5481TIP3    H138078   6.016   1.666   2.395  0.5416  1.1087 -1.3360
 5481TIP3    H238079   6.006   1.535   2.320 -0.4175  0.1240  0.4561
 5482TIP3   OH238080   4.296   0.023   2.212 -0.1021 -0.5425  0.2585
 5482TIP3    H138081   4.378  -0.016   2.244  0.4296  0.7398  0.5160
 5482TIP3    H238082   4.232  -0.049   2.218  0.2920 -0.8011  2.9169
 5483TIP3   OH238083   5.206   3.245   2.098  0.6096  0.1221  0.1103
 5483TIP3    H138084   5.135   3.256   2.036 -0.0253  0.3045  0.8570
 5483TIP3    H238085   5.165   3.211   2.177  1.7296 -2.4063 -0.3040
 5484TIP3   OH238086   0.340   0.584   0.233 -0.1118  0.1552 -0.1443
 5484TIP3    H138087   0.388   0.505   0.208 -0.2714 -0.0645  0.2294
 5484TIP3    H238088   0.408   0.650   0.248  0.0100  0.1471 -0.6496
 5485TIP3   OH238089   4.736   3.821   7.337 -0.2461 -0.5318  0.5026
 5485TIP3    H138090   4.750   3.877   7.414  0.5651  0.3575 -0.2658
 5485TIP3    H238091   4.799   3.749   7.348  2.7226  1.5880 -1.1514
 5486TIP3   OH238092   6.633   1.742   8.644  0.5987  0.0019  0.8120
 5486TIP3    H138093   6.728   1.751   8.634  0.3385  0.8231 -1.3914
 5486TIP3    H238094   6.599   1.831   8.641 -0.4775 -0.3594 -2.2331
 5487TIP3   OH238095   1.879   3.532   8.454 -0.1410 -0.1076 -0.3950
 5487TIP3    H138096   1.878   3.612   8.508 -0.0529 -0.5289  0.2411
 5487TIP3    H238097   1.925   3.558   8.375 -1.7171  0.9934 -1.0195
 5488TIP3   OH238098   4.685   0.842   1.455 -0.3566  0.1633  0.5288
 5488TIP3    H138099   4.637   0.854   1.536 -0.5572  3.2850  0.0773
 5488TIP3    H238100   4.633   0.888   1.389  2.0771  1.7775 -0.4047
 5489TIP3   OH238101   1.535   1.846   7.767  0.0189 -0.7856 -0.1729
 5489TIP3    H138102   1.552   1.816   7.856 -1.5925  0.9581  0.8014
 5489TIP3    H238103   1.443   1.825   7.752 -0.5114  1.4118 -0.3199
 5490TIP3   OH238104   4.486   3.394   8.507  0.7813  0.7537  0.3634
 5490TIP3    H138105   4.448   3.455   8.443 -1.9249  1.9075  2.8132
 5490TIP3    H238106   4.436   3.313   8.496  2.4786 -0.1594 -1.0146
 5491TIP3   OH238107   1.984   3.971   2.231 -0.1920 -0.1486 -0.6023
 5491TIP3    H138108   1.899   3.972   2.276 -0.5458  1.3681 -1.2437
 5491TIP3    H238109   2.043   4.016   2.291 -0.2333  0.2512 -0.8606
 5492TIP3   OH238110   3.034   2.774   2.898  0.4220 -0.1458 -0.0333
 5492TIP3    H138111   3.060   2.684   2.920  0.4419 -0.2301 -0.3955
 5492TIP3    H238112   2.942   2.779   2.923  0.0849 -0.6441 -1.1338
 5493TIP3   OH238113   0.942   0.521   8.638  0.0477  0.2409 -0.4254
 5493TIP3    H138114   0.972   0.491   8.724 -0.0807 -0.5771 -0.6526
 5493TIP3    H238115   1.018   0.565   8.600  0.6692 -0.9361 -0.5894
 5494TIP3   OH238116   2.532   5.323   1.065 -0.0511  0.0619 -0.8272
 5494TIP3    H138117   2.551   5.232   1.085  2.1681  0.5918 -0.1750
 5494TIP3    H238118   2.468   5.320   0.994 -2.0991 -1.9509  0.9516
 5495TIP3   OH238119   5.930   4.190   6.773 -0.2411 -0.1887 -0.8026
 5495TIP3    H138120   5.861   4.158   6.831 -1.8867  0.6196 -2.2161
 5495TIP3    H238121   6.012   4.172   6.820 -1.3943 -1.2390  0.9032
 5496TIP3   OH238122   2.245   0.695   2.249 -0.2212  1.0490  0.2504
 5496TIP3    H138123   2.289   0.635   2.190  0.7063  2.5664 -0.6704
 5496TIP3    H238124   2.316   0.748   2.287 -1.0276  1.7901  0.7691
 5497TIP3   OH238125   3.490   1.919   7.212 -0.3222  0.1507 -0.3354
 5497TIP3    H138126   3.519   1.834   7.246  0.5841  0.4354 -0.3645
 5497TIP3    H238127   3.485   1.906   7.117 -1.0700 -0.1207 -0.2662
 5498TIP3   OH238128   5.994   4.472   0.579  0.3250 -0.1496 -0.5668
 5498TIP3    H138129   6.081   4.463   0.539  0.8880  1.9640  0.0729
 5498TIP3    H238130   5.963   4.382   0.589  1.5575 -0.8783 -2.6843
 5499TIP3   OH238131   3.033   5.515   0.113 -0.4383 -0.2897 -0.3471
 5499TIP3    H138132   2.952   5.526   0.062 -0.4963 -0.8186 -0.3747
 5499TIP3    H238133   3.091   5.465   0.055 -0.6163 -1.1629  0.2147
 5500TIP3   OH238134   6.651   3.520   2.675 -0.1347 -0.1869  0.4268
 5500TIP3    H138135   6.604   3.437   2.681 -0.4214  0.0370  1.2918
 5500TIP3    H238136   6.584   3.583   2.651  0.0072 -0.1290  0.1827
 5501TIP3   OH238137   0.377   5.570   7.907  0.0858  0.0946 -0.0572
 5501TIP3    H138138   0.318   5.495   7.897 -1.9816  1.4323  1.1630
 5501TIP3    H238139   0.388   5.603   7.818 -0.2558 -0.7477 -0.4252
 5502TIP3   OH238140   1.499   5.105   1.758 -0.4512 -0.4686  0.1331
 5502TIP3    H138141   1.487   5.196   1.785  0.5032 -0.4750  0.6108
 5502TIP3    H238142   1.485   5.107   1.663 -2.5875 -0.2283  0.3988
 5503TIP3   OH238143   5.838   4.320   7.945 -0.0934  0.5189  0.2815
 5503TIP3    H138144   5.805   4.231   7.939 -2.6817  1.3322  1.2259
 5503TIP3    H238145   5.895   4.319   8.022 -1.8588  0.1039  1.6589
 5504TIP3   OH238146   0.514   3.804   1.751  0.3587  0.0516  0.1733
 5504TIP3    H138147   0.531   3.879   1.808  0.9530 -1.5126  2.1809
 5504TIP3    H238148   0.450   3.751   1.799 -1.8267  0.3262 -2.2360
 5505TIP3   OH238149   5.333   1.017   2.229 -0.0871 -0.1633  1.0635
 5505TIP3    H138150   5.244   1.047   2.209  0.3297 -1.0311 -2.8708
 5505TIP3    H238151   5.382   1.097   2.248 -0.8461  0.8067 -0.8546
 5506TIP3   OH238152   1.669   6.463   6.865  0.2744 -0.2450 -0.8987
 5506TIP3    H138153   1.717   6.496   6.789  0.9605  0.2422 -0.2676
 5506TIP3    H238154   1.668   6.536   6.927  0.5267 -0.9191 -0.0714
 5507TIP3   OH238155   2.163   4.336   2.176 -0.5827 -0.1592  0.2695
 5507TIP3    H138156   2.181   4.335   2.270  0.2578 -0.3121  0.1175
 5507TIP3    H238157   2.085   4.390   2.166  0.5178  1.5842  0.8458
 5508TIP3   OH238158   5.858   0.040   8.004  0.0615 -0.4089  0.3724
 5508TIP3    H138159   5.777   0.050   8.053  0.3374 -1.4286  1.0694
 5508TIP3    H238160   5.928   0.061   8.067  0.3382  0.8222 -0.3225
 5509TIP3   OH238161   0.551   0.873   1.916  0.0819 -1.1929  0.7095
 5509TIP3    H138162   0.631   0.820   1.912 -1.0631 -2.8860 -0.7373
 5509TIP3    H238163   0.514   0.854   2.003  0.5907 -1.3748  0.8907
 5510TIP3   OH238164   4.170   1.593   1.491  0.4817  0.3655 -0.5708
 5510TIP3    H138165   4.110   1.644   1.545  1.1698  0.9376 -0.3254
 5510TIP3    H238166   4.238   1.655   1.465  0.8995 -0.2350 -0.9479
 5511TIP3   OH238167   2.345   4.256   7.084 -0.1611 -0.3531 -0.4283
 5511TIP3    H138168   2.420   4.284   7.136 -0.6345 -0.1408  0.1513
 5511TIP3    H238169   2.349   4.161   7.084 -0.0463 -0.3485 -0.1583
 5512TIP3   OH238170   6.544   5.883   6.461  0.1269  0.2236 -0.6594
 5512TIP3    H138171   6.554   5.965   6.509  1.7851  0.1338 -0.8143
 5512TIP3    H238172   6.458   5.851   6.488  1.1226 -0.0660  2.6981
 5513TIP3   OH238173   2.716   5.544   8.132  0.2420  0.6020  0.2723
 5513TIP3    H138174   2.810   5.561   8.127  0.0547  1.3417 -1.9522
 5513TIP3    H238175   2.702   5.471   8.071 -0.3503 -1.1598  2.3794
 5514TIP3   OH238176   0.340   4.625   2.437 -0.0068  0.2737 -0.1250
 5514TIP3    H138177   0.246   4.613   2.445 -0.2779 -0.7238 -3.5611
 5514TIP3    H238178   0.351   4.717   2.414 -0.1447  0.3008 -0.0819
 5515TIP3   OH238179   5.217   1.964   0.861  0.2417  0.0930 -0.0958
 5515TIP3    H138180   5.266   2.017   0.925 -0.5227 -1.3157  1.7184
 5515TIP3    H238181   5.235   2.007   0.777  1.3039  1.9984  1.0276
 5516TIP3   OH238182   0.369   5.117   7.972  0.2112  0.0446 -0.8179
 5516TIP3    H138183   0.305   5.166   8.023 -1.7140 -1.3255 -1.7494
 5516TIP3    H238184   0.321   5.091   7.893  1.7402 -1.5382 -1.2947
 5517TIP3   OH238185   5.961   0.581   8.389  0.2659 -0.0865 -0.0349
 5517TIP3    H138186   5.987   0.517   8.322  0.1452  1.1501 -1.3159
 5517TIP3    H238187   6.040   0.632   8.405 -0.3085  1.2257 -1.1266
 5518TIP3   OH238188   0.761   4.459   8.008  0.3300  0.2972  0.2092
 5518TIP3    H138189   0.847   4.476   8.046  0.8681  0.9817 -1.2207
 5518TIP3    H238190   0.778   4.396   7.938 -0.5620 -0.6101  0.7746
 5519TIP3   OH238191   4.496   3.842   2.451 -0.3509  0.2142  0.2762
 5519TIP3    H138192   4.476   3.783   2.523 -0.2264 -1.8093 -1.2666
 5519TIP3    H238193   4.573   3.891   2.481  0.1047 -1.0559  1.2849
 5520TIP3   OH238194   5.805   5.635   0.601  0.3095 -0.0020 -0.2207
 5520TIP3    H138195   5.809   5.555   0.653  2.1697  0.0853 -0.1856
 5520TIP3    H238196   5.800   5.604   0.510  1.6731 -0.1859 -0.2501
 5521TIP3   OH238197   4.427   0.982   0.070  0.2331 -0.5871  0.3031
 5521TIP3    H138198   4.411   1.041  -0.003  0.6814  0.8801  1.3452
 5521TIP3    H238199   4.500   1.022   0.118  0.9384 -2.2934  0.7387
 5522TIP3   OH238200   1.045   5.954   8.606  0.3181 -0.0662 -0.7159
 5522TIP3    H138201   0.953   5.936   8.624  0.9677 -4.0863 -0.6271
 5522TIP3    H238202   1.062   5.912   8.521  2.2700 -0.1578 -0.3342
 5523TIP3   OH238203   3.684   0.849   7.626 -0.0371 -0.3715 -0.3825
 5523TIP3    H138204   3.772   0.817   7.607  0.2975  0.4895 -0.3569
 5523TIP3    H238205   3.660   0.806   7.708  0.2381 -0.8355 -0.5405
 5524TIP3   OH238206   2.289   3.460   2.279  0.0710  0.2859 -0.2083
 5524TIP3    H138207   2.231   3.490   2.349  0.7132  0.6986  0.1660
 5524TIP3    H238208   2.344   3.394   2.320  0.6102  0.6994 -0.2563
 5525TIP3   OH238209   2.414   4.732   8.835  0.2566  0.1269 -0.2581
 5525TIP3    H138210   2.428   4.810   8.889  0.3335 -0.1414  0.1130
 5525TIP3    H238211   2.423   4.764   8.745  0.4471  0.5167 -0.1060
 5526TIP3   OH238212   4.946   6.676   8.479  0.0883 -0.2401  0.4916
 5526TIP3    H138213   4.979   6.764   8.466 -1.1799  0.1548 -0.2285
 5526TIP3    H238214   4.910   6.676   8.568  2.1763 -0.7607  1.3955
 5527TIP3   OH238215   6.669   4.321   7.888  0.8045  0.4564  0.4198
 5527TIP3    H138216   6.632   4.409   7.883  0.3006  0.3480  1.8908
 5527TIP3    H238217   6.642   4.288   7.973  0.9722 -1.1400 -0.1116
 5528TIP3   OH238218   0.352   1.779   1.751  0.0340 -0.5925  0.2641
 5528TIP3    H138219   0.292   1.745   1.684 -1.1329 -1.3321  1.6218
 5528TIP3    H238220   0.362   1.871   1.729 -1.9198 -0.3484  0.1946
 5529TIP3   OH238221   6.612   6.271   7.909  0.4278 -0.1110  0.0346
 5529TIP3    H138222   6.577   6.349   7.953  0.9948 -0.4423  1.1099
 5529TIP3    H238223   6.644   6.304   7.825  1.0916  0.9319  0.6615
 5530TIP3   OH238224   3.593   2.403   1.192 -0.1524  0.7928  0.1727
 5530TIP3    H138225   3.605   2.391   1.286 -1.3472  0.0973  0.2571
 5530TIP3    H238226   3.657   2.470   1.168  0.5738  0.5524  1.3642
 5531TIP3   OH238227   5.773   0.844   2.191 -0.0678 -0.2172  0.2361
 5531TIP3    H138228   5.835   0.797   2.135 -0.3907 -1.4640  0.8929
 5531TIP3    H238229   5.714   0.886   2.129 -1.2413 -2.6722 -0.4693
 5532TIP3   OH238230   5.271   5.324   0.389 -0.6487  0.1079 -0.1214
 5532TIP3    H138231   5.291   5.408   0.431 -0.7742  0.1582 -0.1622
 5532TIP3    H238232   5.177   5.312   0.404 -0.6751  0.0818 -0.3098
 5533TIP3   OH238233   6.033   5.232   7.235  0.0529  0.1687  0.3118
 5533TIP3    H138234   6.019   5.323   7.206 -0.2946 -0.3045 -1.1182
 5533TIP3    H238235   5.945   5.196   7.241  0.2090 -0.1765  0.5116
 5534TIP3   OH238236   2.488   3.783   8.459 -0.0584  0.5422  0.0631
 5534TIP3    H138237   2.432   3.860   8.445  0.2335  0.4930 -1.6335
 5534TIP3    H238238   2.455   3.744   8.540 -1.7390  1.1565 -0.2733
 5535TIP3   OH238239   3.424   2.557   1.738 -0.2565  0.8721  0.2632
 5535TIP3    H138240   3.448   2.517   1.821 -1.7346  0.0908  0.3405
 5535TIP3    H238241   3.469   2.642   1.739  3.5887 -0.9528 -0.2497
 5536TIP3   OH238242   4.271   1.611   7.747 -0.4835  0.2418 -0.2147
 5536TIP3    H138243   4.283   1.639   7.837 -0.5909  1.5465 -0.5841
 5536TIP3    H238244   4.214   1.535   7.753 -1.5517  1.0789  0.7406
 5537TIP3   OH238245   4.704   6.356   8.351 -0.3109 -0.0871 -0.3278
 5537TIP3    H138246   4.795   6.387   8.345  0.8531 -3.2255 -1.1841
 5537TIP3    H238247   4.686   6.354   8.445  1.4762 -1.5951  0.0654
 5538TIP3   OH238248   6.553   6.169   0.247  0.6018 -1.1361 -0.1450
 5538TIP3    H138249   6.514   6.154   0.333  1.0009  0.5866  0.3903
 5538TIP3    H238250   6.479   6.167   0.186  0.0863 -0.8284  0.4580
 5539TIP3   OH238251   3.670   4.213   0.705  0.0138 -0.9436 -0.5046
 5539TIP3    H138252   3.733   4.142   0.693  0.1494 -1.2661  1.6937
 5539TIP3    H238253   3.709   4.287   0.657  0.0268 -2.1825 -2.5544
 5540TIP3   OH238254   2.183   5.455   7.789  0.0332  0.2281 -1.0080
 5540TIP3    H138255   2.108   5.426   7.737 -0.6597  0.1509 -0.0077
 5540TIP3    H238256   2.225   5.374   7.818  0.1736  0.2658 -1.1051
 5541TIP3   OH238257   0.691   4.908   2.034  0.2687  0.2648 -0.6553
 5541TIP3    H138258   0.756   4.966   1.996 -2.0907  2.6291 -1.4116
 5541TIP3    H238259   0.696   4.925   2.128 -0.2608  1.6406 -0.8485
 5542TIP3   OH238260   0.381   0.781   1.441  0.0940  0.4332 -0.0248
 5542TIP3    H138261   0.388   0.848   1.510  0.0086  2.6976 -2.0838
 5542TIP3    H238262   0.297   0.739   1.457 -0.1652  1.2657  0.9366
 5543TIP3   OH238263   3.808   1.475   0.362  0.2607  0.5713  0.4357
 5543TIP3    H138264   3.893   1.433   0.374  0.6132  0.9584 -0.6458
 5543TIP3    H238265   3.800   1.533   0.438 -0.1311 -1.1953  1.8397
 5544TIP3   OH238266   2.025   5.306   8.155  0.0817  0.0591 -0.3686
 5544TIP3    H138267   1.991   5.288   8.067 -3.1558 -1.6684  1.0733
 5544TIP3    H238268   1.963   5.368   8.193  1.0698  0.3045  0.9276
 5545TIP3   OH238269   0.997   5.060   2.724  0.3814  0.1333  0.6303
 5545TIP3    H138270   1.012   5.013   2.806  1.9902  0.1112  0.3535
 5545TIP3    H238271   1.047   5.010   2.659 -2.8310 -1.3342 -0.9307
 5546TIP3   OH238272   5.819   0.258   0.254 -0.0913  0.4234 -0.4300
 5546TIP3    H138273   5.830   0.180   0.200 -0.7173 -0.6754  0.9793
 5546TIP3    H238274   5.727   0.258   0.279 -0.1713  1.7888 -0.6149
 5547TIP3   OH238275   3.342   1.997   1.973 -0.0770 -0.3108  0.0323
 5547TIP3    H138276   3.360   1.965   2.061 -1.6563 -0.6993  0.2348
 5547TIP3    H238277   3.336   1.919   1.919  0.6152 -0.0884 -0.3736
 5548TIP3   OH238278   0.238   3.768   7.988 -0.3172 -0.2016 -0.1438
 5548TIP3    H138279   0.275   3.718   7.916 -1.0241 -1.4172  0.3066
 5548TIP3    H238280   0.245   3.710   8.064 -0.2589  0.7664  0.6125
 5549TIP3   OH238281   6.358   2.897   8.529  0.0753 -0.1924  0.2926
 5549TIP3    H138282   6.263   2.893   8.536  0.0828 -0.5353  0.2430
 5549TIP3    H238283   6.376   2.976   8.478 -0.1461  0.2806  0.9408
 5550TIP3   OH238284   5.175   1.516   0.782 -0.1228  0.1830 -0.2090
 5550TIP3    H138285   5.082   1.538   0.771 -0.3983 -1.4197 -1.7322
 5550TIP3    H238286   5.208   1.507   0.692  0.8039 -1.8210  0.2666
 5551TIP3   OH238287   3.627   3.377   8.323  0.4969  0.1068  0.4572
 5551TIP3    H138288   3.560   3.414   8.381  1.6781  0.2422  1.7894
 5551TIP3    H238289   3.633   3.285   8.350  0.3159 -0.0978 -0.1856
 5552TIP3   OH238290   2.186   3.896   7.224  0.0278 -0.1871 -0.0317
 5552TIP3    H138291   2.271   3.922   7.189 -0.0977 -0.4813 -0.5636
 5552TIP3    H238292   2.130   3.888   7.147 -1.0232  1.8944  0.4242
 5553TIP3   OH238293   6.643   3.952   0.217 -0.4905 -0.4110 -0.9698
 5553TIP3    H138294   6.726   3.991   0.190  0.5716 -1.1818  0.9618
 5553TIP3    H238295   6.585   4.027   0.230  0.7145  0.3830  0.1285
 5554TIP3   OH238296   4.020   0.863   8.145 -0.0017 -0.1316 -0.4745
 5554TIP3    H138297   3.989   0.953   8.138  1.0272  0.3726  0.9158
 5554TIP3    H238298   3.944   0.813   8.173 -0.2551  0.5804  0.1505
 5555TIP3   OH238299   2.635   0.964   7.501 -0.1190  0.1187  0.1965
 5555TIP3    H138300   2.628   0.981   7.407 -0.0652 -2.6362 -0.4082
 5555TIP3    H238301   2.548   0.981   7.535 -0.5137 -0.1493 -0.6466
 5556TIP3   OH238302   0.674   5.510   0.888  0.3443 -0.6564  0.2350
 5556TIP3    H138303   0.630   5.497   0.972 -0.3835  0.2856  0.0163
 5556TIP3    H238304   0.726   5.431   0.876 -0.8849 -1.5744  0.7638
 5557TIP3   OH238305   2.954   6.723   7.766  1.0283 -0.3782 -0.2458
 5557TIP3    H138306   2.873   6.732   7.815  1.2262  0.5057 -0.0505
 5557TIP3    H238307   2.937   6.654   7.702  0.0716 -0.0870 -0.3178
 5558TIP3   OH238308   5.785   5.726   1.868  0.1810  0.2219  0.1782
 5558TIP3    H138309   5.870   5.766   1.888  0.9352 -1.7423  1.2709
 5558TIP3    H238310   5.807   5.656   1.805 -0.3416 -1.2607  1.5741
 5559TIP3   OH238311   2.461   5.882   1.435 -0.1314 -0.0745 -0.2606
 5559TIP3    H138312   2.551   5.913   1.440  0.0216 -0.6688  1.1682
 5559TIP3    H238313   2.467   5.788   1.451 -0.9030 -0.3275 -1.3224
 5560TIP3   OH238314   4.833   6.044   1.404 -0.3966  0.4466 -0.3886
 5560TIP3    H138315   4.915   6.040   1.355 -0.7859 -1.0174 -0.9641
 5560TIP3    H238316   4.814   6.138   1.411  0.0578  0.7443 -2.4127
 5561TIP3   OH238317   2.806   5.878   3.256  0.0350  0.3676  0.3320
 5561TIP3    H138318   2.786   5.948   3.193 -0.6331 -0.2843 -0.1964
 5561TIP3    H238319   2.771   5.799   3.216 -0.6700 -0.0228  1.6625
 5562TIP3   OH238320   6.196   5.170   1.152  0.2404 -0.7347  0.2263
 5562TIP3    H138321   6.203   5.227   1.075 -0.5738 -0.6416  0.2094
 5562TIP3    H238322   6.187   5.230   1.226 -0.8171 -0.8295  0.1868
 5563TIP3   OH238323   4.070   3.123   7.541  0.4341  0.3482  0.1270
 5563TIP3    H138324   4.076   3.170   7.624 -0.2952  0.9925 -0.1658
 5563TIP3    H238325   4.042   3.035   7.565  1.8857  0.0276  0.6881
 5564TIP3   OH238326   4.044   2.551   1.184  0.2184  0.0247 -0.6554
 5564TIP3    H138327   4.110   2.484   1.202  1.0003  0.5906 -1.3046
 5564TIP3    H238328   4.058   2.575   1.092  1.5086  2.6622  0.1078
 5565TIP3   OH238329   4.616   2.139   7.671 -0.0875 -0.0099  0.4024
 5565TIP3    H138330   4.659   2.209   7.622 -1.3128  1.7542  1.6934
 5565TIP3    H238331   4.573   2.085   7.605  0.5860  0.6492 -0.6031
 5566TIP3   OH238332   5.396   4.005   0.894 -0.1233 -0.4694  0.2040
 5566TIP3    H138333   5.438   4.091   0.900 -1.4096  0.1861  0.2649
 5566TIP3    H238334   5.434   3.965   0.816  0.3467  0.2377  0.0626
 5567TIP3   OH238335   0.781   0.624   7.240  0.0628  0.6993  0.0602
 5567TIP3    H138336   0.844   0.653   7.173 -1.1813 -0.9881 -1.9813
 5567TIP3    H238337   0.705   0.680   7.228 -0.1661  0.3918  0.0418
 5568TIP3   OH238338   4.601   4.876   7.207  0.7534 -0.3521  0.2523
 5568TIP3    H138339   4.696   4.871   7.213  0.9429  1.3844 -0.5713
 5568TIP3    H238340   4.584   4.966   7.179 -1.1492 -0.5346  0.6916
 5569TIP3   OH238341   2.302   2.119   8.841  0.5240 -0.5484 -0.0301
 5569TIP3    H138342   2.293   2.027   8.867 -1.8466 -0.3683  0.0324
 5569TIP3    H238343   2.233   2.164   8.889  0.7803  1.0490 -1.0930
 5570TIP3   OH238344   4.175   3.781   7.321 -0.2744 -0.1713 -0.0518
 5570TIP3    H138345   4.118   3.775   7.245  0.6573  1.1905 -0.9090
 5570TIP3    H238346   4.212   3.693   7.330 -1.8454 -0.8578  0.0351
 5571TIP3   OH238347   2.158   3.686   7.815 -0.6672 -0.2457  0.1772
 5571TIP3    H138348   2.170   3.662   7.723 -2.2455  1.5716 -0.5679
 5571TIP3    H238349   2.236   3.738   7.836  1.2669 -3.1693  0.9138
 5572TIP3   OH238350   2.542   6.737   8.309 -0.2939 -0.0322  0.3250
 5572TIP3    H138351   2.585   6.654   8.287 -0.1978  0.0131  0.3387
 5572TIP3    H238352   2.552   6.791   8.231  1.9473  0.9107  1.1612
 5573TIP3   OH238353   0.196   3.168   1.163 -0.1101 -0.6027 -0.6221
 5573TIP3    H138354   0.264   3.174   1.230  0.2327 -1.4801 -0.8814
 5573TIP3    H238355   0.242   3.146   1.083 -0.3385  1.9060 -1.5314
 5574TIP3   OH238356   2.598   4.097   8.486 -0.0767 -0.2128  0.2258
 5574TIP3    H138357   2.605   4.188   8.515  1.3242 -0.2689  0.1214
 5574TIP3    H238358   2.632   4.046   8.558 -1.0415 -0.6898  0.3621
 5575TIP3   OH238359   5.978   4.700   1.074 -0.0839  0.5498  0.0949
 5575TIP3    H138360   6.002   4.789   1.101 -0.0294  0.0947  1.6136
 5575TIP3    H238361   6.017   4.643   1.140  0.6072 -0.6931 -1.3172
 5576TIP3   OH238362   2.710   0.901   0.665 -0.4424 -0.0659  0.2409
 5576TIP3    H138363   2.753   0.888   0.749  1.5736 -0.2319 -0.7511
 5576TIP3    H238364   2.617   0.892   0.684 -0.3456  2.8768  2.9968
 5577TIP3   OH238365   5.179   6.715   8.861  0.2849  0.5785  0.1601
 5577TIP3    H138366   5.141   6.726   8.948  1.1928  0.2610  0.6069
 5577TIP3    H238367   5.238   6.790   8.851 -0.6865  1.2593 -0.6704
 5578TIP3   OH238368   5.377   2.273   8.170  0.9248  0.0949  0.0170
 5578TIP3    H138369   5.304   2.334   8.181  0.5340 -0.4039  0.2402
 5578TIP3    H238370   5.424   2.276   8.253  1.1841  0.4430 -0.1398
 5579TIP3   OH238371   5.403   1.295   8.097  0.9271 -0.4488 -0.4599
 5579TIP3    H138372   5.382   1.212   8.140  0.5456  0.4658  1.2021
 5579TIP3    H238373   5.325   1.316   8.045 -0.6666  0.7745  2.2426
 5580TIP3   OH238374   5.188   3.293   8.623  0.1599 -0.3690  0.2687
 5580TIP3    H138375   5.226   3.332   8.544  0.9812  0.9137  1.2440
 5580TIP3    H238376   5.097   3.322   8.623  0.7899  1.8116  1.0527
 5581TIP3   OH238377   6.168   6.428   8.532  0.2498 -0.0689  0.4374
 5581TIP3    H138378   6.218   6.350   8.510  1.8283  1.0239 -0.0221
 5581TIP3    H238379   6.084   6.395   8.564  0.1405 -1.8946 -1.5205
 5582TIP3   OH238380   6.016   5.812   0.533  0.7259 -0.0016 -0.3233
 5582TIP3    H138381   6.071   5.747   0.578  1.6944  0.0371 -1.3987
 5582TIP3    H238382   5.927   5.784   0.550  0.8485  1.4575  3.8105
 5583TIP3   OH238383   4.635   2.730   7.369 -0.3719 -0.1522 -0.2329
 5583TIP3    H138384   4.566   2.668   7.392  1.0599 -0.8621  2.4472
 5583TIP3    H238385   4.672   2.696   7.288 -1.7373 -0.9375 -0.5562
 5584TIP3   OH238386   6.032   4.498   1.237  0.1634  0.0679 -0.2015
 5584TIP3    H138387   6.111   4.507   1.290  1.0905 -1.6386 -1.1844
 5584TIP3    H238388   5.979   4.433   1.282 -0.0366  0.1910 -0.2565
 5585TIP3   OH238389   4.927   1.089   7.636 -0.6286 -0.6197 -0.1428
 5585TIP3    H138390   4.865   1.037   7.688 -0.5426  0.3188  0.9470
 5585TIP3    H238391   4.887   1.095   7.549 -2.8229  1.0936  0.8636
 5586TIP3   OH238392   1.172   0.027   2.410  0.4824  0.1309  0.5451
 5586TIP3    H138393   1.163   0.121   2.421 -0.1976  0.1860 -0.3444
 5586TIP3    H238394   1.244   0.016   2.348 -1.7409  0.2865 -2.2832
 5587TIP3   OH238395   6.470   1.885   8.272 -0.4382  0.5009  0.6344
 5587TIP3    H138396   6.384   1.849   8.293 -0.8204  1.2869  0.4193
 5587TIP3    H238397   6.456   1.979   8.261  0.6491  0.8046  1.6665
 5588TIP3   OH238398   5.156   1.193   7.662 -0.2837  0.3792 -0.9808
 5588TIP3    H138399   5.065   1.163   7.660 -0.1524 -0.1608  0.2445
 5588TIP3    H238400   5.196   1.150   7.586 -0.7615 -0.3919 -0.8148
 5589TIP3   OH238401   4.728   3.274   0.604 -0.0945  0.1462 -0.3634
 5589TIP3    H138402   4.644   3.238   0.573 -0.3586  0.3574  0.0954
 5589TIP3    H238403   4.780   3.285   0.524 -0.4882 -0.0250 -0.6504
 5590TIP3   OH238404   4.760   0.023   0.685 -0.7381 -0.0469  0.1189
 5590TIP3    H138405   4.738   0.110   0.717 -1.1567  0.1347 -0.6301
 5590TIP3    H238406   4.842   0.035   0.637 -2.2385  0.5732 -2.5094
 5591TIP3   OH238407   6.288   6.012   8.383 -0.2760  0.1772  0.1625
 5591TIP3    H138408   6.374   6.035   8.418  0.5176 -1.0948 -0.8618
 5591TIP3    H238409   6.256   6.093   8.343  0.8199  0.4640 -0.1720
 5592TIP3   OH238410   0.092   1.567   1.301  0.1678  0.4147  0.8995
 5592TIP3    H138411   0.062   1.642   1.250 -2.4219 -0.7380  0.5516
 5592TIP3    H238412   0.021   1.503   1.294  1.7379 -1.6231  2.1644
 5593TIP3   OH238413   0.265   5.468   0.062  1.0683 -0.5681 -0.1875
 5593TIP3    H138414   0.240   5.535  -0.002 -1.5388 -1.1221  0.1478
 5593TIP3    H238415   0.258   5.386   0.015  1.3619 -0.8326  0.2213
 5594TIP3   OH238416   0.204   2.960   2.266 -0.0355  0.4427 -0.2341
 5594TIP3    H138417   0.212   2.872   2.302 -0.5783 -0.0855 -1.3447
 5594TIP3    H238418   0.194   3.017   2.342  2.3160 -0.1821  0.6373
 5595TIP3   OH238419   5.582   2.135   1.273 -0.3335 -0.6317  0.2609
 5595TIP3    H138420   5.586   2.218   1.320 -0.3402  0.0499 -0.8790
 5595TIP3    H238421   5.541   2.157   1.189  1.6999 -1.3062 -0.9852
 5596TIP3   OH238422   1.250   1.228   0.052 -0.7483  0.6324 -0.3980
 5596TIP3    H138423   1.236   1.146   0.100  0.8867  0.9092  0.6291
 5596TIP3    H238424   1.227   1.297   0.114  1.1490  0.9930 -0.0559
 5597TIP3   OH238425   1.134   0.716   1.091 -0.1150  0.0674  0.0381
 5597TIP3    H138426   1.111   0.642   1.147 -2.2148  2.2314  2.2510
 5597TIP3    H238427   1.066   0.717   1.024  0.6783 -0.7248 -0.8132
 5598TIP3   OH238428   1.177   1.105   0.427  0.4298  0.1252  0.1946
 5598TIP3    H138429   1.173   1.100   0.332 -0.2910  0.6424  0.1851
 5598TIP3    H238430   1.098   1.060   0.457 -0.1957  1.3564  0.4764
 5599TIP3   OH238431   5.925   0.550   8.065  0.5712 -0.5170  0.1613
 5599TIP3    H138432   5.830   0.543   8.061  0.6085 -1.1163  0.2117
 5599TIP3    H238433   5.953   0.472   8.113  1.2302 -1.5028 -1.7097
 5600TIP3   OH238434   3.753   2.102   2.663 -0.2157  0.0037  0.8344
 5600TIP3    H138435   3.819   2.150   2.614 -0.8395 -0.7104 -0.7749
 5600TIP3    H238436   3.719   2.037   2.601 -2.5045  0.4174  1.5649
 5601TIP3   OH238437   3.749   4.292   6.995 -0.2694 -0.2611  0.0469
 5601TIP3    H138438   3.717   4.202   6.997  0.9108 -0.6964  1.2449
 5601TIP3    H238439   3.744   4.318   6.903 -0.6768 -1.5330 -0.3054
 5602TIP3   OH238440   6.485   5.868   8.856 -0.8717  0.1972 -0.2042
 5602TIP3    H138441   6.441   5.783   8.863 -0.1456 -0.1901 -0.2191
 5602TIP3    H238442   6.438   5.913   8.785  0.5389 -1.3484 -2.2466
 5603TIP3   OH238443   4.022   6.536   8.252  0.0654 -0.0128 -0.1811
 5603TIP3    H138444   4.061   6.599   8.313  0.0703  0.6793 -0.8789
 5603TIP3    H238445   4.010   6.585   8.171  3.7993 -1.8402 -2.1209
 5604TIP3   OH238446   0.514   1.081   7.577 -0.2168  0.2510 -0.3049
 5604TIP3    H138447   0.448   1.025   7.618 -0.0776  0.1999 -0.1470
 5604TIP3    H238448   0.535   1.037   7.495  0.1781 -0.1409 -0.0002
 5605TIP3   OH238449   4.783   4.308   8.684  1.0166 -0.7049 -0.5146
 5605TIP3    H138450   4.757   4.238   8.624 -0.2732  0.2720 -1.1341
 5605TIP3    H238451   4.740   4.285   8.767  2.2688 -1.7057 -0.1125
 5606TIP3   OH238452   6.170   6.744   1.641 -0.0635  0.4434 -0.0481
 5606TIP3    H138453   6.129   6.662   1.667 -1.1573  1.3620  1.2773
 5606TIP3    H238454   6.107   6.785   1.582 -0.3324  1.0981  0.6688
 5607TIP3   OH238455   6.684   5.675   6.526  0.5607  0.1769 -0.0417
 5607TIP3    H138456   6.657   5.756   6.484  0.7122  0.3406  0.1718
 5607TIP3    H238457   6.692   5.698   6.619  0.7164 -0.0529  0.0018
 5608TIP3   OH238458   5.244   5.467   7.295 -0.4943  0.0411 -0.0259
 5608TIP3    H138459   5.173   5.511   7.247  0.5822  1.1361 -0.6527
 5608TIP3    H238460   5.312   5.452   7.230  0.7307  0.9570  0.9773
 5609TIP3   OH238461   2.166   1.518   8.443  0.0612  0.2259  0.0389
 5609TIP3    H138462   2.234   1.566   8.396 -0.8332  0.6899 -0.8267
 5609TIP3    H238463   2.086   1.535   8.393 -0.4011 -1.6732  0.0637
 5610TIP3   OH238464   0.178   4.877   1.841  0.4267 -0.9988 -0.1254
 5610TIP3    H138465   0.244   4.834   1.895  0.9833  0.5156  0.4589
 5610TIP3    H238466   0.223   4.954   1.805 -1.2428  0.6298  1.0749
 5611TIP3   OH238467   4.775   0.638   7.565 -0.4788  0.2714  0.9411
 5611TIP3    H138468   4.840   0.641   7.636  1.4157 -1.5191 -0.5852
 5611TIP3    H238469   4.727   0.557   7.579 -1.8138  1.1186  1.5066
 5612TIP3   OH238470   4.049   2.670   0.573 -0.0293  0.3580 -0.0945
 5612TIP3    H138471   4.008   2.756   0.571 -0.5218  0.1820  1.1549
 5612TIP3    H238472   4.127   2.679   0.519  0.3186  1.8061  0.6004
 5613TIP3   OH238473   0.570   2.064   8.808  0.1666  0.4877 -0.7458
 5613TIP3    H138474   0.497   2.014   8.844  0.5619  0.6214  0.2798
 5613TIP3    H238475   0.599   2.119   8.881  3.1737 -1.6365 -0.1800
 5614TIP3   OH238476   5.400   3.554   0.358  0.2921  0.6043 -0.2496
 5614TIP3    H138477   5.325   3.598   0.398 -0.2462 -0.4680 -0.0375
 5614TIP3    H238478   5.374   3.462   0.354  2.3211 -0.1433  1.5838
 5615TIP3   OH238479   4.484   4.128   7.670  0.5124 -0.0805  0.3488
 5615TIP3    H138480   4.417   4.179   7.624  1.8846  0.2539 -1.3394
 5615TIP3    H238481   4.484   4.164   7.759 -1.0955  0.3370  0.2093
 5616TIP3   OH238482   5.596   2.780   7.844 -0.0028 -0.2799  0.1599
 5616TIP3    H138483   5.556   2.693   7.844  0.2864 -0.4227  0.7591
 5616TIP3    H238484   5.658   2.779   7.771  2.5024 -1.7827  2.1320
 5617TIP3   OH238485   6.528   5.906   7.380  0.3955 -0.2774  0.2350
 5617TIP3    H138486   6.567   5.974   7.325  1.0846 -1.1037 -0.3404
 5617TIP3    H238487   6.481   5.850   7.318 -0.2099 -0.3033  0.7098
 5618TIP3   OH238488   3.139   3.631   7.638  0.5619 -0.0235 -0.8891
 5618TIP3    H138489   3.169   3.699   7.578  0.5744  0.2448 -0.5782
 5618TIP3    H238490   3.100   3.679   7.712 -0.6568 -0.3442 -1.2871
 5619TIP3   OH238491   1.579   0.986   2.162  0.1144  0.4161  0.3330
 5619TIP3    H138492   1.650   0.968   2.223  2.2411  1.7868 -1.5466
 5619TIP3    H238493   1.614   0.963   2.076 -1.3287  2.0584 -0.7895
 5620TIP3   OH238494   6.795   5.824   0.408  0.3432 -0.6678 -0.7913
 5620TIP3    H138495   6.814   5.918   0.411  0.5357 -0.6953 -1.0618
 5620TIP3    H238496   6.877   5.784   0.377  0.7222 -1.0657  0.6686
 5621TIP3   OH238497   6.733   1.361   1.236  0.6628  0.0002  0.0191
 5621TIP3    H138498   6.807   1.323   1.188  1.1291  1.0785 -0.1458
 5621TIP3    H238499   6.721   1.303   1.310  1.4357 -0.4108 -0.1589
 5622TIP3   OH238500   4.874   6.214   8.688  0.6642  0.1474  0.0308
 5622TIP3    H138501   4.934   6.158   8.638  0.5629 -1.3865  1.5637
 5622TIP3    H238502   4.805   6.236   8.625  1.3985 -0.3612 -0.9835
 5623TIP3   OH238503   2.970   3.420   0.647 -0.2571  0.1609  0.5420
 5623TIP3    H138504   2.877   3.414   0.623 -0.2390 -0.2029  0.5617
 5623TIP3    H238505   2.976   3.501   0.698 -1.1297 -1.2571  3.0459
 5624TIP3   OH238506   5.165   3.358   8.895  1.0246 -0.1174 -0.4676
 5624TIP3    H138507   5.079   3.380   8.861  0.9946 -1.7368 -1.5500
 5624TIP3    H238508   5.214   3.327   8.819  2.1070 -0.5564  0.3806
 5625TIP3   OH238509   5.963   5.931   7.827 -0.7498  0.1089 -0.2592
 5625TIP3    H138510   5.998   5.882   7.902 -0.1882  0.8034 -0.0550
 5625TIP3    H238511   5.967   5.869   7.754 -0.0773 -0.1638 -0.0009
 5626TIP3   OH238512   2.342   4.219   0.212  0.0054  0.0981  0.3057
 5626TIP3    H138513   2.358   4.275   0.136 -0.2395 -1.5432 -1.0071
 5626TIP3    H238514   2.421   4.165   0.218 -0.4932 -0.6199  0.4666
 5627TIP3   OH238515   6.184   6.569   7.800  0.5504  0.5137 -0.6980
 5627TIP3    H138516   6.124   6.513   7.752 -1.3364 -0.1323  2.1852
 5627TIP3    H238517   6.151   6.657   7.787 -0.2495  0.2918 -0.2550
 5628TIP3   OH238518   4.360   3.289   0.706  0.3952 -0.3468 -0.4973
 5628TIP3    H138519   4.402   3.205   0.686  0.8806  0.1594 -1.6814
 5628TIP3    H238520   4.266   3.271   0.700  0.4792 -0.9172 -0.2185
 5629TIP3   OH238521   0.472   3.393   7.788 -0.3909  0.5497 -0.0574
 5629TIP3    H138522   0.389   3.436   7.810 -0.8806 -0.7204  0.6353
 5629TIP3    H238523   0.450   3.332   7.718  0.3856  1.6808 -1.3294
 5630TIP3   OH238524   0.560   6.617   8.455  0.1601 -0.2296 -0.2048
 5630TIP3    H138525   0.617   6.662   8.517 -1.1604 -0.5318  1.3076
 5630TIP3    H238526   0.619   6.586   8.386  1.8251 -0.4955  1.2499
 5631TIP3   OH238527   1.598   2.231   7.855 -0.1647  0.3392 -0.7520
 5631TIP3    H138528   1.567   2.147   7.888  2.0284 -0.0025  0.6384
 5631TIP3    H238529   1.559   2.296   7.914 -0.9759  0.2290 -1.1533
 5632TIP3   OH238530   0.712   4.241   8.432  0.1888 -0.0918 -0.5013
 5632TIP3    H138531   0.667   4.325   8.435 -0.8563 -0.5658 -1.7839
 5632TIP3    H238532   0.706   4.207   8.521 -0.0169  0.8658 -0.1441
 5633TIP3   OH238533   4.216   6.081   2.019  0.4436  0.0864  0.2928
 5633TIP3    H138534   4.207   6.132   1.938 -1.5374  0.0697  0.4641
 5633TIP3    H238535   4.303   6.105   2.053  1.1085  0.4556 -1.5664
 5634TIP3   OH238536   5.967   0.006   7.359 -0.3252  0.5689 -0.0743
 5634TIP3    H138537   6.054   0.031   7.328  0.1942  1.4364  1.8979
 5634TIP3    H238538   5.959  -0.087   7.337  1.4371  0.2609  0.3952
 5635TIP3   OH238539   5.044   1.086   2.797 -0.1129 -0.4398 -0.3796
 5635TIP3    H138540   4.966   1.074   2.851  0.0632  1.2577  0.3501
 5635TIP3    H238541   5.031   1.172   2.756  1.0524 -0.4470 -0.7959
 5636TIP3   OH238542   1.026   1.524   2.642  0.3856  0.1909  0.4079
 5636TIP3    H138543   1.068   1.538   2.727 -0.3057 -0.2872  0.8354
 5636TIP3    H238544   1.050   1.435   2.618  2.2050  0.9657 -0.8451
 5637TIP3   OH238545   4.184   6.206   0.274 -0.6072 -0.0553  0.2928
 5637TIP3    H138546   4.144   6.271   0.215 -0.0545  1.6879  1.7605
 5637TIP3    H238547   4.125   6.130   0.269 -0.3425 -0.2024 -2.8116
 5638TIP3   OH238548   5.711   5.077   0.173 -0.1493  0.1530 -0.8244
 5638TIP3    H138549   5.741   5.127   0.249 -2.5697  1.4059 -0.6128
 5638TIP3    H238550   5.792   5.054   0.127  1.3550 -0.0106  1.6826
 5639TIP3   OH238551   5.195   4.675   2.202  0.1955  0.0981  0.2049
 5639TIP3    H138552   5.160   4.756   2.165  2.0809  0.9158  0.1053
 5639TIP3    H238553   5.275   4.702   2.247  0.3941 -1.5894  0.9332
 5640TIP3   OH238554   4.103   0.771   8.446 -0.3160 -0.1344  0.2210
 5640TIP3    H138555   4.030   0.709   8.441 -1.3354  1.0684 -0.3441
 5640TIP3    H238556   4.112   0.804   8.356  1.4958 -0.8731  0.0954
 5641TIP3   OH238557   6.548   6.010   1.401  0.7664 -0.3312  0.3970
 5641TIP3    H138558   6.591   6.096   1.410  0.4224 -0.2698  1.8023
 5641TIP3    H238559   6.609   5.949   1.444  0.1213 -0.4621  1.1505
 5642TIP3   OH238560   2.499   2.419   1.006 -0.4119  0.0769  0.6136
 5642TIP3    H138561   2.538   2.506   1.011 -0.2963  0.0686 -0.0057
 5642TIP3    H238562   2.432   2.418   1.074 -0.5898  0.7439  0.4492
 5643TIP3   OH238563   4.261   2.188   2.288  0.3999  0.4277 -0.7428
 5643TIP3    H138564   4.251   2.266   2.233  2.6555  0.9415 -0.5110
 5643TIP3    H238565   4.328   2.211   2.352  1.5649 -1.8569 -1.0110
 5644TIP3   OH238566   1.908   3.306   1.859 -0.1430 -0.4036 -0.2761
 5644TIP3    H138567   1.874   3.390   1.890  1.3505  0.2011 -0.1895
 5644TIP3    H238568   1.992   3.328   1.819  1.2216 -2.1059  1.4620
 5645TIP3   OH238569   1.788   6.053   2.218  0.3003 -0.1323 -0.3863
 5645TIP3    H138570   1.729   6.127   2.231 -0.0769 -0.5964  0.6740
 5645TIP3    H238571   1.819   6.062   2.128  1.7611  2.4184  0.2680
 5646TIP3   OH238572   4.406   6.255   0.724 -0.2128 -0.0288  0.0731
 5646TIP3    H138573   4.499   6.270   0.708 -0.5221  2.0395 -0.1577
 5646TIP3    H238574   4.366   6.257   0.637 -0.6120  0.4121  0.2631
 5647TIP3   OH238575   5.731   6.095   0.962 -0.0768  0.3693  0.3866
 5647TIP3    H138576   5.666   6.118   0.896 -1.4442  3.8542  2.6207
 5647TIP3    H238577   5.764   6.179   0.993  3.1288 -1.2117  1.6947
 5648TIP3   OH238578   6.576   2.786   1.494  0.0773 -0.1124 -0.6755
 5648TIP3    H138579   6.516   2.809   1.564  0.5347  2.3278 -1.0018
 5648TIP3    H238580   6.582   2.690   1.498 -1.5865 -0.2014  1.1696
 5649TIP3   OH238581   0.703   5.717   7.152 -0.1594 -0.3322  0.1804
 5649TIP3    H138582   0.624   5.688   7.105 -1.0562  1.1976  0.6497
 5649TIP3    H238583   0.769   5.727   7.084 -1.4410  1.8662 -0.8753
 5650TIP3   OH238584   2.202   3.019   0.617  0.2058 -0.4038 -0.6691
 5650TIP3    H138585   2.135   3.061   0.562 -1.4826  0.6386  1.9999
 5650TIP3    H238586   2.283   3.033   0.569 -0.7948  2.7262 -1.7237
 5651TIP3   OH238587   5.542   4.708   8.170  0.5813 -0.8394  0.0774
 5651TIP3    H138588   5.584   4.756   8.241  1.4688 -0.0623 -0.9437
 5651TIP3    H238589   5.547   4.616   8.197  0.7089 -0.5481  1.1032
 5652TIP3   OH238590   4.235   1.690   8.816  0.2627 -0.0179  0.2187
 5652TIP3    H138591   4.142   1.707   8.801  0.5090  0.8675 -0.3974
 5652TIP3    H238592   4.252   1.607   8.770 -0.3170 -0.4362  0.7418
 5653TIP3   OH238593   4.154   5.083   7.108  0.4935  0.2870  0.8286
 5653TIP3    H138594   4.112   5.167   7.090 -0.8514 -0.5207 -0.0242
 5653TIP3    H238595   4.190   5.056   7.023 -1.5959 -1.2734  0.3343
 5654TIP3   OH238596   6.172   0.091   8.745  0.3246  0.7814 -0.2650
 5654TIP3    H138597   6.101   0.055   8.798  0.6614  0.5492  0.0325
 5654TIP3    H238598   6.219   0.015   8.712  1.9903  0.8855  1.6306
 5655TIP3   OH238599   6.212   4.870   7.524 -0.1361 -0.7144  0.0279
 5655TIP3    H138600   6.180   4.957   7.550  1.1834 -0.2627  0.2270
 5655TIP3    H238601   6.162   4.809   7.578 -1.9255 -0.1743 -0.9514
 5656TIP3   OH238602   3.399   5.741   0.959  0.0180  0.1817 -0.3283
 5656TIP3    H138603   3.401   5.765   1.051 -3.0970  0.7124 -0.2876
 5656TIP3    H238604   3.450   5.809   0.915 -0.3039  1.1581  0.7766
 5657TIP3   OH238605   6.255   4.335   2.489  0.6088 -0.2313 -0.1169
 5657TIP3    H138606   6.298   4.339   2.574 -0.5777  1.1753  0.4565
 5657TIP3    H238607   6.238   4.426   2.466 -0.9340 -0.6741 -0.8941
 5658TIP3   OH238608   1.020   0.390   1.984  0.3500  0.0587 -0.0337
 5658TIP3    H138609   0.942   0.381   2.039 -0.0021  0.9730 -0.3711
 5658TIP3    H238610   1.086   0.336   2.029  0.1656  1.0060  1.4612
 5659TIP3   OH238611   5.156   3.701   2.464  0.3950  0.0463  0.5608
 5659TIP3    H138612   5.247   3.708   2.494  0.4106  2.3591  0.1147
 5659TIP3    H238613   5.104   3.720   2.542  0.3304  0.2556  0.4672
 5660TIP3   OH238614   5.661   2.516   1.078 -0.0467  0.0460  0.2017
 5660TIP3    H138615   5.733   2.486   1.134 -1.2832  0.0512  1.8756
 5660TIP3    H238616   5.667   2.611   1.080  0.1828  0.0377 -0.0547
 5661TIP3   OH238617   1.871   0.230   1.828  0.3980  0.1449 -0.7403
 5661TIP3    H138618   1.810   0.237   1.901  2.2024 -0.7131  0.9437
 5661TIP3    H238619   1.883   0.320   1.798 -0.9557  0.4228 -0.5171
 5662TIP3   OH238620   0.057   0.673   0.305  0.0716  0.3868 -0.0951
 5662TIP3    H138621   0.013   0.590   0.287 -0.1459  0.2899  0.8644
 5662TIP3    H238622   0.148   0.659   0.276  0.3301 -0.5793  1.1136
 5663TIP3   OH238623   6.601   6.721   2.434 -0.2061 -0.5094  0.7988
 5663TIP3    H138624   6.589   6.706   2.528  0.5661 -1.8773  0.7035
 5663TIP3    H238625   6.526   6.677   2.394  0.0811 -0.9210  0.7133
 5664TIP3   OH238626   1.656   0.886   1.867  0.1743  0.4167  0.6557
 5664TIP3    H138627   1.750   0.888   1.847  0.1780  3.4411  0.5503
 5664TIP3    H238628   1.615   0.853   1.787  1.1476 -1.9776  1.0693
 5665TIP3   OH238629   4.454   1.931   8.502 -0.4604  0.1276 -0.2767
 5665TIP3    H138630   4.451   2.000   8.568 -0.6315  0.3792 -0.5482
 5665TIP3    H238631   4.516   1.963   8.437 -1.8054  0.7973 -1.2632
 5666TIP3   OH238632   0.527   6.240   0.340  0.9568 -0.7280 -0.2165
 5666TIP3    H138633   0.566   6.154   0.359  1.4870 -0.1108  1.7494
 5666TIP3    H238634   0.437   6.233   0.371  0.4785 -1.0645 -1.6006
 5667TIP3   OH238635   2.760   5.604   2.335  0.2611  0.1271  0.0003
 5667TIP3    H138636   2.793   5.553   2.409 -0.3400 -1.8419 -1.0073
 5667TIP3    H238637   2.812   5.575   2.261 -1.9154 -1.1632 -1.1275
 5668TIP3   OH238638   0.866   2.947   0.991  0.1621  0.2031 -0.4734
 5668TIP3    H138639   0.955   2.946   1.025  0.4605  3.9410 -0.8160
 5668TIP3    H238640   0.811   2.961   1.068  0.1104  0.6334 -0.5888
 5669TIP3   OH238641   5.615   1.599   7.805 -0.2671 -0.0939  0.2020
 5669TIP3    H138642   5.590   1.515   7.767 -0.8312  0.9262 -1.8399
 5669TIP3    H238643   5.683   1.632   7.747 -0.1101  0.8839  0.9194
 5670TIP3   OH238644   5.743   4.037   0.719  0.1698 -0.2680  0.3860
 5670TIP3    H138645   5.782   4.121   0.694 -1.0431  0.8890  2.1756
 5670TIP3    H238646   5.788   3.973   0.664  1.2096  1.5203 -0.9732
 5671TIP3   OH238647   1.052   4.655   0.150  0.1244 -0.2121 -0.1061
 5671TIP3    H138648   1.093   4.570   0.132  1.9436  0.3156  1.3143
 5671TIP3    H238649   1.030   4.652   0.243  1.2730  1.2779  0.2447
 5672TIP3   OH238650   2.413   5.595   1.461  0.1888  0.3792  0.0678
 5672TIP3    H138651   2.430   5.582   1.368 -1.5963  0.2553 -0.2597
 5672TIP3    H238652   2.338   5.539   1.481 -0.4788  1.6058  1.2096
 5673TIP3   OH238653   6.210   2.199   1.127 -0.4140  0.4752  0.0569
 5673TIP3    H138654   6.216   2.115   1.081  1.1990 -0.3810  1.6792
 5673TIP3    H238655   6.125   2.198   1.170 -0.3995 -0.3650  0.0789
 5674TIP3   OH238656   2.751   3.879   8.103  0.0827 -0.1543 -0.1792
 5674TIP3    H138657   2.828   3.845   8.148 -0.3589 -1.5679 -0.4296
 5674TIP3    H238658   2.743   3.825   8.024 -0.0243  1.2824 -1.2012
 5675TIP3   OH238659   3.877   2.172   8.010 -0.3696 -0.2216 -0.8635
 5675TIP3    H138660   3.922   2.098   7.970  2.1737  1.8331 -2.1186
 5675TIP3    H238661   3.934   2.199   8.082 -0.3294  1.4969 -1.4861
 5676TIP3   OH238662   2.993   6.192   7.855 -0.0268  0.3105  0.3847
 5676TIP3    H138663   3.056   6.263   7.854 -0.8368  1.1141  2.0019
 5676TIP3    H238664   2.953   6.194   7.768  0.7922  1.0473  0.0104
 5677TIP3   OH238665   5.440   2.246   7.204  0.2412 -0.0198  0.3897
 5677TIP3    H138666   5.417   2.194   7.127  2.3923  1.0053 -1.0349
 5677TIP3    H238667   5.432   2.337   7.175  1.0596  0.3954  1.4040
 5678TIP3   OH238668   2.982   4.988   0.130 -0.3178 -0.1698  0.0259
 5678TIP3    H138669   2.991   5.021   0.219 -0.6653  0.8301 -0.3020
 5678TIP3    H238670   3.072   4.988   0.095 -0.4782  2.0794 -0.5274
 5679TIP3   OH238671   0.700   1.456   8.643  0.1900 -0.4348  0.0081
 5679TIP3    H138672   0.787   1.493   8.633  0.1460 -0.0397  0.9440
 5679TIP3    H238673   0.708   1.366   8.611  1.3565 -0.9143  1.5374
 5680TIP3   OH238674   4.706   6.483   1.847  0.2172  0.4365 -0.1800
 5680TIP3    H138675   4.695   6.498   1.753  1.9606 -1.0198 -0.6806
 5680TIP3    H238676   4.662   6.399   1.863 -0.1726  0.7331  0.3581
 5681TIP3   OH238677   5.597   5.549   7.599 -0.7478 -0.6007 -0.2834
 5681TIP3    H138678   5.683   5.590   7.585 -0.9141 -0.4998 -1.0745
 5681TIP3    H238679   5.612   5.456   7.585 -0.7674 -0.5802 -0.4473
 5682TIP3   OH238680   0.331   3.788   0.978  0.4022 -0.1928 -0.0432
 5682TIP3    H138681   0.260   3.817   0.920 -0.3103 -1.7480  0.0002
 5682TIP3    H238682   0.330   3.852   1.050 -0.9243 -0.1401 -0.0753
 5683TIP3   OH238683   2.686   2.734   1.166  0.0290  1.0210 -0.3919
 5683TIP3    H138684   2.752   2.788   1.123  0.0972 -0.5407 -2.3797
 5683TIP3    H238685   2.736   2.671   1.218  0.0675  0.6882 -0.8297
 5684TIP3   OH238686   0.959   2.445   0.273 -0.0550  0.1041 -0.4552
 5684TIP3    H138687   0.990   2.356   0.288  1.2093  0.6319  0.3220
 5684TIP3    H238688   0.889   2.457   0.337 -0.4953 -0.4535 -0.8303
 5685TIP3   OH238689   2.692   2.377   6.925  0.2534 -0.3798  0.2265
 5685TIP3    H138690   2.788   2.372   6.919  0.1421 -1.7775 -0.8923
 5685TIP3    H238691   2.671   2.467   6.903  1.2427 -0.4187 -0.9582
 5686TIP3   OH238692   3.655   3.105   8.381 -0.0073  0.1317 -0.6313
 5686TIP3    H138693   3.675   3.056   8.461 -0.5100  0.5501 -0.2410
 5686TIP3    H238694   3.650   3.038   8.312  2.0819 -0.0701 -0.6521
 5687TIP3   OH238695   3.230   6.604   6.765 -0.0873  0.1186 -0.0080
 5687TIP3    H138696   3.259   6.547   6.694  0.4972 -1.9933  1.8230
 5687TIP3    H238697   3.243   6.552   6.845 -2.1637  1.8074  1.5397
 5688TIP3   OH238698   3.898   0.084   7.213  0.3268 -0.6555 -1.0473
 5688TIP3    H138699   3.864   0.171   7.232  0.3776 -1.0068  0.8329
 5688TIP3    H238700   3.821   0.035   7.181  0.6346  0.4672 -3.8346
 5689TIP3   OH238701   0.718   3.366   0.564  0.4921 -0.2020  0.2585
 5689TIP3    H138702   0.752   3.414   0.488  0.5071  0.2312  0.5329
 5689TIP3    H238703   0.664   3.297   0.527 -0.7025  0.9067 -0.1419
 5690TIP3   OH238704   2.485   0.692   2.017 -0.5710  0.2285  0.8337
 5690TIP3    H138705   2.444   0.764   2.066  1.0886  1.1257  0.9571
 5690TIP3    H238706   2.439   0.692   1.933 -1.4758  0.5632  1.3048
 5691TIP3   OH238707   6.335   2.562   0.379  0.2954 -0.2155 -0.2283
 5691TIP3    H138708   6.405   2.625   0.358  1.0724 -0.4862  1.3710
 5691TIP3    H238709   6.382   2.484   0.409 -0.6819 -0.4833  0.6556
 5692TIP3   OH238710   2.220   2.528   8.078 -0.2530  0.4578 -0.2657
 5692TIP3    H138711   2.146   2.584   8.056  0.3517  1.0032 -0.9513
 5692TIP3    H238712   2.290   2.557   8.020  0.0194 -1.1511 -0.7853
 5693TIP3   OH238713   2.993   0.863   7.652  0.5705 -0.5931 -0.0685
 5693TIP3    H138714   3.058   0.928   7.676 -0.3873  0.1172  0.7077
 5693TIP3    H238715   3.037   0.779   7.664  1.8767 -0.1047 -1.2522
 5694TIP3   OH238716   4.865   5.720   7.722 -0.1082  0.1199  0.0217
 5694TIP3    H138717   4.944   5.774   7.718 -0.5814  0.7809 -3.8992
 5694TIP3    H238718   4.795   5.783   7.740 -0.3390  0.4928 -1.9817
 5695TIP3   OH238719   2.416   2.046   6.719 -0.0707 -0.6744  0.8137
 5695TIP3    H138720   2.362   2.114   6.679  0.0553 -1.1011 -0.0988
 5695TIP3    H238721   2.453   2.088   6.797  1.0770  0.7626 -0.4228
 5696TIP3   OH238722   5.817   1.785   8.703 -0.2616 -0.4414 -0.1154
 5696TIP3    H138723   5.745   1.784   8.640 -2.1042  0.6231  1.8617
 5696TIP3    H238724   5.805   1.867   8.751  3.8505  1.1881 -1.3836
 5697TIP3   OH238725   2.134   1.753   0.566 -0.1742  0.2101  0.1834
 5697TIP3    H138726   2.194   1.790   0.502 -1.1082 -0.9499 -1.4561
 5697TIP3    H238727   2.122   1.662   0.538  0.2000 -0.6859  2.6549
 5698TIP3   OH238728   1.923   0.894   1.770  0.2260 -0.4202 -0.0312
 5698TIP3    H138729   1.929   0.987   1.792 -0.3600 -0.5787  0.8262
 5698TIP3    H238730   1.958   0.848   1.846 -0.9146 -0.9456  0.1952
 5699TIP3   OH238731   6.798   5.574   2.100 -0.0208 -0.3587 -0.3445
 5699TIP3    H138732   6.800   5.530   2.185 -0.6438 -1.9233 -1.0992
 5699TIP3    H238733   6.825   5.506   2.038  0.8115  0.8706 -1.3705
 5700TIP3   OH238734   1.212   5.828   2.262 -0.7250 -0.5742 -0.3385
 5700TIP3    H138735   1.185   5.848   2.173  0.5307  0.8720 -0.4449
 5700TIP3    H238736   1.158   5.884   2.317  0.9480  1.3280 -0.4761
 5701TIP3   OH238737   0.392   6.268   7.623  0.1834  0.5258  0.2982
 5701TIP3    H138738   0.437   6.184   7.619 -0.0394  0.4333 -0.3747
 5701TIP3    H238739   0.415   6.312   7.541  1.1715  1.5742  1.1116
 5702TIP3   OH238740   0.650   5.438   2.661 -0.1429 -0.2391  0.1272
 5702TIP3    H138741   0.563   5.401   2.677 -0.2205 -0.0336  0.1866
 5702TIP3    H238742   0.704   5.363   2.636 -0.7299 -0.1316 -1.5444
 5703TIP3   OH238743   2.728   6.504   8.334 -0.1844  0.3047  0.2656
 5703TIP3    H138744   2.730   6.519   8.429  0.3593  1.3069  0.1127
 5703TIP3    H238745   2.769   6.418   8.322  1.3371  0.9136  0.8235
 5704TIP3   OH238746   3.307   4.475   2.322 -0.1623 -0.9166 -0.5116
 5704TIP3    H138747   3.295   4.468   2.417  0.9231  0.3526 -0.2642
 5704TIP3    H238748   3.395   4.441   2.306 -0.5930 -1.7657 -1.1685
 5705TIP3   OH238749   5.497   2.826   1.516 -0.4485  0.0557  0.4954
 5705TIP3    H138750   5.564   2.894   1.525 -0.6864  0.2683  0.6760
 5705TIP3    H238751   5.435   2.862   1.453 -0.7255  0.1226  0.8096
 5706TIP3   OH238752   4.457   1.934   1.179 -0.2078 -0.1014  0.0473
 5706TIP3    H138753   4.526   1.964   1.120  0.5325  0.4217  1.1546
 5706TIP3    H238754   4.419   2.014   1.214 -2.6281 -0.2992 -1.8799
 5707TIP3   OH238755   5.431   3.914   1.158 -0.2466  0.4202  0.1383
 5707TIP3    H138756   5.382   3.967   1.095 -3.0046 -0.7224  1.2105
 5707TIP3    H238757   5.377   3.837   1.173  2.6780 -1.8018  0.1741
 5708TIP3   OH238758   1.177   3.839   2.444 -0.5360  0.0170  0.0718
 5708TIP3    H138759   1.123   3.790   2.506  0.4722 -1.1743  0.0592
 5708TIP3    H238760   1.252   3.868   2.496 -0.5001  0.4419 -0.2170
 5709TIP3   OH238761   0.558   2.675   8.215  0.8494 -0.3494  0.1864
 5709TIP3    H138762   0.466   2.647   8.215  1.2532 -1.9497 -1.8706
 5709TIP3    H238763   0.567   2.727   8.135  1.8483 -0.6982  0.0621
 5710TIP3   OH238764   5.102   2.711   2.128 -0.3610  0.1797 -0.1681
 5710TIP3    H138765   5.129   2.653   2.199 -0.8332  0.7735  0.5082
 5710TIP3    H238766   5.153   2.681   2.052  0.0899 -0.5114  0.3916
 5711TIP3   OH238767   0.027   3.548   6.976 -0.2790  0.1019  0.2217
 5711TIP3    H138768   0.081   3.524   6.901 -0.6340  1.8369 -0.6196
 5711TIP3    H238769   0.032   3.643   6.980 -0.8244  0.0888  1.9990
 5712TIP3   OH238770   1.688   0.346   8.720 -0.6272 -0.5851 -0.9245
 5712TIP3    H138771   1.695   0.406   8.646  0.9007 -0.5283 -0.7609
 5712TIP3    H238772   1.740   0.270   8.694  2.1619  0.4766  1.0429
 5713TIP3   OH238773   4.392   4.769   0.617  0.0833 -0.2555 -0.0853
 5713TIP3    H138774   4.473   4.727   0.587  0.1764 -0.5366  0.5484
 5713TIP3    H238775   4.344   4.788   0.536  1.3358  1.0867 -0.5590
 5714TIP3   OH238776   0.243   3.784   2.828  0.0381 -0.5428 -0.7602
 5714TIP3    H138777   0.207   3.705   2.787 -1.1538 -0.5324  0.2005
 5714TIP3    H238778   0.168   3.841   2.841  0.4784 -0.2546  0.7566
 5715TIP3   OH238779   2.724   0.378   1.082  0.0958  0.0682 -0.1916
 5715TIP3    H138780   2.636   0.342   1.092  0.9172 -1.5326  2.2701
 5715TIP3    H238781   2.772   0.346   1.159  2.8373  0.8887 -1.4267
 5716TIP3   OH238782   1.049   4.036   1.445 -0.4126 -0.1139  0.3877
 5716TIP3    H138783   1.119   3.985   1.486 -0.2069 -1.0507 -1.0183
 5716TIP3    H238784   1.088   4.068   1.363 -0.7020  1.9348  1.0137
 5717TIP3   OH238785   0.324   1.161   0.083 -0.0111  0.0827 -0.3316
 5717TIP3    H138786   0.313   1.075   0.041 -0.3875  0.5143 -1.1315
 5717TIP3    H238787   0.333   1.222   0.010 -0.4582  0.8233  0.2225
 5718TIP3   OH238788   4.180   4.643   7.866 -0.2069 -0.4057  0.0695
 5718TIP3    H138789   4.222   4.726   7.843  0.3449 -1.0754 -1.4806
 5718TIP3    H238790   4.207   4.627   7.957  2.1511 -0.3279 -0.5512
 5719TIP3   OH238791   4.607   3.850   1.751  0.3083 -0.3024 -0.2505
 5719TIP3    H138792   4.668   3.833   1.823 -0.9994 -1.4226  0.6432
 5719TIP3    H238793   4.663   3.868   1.676  1.7163  0.3199  0.9057
 5720TIP3   OH238794   2.424   4.687   1.853  0.1268  0.0748 -0.2035
 5720TIP3    H138795   2.383   4.727   1.929  0.0081  1.3475 -0.9065
 5720TIP3    H238796   2.374   4.607   1.838 -1.6655  1.2220 -0.6008
 5721TIP3   OH238797   6.722   5.400   8.900 -0.2033  0.8500  0.2704
 5721TIP3    H138798   6.705   5.488   8.934  1.1695  1.2159  0.0754
 5721TIP3    H238799   6.720   5.411   8.805 -1.2107  0.4061  0.2250
 5722TIP3   OH238800   1.797   5.991   8.183 -0.4776  0.4446  0.8305
 5722TIP3    H138801   1.844   5.911   8.204  1.3325  1.0751 -0.5699
 5722TIP3    H238802   1.772   6.028   8.268  0.4648 -0.5547  1.5675
 5723TIP3   OH238803   6.380   3.343   8.233  0.9322 -0.3336  0.5163
 5723TIP3    H138804   6.369   3.371   8.142 -3.2802  1.1956  1.2711
 5723TIP3    H238805   6.417   3.420   8.277 -1.1552  0.6279  0.7467
 5724TIP3   OH238806   4.572   5.190   7.896  0.7332  0.9187  0.1010
 5724TIP3    H138807   4.553   5.261   7.834 -0.0514  1.2694  0.7340
 5724TIP3    H238808   4.496   5.133   7.891 -0.0618  1.7617  1.8683
 5725TIP3   OH238809   5.512   3.432   2.404 -0.0123 -0.0130 -0.4028
 5725TIP3    H138810   5.497   3.465   2.492 -0.0227 -1.3616  0.1152
 5725TIP3    H238811   5.447   3.478   2.350  0.3290  1.2017  0.1768
 5726TIP3   OH238812   6.299   1.596   1.773 -0.4727  0.2599  0.6638
 5726TIP3    H138813   6.366   1.657   1.802  0.1109 -0.2242  0.3393
 5726TIP3    H238814   6.325   1.512   1.810  0.2717 -0.3762 -1.1823
 5727TIP3   OH238815   5.470   5.292   6.832 -0.1115 -0.1283 -0.2709
 5727TIP3    H138816   5.452   5.386   6.823 -0.1076  0.0771  1.4125
 5727TIP3    H238817   5.533   5.287   6.904 -3.0923 -1.5871  2.5249
 5728TIP3   OH238818   0.557   4.107   1.487  0.4006 -0.3047 -0.1146
 5728TIP3    H138819   0.592   4.023   1.515 -0.2904 -0.4087  0.4807
 5728TIP3    H238820   0.463   4.092   1.475  0.5402 -0.0660 -1.7945
 5729TIP3   OH238821   6.035   5.733   0.038 -0.1366 -0.2677  0.3202
 5729TIP3    H138822   6.062   5.741   0.130 -0.8231 -1.2061  0.6148
 5729TIP3    H238823   5.943   5.705   0.042 -0.0851 -0.6084 -0.6494
 5730TIP3   OH238824   1.837   0.839   0.410 -0.2462  0.0660  0.2301
 5730TIP3    H138825   1.788   0.921   0.412 -1.3867 -0.6124  0.9941
 5730TIP3    H238826   1.811   0.793   0.489 -2.2436 -2.5051 -1.7427
 5731TIP3   OH238827   4.318   4.984   7.311  0.4308  0.0116 -0.0871
 5731TIP3    H138828   4.389   5.048   7.301  0.4331  0.0539  0.2048
 5731TIP3    H238829   4.251   5.014   7.249 -0.2854  1.2937  1.2411
 5732TIP3   OH238830   6.301   3.784   0.461  0.2022  0.2888  0.7079
 5732TIP3    H138831   6.342   3.715   0.513 -1.8899 -1.4598  0.1771
 5732TIP3    H238832   6.207   3.768   0.469 -0.2628  0.7995 -2.4212
 5733TIP3   OH238833   1.575   2.591   8.279 -0.4034 -0.0821 -0.6308
 5733TIP3    H138834   1.487   2.599   8.314  0.1420 -1.5410  1.2443
 5733TIP3    H238835   1.632   2.627   8.347  0.6207 -2.0321 -0.3706
 5734TIP3   OH238836   2.127   3.221   2.624 -0.1006  0.6630 -0.4299
 5734TIP3    H138837   2.051   3.276   2.642  0.6848  1.5883  0.1908
 5734TIP3    H238838   2.201   3.282   2.621  0.6662 -0.2462 -0.6931
 5735TIP3   OH238839   4.591   4.424   1.881 -0.2467  0.4296  0.1123
 5735TIP3    H138840   4.501   4.446   1.857 -0.3546 -0.3666 -0.2645
 5735TIP3    H238841   4.582   4.358   1.950  0.0599  1.1910  0.8987
 5736TIP3   OH238842   3.504   6.233   8.096 -0.3456  0.4148  0.0550
 5736TIP3    H138843   3.485   6.191   8.180 -0.4908  0.2047 -0.0786
 5736TIP3    H238844   3.540   6.318   8.119  1.0934 -0.2508  0.3526
 5737TIP3   OH238845   4.959   0.379   7.664 -0.1970  0.3113 -0.2410
 5737TIP3    H138846   4.941   0.340   7.578  0.3773 -2.2179  0.7066
 5737TIP3    H238847   4.882   0.358   7.716  0.3299  0.0128  0.4304
 5738TIP3   OH238848   2.108   4.447   7.943  0.7301 -0.0070  0.2741
 5738TIP3    H138849   2.034   4.415   7.993  0.7576 -0.4943  0.0056
 5738TIP3    H238850   2.149   4.369   7.906  1.5853  0.2251  0.6971
 5739TIP3   OH238851   2.730   0.937   0.996 -0.3149  0.6370  0.0741
 5739TIP3    H138852   2.718   0.986   1.078 -0.3658  0.1622  0.3547
 5739TIP3    H238853   2.800   0.875   1.016 -1.8008 -0.9962  0.4709
 5740TIP3   OH238854   0.849   3.671   2.133  0.1421  0.1480  0.8581
 5740TIP3    H138855   0.932   3.709   2.104 -1.0055  0.5047 -2.4226
 5740TIP3    H238856   0.782   3.724   2.089 -1.7385 -1.6085  1.4650
 5741TIP3   OH238857   0.885   1.054   8.661 -0.4335 -0.0761  0.5544
 5741TIP3    H138858   0.972   1.034   8.695  0.5032 -0.0458 -1.6761
 5741TIP3    H238859   0.857   0.974   8.618 -0.7601  0.4536 -0.2268
 5742TIP3   OH238860   0.594   4.421   7.532 -0.8779  0.1430 -0.2473
 5742TIP3    H138861   0.689   4.404   7.538 -0.9879 -0.8420 -1.0517
 5742TIP3    H238862   0.555   4.351   7.584 -1.1627  0.7419  0.3539
 5743TIP3   OH238863   0.743   3.388   0.162 -0.2046  0.0309  0.0030
 5743TIP3    H138864   0.824   3.386   0.111 -1.0238  2.1933 -1.5491
 5743TIP3    H238865   0.714   3.297   0.166  0.9913 -0.4653 -1.6128
 5744TIP3   OH238866   1.551   0.689   8.331 -0.0751  0.0368 -0.0611
 5744TIP3    H138867   1.458   0.700   8.350  0.1406  0.9287  0.5376
 5744TIP3    H238868   1.552   0.641   8.248 -1.1751  3.2834 -2.1721
 5745TIP3   OH238869   2.887   2.305   8.109  0.3244  0.1437  0.4463
 5745TIP3    H138870   2.848   2.221   8.135 -0.9460 -0.2895 -2.4762
 5745TIP3    H238871   2.949   2.282   8.039  0.5498  1.5678  0.1498
 5746TIP3   OH238872   0.501   6.536   0.210  0.6767 -0.5994  0.8844
 5746TIP3    H138873   0.419   6.496   0.239  0.0035  1.5897  2.2373
 5746TIP3    H238874   0.532   6.479   0.140 -0.8334 -2.7196  1.8347
 5747TIP3   OH238875   2.952   1.429   8.187  0.8627 -0.2920  0.1534
 5747TIP3    H138876   3.044   1.447   8.165  1.4951 -1.2680  1.8556
 5747TIP3    H238877   2.952   1.340   8.222 -0.4192  0.3026  1.8280
 5748TIP3   OH238878   1.746   4.078   1.087 -0.3149 -0.4157  0.3046
 5748TIP3    H138879   1.709   3.993   1.063 -2.1717  0.0799  1.2372
 5748TIP3    H238880   1.746   4.128   1.005 -0.6068 -0.8427  0.0406
 5749TIP3   OH238881   4.491   2.749   3.004 -0.3074  0.0777 -0.1516
 5749TIP3    H138882   4.423   2.720   2.942 -0.5060  0.5588 -0.1631
 5749TIP3    H238883   4.544   2.811   2.954 -0.5419  0.5607  0.1959
 5750TIP3   OH238884   2.858   4.007   7.723  0.1250  0.0356 -0.2052
 5750TIP3    H138885   2.902   3.930   7.759 -1.6700 -2.1212 -2.2647
 5750TIP3    H238886   2.904   4.025   7.641  0.2295  0.8774  0.0310
 5751TIP3   OH238887   1.932   3.272   8.503 -0.1173 -0.1735 -0.3782
 5751TIP3    H138888   1.898   3.361   8.510 -4.5207 -1.7211  2.1996
 5751TIP3    H238889   1.974   3.256   8.588  0.5480 -0.6112 -0.7785
 5752TIP3   OH238890   5.045   2.161   7.159 -0.2840  0.5339  0.0247
 5752TIP3    H138891   5.046   2.077   7.204 -0.2989  0.3654 -0.2834
 5752TIP3    H238892   4.969   2.207   7.196 -0.7882  0.0697 -0.4114
 5753TIP3   OH238893   2.568   1.282   7.708  0.0707 -0.1545 -0.6212
 5753TIP3    H138894   2.616   1.199   7.706  0.1142 -0.1245 -1.5673
 5753TIP3    H238895   2.586   1.319   7.794 -0.7221 -1.5781  0.2028
 5754TIP3   OH238896   1.860   4.943   2.542 -0.0408 -0.4351  0.2253
 5754TIP3    H138897   1.935   4.889   2.516 -0.1989 -0.0456 -1.0929
 5754TIP3    H238898   1.898   5.029   2.562 -0.0988 -0.3223 -0.1487
 5755TIP3   OH238899   1.827   2.978   8.834 -0.4594 -0.0712 -0.2556
 5755TIP3    H138900   1.836   3.013   8.746  0.5039 -0.3410 -0.2741
 5755TIP3    H238901   1.887   2.903   8.837  0.3267  0.5746  0.9475
 5756TIP3   OH238902   3.549   2.469   8.384  0.3711  0.4334  0.0994
 5756TIP3    H138903   3.536   2.418   8.304  0.9812 -1.0826  0.9377
 5756TIP3    H238904   3.544   2.560   8.355  0.3999 -0.0882 -1.6394
 5757TIP3   OH238905   2.880   0.532   2.184  0.1822  0.6737  0.2348
 5757TIP3    H138906   2.908   0.572   2.266 -1.3934 -0.9563  1.6630
 5757TIP3    H238907   2.928   0.449   2.181 -0.3126  0.3994 -0.1265
 5758TIP3   OH238908   2.836   1.162   0.083  0.0037 -0.2116  0.0709
 5758TIP3    H138909   2.743   1.158   0.064 -0.1101  1.1925  0.2346
 5758TIP3    H238910   2.841   1.185   0.176  0.4075  3.0742 -0.6349
 5759TIP3   OH238911   0.121   0.966   0.829 -0.2380  0.5774  0.2493
 5759TIP3    H138912   0.133   0.958   0.923 -2.3261 -1.5433  0.4271
 5759TIP3    H238913   0.161   0.888   0.792 -0.9041  0.5549 -0.4544
 5760TIP3   OH238914   2.457   4.375   0.801  0.1030 -0.5295  0.7797
 5760TIP3    H138915   2.488   4.419   0.880  1.4475 -0.1125  0.0565
 5760TIP3    H238916   2.504   4.419   0.730 -0.8125 -1.1373 -0.2182
 5761TIP3   OH238917   4.051   1.947   1.296  0.1033  0.1811  0.0842
 5761TIP3    H138918   3.963   1.954   1.258  1.0154 -0.0758 -2.2439
 5761TIP3    H238919   4.081   1.860   1.270  1.1290  0.3276  0.7143
 5762TIP3   OH238920   2.444   0.651   7.259 -0.8853  0.3357 -0.5522
 5762TIP3    H138921   2.537   0.661   7.277 -1.2948  1.2791  1.2807
 5762TIP3    H238922   2.421   0.726   7.204 -0.9938  1.3629  0.8682
 5763TIP3   OH238923   3.226   1.085   1.417 -0.0966  0.4508 -0.4873
 5763TIP3    H138924   3.280   1.164   1.428  0.4025  0.0331  0.1475
 5763TIP3    H238925   3.283   1.024   1.371 -0.0965  0.0767  0.0077
 5764TIP3   OH238926   2.695   2.068   0.459  0.6704 -0.0744  0.2296
 5764TIP3    H138927   2.627   2.134   0.443  0.5822  0.1896  1.5482
 5764TIP3    H238928   2.684   2.045   0.551  2.1449 -0.2833  0.3712
 5765TIP3   OH238929   2.979   2.433   6.960  0.2211 -0.2073 -0.1569
 5765TIP3    H138930   3.031   2.511   6.941  0.2905 -0.4334 -0.9143
 5765TIP3    H238931   3.036   2.360   6.937  0.1088 -0.4861  0.4309
 5766TIP3   OH238932   5.456   5.455   2.883 -0.3110 -0.1390  0.6762
 5766TIP3    H138933   5.412   5.536   2.906 -0.5994  0.1985 -0.9139
 5766TIP3    H238934   5.492   5.471   2.795 -1.1963 -2.0293 -0.0990
 5767TIP3   OH238935   3.494   1.218   2.986 -0.1825 -0.2298 -0.2114
 5767TIP3    H138936   3.486   1.291   3.048  0.9428 -1.4929  1.5545
 5767TIP3    H238937   3.448   1.247   2.908 -1.6308  1.5006  1.1913
 5768TIP3   OH238938   6.095   4.271   8.129  0.2788 -0.1675  0.6051
 5768TIP3    H138939   6.191   4.274   8.134  0.1895  0.4357  2.3812
 5768TIP3    H238940   6.072   4.187   8.168  0.0559 -0.2888  0.2244
 5769TIP3   OH238941   3.312   4.394   8.521  0.8381  0.4040  0.5606
 5769TIP3    H138942   3.369   4.324   8.554  0.6702 -0.1796 -0.3563
 5769TIP3    H238943   3.242   4.399   8.586 -0.4347 -1.9349 -0.5114
 5770TIP3   OH238944   4.662   2.289   0.382  0.0690 -0.2075  0.1810
 5770TIP3    H138945   4.601   2.301   0.309 -2.1289  2.9900  2.2552
 5770TIP3    H238946   4.747   2.314   0.346 -0.6278 -0.2977 -1.6684
 5771TIP3   OH238947   2.302   0.449   2.534  0.0532  0.1684 -0.2750
 5771TIP3    H138948   2.310   0.530   2.585 -0.0229 -0.2166  0.3595
 5771TIP3    H238949   2.306   0.379   2.600  1.2520 -0.3981 -0.9166
 5772TIP3   OH238950   3.000   3.482   1.890 -0.6660  0.3960 -0.3318
 5772TIP3    H138951   3.011   3.577   1.894 -0.3326  0.3159  1.1627
 5772TIP3    H238952   3.018   3.452   1.979  1.2884 -1.2795 -1.2115
 5773TIP3   OH238953   5.646   3.011   1.309 -0.6618  0.0861  0.4243
 5773TIP3    H138954   5.723   3.014   1.252 -0.3700  0.9521  0.8479
 5773TIP3    H238955   5.681   3.013   1.398 -1.1489 -0.4032  0.6369
 5774TIP3   OH238956   5.791   4.031   7.919 -0.0243  0.5632 -0.5898
 5774TIP3    H138957   5.827   3.964   7.861  0.8204 -0.7618  1.3877
 5774TIP3    H238958   5.696   4.016   7.916  0.1463 -0.6815 -0.2419
 5775TIP3   OH238959   0.450   0.826   2.157  0.2234 -0.1614 -0.0620
 5775TIP3    H138960   0.496   0.753   2.198  0.2672  1.0371  2.1838
 5775TIP3    H238961   0.426   0.883   2.230 -4.6609 -0.5400 -1.0624
 5776TIP3   OH238962   5.376   4.031   0.004  0.1824  0.0333 -0.5230
 5776TIP3    H138963   5.314   3.965   0.036 -0.5268 -0.3255 -2.5368
 5776TIP3    H238964   5.422   4.061   0.083 -2.2739  0.0517  0.9857
 5777TIP3   OH238965   4.601   4.722   2.076  0.3716 -0.6436  0.1888
 5777TIP3    H138966   4.603   4.732   2.172  2.3529  0.3386  0.0964
 5777TIP3    H238967   4.693   4.719   2.050 -0.0418  1.4469 -1.8824
 5778TIP3   OH238968   0.839   5.282   0.837  0.0771  0.4233  0.1802
 5778TIP3    H138969   0.924   5.267   0.795 -0.4302 -1.8388 -0.1292
 5778TIP3    H238970   0.800   5.195   0.844 -2.8304  1.5191 -0.9455
 5779TIP3   OH238971   0.526   5.824   7.872 -0.1037 -0.3221 -0.2235
 5779TIP3    H138972   0.585   5.798   7.801  1.7171 -0.3610  1.2583
 5779TIP3    H238973   0.526   5.750   7.932 -0.5791  0.2375  0.4803
 5780TIP3   OH238974   5.511   1.945   8.110  0.5410 -0.0125 -0.1914
 5780TIP3    H138975   5.449   2.016   8.127 -0.0567 -0.6092  0.1707
 5780TIP3    H238976   5.460   1.880   8.061  0.8944 -0.4754  0.0457
 5781TIP3   OH238977   6.318   2.400   7.882 -0.2849  0.3201  0.1636
 5781TIP3    H138978   6.292   2.365   7.967  3.0478 -0.2800  1.0804
 5781TIP3    H238979   6.408   2.370   7.870 -0.7735 -0.1127 -3.8878
 5782TIP3   OH238980   3.255   0.680   7.394  0.1324 -0.0194  0.0665
 5782TIP3    H138981   3.197   0.672   7.318  1.0681 -0.6212 -0.6161
 5782TIP3    H238982   3.300   0.595   7.399  0.6515  0.2888  0.8212
 5783TIP3   OH238983   3.924   4.220   1.961  0.1146 -0.5404 -0.2233
 5783TIP3    H138984   3.853   4.156   1.946 -0.9646  0.8858 -1.4630
 5783TIP3    H238985   3.955   4.200   2.050  0.1654 -3.0858 -0.7302
 5784TIP3   OH238986   4.604   6.791   1.202  0.1457 -0.0918 -0.1558
 5784TIP3    H138987   4.535   6.821   1.261 -0.7143 -1.6317 -0.3372
 5784TIP3    H238988   4.566   6.798   1.115  0.8013  0.5342 -0.4057
 5785TIP3   OH238989   3.125   5.324   8.096  0.1175  0.2634 -0.1656
 5785TIP3    H138990   3.131   5.408   8.052  1.6446 -0.0960 -0.6971
 5785TIP3    H238991   3.160   5.261   8.033 -1.9781 -0.9531 -0.1988
 5786TIP3   OH238992   0.379   1.414   3.157  0.5849  0.2099  0.0824
 5786TIP3    H138993   0.432   1.360   3.100 -0.7912 -1.1593  0.0406
 5786TIP3    H238994   0.417   1.502   3.149  0.3506  0.1265 -3.0631
 5787TIP3   OH238995   0.130   2.843   1.879 -0.0514 -0.0075 -0.5827
 5787TIP3    H138996   0.194   2.848   1.950  0.3596 -0.9668 -0.8625
 5787TIP3    H238997   0.078   2.923   1.887 -1.3418 -0.9862  2.0390
 5788TIP3   OH238998   1.070   5.427   1.325  0.6666  0.0016 -0.2203
 5788TIP3    H138999   1.165   5.418   1.313  0.6789  0.4667 -0.5007
 5788TIP3    H239000   1.032   5.368   1.260  0.7599  0.5022 -0.7390
 5789TIP3   OH239001   5.204   5.913   7.833 -0.2581  0.7482  0.0735
 5789TIP3    H139002   5.120   5.920   7.880 -0.6190 -1.9681  0.0086
 5789TIP3    H239003   5.182   5.870   7.751  1.4418 -2.4521  1.1346
 5790TIP3   OH239004   0.379   5.795   0.047  0.1356 -0.0768  0.3322
 5790TIP3    H139005   0.386   5.807  -0.048 -1.2055  2.5201  0.4700
 5790TIP3    H239006   0.284   5.796   0.064  0.1471 -3.6988  1.4531
 5791TIP3   OH239007   5.184   2.614   0.954 -0.7393 -0.2506  0.1421
 5791TIP3    H139008   5.113   2.627   0.892  0.4335 -0.2425 -1.2604
 5791TIP3    H239009   5.148   2.641   1.039 -2.3525 -0.1756 -0.5372
 5792TIP3   OH239010   1.121   4.239   2.152  0.5065 -0.3266 -0.1058
 5792TIP3    H139011   1.175   4.217   2.227  0.3660 -1.9864 -0.4510
 5792TIP3    H239012   1.035   4.202   2.173  0.0355  0.5684 -0.4097
 5793TIP3   OH239013   2.944   5.754   8.546 -0.2134  0.4167 -0.4976
 5793TIP3    H139014   2.942   5.792   8.459 -1.0287  0.9659 -0.2466
 5793TIP3    H239015   2.875   5.687   8.545  0.0006  0.1908 -0.3756
 5794TIP3   OH239016   0.938   6.091   1.571 -0.6646  0.1844 -0.7578
 5794TIP3    H139017   1.008   6.036   1.536 -1.7782 -1.1184 -1.0465
 5794TIP3    H239018   0.950   6.086   1.666 -0.4333 -0.1120 -0.8004
 5795TIP3   OH239019   2.215   5.037   8.312  0.5329  0.5363 -0.2320
 5795TIP3    H139020   2.139   5.078   8.352 -1.4779 -2.1013 -1.1170
 5795TIP3    H239021   2.264   5.110   8.273 -1.2732  2.3555  0.7484
 5796TIP3   OH239022   2.892   3.881   2.827 -0.2486 -0.6109  0.0807
 5796TIP3    H139023   2.926   3.817   2.889 -1.0650 -1.4282 -0.2989
 5796TIP3    H239024   2.803   3.852   2.807 -0.9043  1.0126  0.4177
 5797TIP3   OH239025   5.895   0.517   0.184  0.6588  0.3681  0.3166
 5797TIP3    H139026   5.915   0.572   0.259 -0.2905  0.7300  0.3116
 5797TIP3    H239027   5.861   0.436   0.222 -0.6150  0.8688  0.2726
 5798TIP3   OH239028   0.572   0.356   0.648  0.3583  0.6745 -0.4079
 5798TIP3    H139029   0.538   0.445   0.652  0.2626  0.6023  0.7267
 5798TIP3    H239030   0.655   0.359   0.695  1.3192  0.5552 -2.0015
 5799TIP3   OH239031   5.552   0.567   2.192  0.0865  0.4041  0.3781
 5799TIP3    H139032   5.482   0.514   2.154  0.3803  0.2681  0.0211
 5799TIP3    H239033   5.589   0.615   2.118  1.5356 -0.8562  0.2388
 5800TIP3   OH239034   3.846   4.359   7.236  0.2831  0.2537  0.1851
 5800TIP3    H139035   3.781   4.428   7.254  0.8254  0.1083  3.2129
 5800TIP3    H239036   3.828   4.333   7.146 -3.2977  0.8417  0.5451
 5801TIP3   OH239037   6.584   0.991   0.581  0.2410 -0.1287 -0.3683
 5801TIP3    H139038   6.661   0.992   0.524 -0.0100  2.2141 -0.7831
 5801TIP3    H239039   6.611   1.039   0.659  0.1435 -2.1062  0.9316
 5802TIP3   OH239040   2.990   4.621   1.966  0.4984 -0.3478 -0.4433
 5802TIP3    H139041   3.031   4.597   2.049  2.2168 -0.8385 -1.3833
 5802TIP3    H239042   3.007   4.547   1.909  0.2993  0.4342 -1.5415
 5803TIP3   OH239043   6.443   3.685   7.725 -0.2563 -0.2362 -0.0116
 5803TIP3    H139044   6.511   3.617   7.728 -0.4657 -0.4228  1.4334
 5803TIP3    H239045   6.383   3.656   7.657 -1.1742 -2.3585  1.5838
 5804TIP3   OH239046   6.067   0.789   1.785  0.1401 -0.4167 -0.2307
 5804TIP3    H139047   6.113   0.712   1.751  0.7162 -0.3395  0.3541
 5804TIP3    H239048   6.021   0.758   1.863 -2.0785 -0.8547 -1.6105
 5805TIP3   OH239049   3.611   2.746   1.905  0.0421 -0.6287 -0.6017
 5805TIP3    H139050   3.676   2.742   1.835 -1.0472  0.3760 -1.7276
 5805TIP3    H239051   3.581   2.837   1.903 -2.2313 -1.3440 -0.9173
 5806TIP3   OH239052   6.567   4.736   7.970 -0.1159  0.1534 -0.3603
 5806TIP3    H139053   6.494   4.700   7.920  1.1125 -1.8014 -0.8658
 5806TIP3    H239054   6.592   4.665   8.029 -0.8401  2.0080  2.3868
 5807TIP3   OH239055   6.139   5.096   6.572 -0.7326 -0.0548  0.0433
 5807TIP3    H139056   6.147   5.175   6.519 -1.9672 -0.2524 -0.4550
 5807TIP3    H239057   6.093   5.034   6.517 -0.7279 -0.7623  0.8167
 5808TIP3   OH239058   1.856   6.583   0.195 -0.2081  0.8763 -0.5006
 5808TIP3    H139059   1.865   6.491   0.216  0.8214  1.4359  1.8449
 5808TIP3    H239060   1.782   6.587   0.134  0.7454 -1.6057 -1.9557
 5809TIP3   OH239061   5.659   1.574   8.840  0.0187 -0.2964  0.3156
 5809TIP3    H139062   5.640   1.605   8.929 -0.2515  1.1451 -0.2256
 5809TIP3    H239063   5.714   1.642   8.802 -0.9785 -0.2241 -1.0686
 5810TIP3   OH239064   6.156   0.962   0.150 -0.1216 -0.8445 -0.1622
 5810TIP3    H139065   6.139   0.891   0.088 -2.0001 -0.2898 -0.3672
 5810TIP3    H239066   6.246   0.989   0.132  0.0062 -1.9618 -1.3363
 5811TIP3   OH239067   3.319   1.703   8.525  0.3845  0.4473 -0.7287
 5811TIP3    H139068   3.384   1.753   8.575  0.9092 -0.8003 -0.1228
 5811TIP3    H239069   3.235   1.732   8.560  0.7388 -0.5677  1.1074
 5812TIP3   OH239070   5.201   5.310   0.751 -0.1670  0.3883  0.0712
 5812TIP3    H139071   5.268   5.243   0.766  0.4387  0.7754 -0.7760
 5812TIP3    H239072   5.250   5.392   0.751 -0.4073  0.5743 -1.9327
 5813TIP3   OH239073   2.890   1.620   1.695 -0.8261  0.1680 -0.1783
 5813TIP3    H139074   2.936   1.570   1.628  0.3856 -0.3201  0.9768
 5813TIP3    H239075   2.882   1.560   1.769 -0.7398  1.1806  0.6770
 5814TIP3   OH239076   6.349   2.592   0.078  0.0889  0.1602 -0.3615
 5814TIP3    H139077   6.385   2.504   0.084 -0.3532  0.0426  0.9337
 5814TIP3    H239078   6.395   2.642   0.145 -0.0425  0.7830 -0.7208
 5815TIP3   OH239079   1.628   4.314   1.539 -0.1723  0.1970  0.0076
 5815TIP3    H139080   1.634   4.255   1.615 -1.5689  1.1326  0.8891
 5815TIP3    H239081   1.535   4.321   1.521  0.0044  1.5883 -0.5039
 5816TIP3   OH239082   3.058   3.760   8.734 -0.0985 -0.4495 -0.2017
 5816TIP3    H139083   3.052   3.714   8.817  0.0735  1.0506  0.6873
 5816TIP3    H239084   3.095   3.696   8.673  0.3175 -1.4103  1.0222
 5817TIP3   OH239085   1.907   1.234   8.589 -0.5945 -0.0622  0.4258
 5817TIP3    H139086   1.916   1.305   8.652  0.1128 -1.2058  1.6731
 5817TIP3    H239087   1.953   1.265   8.511  0.3023  0.5743  1.1824
 5818TIP3   OH239088   5.391   3.539   2.630  0.4665 -0.1708  0.2280
 5818TIP3    H139089   5.438   3.605   2.680 -0.1307  0.7841 -0.4497
 5818TIP3    H239090   5.348   3.485   2.696  0.4831  0.4675  0.7680
 5819TIP3   OH239091   0.319   0.236   2.115  0.0912  0.3892 -0.6265
 5819TIP3    H139092   0.244   0.229   2.056 -1.7771  0.1937  1.6351
 5819TIP3    H239093   0.334   0.147   2.146  0.5805  0.5905 -0.2667
 5820TIP3   OH239094   1.991   3.716   2.131 -0.1998  0.2232  0.0348
 5820TIP3    H139095   1.926   3.680   2.192  1.7106 -0.5225  1.7593
 5820TIP3    H239096   2.003   3.807   2.159  1.9745 -0.5869  2.1207
 5821TIP3   OH239097   0.565   1.747   0.278  0.1035 -0.5474 -0.7660
 5821TIP3    H139098   0.483   1.707   0.248 -0.3539 -0.9681  0.9194
 5821TIP3    H239099   0.601   1.683   0.341  1.7724 -0.4045 -1.5187
 5822TIP3   OH239100   5.665   4.958   8.356  0.2102 -0.1204  0.4272
 5822TIP3    H139101   5.624   5.013   8.422  0.0528 -0.4791  0.6328
 5822TIP3    H239102   5.688   4.877   8.402 -1.5404 -1.1172 -0.3503
 5823TIP3   OH239103   4.723   2.701   2.343  0.7284 -0.6562  0.1766
 5823TIP3    H139104   4.729   2.740   2.431 -0.5583 -0.9734  0.4213
 5823TIP3    H239105   4.738   2.774   2.283  1.6823 -0.4438  0.6405
 5824TIP3   OH239106   5.575   0.624   0.020  0.7673  0.2843  0.2279
 5824TIP3    H139107   5.657   0.593  -0.019  0.6294  1.6892 -1.3047
 5824TIP3    H239108   5.556   0.705  -0.027 -1.1208  0.3822  1.0845
 5825TIP3   OH239109   2.469   0.993   1.804 -0.1818  0.3012  0.1225
 5825TIP3    H139110   2.423   0.956   1.879  0.6851  0.3280  0.6893
 5825TIP3    H239111   2.515   0.919   1.765 -0.4100  0.3378 -0.2168
 5826TIP3   OH239112   3.458   6.112   8.881 -0.1817 -0.1922  1.2465
 5826TIP3    H139113   3.516   6.081   8.951 -1.1728 -1.2671  1.6295
 5826TIP3    H239114   3.427   6.197   8.911 -0.6601 -0.6769  2.1721
 5827TIP3   OH239115   4.806   1.269   1.957 -0.0315  0.1087  0.8080
 5827TIP3    H139116   4.881   1.261   1.899  0.9906  1.7595  1.7988
 5827TIP3    H239117   4.842   1.252   2.045 -0.4389  2.2866  1.4604
 5828TIP3   OH239118   1.967   2.728   8.484 -0.7385 -0.8631 -0.0568
 5828TIP3    H139119   1.972   2.657   8.547 -2.1269 -0.7437  0.2106
 5828TIP3    H239120   2.043   2.715   8.427 -0.0326 -1.5543  1.0113
 5829TIP3   OH239121   2.909   0.950   7.407 -0.2941 -0.1875 -0.5749
 5829TIP3    H139122   2.955   0.943   7.490 -0.2421  0.0219 -0.5855
 5829TIP3    H239123   2.818   0.931   7.427 -0.3215  0.0964 -0.4283
 5830TIP3   OH239124   0.750   1.541   0.744 -0.4061  0.1601  0.0312
 5830TIP3    H139125   0.747   1.523   0.838 -1.4154  0.7619  0.1323
 5830TIP3    H239126   0.795   1.625   0.737 -2.4745  1.3433  0.2080
 5831TIP3   OH239127   5.407   4.627   2.031  0.1387 -0.2669 -0.4198
 5831TIP3    H139128   5.316   4.609   2.054 -0.7220  2.3971 -1.3442
 5831TIP3    H239129   5.451   4.638   2.116 -1.0561  1.1176  0.0565
 5832TIP3   OH239130   2.210   5.199   1.126 -0.0623 -0.0580  0.2984
 5832TIP3    H139131   2.298   5.160   1.127  0.2537  0.6321  0.0863
 5832TIP3    H239132   2.201   5.234   1.038 -0.3568  0.3194  0.4801
 5833TIP3   OH239133   5.020   3.438   1.173  0.4560 -0.1478  0.1972
 5833TIP3    H139134   4.925   3.428   1.176  0.4808 -1.0190 -1.2211
 5833TIP3    H239135   5.033   3.530   1.149 -0.0556 -0.2338 -0.4508
 5834TIP3   OH239136   0.992   6.503   1.665 -0.1831  0.3268  0.4976
 5834TIP3    H139137   0.999   6.574   1.729 -0.3262  0.2196  0.6335
 5834TIP3    H239138   0.917   6.452   1.694  0.4294 -0.3698  0.8984
 5835TIP3   OH239139   0.043   4.430   8.190 -0.0402  0.2756  0.1935
 5835TIP3    H139140  -0.046   4.437   8.158  0.1671  1.4820 -0.1596
 5835TIP3    H239141   0.091   4.389   8.118  0.4660  3.1548 -1.2509
 5836TIP3   OH239142   3.159   4.906   1.000 -0.6233 -0.3814 -0.1095
 5836TIP3    H139143   3.104   4.929   0.925  2.4773  2.3282 -1.8062
 5836TIP3    H239144   3.150   4.980   1.060  1.5632  0.4428 -0.7292
 5837TIP3   OH239145   2.970   3.248   0.891  0.3144 -0.0862  0.5901
 5837TIP3    H139146   2.950   3.295   0.810  0.6142  2.3435  1.8280
 5837TIP3    H239147   2.920   3.167   0.884 -0.8965  0.7354 -1.3328
 5838TIP3   OH239148   6.498   5.355   6.985  0.4697  0.6423 -0.2129
 5838TIP3    H139149   6.562   5.292   6.952  0.8515  0.6183  0.5492
 5838TIP3    H239150   6.547   5.437   6.992  0.5008  0.5674  0.6101
 5839TIP3   OH239151   6.436   4.365   8.461 -0.2969 -0.3078 -0.7044
 5839TIP3    H139152   6.433   4.364   8.556  0.7911 -0.2469 -0.6571
 5839TIP3    H239153   6.348   4.392   8.434 -0.6442 -0.4370  0.2730
 5840TIP3   OH239154   0.246   6.268   2.237  0.4739 -0.8380  0.1569
 5840TIP3    H139155   0.172   6.227   2.281  0.7259 -1.2624  0.1913
 5840TIP3    H239156   0.245   6.359   2.268 -1.0175 -0.3821 -1.0990
 5841TIP3   OH239157   2.168   0.836   7.229  0.4814 -0.4258  0.2554
 5841TIP3    H139158   2.083   0.870   7.260  0.1443 -0.8595 -0.1829
 5841TIP3    H239159   2.183   0.882   7.146  0.2844 -0.9398 -0.0679
 5842TIP3   OH239160   2.273   5.081   2.310 -0.0008 -0.3551 -0.6243
 5842TIP3    H139161   2.188   5.057   2.272  0.0240 -0.3095 -0.7069
 5842TIP3    H239162   2.305   4.999   2.348  0.2835 -0.5573 -1.2884
 5843TIP3   OH239163   1.052   6.458   0.544 -0.2567  0.1070  0.0738
 5843TIP3    H139164   1.102   6.381   0.573 -0.2408  0.8082  2.0154
 5843TIP3    H239165   0.974   6.458   0.599 -1.0087  0.6778 -0.9431
 5844TIP3   OH239166   6.019   3.428   7.946  0.1856 -0.1068 -0.5813
 5844TIP3    H139167   5.938   3.411   7.899  0.3411  1.0838 -1.3393
 5844TIP3    H239168   5.999   3.410   8.037 -1.8268  2.8462 -0.3145
 5845TIP3   OH239169   1.056   3.122   8.540  0.5879 -0.4384  0.1494
 5845TIP3    H139170   1.127   3.186   8.548  0.4523 -0.5462  2.8015
 5845TIP3    H239171   1.100   3.042   8.510  1.3190 -0.0946  0.2812
 5846TIP3   OH239172   6.694   1.121   1.100  0.0993  0.2426 -0.3767
 5846TIP3    H139173   6.683   1.140   1.193  1.2537  0.4098 -0.2607
 5846TIP3    H239174   6.610   1.083   1.073 -0.3874  0.5761  0.6302
 5847TIP3   OH239175   1.471   5.411   0.399  0.2126  0.3541  0.3045
 5847TIP3    H139176   1.454   5.325   0.361  0.5822  0.4686 -0.1282
 5847TIP3    H239177   1.538   5.449   0.343 -0.6272  1.3060 -0.0710
 5848TIP3   OH239178   5.212   6.456   6.911  0.3478  0.3555  0.0531
 5848TIP3    H139179   5.275   6.460   6.983  0.8452  0.9665 -0.4042
 5848TIP3    H239180   5.128   6.478   6.952  0.7689  1.5757  0.2951
 5849TIP3   OH239181   5.351   0.151   1.564 -0.2972  0.2021 -0.0129
 5849TIP3    H139182   5.419   0.091   1.535 -0.4699 -1.2577  2.3610
 5849TIP3    H239183   5.365   0.230   1.512  1.0855 -1.2286 -1.9380
 5850TIP3   OH239184   2.057   3.512   0.237 -0.2025  0.4066  0.2750
 5850TIP3    H139185   2.099   3.514   0.323 -3.9440  1.7577  2.2939
 5850TIP3    H239186   2.087   3.592   0.194  1.0090  0.1805  0.6543
 5851TIP3   OH239187   1.112   2.314   2.274  0.2073  0.3618 -0.2030
 5851TIP3    H139188   1.162   2.372   2.332  0.5082  0.8356 -0.9101
 5851TIP3    H239189   1.125   2.227   2.309  0.1607  0.6697  0.5981
 5852TIP3   OH239190   2.234   3.955   8.488 -0.0098  0.3400  0.0614
 5852TIP3    H139191   2.234   3.924   8.578  0.1272 -1.1277 -0.4200
 5852TIP3    H239192   2.142   3.948   8.460  0.0661  0.1059 -0.1329
 5853TIP3   OH239193   2.581   1.514   1.637 -0.2570  0.5734 -0.5134
 5853TIP3    H139194   2.592   1.563   1.556 -1.2871 -0.2977 -1.2178
 5853TIP3    H239195   2.650   1.447   1.634  1.1221  1.9065  0.4304
 5854TIP3   OH239196   1.866   5.862   0.560 -0.2484 -0.3017  0.1804
 5854TIP3    H139197   1.774   5.874   0.539 -0.0915 -0.3085 -0.5108
 5854TIP3    H239198   1.897   5.948   0.587 -0.7484 -0.5377  1.6149
 5855TIP3   OH239199   5.194   1.102   8.607 -0.4416 -0.2204 -0.1851
 5855TIP3    H139200   5.153   1.169   8.661 -2.5547  0.6942 -2.7294
 5855TIP3    H239201   5.286   1.129   8.600 -0.6429  0.8588  0.9896
 5856TIP3   OH239202   5.248   2.862   1.376  0.0045  0.1591  0.4045
 5856TIP3    H139203   5.176   2.876   1.437 -1.2471 -1.3582 -0.6692
 5856TIP3    H239204   5.232   2.776   1.338  1.7817  0.2540 -0.6959
 5857TIP3   OH239205   3.078   6.117   0.964  0.0254 -0.2847  0.2764
 5857TIP3    H139206   3.157   6.100   1.015 -0.9967 -1.2440  1.6429
 5857TIP3    H239207   3.055   6.031   0.927 -1.1501 -0.3600  1.1144
 5858TIP3   OH239208   6.184   6.239   1.897 -0.2479 -0.0014  0.5529
 5858TIP3    H139209   6.223   6.164   1.851 -0.3238  0.0347  0.4306
 5858TIP3    H239210   6.090   6.232   1.879 -0.0198  1.6898 -1.8073
 5859TIP3   OH239211   1.774   1.407   2.786 -0.4895  0.3883  0.5129
 5859TIP3    H139212   1.810   1.412   2.874  2.5712 -2.9578 -0.3406
 5859TIP3    H239213   1.812   1.481   2.739  1.7946 -0.5184  0.8419
 5860TIP3   OH239214   1.594   4.027   8.567 -0.1530  0.4417  0.0280
 5860TIP3    H139215   1.517   4.076   8.595 -0.5318 -0.3932  0.4982
 5860TIP3    H239216   1.665   4.091   8.568 -0.5071  0.8440  1.2525
 5861TIP3   OH239217   3.898   1.918   0.581 -0.0504 -0.6260  0.5752
 5861TIP3    H139218   3.940   1.989   0.533 -0.2981 -1.5872 -1.1808
 5861TIP3    H239219   3.811   1.951   0.604 -1.0668 -1.0357 -2.2477
 5862TIP3   OH239220   5.447   4.715   2.311  0.0886 -0.1136  0.4537
 5862TIP3    H139221   5.507   4.781   2.347  1.2852 -1.8681  1.8478
 5862TIP3    H239222   5.455   4.641   2.370 -0.3660 -1.9385 -1.6441
 5863TIP3   OH239223   1.412   2.644   8.720 -0.3531  0.4435  0.6568
 5863TIP3    H139224   1.457   2.702   8.781 -1.1104  1.1811  0.5270
 5863TIP3    H239225   1.332   2.690   8.698  0.8806  1.2541 -2.6578
 5864TIP3   OH239226   3.765   3.247   2.087  0.2058 -0.9707  0.4046
 5864TIP3    H139227   3.834   3.185   2.111 -0.3160 -0.8508  2.3924
 5864TIP3    H239228   3.684   3.208   2.121 -0.3366  0.0930  0.3973
 5865TIP3   OH239229   3.931   1.561   7.240 -0.0324 -0.6713  0.1736
 5865TIP3    H139230   4.025   1.579   7.250 -0.4205  0.3130  2.9358
 5865TIP3    H239231   3.890   1.648   7.236 -0.8949 -1.0908 -0.3901
 5866TIP3   OH239232   0.163   3.934   1.923  0.6538 -0.1727  0.0347
 5866TIP3    H139233   0.206   3.849   1.915 -0.8129 -0.9267 -0.1981
 5866TIP3    H239234   0.150   3.962   1.833  2.0754  0.8325  0.1093
 5867TIP3   OH239235   1.361   6.643   1.559  0.4812 -0.3055 -0.5915
 5867TIP3    H139236   1.366   6.598   1.644 -0.7537  1.0257  0.2275
 5867TIP3    H239237   1.348   6.573   1.496 -0.6412 -1.1756  0.5586
 5868TIP3   OH239238   3.090   6.739   7.017 -0.6257  0.2199  0.2991
 5868TIP3    H139239   3.102   6.678   6.945 -1.5579 -0.8886  1.0522
 5868TIP3    H239240   3.003   6.719   7.052 -1.7209  3.1042 -0.4638
 5869TIP3   OH239241   6.641   4.273   1.374  0.4641 -0.1229  0.5265
 5869TIP3    H139242   6.570   4.211   1.356  0.7068 -0.6945  1.4751
 5869TIP3    H239243   6.716   4.238   1.326  0.9123 -1.2433  1.9511
 5870TIP3   OH239244   1.916   6.732   2.824 -0.6205 -0.5490  0.6074
 5870TIP3    H139245   1.956   6.814   2.794 -0.1230 -1.4153 -1.2378
 5870TIP3    H239246   1.989   6.685   2.864 -0.9871  0.0307  2.0079
 5871TIP3   OH239247   5.661   4.298   7.454 -0.1510 -0.1896  0.1349
 5871TIP3    H139248   5.576   4.340   7.442 -0.8106 -2.1269 -3.3676
 5871TIP3    H239249   5.723   4.371   7.451 -1.1765  1.0418 -6.3239
 5872TIP3   OH239250   6.724   3.514   8.337 -0.8017 -0.6774  0.1262
 5872TIP3    H139251   6.798   3.500   8.278 -1.8428  0.6166 -1.6095
 5872TIP3    H239252   6.731   3.605   8.364 -1.1214 -0.8750  0.9123
 5873TIP3   OH239253   5.434   2.176   1.635  0.1674  0.4180  0.2390
 5873TIP3    H139254   5.379   2.254   1.628 -0.4249 -0.0660 -0.9510
 5873TIP3    H239255   5.522   2.209   1.648 -0.0573  1.3030 -0.3778
 5874TIP3   OH239256   1.498   5.005   2.573  0.0640  0.1817  0.6463
 5874TIP3    H139257   1.562   4.972   2.636  0.2552  1.4013  1.1113
 5874TIP3    H239258   1.491   5.099   2.592  0.9173  0.8218 -1.8299
 5875TIP3   OH239259   4.927   3.539   8.237  0.5086 -0.7841 -0.7714
 5875TIP3    H139260   4.925   3.448   8.266  2.1128 -0.3722  0.7803
 5875TIP3    H239261   4.850   3.579   8.278  0.7265 -1.0576 -0.0900
 5876TIP3   OH239262   2.874   0.489   7.564 -0.1265  0.8566 -0.3647
 5876TIP3    H139263   2.793   0.449   7.593  0.7295  0.4607  1.7048
 5876TIP3    H239264   2.864   0.500   7.470 -2.1652 -0.0627 -0.3009
 5877TIP3   OH239265   6.401   5.541   8.065  0.4274 -0.4024  0.6321
 5877TIP3    H139266   6.357   5.625   8.077 -0.2293 -0.6253 -0.2033
 5877TIP3    H239267   6.494   5.562   8.073  0.4129  0.7922 -1.5961
 5878TIP3   OH239268   3.669   2.300   1.915 -0.7785 -0.2614 -0.0725
 5878TIP3    H139269   3.578   2.314   1.941 -0.3712 -0.3762  1.5065
 5878TIP3    H239270   3.667   2.222   1.861 -1.5794 -0.4591  0.2340
 5879TIP3   OH239271   3.390   2.164   0.627 -0.4691  0.0422  0.1694
 5879TIP3    H139272   3.372   2.258   0.638 -0.0492  0.1410  0.0528
 5879TIP3    H239273   3.396   2.130   0.716 -1.0272  0.0443  0.2094
 5880TIP3   OH239274   6.264   5.795   1.994 -1.0245  0.1330 -0.1472
 5880TIP3    H139275   6.308   5.719   1.956 -0.5214 -0.2651  1.1595
 5880TIP3    H239276   6.317   5.870   1.968  0.7672 -0.3758  1.7455
 5881TIP3   OH239277   2.716   3.237   0.049 -0.0915  0.1473 -0.5649
 5881TIP3    H139278   2.660   3.190   0.111  0.7784  0.2594  0.3318
 5881TIP3    H239279   2.720   3.326   0.083  0.5993  0.1464 -0.6350
 5882TIP3   OH239280   4.995   6.444   1.120 -0.2519 -0.1825  0.4713
 5882TIP3    H139281   5.053   6.368   1.116 -1.1178 -0.8177 -0.2157
 5882TIP3    H239282   5.045   6.514   1.079  0.2772 -0.5591  0.4568
 5883TIP3   OH239283   2.943   5.172   7.876 -0.1088  0.0641  0.1565
 5883TIP3    H139284   2.926   5.085   7.911 -0.2101 -0.3658 -0.9427
 5883TIP3    H239285   2.998   5.157   7.799 -0.4584  0.9314 -0.2768
 5884TIP3   OH239286   4.305   3.892   0.600 -0.2838  0.0060 -0.1599
 5884TIP3    H139287   4.226   3.838   0.604 -0.6134  0.5128  0.3520
 5884TIP3    H239288   4.274   3.981   0.618  0.1385  0.4968 -1.7020
 5885TIP3   OH239289   3.323   4.193   1.647 -0.2122  0.0715 -0.4262
 5885TIP3    H139290   3.373   4.205   1.728 -1.1387  1.5162 -0.0365
 5885TIP3    H239291   3.365   4.119   1.604  1.8646  0.8349  0.1821
 5886TIP3   OH239292   5.121   4.340   1.185 -0.2601 -0.0191 -0.4546
 5886TIP3    H139293   5.132   4.381   1.271  0.9745  1.2786 -1.1890
 5886TIP3    H239294   5.108   4.414   1.125  1.3579 -0.6946 -1.7311
 5887TIP3   OH239295   0.406   5.978   8.226  0.1013 -0.0870 -0.0702
 5887TIP3    H139296   0.436   5.946   8.311 -0.1861 -0.2135 -0.0168
 5887TIP3    H239297   0.487   5.992   8.176  0.2113 -2.5618 -0.7237
 5888TIP3   OH239298   1.154   2.642   1.916 -0.0690  0.0166 -0.1866
 5888TIP3    H139299   1.077   2.633   1.974  0.3386  2.3221  0.8210
 5888TIP3    H239300   1.227   2.612   1.970 -0.0772 -1.0160 -0.7245
 5889TIP3   OH239301   3.420   2.256   7.129 -0.3225 -0.1330  0.2993
 5889TIP3    H139302   3.396   2.347   7.115 -0.4902 -0.2435 -0.1458
 5889TIP3    H239303   3.361   2.206   7.072  0.7121 -0.4269 -0.5391
 5890TIP3   OH239304   4.705   0.535   7.961  0.1955 -0.1448  0.0118
 5890TIP3    H139305   4.753   0.580   8.030  0.2311  0.7585 -0.5767
 5890TIP3    H239306   4.678   0.452   8.000 -1.2021  0.9949  1.6560
 5891TIP3   OH239307   2.114   5.678   7.489  0.0697  0.1157  0.1016
 5891TIP3    H139308   2.055   5.611   7.452  1.7337 -1.4218  0.1189
 5891TIP3    H239309   2.105   5.753   7.429  0.2546 -1.1457 -1.5992
 5892TIP3   OH239310   4.513   4.349   8.217  0.5570  0.4292 -0.5510
 5892TIP3    H139311   4.476   4.328   8.302  0.0654 -0.5843 -0.9953
 5892TIP3    H239312   4.579   4.282   8.202  0.4412  0.4297 -1.0931
 5893TIP3   OH239313   0.675   0.026   1.621 -0.0484 -0.0378 -0.4223
 5893TIP3    H139314   0.707   0.115   1.608 -0.0587 -0.2634 -2.1684
 5893TIP3    H239315   0.717  -0.003   1.702  1.0894  1.0409 -0.5995
 5894TIP3   OH239316   5.681   1.681   0.172 -0.7842 -1.2630  0.4098
 5894TIP3    H139317   5.653   1.765   0.208  0.0525 -0.2811 -1.1311
 5894TIP3    H239318   5.759   1.658   0.222  0.6298  0.3081 -0.9347
 5895TIP3   OH239319   0.132   5.651   8.778  0.7116 -0.3649  0.2982
 5895TIP3    H139320   0.066   5.692   8.722 -0.3200 -1.5074  0.6344
 5895TIP3    H239321   0.118   5.690   8.864  0.2214 -0.8636  0.4508
 5896TIP3   OH239322   4.054   1.252   0.045  0.7119 -0.5898 -0.1240
 5896TIP3    H139323   4.121   1.187   0.068  1.4246  0.4104  0.6846
 5896TIP3    H239324   3.980   1.231   0.102  0.7441 -0.9917 -0.2220
 5897TIP3   OH239325   0.631   6.801   7.063 -0.3448  0.2140  0.2205
 5897TIP3    H139326   0.565   6.798   6.994 -0.1068 -0.9359  0.0119
 5897TIP3    H239327   0.650   6.894   7.075 -1.2156  0.4895 -0.4677
 5898TIP3   OH239328   0.343   3.835   8.908  0.1616 -0.1078 -0.2182
 5898TIP3    H139329   0.282   3.801   8.973  0.3957 -0.0932  0.0158
 5898TIP3    H239330   0.353   3.927   8.932 -1.6545  0.5478 -1.7765
 5899TIP3   OH239331   6.161   0.806   2.283  0.5932 -0.0410 -0.5105
 5899TIP3    H139332   6.221   0.791   2.210  0.1690 -2.2014 -0.4920
 5899TIP3    H239333   6.084   0.845   2.242  0.2015 -1.5787 -1.3523
 5900TIP3   OH239334   5.935   4.254   8.757 -0.6958  0.3974 -0.0448
 5900TIP3    H139335   5.866   4.266   8.692  0.0482  0.5238 -0.8446
 5900TIP3    H239336   5.922   4.325   8.820 -0.1952  1.5549 -1.2033
 5901TIP3   OH239337   0.719   5.980   1.060  0.3254  0.0145  0.2846
 5901TIP3    H139338   0.800   5.961   1.106 -0.5616 -0.6378  1.6251
 5901TIP3    H239339   0.649   5.956   1.121 -0.8912  1.1852 -0.5693
 5902TIP3   OH239340   4.085   2.447   0.009  0.0580  0.1036 -0.2518
 5902TIP3    H139341   4.065   2.370   0.062  0.3656 -1.0326 -1.7048
 5902TIP3    H239342   4.121   2.511   0.070  1.2016 -1.4653  0.7721
 5903TIP3   OH239343   3.036   2.618   8.698 -0.6093  0.6096  0.4081
 5903TIP3    H139344   3.007   2.566   8.624 -0.0016 -0.1511  0.6883
 5903TIP3    H239345   3.004   2.706   8.680  2.3021  1.2966 -2.4915
 5904TIP3   OH239346   4.201   6.451   2.755 -0.6949  0.2447  0.2134
 5904TIP3    H139347   4.182   6.385   2.823 -1.6587  0.3988  0.1016
 5904TIP3    H239348   4.284   6.422   2.717 -1.3057 -1.1609 -0.1216
 5905TIP3   OH239349   6.564   2.397   8.803 -0.0474 -0.2791 -0.4953
 5905TIP3    H139350   6.644   2.360   8.766  0.8102 -1.1511  2.0290
 5905TIP3    H239351   6.571   2.382   8.897 -3.0301 -0.0591 -0.1171
 5906TIP3   OH239352   4.085   4.531   1.805  0.3609  0.5796  0.4191
 5906TIP3    H139353   4.050   4.606   1.854  1.6013  0.9943  0.6914
 5906TIP3    H239354   4.007   4.489   1.769 -0.3369  2.4747 -0.4424
 5907TIP3   OH239355   6.364   0.812   7.067  0.8171  0.0506 -0.1027
 5907TIP3    H139356   6.415   0.887   7.037 -1.1047  1.4929  0.0471
 5907TIP3    H239357   6.392   0.799   7.158  0.6619  1.0547  0.0987
 5908TIP3   OH239358   4.683   2.610   0.679  0.6175 -0.2875 -0.4382
 5908TIP3    H139359   4.735   2.626   0.601  0.7961  0.1438 -0.2337
 5908TIP3    H239360   4.669   2.697   0.717 -2.7251  0.0265 -2.0189
 5909TIP3   OH239361   3.600   6.489   1.747  0.4590  0.4172 -0.2476
 5909TIP3    H139362   3.638   6.401   1.738  2.0702  1.1822 -1.5768
 5909TIP3    H239363   3.559   6.506   1.663 -0.3043  0.7409  0.1887
 5910TIP3   OH239364   3.701   2.718   8.311  0.5274 -0.6898 -0.4575
 5910TIP3    H139365   3.780   2.767   8.334  0.0608 -1.4119  3.2112
 5910TIP3    H239366   3.642   2.785   8.275  2.3670  0.0035 -2.4920
 5911TIP3   OH239367   6.156   6.323   1.212 -0.3604  0.2343 -0.2085
 5911TIP3    H139368   6.097   6.249   1.201 -2.4666  1.9238 -1.1709
 5911TIP3    H239369   6.139   6.355   1.300 -0.3205  0.2579 -0.2094
 5912TIP3   OH239370   1.880   2.755   2.643  0.2304 -0.0752  0.3430
 5912TIP3    H139371   1.820   2.681   2.644  1.3408 -1.0349 -0.4241
 5912TIP3    H239372   1.965   2.717   2.667  0.5444  1.2508  1.5052
 5913TIP3   OH239373   4.357   2.834   0.030  0.5066  0.2511  0.2103
 5913TIP3    H139374   4.426   2.884  -0.013  0.4131 -0.4989 -0.8706
 5913TIP3    H239375   4.382   2.832   0.122  1.5409  0.6172 -0.0481
 5914TIP3   OH239376   4.430   3.528   2.908 -0.6744 -0.0320  0.4524
 5914TIP3    H139377   4.427   3.510   3.002  0.5416 -0.2799  0.4674
 5914TIP3    H239378   4.520   3.507   2.883 -0.4247  1.8426 -0.3964
 5915TIP3   OH239379   0.439   1.541   8.626 -0.1074 -0.2849  0.0829
 5915TIP3    H139380   0.417   1.523   8.535 -0.0123 -0.1263  0.0287
 5915TIP3    H239381   0.533   1.524   8.633 -0.2752 -1.1353  0.3598
 5916TIP3   OH239382   6.230   6.646   0.722 -0.7342 -0.3323 -0.8247
 5916TIP3    H139383   6.191   6.559   0.730 -0.0308 -0.5298  0.9502
 5916TIP3    H239384   6.325   6.630   0.720 -0.5962  0.3814 -0.4180
 5917TIP3   OH239385   3.495   6.175   1.461  0.3070  0.5445  0.1924
 5917TIP3    H139386   3.450   6.092   1.445  1.9236 -0.0642 -1.4955
 5917TIP3    H239387   3.440   6.241   1.419  0.8174 -0.1659 -1.6935
 5918TIP3   OH239388   1.512   2.853   2.716  0.0711 -0.0100 -0.4256
 5918TIP3    H139389   1.421   2.830   2.733  0.0127  0.2040 -0.4371
 5918TIP3    H239390   1.509   2.946   2.694  0.1776 -0.2223 -1.3525
 5919TIP3   OH239391   2.046   5.042   7.493  0.0695  0.2870  0.6960
 5919TIP3    H139392   2.089   5.074   7.573 -0.4363  0.6366  0.8323
 5919TIP3    H239393   2.004   5.120   7.457  0.3935  0.1523  0.0221
 5920TIP3   OH239394   2.593   6.016   7.320  0.3424  0.0017  0.6863
 5920TIP3    H139395   2.501   6.021   7.345  0.7910 -0.0090  2.4856
 5920TIP3    H239396   2.617   5.925   7.337  1.4252  0.6857  3.2275
 5921TIP3   OH239397   2.645   5.015   1.993 -0.0667 -0.6161 -0.1433
 5921TIP3    H139398   2.588   4.954   1.946 -0.0720 -0.3688 -0.4582
 5921TIP3    H239399   2.624   5.001   2.086  1.6344 -2.8339 -0.0084
 5922TIP3   OH239400   3.657   0.352   1.065 -0.3629 -0.2047  0.0657
 5922TIP3    H139401   3.683   0.444   1.060 -1.1365  0.0065 -0.2166
 5922TIP3    H239402   3.634   0.329   0.975 -0.3804 -0.6134  0.1737
 5923TIP3   OH239403   4.461   3.934   0.301 -0.1850 -0.1820  0.1722
 5923TIP3    H139404   4.468   3.847   0.340  2.7435 -1.0832 -2.0297
 5923TIP3    H239405   4.385   3.928   0.242 -0.6359 -0.8888  0.8082
 5924TIP3   OH239406   1.927   1.452   1.200  0.1333  0.4972 -0.4958
 5924TIP3    H139407   1.890   1.413   1.121 -0.7921  0.8623 -0.2565
 5924TIP3    H239408   1.889   1.540   1.204  1.0884  0.9178 -0.2723
 5925TIP3   OH239409   0.018   6.750   2.257 -0.1986  0.0503  0.0047
 5925TIP3    H139410  -0.061   6.760   2.309  0.3563 -1.8218  1.2901
 5925TIP3    H239411  -0.013   6.727   2.169 -1.0914 -0.2972  0.4026
 5926TIP3   OH239412   3.671   1.156   7.093 -0.0702 -0.0345 -0.1929
 5926TIP3    H139413   3.583   1.133   7.125 -1.3938  1.0275 -2.7400
 5926TIP3    H239414   3.707   1.072   7.063 -0.1257 -0.5090  1.0091
 5927TIP3   OH239415   3.982   6.294   8.134 -0.2368 -0.1236  0.1195
 5927TIP3    H139416   4.021   6.358   8.193  1.5020 -2.4000  1.6065
 5927TIP3    H239417   4.055   6.237   8.109 -2.0610 -2.9098  0.7473
 5928TIP3   OH239418   2.087   2.967   0.914 -0.3729 -0.3459  0.0418
 5928TIP3    H139419   2.138   2.975   0.834  1.7107 -1.4917  1.1902
 5928TIP3    H239420   2.095   2.876   0.940  1.5718  0.5332  3.0962
 5929TIP3   OH239421   5.838   2.367   8.853  0.2585  0.6774 -0.8934
 5929TIP3    H139422   5.817   2.447   8.804  0.4787  1.9330  0.9512
 5929TIP3    H239423   5.890   2.398   8.927  2.7157 -1.5201 -1.5600
 5930TIP3   OH239424   3.469   5.418   2.389 -0.0539 -0.3370 -0.2978
 5930TIP3    H139425   3.422   5.501   2.377 -1.0367 -1.0808 -2.0154
 5930TIP3    H239426   3.408   5.362   2.437 -0.4113 -0.8541 -1.3243
 5931TIP3   OH239427   3.325   0.674   8.112 -0.0893  0.6511 -0.0973
 5931TIP3    H139428   3.404   0.621   8.117 -0.4935  0.0485  0.0289
 5931TIP3    H239429   3.340   0.744   8.176  0.2955  0.4736  0.0121
 5932TIP3   OH239430   5.067   5.707   6.603 -0.4260 -0.2442  0.0210
 5932TIP3    H139431   5.113   5.785   6.573 -1.0978 -0.2656 -1.1102
 5932TIP3    H239432   5.011   5.682   6.530 -1.1191 -1.0936  0.8138
 5933TIP3   OH239433   1.340   2.899   0.134 -0.1043  0.0485 -0.0379
 5933TIP3    H139434   1.401   2.956   0.180  0.3880 -0.2098 -0.3602
 5933TIP3    H239435   1.270   2.883   0.197  0.3429  0.0559  0.4681
 5934TIP3   OH239436   0.162   1.322   1.588  0.1159  0.3465 -0.3167
 5934TIP3    H139437   0.194   1.399   1.541  2.6984  0.3410  1.2266
 5934TIP3    H239438   0.094   1.356   1.645 -0.0384  1.1386 -0.9419
 5935TIP3   OH239439   6.056   3.423   1.477  0.6911 -0.0930  0.1229
 5935TIP3    H139440   6.044   3.410   1.383  0.8972 -0.7666  0.1794
 5935TIP3    H239441   5.967   3.434   1.511  0.5944 -0.1237 -0.1180
 5936TIP3   OH239442   0.454   5.561   7.451 -0.2068 -0.1496 -0.7429
 5936TIP3    H139443   0.398   5.583   7.377  0.7338  1.4816 -1.0378
 5936TIP3    H239444   0.510   5.491   7.419 -1.2838 -1.0112 -0.8097
 5937TIP3   OH239445   6.509   1.957   0.877 -0.0059 -0.5187 -0.1527
 5937TIP3    H139446   6.490   1.894   0.807 -0.3805 -2.6507  1.7798
 5937TIP3    H239447   6.604   1.954   0.887 -0.1136 -1.6156  0.6499
 5938TIP3   OH239448   3.557   5.841   7.265 -0.0735  0.5860 -0.0310
 5938TIP3    H139449   3.589   5.753   7.245 -1.5337  0.2980 -1.1831
 5938TIP3    H239450   3.633   5.898   7.249 -0.0805 -0.0582 -2.8457
 5939TIP3   OH239451   3.074   4.533   6.736 -0.0882  0.2430 -0.1448
 5939TIP3    H139452   3.137   4.556   6.805 -1.0371  1.0217  0.5032
 5939TIP3    H239453   2.998   4.589   6.755 -1.7458 -2.0191  0.2634
 5940TIP3   OH239454   1.957   2.991   1.152  0.1059 -0.2380 -0.1792
 5940TIP3    H139455   1.881   2.934   1.145  0.7377 -1.1187  0.0228
 5940TIP3    H239456   2.009   2.972   1.074  0.6070 -0.3661  0.1818
 5941TIP3   OH239457   1.649   4.085   1.770 -0.2936  0.0459  0.2867
 5941TIP3    H139458   1.721   4.073   1.832  0.4596 -1.4413 -0.8112
 5941TIP3    H239459   1.589   4.145   1.814  1.3834  0.9647  1.4228
 5942TIP3   OH239460   2.280   3.381   8.841 -0.4197  0.0825 -0.4937
 5942TIP3    H139461   2.303   3.456   8.896 -2.1497  0.2465  0.1025
 5942TIP3    H239462   2.362   3.353   8.803  0.9474 -0.1677  2.3585
 5943TIP3   OH239463   2.345   1.485   8.198  0.8867 -0.2509  0.4501
 5943TIP3    H139464   2.339   1.578   8.177  1.4992 -0.5019 -0.9464
 5943TIP3    H239465   2.254   1.455   8.199  0.4775  0.8129  3.3376
 5944TIP3   OH239466   4.016   4.812   1.236 -0.0378 -0.2512  0.4867
 5944TIP3    H139467   4.086   4.839   1.296  1.0337 -0.2329 -0.7220
 5944TIP3    H239468   4.021   4.875   1.163 -0.3617 -1.1056 -0.2981
 5945TIP3   OH239469   5.812   4.314   1.659  0.1847  0.3360 -0.1258
 5945TIP3    H139470   5.856   4.237   1.694 -1.5307  0.1248  1.7827
 5945TIP3    H239471   5.820   4.306   1.564  1.2262 -1.4538  0.0817
 5946TIP3   OH239472   2.989   2.299   0.772  0.2268 -0.0726  0.5629
 5946TIP3    H139473   3.045   2.345   0.835  0.8545  1.3340 -0.9419
 5946TIP3    H239474   2.969   2.365   0.705  0.7530 -1.8305 -1.4322
 5947TIP3   OH239475   3.159   2.872   8.319 -0.0667 -0.2494  0.3077
 5947TIP3    H139476   3.131   2.853   8.409 -1.8367  1.4413  0.1644
 5947TIP3    H239477   3.103   2.819   8.264  1.0086 -1.2727  0.1624
 5948TIP3   OH239478   2.365   1.782   7.086  0.0432 -0.0721 -0.3157
 5948TIP3    H139479   2.397   1.692   7.084  2.2862  0.5807 -4.3588
 5948TIP3    H239480   2.404   1.819   7.165  2.0827 -1.7493 -0.4276
 5949TIP3   OH239481   2.063   5.698   7.764  0.0711  0.2190  0.0161
 5949TIP3    H139482   2.092   5.611   7.793  0.9355 -0.0033 -1.4190
 5949TIP3    H239483   2.096   5.705   7.674 -2.5265  0.8266 -0.9766
 5950TIP3   OH239484   0.905   4.757   8.870 -0.2886  0.3196  0.0863
 5950TIP3    H139485   0.877   4.844   8.896 -0.2808  0.2784  0.2304
 5950TIP3    H239486   0.959   4.726   8.942 -0.3838  0.1501  0.0848
 5951TIP3   OH239487   6.147   0.684   0.617 -0.3506  0.0580 -0.0303
 5951TIP3    H139488   6.115   0.681   0.527  0.2584 -0.0518 -0.2398
 5951TIP3    H239489   6.198   0.765   0.622  0.3026 -0.3485 -0.0131
 5952TIP3   OH239490   6.393   5.607   6.530 -0.0702 -0.3052 -0.1202
 5952TIP3    H139491   6.487   5.598   6.543 -0.0173 -0.9977 -0.9202
 5952TIP3    H239492   6.371   5.689   6.576  0.9398 -0.0396 -0.0713
 5953TIP3   OH239493   5.779   0.225   8.347  0.0329  0.1092 -0.2870
 5953TIP3    H139494   5.713   0.281   8.389  1.0536  0.8308  0.4139
 5953TIP3    H239495   5.728   0.160   8.299 -1.2647 -1.2910  2.7287
 5954TIP3   OH239496   6.563   6.225   1.734 -0.4325 -0.0366 -0.2797
 5954TIP3    H139497   6.587   6.295   1.793  0.0565 -0.3145 -0.1423
 5954TIP3    H239498   6.576   6.261   1.646  0.2241 -0.0918 -0.2074
 5955TIP3   OH239499   2.884   2.509   0.069  0.5179 -0.8075  0.3727
 5955TIP3    H139500   2.827   2.454   0.123 -0.5529 -0.3780 -0.2830
 5955TIP3    H239501   2.831   2.529  -0.008  1.5577 -0.3608 -0.2411
 5956TIP3   OH239502   6.661   3.039   7.862  0.2061  0.1607  0.6446
 5956TIP3    H139503   6.676   3.125   7.902  1.7930  0.3608 -0.2890
 5956TIP3    H239504   6.599   3.055   7.791 -0.1861  0.3576  1.0247
 5957TIP3   OH239505   0.467   1.438   8.348 -0.2339  0.0573  0.0874
 5957TIP3    H139506   0.383   1.393   8.337  0.2108 -0.6278 -0.5126
 5957TIP3    H239507   0.527   1.395   8.287  0.2694  1.2949 -0.3383
 5958TIP3   OH239508   3.368   2.923   7.565  1.0254  0.1934 -0.2862
 5958TIP3    H139509   3.428   2.993   7.589  1.9356 -1.1023  1.4007
 5958TIP3    H239510   3.281   2.965   7.566  1.5819  1.3925  0.2428
 5959TIP3   OH239511   3.728   0.438   7.762 -0.1810 -0.0907 -0.2388
 5959TIP3    H139512   3.678   0.376   7.709 -0.6825  0.1026 -0.0021
 5959TIP3    H239513   3.747   0.390   7.843 -1.1206  0.2566  0.2103
 5960TIP3   OH239514   1.871   3.506   1.317  0.1239 -0.0244 -0.6279
 5960TIP3    H139515   1.822   3.568   1.263  0.3433  0.1279 -0.6526
 5960TIP3    H239516   1.812   3.432   1.328  0.1037 -0.0835 -1.1314
 5961TIP3   OH239517   5.482   5.411   8.239 -0.1461 -0.4025 -0.2028
 5961TIP3    H139518   5.465   5.319   8.261  0.9759 -0.7244 -0.6181
 5961TIP3    H239519   5.413   5.434   8.177 -0.1861 -1.1020 -0.4282
 5962TIP3   OH239520   1.423   6.038   2.523 -0.1366  0.4168  0.6072
 5962TIP3    H139521   1.474   6.107   2.565  1.0637  1.1131 -1.8460
 5962TIP3    H239522   1.387   6.078   2.444 -0.0186 -1.5332 -0.5041
 5963TIP3   OH239523   3.455   2.670   7.660  0.3139  0.3330 -0.6943
 5963TIP3    H139524   3.430   2.753   7.620  0.2204 -0.3323 -2.0778
 5963TIP3    H239525   3.421   2.603   7.600  0.3832 -0.7072  0.3929
 5964TIP3   OH239526   2.479   0.532   8.543  0.7520  0.4450 -0.3548
 5964TIP3    H139527   2.448   0.501   8.628  1.8560 -1.2265 -0.5339
 5964TIP3    H239528   2.551   0.474   8.520  0.4060  0.7717 -2.5041
 5965TIP3   OH239529   6.668   0.827   1.858  0.2435  0.2115  0.0857
 5965TIP3    H139530   6.701   0.877   1.933  2.7809 -3.2894  1.5493
 5965TIP3    H239531   6.746   0.807   1.807 -0.7614 -1.6519 -0.7889
 5966TIP3   OH239532   6.184   0.689   1.145  0.6661 -0.0927  0.2070
 5966TIP3    H139533   6.259   0.712   1.199  1.3242  3.2457 -1.8358
 5966TIP3    H239534   6.129   0.767   1.145 -2.1601 -1.9338  0.4410
 5967TIP3   OH239535   0.844   0.138   1.402 -0.1493  0.0612 -0.4349
 5967TIP3    H139536   0.866   0.046   1.417 -0.0512  0.0778 -0.4767
 5967TIP3    H239537   0.755   0.136   1.367 -0.4372  0.0270  0.2745
 5968TIP3   OH239538   1.707   2.786   7.664  0.2448 -0.0677  0.3820
 5968TIP3    H139539   1.741   2.731   7.734  0.2422 -1.0937 -0.4039
 5968TIP3    H239540   1.686   2.869   7.707  0.9833 -0.4061  1.4355
 5969TIP3   OH239541   0.788   5.728   0.434 -0.3083 -0.2156 -0.4921
 5969TIP3    H139542   0.766   5.650   0.484  1.0838 -1.4604 -1.6986
 5969TIP3    H239543   0.783   5.700   0.342  1.8343  0.5842 -0.9266
 5970TIP3   OH239544   2.881   1.887   2.025 -0.0695 -0.3764  0.3942
 5970TIP3    H139545   2.919   1.854   1.943 -0.6906 -0.7841  0.2643
 5970TIP3    H239546   2.834   1.813   2.061  0.7480 -0.3918  1.4702
 5971TIP3   OH239547   3.179   3.988   0.624  0.8235 -0.0451 -0.0904
 5971TIP3    H139548   3.241   4.059   0.610  0.1343  0.2677 -1.7473
 5971TIP3    H239549   3.099   4.030   0.654  1.0461 -0.3418  0.9562
 5972TIP3   OH239550   3.870   0.103   7.914 -0.2509  0.2470 -0.0684
 5972TIP3    H139551   3.834   0.024   7.875 -0.6510  0.5908 -0.4033
 5972TIP3    H239552   3.965   0.095   7.902 -0.2569 -0.3732  0.2738
 5973TIP3   OH239553   0.772   5.323   2.042  0.0616  0.5136 -0.0147
 5973TIP3    H139554   0.833   5.309   1.969 -1.8043 -1.4531 -1.3014
 5973TIP3    H239555   0.826   5.311   2.120  1.0487 -3.3864 -1.0775
 5974TIP3   OH239556   4.249   6.539   0.344 -0.0943 -0.2987 -0.7055
 5974TIP3    H139557   4.184   6.538   0.413  1.9477 -2.1853  1.3622
 5974TIP3    H239558   4.216   6.476   0.279 -0.3420 -1.3193  0.3646
 5975TIP3   OH239559   2.939   4.878   1.913  0.1247  0.0122 -0.9255
 5975TIP3    H139560   2.850   4.879   1.878 -0.9750  0.1205  1.6789
 5975TIP3    H239561   2.951   4.788   1.944 -0.2772  0.7133  1.4400
 5976TIP3   OH239562   5.996   0.755   8.635 -0.0086 -0.1909  0.0889
 5976TIP3    H139563   5.960   0.689   8.577  0.3919 -0.2911 -0.0468
 5976TIP3    H239564   6.048   0.812   8.578 -3.7463  2.8717 -0.6680
 5977TIP3   OH239565   5.351   3.031   7.926  0.1139  0.2625 -0.2226
 5977TIP3    H139566   5.370   2.948   7.969  0.0926  0.5897  0.4357
 5977TIP3    H239567   5.326   3.007   7.837 -1.1670 -0.5523  0.3234
 5978TIP3   OH239568   4.774   3.867   0.479  1.1263 -0.0779  1.1913
 5978TIP3    H139569   4.816   3.801   0.534  0.1629 -1.6762  0.0883
 5978TIP3    H239570   4.680   3.851   0.489  0.8856  0.8110  0.5177
 5979TIP3   OH239571   1.313   0.790   7.328  0.2773  0.4174  0.1526
 5979TIP3    H139572   1.397   0.811   7.287 -0.3709  0.6775 -1.0889
 5979TIP3    H239573   1.269   0.732   7.266 -1.6314  2.5218 -0.6374
 5980TIP3   OH239574   0.350   4.559   1.575 -0.5709  0.2337 -0.5638
 5980TIP3    H139575   0.364   4.630   1.512  0.4353 -0.1652 -0.8205
 5980TIP3    H239576   0.439   4.535   1.603 -0.9854  0.2765  0.8721
 5981TIP3   OH239577   5.518   4.553   1.398  0.3310 -0.2683  0.2121
 5981TIP3    H139578   5.442   4.591   1.353 -0.0763  0.9740  1.8497
 5981TIP3    H239579   5.593   4.602   1.364  0.1604 -0.0825  0.0996
 5982TIP3   OH239580   5.409   0.281   2.317  0.6801  0.5530 -0.5322
 5982TIP3    H139581   5.331   0.269   2.263  1.8947  0.4702 -2.3472
 5982TIP3    H239582   5.386   0.351   2.377 -0.7263  0.6569 -1.1561
 5983TIP3   OH239583   1.998   5.078   2.186 -0.3690  0.0640  0.2043
 5983TIP3    H139584   1.985   5.147   2.122  0.4337  0.4391  0.4415
 5983TIP3    H239585   1.931   5.094   2.253  0.1676  0.9378  0.5349
 5984TIP3   OH239586   3.799   3.943   7.676 -0.0641 -0.3763  0.7847
 5984TIP3    H139587   3.705   3.953   7.659 -0.1945 -1.9203  0.5030
 5984TIP3    H239588   3.839   4.021   7.636 -1.3030  0.8718  1.8577
 5985TIP3   OH239589   5.441   4.175   2.438  0.0730  0.6620 -0.1206
 5985TIP3    H139590   5.456   4.083   2.418 -0.3798  0.6062 -0.2044
 5985TIP3    H239591   5.362   4.176   2.492  0.9575  0.8647  1.2232
 5986TIP3   OH239592   6.771   0.963   2.056  0.3550  0.8800  0.1404
 5986TIP3    H139593   6.706   1.011   2.107  0.4099 -0.5864  1.6502
 5986TIP3    H239594   6.853   1.009   2.072  0.1635  1.1379  0.3888
 5987TIP3   OH239595   1.414   4.061   7.293 -0.2214  0.0205 -0.9251
 5987TIP3    H139596   1.488   4.090   7.241  0.0839  0.6912 -0.1305
 5987TIP3    H239597   1.406   4.126   7.363 -2.0655  0.4255 -1.4475
 5988TIP3   OH239598   6.608   2.441   1.656  0.3068  0.0342  0.4949
 5988TIP3    H139599   6.660   2.401   1.586 -0.2686 -1.2784  0.8072
 5988TIP3    H239600   6.539   2.488   1.610  0.0262 -0.6895  0.1654
 5989TIP3   OH239601   0.482   4.128   7.074  0.0656 -0.4032 -0.1659
 5989TIP3    H139602   0.454   4.220   7.070  2.0593  0.2660  0.3556
 5989TIP3    H239603   0.401   4.079   7.058 -0.7103  1.4323 -2.6337
 5990TIP3   OH239604   5.853   2.903   8.740  0.5887  0.4242 -0.5371
 5990TIP3    H139605   5.783   2.956   8.777  1.3750  2.4751 -1.8026
 5990TIP3    H239606   5.932   2.955   8.754  1.3751 -0.3039 -2.0216
 5991TIP3   OH239607   4.459   1.136   2.261  0.1327 -0.2918  0.4672
 5991TIP3    H139608   4.464   1.040   2.257 -1.9408 -0.4133 -0.3468
 5991TIP3    H239609   4.446   1.155   2.354  0.5205 -0.7961  0.6323
 5992TIP3   OH239610   3.022   4.678   0.303  0.0384 -0.1456 -0.2939
 5992TIP3    H139611   3.061   4.762   0.324 -0.0114  0.3585 -2.0469
 5992TIP3    H239612   3.096   4.621   0.283 -0.0021  0.0972 -1.1677
 5993TIP3   OH239613   0.322   2.809   2.059 -0.1237  0.1621 -0.3185
 5993TIP3    H139614   0.294   2.873   2.125 -1.6168 -1.7519  1.0267
 5993TIP3    H239615   0.353   2.734   2.110  0.1462 -0.7658 -1.8095
 5994TIP3   OH239616   5.110   1.569   0.062  0.4487  0.2779  0.2344
 5994TIP3    H139617   5.187   1.572   0.119  1.5229 -1.0028 -1.0275
 5994TIP3    H239618   5.131   1.629  -0.010 -0.3118  0.9049  0.5320
 5995TIP3   OH239619   1.272   0.762   8.316  0.3124  0.2152 -0.2114
 5995TIP3    H139620   1.292   0.798   8.229 -0.5313 -0.2186 -0.6000
 5995TIP3    H239621   1.267   0.838   8.373  1.2294  0.4789 -0.4631
 5996TIP3   OH239622   5.147   6.008   0.844 -0.3619  0.0376  0.3734
 5996TIP3    H139623   5.070   5.997   0.788  0.2551  2.4019 -1.0611
 5996TIP3    H239624   5.217   6.034   0.784  0.8369  0.7241  1.9986
 5997TIP3   OH239625   3.175   0.593   8.913  0.1106  0.5244 -0.2973
 5997TIP3    H139626   3.227   0.653   8.966  1.1953  0.2409 -1.0213
 5997TIP3    H239627   3.188   0.507   8.953  0.3329  0.4289 -0.5716
 5998TIP3   OH239628   3.144   3.658   1.648  0.1801 -0.0028 -0.1102
 5998TIP3    H139629   3.159   3.749   1.670 -1.4896 -0.1159  1.7621
 5998TIP3    H239630   3.231   3.617   1.653  1.1525  1.6102 -2.0939
 5999TIP3   OH239631   0.526   4.480   8.131 -0.3196 -0.0963 -0.4901
 5999TIP3    H139632   0.611   4.478   8.086 -1.0693 -1.7862 -1.9810
 5999TIP3    H239633   0.498   4.389   8.132 -1.0348  0.0834  2.2216
 6000TIP3   OH239634   1.576   0.108   1.087 -0.1089 -0.3819 -0.0735
 6000TIP3    H139635   1.499   0.135   1.038 -0.1981  0.0608  0.3014
 6000TIP3    H239636   1.601   0.024   1.049 -1.6938 -1.2955  0.7896
 6001TIP3   OH239637   0.616   0.050   8.146 -0.8428 -0.0252 -0.1439
 6001TIP3    H139638   0.670  -0.026   8.165  1.7256  1.6017 -0.4027
 6001TIP3    H239639   0.543   0.016   8.094 -1.2296 -2.6425  1.8902
 6002TIP3   OH239640   1.881   0.619   1.237  0.1552 -0.1971 -0.2729
 6002TIP3    H139641   1.873   0.601   1.331 -1.9170  0.6045 -0.2480
 6002TIP3    H239642   1.966   0.583   1.213  1.2253  0.5672  2.1289
 6003TIP3   OH239643   3.610   3.703   1.631  0.3210  0.0995  0.5839
 6003TIP3    H139644   3.532   3.648   1.619  0.5398  0.1516 -1.2920
 6003TIP3    H239645   3.682   3.641   1.634  0.5797  0.2075 -1.6396
 6004TIP3   OH239646   4.875   4.503   0.371 -0.7397 -0.2826 -0.0308
 6004TIP3    H139647   4.822   4.489   0.292 -2.3033 -0.3359  1.0035
 6004TIP3    H239648   4.929   4.424   0.378 -0.3392 -0.1400 -1.2055
 6005TIP3   OH239649   3.080   0.966   7.173  0.8152  0.0171 -0.6640
 6005TIP3    H139650   3.026   0.952   7.251 -0.5267 -1.5509 -1.8012
 6005TIP3    H239651   3.093   0.878   7.137  0.7989  0.7546 -2.5847
 6006TIP3   OH239652   2.222   3.304   7.585  0.2839 -0.8808  0.1018
 6006TIP3    H139653   2.151   3.275   7.643  1.2615 -2.1526  0.7106
 6006TIP3    H239654   2.192   3.282   7.497 -2.2739  3.1607 -0.3172
 6007TIP3   OH239655   2.764   4.662   7.268  0.3213  0.6170 -0.7411
 6007TIP3    H139656   2.700   4.693   7.204  0.4445 -1.0379 -1.7104
 6007TIP3    H239657   2.824   4.607   7.218  1.4028  0.6035  0.5022
 6008TIP3   OH239658   0.830   2.831   7.250 -0.1117  0.0938  0.0505
 6008TIP3    H139659   0.746   2.876   7.260 -0.5458 -0.7707  0.3247
 6008TIP3    H239660   0.814   2.743   7.282  0.8020 -0.1901 -0.2612
 6009TIP3   OH239661   1.896   6.659   8.108  0.3270 -0.0706 -0.6767
 6009TIP3    H139662   1.865   6.707   8.031  0.7711 -0.6443 -1.2123
 6009TIP3    H239663   1.991   6.666   8.104  0.3334  1.5252  0.8646
 6010TIP3   OH239664   2.933   6.738   1.582  0.1046  0.1556  0.0416
 6010TIP3    H139665   3.028   6.754   1.580  0.6757 -2.6840 -1.1750
 6010TIP3    H239666   2.922   6.664   1.642 -1.4277  0.7321  0.5158
 6011TIP3   OH239667   4.087   5.335   7.063 -0.0391 -0.0319 -0.1293
 6011TIP3    H139668   4.144   5.384   7.005 -0.3211 -0.5367 -0.8472
 6011TIP3    H239669   3.998   5.357   7.035 -0.1738 -0.6265 -0.1953
 6012TIP3   OH239670   5.406   1.476   8.811  0.2368 -0.0284 -0.0926
 6012TIP3    H139671   5.372   1.492   8.899  1.0329  0.3643  0.1515
 6012TIP3    H239672   5.494   1.513   8.812 -0.2627  1.2671 -1.4970
 6013TIP3   OH239673   1.164   1.402   1.261 -0.7913 -0.5388 -0.3700
 6013TIP3    H139674   1.217   1.437   1.189  0.7364  0.6731  1.2711
 6013TIP3    H239675   1.191   1.311   1.269  0.8665 -0.0227  0.2321
 6014TIP3   OH239676   5.408   2.370   0.661 -0.7799 -0.9303  0.6924
 6014TIP3    H139677   5.474   2.341   0.598 -0.0878  0.9141  0.5248
 6014TIP3    H239678   5.455   2.428   0.720 -1.6129 -1.9248  2.4253
 6015TIP3   OH239679   0.120   4.247   1.240  0.3204 -0.6356  0.1007
 6015TIP3    H139680   0.200   4.295   1.258 -0.3244  0.6838 -0.4128
 6015TIP3    H239681   0.147   4.155   1.235  1.5797 -0.3507  1.1120
 6016TIP3   OH239682   6.457   4.870   0.676 -0.3880 -0.4744  0.6685
 6016TIP3    H139683   6.403   4.808   0.627  0.3770  0.2423 -1.2100
 6016TIP3    H239684   6.511   4.912   0.609  1.2737  0.0587  2.2550
 6017TIP3   OH239685   3.279   3.820   0.824 -0.2296 -0.0104  0.4671
 6017TIP3    H139686   3.371   3.834   0.805  0.0162 -1.4095  0.4899
 6017TIP3    H239687   3.232   3.876   0.762  0.6227  1.1266  0.8228
 6018TIP3   OH239688   5.496   4.693   0.936  0.3459 -0.1698 -0.0830
 6018TIP3    H139689   5.509   4.777   0.891 -1.9062  0.4984  0.4271
 6018TIP3    H239690   5.461   4.635   0.868  1.9243 -0.7679 -0.4410
 6019TIP3   OH239691   1.661   0.147   2.373  0.3878  0.3137 -0.1352
 6019TIP3    H139692   1.637   0.229   2.417  1.3226  1.4531 -1.6299
 6019TIP3    H239693   1.620   0.079   2.425 -1.0705  1.7765  0.7331
 6020TIP3   OH239694   5.310   1.217   0.121  0.2274  0.6316 -0.2945
 6020TIP3    H139695   5.298   1.224   0.026  0.0234  1.1111 -0.2366
 6020TIP3    H239696   5.228   1.180   0.154 -0.4936  2.2846 -0.0965
 6021TIP3   OH239697   0.270   5.019   0.449  0.1262 -0.2998  0.4570
 6021TIP3    H139698   0.269   4.929   0.483  1.5737  0.1654  1.8341
 6021TIP3    H239699   0.267   5.008   0.354  1.1737 -1.8606  0.5529
 6022TIP3   OH239700   2.564   3.300   8.127  0.0405  0.4383  0.1674
 6022TIP3    H139701   2.481   3.339   8.100  0.1478  1.8059  1.6163
 6022TIP3    H239702   2.539   3.226   8.181 -0.3277  1.6899  1.8012
 6023TIP3   OH239703   6.781   0.192   7.478  0.1471  0.0180  0.3112
 6023TIP3    H139704   6.779   0.173   7.572  1.5767 -0.6956  0.2107
 6023TIP3    H239705   6.691   0.174   7.449 -0.7703  1.7765  1.7917
 6024TIP3   OH239706   2.880   5.101   2.369  0.1640  0.2168 -0.4482
 6024TIP3    H139707   2.797   5.115   2.414  0.0712  1.3291 -0.9269
 6024TIP3    H239708   2.943   5.155   2.416  0.2758  0.5931 -1.0108
 6025TIP3   OH239709   6.732   3.370   0.971  0.5695  0.2948 -0.0701
 6025TIP3    H139710   6.713   3.459   0.942  0.2127  0.3609  0.3730
 6025TIP3    H239711   6.680   3.358   1.050  1.2003 -0.0419  0.3045
 6026TIP3   OH239712   0.369   5.648   8.338 -0.1221  0.5307 -0.0510
 6026TIP3    H139713   0.321   5.717   8.384 -1.0720 -0.0874 -0.0725
 6026TIP3    H239714   0.317   5.569   8.354  0.4175  0.0059 -0.8386
 6027TIP3   OH239715   4.565   1.380   2.201 -0.4584  0.4067 -0.3727
 6027TIP3    H139716   4.535   1.291   2.220 -0.0497 -0.0683 -1.8574
 6027TIP3    H239717   4.565   1.386   2.106  1.8675  1.1519 -0.3921
 6028TIP3   OH239718   4.027   3.469   8.852 -0.1981  0.1533 -0.4320
 6028TIP3    H139719   3.982   3.537   8.802 -0.4036  0.7857  0.5777
 6028TIP3    H239720   4.104   3.448   8.798  1.4704  3.2516  0.4517
 6029TIP3   OH239721   4.059   0.878   1.815 -0.5204  0.1059 -0.1100
 6029TIP3    H139722   4.018   0.879   1.728  1.1221  1.1605 -0.9212
 6029TIP3    H239723   4.130   0.942   1.809 -0.0542 -0.1486  1.8810
 6030TIP3   OH239724   2.415   1.365   1.820 -0.1786  0.2254  0.2055
 6030TIP3    H139725   2.319   1.359   1.812 -0.3977  2.1077  0.8364
 6030TIP3    H239726   2.443   1.410   1.741  0.1541  0.0357  0.2144
 6031TIP3   OH239727   0.737   6.436   1.470  0.2233 -0.2833 -0.7197
 6031TIP3    H139728   0.794   6.512   1.480  1.6173 -1.3639 -0.1260
 6031TIP3    H239729   0.724   6.403   1.559 -2.1749  0.4640 -0.6992
 6032TIP3   OH239730   4.878   2.446   2.436  0.2222  0.2064  0.5137
 6032TIP3    H139731   4.818   2.391   2.487  1.0236  0.2911  1.5849
 6032TIP3    H239732   4.821   2.508   2.391 -0.5618 -0.3003  0.7805
 6033TIP3   OH239733   2.514   0.622   0.104 -0.0675 -0.0468  0.2822
 6033TIP3    H139734   2.573   0.606   0.178  0.7964 -0.3647 -0.4552
 6033TIP3    H239735   2.534   0.712   0.077 -0.9048  0.3319  0.8800
 6034TIP3   OH239736   4.958   6.690   8.157 -0.4506  0.1063  0.1138
 6034TIP3    H139737   5.022   6.636   8.111 -1.0319  0.2624 -0.9126
 6034TIP3    H239738   4.879   6.684   8.104 -0.7613  1.3213  0.4016
 6035TIP3   OH239739   3.720   5.502   0.904 -0.0106  0.5300 -0.3613
 6035TIP3    H139740   3.698   5.511   0.997  1.1256 -1.0194  0.0840
 6035TIP3    H239741   3.763   5.584   0.882  0.1452  0.7234  0.6075
 6036TIP3   OH239742   6.215   2.297   0.855  0.0466 -0.2778  0.6638
 6036TIP3    H139743   6.154   2.367   0.877 -0.6952 -0.5090 -0.5488
 6036TIP3    H239744   6.220   2.243   0.934 -2.7948 -1.3030  0.2654
 6037TIP3   OH239745   2.050   6.525   8.430 -0.0916  0.9518  0.5822
 6037TIP3    H139746   2.133   6.497   8.391 -0.4016 -0.2389  0.7334
 6037TIP3    H239747   1.987   6.458   8.404 -1.6055  3.0402 -1.5721
 6038TIP3   OH239748   4.886   0.398   2.047 -0.4424  0.3858  0.3150
 6038TIP3    H139749   4.918   0.367   2.132  0.2506  0.3519  0.0492
 6038TIP3    H239750   4.870   0.491   2.060  1.4972  0.8023 -0.0223
 6039TIP3   OH239751   6.757   4.295   0.374 -0.2278  0.0678 -0.2355
 6039TIP3    H139752   6.673   4.282   0.331  1.1073 -0.9900 -2.7247
 6039TIP3    H239753   6.793   4.206   0.383  0.8033  0.5348  0.4404
 6040TIP3   OH239754   4.972   4.262   7.980  0.2478 -0.1847 -0.2496
 6040TIP3    H139755   5.027   4.190   7.947  0.3504  0.6207 -1.9346
 6040TIP3    H239756   4.898   4.265   7.920 -0.2655  0.5026  0.3974
 6041TIP3   OH239757   2.202   4.334   0.665 -0.4070  0.7830 -0.4628
 6041TIP3    H139758   2.260   4.319   0.591 -1.2119  1.5090 -1.2610
 6041TIP3    H239759   2.260   4.327   0.742  0.2324 -0.9955 -1.0597
 6042TIP3   OH239760   5.707   2.120   2.809  0.2075  0.0008  0.4201
 6042TIP3    H139761   5.726   2.168   2.889  2.3835  1.2011 -0.7425
 6042TIP3    H239762   5.688   2.031   2.839 -0.3252  0.7047  2.3352
 6043TIP3   OH239763   3.577   1.844   2.152 -0.2216 -1.0929  0.2349
 6043TIP3    H139764   3.651   1.905   2.155 -2.1058  1.3535  0.3327
 6043TIP3    H239765   3.551   1.844   2.060 -1.4056 -0.1550  0.5382
 6044TIP3   OH239766   2.023   0.179   1.210  0.0796  0.8300  0.1336
 6044TIP3    H139767   1.937   0.163   1.249  0.4063  0.4286  0.7217
 6044TIP3    H239768   2.005   0.229   1.131 -0.5766  2.3071  1.1611
 6045TIP3   OH239769   3.387   4.047   7.894  0.1299  0.2839  0.3067
 6045TIP3    H139770   3.406   4.138   7.919 -0.8716 -0.0061  2.2791
 6045TIP3    H239771   3.300   4.029   7.930  0.3188 -1.4770 -0.0172
 6046TIP3   OH239772   6.534   0.227   0.445 -0.0504  0.9894  0.0177
 6046TIP3    H139773   6.504   0.251   0.357 -0.7896  1.0062  0.2685
 6046TIP3    H239774   6.607   0.286   0.462 -0.1251  1.2221 -0.4488
 6047TIP3   OH239775   1.050   0.232   8.581 -0.4156  0.7437 -0.4621
 6047TIP3    H139776   1.001   0.284   8.517 -0.7116  1.1213  0.0588
 6047TIP3    H239777   1.080   0.296   8.645 -0.5805  0.3075  0.0614
 6048TIP3   OH239778   0.344   3.950   2.625  0.5019  0.6015 -0.5994
 6048TIP3    H139779   0.357   4.044   2.640 -2.0368  1.0150 -0.4986
 6048TIP3    H239780   0.326   3.915   2.713 -0.6917  0.4623 -0.8785
 6049TIP3   OH239781   2.204   1.621   1.716  0.1174 -0.3788 -0.2462
 6049TIP3    H139782   2.206   1.551   1.650  0.1300 -1.7464  1.1331
 6049TIP3    H239783   2.195   1.702   1.666 -0.4082 -1.4117 -1.8842
 6050TIP3   OH239784   4.731   2.911   0.701 -0.2391 -0.0934  0.4181
 6050TIP3    H139785   4.710   2.947   0.787  0.2243  1.1012  0.0446
 6050TIP3    H239786   4.795   2.971   0.664 -1.4391  0.1937 -1.3292
 6051TIP3   OH239787   1.985   0.319   7.771  0.2228 -0.3916 -0.0123
 6051TIP3    H139788   2.016   0.232   7.796  0.7364 -0.3502 -0.4838
 6051TIP3    H239789   1.890   0.309   7.764  0.4178 -1.4356 -1.9574
 6052TIP3   OH239790   3.881   3.376   0.470  0.4272 -0.1988  0.1297
 6052TIP3    H139791   3.840   3.327   0.399 -1.8556 -0.5119  1.5570
 6052TIP3    H239792   3.935   3.441   0.426 -1.4026  0.0539 -1.9418
 6053TIP3   OH239793   5.747   0.462   1.929  0.2876  0.1074  0.0787
 6053TIP3    H139794   5.686   0.526   1.893 -1.7871 -1.5067  0.5358
 6053TIP3    H239795   5.717   0.378   1.894  1.9040 -0.8196  0.8149
 6054TIP3   OH239796   5.432   2.884   0.556  0.2946 -0.3970  0.0584
 6054TIP3    H139797   5.355   2.870   0.611 -0.2726 -0.6318 -0.7773
 6054TIP3    H239798   5.502   2.837   0.601  0.2038  0.6730  1.3658
 6055TIP3   OH239799   2.511   4.484   0.294 -0.2344  0.1048  0.6098
 6055TIP3    H139800   2.571   4.420   0.255 -0.8324 -0.2754  0.2947
 6055TIP3    H239801   2.485   4.540   0.221  0.2909  0.7229  0.8866
 6056TIP3   OH239802   5.057   0.006   7.912 -0.1615 -0.8117  0.3049
 6056TIP3    H139803   5.119   0.045   7.851  0.9062 -1.0574  1.1901
 6056TIP3    H239804   5.109  -0.057   7.962 -1.2001 -1.2556  0.8643
 6057TIP3   OH239805   0.085   5.593   7.724 -0.6324 -0.4192 -0.2644
 6057TIP3    H139806   0.074   5.681   7.689 -0.0728 -0.3884 -0.3710
 6057TIP3    H239807   0.082   5.605   7.819  1.6275  0.0511 -0.1937
 6058TIP3   OH239808   5.376   0.773   8.127  0.0036  0.3085 -0.4798
 6058TIP3    H139809   5.340   0.702   8.073 -1.2883  0.0789  0.6366
 6058TIP3    H239810   5.349   0.751   8.216 -0.5483  2.2652 -0.1188
 6059TIP3   OH239811   6.104   1.668   1.985  0.3243  0.0578 -0.7648
 6059TIP3    H139812   6.009   1.684   1.984  0.3190  0.1718  0.5358
 6059TIP3    H239813   6.115   1.596   1.923 -0.2768  1.6134 -2.8078
 6060TIP3   OH239814   5.637   2.003   0.855  0.0783  0.3948  0.0990
 6060TIP3    H139815   5.571   1.968   0.795 -0.3701  0.2856  0.6349
 6060TIP3    H239816   5.614   2.095   0.864 -0.0917  0.3271  0.3898
 6061TIP3   OH239817   3.978   3.546   6.618 -0.3517 -0.3950  0.6777
 6061TIP3    H139818   3.978   3.450   6.621  2.1324 -0.5004 -0.5645
 6061TIP3    H239819   4.010   3.573   6.704 -1.2261 -0.6396  1.0941
 6062TIP3   OH239820   4.323   2.349   8.849  0.1088  0.3272 -0.0442
 6062TIP3    H139821   4.231   2.348   8.873 -0.3431 -0.4862 -1.6578
 6062TIP3    H239822   4.343   2.441   8.831 -0.2376  0.5700  0.7635
 6063TIP3   OH239823   6.352   5.635   0.359  0.7490  0.3893  0.6326
 6063TIP3    H139824   6.402   5.631   0.440  1.6096 -1.6147  0.0823
 6063TIP3    H239825   6.365   5.549   0.319 -1.1158  0.6891 -0.7690
 6064TIP3   OH239826   1.695   2.558   2.563  0.1813 -0.3459  0.5638
 6064TIP3    H139827   1.650   2.500   2.502  0.3149 -0.0343  0.1631
 6064TIP3    H239828   1.728   2.501   2.632 -0.2912 -0.6558  0.5390
 6065TIP3   OH239829   5.930   6.621   0.542  0.8659 -0.2165 -0.0404
 6065TIP3    H139830   5.996   6.689   0.529  1.1698 -0.1801  1.5034
 6065TIP3    H239831   5.962   6.571   0.618  0.8074 -2.2776 -1.3019
 6066TIP3   OH239832   4.289   3.516   1.991  0.0300 -0.1759 -0.2269
 6066TIP3    H139833   4.319   3.602   1.963 -0.5011  0.5388  1.3065
 6066TIP3    H239834   4.214   3.497   1.934 -0.0341  0.5085 -0.3742
 6067TIP3   OH239835   4.629   1.172   0.160 -0.0817  0.4522 -0.3405
 6067TIP3    H139836   4.559   1.237   0.148  0.1724  0.5761 -1.2167
 6067TIP3    H239837   4.703   1.224   0.191 -0.1688  0.4325 -0.1005
 6068TIP3   OH239838   4.135   4.229   2.407 -0.1978 -0.0760 -0.0183
 6068TIP3    H139839   4.216   4.268   2.439 -0.3472 -0.2573  0.6026
 6068TIP3    H239840   4.118   4.156   2.467 -1.5891  0.8413  0.7632
 6069TIP3   OH239841   1.825   1.525   7.328 -0.2318  0.1098  0.0607
 6069TIP3    H139842   1.837   1.431   7.315 -0.0269  0.1727 -0.2062
 6069TIP3    H239843   1.833   1.563   7.241  0.7072  0.4837  0.2901
 6070TIP3   OH239844   0.866   4.349   3.059  0.3804 -0.8604  0.5389
 6070TIP3    H139845   0.919   4.379   3.133 -0.0559 -0.2008  0.6048
 6070TIP3    H239846   0.825   4.268   3.089  1.8793 -1.7729  0.2300
 6071TIP3   OH239847   3.838   6.442   2.522 -0.1147 -0.0900  0.4867
 6071TIP3    H139848   3.879   6.518   2.564 -1.0339  0.5052  0.3496
 6071TIP3    H239849   3.832   6.467   2.429 -0.0925 -0.4756  0.3816
 6072TIP3   OH239850   2.376   3.874   7.878 -0.0075  0.6097 -0.2017
 6072TIP3    H139851   2.428   3.851   7.955  0.8886  0.8532 -0.7304
 6072TIP3    H239852   2.337   3.959   7.900 -0.1999  0.4195  0.2000
 6073TIP3   OH239853   3.481   3.922   1.918 -0.2755  0.4595 -0.0747
 6073TIP3    H139854   3.421   3.871   1.973  0.1235  1.1384  1.0420
 6073TIP3    H239855   3.541   3.858   1.881  0.3663  0.1085  1.4884
 6074TIP3   OH239856   3.822   2.514   8.495 -0.1674  0.1577  0.6991
 6074TIP3    H139857   3.908   2.556   8.491 -0.6716  1.2375  0.7332
 6074TIP3    H239858   3.763   2.576   8.453 -0.7444 -1.1210 -0.4516
 6075TIP3   OH239859   2.566   3.678   7.352  0.0810 -0.5187 -0.2852
 6075TIP3    H139860   2.577   3.661   7.259 -1.4575 -0.5731 -0.4727
 6075TIP3    H239861   2.616   3.609   7.396 -2.1070 -2.7437 -1.0583
 6076TIP3   OH239862   3.908   4.787   2.357 -0.0279 -0.3023  0.0924
 6076TIP3    H139863   3.844   4.716   2.365  0.0657 -0.7221 -2.0554
 6076TIP3    H239864   3.863   4.852   2.302  1.3457 -0.6540 -1.5456
 6077TIP3   OH239865   1.860   2.256   2.468  0.0108  0.5280  0.1274
 6077TIP3    H139866   1.856   2.292   2.380  2.2018 -0.0281 -0.2548
 6077TIP3    H239867   1.932   2.303   2.510  1.6551 -1.9480  0.2603
 6078TIP3   OH239868   6.186   2.035   8.834  0.0468  0.2477  0.4962
 6078TIP3    H139869   6.175   2.096   8.761 -1.4665  0.2827  0.7215
 6078TIP3    H239870   6.104   2.041   8.882  1.1625  0.5814  2.4836
 6079TIP3   OH239871   2.181   1.625   0.179  0.1353 -0.1786  0.3188
 6079TIP3    H139872   2.200   1.568   0.104 -1.5334 -0.6229  0.1907
 6079TIP3    H239873   2.204   1.574   0.256  1.9483  0.3123  0.1520
 6080TIP3   OH239874   5.906   6.034   7.416  0.1376 -0.0815  0.1783
 6080TIP3    H139875   5.830   6.055   7.470  0.1983  0.5945  0.0175
 6080TIP3    H239876   5.889   5.946   7.383 -0.8155  0.2455 -0.2462
 6081TIP3   OH239877   5.564   4.781   7.837  0.1148 -0.1101  1.1444
 6081TIP3    H139878   5.595   4.785   7.927  1.7938  1.8163  0.5485
 6081TIP3    H239879   5.609   4.706   7.799  1.5519  0.6941  1.2045
 6082TIP3   OH239880   4.161   0.929   7.723 -0.1328  0.2422 -0.0841
 6082TIP3    H139881   4.184   0.882   7.803 -0.8060 -0.0224 -0.0469
 6082TIP3    H239882   4.228   0.998   7.716  0.3467 -0.1739  0.3204
 6083TIP3   OH239883   2.130   4.798   0.541  0.2159 -0.4540 -0.3449
 6083TIP3    H139884   2.166   4.811   0.629 -0.1077 -0.0190 -0.2756
 6083TIP3    H239885   2.131   4.703   0.529 -0.3719 -0.5687  0.4022
 6084TIP3   OH239886   0.582   5.869   8.458 -0.0671  0.1387 -0.0433
 6084TIP3    H139887   0.491   5.876   8.486 -0.7393  0.3418 -2.0813
 6084TIP3    H239888   0.601   5.776   8.461 -1.0631 -0.1500 -1.5700
 6085TIP3   OH239889   0.613   5.532   1.160  0.0174  0.3096 -0.1700
 6085TIP3    H139890   0.689   5.539   1.218  2.3884 -0.9366 -2.8259
 6085TIP3    H239891   0.579   5.444   1.176  0.0048  0.3632  0.0883
 6086TIP3   OH239892   0.693   3.713   2.413  0.8721 -0.0466 -0.0409
 6086TIP3    H139893   0.751   3.700   2.339  1.2074 -1.1523  0.3986
 6086TIP3    H239894   0.608   3.680   2.383  0.9573 -0.2940 -0.0151
 6087TIP3   OH239895   0.199   2.220   1.868 -0.4223 -0.1661  0.2724
 6087TIP3    H139896   0.176   2.287   1.804  0.3018 -1.0871 -1.0204
 6087TIP3    H239897   0.120   2.166   1.876 -0.7363  0.3529  0.6874
 6088TIP3   OH239898   3.888   2.444   0.529  0.2472 -0.6779 -0.2002
 6088TIP3    H139899   3.941   2.524   0.533  0.1759 -0.6173 -0.3901
 6088TIP3    H239900   3.879   2.416   0.619  2.8435 -2.2037 -0.3408
 6089TIP3   OH239901   2.472   6.796   7.146  0.2155 -0.5296  0.2061
 6089TIP3    H139902   2.413   6.871   7.144 -0.1116 -0.7159  1.6485
 6089TIP3    H239903   2.548   6.823   7.094  0.7234  1.3610  1.8206
 6090TIP3   OH239904   6.797   1.452   2.564 -0.2900 -0.2177 -0.4637
 6090TIP3    H139905   6.757   1.419   2.484 -1.0033 -3.9175  1.2131
 6090TIP3    H239906   6.889   1.428   2.557 -0.3250 -0.4189 -0.2465
 6091TIP3   OH239907   3.606   6.502   8.149  0.0648 -1.0442  0.4770
 6091TIP3    H139908   3.679   6.505   8.088 -0.1815 -0.7835  0.1948
 6091TIP3    H239909   3.528   6.515   8.095 -0.0874  0.2109  0.9637
 6092TIP3   OH239910   3.930   4.196   2.231 -0.1026 -0.1904  0.0523
 6092TIP3    H139911   3.987   4.192   2.307  1.4955  1.3283 -0.9842
 6092TIP3    H239912   3.870   4.268   2.248  0.1619  0.0578 -0.0701
 6093TIP3   OH239913   5.489   5.285   1.756 -0.5841 -0.6068 -0.1949
 6093TIP3    H139914   5.498   5.380   1.748 -4.4624  0.0289  0.9498
 6093TIP3    H239915   5.448   5.258   1.673 -2.2161 -0.7193  0.6024
 6094TIP3   OH239916   0.441   0.506   1.240 -0.2059 -0.4113 -0.0780
 6094TIP3    H139917   0.443   0.522   1.335 -0.6654 -1.1684  0.0722
 6094TIP3    H239918   0.364   0.450   1.228  1.0972 -2.1901 -0.6035
 6095TIP3   OH239919   3.221   0.730   0.679 -0.1163 -0.4303 -0.0247
 6095TIP3    H139920   3.133   0.718   0.642  0.0977 -1.9386 -0.1335
 6095TIP3    H239921   3.280   0.715   0.605  0.2429  0.3959  0.0883
 6096TIP3   OH239922   1.585   0.726   7.659  0.6245  0.5394 -0.3199
 6096TIP3    H139923   1.564   0.792   7.594 -2.3407  0.6709  0.6452
 6096TIP3    H239924   1.565   0.643   7.617 -1.5738  0.6382  0.4229
 6097TIP3   OH239925   0.893   6.315   2.533 -0.6471  0.0245  0.3640
 6097TIP3    H139926   0.878   6.240   2.590 -1.0006  0.6415  1.1072
 6097TIP3    H239927   0.985   6.339   2.549 -0.2917 -0.7343 -0.4825
 6098TIP3   OH239928   3.794   0.742   0.904 -0.3906  0.5226 -0.4336
 6098TIP3    H139929   3.774   0.685   0.978 -0.2950 -0.9467 -1.5007
 6098TIP3    H239930   3.740   0.820   0.918 -1.4646 -0.3544  0.4150
 6099TIP3   OH239931   3.823   2.967   1.809 -0.0001 -0.4012 -0.2243
 6099TIP3    H139932   3.868   2.973   1.894  0.9588  0.3539 -0.7742
 6099TIP3    H239933   3.878   2.910   1.756 -0.9605 -1.4483 -0.1460
 6100TIP3   OH239934   0.629   5.685   1.641  0.5836  0.2940  0.3616
 6100TIP3    H139935   0.626   5.752   1.710 -1.6605 -0.4145  1.0659
 6100TIP3    H239936   0.558   5.708   1.582 -0.5218 -1.6260  0.8472
 6101TIP3   OH239937   3.692   4.351   0.375 -0.1970 -0.6429 -0.6684
 6101TIP3    H139938   3.703   4.262   0.342 -2.5050 -0.9979 -0.6596
 6101TIP3    H239939   3.777   4.374   0.413  0.2352 -3.1586  0.0520
 6102TIP3   OH239940   6.308   1.551   7.782 -0.1943 -0.5472 -0.4555
 6102TIP3    H139941   6.329   1.562   7.689 -2.2358 -0.4004 -0.9419
 6102TIP3    H239942   6.220   1.512   7.782 -0.9328  0.9961  1.4203
 6103TIP3   OH239943   0.312   5.167   1.306  0.2832  0.0666  0.0268
 6103TIP3    H139944   0.256   5.162   1.384  0.4848  0.3532  0.1899
 6103TIP3    H239945   0.254   5.141   1.234 -0.4921  1.7431 -0.0049
 6104TIP3   OH239946   1.750   5.275   8.565  0.3705 -0.0465 -0.2036
 6104TIP3    H139947   1.764   5.249   8.656 -0.9509 -0.5115 -0.1095
 6104TIP3    H239948   1.748   5.193   8.516  0.0646  0.1339 -0.5009
 6105TIP3   OH239949   0.576   0.291   2.180  0.3361  0.0799  0.7200
 6105TIP3    H139950   0.487   0.298   2.144  0.2709  0.4634  0.9482
 6105TIP3    H239951   0.564   0.254   2.267  0.6866 -3.1836 -0.4898
 6106TIP3   OH239952   6.163   3.557   7.717  0.0694 -0.0694  0.3638
 6106TIP3    H139953   6.144   3.537   7.809 -1.7819 -0.7554 -0.1201
 6106TIP3    H239954   6.198   3.475   7.682  1.7709  0.4930  0.6706
 6107TIP3   OH239955   0.518   6.543   1.057 -0.3885 -0.1400 -0.1234
 6107TIP3    H139956   0.598   6.567   1.105 -1.0986 -0.5271  1.2972
 6107TIP3    H239957   0.510   6.609   0.988 -0.4491  1.6616  1.5643
 6108TIP3   OH239958   5.946   2.046   0.856 -0.5435  0.4422  0.0147
 6108TIP3    H139959   5.853   2.052   0.836 -0.7137 -3.1688 -0.9263
 6108TIP3    H239960   5.987   2.021   0.773  0.9141 -0.4111  0.9434
 6109TIP3   OH239961   6.615   0.633   0.893 -0.2614 -0.4390 -0.1176
 6109TIP3    H139962   6.662   0.614   0.812 -0.6020 -0.2593 -0.3561
 6109TIP3    H239963   6.537   0.577   0.889 -1.4283  1.1747 -0.9561
 6110TIP3   OH239964   1.059   5.169   0.693 -0.2299 -0.0766 -0.4859
 6110TIP3    H139965   1.147   5.137   0.712 -0.5716  0.2013  1.7720
 6110TIP3    H239966   1.073   5.259   0.662  0.4177 -0.9221 -2.9392
 6111TIP3   OH239967   2.748   3.081   0.854 -0.0445 -0.0295  0.0187
 6111TIP3    H139968   2.738   3.090   0.949 -2.7424  0.7258 -0.2732
 6111TIP3    H239969   2.659   3.067   0.821  0.4508  2.3360 -2.6760
 6112TIP3   OH239970   5.175   3.955   2.240 -0.1963  0.4039  0.3628
 6112TIP3    H139971   5.271   3.954   2.241 -0.2015 -0.9824  0.3721
 6112TIP3    H239972   5.153   4.039   2.281  1.0055  0.2688  1.3644
 6113TIP3   OH239973   1.257   0.949   8.541  0.0116 -0.4906  0.1871
 6113TIP3    H139974   1.261   1.033   8.494  1.6139 -0.6883 -0.0730
 6113TIP3    H239975   1.246   0.974   8.633  1.3180  0.0612  0.2157
 6114TIP3   OH239976   5.722   5.429   8.603 -0.4336 -0.0719 -0.1791
 6114TIP3    H139977   5.802   5.420   8.655 -0.9224  0.7551  0.7401
 6114TIP3    H239978   5.753   5.427   8.512  0.9181  2.2558  0.1423
 6115TIP3   OH239979   1.945   0.085   0.326  0.1600  0.0621 -0.6702
 6115TIP3    H139980   1.885   0.053   0.260  0.5016  0.7713 -1.3443
 6115TIP3    H239981   1.894   0.086   0.407  0.1113 -2.0470 -0.6289
 6116TIP3   OH239982   0.427   1.623   7.920  0.3089 -0.0504 -0.2911
 6116TIP3    H139983   0.375   1.640   7.841  2.5875  1.1028 -1.6383
 6116TIP3    H239984   0.362   1.599   7.986 -2.0302  2.1070 -1.6187
 6117TIP3   OH239985   2.745   5.370   0.891  0.3220 -0.3005  0.6828
 6117TIP3    H139986   2.674   5.370   0.956  0.7190 -1.4726  1.1469
 6117TIP3    H239987   2.700   5.371   0.807 -0.2036  1.1535  0.9641
 6118TIP3   OH239988   5.474   1.956   1.466 -0.6281 -0.3686 -0.1318
 6118TIP3    H139989   5.504   1.983   1.379 -1.0608 -0.2212 -0.2409
 6118TIP3    H239990   5.459   2.038   1.513 -0.3527 -0.4490  0.0966
 6119TIP3   OH239991   1.764   1.947   7.666 -0.0137  0.0218  0.4895
 6119TIP3    H139992   1.745   2.033   7.628 -3.5277 -1.2049 -0.9514
 6119TIP3    H239993   1.681   1.919   7.704  1.2527 -2.4319  1.6462
 6120TIP3   OH239994   5.706   2.303   0.919 -1.2063  0.2416  0.4145
 6120TIP3    H139995   5.769   2.360   0.874 -0.3494 -0.8172  0.2448
 6120TIP3    H239996   5.652   2.363   0.971 -1.5202  1.3938 -1.1667
 6121TIP3   OH239997   6.356   1.245   0.400  0.1629 -0.1692  0.6853
 6121TIP3    H139998   6.401   1.324   0.369 -1.2902  0.9058  1.2324
 6121TIP3    H239999   6.414   1.173   0.374  1.2421  1.0202 -0.3392
 6122TIP3   OH240000   2.042   2.158   7.612 -0.9802 -0.2076  0.0579
 6122TIP3    H140001   2.087   2.074   7.598 -0.8534 -0.1231 -0.0405
 6122TIP3    H240002   2.061   2.209   7.533 -0.4465  0.1893  0.4336
 6123TIP3   OH240003   2.784   0.710   7.844  0.5138  0.0093 -0.3131
 6123TIP3    H140004   2.730   0.638   7.812  1.2362 -1.3920  1.4662
 6123TIP3    H240005   2.833   0.739   7.767 -0.3593 -0.8757 -1.2307
 6124TIP3   OH240006   1.481   2.937   8.591 -0.4877 -0.1252  0.0674
 6124TIP3    H140007   1.553   2.994   8.562 -0.3554  0.2265  1.0337
 6124TIP3    H240008   1.507   2.850   8.562 -0.4976  0.2353 -1.0836
 6125TIP3   OH240009   1.965   4.170   8.729  0.2626  0.0901  0.5247
 6125TIP3    H140010   1.898   4.129   8.783 -1.0565 -0.9258 -1.7279
 6125TIP3    H240011   2.040   4.111   8.736 -0.1372 -0.4041  0.7275
 6126TIP3   OH240012   6.357   0.071   7.858  0.1336  0.1033 -0.3833
 6126TIP3    H140013   6.368   0.076   7.953 -1.3368 -0.3426 -0.1656
 6126TIP3    H240014   6.387   0.155   7.826 -1.2891  1.0847  0.7129
 6127TIP3   OH240015   4.628   0.009   7.820  0.9282 -0.3265  0.3828
 6127TIP3    H140016   4.599  -0.072   7.777  0.4111 -0.0006  0.0996
 6127TIP3    H240017   4.682   0.053   7.755 -1.0624  0.8821 -0.5433
 6128TIP3   OH240018   5.330   6.011   1.063 -0.2841  0.1242 -0.3100
 6128TIP3    H140019   5.276   5.986   0.987  0.5900 -0.8678 -0.6213
 6128TIP3    H240020   5.414   5.968   1.048 -0.6606 -1.6627  2.1420
 6129TIP3   OH240021   3.147   5.565   0.758  0.1467  0.6608  0.1363
 6129TIP3    H140022   3.180   5.555   0.847  1.1414 -2.3839 -0.4541
 6129TIP3    H240023   3.072   5.505   0.753 -1.7808  2.9495 -0.3300
 6130TIP3   OH240024   5.866   1.848   2.694  0.0659 -1.0963 -0.0528
 6130TIP3    H140025   5.822   1.906   2.633  0.6206  0.2375  0.7699
 6130TIP3    H240026   5.815   1.856   2.775  2.4905  1.6290  1.3923
 6131TIP3   OH240027   6.538   3.923   7.050 -0.0261  0.1647 -0.0870
 6131TIP3    H140028   6.517   3.854   7.112  0.6228 -0.2220 -0.2895
 6131TIP3    H240029   6.618   3.962   7.084  0.4360 -0.1678 -0.7701
 6132TIP3   OH240030   3.779   1.028   6.810 -0.8755  0.0151 -0.2717
 6132TIP3    H140031   3.711   0.977   6.853 -0.4631  0.2214  0.6356
 6132TIP3    H240032   3.731   1.095   6.761 -1.3667 -0.5326 -0.5551
 6133TIP3   OH240033   5.623   6.698   1.644  0.5832  0.1665  0.2965
 6133TIP3    H140034   5.709   6.699   1.602 -0.0919  0.9360 -1.1283
 6133TIP3    H240035   5.578   6.774   1.607 -1.4513 -1.3992 -0.6066
 6134TIP3   OH240036   4.732   6.316   0.639  0.4611 -0.3736  0.2172
 6134TIP3    H140037   4.705   6.388   0.582 -0.5696 -1.5644 -0.8578
 6134TIP3    H240038   4.815   6.344   0.676  0.8475  0.7135 -1.3897
 6135TIP3   OH240039   4.415   5.023   1.695  0.1487 -0.4481  0.6057
 6135TIP3    H140040   4.481   4.974   1.744  2.1341  1.8317  0.3637
 6135TIP3    H240041   4.440   5.013   1.603 -0.3939 -0.2722  0.4320
 6136TIP3   OH240042   5.200   4.280   8.314 -0.0995 -0.7861  0.3392
 6136TIP3    H140043   5.253   4.223   8.369  0.0875 -0.1513  0.8281
 6136TIP3    H240044   5.231   4.263   8.225  0.6099 -0.7544  0.5739
 6137TIP3   OH240045   6.531   5.323   2.154  0.0389  0.1251  0.1310
 6137TIP3    H140046   6.468   5.311   2.082 -0.5633  0.2593  0.6279
 6137TIP3    H240047   6.537   5.417   2.165  1.2694  0.1664 -0.7180
 6138TIP3   OH240048   6.521   4.343   1.709 -0.1351  0.4344 -0.4212
 6138TIP3    H140049   6.447   4.371   1.763 -0.4450 -1.7595  0.3792
 6138TIP3    H240050   6.487   4.346   1.620 -0.6823  0.9770 -0.2024
 6139TIP3   OH240051   6.561   3.330   0.322  0.3549 -0.3025 -0.4772
 6139TIP3    H140052   6.506   3.296   0.393 -0.9080  1.2683 -0.6391
 6139TIP3    H240053   6.522   3.295   0.242 -0.7852  1.1911 -0.6256
 6140TIP3   OH240054   4.910   0.990   1.168 -0.0051 -0.3301 -0.2920
 6140TIP3    H140055   4.864   1.071   1.146 -0.3623 -0.8417 -1.5583
 6140TIP3    H240056   4.936   1.001   1.259 -0.6987  0.8958 -0.2140
 6141TIP3   OH240057   2.000   3.754   2.819  0.0627  0.1535 -0.0541
 6141TIP3    H140058   2.043   3.808   2.885  0.4680 -0.3649  0.1178
 6141TIP3    H240059   2.068   3.740   2.753 -0.4266  0.9151 -0.7318
 6142TIP3   OH240060   1.941   2.447   8.852 -0.4944 -0.2217 -0.1577
 6142TIP3    H140061   1.854   2.416   8.878 -1.4734  1.1788 -1.5932
 6142TIP3    H240062   1.948   2.534   8.892  0.7750 -0.7883  0.9376
 6143TIP3   OH240063   0.570   0.434   8.647  0.2872  0.1480 -0.1812
 6143TIP3    H140064   0.572   0.481   8.730  0.3718 -2.1002  1.1688
 6143TIP3    H240065   0.477   0.411   8.635  0.5530 -1.4124  0.4755
 6144TIP3   OH240066   6.687   0.489   2.232 -0.0342  0.4396 -0.1078
 6144TIP3    H140067   6.712   0.397   2.226  0.5600  0.6109 -0.3198
 6144TIP3    H240068   6.665   0.502   2.325  2.1209  0.6322  0.4269
 6145TIP3   OH240069   0.019   1.596   7.320 -0.0624 -0.7006 -0.8540
 6145TIP3    H140070   0.051   1.621   7.406 -1.0455 -2.9527  0.2545
 6145TIP3    H240071  -0.060   1.649   7.308  1.2771  1.2781 -1.4473
 6146TIP3   OH240072   2.417   2.147   7.629  0.0987  0.6568 -0.1470
 6146TIP3    H140073   2.375   2.098   7.558  2.3698 -0.5981 -0.7433
 6146TIP3    H240074   2.351   2.150   7.698 -0.7492 -1.8607 -0.7303
 6147TIP3   OH240075   6.574   1.375   1.519  0.1187 -0.1889  0.6726
 6147TIP3    H140076   6.554   1.419   1.602 -0.8802 -1.1478  0.9609
 6147TIP3    H240077   6.543   1.436   1.452 -0.4905 -0.0719  1.0505
 6148TIP3   OH240078   1.714   0.923   6.761 -0.0167 -0.0956  0.2705
 6148TIP3    H140079   1.715   0.859   6.689  0.5638  0.3441 -0.1260
 6148TIP3    H240080   1.658   0.884   6.827 -3.0195  0.7435 -1.5800
 6149TIP3   OH240081   4.974   2.001   7.868  0.0625 -0.5282  0.0757
 6149TIP3    H140082   4.988   2.072   7.806  0.4482  0.4986  1.2913
 6149TIP3    H240083   4.891   1.961   7.841 -0.1406  0.3548 -0.6622
 6150TIP3   OH240084   1.043   5.937   0.144  0.2052 -0.5130 -0.2349
 6150TIP3    H140085   0.994   5.887   0.079 -1.4967  0.8114 -0.0340
 6150TIP3    H240086   0.976   5.974   0.201  1.3008  2.6677 -0.8405
 6151TIP3   OH240087   0.889   1.532   1.595 -0.2104  0.0428  0.9946
 6151TIP3    H140088   0.969   1.571   1.559 -0.2064 -0.3502  0.5786
 6151TIP3    H240089   0.897   1.439   1.576  0.0524 -0.2620  2.4987
 6152TIP3   OH240090   4.448   0.587   2.131 -0.3242 -0.0880  0.4148
 6152TIP3    H140091   4.424   0.653   2.196 -0.8093  1.9034 -1.6822
 6152TIP3    H240092   4.391   0.604   2.056  0.4112 -2.1053 -0.6787
 6153TIP3   OH240093   0.253   6.658   1.198 -0.3964 -0.2761  0.5256
 6153TIP3    H140094   0.334   6.642   1.149  0.3534  0.9477  1.3044
 6153TIP3    H240095   0.184   6.660   1.131  0.2716 -0.9259 -0.1977
 6154TIP3   OH240096   1.697   5.394   1.626 -0.3052  0.5241  0.3319
 6154TIP3    H140097   1.770   5.397   1.688  0.9393 -0.6194 -0.9913
 6154TIP3    H240098   1.623   5.361   1.677  0.4078  0.6283  1.4497
 6155TIP3   OH240099   4.919   0.683   1.291  0.1410 -0.2434  0.5143
 6155TIP3    H140100   4.842   0.671   1.347 -1.1966  1.5470 -0.7932
 6155TIP3    H240101   4.924   0.778   1.278  0.6416 -0.5594 -2.0250
 6156TIP3   OH240102   1.886   6.112   1.509  0.4083 -0.3966  0.5584
 6156TIP3    H140103   1.820   6.093   1.576  1.8417  0.2120  2.2449
 6156TIP3    H240104   1.878   6.041   1.446 -2.6413  0.2972  0.0091
 6157TIP3   OH240105   6.665   2.590   1.886  0.5346 -0.0543 -0.0739
 6157TIP3    H140106   6.658   2.542   1.804  2.3127 -0.5099  0.0030
 6157TIP3    H240107   6.747   2.561   1.924 -0.0247  0.5068  1.6565
 6158TIP3   OH240108   1.959   1.333   0.299  0.0342  0.4317 -0.1600
 6158TIP3    H140109   1.956   1.374   0.385 -0.1550  0.1612 -0.0340
 6158TIP3    H240110   2.052   1.328   0.278  0.1639 -0.6336  0.5863
 6159TIP3   OH240111   6.048   5.383   1.309 -0.1862  0.2641  0.5931
 6159TIP3    H140112   6.093   5.415   1.231 -0.7417 -1.3643 -0.4543
 6159TIP3    H240113   5.962   5.426   1.306 -0.5726 -0.5139 -0.2752
 6160TIP3   OH240114   3.597   6.319   2.425  0.0210 -0.7772  0.5571
 6160TIP3    H140115   3.682   6.350   2.458  1.2203 -2.0172 -1.2028
 6160TIP3    H240116   3.617   6.283   2.339 -2.6372  0.5730 -0.7305
 6161TIP3   OH240117   5.893   0.374   2.460 -0.0993  0.0631 -0.4409
 6161TIP3    H140118   5.821   0.372   2.397 -0.9710  0.7365  0.5174
 6161TIP3    H240119   5.933   0.460   2.448  0.3178 -0.1604 -0.6974
 6162TIP3   OH240120   6.682   5.039   0.646 -0.4208  0.1029  0.3051
 6162TIP3    H140121   6.718   5.126   0.630  0.0470  0.2811  2.1732
 6162TIP3    H240122   6.625   5.050   0.722 -1.7352 -0.8922 -0.4858
 6163TIP3   OH240123   3.260   2.703   0.197  0.1276 -0.1960  0.2226
 6163TIP3    H140124   3.206   2.683   0.274 -0.1581  0.9165  0.3220
 6163TIP3    H240125   3.233   2.637   0.132  0.5982 -1.3484  1.1493
 6164TIP3   OH240126   6.295   1.156   7.976  0.3100  0.1576 -0.4307
 6164TIP3    H140127   6.375   1.174   7.926  0.6592  1.6336  0.6247
 6164TIP3    H240128   6.293   1.223   8.044 -2.5687  1.0607 -1.2834
 6165TIP3   OH240129   5.746   1.928   1.245  0.1289  0.8912  0.1503
 6165TIP3    H140130   5.697   2.010   1.247  1.5971  1.8264 -0.5263
 6165TIP3    H240131   5.827   1.947   1.291  0.5485 -0.1610 -0.1175
 6166TIP3   OH240132   2.264   4.884   1.228  0.1542 -0.2627 -0.6533
 6166TIP3    H140133   2.324   4.936   1.175 -2.1380  2.1359 -1.1095
 6166TIP3    H240134   2.237   4.812   1.171  0.3750  0.3044 -1.4824
 6167TIP3   OH240135   1.920   2.607   7.792 -0.0966  0.1671  0.1232
 6167TIP3    H140136   1.916   2.512   7.784  3.6600 -0.1311  0.2742
 6167TIP3    H240137   1.963   2.636   7.711 -1.5304  1.8243 -0.0991
 6168TIP3   OH240138   4.080   0.353   1.963 -0.3396 -0.3774 -0.1554
 6168TIP3    H140139   4.046   0.411   2.031 -0.0136 -1.9450  1.4063
 6168TIP3    H240140   4.165   0.323   1.996  0.9603  0.6230 -2.3443
 6169TIP3   OH240141   4.477   4.105   0.530  0.4168  0.4925  0.1059
 6169TIP3    H140142   4.450   4.032   0.585  1.9569  0.0702  0.3509
 6169TIP3    H240143   4.463   4.073   0.440 -1.7363  1.0453  0.1865
 6170TIP3   OH240144   5.688   0.683   8.371  0.0673  0.2647 -0.0459
 6170TIP3    H140145   5.627   0.618   8.408 -1.3736  1.1482 -0.7571
 6170TIP3    H240146   5.773   0.659   8.406 -0.7326 -0.8783  1.2124
 6171TIP3   OH240147   2.901   4.920   7.322  0.1906 -0.5175 -0.1834
 6171TIP3    H140148   2.920   4.832   7.290 -0.8630 -0.1450 -1.9405
 6171TIP3    H240149   2.819   4.910   7.370  0.0786 -0.4920 -0.3704
 6172TIP3   OH240150   2.233   1.523   8.865 -0.1202  0.2256 -0.4523
 6172TIP3    H140151   2.293   1.582   8.820  0.8745  0.5014  1.1636
 6172TIP3    H240152   2.274   1.437   8.858 -0.0646  0.2357 -0.2593
 6173TIP3   OH240153   1.510   6.279   6.777 -0.4319  0.4864 -0.1134
 6173TIP3    H140154   1.482   6.215   6.843  0.7698 -1.0895 -1.0677
 6173TIP3    H240155   1.557   6.345   6.827 -0.9380  0.1859  0.7934
 6174TIP3   OH240156   4.577   3.298   7.609  0.6827 -0.3527  0.3782
 6174TIP3    H140157   4.623   3.267   7.687  1.1412 -0.6876 -0.0236
 6174TIP3    H240158   4.484   3.283   7.629  0.6821  0.9624  1.4662
 6175TIP3   OH240159   1.109   2.584   2.761  0.1576  0.0285 -0.1455
 6175TIP3    H140160   1.021   2.622   2.754 -0.2308 -0.6570  0.7699
 6175TIP3    H240161   1.100   2.516   2.828  0.2542 -3.3868 -3.3139
 6176TIP3   OH240162   4.737   0.730   8.287  0.0007  0.6873 -0.0956
 6176TIP3    H140163   4.714   0.817   8.253 -0.9608  0.0555 -1.0851
 6176TIP3    H240164   4.660   0.676   8.272  0.4851 -0.2934  0.7632
 6177TIP3   OH240165   0.165   2.337   0.411  0.2869 -0.1141  0.1236
 6177TIP3    H140166   0.218   2.406   0.369 -2.1583  1.2328 -0.9516
 6177TIP3    H240167   0.149   2.370   0.500 -2.0447  1.5413 -0.8062
 6178TIP3   OH240168   3.823   0.699   8.869 -0.1160  0.3431  0.0291
 6178TIP3    H140169   3.846   0.628   8.809  2.0855  1.1429 -0.1434
 6178TIP3    H240170   3.817   0.776   8.813 -1.3146  0.5447  0.3980
 6179TIP3   OH240171   4.211   4.152   0.194  0.1423 -0.4332  0.8781
 6179TIP3    H140172   4.241   4.233   0.152 -1.1048  0.2859  1.3073
 6179TIP3    H240173   4.265   4.084   0.155  0.1165  0.4049 -0.7246
 6180TIP3   OH240174   3.185   1.979   7.784 -0.3894  0.1468 -0.1239
 6180TIP3    H140175   3.157   1.896   7.823 -0.2255  0.0530 -0.2020
 6180TIP3    H240176   3.118   1.999   7.719  1.3995 -1.8353 -2.7905
 6181TIP3   OH240177   4.044   4.970   7.668 -0.2675 -0.1702 -0.2434
 6181TIP3    H140178   4.108   4.955   7.737  2.6557 -0.2731 -2.7655
 6181TIP3    H240179   4.018   5.061   7.679 -0.4926 -0.4002  1.4098
 6182TIP3   OH240180   1.036   1.381   7.589  0.1340  0.5509 -0.7297
 6182TIP3    H140181   0.962   1.321   7.598  0.4871  0.3370  0.9947
 6182TIP3    H240182   1.016   1.431   7.510 -0.7644 -0.9822 -1.5218
 6183TIP3   OH240183   5.372   2.451   0.299 -0.5064 -0.6238  0.1230
 6183TIP3    H140184   5.325   2.403   0.231 -0.7519 -2.0741  1.2550
 6183TIP3    H240185   5.306   2.465   0.368  0.2220 -1.0563  0.9374
 6184TIP3   OH240186   2.693   3.363   0.630  0.3361  0.1733 -0.1708
 6184TIP3    H140187   2.634   3.322   0.693  0.5116 -0.8511 -0.6517
 6184TIP3    H240188   2.672   3.456   0.634  0.1331  0.0790  1.1642
 6185TIP3   OH240189   2.638   0.020   8.781 -0.2855  0.1223  0.4247
 6185TIP3    H140190   2.649   0.108   8.818  1.3634 -0.3230  1.1101
 6185TIP3    H240191   2.667   0.028   8.690  1.7981 -0.0590  1.0061
 6186TIP3   OH240192   0.757   4.530   0.961 -0.0366  0.2220 -0.1689
 6186TIP3    H140193   0.819   4.602   0.949  1.1664 -0.8245 -0.4124
 6186TIP3    H240194   0.734   4.533   1.054  0.8423  0.2650  0.0520
 6187TIP3   OH240195   1.438   3.828   1.498 -0.4040  0.1979 -0.0226
 6187TIP3    H140196   1.522   3.873   1.505 -0.8966  0.8976  1.8646
 6187TIP3    H240197   1.382   3.890   1.451 -0.7613  1.1327  1.5793
 6188TIP3   OH240198   2.570   6.240   7.515  0.0437  0.1599  0.2907
 6188TIP3    H140199   2.494   6.274   7.468 -2.3056 -2.0176  2.1697
 6188TIP3    H240200   2.616   6.187   7.450 -0.0438  1.4537 -0.8744
 6189TIP3   OH240201   0.387   2.888   8.157  0.3064 -0.0289  0.0772
 6189TIP3    H140202   0.365   2.922   8.244 -1.9568 -1.5214  0.1617
 6189TIP3    H240203   0.331   2.938   8.097 -1.0594 -1.6452 -0.0632
 6190TIP3   OH240204   5.891   2.742   1.336 -0.3330 -0.2901  0.7409
 6190TIP3    H140205   5.873   2.705   1.250  0.1208  0.0240  0.5082
 6190TIP3    H240206   5.903   2.836   1.320 -0.2151 -0.2341  1.1379
 6191TIP3   OH240207   1.772   2.144   8.469  0.1713  0.2033 -0.0354
 6191TIP3    H140208   1.823   2.226   8.469 -2.1015  1.7024  0.7674
 6191TIP3    H240209   1.698   2.162   8.526  0.0488 -2.7735  0.8804
 6192TIP3   OH240210   4.219   1.121   8.070 -0.1513 -0.0858  0.0911
 6192TIP3    H140211   4.274   1.167   8.006  0.3621  0.7308  1.0939
 6192TIP3    H240212   4.252   1.031   8.069 -0.7250 -0.3078 -1.4031
 6193TIP3   OH240213   5.445   3.115   7.082 -0.2710  0.2760  0.4435
 6193TIP3    H140214   5.400   3.062   7.017  0.8459  0.7569 -0.7680
 6193TIP3    H240215   5.452   3.059   7.159  2.1280 -1.9256 -1.2316
 6194TIP3   OH240216   2.296   5.371   7.104  0.0584  0.3619  0.3310
 6194TIP3    H140217   2.380   5.326   7.099  0.1872  0.6680 -0.4502
 6194TIP3    H240218   2.240   5.313   7.155  0.3734 -0.4319 -0.2182
 6195TIP3   OH240219   1.046   1.638   0.482 -0.0039  0.4070 -0.2473
 6195TIP3    H140220   0.967   1.620   0.431 -0.5942  0.1935  0.7142
 6195TIP3    H240221   1.023   1.612   0.572  1.7129 -1.3168 -0.2282
 6196TIP3   OH240222   5.302   5.156   7.422  0.1317 -0.7928  0.0329
 6196TIP3    H140223   5.293   5.118   7.510 -0.6729  1.0554  0.7922
 6196TIP3    H240224   5.218   5.200   7.406  0.0092 -1.6123 -1.9518
 6197TIP3   OH240225   4.396   3.305   2.148 -0.4341 -0.2773 -0.4796
 6197TIP3    H140226   4.371   3.394   2.122  2.0083  0.8613  0.7141
 6197TIP3    H240227   4.336   3.283   2.219 -0.1134  1.0811  0.2521
 6198TIP3   OH240228   2.736   6.095   1.701 -0.0854  0.0462 -0.1625
 6198TIP3    H140229   2.815   6.043   1.718  1.1528  1.3353 -1.6965
 6198TIP3    H240230   2.769   6.180   1.673 -2.0577  1.2191  0.8650
 6199TIP3   OH240231   6.293   5.360   1.426  0.3460 -0.4021  0.5932
 6199TIP3    H140232   6.282   5.416   1.503 -0.8935 -0.3255  0.3817
 6199TIP3    H240233   6.235   5.398   1.361 -0.7740 -2.0978  0.5418
 6200TIP3   OH240234   0.692   2.868   8.869  0.1182 -1.2748  0.2050
 6200TIP3    H140235   0.675   2.778   8.843 -1.2686 -0.8825 -0.2993
 6200TIP3    H240236   0.606   2.903   8.891  0.4170  0.3948 -1.1211
 6201TIP3   OH240237   2.341   2.948   8.041  0.0793 -0.4357 -0.0206
 6201TIP3    H140238   2.246   2.945   8.054 -0.1323 -0.9195 -1.5171
 6201TIP3    H240239   2.374   3.000   8.115 -1.3998  0.2045  0.2187
 6202TIP3   OH240240   4.026   5.476   8.895  0.3382  0.4620 -0.5395
 6202TIP3    H140241   4.112   5.499   8.860  0.9599  1.3218  1.4083
 6202TIP3    H240242   4.043   5.402   8.954 -0.8095 -1.5131 -2.4940
 6203TIP3   OH240243   3.656   2.106   8.397  0.3040 -0.8316  0.7374
 6203TIP3    H140244   3.574   2.132   8.439  0.5830  0.5687  0.4667
 6203TIP3    H240245   3.653   2.149   8.311  2.1122  0.8143  1.4195
 6204TIP3   OH240246   4.873   3.310   2.228 -0.4459 -0.5480  0.3398
 6204TIP3    H140247   4.938   3.334   2.294 -1.2910 -3.4747  2.4340
 6204TIP3    H240248   4.855   3.392   2.181  4.5644  0.5150 -0.3578
 6205TIP3   OH240249   5.137   0.796   0.115  0.9805  0.8901  0.4039
 6205TIP3    H140250   5.215   0.775   0.063 -0.3291  1.6546 -2.0115
 6205TIP3    H240251   5.098   0.711   0.135  1.0424  0.6129 -0.6379
 6206TIP3   OH240252   5.254   5.412   7.784  0.2691 -0.2571  0.4907
 6206TIP3    H140253   5.323   5.347   7.791  1.9838  1.3673 -0.4820
 6206TIP3    H240254   5.281   5.468   7.711 -3.4603 -1.1417 -1.8449
 6207TIP3   OH240255   5.319   3.384   7.039  0.6501  0.5847  0.2671
 6207TIP3    H140256   5.362   3.299   7.047  2.2037  1.4083  1.4093
 6207TIP3    H240257   5.238   3.366   6.992 -1.0432 -2.2206  3.7717
 6208TIP3   OH240258   6.199   5.048   1.480  0.1547 -0.0297 -0.3191
 6208TIP3    H140259   6.264   4.979   1.470  0.2289  0.1164 -0.9071
 6208TIP3    H240260   6.232   5.120   1.426 -0.2786  0.2016 -0.2835
 6209TIP3   OH240261   6.319   3.655   8.106 -0.1947  0.2281  0.0948
 6209TIP3    H140262   6.316   3.641   8.201 -1.9185  1.9875  0.3609
 6209TIP3    H240263   6.245   3.712   8.088 -0.0921 -0.3194 -2.3879
 6210TIP3   OH240264   3.140   2.613   1.383 -0.4039 -0.3647  0.6557
 6210TIP3    H140265   3.112   2.546   1.320 -1.3428 -0.0167  0.6988
 6210TIP3    H240266   3.104   2.695   1.349  0.9419  0.1898  0.4645
 6211TIP3   OH240267   4.562   5.047   1.459 -0.4763 -0.5915 -0.4139
 6211TIP3    H140268   4.655   5.044   1.435 -1.0706 -0.9636 -2.8440
 6211TIP3    H240269   4.515   5.030   1.378 -2.6830 -1.9511  1.0407
 6212TIP3   OH240270   2.795   2.082   1.867 -0.0318  0.3184 -0.0821
 6212TIP3    H140271   2.838   2.007   1.907  1.2153  0.4282 -1.1673
 6212TIP3    H240272   2.852   2.156   1.886  0.4713  0.4123 -1.7850
 6213TIP3   OH240273   1.422   6.534   8.758  0.4215 -0.8144 -0.0683
 6213TIP3    H140274   1.374   6.595   8.701  1.2215 -0.9970 -0.9712
 6213TIP3    H240275   1.469   6.477   8.697  0.8825 -1.3705  0.7873
 6214TIP3   OH240276   3.111   6.754   2.558  0.2806 -0.1236  0.6267
 6214TIP3    H140277   3.125   6.803   2.477 -1.2945 -0.6139  0.0181
 6214TIP3    H240278   3.152   6.807   2.626  1.7305  0.2454 -0.4856
 6215TIP3   OH240279   4.395   6.660   2.970  0.4780 -0.4499 -0.5515
 6215TIP3    H140280   4.417   6.597   2.902  0.2252 -0.6693 -0.4317
 6215TIP3    H240281   4.479   6.692   3.001  0.5715  0.5171 -1.7664
 6216TIP3   OH240282   3.615   2.604   8.729  0.0105 -0.3248  0.0542
 6216TIP3    H140283   3.710   2.604   8.741  0.3284 -1.9678 -1.8814
 6216TIP3    H240284   3.579   2.591   8.817  1.5954 -0.3711  0.7237
 6217TIP3   OH240285   5.874   1.318   7.651 -0.0352 -0.7106  0.0735
 6217TIP3    H140286   5.913   1.271   7.577 -1.2168 -1.5642 -0.0237
 6217TIP3    H240287   5.880   1.257   7.724  0.2003 -0.2549  0.4387
 6218TIP3   OH240288   0.773   6.582   1.189  0.2247 -0.3283 -0.2395
 6218TIP3    H140289   0.771   6.530   1.269 -0.5034  1.9317  1.3136
 6218TIP3    H240290   0.823   6.661   1.212  0.1362  0.3263 -2.0677
 6219TIP3   OH240291   3.817   6.460   1.982 -0.3867 -0.1283  0.0577
 6219TIP3    H140292   3.765   6.521   1.929 -0.1360  0.2873  0.2898
 6219TIP3    H240293   3.907   6.471   1.950 -0.1460  0.5007  0.9081
 6220TIP3   OH240294   2.747   5.911   1.490 -0.3549 -0.0799  0.1450
 6220TIP3    H140295   2.814   5.967   1.451 -1.7024  0.6728 -1.1869
 6220TIP3    H240296   2.721   5.957   1.570  1.0651 -0.6652  0.9896
 6221TIP3   OH240297   0.362   4.168   0.706 -0.1219  0.8813  0.0189
 6221TIP3    H140298   0.299   4.108   0.668  1.9331 -0.7172 -1.0568
 6221TIP3    H240299   0.376   4.135   0.795 -0.7768  1.2414  0.2602
 6222TIP3   OH240300   1.034   5.770   0.585  0.0140  0.1205 -0.0660
 6222TIP3    H140301   1.043   5.722   0.668  1.4905 -1.2363 -0.9570
 6222TIP3    H240302   0.941   5.790   0.579 -0.1156  0.3941  1.9773
 6223TIP3   OH240303   3.692   3.690   7.396  0.2747  0.1063  0.1415
 6223TIP3    H140304   3.781   3.708   7.425  0.5718 -1.0590  0.0024
 6223TIP3    H240305   3.636   3.733   7.461  0.8550  3.2546 -1.2237
 6224TIP3   OH240306   4.516   6.027   7.133  0.5668 -0.6751  0.0653
 6224TIP3    H140307   4.587   5.985   7.085  0.2328 -0.1632 -0.8920
 6224TIP3    H240308   4.558   6.102   7.176  0.8719 -1.1532  0.6160
 6225TIP3   OH240309   1.030   1.869   0.186 -0.1107 -0.6616 -0.0145
 6225TIP3    H140310   1.080   1.794   0.153  0.3294 -0.2798 -0.2358
 6225TIP3    H240311   1.071   1.889   0.270  0.8876  0.3667 -0.7094
 6226TIP3   OH240312   3.868   5.192   7.715  0.7960  0.3070  0.0162
 6226TIP3    H140313   3.773   5.198   7.707  0.7403 -1.0859 -0.6516
 6226TIP3    H240314   3.894   5.277   7.750 -0.5082  1.4332 -1.5616
 6227TIP3   OH240315   0.800   4.613   7.502  0.3667  0.1296 -0.2772
 6227TIP3    H140316   0.758   4.584   7.421  0.3995 -0.9442  0.0797
 6227TIP3    H240317   0.894   4.611   7.482  0.3997 -0.5810 -0.0817
 6228TIP3   OH240318   2.419   3.455   0.313 -0.1152  0.4830 -0.3943
 6228TIP3    H140319   2.381   3.425   0.396 -0.6054 -0.3901 -0.9244
 6228TIP3    H240320   2.498   3.401   0.302  0.2714  1.0020 -0.2184
 6229TIP3   OH240321   4.952   3.506   2.578  0.0805  0.3762 -0.1077
 6229TIP3    H140322   4.912   3.424   2.605 -1.1765  0.0759 -2.5902
 6229TIP3    H240323   4.879   3.561   2.550  1.0248  1.7204 -0.0473
 6230TIP3   OH240324   0.689   4.556   1.254  0.2147 -0.2160 -0.0472
 6230TIP3    H140325   0.722   4.470   1.229  1.0489 -0.0807  0.5227
 6230TIP3    H240326   0.690   4.554   1.350  0.2147  0.4216 -0.0330
 6231TIP3   OH240327   2.373   2.402   0.232 -0.5552 -0.1874 -0.1798
 6231TIP3    H140328   2.306   2.348   0.191 -0.9780 -0.3407  0.6834
 6231TIP3    H240329   2.428   2.340   0.280 -0.8088  0.1012  0.4925
 6232TIP3   OH240330   5.235   4.980   7.826 -0.4644  0.0211 -0.0698
 6232TIP3    H140331   5.296   5.012   7.760 -0.1518  0.2750  0.3330
 6232TIP3    H240332   5.180   4.917   7.780  2.6425 -3.3000  0.3942
 6233TIP3   OH240333   1.067   2.742   1.508  0.4057  0.1237 -0.0702
 6233TIP3    H140334   1.038   2.792   1.585  1.3125  0.7909 -0.1496
 6233TIP3    H240335   1.158   2.721   1.527 -0.0356 -1.8159  0.1115
 6234TIP3   OH240336   1.516   1.587   0.580 -0.0415  0.0595 -0.6449
 6234TIP3    H140337   1.608   1.596   0.607 -0.1945 -1.2583  0.4140
 6234TIP3    H240338   1.496   1.495   0.595 -1.9021  0.5801  0.2673
 6235TIP3   OH240339   4.928   4.460   0.920 -0.8116 -0.0224  0.3884
 6235TIP3    H140340   4.987   4.504   0.981  3.0527 -1.5143 -1.9273
 6235TIP3    H240341   4.892   4.387   0.969  0.2055  0.2584  1.6033
 6236TIP3   OH240342   4.800   4.675   1.371 -0.5163 -0.0388 -0.0699
 6236TIP3    H140343   4.761   4.589   1.357 -0.3981  0.0750 -1.1510
 6236TIP3    H240344   4.751   4.734   1.313 -1.3082  0.8458  1.4205
 6237TIP3   OH240345   4.646   4.450   1.345  0.1295  0.5285  0.1166
 6237TIP3    H140346   4.728   4.400   1.346  1.3105  2.3825  0.4618
 6237TIP3    H240347   4.603   4.427   1.428 -0.3364 -1.3878 -0.6134
 6238TIP3   OH240348   6.353   3.275   0.814 -0.0923 -0.1754 -0.1938
 6238TIP3    H140349   6.295   3.207   0.849 -0.7631 -0.0077 -0.9626
 6238TIP3    H240350   6.380   3.325   0.891 -0.3318 -0.7338  0.2650
 6239TIP3   OH240351   2.696   2.099   7.711 -0.4466  0.6386 -1.0626
 6239TIP3    H140352   2.707   2.175   7.769 -0.3679 -0.1119 -0.0648
 6239TIP3    H240353   2.619   2.120   7.658  0.5343  2.1225 -1.9644
 6240TIP3   OH240354   1.975   3.724   7.353  0.2444 -0.1201  0.3218
 6240TIP3    H140355   1.921   3.801   7.337 -1.3811 -1.6857 -2.3877
 6240TIP3    H240356   2.065   3.757   7.347 -0.3973  1.6729 -0.1497
 6241TIP3   OH240357   6.026   5.761   8.047 -0.2394 -0.2408  0.8835
 6241TIP3    H140358   5.968   5.748   8.122 -2.8017 -1.1442 -1.1240
 6241TIP3    H240359   6.014   5.683   7.993 -1.3867  1.9193 -2.2540
 6242TIP3   OH240360   0.816   4.306   2.252 -0.4341 -0.4118 -0.1114
 6242TIP3    H140361   0.771   4.289   2.335 -0.2851  0.2289  0.1132
 6242TIP3    H240362   0.897   4.351   2.278 -1.6384  2.3434 -0.6974
 6243TIP3   OH240363   3.475   6.218   8.626 -0.3274  0.4199 -0.3043
 6243TIP3    H140364   3.482   6.160   8.701 -0.9387  0.1874 -0.4231
 6243TIP3    H240365   3.383   6.245   8.624  0.0825  1.9958  0.1869
 6244TIP3   OH240366   1.065   4.485   1.336  0.2675 -0.0782  0.1290
 6244TIP3    H140367   1.065   4.556   1.400  2.7699 -1.5413  1.9244
 6244TIP3    H240368   1.153   4.487   1.298 -0.2272 -1.0758 -1.1636
 6245TIP3   OH240369   1.879   0.316   2.533 -0.6438  0.3822 -0.4140
 6245TIP3    H140370   1.785   0.331   2.524 -1.1109 -1.4564  0.8389
 6245TIP3    H240371   1.911   0.310   2.443 -2.0491 -0.5539 -0.8911
 6246TIP3   OH240372   6.289   1.866   1.278  0.4271 -0.3929  0.3955
 6246TIP3    H140373   6.371   1.913   1.263  0.6748 -0.3075  1.9057
 6246TIP3    H240374   6.287   1.850   1.372 -1.1852 -0.6041  0.3509
 6247TIP3   OH240375   4.066   6.410   0.161  0.5565 -0.0781  0.0243
 6247TIP3    H140376   3.998   6.413   0.094  2.1272 -0.9747 -1.6610
 6247TIP3    H240377   4.031   6.466   0.231 -1.5790  0.0764 -1.0595
 6248TIP3   OH240378   0.094   3.196   0.818 -0.2153  0.6588 -0.1816
 6248TIP3    H140379   0.057   3.255   0.883  0.1058  0.4972  0.1527
 6248TIP3    H240380   0.111   3.251   0.742 -1.1597  0.7322 -0.3521
 6249TIP3   OH240381   0.895   6.733   1.818  0.7928 -0.0807  0.4952
 6249TIP3    H140382   0.956   6.772   1.756  1.0447 -0.7840  0.2947
 6249TIP3    H240383   0.935   6.748   1.904  0.4958  0.7961  0.4925
 6250TIP3   OH240384   3.013   5.453   1.005  0.0935 -0.1868 -0.2132
 6250TIP3    H140385   2.935   5.420   0.961  0.5539  0.2533 -1.3870
 6250TIP3    H240386   2.981   5.483   1.091 -0.6765 -1.7403  0.0758
 6251TIP3   OH240387   1.288   2.766   2.837 -0.1516 -0.7282 -0.1186
 6251TIP3    H140388   1.210   2.747   2.786 -2.1088  3.0502  1.1361
 6251TIP3    H240389   1.257   2.772   2.927  1.8630 -0.4556  0.6093
 6252TIP3   OH240390   0.554   2.993   1.585  0.0341 -0.5985  0.2469
 6252TIP3    H140391   0.603   2.920   1.623  1.4912  0.9977  1.6011
 6252TIP3    H240392   0.577   2.992   1.492  1.4818 -0.7974  0.5812
 6253TIP3   OH240393   4.324   3.471   0.105  0.1377  0.0588 -0.3266
 6253TIP3    H140394   4.246   3.435   0.147  0.1317  0.1361 -0.2724
 6253TIP3    H240395   4.295   3.496   0.018  0.3025 -0.7194 -0.6128
 6254TIP3   OH240396   4.496   5.485   8.048 -0.6424 -0.3757  0.8473
 6254TIP3    H140397   4.472   5.501   7.957 -0.2145 -2.2388  0.3691
 6254TIP3    H240398   4.581   5.441   8.043 -1.7765 -2.9160  1.9413
 6255TIP3   OH240399   3.217   6.035   8.122  0.0865  0.5250 -0.0680
 6255TIP3    H140400   3.125   6.048   8.143  0.4003  0.1693  1.6396
 6255TIP3    H240401   3.265   6.092   8.182  0.9912  0.9230 -1.1243
 6256TIP3   OH240402   1.729   4.007   0.249  0.3158 -0.4058  0.0627
 6256TIP3    H140403   1.785   3.967   0.315 -1.1122 -1.0147  0.9537
 6256TIP3    H240404   1.766   3.979   0.165 -0.1747 -3.0072  0.6380
 6257TIP3   OH240405   2.634   5.202   8.624  0.3980 -0.8775  0.1682
 6257TIP3    H140406   2.693   5.168   8.557  1.1602 -0.2523  0.5104
 6257TIP3    H240407   2.691   5.248   8.685 -0.5400  0.6162 -0.0291
 6258TIP3   OH240408   2.722   3.701   6.379 -0.0827  0.5556  0.0845
 6258TIP3    H140409   2.697   3.652   6.457 -1.4017  1.4154  0.2287
 6258TIP3    H240410   2.654   3.767   6.368  0.6849  1.2016 -1.1421
 6259TIP3   OH240411   5.308   0.592   0.413  0.0694 -0.2017  0.1153
 6259TIP3    H140412   5.384   0.563   0.364 -1.3555 -2.4807 -0.8853
 6259TIP3    H240413   5.242   0.613   0.347 -0.3646  1.2626  0.9653
 6260TIP3   OH240414   1.293   6.238   1.950 -0.4899  0.0129 -1.3840
 6260TIP3    H140415   1.203   6.216   1.927 -1.0672  0.0986  0.6044
 6260TIP3    H240416   1.285   6.307   2.016  0.9331 -1.1408  0.0864
 6261TIP3   OH240417   2.589   0.111   2.025 -0.0470 -0.1000  0.3626
 6261TIP3    H140418   2.548   0.030   1.998  1.2463 -0.6462 -0.0394
 6261TIP3    H240419   2.516   0.172   2.040 -1.0217 -1.2899  0.5800
 6262TIP3   OH240420   4.170   5.382   0.679  0.7251  0.4354 -0.2699
 6262TIP3    H140421   4.183   5.300   0.727 -2.5862 -1.1029 -1.6534
 6262TIP3    H240422   4.232   5.443   0.718  1.2544 -1.8818  2.8968
 6263TIP3   OH240423   0.539   1.448   7.490  0.1498 -0.1044 -0.3694
 6263TIP3    H140424   0.557   1.435   7.583 -0.8306 -1.3287 -0.3132
 6263TIP3    H240425   0.617   1.414   7.446  0.0940 -0.7004 -0.0208
 6264TIP3   OH240426   2.551   4.000   0.952  0.7995  0.4255 -0.4604
 6264TIP3    H140427   2.590   4.083   0.978  0.3099  0.6129 -0.3199
 6264TIP3    H240428   2.505   3.969   1.030 -0.3255  0.7871 -0.9593
 6265TIP3   OH240429   1.615   1.288   2.621 -0.0235  0.4495  0.2178
 6265TIP3    H140430   1.638   1.195   2.622 -0.6363  0.2738 -0.9416
 6265TIP3    H240431   1.670   1.327   2.690  0.4388 -0.7170  0.5246
 6266TIP3   OH240432   1.015   1.009   1.175 -0.0955 -0.1254 -0.1037
 6266TIP3    H140433   1.039   0.991   1.084 -1.6175  2.6071 -1.1361
 6266TIP3    H240434   1.086   1.065   1.208 -0.8743  1.1284 -0.5126
 6267TIP3   OH240435   4.668   5.810   0.225  0.7394 -0.0259 -0.5773
 6267TIP3    H140436   4.740   5.783   0.167  0.2302 -1.2881 -0.6691
 6267TIP3    H240437   4.590   5.772   0.184  0.4058 -1.3325  1.1385
 6268TIP3   OH240438   1.269   0.081   8.407  0.2412  0.4862 -0.7387
 6268TIP3    H140439   1.255   0.101   8.314 -1.0037  1.4924 -0.3518
 6268TIP3    H240440   1.189   0.108   8.450  0.7628 -0.0808  0.6373
 6269TIP3   OH240441   2.031   3.626   0.740 -0.3285 -0.3308 -1.1503
 6269TIP3    H140442   1.952   3.624   0.794  1.4330 -0.3809  1.6492
 6269TIP3    H240443   2.040   3.536   0.708 -0.8352 -0.5964 -0.5671
 6270TIP3   OH240444   4.903   6.704   8.751 -0.1419 -0.6060 -0.3628
 6270TIP3    H140445   4.840   6.772   8.774 -0.6647 -0.9588 -0.7529
 6270TIP3    H240446   4.975   6.717   8.813 -0.3636  0.1209 -0.2487
 6271TIP3   OH240447   0.596   0.814   7.094  0.2684  0.3460  0.3659
 6271TIP3    H140448   0.670   0.876   7.092  1.0347 -0.4859  1.4000
 6271TIP3    H240449   0.617   0.749   7.028  1.6537 -1.1153  2.1149
 6272TIP3   OH240450   1.927   0.977   7.289 -0.2010 -0.6329 -0.3887
 6272TIP3    H140451   1.952   1.068   7.273 -0.3066  0.0106  2.6043
 6272TIP3    H240452   1.868   0.956   7.217  0.2645  1.4559 -1.4725
 6273TIP3   OH240453   3.113   3.268   0.119 -0.0584 -0.2536 -0.4578
 6273TIP3    H140454   3.160   3.330   0.062 -0.1798  0.2848  0.0110
 6273TIP3    H240455   3.070   3.208   0.058  0.9812 -0.5686 -0.9014
 6274TIP3   OH240456   1.777   6.394   0.524 -0.3129 -0.2568  0.6181
 6274TIP3    H140457   1.754   6.378   0.615  0.7486  1.6513  1.2589
 6274TIP3    H240458   1.705   6.446   0.489 -0.2661 -0.1907  0.6211
 6275TIP3   OH240459   4.684   1.221   8.696  0.9850 -0.0534 -0.4225
 6275TIP3    H140460   4.714   1.304   8.658 -0.0105 -0.0987 -1.3275
 6275TIP3    H240461   4.754   1.197   8.757  1.7416  0.9601 -0.8555
 6276TIP3   OH240462   0.679   5.758   8.877 -0.4634 -0.7168 -0.0891
 6276TIP3    H140463   0.671   5.835   8.934 -1.7555  0.0566 -1.2355
 6276TIP3    H240464   0.625   5.691   8.920 -1.3946 -0.1562 -0.3597
 6277TIP3   OH240465   5.278   1.051   1.081 -0.0178  0.4389  0.2219
 6277TIP3    H140466   5.355   1.078   1.030 -0.0567  1.4726  0.6793
 6277TIP3    H240467   5.265   1.122   1.144  0.0108 -0.7907  1.6700
 6278TIP3   OH240468   2.751   2.327   7.221 -0.1269 -0.5478  0.3134
 6278TIP3    H140469   2.749   2.371   7.136 -0.7937 -0.3100  0.4458
 6278TIP3    H240470   2.842   2.302   7.233 -0.0939 -0.9454 -0.6621
 6279TIP3   OH240471   5.803   1.121   0.457  0.4825  0.9946  0.2137
 6279TIP3    H140472   5.793   1.027   0.474 -0.7359  1.2639  1.1683
 6279TIP3    H240473   5.714   1.155   0.463  0.7866  2.0826 -1.0507
 6280TIP3   OH240474   0.165   4.726   7.637 -0.3137 -0.4426  0.5594
 6280TIP3    H140475   0.245   4.735   7.585 -0.4170  1.4595  0.6703
 6280TIP3    H240476   0.094   4.747   7.576 -0.6456 -0.9159  0.7765
 6281TIP3   OH240477   3.315   4.603   7.986  0.5130  0.2614  0.5801
 6281TIP3    H140478   3.378   4.662   8.027  0.6600  0.4528  0.0895
 6281TIP3    H240479   3.274   4.656   7.917  0.2270 -0.0345  0.5193
 6282TIP3   OH240480   2.175   3.288   7.988 -0.0529  0.1973 -0.3310
 6282TIP3    H140481   2.227   3.351   8.038 -0.1121 -1.1396  1.5425
 6282TIP3    H240482   2.170   3.211   8.045  0.3077 -1.6538 -2.6567
 6283TIP3   OH240483   5.115   4.601   1.061  0.4997  0.5692  0.6568
 6283TIP3    H140484   5.166   4.658   1.003  0.3812  1.9783  1.8822
 6283TIP3    H240485   5.071   4.661   1.121  0.3153 -0.8231  1.9764
 6284TIP3   OH240486   0.809   5.022   8.897  0.2486  0.3624  0.1746
 6284TIP3    H140487   0.732   5.032   8.842  0.4163  2.4733  0.2672
 6284TIP3    H240488   0.774   4.994   8.982 -0.3464  0.7091  0.0480
 6285TIP3   OH240489   2.917   3.245   7.167 -0.0890 -0.5630 -0.4036
 6285TIP3    H140490   2.971   3.190   7.224  0.0178 -0.7157 -0.6482
 6285TIP3    H240491   2.827   3.222   7.189 -0.0669  0.2264  0.5246
 6286TIP3   OH240492   0.300   2.324   1.322  0.2268 -0.4093 -0.7086
 6286TIP3    H140493   0.250   2.253   1.362  1.8172 -1.8234 -1.1337
 6286TIP3    H240494   0.268   2.403   1.366 -0.9253 -1.4697  0.4464
 6287TIP3   OH240495   6.242   3.949   1.080  0.5189  0.1184  0.2142
 6287TIP3    H140496   6.209   4.038   1.066 -2.3960 -1.0246 -0.9892
 6287TIP3    H240497   6.316   3.941   1.019 -0.1631  1.2343 -0.8111
 6288TIP3   OH240498   5.460   4.712   1.783 -0.1780  0.0533 -0.8208
 6288TIP3    H140499   5.448   4.631   1.733 -0.3316  0.3561 -1.2837
 6288TIP3    H240500   5.427   4.692   1.870  0.9526 -0.7773 -0.5655
 6289TIP3   OH240501   3.960   2.743   1.930  0.0019 -0.6897  0.5627
 6289TIP3    H140502   3.995   2.750   1.842  0.7871 -1.0952  0.8363
 6289TIP3    H240503   3.916   2.658   1.931  0.8430 -1.1313  0.8487
 6290TIP3   OH240504   1.455   2.320   2.606  0.2250 -0.1308 -0.5027
 6290TIP3    H140505   1.492   2.361   2.528  0.0550 -0.6444 -0.8524
 6290TIP3    H240506   1.445   2.392   2.668  1.2855  0.1159 -0.6010
 6291TIP3   OH240507   5.322   0.559   0.848 -0.2047 -0.4456 -0.4860
 6291TIP3    H140508   5.321   0.464   0.834  0.6488 -0.3500 -1.2741
 6291TIP3    H240509   5.232   0.580   0.874  0.0058 -1.7062  1.4814
 6292TIP3   OH240510   0.972   3.770   7.156  0.7677 -0.2195  0.2564
 6292TIP3    H140511   1.022   3.826   7.216  0.0591 -0.5689  1.2023
 6292TIP3    H240512   1.039   3.728   7.102  1.4865 -0.4016  1.2524
 6293TIP3   OH240513   3.991   3.395   2.750  0.4792  0.3601  0.2133
 6293TIP3    H140514   3.959   3.313   2.715  0.8819  0.0309  0.6012
 6293TIP3    H240515   3.922   3.459   2.729  2.0656  0.9446 -4.0826
 6294TIP3   OH240516   5.150   0.095   7.669  0.0528  0.4589  0.5604
 6294TIP3    H140517   5.138   0.065   7.578 -2.4665  1.3276  0.5218
 6294TIP3    H240518   5.133   0.189   7.665  0.4165  0.5887  1.8693
 6295TIP3   OH240519   3.887   3.604   1.732 -0.3172 -0.0534 -0.2434
 6295TIP3    H140520   3.857   3.679   1.784  0.3592 -0.1431  0.2829
 6295TIP3    H240521   3.916   3.540   1.797 -1.8553 -1.2108 -0.6466
 6296TIP3   OH240522   0.427   3.193   2.037 -0.0449  0.1529 -0.1830
 6296TIP3    H140523   0.472   3.276   2.021 -0.2776  0.3218  0.0289
 6296TIP3    H240524   0.389   3.170   1.952 -1.0580  0.9175  0.0506
 6297TIP3   OH240525   2.924   2.950   8.149 -0.6042  0.2621  0.5668
 6297TIP3    H140526   2.867   3.022   8.121  0.6878  0.6905 -1.2296
 6297TIP3    H240527   3.013   2.985   8.137  0.0454 -1.1705  1.0078
 6298TIP3   OH240528   5.182   5.483   2.635  0.3590 -0.5647  0.3274
 6298TIP3    H140529   5.132   5.553   2.678  1.3726  0.1932  0.3325
 6298TIP3    H240530   5.145   5.402   2.670  0.2668  0.0026  1.6336
 6299TIP3   OH240531   5.132   3.191   1.116  0.3189 -0.5216  0.0615
 6299TIP3    H140532   5.107   3.283   1.131  1.8593 -0.2958  1.5486
 6299TIP3    H240533   5.207   3.197   1.056 -1.0682 -0.9959 -1.7960
 6300TIP3   OH240534   3.333   4.575   6.604 -0.0959 -0.2166 -0.1618
 6300TIP3    H140535   3.367   4.586   6.693 -0.2648 -0.1446 -0.1062
 6300TIP3    H240536   3.242   4.551   6.616 -0.2601  0.3050 -0.3234
 6301TIP3   OH240537   0.692   5.998   0.101  0.0853  0.0361  0.0158
 6301TIP3    H140538   0.732   6.009   0.187 -0.5939  1.4838  0.1675
 6301TIP3    H240539   0.746   6.051   0.043  1.8868 -2.6090 -0.9594
 6302TIP3   OH240540   1.548   2.422   8.800  0.1244  0.9495  0.0443
 6302TIP3    H140541   1.479   2.489   8.807 -0.1801  0.7752 -1.0969
 6302TIP3    H240542   1.554   2.404   8.707  1.7779  1.0068  0.1097
 6303TIP3   OH240543   0.622   5.400   7.130 -0.0364 -0.2701  0.2691
 6303TIP3    H140544   0.629   5.329   7.067 -0.9116  0.0468 -0.1972
 6303TIP3    H240545   0.570   5.467   7.085 -0.1737  0.2004  1.1091
 6304TIP3   OH240546   6.056   2.414   0.379  0.4056 -0.3881 -0.1310
 6304TIP3    H140547   6.127   2.412   0.315  2.0160  0.2015  1.5423
 6304TIP3    H240548   6.065   2.332   0.427  0.5232  0.0682  0.6464
 6305TIP3   OH240549   4.562   1.659   8.606 -0.2848 -0.1433 -0.5698
 6305TIP3    H140550   4.507   1.736   8.613  0.4824  0.3045  0.7759
 6305TIP3    H240551   4.641   1.690   8.562  0.8879  0.3693  1.7520
 6306TIP3   OH240552   6.567   3.677   7.279 -0.0463  0.6521 -0.3488
 6306TIP3    H140553   6.627   3.610   7.246  2.0946  1.8447  0.9285
 6306TIP3    H240554   6.559   3.657   7.372 -1.4669  0.6987 -0.4328
 6307TIP3   OH240555   2.822   1.022   7.095  0.5497 -0.1373 -0.3269
 6307TIP3    H140556   2.912   0.993   7.114 -0.0151 -1.1725  0.9696
 6307TIP3    H240557   2.789   1.054   7.179 -0.1766  0.5621 -0.8719
 6308TIP3   OH240558   4.211   0.907   7.301  0.0710  0.6983  0.2915
 6308TIP3    H140559   4.251   0.834   7.349 -0.0902  0.5715  0.2354
 6308TIP3    H240560   4.121   0.878   7.286  0.6021 -0.0965 -1.7599
 6309TIP3   OH240561   6.658   0.153   0.962 -0.5013 -0.0786  0.4613
 6309TIP3    H140562   6.613   0.107   0.891  0.0580  1.9254 -1.2746
 6309TIP3    H240563   6.605   0.133   1.039  0.8031 -5.2831  0.3937
 6310TIP3   OH240564   6.604   6.709   1.113  0.2981 -0.0767  1.0082
 6310TIP3    H140565   6.689   6.685   1.076  0.4780  0.6803  0.9032
 6310TIP3    H240566   6.624   6.781   1.173 -0.1481 -0.5323  1.7145
 6311TIP3   OH240567   1.247   5.625   7.148 -0.0560 -0.9558  0.1448
 6311TIP3    H140568   1.336   5.596   7.169 -0.1268  0.7090  3.2470
 6311TIP3    H240569   1.259   5.710   7.105 -0.1315 -2.1238 -2.3668
 6312TIP3   OH240570   4.154   0.136   7.881  0.0830 -0.2388 -0.1001
 6312TIP3    H140571   4.219   0.206   7.878  0.8446 -0.9323 -0.0772
 6312TIP3    H240572   4.144   0.108   7.789  0.9437 -1.1343  0.0611
 6313TIP3   OH240573   2.941   1.607   8.527 -0.1848  0.3133  0.3303
 6313TIP3    H140574   3.003   1.537   8.506 -0.8069 -0.5298  1.2380
 6313TIP3    H240575   2.858   1.578   8.489 -0.3083  0.8865  0.1383
 6314TIP3   OH240576   3.362   2.109   2.823  0.0388  0.0325 -0.1576
 6314TIP3    H140577   3.327   2.089   2.736  0.2382  1.4335 -0.5820
 6314TIP3    H240578   3.305   2.177   2.857  1.0623  0.8208  0.0245
 6315TIP3   OH240579   4.646   3.098   0.132  0.1715  0.3115 -0.1250
 6315TIP3    H140580   4.633   3.097   0.037 -1.2287 -2.5990 -0.0263
 6315TIP3    H240581   4.573   3.149   0.166 -0.6632 -0.5788 -0.5381
 6316TIP3   OH240582   3.486   6.540   0.452 -0.5994 -0.4862 -0.3460
 6316TIP3    H140583   3.428   6.501   0.518  0.8810 -0.1501  1.2419
 6316TIP3    H240584   3.529   6.465   0.411  2.2784 -0.7583  2.7325
 6317TIP3   OH240585   2.594   4.145   0.641  0.7906  0.3180 -0.0507
 6317TIP3    H140586   2.592   4.199   0.720  0.7308  2.1737 -1.2720
 6317TIP3    H240587   2.515   4.169   0.594  0.5047 -1.2355 -0.4176
 6318TIP3   OH240588   0.880   1.298   0.507 -0.3682  0.2735 -0.1136
 6318TIP3    H140589   0.963   1.335   0.476 -1.0429  0.1242 -2.2353
 6318TIP3    H240590   0.835   1.269   0.428 -3.1230  1.7300  0.7763
 6319TIP3   OH240591   5.128   1.576   7.172  0.0011  0.0818 -0.1804
 6319TIP3    H140592   5.190   1.515   7.210  0.9575  1.3318  0.3252
 6319TIP3    H240593   5.043   1.534   7.183  0.2239  0.2269  3.1770
 6320TIP3   OH240594   2.282   1.124   1.676 -0.3322 -0.2219  0.2330
 6320TIP3    H140595   2.250   1.051   1.623 -1.1420  0.9149 -0.8924
 6320TIP3    H240596   2.354   1.087   1.727  0.4362 -1.3775 -1.5997
 6321TIP3   OH240597   5.751   4.693   1.798 -0.8216  0.8327  0.4531
 6321TIP3    H140598   5.719   4.606   1.821  1.5321  0.2767  1.9865
 6321TIP3    H240599   5.696   4.753   1.848 -2.6025  0.3049 -0.7747
 6322TIP3   OH240600   3.732   1.092   2.456 -0.7297 -0.6595 -0.4770
 6322TIP3    H140601   3.672   1.030   2.415  0.7147 -1.1409 -1.9720
 6322TIP3    H240602   3.697   1.178   2.433 -1.8587 -0.8935  0.2694
 6323TIP3   OH240603   2.927   0.613   8.725 -0.4901  0.0610 -0.6208
 6323TIP3    H140604   2.910   0.596   8.818  2.2206  0.0129 -0.0634
 6323TIP3    H240605   2.848   0.580   8.681 -1.6902 -0.2833  1.5952
 6324TIP3   OH240606   1.453   3.291   0.876  0.5152 -0.5736 -0.7329
 6324TIP3    H140607   1.523   3.243   0.920 -0.9448 -2.1668 -0.0353
 6324TIP3    H240608   1.435   3.365   0.934 -0.4326 -1.8733  0.6986
 6325TIP3   OH240609   4.187   1.255   2.917 -0.6688  0.3241  0.0614
 6325TIP3    H140610   4.260   1.210   2.874 -1.3454 -1.1119  0.3402
 6325TIP3    H240611   4.212   1.347   2.917  1.8707 -0.2637  1.4885
 6326TIP3   OH240612   4.087   4.009   8.766  0.1500 -0.8253 -0.4342
 6326TIP3    H140613   4.019   4.052   8.714  1.9800  0.7029 -1.7129
 6326TIP3    H240614   4.087   4.056   8.849  1.5547  1.2208 -1.5072
 6327TIP3   OH240615   1.606   5.384   7.533  0.2643  0.2309  0.3882
 6327TIP3    H140616   1.519   5.393   7.494  0.2797  1.3492  0.5698
 6327TIP3    H240617   1.660   5.348   7.463  0.3424  2.3877 -0.7462
 6328TIP3   OH240618   1.004   1.053   8.284  0.4581  0.2157  0.0836
 6328TIP3    H140619   0.970   1.059   8.195  0.5778  2.2520  0.1274
 6328TIP3    H240620   0.968   0.971   8.318  0.6737 -0.7777 -1.9199
 6329TIP3   OH240621   6.501   0.502   2.813  0.3230  0.2143 -0.7638
 6329TIP3    H140622   6.418   0.458   2.834 -0.5022  1.6272 -0.9135
 6329TIP3    H240623   6.478   0.595   2.811  1.8562  0.6024 -1.1592
 6330TIP3   OH240624   0.765   1.970   2.165 -0.2876  0.5277 -0.2040
 6330TIP3    H140625   0.713   2.043   2.129  0.3492  0.9274 -0.3349
 6330TIP3    H240626   0.763   1.903   2.097 -0.4203  0.6411 -0.3128
 6331TIP3   OH240627   1.132   1.001   0.164  0.2842 -0.2944  0.5534
 6331TIP3    H140628   1.190   0.927   0.145  2.5042  1.9759 -2.3615
 6331TIP3    H240629   1.056   0.987   0.108  0.7286 -0.3756 -0.0394
 6332TIP3   OH240630   3.864   3.864   0.870 -0.9085  0.0292  0.3858
 6332TIP3    H140631   3.955   3.885   0.893 -1.0288 -0.1805  1.0786
 6332TIP3    H240632   3.871   3.818   0.786 -0.2053 -1.4566  1.2088
 6333TIP3   OH240633   3.192   2.104   0.387 -0.0294  0.1645  0.5279
 6333TIP3    H140634   3.244   2.184   0.402 -0.4057  0.5358 -0.0740
 6333TIP3    H240635   3.179   2.103   0.292 -1.3659  0.2355  0.6922
 6334TIP3   OH240636   5.405   6.252   8.823  0.2058  0.1419  0.0095
 6334TIP3    H140637   5.388   6.162   8.850 -0.3051 -0.3121 -1.7151
 6334TIP3    H240638   5.498   6.254   8.802 -0.3832 -0.9875 -3.2456
 6335TIP3   OH240639   4.572   1.689   8.865  0.5476 -0.1795  0.6032
 6335TIP3    H140640   4.522   1.632   8.924  0.5215 -0.1344  0.6241
 6335TIP3    H240641   4.559   1.651   8.778 -0.4935  0.5173  0.4395
 6336TIP3   OH240642   2.243   5.160   7.730 -0.4616  0.1460 -0.3870
 6336TIP3    H140643   2.325   5.146   7.778  0.2251  1.1699 -1.2266
 6336TIP3    H240644   2.179   5.105   7.776  0.9129 -1.5079 -0.3704
 6337TIP3   OH240645   1.514   6.299   7.730 -0.5368  0.1508  0.3858
 6337TIP3    H140646   1.592   6.259   7.768  0.4898  1.0706 -0.6507
 6337TIP3    H240647   1.452   6.227   7.721  0.5649 -0.8240  0.2944
 6338TIP3   OH240648   2.251   5.356   3.141 -0.0416  0.0482 -0.1054
 6338TIP3    H140649   2.259   5.417   3.067 -0.9957  2.2055  1.4648
 6338TIP3    H240650   2.301   5.396   3.211 -0.9403 -0.8195  1.0769
 6339TIP3   OH240651   4.400   3.320   8.055  0.4595 -0.4131 -0.5136
 6339TIP3    H140652   4.461   3.329   8.129  1.6261  1.3162 -1.6090
 6339TIP3    H240653   4.364   3.408   8.043 -3.1984 -1.5233  0.7385
 6340TIP3   OH240654   1.752   4.614   8.486  0.0510 -0.1036 -0.3430
 6340TIP3    H140655   1.753   4.587   8.395 -1.2499  2.4108 -1.1902
 6340TIP3    H240656   1.845   4.626   8.508  0.3753 -0.6438 -1.3303
 6341TIP3   OH240657   5.998   6.738   0.890 -0.0133 -0.4656 -0.1834
 6341TIP3    H140658   6.089   6.763   0.877 -0.3749 -0.1287 -2.4582
 6341TIP3    H240659   5.998   6.642   0.883  0.0255 -0.3894 -1.3810
 6342TIP3   OH240660   3.309   1.498   1.139  0.5291 -0.0865  0.0321
 6342TIP3    H140661   3.342   1.435   1.204 -0.3964 -2.2219 -1.4459
 6342TIP3    H240662   3.332   1.460   1.055  0.5312  1.9600 -0.9524
 6343TIP3   OH240663   1.101   5.648   7.936  0.5206  0.3212  0.2394
 6343TIP3    H140664   1.006   5.636   7.942  0.3660  0.6063 -1.2341
 6343TIP3    H240665   1.125   5.693   8.017 -0.9126  2.0429 -0.2303
 6344TIP3   OH240666   2.590   5.024   8.349 -0.0531 -0.2419  0.0740
 6344TIP3    H140667   2.670   5.067   8.318 -0.1962  1.2277  1.6527
 6344TIP3    H240668   2.524   5.093   8.351 -0.4963 -0.6667  1.9207
 6345TIP3   OH240669   1.300   5.792   8.911  0.7286 -0.2669  0.8402
 6345TIP3    H140670   1.344   5.764   8.991 -0.4577 -0.8322  1.3194
 6345TIP3    H240671   1.207   5.780   8.929  0.4699 -1.5782 -1.0597
 6346TIP3   OH240672   6.125   4.781   1.957 -0.3093 -0.1566  0.1698
 6346TIP3    H140673   6.136   4.702   2.009 -2.2738 -1.0227 -0.6411
 6346TIP3    H240674   6.201   4.781   1.898  2.2937  1.1673  3.2228
 6347TIP3   OH240675   4.043   1.551   8.630 -0.2756  0.7408  0.4222
 6347TIP3    H140676   3.976   1.604   8.673 -0.9945 -0.1913  0.4946
 6347TIP3    H240677   4.009   1.462   8.635  0.2635  0.4408 -0.8860
 6348TIP3   OH240678   6.522   5.960   1.724  0.2305  0.4802 -0.6287
 6348TIP3    H140679   6.542   6.053   1.716 -1.2388  0.6823 -2.6898
 6348TIP3    H240680   6.429   5.953   1.703  0.6235 -1.5919 -1.9413
 6349TIP3   OH240681   5.837   6.731   8.738  0.4184 -0.5796 -0.1946
 6349TIP3    H140682   5.858   6.652   8.688 -0.6622 -0.0499 -1.5553
 6349TIP3    H240683   5.877   6.802   8.689  2.0050 -0.2942  1.4113
 6350TIP3   OH240684   5.104   4.831   2.894  0.4007  0.4567 -0.0929
 6350TIP3    H140685   5.039   4.891   2.931  1.0644 -0.0170  1.9628
 6350TIP3    H240686   5.163   4.811   2.967  1.0275 -1.5913 -1.0787
 6351TIP3   OH240687   1.241   0.301   2.598  0.1400 -0.5644  0.2122
 6351TIP3    H140688   1.318   0.359   2.597  0.0168 -0.3845  0.9194
 6351TIP3    H240689   1.217   0.292   2.505  0.5435  0.0059  0.0452
 6352TIP3   OH240690   5.083   0.872   0.706  0.2182 -0.5909 -0.2221
 6352TIP3    H140691   5.081   0.920   0.788  1.9203  1.9178 -1.5317
 6352TIP3    H240692   5.023   0.799   0.720 -0.8304  0.6666  2.6463
 6353TIP3   OH240693   3.849   3.160   1.385 -0.0139 -0.0049  0.0937
 6353TIP3    H140694   3.761   3.123   1.380  0.4825 -1.5191  1.8021
 6353TIP3    H240695   3.853   3.200   1.472  0.9500  0.1517 -0.0183
 6354TIP3   OH240696   1.973   2.352   0.908 -0.3821 -0.0538 -0.1931
 6354TIP3    H140697   2.013   2.429   0.868  2.5045 -1.4471 -0.2924
 6354TIP3    H240698   1.940   2.383   0.992 -0.7611  1.5775 -0.8939
 6355TIP3   OH240699   3.926   5.280   0.913 -0.3217 -0.0779 -0.1364
 6355TIP3    H140700   3.866   5.355   0.911  0.2159  0.4135  1.3364
 6355TIP3    H240701   3.900   5.227   0.837 -0.7914  1.5224 -1.1424
 6356TIP3   OH240702   0.321   5.898   8.511  0.8508 -0.8085  0.1711
 6356TIP3    H140703   0.238   5.933   8.478  1.1165 -0.2551  0.0860
 6356TIP3    H240704   0.303   5.878   8.603  1.5497  2.5265  1.1483
 6357TIP3   OH240705   4.769   4.226   7.807  0.0999 -0.3491 -0.3504
 6357TIP3    H140706   4.753   4.244   7.715 -1.1825 -1.1796 -0.3123
 6357TIP3    H240707   4.759   4.131   7.815 -0.9271 -0.1709  0.8301
 6358TIP3   OH240708   0.217   6.327   1.918 -0.0868  0.0219  0.6156
 6358TIP3    H140709   0.297   6.288   1.952  0.1813 -0.7757 -0.8683
 6358TIP3    H240710   0.192   6.272   1.845  0.5944  2.8562 -1.9508
 6359TIP3   OH240711   0.758   1.681   2.189  0.1648  0.3657  0.5376
 6359TIP3    H140712   0.822   1.611   2.178 -0.2413  0.0873 -0.1041
 6359TIP3    H240713   0.684   1.654   2.135 -0.2292  1.0093  0.7479
 6360TIP3   OH240714   2.742   6.054   3.053  0.0538  0.3341 -0.6977
 6360TIP3    H140715   2.712   6.139   3.021 -2.0711 -0.0036  0.2604
 6360TIP3    H240716   2.726   5.993   2.981 -0.0049  0.4569 -0.7875
 6361TIP3   OH240717   0.084   1.948   1.950 -0.4179 -0.2788  0.0834
 6361TIP3    H140718   0.170   1.929   1.988 -0.4033 -1.3778 -0.4539
 6361TIP3    H240719   0.021   1.917   2.015 -0.3943 -2.4435 -0.8476
 6362TIP3   OH240720   5.279   5.066   0.493 -0.5209 -0.1163 -0.0958
 6362TIP3    H140721   5.229   5.004   0.440  0.1570  0.5630 -1.5919
 6362TIP3    H240722   5.271   5.149   0.446 -0.8700  0.7969  1.5148
 6363TIP3   OH240723   4.909   3.311   0.388  0.5294 -0.4929  0.4235
 6363TIP3    H140724   4.929   3.264   0.307  0.8997  1.2081 -0.5137
 6363TIP3    H240725   4.984   3.292   0.446  0.7603 -0.8974 -0.0027
 6364TIP3   OH240726   3.385   5.234   0.899 -0.5027 -0.0896 -0.1115
 6364TIP3    H140727   3.317   5.168   0.912  0.5019 -1.1335 -0.0209
 6364TIP3    H240728   3.369   5.299   0.968 -0.8714 -0.7810  0.4584
 6365TIP3   OH240729   0.710   3.699   1.569 -0.2706 -0.7393  0.4085
 6365TIP3    H140730   0.661   3.633   1.520 -0.0033  0.2924 -1.3528
 6365TIP3    H240731   0.647   3.736   1.630 -1.0876 -0.9944 -0.2554
 6366TIP3   OH240732   6.710   5.790   1.101 -0.0763 -0.2446  0.3980
 6366TIP3    H140733   6.805   5.781   1.098  0.1007  0.8357  1.7287
 6366TIP3    H240734   6.677   5.708   1.063  1.4001 -1.7663  2.1567
 6367TIP3   OH240735   1.433   3.040   1.302 -0.0496  0.7808 -0.3404
 6367TIP3    H140736   1.468   3.054   1.391  1.3911  1.5014 -0.9865
 6367TIP3    H240737   1.391   3.123   1.280  2.1208  1.6779 -1.3894
 6368TIP3   OH240738   6.004   5.009   2.050 -0.1085 -0.2935  0.2714
 6368TIP3    H140739   6.077   5.071   2.044 -0.2413 -0.1040  0.5917
 6368TIP3    H240740   6.045   4.923   2.040  0.2861 -0.2425  1.3310
 6369TIP3   OH240741   3.386   2.478   7.342  0.1182  0.0475  0.4424
 6369TIP3    H140742   3.374   2.383   7.349 -1.7030  0.2382  0.2449
 6369TIP3    H240743   3.392   2.494   7.248 -0.6004  0.2368  0.4276
 6370TIP3   OH240744   1.303   0.038   1.847  0.6076 -0.6810 -0.0001
 6370TIP3    H140745   1.297   0.069   1.937  1.5378  0.6370 -0.3727
 6370TIP3    H240746   1.266  -0.051   1.850  1.3731 -0.9816  1.8202
 6371TIP3   OH240747   1.232   2.349   0.996  0.2523 -0.3735  0.5531
 6371TIP3    H140748   1.283   2.411   1.049  2.5774 -0.5101 -1.3288
 6371TIP3    H240749   1.289   2.272   0.989  0.0726 -0.3469 -2.0527
 6372TIP3   OH240750   3.547   1.240   1.934 -0.2800 -0.0999  0.7714
 6372TIP3    H140751   3.599   1.171   1.892 -1.2900 -1.3040  1.4427
 6372TIP3    H240752   3.571   1.236   2.026  0.8079  1.5298  0.5974
 6373TIP3   OH240753   4.647   2.946   6.545  0.4195  0.3848  0.9175
 6373TIP3    H140754   4.729   2.994   6.536  1.1147 -1.0132 -0.9113
 6373TIP3    H240755   4.592   2.980   6.475  0.1667 -0.0509  0.9048
 6374TIP3   OH240756   4.894   5.844   1.861  0.1341 -0.3435 -0.0831
 6374TIP3    H140757   4.846   5.879   1.785  0.1737 -1.2107 -0.5209
 6374TIP3    H240758   4.986   5.857   1.838  0.1730 -1.6381 -0.7002
 6375TIP3   OH240759   0.103   4.301   8.858 -0.2232  0.0861 -0.2016
 6375TIP3    H140760   0.065   4.368   8.917 -0.5321 -1.2012  1.1226
 6375TIP3    H240761   0.145   4.352   8.789 -0.6308  1.6567  0.6429
 6376TIP3   OH240762   5.781   3.263   7.164 -0.0837 -0.0673 -0.1378
 6376TIP3    H140763   5.876   3.246   7.163 -0.1246 -0.3307  0.2860
 6376TIP3    H240764   5.774   3.358   7.171  0.1639 -0.1552  1.8513
 6377TIP3   OH240765   6.043   5.773   7.118 -0.0582 -0.4196  0.0347
 6377TIP3    H140766   5.985   5.757   7.043  0.4452  0.2239 -0.5018
 6377TIP3    H240767   6.041   5.868   7.129  0.9557 -0.3876 -0.0378
 6378TIP3   OH240768   5.131   1.402   1.523  0.4067  0.4962 -0.1753
 6378TIP3    H140769   5.204   1.462   1.537 -0.1564  1.2927 -0.5923
 6378TIP3    H240770   5.058   1.441   1.571  0.6029 -1.0696  1.5340
 6379TIP3   OH240771   2.287   4.572   1.196  0.0130 -0.3466 -0.3366
 6379TIP3    H140772   2.279   4.595   1.289 -0.5559 -0.2842 -0.3968
 6379TIP3    H240773   2.335   4.490   1.196  0.4866 -0.0755 -0.0174
 6380TIP3   OH240774   3.612   6.148   0.541 -0.0964  0.4346 -0.3762
 6380TIP3    H140775   3.693   6.099   0.529  0.4569  1.0631  0.6346
 6380TIP3    H240776   3.543   6.081   0.543  0.7352 -0.4258  1.9638
 6381TIP3   OH240777   4.086   2.214   8.197  0.0622 -0.1145  0.0913
 6381TIP3    H140778   4.148   2.153   8.237  0.9209  0.6923  0.0302
 6381TIP3    H240779   4.029   2.240   8.269 -0.8255 -1.5787 -0.0464
 6382TIP3   OH240780   3.472   4.012   1.490  0.1651  0.1098  0.2895
 6382TIP3    H140781   3.420   3.931   1.493 -0.4622  0.4085 -1.5700
 6382TIP3    H240782   3.557   3.986   1.526 -0.4496 -1.0345  0.9878
 6383TIP3   OH240783   3.672   3.498   1.097  0.6232 -0.0762  0.6701
 6383TIP3    H140784   3.656   3.411   1.134  1.6178 -1.3843 -1.7279
 6383TIP3    H240785   3.757   3.524   1.132  1.6273 -1.3691 -0.6354
 6384TIP3   OH240786   2.742   0.183   7.242 -0.0600 -0.3907  0.3832
 6384TIP3    H140787   2.704   0.184   7.154 -0.4502 -3.5428  0.3964
 6384TIP3    H240788   2.680   0.132   7.294  2.2202 -2.4008  1.3451
 6385TIP3   OH240789   1.155   5.968   1.718  0.0223  0.2614  0.5278
 6385TIP3    H140790   1.139   6.008   1.804 -0.8698  0.1306  0.4346
 6385TIP3    H240791   1.224   6.021   1.679  0.8404 -0.0113  1.5452
 6386TIP3   OH240792   2.089   3.181   2.081  0.3161  0.0208  0.4440
 6386TIP3    H140793   2.076   3.264   2.033  0.2822 -0.9048 -1.2247
 6386TIP3    H240794   2.184   3.177   2.096  0.0555  1.7806  3.3114
 6387TIP3   OH240795   4.588   1.745   0.503 -0.2676  0.4748  0.5099
 6387TIP3    H140796   4.613   1.656   0.527  1.3251  0.7936  0.1566
 6387TIP3    H240797   4.504   1.759   0.548 -0.9789 -1.4634 -0.0995
 6388TIP3   OH240798   6.017   5.844   1.901  0.0054  0.4378  0.5160
 6388TIP3    H140799   6.107   5.818   1.922  0.2095  0.7772  0.0838
 6388TIP3    H240800   5.996   5.911   1.966  0.1774  0.5713  0.4370
 6389TIP3   OH240801   3.405   2.644   2.253 -0.6936 -0.0337 -0.3510
 6389TIP3    H140802   3.365   2.727   2.277 -0.2039  1.1268 -3.1485
 6389TIP3    H240803   3.439   2.609   2.335 -0.9043  2.5385  0.9217
 6390TIP3   OH240804   0.420   6.415   2.697  0.1741 -0.1395 -0.1226
 6390TIP3    H140805   0.369   6.350   2.648 -0.2191 -0.5739  0.8339
 6390TIP3    H240806   0.374   6.498   2.682 -0.3944 -0.4013  0.1281
 6391TIP3   OH240807   4.396   5.904   7.442  0.1725 -0.1819  0.1642
 6391TIP3    H140808   4.347   5.882   7.521 -0.3483 -0.8415 -0.3237
 6391TIP3    H240809   4.350   5.856   7.372  1.2656 -0.4725 -0.3681
 6392TIP3   OH240810   5.857   3.505   0.342 -0.3478 -0.1290  0.0882
 6392TIP3    H140811   5.810   3.466   0.268 -0.7309  0.8004 -0.1797
 6392TIP3    H240812   5.788   3.527   0.405 -0.1866  0.3880  0.0942
 6393TIP3   OH240813   0.913   0.350   1.258 -0.1010 -0.1632 -0.0067
 6393TIP3    H140814   0.826   0.387   1.247  0.1963  0.6232  0.2166
 6393TIP3    H240815   0.899   0.268   1.304 -0.7141  0.0056  0.1124
 6394TIP3   OH240816   4.084   1.391   0.413  0.0527  0.2838  0.0704
 6394TIP3    H140817   4.122   1.419   0.496  1.7342 -1.9640  0.1492
 6394TIP3    H240818   4.140   1.431   0.346 -0.5171  1.0311  0.0250
 6395TIP3   OH240819   5.405   5.459   7.084 -0.0433 -0.0751 -0.0800
 6395TIP3    H140820   5.426   5.550   7.061 -1.6420  0.1672 -0.7024
 6395TIP3    H240821   5.487   5.412   7.071  0.8503  1.2857  0.3599
 6396TIP3   OH240822   3.812   5.636   8.314  0.8785 -0.1010 -0.0842
 6396TIP3    H140823   3.852   5.550   8.303 -2.3603 -1.9473  1.0342
 6396TIP3    H240824   3.849   5.669   8.396  1.9032 -0.5722 -0.3400
 6397TIP3   OH240825   2.613   4.276   8.087 -0.1818 -0.4626 -0.6106
 6397TIP3    H140826   2.676   4.313   8.149 -1.4711  1.1077 -0.1885
 6397TIP3    H240827   2.572   4.204   8.136 -0.4146  0.0569 -0.0328
 6398TIP3   OH240828   5.926   0.078   8.550  0.3981  0.7331 -0.8201
 6398TIP3    H140829   5.897   0.151   8.495  1.2019  0.5465 -1.5027
 6398TIP3    H240830   6.006   0.110   8.593  0.1400  0.6434 -0.2596
 6399TIP3   OH240831   1.719   5.853   0.128  0.1191  0.2790  0.2336
 6399TIP3    H140832   1.680   5.904   0.058 -0.0244 -1.1775 -0.7874
 6399TIP3    H240833   1.805   5.892   0.142 -0.1314  1.0157 -0.2506
 6400TIP3   OH240834   4.262   3.009   8.330  0.0952 -0.2891  0.0945
 6400TIP3    H140835   4.223   2.950   8.395  1.8253 -2.6856 -0.9256
 6400TIP3    H240836   4.284   2.953   8.256  1.8717  1.6373 -0.9347
 6401TIP3   OH240837   3.567   5.433   1.963  0.9643  0.1031 -0.8211
 6401TIP3    H140838   3.505   5.384   2.018  0.6202 -0.5673 -1.7936
 6401TIP3    H240839   3.631   5.367   1.934 -0.0033 -0.0135 -2.8666
 6402TIP3   OH240840   6.650   1.431   0.034 -0.2272 -0.0051  0.1781
 6402TIP3    H140841   6.734   1.431  -0.011 -0.8239 -2.5488 -1.1128
 6402TIP3    H240842   6.596   1.491  -0.018  0.0610 -0.3666 -0.5592
 6403TIP3   OH240843   1.603   6.700   0.253  0.0759 -0.2166 -0.2185
 6403TIP3    H140844   1.587   6.663   0.167 -1.8735  0.1642 -0.0630
 6403TIP3    H240845   1.692   6.736   0.248 -0.3448  0.6414 -2.3725
 6404TIP3   OH240846   6.055   0.413   8.811  1.0135  0.2618  0.3570
 6404TIP3    H140847   6.100   0.359   8.875  0.4143  1.3016  1.6922
 6404TIP3    H240848   5.999   0.353   8.763  2.8275 -0.8424 -0.4812
 6405TIP3   OH240849   3.767   1.089   1.847  0.1481 -0.2052  0.2696
 6405TIP3    H140850   3.839   1.115   1.790  0.2025 -0.7529  0.0740
 6405TIP3    H240851   3.764   0.993   1.838 -1.5016 -0.0879 -0.8390
 6406TIP3   OH240852   2.819   4.560   8.236 -0.0704 -0.4323  0.4090
 6406TIP3    H140853   2.911   4.538   8.221 -0.0066  0.1370 -0.0546
 6406TIP3    H240854   2.801   4.529   8.325  0.7890  0.1893  0.8058
 6407TIP3   OH240855   1.754   3.128   1.743 -0.1721  0.0933 -0.7089
 6407TIP3    H140856   1.825   3.152   1.802 -0.1223 -1.9318  0.1265
 6407TIP3    H240857   1.686   3.194   1.759  1.1451  1.5484 -0.8968
 6408TIP3   OH240858   5.439   2.198   0.081 -0.6767  0.1318 -0.0603
 6408TIP3    H140859   5.517   2.210   0.135 -0.9079  0.1139  0.2809
 6408TIP3    H240860   5.366   2.201   0.143 -0.9925  0.7945 -0.4474
 6409TIP3   OH240861   2.331   4.769   8.298  0.5611  0.5992 -0.4803
 6409TIP3    H140862   2.309   4.860   8.281  2.0267  0.8671 -1.0624
 6409TIP3    H240863   2.273   4.719   8.240  0.0388  1.1698 -0.4598
 6410TIP3   OH240864   1.227   0.222   2.067  0.3262  0.3024  0.0965
 6410TIP3    H140865   1.202   0.220   2.159  1.1779 -2.5073  0.3768
 6410TIP3    H240866   1.316   0.257   2.068  1.3917 -2.1670  0.7792
 6411TIP3   OH240867   1.128   3.059   7.476 -0.6213 -0.0951 -0.0713
 6411TIP3    H140868   1.196   3.022   7.419 -1.3555 -0.0233 -1.0297
 6411TIP3    H240869   1.174   3.081   7.557  0.3338 -0.7865 -0.3988
 6412TIP3   OH240870   0.256   3.574   7.791 -0.2160  0.1166  0.6428
 6412TIP3    H140871   0.164   3.552   7.806 -0.1795 -0.3866  0.1413
 6412TIP3    H240872   0.259   3.607   7.702  0.3827 -1.6521 -0.0345
 6413TIP3   OH240873   2.263   3.597   1.318 -0.3150 -0.4627 -0.1760
 6413TIP3    H140874   2.276   3.505   1.342 -2.2886 -1.1947 -1.6570
 6413TIP3    H240875   2.199   3.630   1.380 -0.0817 -0.2605 -0.0407
 6414TIP3   OH240876   5.135   5.891   8.902 -0.1930  0.6214  0.4775
 6414TIP3    H140877   5.082   5.888   8.822 -1.5876  0.4748  1.3811
 6414TIP3    H240878   5.181   5.975   8.896  0.8377  0.0019 -1.1300
 6415TIP3   OH240879   0.825   4.804   2.791  0.0848 -1.0148  0.0869
 6415TIP3    H140880   0.798   4.855   2.715  0.2547 -0.3918  0.4337
 6415TIP3    H240881   0.869   4.867   2.848  1.4319 -1.8045 -0.0277
 6416TIP3   OH240882   2.664   2.702   0.648 -0.0927 -0.2530  0.2997
 6416TIP3    H140883   2.747   2.719   0.693  0.1524  0.3691 -0.3605
 6416TIP3    H240884   2.676   2.739   0.561 -0.5600 -1.4275 -0.2870
 6417TIP3   OH240885   3.856   5.750   0.878 -0.4797  0.4505 -0.0101
 6417TIP3    H140886   3.820   5.808   0.945 -2.9764 -0.3326 -0.5416
 6417TIP3    H240887   3.950   5.746   0.897 -0.7387  2.0673  1.9861
 6418TIP3   OH240888   4.082   1.741   8.184  0.0410  0.2132 -0.5547
 6418TIP3    H140889   4.011   1.677   8.195 -1.6047  1.9845 -0.2583
 6418TIP3    H240890   4.123   1.747   8.270  0.5168 -0.7391 -0.6969
 6419TIP3   OH240891   5.157   0.201   2.232 -0.3166  0.2259  0.2656
 6419TIP3    H140892   5.069   0.167   2.249  0.0707 -1.4211 -0.8167
 6419TIP3    H240893   5.179   0.169   2.144  1.8465 -0.4364  0.9831
 6420TIP3   OH240894   3.749   0.161   1.391 -0.5819 -0.2875  0.5538
 6420TIP3    H140895   3.781   0.181   1.479  0.4325  0.3122  0.0626
 6420TIP3    H240896   3.811   0.097   1.356 -0.9826 -0.5257  0.2726
 6421TIP3   OH240897   3.114   0.317   7.229  0.0856 -0.0099 -0.3304
 6421TIP3    H140898   3.115   0.386   7.162 -1.5760 -0.3348 -0.7370
 6421TIP3    H240899   3.031   0.329   7.274  0.4436 -0.8457  0.5888
 6422TIP3   OH240900   3.292   1.289   2.743 -0.0140  0.2022 -0.3432
 6422TIP3    H140901   3.244   1.351   2.797  0.3537  0.2501 -0.0682
 6422TIP3    H240902   3.242   1.285   2.661 -0.2280  0.6008 -0.2357
 6423TIP3   OH240903   6.590   5.617   0.082  0.1735  0.7407  0.0214
 6423TIP3    H140904   6.535   5.652   0.152 -0.0537 -0.1472  0.3032
 6423TIP3    H240905   6.591   5.685   0.016 -1.4319  0.7099 -0.0720
 6424TIP3   OH240906   4.865   4.753   7.257  0.4660 -0.1035 -0.0699
 6424TIP3    H140907   4.934   4.794   7.309  0.3399  0.6176 -0.4654
 6424TIP3    H240908   4.909   4.685   7.207  0.6348 -0.6414  0.7746
 6425TIP3   OH240909   5.594   3.085   7.618 -0.0825  0.4454 -0.7038
 6425TIP3    H140910   5.547   3.127   7.545 -2.5187  0.3210  0.6824
 6425TIP3    H240911   5.538   3.011   7.643 -0.4079  1.6343  2.5485
 6426TIP3   OH240912   0.996   5.729   8.892  0.2917 -0.4839  0.1562
 6426TIP3    H140913   0.993   5.635   8.876 -0.6085 -0.6064  1.0286
 6426TIP3    H240914   0.923   5.765   8.842  0.4363 -0.2817  0.0853
 6427TIP3   OH240915   5.615   5.025   1.133  0.0124  0.1392  0.0793
 6427TIP3    H140916   5.668   4.987   1.063 -0.3913 -1.2187  0.4760
 6427TIP3    H240917   5.643   5.116   1.138  0.8209 -0.0288 -1.1087
 6428TIP3   OH240918   4.128   3.486   8.549 -0.1176  0.4180  0.4939
 6428TIP3    H140919   4.114   3.558   8.488 -2.3138  0.9092  1.4806
 6428TIP3    H240920   4.143   3.410   8.494  2.0841  1.5479 -0.5782
 6429TIP3   OH240921   2.078   6.325   0.567 -0.4171  0.6762  0.5397
 6429TIP3    H140922   2.135   6.387   0.521 -0.2348  1.9772  2.4136
 6429TIP3    H240923   1.990   6.356   0.548 -0.3909  0.5096  0.1351
 6430TIP3   OH240924   1.454   2.568   2.712  0.3406  0.0718 -0.4237
 6430TIP3    H140925   1.407   2.645   2.745  1.1979  0.1171  0.7472
 6430TIP3    H240926   1.534   2.603   2.674  1.1805 -0.2783  0.9466
 6431TIP3   OH240927   1.322   2.984   2.156 -0.2185 -0.2836 -0.2718
 6431TIP3    H140928   1.322   3.071   2.194  2.6059  0.5044 -1.8260
 6431TIP3    H240929   1.245   2.982   2.100 -1.0920  0.6628  0.8513
 6432TIP3   OH240930   4.385   2.614   8.754 -0.0784 -0.3404  0.3300
 6432TIP3    H140931   4.341   2.676   8.812 -0.1042 -1.1939  1.2533
 6432TIP3    H240932   4.476   2.644   8.752 -0.0415 -0.3820  0.9597
 6433TIP3   OH240933   5.318   1.413   7.289  0.1985 -0.2232 -0.2093
 6433TIP3    H140934   5.382   1.342   7.288 -0.2010 -0.6935  1.7449
 6433TIP3    H240935   5.364   1.486   7.331 -0.1414 -0.1621  0.0657
 6434TIP3   OH240936   3.401   6.760   7.399 -0.3001 -0.3170  0.2680
 6434TIP3    H140937   3.475   6.815   7.372 -0.3102 -0.8404 -0.9379
 6434TIP3    H240938   3.325   6.798   7.355 -0.6239 -0.2271  0.8950
 6435TIP3   OH240939   2.764   2.968   7.478  0.3217  0.3970 -0.3567
 6435TIP3    H140940   2.776   3.061   7.498  0.5158  0.4071 -0.5131
 6435TIP3    H240941   2.754   2.926   7.563  0.7199  0.4929 -0.2616
 6436TIP3   OH240942   5.316   1.600   0.452 -0.1406 -0.5361 -0.0022
 6436TIP3    H140943   5.283   1.514   0.476 -0.9713  0.0492  1.0260
 6436TIP3    H240944   5.259   1.662   0.498  0.4390  0.5653 -0.7153
 6437TIP3   OH240945   5.521   4.068   0.574  0.4292  0.0296 -0.4549
 6437TIP3    H140946   5.599   4.044   0.625  0.1192 -1.3310 -0.5648
 6437TIP3    H240947   5.493   3.985   0.534 -0.3238  0.7488 -1.4635
 6438TIP3   OH240948   2.451   5.256   0.167  0.1147  0.1773 -0.1722
 6438TIP3    H140949   2.526   5.237   0.112  0.7205  2.0243 -0.0537
 6438TIP3    H240950   2.378   5.266   0.106  0.0461 -1.0902 -0.3279
 6439TIP3   OH240951   2.629   2.631   7.912  0.5679  0.3160  0.0658
 6439TIP3    H140952   2.534   2.641   7.916  0.6043  0.4391  2.6702
 6439TIP3    H240953   2.661   2.716   7.880 -0.1962  0.3268 -0.6740
 6440TIP3   OH240954   2.904   0.399   1.693 -0.0025  0.3475  0.3795
 6440TIP3    H140955   2.905   0.343   1.615 -3.7642  0.7230 -0.1166
 6440TIP3    H240956   2.840   0.359   1.751 -0.0613  2.1294  1.6285
 6441TIP3   OH240957   2.100   3.386   1.662  0.3112  0.3261 -0.0269
 6441TIP3    H140958   2.195   3.386   1.649  0.0771 -0.7742 -2.2123
 6441TIP3    H240959   2.069   3.460   1.611 -0.0623  0.5243  0.4738
 6442TIP3   OH240960   4.315   5.990   1.697 -0.6782 -0.4448  0.2234
 6442TIP3    H140961   4.249   5.924   1.721  0.1280 -1.0535  0.8135
 6442TIP3    H240962   4.399   5.946   1.709 -0.1214  0.6647  0.5473
 6443TIP3   OH240963   2.171   6.335   1.923 -0.2465  0.4238 -0.7071
 6443TIP3    H140964   2.245   6.279   1.947 -1.5788  0.1363  3.5447
 6443TIP3    H240965   2.140   6.300   1.840  1.7854 -2.1661 -0.4957
 6444TIP3   OH240966   6.386   1.944   2.556  0.4039 -0.1899  0.1320
 6444TIP3    H140967   6.291   1.934   2.569  0.5911  1.0680  3.7596
 6444TIP3    H240968   6.393   2.012   2.489 -1.3491  0.8190  0.8758
 6445TIP3   OH240969   0.344   0.109   1.098 -0.3509  0.0914 -0.2350
 6445TIP3    H140970   0.259   0.137   1.064 -0.5130 -0.7294 -0.5458
 6445TIP3    H240971   0.323   0.065   1.181 -0.1780  0.2839 -0.0878
 6446TIP3   OH240972   2.269   1.780   8.718  0.1598  0.6605  0.3955
 6446TIP3    H140973   2.200   1.784   8.651  0.2222 -0.7592  0.2085
 6446TIP3    H240974   2.347   1.815   8.675 -0.2030  1.3233  0.2741
 6447TIP3   OH240975   0.842   4.048   8.668  0.2450 -0.6511  0.7187
 6447TIP3    H140976   0.827   3.953   8.666 -1.7862 -0.3816 -1.1942
 6447TIP3    H240977   0.756   4.085   8.688  0.6015  0.8156 -0.3375
 6448TIP3   OH240978   6.010   4.017   8.257 -0.1153 -0.3825  0.6043
 6448TIP3    H140979   6.007   3.963   8.336  1.6967 -1.7504 -0.1739
 6448TIP3    H240980   6.012   3.954   8.185 -2.8643  0.8344 -0.6660
 6449TIP3   OH240981   1.537   4.143   8.039  0.4283  0.3970 -0.2960
 6449TIP3    H140982   1.592   4.065   8.041 -0.2272 -0.1009 -0.9154
 6449TIP3    H240983   1.517   4.161   8.131 -2.3543 -2.3457 -0.2135
 6450TIP3   OH240984   3.622   0.695   7.289  0.0402 -0.0896  1.1541
 6450TIP3    H140985   3.717   0.705   7.276  0.4069 -0.8191  2.9636
 6450TIP3    H240986   3.614   0.623   7.352 -1.7426 -0.1579  0.9043
 6451TIP3   OH240987   5.091   3.364   2.395  0.5414 -0.0759  0.2425
 6451TIP3    H140988   5.161   3.323   2.445  0.7845  0.6003  0.4684
 6451TIP3    H240989   5.059   3.434   2.452 -0.1213 -0.1935  0.0226
 6452TIP3   OH240990   5.601   1.307   1.296 -0.0372  0.3048  0.0060
 6452TIP3    H140991   5.572   1.325   1.207 -1.0154  1.8753  0.6073
 6452TIP3    H240992   5.643   1.389   1.325  2.7000 -1.0061  0.1078
 6453TIP3   OH240993   6.400   3.324   8.531 -0.1801  0.3641 -0.3381
 6453TIP3    H140994   6.393   3.416   8.507  0.2555  0.4848 -0.0110
 6453TIP3    H240995   6.365   3.277   8.456  0.8375  0.7465 -1.0763
 6454TIP3   OH240996   1.846   1.204   2.267 -0.1021 -0.2167  0.2023
 6454TIP3    H140997   1.870   1.214   2.359 -2.5448 -1.1585  1.0188
 6454TIP3    H240998   1.838   1.110   2.254 -0.2655 -0.0747 -0.8628
 6455TIP3   OH240999   5.426   5.971   2.879 -0.0389 -0.8869 -0.4707
 6455TIP3    H141000   5.499   5.978   2.818 -0.0404 -1.2540 -0.5134
 6455TIP3    H241001   5.408   6.062   2.905  1.1595 -0.8616  0.3973
 6456TIP3   OH241002   3.898   2.890   8.392  0.5521  0.6127 -0.3042
 6456TIP3    H141003   3.951   2.900   8.471 -2.6386 -0.8209  2.2617
 6456TIP3    H241004   3.960   2.863   8.324  3.3926  1.4607  1.7532
 6457TIP3   OH241005   6.337   6.578   7.567  0.1952 -0.2111 -0.2045
 6457TIP3    H141006   6.351   6.670   7.547  0.2295 -0.2503 -0.3673
 6457TIP3    H241007   6.297   6.577   7.654  1.2959 -0.1091  0.3169
 6458TIP3   OH241008   1.168   5.487   1.747  0.3498 -0.0108  0.7854
 6458TIP3    H141009   1.132   5.532   1.823  1.1398  0.5513  0.8386
 6458TIP3    H241010   1.182   5.557   1.683 -0.1992 -0.4629  0.1646
 6459TIP3   OH241011   6.423   3.171   0.140  0.0227  0.7099  0.1627
 6459TIP3    H141012   6.341   3.133   0.171 -0.4416  1.8248  0.3764
 6459TIP3    H241013   6.399   3.215   0.058  1.0763 -1.5707 -1.4910
 6460TIP3   OH241014   4.778   5.911   8.456  0.0378 -0.0425 -0.3588
 6460TIP3    H141015   4.735   5.953   8.382  1.4829  1.2560 -0.5223
 6460TIP3    H241016   4.866   5.950   8.457  0.0157  0.0646  2.1066
 6461TIP3   OH241017   6.127   3.489   1.868 -0.0448 -0.2662 -0.1420
 6461TIP3    H141018   6.199   3.428   1.883  0.3695 -0.0492 -1.1371
 6461TIP3    H241019   6.141   3.521   1.778 -1.4113 -0.2652 -0.3797
 6462TIP3   OH241020   1.682   6.718   0.926  0.3310  0.3093  0.3119
 6462TIP3    H141021   1.654   6.699   0.836 -0.2238  2.6757 -0.0798
 6462TIP3    H241022   1.691   6.632   0.967 -1.3827 -0.7687 -1.4146
 6463TIP3   OH241023   3.356   4.184   1.301  0.5755  0.0195  0.4664
 6463TIP3    H141024   3.291   4.231   1.354  0.3323 -1.5782  1.6529
 6463TIP3    H241025   3.412   4.140   1.365  1.3054 -0.6329 -0.5881
 6464TIP3   OH241026   5.185   5.916   1.605 -0.1260 -0.0462  0.7225
 6464TIP3    H141027   5.150   5.940   1.690 -1.1418  1.0361  0.0364
 6464TIP3    H241028   5.119   5.857   1.568  0.6458 -1.0801  0.9501
 6465TIP3   OH241029   4.115   2.339   2.027  0.1758  0.8410 -0.6884
 6465TIP3    H141030   4.164   2.418   2.004  3.0416 -0.0295  1.8452
 6465TIP3    H241031   4.137   2.276   1.958  0.6678  1.2180 -0.8810
 6466TIP3   OH241032   0.611   2.505   2.507  0.3720  0.1447 -0.1323
 6466TIP3    H141033   0.525   2.523   2.545  0.4254 -1.1715  0.6766
 6466TIP3    H241034   0.637   2.588   2.467 -0.6075  1.0038  0.9290
 6467TIP3   OH241035   1.889   1.459   8.059 -0.3139  0.0015 -0.1222
 6467TIP3    H141036   1.824   1.429   7.996  2.3079 -2.8495 -1.8110
 6467TIP3    H241037   1.950   1.512   8.008 -0.1321  0.8307  0.9097
 6468TIP3   OH241038   3.394   3.130   8.835  0.4433  0.5202  0.0510
 6468TIP3    H141039   3.305   3.095   8.827  0.3376  1.1189 -2.2242
 6468TIP3    H241040   3.450   3.053   8.844 -0.2376  0.1158  1.0056
 6469TIP3   OH241041   3.847   0.213   0.210 -0.1063 -0.1557 -0.0809
 6469TIP3    H141042   3.843   0.307   0.196  1.0316  0.1626  1.4479
 6469TIP3    H241043   3.812   0.199   0.297  1.5204 -0.8814  0.5108
 6470TIP3   OH241044   2.281   4.084   1.252 -0.2835  0.0243 -0.3713
 6470TIP3    H141045   2.357   4.125   1.294  1.1753 -2.1985 -0.6982
 6470TIP3    H241046   2.294   4.099   1.159  0.1077 -0.8806 -0.4716
 6471TIP3   OH241047   2.095   6.144   0.299  0.2332 -0.2878 -0.1021
 6471TIP3    H141048   2.126   6.137   0.389  2.1570 -1.2871 -0.7755
 6471TIP3    H241049   2.170   6.176   0.250 -0.3775 -0.9421 -1.5321
 6472TIP3   OH241050   6.381   4.380   1.493 -0.3523 -0.4471  0.4298
 6472TIP3    H141051   6.410   4.340   1.411 -0.4635 -0.5349  0.4332
 6472TIP3    H241052   6.326   4.454   1.466  1.6315  1.1199  0.3659
 6473TIP3   OH241053   0.212   3.352   7.285 -0.1857 -0.6664  0.0313
 6473TIP3    H141054   0.216   3.257   7.299 -0.4979 -0.6714  0.1006
 6473TIP3    H241055   0.292   3.386   7.326  0.1119 -0.9380 -0.3210
 6474TIP3   OH241056   6.479   2.343   0.789  0.3100  0.6080 -0.2284
 6474TIP3    H141057   6.387   2.323   0.801  0.5637 -0.0034  0.8264
 6474TIP3    H241058   6.493   2.339   0.694 -0.1586 -1.9968 -0.2481
 6475TIP3   OH241059   6.338   2.133   8.567  0.4260 -0.1267  0.6623
 6475TIP3    H141060   6.396   2.188   8.515 -0.7678  1.5516  1.0137
 6475TIP3    H241061   6.269   2.107   8.506 -0.3143  0.8246  1.0664
 6476TIP3   OH241062   1.211   6.595   1.881  0.5774  0.1790  0.2843
 6476TIP3    H141063   1.296   6.552   1.866  0.3900 -0.2657  0.4780
 6476TIP3    H241064   1.152   6.523   1.904 -0.0792  0.3682 -0.7598
 6477TIP3   OH241065   5.009   6.517   7.079  0.1136 -0.2753  0.1497
 6477TIP3    H141066   5.006   6.612   7.088  0.3885 -0.2316 -0.2031
 6477TIP3    H241067   4.926   6.487   7.117 -1.0178  0.2718 -1.7304
 6478TIP3   OH241068   0.446   5.596   2.534 -0.0678  0.5497  0.6974
 6478TIP3    H141069   0.514   5.607   2.468 -0.3491  1.7648  0.5880
 6478TIP3    H241070   0.458   5.507   2.567  1.2973  0.6012  0.3779
 6479TIP3   OH241071   6.347   0.352   1.227 -0.4588  0.6204  0.4034
 6479TIP3    H141072   6.346   0.434   1.275  0.6094  0.4025  0.8270
 6479TIP3    H241073   6.424   0.358   1.170 -0.4623 -0.0236  0.3202
 6480TIP3   OH241074   6.669   1.738   1.226 -0.4419  0.2512 -0.2371
 6480TIP3    H141075   6.619   1.818   1.212  0.1954  0.7279  0.1585
 6480TIP3    H241076   6.685   1.736   1.320 -0.6253 -0.4444 -0.2174
 6481TIP3   OH241077   2.580   2.893   7.297  0.2869 -0.1075  0.0485
 6481TIP3    H141078   2.622   2.811   7.271 -0.1772  0.0859 -1.3687
 6481TIP3    H241079   2.637   2.927   7.366  2.8740  0.4552 -2.1786
 6482TIP3   OH241080   2.618   4.357   8.543  0.2492 -0.0141  0.1627
 6482TIP3    H141081   2.712   4.365   8.524  0.1406 -1.0843 -0.9551
 6482TIP3    H241082   2.580   4.440   8.513  0.3959 -0.8292 -2.5662
 6483TIP3   OH241083   5.359   0.798   0.707 -0.6318 -0.0290 -0.4041
 6483TIP3    H141084   5.374   0.892   0.721  1.3851  0.3653 -3.9379
 6483TIP3    H241085   5.265   0.792   0.690 -0.7218  1.4648 -0.6087
 6484TIP3   OH241086   5.562   0.440   0.508  0.3987 -0.0375 -0.5913
 6484TIP3    H141087   5.656   0.422   0.497  0.9120 -0.0670  2.6070
 6484TIP3    H241088   5.519   0.376   0.453  2.2282  0.3695 -2.6326
 6485TIP3   OH241089   1.227   4.939   0.388  0.2636  0.4423  0.6963
 6485TIP3    H141090   1.292   5.008   0.385 -0.0934  0.8171  1.2900
 6485TIP3    H241091   1.275   4.859   0.365  0.8989  0.7351  0.9812
 6486TIP3   OH241092   4.915   2.195   2.994 -0.1113 -0.4914  0.5736
 6486TIP3    H141093   5.009   2.185   2.976 -0.3040 -1.3606 -0.0455
 6486TIP3    H241094   4.903   2.289   3.008  0.8785 -0.3894  0.8268
 6487TIP3   OH241095   6.268   5.119   1.837 -0.3828  0.2837 -0.4319
 6487TIP3    H141096   6.360   5.141   1.821  0.3595 -1.1527  1.3869
 6487TIP3    H241097   6.242   5.068   1.761  0.0307  1.4296 -1.3740
 6488TIP3   OH241098   1.430   2.599   7.741  0.3463 -0.2011 -0.0854
 6488TIP3    H141099   1.477   2.590   7.658 -0.9530  1.3537 -1.0585
 6488TIP3    H241100   1.488   2.652   7.796 -0.2343  1.8175 -1.3218
 6489TIP3   OH241101   2.693   5.106   0.128  0.8078  0.5680 -0.0676
 6489TIP3    H141102   2.710   5.019   0.093  0.6374  0.9527 -1.1216
 6489TIP3    H241103   2.661   5.090   0.217  0.4267 -0.4558 -0.3824
 6490TIP3   OH241104   2.640   3.163   7.185 -0.1066 -0.6800  1.0738
 6490TIP3    H141105   2.611   3.071   7.186  1.9773 -1.4488 -0.7067
 6490TIP3    H241106   2.651   3.183   7.092 -1.1488  1.6398  1.3826
 6491TIP3   OH241107   2.374   6.005   8.811 -0.0689  0.0271 -0.1180
 6491TIP3    H141108   2.457   5.980   8.769 -0.3381 -0.0547 -0.6094
 6491TIP3    H241109   2.306   5.973   8.751 -0.4445  1.2818 -0.3944
 6492TIP3   OH241110   3.211   4.854   8.643 -0.1803 -0.1939 -0.0665
 6492TIP3    H141111   3.150   4.819   8.707 -0.4548 -0.5198 -0.5022
 6492TIP3    H241112   3.226   4.783   8.581  1.1807 -0.3548  0.4091
 6493TIP3   OH241113   5.042   1.023   0.926  0.4343  0.2799 -0.1912
 6493TIP3    H141114   5.123   1.045   0.971  0.4382  0.2909 -0.2037
 6493TIP3    H241115   4.986   0.986   0.994 -0.2054  1.9165  0.2090
 6494TIP3   OH241116   0.082   5.472   0.796 -0.5452 -0.0489 -0.1679
 6494TIP3    H141117  -0.002   5.447   0.758 -1.0229  1.8418 -0.4799
 6494TIP3    H241118   0.112   5.545   0.742  1.8196 -1.2982 -0.6738
 6495TIP3   OH241119   0.023   5.912   0.855 -0.2800 -0.5775  0.1200
 6495TIP3    H141120  -0.011   5.975   0.919 -0.2596 -0.5108  0.0659
 6495TIP3    H241121   0.107   5.948   0.828 -0.2748 -0.6208  0.0778
 6496TIP3   OH241122   2.528   4.648   7.452 -0.6466  0.1093  0.0447
 6496TIP3    H141123   2.499   4.675   7.365  0.5542  1.0597 -0.0808
 6496TIP3    H241124   2.595   4.582   7.436  1.5081  2.1307  0.0793
 6497TIP3   OH241125   1.482   2.184   0.271  0.2325 -0.1658  0.2323
 6497TIP3    H141126   1.464   2.199   0.178  2.1328  0.6643 -0.0373
 6497TIP3    H241127   1.559   2.128   0.272  0.7625  0.5574  1.3069
 6498TIP3   OH241128   3.369   3.456   0.756  0.0147 -0.6588 -0.3638
 6498TIP3    H141129   3.452   3.491   0.786 -0.9838 -0.1991  2.1401
 6498TIP3    H241130   3.383   3.433   0.664  2.8650 -0.6130 -0.0006
 6499TIP3   OH241131   2.327   2.229   1.508  0.0351  0.1784 -0.5364
 6499TIP3    H141132   2.391   2.230   1.437 -0.3477 -1.9139 -0.9596
 6499TIP3    H241133   2.249   2.270   1.470  0.2095  0.1309 -0.9517
 6500TIP3   OH241134   6.691   2.912   0.802  0.1429  0.1545 -0.2870
 6500TIP3    H141135   6.727   2.957   0.726  0.1802  0.3919 -0.1292
 6500TIP3    H241136   6.718   2.966   0.877 -0.4502  0.2743 -0.1597
 6501TIP3   OH241137   2.352   2.379   8.747 -0.0862  0.5623 -0.3775
 6501TIP3    H141138   2.358   2.305   8.807  0.0276  0.3437 -0.6567
 6501TIP3    H241139   2.321   2.452   8.802 -3.5189 -0.4474 -0.7340
 6502TIP3   OH241140   1.462   3.983   0.092 -0.2837 -0.4297  0.2403
 6502TIP3    H141141   1.506   3.942   0.018  0.3367 -1.9312  1.3718
 6502TIP3    H241142   1.532   3.997   0.156 -0.8488  0.5867  0.6575
 6503TIP3   OH241143   5.955   2.457   7.189  0.0984 -0.0453 -0.4550
 6503TIP3    H141144   6.030   2.406   7.219  0.8813  2.1327  1.5673
 6503TIP3    H241145   5.896   2.393   7.151  1.9731 -2.1276 -0.0421
 6504TIP3   OH241146   4.697   3.523   1.466 -0.1996  0.2929  0.5611
 6504TIP3    H141147   4.651   3.555   1.545 -0.6776 -0.2622  0.5190
 6504TIP3    H241148   4.719   3.432   1.487 -1.2523 -0.1970 -0.3218
 6505TIP3   OH241149   4.938   0.338   8.817  0.2556 -0.8920  0.1697
 6505TIP3    H141150   5.026   0.301   8.807 -0.1919 -1.9459 -0.0866
 6505TIP3    H241151   4.914   0.318   8.907 -0.2443 -1.8650 -0.1588
 6506TIP3   OH241152   3.564   6.300   0.303 -0.1495 -0.0435  0.3054
 6506TIP3    H141153   3.583   6.345   0.220 -2.4596  0.9583  0.2206
 6506TIP3    H241154   3.645   6.256   0.326 -0.0126 -2.5761 -3.8365
 6507TIP3   OH241155   3.397   0.225   8.134  0.0233  0.6320  0.4739
 6507TIP3    H141156   3.392   0.319   8.116 -3.4145  0.3235 -0.8508
 6507TIP3    H241157   3.325   0.208   8.194 -0.6716 -1.3985 -0.8132
 6508TIP3   OH241158   1.698   1.962   8.271  0.3899 -0.2621 -0.1160
 6508TIP3    H141159   1.636   1.906   8.318 -1.1964  1.6606  0.1916
 6508TIP3    H241160   1.713   2.036   8.330  1.3223  0.3412 -1.0872
 6509TIP3   OH241161   0.056   2.723   8.024 -0.1289  0.1166  0.5409
 6509TIP3    H141162  -0.022   2.668   8.026  0.4394 -0.7000  1.7313
 6509TIP3    H241163   0.128   2.663   8.044  0.7955  0.8866 -0.3325
 6510TIP3   OH241164   5.135   2.332   0.586 -0.1384  0.0310  0.3825
 6510TIP3    H141165   5.215   2.358   0.633  0.4831 -1.5958  0.2800
 6510TIP3    H241166   5.105   2.413   0.545  2.0562  0.5098 -0.4375
 6511TIP3   OH241167   4.536   4.344   1.555  0.3068  0.0377 -0.4706
 6511TIP3    H141168   4.585   4.324   1.634  0.0916  0.1869 -0.2983
 6511TIP3    H241169   4.487   4.264   1.536  0.2832  0.0347 -0.3966
 6512TIP3   OH241170   3.717   0.321   0.451  0.1625  0.4963 -0.0235
 6512TIP3    H141171   3.626   0.347   0.437  0.0704 -0.8467 -2.3077
 6512TIP3    H241172   3.768   0.397   0.425 -0.2385  1.6828  2.3370
 6513TIP3   OH241173   0.418   4.342   0.394 -0.2567  0.6840 -0.6852
 6513TIP3    H141174   0.398   4.435   0.405 -1.0182  0.4758 -0.2346
 6513TIP3    H241175   0.454   4.335   0.305  1.1320  1.6138 -0.2408
 6514TIP3   OH241176   5.274   5.171   7.100 -0.2571  0.4037 -0.1133
 6514TIP3    H141177   5.288   5.254   7.146  0.9472  0.1918 -0.0622
 6514TIP3    H241178   5.358   5.125   7.108 -1.0793 -1.0664  0.3527
 6515TIP3   OH241179   2.538   2.943   7.791 -0.4908 -0.6231  0.5921
 6515TIP3    H141180   2.625   2.913   7.767 -0.8448 -0.4187 -1.0924
 6515TIP3    H241181   2.553   3.014   7.853  0.6517  0.5698 -0.9678
 6516TIP3   OH241182   2.501   5.134   7.898  0.1504 -0.1771  0.2679
 6516TIP3    H141183   2.544   5.190   7.963  1.2710  0.2295 -0.7859
 6516TIP3    H241184   2.573   5.101   7.844 -0.8470  0.8320 -1.7972
 6517TIP3   OH241185   6.725   0.141   7.742 -0.6052  0.3640  0.5195
 6517TIP3    H141186   6.629   0.148   7.745 -0.5921  0.8303  0.0657
 6517TIP3    H241187   6.754   0.183   7.822 -0.7665  0.6463  0.4332
 6518TIP3   OH241188   1.125   6.105   2.702 -0.2129  0.7213  0.5523
 6518TIP3    H141189   1.069   6.128   2.776 -0.2424  0.7082  0.5341
 6518TIP3    H241190   1.207   6.076   2.742 -1.1702 -2.0478  0.7182
 6519TIP3   OH241191   0.840   4.347   0.077 -0.3179  0.9245  0.1267
 6519TIP3    H141192   0.838   4.386  -0.010  0.1414  0.6472 -0.0153
 6519TIP3    H241193   0.934   4.337   0.096 -0.2865  3.3225  1.7032
 6520TIP3   OH241194   5.797   2.268   1.585  0.4378  0.9210  0.1837
 6520TIP3    H141195   5.825   2.220   1.662  0.5716  0.5907 -0.0712
 6520TIP3    H241196   5.874   2.269   1.527  0.3903  1.3043  0.1212
 6521TIP3   OH241197   2.704   1.203   0.807  0.3323  0.1519  0.3825
 6521TIP3    H141198   2.778   1.197   0.866 -0.7813 -1.8788  1.7053
 6521TIP3    H241199   2.632   1.162   0.855 -0.8163 -0.9286 -2.0795
 6522TIP3   OH241200   4.572   1.189   8.390  0.2653  0.0937 -0.2948
 6522TIP3    H141201   4.539   1.264   8.439  1.6576 -0.0056  0.8310
 6522TIP3    H241202   4.608   1.130   8.456 -0.1191 -1.2423 -1.2222
 6523TIP3   OH241203   6.391   1.371   0.634  0.2172  0.1809  0.7268
 6523TIP3    H141204   6.414   1.310   0.704 -1.1060 -2.1653 -0.7482
 6523TIP3    H241205   6.369   1.315   0.559 -1.0099  2.4821 -0.7670
 6524TIP3   OH241206   0.330   5.939   1.867  0.1934  0.9390  0.3688
 6524TIP3    H141207   0.370   5.959   1.783  0.6698  0.6236  0.5192
 6524TIP3    H241208   0.403   5.923   1.926 -0.1321 -1.6286  0.1752
 6525TIP3   OH241209   2.178   4.710   1.702  0.0449 -0.7961 -0.4358
 6525TIP3    H141210   2.158   4.776   1.636 -0.3481 -0.7551 -0.2797
 6525TIP3    H241211   2.263   4.736   1.738 -0.0300 -0.4760 -0.4960
 6526TIP3   OH241212   6.070   2.239   1.955  0.2090  0.0874  0.0250
 6526TIP3    H141213   6.024   2.202   2.030  1.3999 -0.2413  0.6033
 6526TIP3    H241214   6.095   2.327   1.983 -0.1342  0.3027 -0.3267
 6527TIP3   OH241215   3.387   6.474   7.706 -0.4417 -0.4107 -0.3129
 6527TIP3    H141216   3.425   6.411   7.767 -0.7573  1.0707  1.5311
 6527TIP3    H241217   3.451   6.546   7.704 -0.9543  0.0356 -0.8514
 6528TIP3   OH241218   1.735   5.179   8.144  0.2678 -0.2152  0.6515
 6528TIP3    H141219   1.771   5.245   8.085  0.2261  0.1935  1.0750
 6528TIP3    H241220   1.641   5.184   8.131  0.2351  0.0987  0.9741
 6529TIP3   OH241221   3.255   0.957   8.886  0.0157 -0.1025  0.1764
 6529TIP3    H141222   3.179   0.908   8.854 -0.3989  0.7660 -0.2092
 6529TIP3    H241223   3.249   0.950   8.981 -1.7636  1.6804  0.2547
 6530TIP3   OH241224   6.606   4.843   7.578  0.1317  0.4545  0.1797
 6530TIP3    H141225   6.608   4.748   7.587  0.3520  0.4474  0.0766
 6530TIP3    H241226   6.623   4.859   7.485 -0.2298  0.5853  0.1333
 6531TIP3   OH241227   5.255   6.381   7.219  0.0817  0.2495  0.1415
 6531TIP3    H141228   5.180   6.433   7.191  0.7255  0.5924 -1.0616
 6531TIP3    H241229   5.326   6.445   7.228  0.2624 -0.0842  1.1324
 6532TIP3   OH241230   4.984   6.563   7.718 -0.1079  0.1664 -0.2984
 6532TIP3    H141231   5.061   6.532   7.669  0.3256 -0.6843  0.8747
 6532TIP3    H241232   5.014   6.643   7.761  0.4111 -0.5969  0.8118
 6533TIP3   OH241233   1.730   3.665   1.143 -0.1182 -0.1272 -0.0786
 6533TIP3    H141234   1.672   3.737   1.169  2.4201  1.3086  2.1992
 6533TIP3    H241235   1.776   3.698   1.066  0.9201  0.7121  0.8620
 6534TIP3   OH241236   3.855   5.180   2.500  0.8086 -0.4153  0.0049
 6534TIP3    H141237   3.776   5.185   2.553  1.1419 -1.8417  0.6922
 6534TIP3    H241238   3.926   5.192   2.562  1.1585  1.1692 -0.6545
 6535TIP3   OH241239   6.636   5.593   0.414  0.0056  0.0290 -1.0286
 6535TIP3    H141240   6.668   5.683   0.417 -0.0431  0.0211  0.0887
 6535TIP3    H241241   6.686   5.553   0.343  2.2736  0.1122  0.4079
 6536TIP3   OH241242   5.686   0.343   2.268  0.8072 -0.5489 -0.2271
 6536TIP3    H141243   5.642   0.258   2.260  0.4454 -0.3180 -0.6813
 6536TIP3    H241244   5.620   0.407   2.243  0.4172  0.0340  2.0250
 6537TIP3   OH241245   0.787   2.688   0.248 -0.6385  0.4186 -0.1228
 6537TIP3    H141246   0.705   2.640   0.243 -0.2762 -0.1965 -0.1877
 6537TIP3    H241247   0.809   2.689   0.341 -0.1092 -0.4617 -0.2309
 6538TIP3   OH241248   2.074   4.163   1.412 -0.1835  1.1152  0.2909
 6538TIP3    H141249   2.043   4.202   1.331 -1.2039  1.0750  0.6466
 6538TIP3    H241250   2.166   4.141   1.395 -0.7215 -0.0932 -1.2829
 6539TIP3   OH241251   0.984   2.593   2.227  0.4583  0.2269  0.0289
 6539TIP3    H141252   0.978   2.687   2.242 -0.5837 -0.0626  1.7461
 6539TIP3    H241253   1.061   2.565   2.277  0.6735  0.1324 -0.3487
 6540TIP3   OH241254   2.459   5.655   8.105  0.5215  0.5279  0.3795
 6540TIP3    H141255   2.547   5.625   8.127  0.3551  0.1549  0.5384
 6540TIP3    H241256   2.473   5.739   8.060  1.0064  0.1048 -0.2829
 6541TIP3   OH241257   2.610   3.666   1.541 -0.6447  0.3364  0.1496
 6541TIP3    H141258   2.700   3.652   1.569 -1.2870 -1.0851  1.6637
 6541TIP3    H241259   2.617   3.693   1.449  1.2936  0.0058  0.1622
 6542TIP3   OH241260   1.782   6.028   1.158  0.1404 -0.0557  0.8022
 6542TIP3    H141261   1.783   5.992   1.247 -0.1971 -0.8415  0.4925
 6542TIP3    H241262   1.693   6.013   1.127  0.1516  0.5482  0.4540
 6543TIP3   OH241263   1.464   4.751   1.308  0.1850  0.2373  0.4071
 6543TIP3    H141264   1.437   4.816   1.374  1.8231  0.6858  0.6803
 6543TIP3    H241265   1.554   4.728   1.333  0.3216 -0.6583 -0.8521
 6544TIP3   OH241266   4.349   6.055   1.193  0.3538 -0.0325 -0.7153
 6544TIP3    H141267   4.360   6.141   1.233 -1.6046  0.0151 -0.1804
 6544TIP3    H241268   4.303   6.073   1.111 -2.1506 -0.7039  0.4726
 6545TIP3   OH241269   1.429   3.883   7.526 -0.3575 -0.3849 -0.5289
 6545TIP3    H141270   1.454   3.902   7.436 -0.1337 -1.6132 -0.7388
 6545TIP3    H241271   1.511   3.865   7.571 -0.4550  0.3555 -0.0341
 6546TIP3   OH241272   3.074   2.339   2.246  0.0901  0.6325 -0.2099
 6546TIP3    H141273   3.076   2.424   2.203  0.8853  0.0622 -1.3514
 6546TIP3    H241274   3.039   2.279   2.180 -0.9837  0.1526  0.7560
 6547TIP3   OH241275   0.124   0.683   1.505  0.4848  0.5947 -0.0243
 6547TIP3    H141276   0.134   0.682   1.601 -0.3864  0.8394  0.0752
 6547TIP3    H241277   0.107   0.592   1.482  3.4367  0.0052 -0.2859
 6548TIP3   OH241278   1.380   2.372   7.975  0.0826 -0.7389 -0.3261
 6548TIP3    H141279   1.300   2.399   8.020  1.8180  0.3487  2.3862
 6548TIP3    H241280   1.395   2.441   7.910 -0.0690  0.2571  0.6613
 6549TIP3   OH241281   3.356   4.147   1.990  0.2299 -0.4510 -0.2189
 6549TIP3    H141282   3.280   4.135   2.048 -0.2512 -0.8544 -0.9214
 6549TIP3    H241283   3.394   4.060   1.982  1.5449 -0.0404  1.1493
 6550TIP3   OH241284   0.715   6.172   8.420  0.3107 -0.2871 -0.1772
 6550TIP3    H141285   0.633   6.148   8.376 -0.0142 -0.6850  0.6318
 6550TIP3    H241286   0.743   6.091   8.462 -0.2469  0.4622  1.7376
 6551TIP3   OH241287   2.241   1.012   7.424 -0.1724  0.4885  0.3220
 6551TIP3    H141288   2.225   0.953   7.350  2.0858 -0.1235  0.2567
 6551TIP3    H241289   2.212   1.098   7.394 -0.8676 -0.0683 -0.6329
 6552TIP3   OH241290   2.792   3.964   1.901  0.0152 -0.2528  0.6901
 6552TIP3    H141291   2.735   3.937   1.829 -2.2119 -0.3042  2.3352
 6552TIP3    H241292   2.771   3.903   1.972  2.9491 -0.9170  1.1099
 6553TIP3   OH241293   2.790   5.279   2.808  1.0331 -0.1386  0.1508
 6553TIP3    H141294   2.736   5.326   2.872 -0.6258 -0.6927 -0.7906
 6553TIP3    H241295   2.752   5.192   2.803 -0.7313  0.6272 -3.5486
 6554TIP3   OH241296   5.667   0.845   2.658 -0.4484 -0.4790  0.6398
 6554TIP3    H141297   5.592   0.822   2.712 -0.6465  0.0324  0.5946
 6554TIP3    H241298   5.674   0.940   2.667  1.5872 -0.7308  2.4619
 6555TIP3   OH241299   2.352   1.126   0.321  0.2847 -0.2204 -0.5019
 6555TIP3    H141300   2.275   1.076   0.349  0.1243  0.5262  0.4508
 6555TIP3    H241301   2.412   1.122   0.395  0.0751  1.3448 -0.2000
 6556TIP3   OH241302   0.036   4.861   1.450 -0.2032 -0.2531  0.3830
 6556TIP3    H141303   0.028   4.940   1.503  0.9998  1.1243 -1.3504
 6556TIP3    H241304  -0.047   4.856   1.402  0.7804  1.8274 -1.7815
 6557TIP3   OH241305   0.620   4.286   2.475 -0.2634 -0.0605 -0.2065
 6557TIP3    H141306   0.615   4.191   2.464 -2.2157 -0.1536  0.8801
 6557TIP3    H241307   0.584   4.301   2.563  1.3768  1.5891  0.2513
 6558TIP3   OH241308   2.880   2.979   1.914  0.2730  0.0001 -0.5074
 6558TIP3    H141309   2.914   3.058   1.871  0.0991  0.1019 -0.4578
 6558TIP3    H241310   2.823   3.012   1.983 -0.5991 -0.1748 -1.1328
 6559TIP3   OH241311   2.099   0.919   2.241  0.8955  0.0477  0.1269
 6559TIP3    H141312   2.149   0.837   2.238  1.9427  0.6107  1.4202
 6559TIP3    H241313   2.159   0.984   2.204 -0.0107  0.2208 -1.0910
 6560TIP3   OH241314   3.625   2.316   8.640 -0.6114  0.2441 -0.2297
 6560TIP3    H141315   3.686   2.372   8.591 -1.3944  0.8027 -0.5818
 6560TIP3    H241316   3.545   2.368   8.646 -0.9566 -0.3605  0.4966
 6561TIP3   OH241317   0.130   1.589   8.048  0.4529 -0.2619 -0.0460
 6561TIP3    H141318   0.098   1.589   8.138  1.6846  2.4908  0.5009
 6561TIP3    H241319   0.070   1.646   8.001  1.1983  0.2665 -0.3785
 6562TIP3   OH241320   4.613   1.771   2.081  0.0442 -0.1432  0.7098
 6562TIP3    H141321   4.688   1.827   2.062 -1.4746  1.5117 -0.7574
 6562TIP3    H241322   4.616   1.704   2.013 -0.3169  0.4953  0.0477
 6563TIP3   OH241323   5.650   2.615   1.393  0.6359 -0.3678  0.3348
 6563TIP3    H141324   5.732   2.664   1.392 -0.1661  1.0191  0.6750
 6563TIP3    H241325   5.587   2.674   1.434 -0.7831 -1.0035 -0.8469
 6564TIP3   OH241326   5.243   3.249   2.596  0.1307  0.0718  0.3906
 6564TIP3    H141327   5.298   3.278   2.670 -0.8074  1.2760  0.6488
 6564TIP3    H241328   5.206   3.166   2.625  0.8709 -0.1647  0.6931
 6565TIP3   OH241329   2.570   2.807   0.259 -0.3687 -0.0102 -0.4802
 6565TIP3    H141330   2.593   2.724   0.300 -1.5022 -0.1899 -0.1771
 6565TIP3    H241331   2.611   2.803   0.172  0.6416 -0.3335 -0.0011
 6566TIP3   OH241332   0.461   0.620   0.682 -0.0421 -0.1636 -0.5722
 6566TIP3    H141333   0.492   0.683   0.747  0.0822  0.8438 -1.5801
 6566TIP3    H241334   0.366   0.632   0.679  0.0475  0.4509 -1.2237
 6567TIP3   OH241335   3.454   0.506   0.791 -0.0428  0.3554 -0.3278
 6567TIP3    H141336   3.464   0.577   0.726  1.3115 -0.8405 -1.4935
 6567TIP3    H241337   3.375   0.460   0.764 -0.9741  1.4345  0.4813
 6568TIP3   OH241338   0.143   0.595   7.266  0.1116 -0.5375 -0.4387
 6568TIP3    H141339   0.226   0.643   7.274  1.1329 -1.5591 -3.3610
 6568TIP3    H241340   0.080   0.662   7.240  0.0153  0.1964  1.5122
 6569TIP3   OH241341   1.719   4.518   0.487  0.0960  0.3933 -0.0884
 6569TIP3    H141342   1.784   4.588   0.485  1.7485 -1.0809 -0.2250
 6569TIP3    H241343   1.738   4.465   0.409 -0.4936 -0.7356  0.5138
 6570TIP3   OH241344   4.072   4.033   7.776  0.1564 -0.3472 -0.2940
 6570TIP3    H141345   4.060   3.940   7.790  0.5449 -0.0729  2.3439
 6570TIP3    H241346   4.123   4.038   7.694  0.1453 -2.4133 -0.4862
 6571TIP3   OH241347   0.493   1.165   8.185 -0.0087  0.8941 -0.0990
 6571TIP3    H141348   0.473   1.084   8.137 -0.3444  0.9496 -0.0531
 6571TIP3    H241349   0.508   1.137   8.275 -0.3176  0.9037 -0.0431
 6572TIP3   OH241350   6.552   1.092   7.891 -0.5005 -0.1296  0.1422
 6572TIP3    H141351   6.553   1.024   7.823  0.1668 -0.4954  0.5055
 6572TIP3    H241352   6.550   1.043   7.973 -1.9551  0.3174  0.3897
 6573TIP3   OH241353   1.460   6.187   1.337 -0.4555  0.1626 -0.1617
 6573TIP3    H141354   1.382   6.231   1.300 -0.5411 -0.7120 -1.0778
 6573TIP3    H241355   1.478   6.116   1.275  0.7342 -0.0026  0.3575
 6574TIP3   OH241356   4.738   3.079   2.327 -0.1926  0.6655  0.3355
 6574TIP3    H141357   4.785   3.161   2.307  1.3858 -0.4613 -0.9080
 6574TIP3    H241358   4.745   3.070   2.422  0.3346  1.5607  0.3996
 6575TIP3   OH241359   4.205   6.360   8.437 -0.1664  0.2658 -0.1007
 6575TIP3    H141360   4.227   6.338   8.527 -1.0969 -0.0215  0.0578
 6575TIP3    H241361   4.120   6.319   8.421 -1.0035  2.0290 -0.4324
 6576TIP3   OH241362   0.334   1.594   0.465 -0.5212 -0.0268  0.1693
 6576TIP3    H141363   0.406   1.545   0.426 -0.6475  0.4258 -0.6446
 6576TIP3    H241364   0.310   1.542   0.542 -2.0962 -2.4717 -1.7978
 6577TIP3   OH241365   5.381   0.224   7.132 -0.2774  0.0183  0.1273
 6577TIP3    H141366   5.421   0.167   7.198  1.0039 -1.3157 -1.6943
 6577TIP3    H241367   5.334   0.164   7.074  0.0743  0.9256 -1.1538
 6578TIP3   OH241368   4.323   4.000   1.282 -0.8447 -0.0371  0.5587
 6578TIP3    H141369   4.370   3.950   1.216  0.7764  0.8218  1.0036
 6578TIP3    H241370   4.276   4.067   1.233 -0.5387 -0.0850  0.2002
 6579TIP3   OH241371   3.439   2.811   8.595 -0.3651  0.5532 -0.6049
 6579TIP3    H141372   3.380   2.810   8.670 -2.4764 -1.2100 -2.1409
 6579TIP3    H241373   3.516   2.763   8.624  0.0871  2.2553  1.2295
 6580TIP3   OH241374   6.799   3.866   7.396  0.2184 -0.0240 -0.3870
 6580TIP3    H141375   6.780   3.780   7.360 -0.5404 -0.0655  0.1138
 6580TIP3    H241376   6.772   3.927   7.328 -1.9573 -0.0660  0.3620
 6581TIP3   OH241377   1.366   0.101   8.750  0.3347 -0.0221  0.1360
 6581TIP3    H141378   1.410   0.160   8.689  1.3130 -0.3645  0.4878
 6581TIP3    H241379   1.332   0.030   8.694 -2.9354  1.9344 -0.6366
 6582TIP3   OH241380   4.764   1.844   2.345  0.5987 -0.0259  0.4528
 6582TIP3    H141381   4.820   1.919   2.327 -1.1385  0.9234 -1.5902
 6582TIP3    H241382   4.681   1.867   2.303 -0.4034 -2.5540  0.9004
 6583TIP3   OH241383   3.795   6.570   0.212  0.1288  0.5988 -0.2055
 6583TIP3    H141384   3.806   6.511   0.138 -0.2062 -3.1340  2.4174
 6583TIP3    H241385   3.865   6.634   0.203  2.7773 -2.2539 -1.5915
 6584TIP3   OH241386   6.651   5.806   2.327 -0.2794  0.7195 -0.0065
 6584TIP3    H141387   6.655   5.901   2.314  0.9793  0.8681  1.2158
 6584TIP3    H241388   6.616   5.795   2.415 -0.2094  0.0508 -0.0590
 6585TIP3   OH241389   6.501   3.046   1.682 -0.5032  0.4441 -0.3978
 6585TIP3    H141390   6.546   2.982   1.737 -2.1268 -0.6273 -0.2502
 6585TIP3    H241391   6.417   3.061   1.726 -1.1166  0.8851 -1.6666
 6586TIP3   OH241392   3.311   0.740   0.174  0.2021  0.0086 -0.0842
 6586TIP3    H141393   3.320   0.799   0.249  1.2291 -0.0681 -0.1265
 6586TIP3    H241394   3.399   0.737   0.136 -0.4891  0.6851 -1.7923
 6587TIP3   OH241395   6.109   2.258   0.603 -0.0564  0.2915  0.1645
 6587TIP3    H141396   6.154   2.284   0.684 -2.0143  0.7894  1.1598
 6587TIP3    H241397   6.149   2.175   0.579 -0.4713 -0.6814  2.5561
 6588TIP3   OH241398   6.762   3.061   1.852 -0.6506 -0.4101 -0.8235
 6588TIP3    H141399   6.833   3.072   1.789 -0.6924 -0.1567 -0.8301
 6588TIP3    H241400   6.698   3.128   1.828  0.2700  1.1220  0.7674
 6589TIP3   OH241401   2.702   3.051   8.444 -0.0903  0.6012  0.2381
 6589TIP3    H141402   2.717   3.006   8.527  0.4374 -0.1308 -0.2445
 6589TIP3    H241403   2.705   2.982   8.378 -2.6510  0.8382 -0.2269
 6590TIP3   OH241404   4.793   2.944   7.509 -0.3076 -0.1885 -0.3237
 6590TIP3    H141405   4.843   2.912   7.434 -0.7120  0.4701 -0.8802
 6590TIP3    H241406   4.702   2.925   7.487 -0.3208 -2.0926  1.0150
 6591TIP3   OH241407   2.563   0.703   7.581  0.0227 -0.0149  0.4155
 6591TIP3    H141408   2.512   0.780   7.604 -0.5072 -0.5415  1.0400
 6591TIP3    H241409   2.632   0.736   7.523 -1.3709  0.6418 -0.9505
 6592TIP3   OH241410   4.833   6.238   7.666  0.4222  0.3624  0.5786
 6592TIP3    H141411   4.748   6.200   7.645 -1.0029  2.6259  1.7392
 6592TIP3    H241412   4.870   6.264   7.582 -0.8057  0.7712  0.1397
 6593TIP3   OH241413   0.087   2.542   8.333  0.6058  0.0922  0.4777
 6593TIP3    H141414   0.051   2.584   8.411 -0.8761 -0.6114  0.2095
 6593TIP3    H241415   0.059   2.451   8.340  2.1269 -0.4347  0.0831
 6594TIP3   OH241416   6.744   3.051   2.157 -0.2868  0.3860 -0.6962
 6594TIP3    H141417   6.733   3.068   2.063  1.1041 -2.5109 -1.5048
 6594TIP3    H241418   6.836   3.071   2.175 -0.2504 -0.1709 -0.2399
 6595TIP3   OH241419   4.174   0.520   8.692 -0.0189  0.7165  1.1645
 6595TIP3    H141420   4.243   0.481   8.747  0.0176  0.8608  1.2208
 6595TIP3    H241421   4.198   0.495   8.603  0.5607  1.4617  1.1060
 6596TIP3   OH241422   0.497   5.542   0.672 -0.4703  0.5020  0.0324
 6596TIP3    H141423   0.498   5.637   0.659  3.4087  0.7613  1.0866
 6596TIP3    H241424   0.521   5.530   0.764 -0.7707 -1.5521 -0.1091
 6597TIP3   OH241425   0.531   1.724   0.694  0.1732  0.3784  0.2083
 6597TIP3    H141426   0.511   1.637   0.728 -1.1397  0.7104  0.3452
 6597TIP3    H241427   0.617   1.745   0.731 -1.0237  0.5788  3.1476
 6598TIP3   OH241428   1.850   6.290   0.277 -0.6087  0.0321  0.0385
 6598TIP3    H141429   1.925   6.238   0.308 -0.7806 -0.0928  0.2418
 6598TIP3    H241430   1.809   6.323   0.356 -0.8054  0.0515 -0.0708
 6599TIP3   OH241431   2.046   0.797   0.987  0.2091  0.5085  0.1523
 6599TIP3    H141432   2.058   0.714   1.033 -1.5312 -0.1793 -0.5184
 6599TIP3    H241433   1.962   0.830   1.019 -0.0748  1.0049 -1.0208
 6600TIP3   OH241434   6.093   1.515   1.582 -0.6722  0.3639 -0.1981
 6600TIP3    H141435   6.164   1.538   1.642 -0.6417 -0.5267  0.1193
 6600TIP3    H241436   6.014   1.524   1.635 -0.5572 -1.5922  0.3557
 6601TIP3   OH241437   3.816   6.141   0.302  0.4003 -0.3254 -0.4444
 6601TIP3    H141438   3.888   6.112   0.246  2.1641  0.4512  1.2544
 6601TIP3    H241439   3.852   6.136   0.391 -1.4315  0.7610  0.4173
 6602TIP3   OH241440   0.497   5.864   2.079 -0.3988 -0.5221  0.0688
 6602TIP3    H141441   0.441   5.911   2.140  0.1251  1.5176 -0.9321
 6602TIP3    H241442   0.575   5.842   2.130 -0.8681 -0.7512  0.6918
 6603TIP3   OH241443   3.561   6.674   7.631  0.1401  0.2379  0.2606
 6603TIP3    H141444   3.488   6.690   7.571  1.3740 -0.4394 -1.5262
 6603TIP3    H241445   3.639   6.677   7.575  1.3437 -0.7308  1.7900
 6604TIP3   OH241446   6.605   2.638   8.012  0.6471 -0.2025 -0.2982
 6604TIP3    H141447   6.530   2.623   8.070 -0.0115 -1.3375 -1.3970
 6604TIP3    H241448   6.630   2.551   7.982  1.7362  0.2632 -0.7892
 6605TIP3   OH241449   5.405   1.785   2.802  0.1568  0.2063 -0.2307
 6605TIP3    H141450   5.419   1.705   2.751 -0.9560 -0.2216  0.1125
 6605TIP3    H241451   5.344   1.837   2.749  1.4842  1.2133 -0.8324
 6606TIP3   OH241452   1.867   5.800   2.232 -0.1714  0.2510  0.0187
 6606TIP3    H141453   1.880   5.893   2.213  0.2502  0.1872 -0.0241
 6606TIP3    H241454   1.935   5.755   2.182 -1.3579 -0.2233 -1.2354
 6607TIP3   OH241455   3.947   4.723   7.555  0.0256 -0.5208  0.1178
 6607TIP3    H141456   4.002   4.794   7.588 -0.4492  0.3684 -0.9610
 6607TIP3    H241457   3.887   4.705   7.628  0.4665 -0.1687  0.5794
 6608TIP3   OH241458   3.869   2.261   8.376  0.0151 -0.8874  0.5649
 6608TIP3    H141459   3.817   2.332   8.413 -0.5924 -1.1754  0.2810
 6608TIP3    H241460   3.821   2.181   8.400  1.5436 -1.3629  2.3273
 6609TIP3   OH241461   1.725   1.661   0.161 -0.4952 -0.1389  0.2865
 6609TIP3    H141462   1.659   1.729   0.149 -0.2716  0.3507  1.6991
 6609TIP3    H241463   1.717   1.606   0.083 -0.9472  1.2693 -0.7013
 6610TIP3   OH241464   2.751   6.543   8.606  0.6237 -0.0395 -0.1253
 6610TIP3    H141465   2.760   6.480   8.676 -0.3396 -1.1937 -1.0007
 6610TIP3    H241466   2.822   6.606   8.620 -0.6185  0.8490  2.9380
 6611TIP3   OH241467   3.621   5.712   0.114  0.4226 -0.1279  0.0216
 6611TIP3    H141468   3.534   5.716   0.074 -0.0893  1.0964  1.1736
 6611TIP3    H241469   3.666   5.641   0.067 -1.1581 -0.7359 -0.6415
 6612TIP3   OH241470   1.139   6.368   6.688  0.1904 -0.0715  0.3454
 6612TIP3    H141471   1.189   6.295   6.651 -1.0912 -0.8448  0.0955
 6612TIP3    H241472   1.164   6.443   6.634  0.5077 -0.6051 -0.2642
 6613TIP3   OH241473   2.637   2.474   8.431 -0.3839 -0.4792  0.4387
 6613TIP3    H141474   2.567   2.509   8.486  0.3249  1.1788  0.3332
 6613TIP3    H241475   2.600   2.473   8.343  0.1423  1.7861  0.1348
 6614TIP3   OH241476   3.461   1.503   0.096  0.4664 -0.0462  0.9902
 6614TIP3    H141477   3.438   1.582   0.047 -0.2221 -0.5661  0.4502
 6614TIP3    H241478   3.548   1.521   0.131  0.7719  0.5388 -0.0233
 6615TIP3   OH241479   6.491   0.782   0.357  0.1461  0.8776  0.1929
 6615TIP3    H141480   6.583   0.783   0.332  0.0542 -0.0826 -0.2496
 6615TIP3    H241481   6.486   0.837   0.435  1.9910 -2.7099  3.1473
 6616TIP3   OH241482   6.497   6.330   7.528 -0.2546  0.0539  0.5172
 6616TIP3    H141483   6.448   6.409   7.552  0.4072  0.6596 -0.0758
 6616TIP3    H241484   6.574   6.331   7.585  0.1051  0.2154  0.0388
 6617TIP3   OH241485   3.157   5.188   7.657  0.0430 -0.0015  0.1757
 6617TIP3    H141486   3.193   5.195   7.746  0.4043  0.8057 -0.0261
 6617TIP3    H241487   3.220   5.235   7.603  0.4181 -1.4416 -0.6857
 6618TIP3   OH241488   3.963   3.875   8.043 -0.0787 -0.8935  0.5148
 6618TIP3    H141489   3.935   3.965   8.029  0.9044 -0.3259  1.9936
 6618TIP3    H241490   3.945   3.831   7.960  0.0442  0.8280 -0.4646
 6619TIP3   OH241491   4.351   3.402   7.130  0.9583  0.2308 -0.0406
 6619TIP3    H141492   4.318   3.331   7.074 -1.7023  1.5315 -0.2847
 6619TIP3    H241493   4.342   3.481   7.077  0.6277  1.1858  1.3791
 6620TIP3   OH241494   6.124   6.624   0.099 -0.6664 -0.5732 -0.1052
 6620TIP3    H141495   6.192   6.681   0.135 -0.7653 -1.6826  1.9879
 6620TIP3    H241496   6.170   6.544   0.075 -1.0460 -0.8524  0.0990
 6621TIP3   OH241497   2.114   4.562   0.974 -0.1262 -0.2309 -0.3029
 6621TIP3    H141498   2.102   4.468   0.968  0.1701 -0.4312  1.7421
 6621TIP3    H241499   2.179   4.574   1.044 -1.0712  1.5277  0.3378
 6622TIP3   OH241500   5.278   6.101   6.872 -0.1631 -0.4445  0.3833
 6622TIP3    H141501   5.190   6.117   6.839  0.0841 -1.9314 -1.1969
 6622TIP3    H241502   5.334   6.114   6.795  1.0491  0.7776  1.4278
 6623TIP3   OH241503   5.376   5.732   1.213  0.0081 -0.1153 -0.3876
 6623TIP3    H141504   5.386   5.800   1.280 -3.0542  1.6248 -1.5073
 6623TIP3    H241505   5.433   5.760   1.142  0.7412 -0.1672  0.1713
 6624TIP3   OH241506   2.786   6.546   6.657 -0.2982  0.0651  0.0928
 6624TIP3    H141507   2.712   6.492   6.682 -1.1002  1.3864  0.6770
 6624TIP3    H241508   2.861   6.505   6.699 -0.7842 -0.9231  0.0179
 6625TIP3   OH241509   5.634   4.429   1.845  0.0226 -0.0639  0.6081
 6625TIP3    H141510   5.568   4.466   1.788  0.6083 -0.3035 -0.2398
 6625TIP3    H241511   5.695   4.384   1.787  0.9548  0.1765  1.3537
 6626TIP3   OH241512   1.646   2.659   7.939 -0.3791  0.5599 -0.0190
 6626TIP3    H141513   1.684   2.579   7.977 -1.4967  0.5918  1.2185
 6626TIP3    H241514   1.685   2.730   7.990  0.7981  0.8751 -1.2738
 6627TIP3   OH241515   1.564   2.956   1.632 -0.3311 -0.0360 -0.0136
 6627TIP3    H141516   1.616   3.014   1.687  0.4732  0.3743 -1.1709
 6627TIP3    H241517   1.627   2.917   1.571 -0.9374 -1.7077  0.3634
 6628TIP3   OH241518   1.455   5.361   8.404 -0.1676  0.1376 -0.1734
 6628TIP3    H141519   1.472   5.267   8.413 -2.4136 -0.3111  0.0025
 6628TIP3    H241520   1.529   5.403   8.447  0.8181 -1.5508 -0.1233
 6629TIP3   OH241521   6.700   3.122   7.039  0.1750  0.3696 -0.0341
 6629TIP3    H141522   6.716   3.207   7.079 -1.1392  0.2972  0.6951
 6629TIP3    H241523   6.675   3.066   7.113  0.4445 -0.4982 -0.5909
 6630TIP3   OH241524   1.774   3.421   7.621 -0.0303 -0.0038 -0.0398
 6630TIP3    H141525   1.689   3.438   7.661 -0.9898 -0.7602 -1.6607
 6630TIP3    H241526   1.819   3.366   7.685 -2.6829 -3.8139 -1.0766
 6631TIP3   OH241527   4.731   0.567   0.317 -0.5125 -0.5580 -0.5056
 6631TIP3    H141528   4.689   0.484   0.339 -2.0422 -0.0286 -1.3081
 6631TIP3    H241529   4.660   0.631   0.316  0.4205  0.5196 -1.2274
 6632TIP3   OH241530   1.829   3.249   8.268  0.0389  0.0104  0.6080
 6632TIP3    H141531   1.794   3.336   8.285 -1.0715 -0.2147 -0.3867
 6632TIP3    H241532   1.885   3.230   8.344 -2.0341  0.3874  2.3249
 6633TIP3   OH241533   4.765   1.580   2.299 -0.5862 -0.2636 -0.5185
 6633TIP3    H141534   4.766   1.673   2.318 -1.1914 -0.5532  1.0282
 6633TIP3    H241535   4.672   1.559   2.286 -0.7207 -1.0621  1.4381
 6634TIP3   OH241536   6.471   2.886   2.157  0.0736 -0.0804 -0.0631
 6634TIP3    H141537   6.457   2.845   2.243  0.8550  0.8079  0.5070
 6634TIP3    H241538   6.560   2.922   2.162 -0.1791  0.7010 -0.9511
 6635TIP3   OH241539   3.429   6.236   0.857 -0.0864  0.4178 -0.4844
 6635TIP3    H141540   3.453   6.270   0.943  0.7492  1.7993 -1.2208
 6635TIP3    H241541   3.475   6.293   0.796 -1.0770 -0.2173 -1.8619
 6636TIP3   OH241542   2.343   3.347   0.567  0.4894  0.6032 -0.1690
 6636TIP3    H141543   2.271   3.384   0.619 -1.7862 -2.0956 -1.1619
 6636TIP3    H241544   2.402   3.309   0.632  0.1982  1.4227  0.6029
 6637TIP3   OH241545   5.978   3.337   0.851 -0.6006 -0.4083  0.0567
 6637TIP3    H141546   5.970   3.408   0.915  0.3549 -1.1834  1.0607
 6637TIP3    H241547   5.965   3.380   0.766 -1.5087  0.7044  0.7299
 6638TIP3   OH241548   3.978   6.686   8.847 -0.0069  0.2364  0.0182
 6638TIP3    H141549   3.957   6.727   8.763  0.1234 -1.1972 -0.7423
 6638TIP3    H241550   4.051   6.738   8.880  1.7458 -0.7238 -2.0462
 6639TIP3   OH241551   0.962   3.894   7.976 -0.1090  0.0037 -0.3834
 6639TIP3    H141552   0.890   3.840   8.010 -0.8682  1.3222  0.1619
 6639TIP3    H241553   0.985   3.952   8.049 -0.5898  1.7018 -1.5358
 6640TIP3   OH241554   2.292   2.114   1.055  0.0391  0.4673 -0.0642
 6640TIP3    H141555   2.267   2.060   0.980 -1.7745  1.2793 -0.0801
 6640TIP3    H241556   2.235   2.085   1.126 -0.2014  1.5981  0.2200
 6641TIP3   OH241557   6.327   5.628   1.650 -0.1191 -0.9024 -0.5744
 6641TIP3    H141558   6.413   5.640   1.690 -0.3611 -1.4116  0.1244
 6641TIP3    H241559   6.289   5.553   1.696 -1.6661  0.4057  0.3988
 6642TIP3   OH241560   3.534   1.465   8.451  0.0527 -0.0775  0.3459
 6642TIP3    H141561   3.450   1.423   8.469 -1.5396  1.9858 -1.6668
 6642TIP3    H241562   3.561   1.503   8.534 -0.8370 -1.0289  1.0959
 6643TIP3   OH241563   1.041   2.984   7.820  0.2194 -0.2289 -0.4450
 6643TIP3    H141564   1.102   2.919   7.784  0.1959 -0.2826 -0.3882
 6643TIP3    H241565   1.097   3.055   7.851  0.5115 -1.6276  2.5143
 6644TIP3   OH241566   2.570   2.248   2.037  0.3003  0.0174 -0.1306
 6644TIP3    H141567   2.547   2.286   1.952 -1.5938 -0.2153  0.2234
 6644TIP3    H241568   2.563   2.153   2.024  1.4431 -0.0943 -0.0666
 6645TIP3   OH241569   4.421   3.027   7.505  0.6747 -0.3996 -0.0746
 6645TIP3    H141570   4.409   3.095   7.572 -1.4679 -1.3046  0.5367
 6645TIP3    H241571   4.488   2.970   7.541  0.5114 -0.1255  0.6942
 6646TIP3   OH241572   3.701   1.777   1.808 -0.6949  0.4557  0.5325
 6646TIP3    H141573   3.757   1.699   1.799 -0.4818  0.1933  3.2623
 6646TIP3    H241574   3.614   1.747   1.779  0.2603  0.6910 -3.1360
 6647TIP3   OH241575   4.747   1.950   0.401 -0.4335 -0.3585 -0.1655
 6647TIP3    H141576   4.690   1.998   0.342 -1.5828  0.1501  1.2980
 6647TIP3    H241577   4.692   1.879   0.435  0.8358 -1.9477 -1.2621
 6648TIP3   OH241578   2.874   4.731   6.818  0.2226  0.4364  0.1808
 6648TIP3    H141579   2.902   4.779   6.896 -0.1534 -0.0428  0.6139
 6648TIP3    H241580   2.834   4.797   6.762  1.8530  1.0799 -0.2912
 6649TIP3   OH241581   1.933   6.171   0.961  0.2684  0.0289 -0.7094
 6649TIP3    H141582   2.011   6.211   0.999  2.6452 -2.3772 -2.6953
 6649TIP3    H241583   1.874   6.158   1.035  1.4844  2.3566  0.7921
 6650TIP3   OH241584   4.935   1.890   0.673 -0.1247 -0.0504 -0.4586
 6650TIP3    H141585   4.849   1.900   0.632 -0.6541 -2.4401 -0.0800
 6650TIP3    H241586   4.922   1.922   0.762 -1.2095 -2.0854  0.1761
 6651TIP3   OH241587   4.898   3.234   2.624 -0.1768 -0.0869  0.8356
 6651TIP3    H141588   4.933   3.229   2.713 -0.6719 -1.0182  0.9872
 6651TIP3    H241589   4.839   3.160   2.617  0.1028 -0.2173 -0.3842
 6652TIP3   OH241590   4.496   5.359   1.462 -0.2919  0.3683  0.2106
 6652TIP3    H141591   4.516   5.273   1.499  0.1568  0.3586 -0.0450
 6652TIP3    H241592   4.427   5.342   1.398  0.9168 -0.0745 -1.0319
 6653TIP3   OH241593   2.309   2.883   8.501  0.1781  0.2276 -0.0339
 6653TIP3    H141594   2.377   2.916   8.443  0.8315  0.7193  0.9862
 6653TIP3    H241595   2.244   2.844   8.442  2.4942 -2.5949 -0.9949
 6654TIP3   OH241596   5.862   3.911   6.733 -0.0585  0.6232  0.0917
 6654TIP3    H141597   5.898   4.000   6.731 -2.0149  1.4566  0.0583
 6654TIP3    H241598   5.775   3.921   6.772 -0.7190 -1.1145 -0.8416
 6655TIP3   OH241599   3.907   3.103   8.710  0.3681  0.0648  0.4785
 6655TIP3    H141600   3.886   3.151   8.791  0.1846  0.6105  0.1127
 6655TIP3    H241601   3.825   3.059   8.687  0.0192  1.0198 -0.1543
 6656TIP3   OH241602   4.604   5.313   1.162 -0.0389 -0.2959 -0.4591
 6656TIP3    H141603   4.689   5.357   1.167  0.7479 -1.5330 -2.0626
 6656TIP3    H241604   4.541   5.383   1.150  0.8345  0.5905 -0.0130
 6657TIP3   OH241605   5.346   4.271   0.590  0.1977  0.5717  0.3607
 6657TIP3    H141606   5.254   4.260   0.614  0.0374  1.1064 -0.0027
 6657TIP3    H241607   5.385   4.185   0.605 -0.6694 -0.0511 -0.8277
 6658TIP3   OH241608   6.179   1.979   8.391  0.3589 -0.3446 -0.2419
 6658TIP3    H141609   6.086   1.964   8.411  0.3755 -0.3544 -0.1714
 6658TIP3    H241610   6.202   1.908   8.331  0.4588 -0.6480  0.1537
 6659TIP3   OH241611   1.643   5.238   7.807 -0.3200 -0.1093 -0.8863
 6659TIP3    H141612   1.638   5.307   7.741  1.3227  0.8954 -0.0305
 6659TIP3    H241613   1.720   5.186   7.782 -0.6797 -0.7459 -0.6953
 6660TIP3   OH241614   3.605   5.089   1.302  0.3080  0.0427 -0.1904
 6660TIP3    H141615   3.687   5.044   1.321 -0.0631 -0.1163  1.1501
 6660TIP3    H241616   3.614   5.174   1.346 -0.1006  0.1765 -0.3604
 6661TIP3   OH241617   3.065   3.562   6.673 -0.6319 -0.3870  0.0213
 6661TIP3    H141618   3.035   3.607   6.594  1.4197 -0.2538 -0.7408
 6661TIP3    H241619   3.088   3.474   6.643 -0.1852 -0.4458  0.5230
 6662TIP3   OH241620   1.657   5.518   8.445 -0.3449 -0.2493 -0.3454
 6662TIP3    H141621   1.742   5.505   8.488 -0.5554 -0.3966  0.0272
 6662TIP3    H241622   1.674   5.497   8.353 -0.5036 -2.5727  0.0919
 6663TIP3   OH241623   4.054   3.634   6.860 -0.2315 -0.4057 -0.3901
 6663TIP3    H141624   3.991   3.702   6.885 -0.8014 -1.1564  0.2898
 6663TIP3    H241625   4.128   3.647   6.918 -0.9129 -1.1917  0.6935
 6664TIP3   OH241626   3.192   5.660   8.465  0.0118 -0.1039  0.6250
 6664TIP3    H141627   3.118   5.715   8.490 -0.1011 -0.6384  1.4958
 6664TIP3    H241628   3.159   5.570   8.470  0.2832 -0.2840 -0.4927
 6665TIP3   OH241629   1.928   2.351   0.593 -0.1744 -0.5336  0.2367
 6665TIP3    H141630   1.930   2.395   0.508  0.8471  1.0891  1.0416
 6665TIP3    H241631   1.942   2.259   0.573  0.2495 -0.1581 -1.3291
 6666TIP3   OH241632   6.769   4.439   0.122  0.5128 -0.4922 -0.2355
 6666TIP3    H141633   6.811   4.448   0.208 -0.4031 -1.1710  0.2943
 6666TIP3    H241634   6.677   4.423   0.141 -0.0122  0.9235 -1.3896
 6667TIP3   OH241635   5.886   2.399   0.704  0.4832  0.3309  0.4914
 6667TIP3    H141636   5.953   2.334   0.682  1.3329  0.7546  1.7081
 6667TIP3    H241637   5.929   2.483   0.694 -0.1523  0.6483  0.3863
 6668TIP3   OH241638   2.839   4.900   1.228 -0.0619 -0.0629  0.1761
 6668TIP3    H141639   2.835   4.992   1.256  2.7793  0.3489 -0.4487
 6668TIP3    H241640   2.847   4.851   1.310 -1.5130  0.2037  0.5114
 6669TIP3   OH241641   0.498   1.421   0.349  0.5137  0.3388 -0.2669
 6669TIP3    H141642   0.523   1.382   0.266 -0.0751 -2.1931  0.6584
 6669TIP3    H241643   0.560   1.383   0.412  0.2454  1.3456  0.6284
 6670TIP3   OH241644   4.158   2.227   0.537  0.3187 -0.2414 -0.2180
 6670TIP3    H141645   4.156   2.208   0.631  0.3969  0.4564 -0.0710
 6670TIP3    H241646   4.066   2.230   0.512  0.2425  1.0890  0.1599
 6671TIP3   OH241647   3.586   3.067   1.443  0.1181  0.4447  0.3418
 6671TIP3    H141648   3.507   3.107   1.480 -0.1651  0.3097 -0.1070
 6671TIP3    H241649   3.598   2.986   1.493 -1.4027 -0.7534 -1.1343
 6672TIP3   OH241650   2.241   6.097   1.127 -0.4925  0.0180 -0.5558
 6672TIP3    H141651   2.173   6.041   1.091 -0.4002 -0.0383 -0.6414
 6672TIP3    H241652   2.202   6.185   1.125 -0.6650 -0.0511 -0.3497
 6673TIP3   OH241653   3.634   4.556   7.240 -0.5242 -0.0683 -0.3547
 6673TIP3    H141654   3.568   4.528   7.177  0.9861 -0.7154 -1.7070
 6673TIP3    H241655   3.642   4.651   7.226 -0.6217 -0.1142 -0.7114
 6674TIP3   OH241656   6.230   2.978   1.805 -0.7037  0.4277  0.0129
 6674TIP3    H141657   6.234   2.898   1.858 -1.1377  0.3959 -0.0006
 6674TIP3    H241658   6.179   3.039   1.859 -1.6953  0.1879 -0.6315
 6675TIP3   OH241659   1.837   2.701   2.076 -0.3691  0.0659 -0.1137
 6675TIP3    H141660   1.917   2.741   2.108 -0.8378  1.3692 -0.5327
 6675TIP3    H241661   1.865   2.616   2.042  0.5580 -0.2102  1.2489
 6676TIP3   OH241662   4.936   6.436   8.821 -0.1952  0.3970  0.8726
 6676TIP3    H141663   4.901   6.366   8.765 -0.9375  0.5158  1.1697
 6676TIP3    H241664   4.924   6.515   8.769  2.7654  0.1043 -0.4454
 6677TIP3   OH241665   5.084   1.070   0.076  0.4912 -0.4748 -0.4678
 6677TIP3    H141666   5.107   0.981   0.102 -2.7899 -1.5169 -0.7302
 6677TIP3    H241667   4.998   1.063   0.035 -0.2937  2.9135  0.2304
 6678TIP3   OH241668   1.853   1.261   7.237 -0.0508  0.2023 -0.1500
 6678TIP3    H141669   1.920   1.253   7.169  0.4208  0.2682  0.3019
 6678TIP3    H241670   1.770   1.246   7.191  0.2112  0.8479 -0.8652
 6679TIP3   OH241671   4.863   2.877   2.054  0.4301  0.7260  0.5916
 6679TIP3    H141672   4.872   2.811   1.985 -0.3536  1.8442 -0.6275
 6679TIP3    H241673   4.925   2.850   2.122  0.3582 -1.0724 -0.0103
 6680TIP3   OH241674   1.053   0.083   1.007  0.2494  0.2078 -0.2775
 6680TIP3    H141675   1.037   0.011   1.068  1.3860 -0.4998 -0.7819
 6680TIP3    H241676   0.979   0.079   0.946 -1.2341  1.2976  1.3279
 6681TIP3   OH241677   4.591   2.933   7.695 -0.4601 -0.2217 -0.0153
 6681TIP3    H141678   4.678   2.924   7.657 -0.6619 -0.0205 -0.5292
 6681TIP3    H241679   4.604   2.986   7.773  0.0722 -1.2566  0.6282
 6682TIP3   OH241680   1.162   0.395   7.777  0.3549 -0.4001  0.2082
 6682TIP3    H141681   1.101   0.403   7.703 -0.4110 -1.1823  0.7352
 6682TIP3    H241682   1.242   0.438   7.747 -0.7207  1.4662 -0.1893
 6683TIP3   OH241683   2.411   5.445   2.785  0.0379 -0.3086 -0.1416
 6683TIP3    H141684   2.330   5.465   2.831 -0.5261 -0.9798 -0.8261
 6683TIP3    H241685   2.480   5.477   2.844 -0.6762 -0.5723  0.8777
 6684TIP3   OH241686   2.483   1.069   8.599  0.1251  0.5165  0.4268
 6684TIP3    H141687   2.416   1.137   8.587 -0.1053  0.6726  2.2289
 6684TIP3    H241688   2.439   1.003   8.652  0.6481 -0.6126 -0.5066
 6685TIP3   OH241689   0.109   3.592   2.667  0.2133 -0.2816  0.6958
 6685TIP3    H141690   0.116   3.585   2.571  0.2046 -1.5726  0.7717
 6685TIP3    H241691   0.018   3.573   2.685  0.0709  0.5889  0.9269
 6686TIP3   OH241692   4.486   4.380   1.138  0.1472 -0.2678 -0.0801
 6686TIP3    H141693   4.543   4.404   1.211  0.8147  0.4925 -0.8329
 6686TIP3    H241694   4.402   4.420   1.158  1.0443  2.2601 -0.9755
 6687TIP3   OH241695   2.949   0.200   8.039 -0.2394  0.4971  0.0722
 6687TIP3    H141696   2.910   0.243   7.963  1.4657  1.5198 -0.2751
 6687TIP3    H241697   3.028   0.159   8.005 -0.3598 -0.5420  0.9741
 6688TIP3   OH241698   6.143   0.227   7.569  0.5897 -0.3560  0.3734
 6688TIP3    H141699   6.225   0.257   7.608 -0.6729  1.0612  2.0852
 6688TIP3    H241700   6.112   0.301   7.518  1.7418 -1.8679 -2.7877
 6689TIP3   OH241701   5.894   2.017   0.327 -0.4363  0.1560  0.3921
 6689TIP3    H141702   5.907   1.923   0.315 -1.0326  0.2122 -0.9164
 6689TIP3    H241703   5.896   2.053   0.238  1.4072  1.6258  0.9654
 6690TIP3   OH241704   5.974   1.356   8.043 -0.2376  0.0947 -0.8372
 6690TIP3    H141705   5.994   1.443   8.009  0.4455  0.2050 -0.1837
 6690TIP3    H241706   6.057   1.308   8.035 -0.5642 -0.4426 -1.0279
 6691TIP3   OH241707   2.741   4.819   8.216 -0.1588 -0.3525 -0.2046
 6691TIP3    H141708   2.711   4.842   8.303 -0.5221  1.1287 -0.6918
 6691TIP3    H241709   2.778   4.732   8.225  2.3964  0.8333  2.0611
 6692TIP3   OH241710   3.520   4.734   8.142  0.3533 -0.2190  0.4983
 6692TIP3    H141711   3.528   4.651   8.189 -0.3500 -0.5590  0.0353
 6692TIP3    H241712   3.605   4.746   8.100  0.4461 -0.7401  0.5271
 6693TIP3   OH241713   4.243   4.541   0.764 -0.1308  0.3182 -0.6682
 6693TIP3    H141714   4.184   4.468   0.777  0.0818  0.2553 -0.0089
 6693TIP3    H241715   4.199   4.597   0.701 -0.5378 -0.1108 -0.7669
 6694TIP3   OH241716   2.963   0.685   1.976  0.0171 -0.0170  0.0033
 6694TIP3    H141717   2.919   0.633   2.043 -1.6187 -1.5382 -2.1084
 6694TIP3    H241718   3.014   0.622   1.927  0.6881  0.9598 -0.5875
 6695TIP3   OH241719   0.009   6.551   8.408  0.5042  0.5201  0.2522
 6695TIP3    H141720   0.035   6.531   8.498 -2.9614 -1.1170  1.0681
 6695TIP3    H241721   0.050   6.482   8.356 -1.9354 -2.0606  1.4818
 6696TIP3   OH241722   2.405   1.789   7.370 -0.3848 -0.3532 -0.4555
 6696TIP3    H141723   2.340   1.724   7.344 -0.0229 -1.5160  1.2957
 6696TIP3    H241724   2.469   1.739   7.420 -0.1163  1.3473  1.0193
 6697TIP3   OH241725   3.373   0.429   1.191 -0.2643 -0.2992 -0.5252
 6697TIP3    H141726   3.379   0.333   1.194 -0.3876 -0.3530 -1.6229
 6697TIP3    H241727   3.387   0.456   1.282 -1.0690 -1.3944 -0.0483
 6698TIP3   OH241728   2.422   6.443   1.728  0.1195  0.2318 -0.9982
 6698TIP3    H141729   2.466   6.497   1.661 -1.1044  1.1035 -1.1350
 6698TIP3    H241730   2.356   6.502   1.766  0.4875 -0.4002  0.6731
 6699TIP3   OH241731   3.160   0.213   0.503  0.4312 -0.1482 -0.0193
 6699TIP3    H141732   3.096   0.167   0.449 -0.2977 -0.0543  0.7325
 6699TIP3    H241733   3.220   0.144   0.533 -0.5160 -0.6066  0.9106
 6700TIP3   OH241734   4.069   2.642   0.240 -0.8478  0.1161 -0.7880
 6700TIP3    H141735   4.144   2.642   0.300  0.7910  1.6580 -2.7139
 6700TIP3    H241736   3.998   2.679   0.292  0.6194  1.7782  0.1506
 6701TIP3   OH241737   4.068   2.654   0.906  0.2233 -0.6701 -0.0777
 6701TIP3    H141738   4.005   2.653   0.834 -0.4674 -0.2847  0.5043
 6701TIP3    H241739   4.077   2.746   0.930 -1.3917 -0.9417  1.8637
 6702TIP3   OH241740   5.672   1.980   2.526  0.0214  0.4331  0.2482
 6702TIP3    H141741   5.599   2.017   2.576  1.3707  0.6191  2.1902
 6702TIP3    H241742   5.726   2.055   2.503  0.5449  0.1287  0.4545
 6703TIP3   OH241743   4.765   5.678   0.468 -0.1622 -0.4042 -0.1163
 6703TIP3    H141744   4.727   5.704   0.385 -0.3788  1.1901  0.4583
 6703TIP3    H241745   4.691   5.676   0.529  0.3006  0.4521  0.4873
 6704TIP3   OH241746   4.654   4.505   7.878  0.2607  0.1490  0.4309
 6704TIP3    H141747   4.701   4.455   7.812 -1.0156 -0.4029 -0.0800
 6704TIP3    H241748   4.576   4.453   7.898 -0.8942  1.6993  0.1909
 6705TIP3   OH241749   3.901   3.422   7.892 -0.0400  0.0251  0.1510
 6705TIP3    H141750   3.817   3.396   7.931 -0.5167  0.7146 -0.3969
 6705TIP3    H241751   3.877   3.477   7.817  0.8349 -1.2760 -1.1489
 6706TIP3   OH241752   1.499   1.547   7.206  0.1213  0.0835 -0.0203
 6706TIP3    H141753   1.575   1.490   7.189 -0.1592 -0.5710  0.8025
 6706TIP3    H241754   1.488   1.597   7.126  1.8274  0.6661  0.0612
 6707TIP3   OH241755   3.173   2.914   1.567 -0.0072  0.3248  0.5149
 6707TIP3    H141756   3.185   2.894   1.660  0.6257 -1.5644  0.0656
 6707TIP3    H241757   3.078   2.923   1.558 -0.2191 -0.9793  1.1015
 6708TIP3   OH241758   4.232   1.028   6.817 -0.0409  0.1455 -0.0837
 6708TIP3    H141759   4.288   0.951   6.827 -0.7239 -0.4567 -0.7149
 6708TIP3    H241760   4.293   1.101   6.805  0.6100 -0.4484 -0.4822
 6709TIP3   OH241761   2.862   3.773   1.612 -0.9141  0.7782  0.8047
 6709TIP3    H141762   2.886   3.769   1.704  1.5522 -0.8578  0.1932
 6709TIP3    H241763   2.938   3.737   1.566 -1.7383  2.2611 -1.9372
 6710TIP3   OH241764   4.722   6.189   7.966 -0.1373  0.0137 -0.0613
 6710TIP3    H141765   4.798   6.238   7.934 -0.8890  0.3007 -1.5157
 6710TIP3    H241766   4.667   6.179   7.888 -1.0490 -1.1873  0.7162
 6711TIP3   OH241767   4.230   4.899   1.850  0.6866  0.2771 -0.1475
 6711TIP3    H141768   4.276   4.910   1.933 -0.1024 -0.5442  0.4131
 6711TIP3    H241769   4.283   4.948   1.787  2.0770 -0.2618  0.5612
 6712TIP3   OH241770   1.264   2.319   8.330 -0.5255  0.0011 -0.0217
 6712TIP3    H141771   1.259   2.414   8.331 -1.2807  0.0059 -1.6911
 6712TIP3    H241772   1.358   2.299   8.321 -0.2364  0.5260  1.5142
 6713TIP3   OH241773   0.897   5.032   1.896  0.3495  0.0688 -0.3199
 6713TIP3    H141774   0.964   4.982   1.848  0.7375  1.5749 -1.4127
 6713TIP3    H241775   0.923   5.123   1.885 -0.4822  0.5603  1.4336
 6714TIP3   OH241776   4.967   2.686   8.523 -0.0563  0.3825  0.1129
 6714TIP3    H141777   4.901   2.646   8.467  0.6645 -0.8503  0.1180
 6714TIP3    H241778   5.041   2.626   8.521  0.8996  1.4889  0.4967
 6715TIP3   OH241779   5.529   5.286   7.477 -0.1421 -0.3396  0.8893
 6715TIP3    H141780   5.598   5.251   7.420 -0.6497  1.1182 -0.7197
 6715TIP3    H241781   5.450   5.241   7.448 -0.4647  0.6685  0.1458
 6716TIP3   OH241782   4.656   6.094   0.053  0.7296 -0.7110 -0.3124
 6716TIP3    H141783   4.570   6.117   0.090  1.6174  1.0714  0.7794
 6716TIP3    H241784   4.636   6.029  -0.014 -1.6343  0.6142 -1.0386
 6717TIP3   OH241785   2.737   3.382   1.706  0.3295 -0.2325  0.2324
 6717TIP3    H141786   2.809   3.325   1.734  0.6700  0.3209  0.5015
 6717TIP3    H241787   2.735   3.452   1.772 -1.5412 -1.1249  1.2060
 6718TIP3   OH241788   0.957   0.828   1.677 -0.0018  0.2056  0.4340
 6718TIP3    H141789   0.914   0.888   1.616  2.3457  0.7949 -0.7834
 6718TIP3    H241790   0.989   0.884   1.748  0.9343  0.2094  0.0273
 6719TIP3   OH241791   0.285   2.683   1.687  0.0679 -0.3719  0.2537
 6719TIP3    H141792   0.216   2.729   1.735  0.8499  1.2914 -0.1460
 6719TIP3    H241793   0.366   2.716   1.726  0.7243  0.8702 -1.9970
 6720TIP3   OH241794   4.771   4.959   8.056 -0.2593 -0.1773  0.0639
 6720TIP3    H141795   4.679   4.981   8.039 -1.2897 -4.5928 -1.2446
 6720TIP3    H241796   4.770   4.919   8.144  0.6221  0.5430  0.4183
 6721TIP3   OH241797   0.463   0.200   8.328  0.5659  0.1498  0.0416
 6721TIP3    H141798   0.545   0.225   8.369  0.6141  1.3382 -0.7334
 6721TIP3    H241799   0.489   0.157   8.247  0.4321  0.5600 -0.2229
 6722TIP3   OH241800   4.321   3.344   6.629 -0.4616  0.0586 -0.0195
 6722TIP3    H141801   4.372   3.290   6.689 -1.1271 -1.3388 -0.6763
 6722TIP3    H241802   4.288   3.283   6.563 -2.9717  0.8951  0.3656
 6723TIP3   OH241803   6.695   5.795   6.791  0.0198  0.3090  0.1873
 6723TIP3    H141804   6.603   5.772   6.803 -0.5444  2.3156 -0.0106
 6723TIP3    H241805   6.711   5.866   6.852  1.6588 -0.4636  0.7079
 6724TIP3   OH241806   1.867   1.193   0.963  0.0423  0.1792  1.0513
 6724TIP3    H141807   1.881   1.267   0.905 -1.9537 -0.3311 -0.1775
 6724TIP3    H241808   1.952   1.148   0.964  0.8672  1.6499  0.6687
 6725TIP3   OH241809   0.222   3.969   1.217  0.3935 -0.2713  0.0458
 6725TIP3    H141810   0.317   3.966   1.228  0.7821 -0.5285 -2.6650
 6725TIP3    H241811   0.192   3.881   1.237  0.8684 -0.4571 -0.0505
 6726TIP3   OH241812   3.364   1.858   8.141  0.2655 -0.0652 -0.6148
 6726TIP3    H141813   3.326   1.945   8.135 -0.5896 -0.4428 -0.8435
 6726TIP3    H241814   3.416   1.860   8.221  0.4472  0.7281 -0.7513
 6727TIP3   OH241815   1.866   6.234   0.009  0.1329  0.2094 -0.3253
 6727TIP3    H141816   1.958   6.252  -0.009  0.0001  1.7262  0.3878
 6727TIP3    H241817   1.851   6.269   0.097 -1.9792  3.4393 -1.7731
 6728TIP3   OH241818   1.499   5.636   1.049 -0.1853  0.6229  0.1064
 6728TIP3    H141819   1.449   5.688   0.986  0.5099  0.5810 -0.5007
 6728TIP3    H241820   1.538   5.566   0.996  1.1499  1.1074  0.4009
 6729TIP3   OH241821   0.093   0.260   0.441 -0.0543 -0.9544  0.3586
 6729TIP3    H141822   0.057   0.256   0.530  1.2552 -0.4707  0.9386
 6729TIP3    H241823   0.171   0.206   0.444  0.0705 -0.8367 -0.4739
 6730TIP3   OH241824   6.097   1.195   3.029  0.1916  0.6074 -0.4276
 6730TIP3    H141825   6.055   1.247   2.960 -0.2856 -0.9884 -1.4131
 6730TIP3    H241826   6.029   1.132   3.056  0.2646  1.3919  1.7708
 6731TIP3   OH241827   1.019   5.468   0.337  0.6392  0.0408 -0.4551
 6731TIP3    H141828   0.976   5.397   0.289  1.1726 -0.2332 -0.5386
 6731TIP3    H241829   0.959   5.542   0.329  0.1386 -0.3597 -0.4820
 6732TIP3   OH241830   5.843   3.181   7.702  0.0614 -0.4820  0.8501
 6732TIP3    H141831   5.752   3.150   7.700  0.1041 -0.5878  0.5714
 6732TIP3    H241832   5.838   3.264   7.750  0.0014 -1.0854  1.9228
 6733TIP3   OH241833   0.570   5.006   1.527  0.0231 -0.0039 -0.0482
 6733TIP3    H141834   0.617   4.942   1.580 -0.4721  0.8160  1.4535
 6733TIP3    H241835   0.492   4.959   1.497  0.4521 -0.5648 -0.3030
 6734TIP3   OH241836   2.016   2.848   1.725 -0.2815 -0.0258  0.4089
 6734TIP3    H141837   1.928   2.844   1.761 -0.0308  0.9822  1.1732
 6734TIP3    H241838   2.072   2.870   1.800  0.9108 -2.6106  0.3843
 6735TIP3   OH241839   3.374   4.306   0.141 -0.0627 -0.0484 -0.1880
 6735TIP3    H141840   3.408   4.382   0.188 -0.2659  0.0704 -0.2322
 6735TIP3    H241841   3.367   4.335   0.050 -0.4466 -0.0111 -0.1517
 6736TIP3   OH241842   1.948   1.588   8.308 -0.1029 -0.7465  0.4225
 6736TIP3    H141843   1.932   1.676   8.343  0.8597 -0.9636  1.4797
 6736TIP3    H241844   1.904   1.587   8.224 -0.4752  0.6172  0.5774
 6737TIP3   OH241845   4.685   5.616   7.349  0.5288  0.3051  0.3652
 6737TIP3    H141846   4.759   5.666   7.384  0.0267  1.9222 -0.7132
 6737TIP3    H241847   4.676   5.649   7.259 -0.8959 -0.5648  0.1694
 6738TIP3   OH241848   4.069   4.775   0.006  0.0325 -0.7494  0.2890
 6738TIP3    H141849   4.048   4.684  -0.018 -1.4838 -0.0630 -1.2024
 6738TIP3    H241850   4.015   4.828  -0.052  0.8324  1.1344  1.1806
 6739TIP3   OH241851   3.193   6.599   0.041  0.4813  0.1486 -0.0632
 6739TIP3    H141852   3.162   6.687   0.065  0.2288  0.3510 -1.0985
 6739TIP3    H241853   3.288   6.604   0.052  0.4791  0.5821 -0.2183
 6740TIP3   OH241854   0.030   6.234   6.972 -0.4579 -0.5718  0.6341
 6740TIP3    H141855  -0.008   6.316   6.941  0.7849 -0.1115  0.2701
 6740TIP3    H241856  -0.020   6.165   6.928 -0.1477  0.0316 -0.7052
 6741TIP3   OH241857   1.051   2.933   2.572  0.0862 -0.6247 -0.5918
 6741TIP3    H141858   1.009   2.998   2.515  0.5416  1.2867  1.1239
 6741TIP3    H241859   1.138   2.922   2.534 -0.5459 -1.5548 -1.8542
 6742TIP3   OH241860   3.936   0.863   2.632  0.3225 -0.3594 -0.8243
 6742TIP3    H141861   3.908   0.798   2.568 -0.5715 -1.6206  0.7613
 6742TIP3    H241862   4.027   0.841   2.651  1.2751  1.2871 -3.0741
 6743TIP3   OH241863   2.164   5.426   0.236  0.2056 -0.0062  0.1951
 6743TIP3    H141864   2.195   5.370   0.166 -0.6539 -0.1394 -0.0918
 6743TIP3    H241865   2.203   5.512   0.218 -1.0689  0.3173 -1.2378
 6744TIP3   OH241866   4.963   2.189   0.736  0.4715  0.4115 -0.2341
 6744TIP3    H141867   5.010   2.234   0.666 -0.6155  2.5613  0.3227
 6744TIP3    H241868   4.871   2.200   0.714  0.1407 -0.2749  0.7318
 6745TIP3   OH241869   2.305   0.214   8.697  0.1065  0.4078  0.1525
 6745TIP3    H141870   2.331   0.149   8.763  0.6681  1.3005  0.8375
 6745TIP3    H241871   2.323   0.171   8.614  1.4680  0.0400  0.5966
 6746TIP3   OH241872   2.909   4.214   7.953  0.4123  0.5136  0.1636
 6746TIP3    H141873   2.900   4.309   7.955  0.4350  0.5857 -1.3784
 6746TIP3    H241874   2.832   4.181   7.999  0.7796  1.2767  1.3466
 6747TIP3   OH241875   5.161   2.219   8.509  0.1756  0.3199  0.3863
 6747TIP3    H141876   5.252   2.189   8.505  0.1178 -0.2515  2.4435
 6747TIP3    H241877   5.110   2.147   8.472  0.5414  0.6994 -0.9081
 6748TIP3   OH241878   2.806   3.591   1.224  0.5044 -0.3597  0.2213
 6748TIP3    H141879   2.713   3.610   1.207  0.2623 -0.6145  1.2214
 6748TIP3    H241880   2.852   3.670   1.196  0.0963 -0.6094 -1.2343
 6749TIP3   OH241881   3.088   2.671   2.370  0.2177  0.1936  0.0358
 6749TIP3    H141882   3.106   2.765   2.366  0.0933  0.1952 -0.7016
 6749TIP3    H241883   3.155   2.636   2.428 -0.2243  0.8477  0.9554
 6750TIP3   OH241884   6.135   0.808   7.702 -0.0215 -0.0072 -0.1740
 6750TIP3    H141885   6.186   0.830   7.780  1.5031 -0.9623 -0.8732
 6750TIP3    H241886   6.132   0.713   7.701 -0.8878  0.0109 -0.7582
 6751TIP3   OH241887   0.215   2.843   1.315 -0.3551 -0.1335  0.4994
 6751TIP3    H141888   0.244   2.914   1.372  1.6438  0.1306 -0.7494
 6751TIP3    H241889   0.235   2.874   1.227  0.3120 -2.1166 -0.0981
 6752TIP3   OH241890   2.093   0.193   0.104  0.4268 -0.3481 -0.5109
 6752TIP3    H141891   2.006   0.157   0.123  0.8050 -1.1768 -0.2909
 6752TIP3    H241892   2.141   0.184   0.187  0.7423  0.0449 -0.6478
 6753TIP3   OH241893   2.151   4.605   8.155 -0.1262 -0.3509  0.0425
 6753TIP3    H141894   2.059   4.585   8.174 -0.5479 -0.0496 -1.5896
 6753TIP3    H241895   2.162   4.582   8.063  1.2464  0.2974  0.0293
 6754TIP3   OH241896   6.260   1.694   1.042 -0.3076  0.0436 -0.4686
 6754TIP3    H141897   6.257   1.726   1.132  0.7300 -0.3549 -0.2885
 6754TIP3    H241898   6.172   1.713   1.007 -0.2839  1.4557  0.1823
 6755TIP3   OH241899   5.220   1.257   0.895 -0.1164 -0.0955 -0.2230
 6755TIP3    H141900   5.215   1.261   0.991 -0.4714 -0.3171 -0.2321
 6755TIP3    H241901   5.181   1.339   0.865  0.5855  0.2667 -0.1616
 6756TIP3   OH241902   6.193   2.687   8.313 -0.0319 -0.0115 -0.2602
 6756TIP3    H141903   6.169   2.619   8.250  0.6369  0.3628 -0.9288
 6756TIP3    H241904   6.180   2.645   8.398 -2.3710 -0.0462 -0.5727
 6757TIP3   OH241905   6.052   1.195   1.566 -0.0225 -0.2913  0.0850
 6757TIP3    H141906   6.085   1.208   1.655 -0.6892  1.8908  0.0717
 6757TIP3    H241907   6.106   1.253   1.512 -0.3709 -0.7365 -0.7518
 6758TIP3   OH241908   4.377   1.948   1.748 -0.4249  0.5549 -0.1479
 6758TIP3    H141909   4.302   1.951   1.690 -0.3762  0.7568 -0.2021
 6758TIP3    H241910   4.453   1.946   1.690 -0.4204 -2.6350 -0.1768
 6759TIP3   OH241911   2.736   1.042   7.743  0.4944  0.5601  0.0486
 6759TIP3    H141912   2.711   1.004   7.659 -1.2645 -0.7140  1.0930
 6759TIP3    H241913   2.729   0.970   7.806  2.5542  1.2713  1.2014
 6760TIP3   OH241914   3.593   1.272   7.904  0.2087 -0.2900 -0.4697
 6760TIP3    H141915   3.626   1.184   7.885  2.0390  0.3671 -0.5251
 6760TIP3    H241916   3.617   1.287   7.995 -0.5653 -0.0347 -0.3029
 6761TIP3   OH241917   1.389   3.370   0.569  0.3816  0.1862  0.1111
 6761TIP3    H141918   1.313   3.375   0.626  1.3708 -0.1700  1.5400
 6761TIP3    H241919   1.448   3.438   0.602  0.7040  0.4424 -0.9461
 6762TIP3   OH241920   3.543   2.748   7.917 -0.3322 -0.8594 -0.3776
 6762TIP3    H141921   3.638   2.748   7.905 -0.3915 -0.5484 -0.9003
 6762TIP3    H241922   3.508   2.733   7.829 -0.7992  1.7272 -0.7272
 6763TIP3   OH241923   0.253   5.697   2.219  0.3594  0.1159 -0.2785
 6763TIP3    H141924   0.192   5.648   2.274  0.5376 -0.4622 -0.5961
 6763TIP3    H241925   0.207   5.778   2.198 -0.0984 -0.0992 -0.0997
 6764TIP3   OH241926   2.210   1.245   7.228 -0.5139  0.2894  0.2545
 6764TIP3    H141927   2.299   1.272   7.205  0.0360 -1.3800  0.3011
 6764TIP3    H241928   2.159   1.258   7.148 -0.2889  1.4200  0.2770
 6765TIP3   OH241929   2.577   5.655   1.879  0.0886 -0.1290 -0.2696
 6765TIP3    H141930   2.568   5.644   1.785  0.4924  0.9334 -0.4432
 6765TIP3    H241931   2.549   5.571   1.916  0.9110 -0.9174 -1.3774
 6766TIP3   OH241932   4.333   0.366   7.851 -0.0557  0.1973 -0.3487
 6766TIP3    H141933   4.403   0.301   7.841 -1.1782 -1.2978  0.8674
 6766TIP3    H241934   4.332   0.414   7.769  0.3305 -1.8635 -1.6260
 6767TIP3   OH241935   1.051   3.855   8.835 -0.0438 -0.4214  0.6633
 6767TIP3    H141936   0.979   3.798   8.862 -1.8356  2.0910  1.5832
 6767TIP3    H241937   1.008   3.928   8.789  1.6224  2.1784  2.9088
 6768TIP3   OH241938   0.902   5.716   7.584 -0.0293 -0.4125  0.0326
 6768TIP3    H141939   0.813   5.746   7.606  0.2436  0.3141  0.1718
 6768TIP3    H241940   0.957   5.757   7.651  0.2841 -1.7617  0.6308
 6769TIP3   OH241941   6.608   4.746   8.263  0.2417  0.1623  0.0203
 6769TIP3    H141942   6.688   4.765   8.213  0.3737  0.4677  0.3395
 6769TIP3    H241943   6.640   4.730   8.352 -0.0425  0.1940  0.1272
 6770TIP3   OH241944   1.731   4.902   1.069 -0.6441 -0.2458 -0.3605
 6770TIP3    H141945   1.777   4.824   1.098 -0.0819  0.3919  0.5481
 6770TIP3    H241946   1.682   4.931   1.146 -0.5216  0.5129 -0.5519
 6771TIP3   OH241947   5.253   5.390   1.849  0.2631 -0.0055  0.0021
 6771TIP3    H141948   5.340   5.350   1.843  0.0686 -0.1777 -2.3453
 6771TIP3    H241949   5.199   5.322   1.891  0.8326 -0.6724 -0.3233
 6772TIP3   OH241950   4.423   1.268   8.771 -0.0811  0.0913  0.2047
 6772TIP3    H141951   4.353   1.275   8.706  0.9307  1.9927 -0.7786
 6772TIP3    H241952   4.504   1.265   8.720  0.6554 -0.1829  1.3447
 6773TIP3   OH241953   2.859   4.517   7.674 -0.0829  0.3170  0.4579
 6773TIP3    H141954   2.889   4.437   7.717 -0.7038  0.0155  0.3434
 6773TIP3    H241955   2.790   4.488   7.614 -0.2404  0.9240  0.3343
 6774TIP3   OH241956   5.265   6.491   8.694 -0.2779  0.7700 -0.0974
 6774TIP3    H141957   5.238   6.559   8.755 -0.3133  0.5542  0.1289
 6774TIP3    H241958   5.305   6.423   8.749  1.3936  1.3954 -0.4802
 6775TIP3   OH241959   0.461   0.505   7.687  0.9183 -0.0418 -0.4011
 6775TIP3    H141960   0.416   0.484   7.605  0.9073  1.7232 -0.8756
 6775TIP3    H241961   0.550   0.527   7.661  0.4555  2.2859 -0.2115
 6776TIP3   OH241962   6.152   3.399   7.351 -1.1399 -0.2055  0.0011
 6776TIP3    H141963   6.195   3.352   7.423 -0.2093 -0.8648 -0.9443
 6776TIP3    H241964   6.090   3.458   7.394  0.8604  0.9544  1.4565
 6777TIP3   OH241965   5.422   4.191   7.575 -0.0391  0.2322  0.0241
 6777TIP3    H141966   5.388   4.270   7.616  0.4611  0.2123  0.4848
 6777TIP3    H241967   5.517   4.197   7.584  0.0637  0.0434 -0.7943
 6778TIP3   OH241968   5.678   2.195   0.211  0.3091  0.1519 -0.2204
 6778TIP3    H141969   5.689   2.142   0.290  1.5951  1.4797  0.5389
 6778TIP3    H241970   5.698   2.284   0.239  3.0912  0.3746 -2.4776
 6779TIP3   OH241971   2.762   0.928   8.261 -0.1798  0.4921 -0.2216
 6779TIP3    H141972   2.730   0.862   8.323  0.1568  1.1088  0.6384
 6779TIP3    H241973   2.810   0.878   8.195 -1.0135 -0.2273 -0.2892
 6780TIP3   OH241974   4.466   2.875   1.013  0.7949  0.6494  0.0391
 6780TIP3    H141975   4.375   2.876   1.043  0.5696  0.2974 -0.6289
 6780TIP3    H241976   4.465   2.825   0.931  1.3043  2.0537 -0.8696
 6781TIP3   OH241977   1.316   4.975   8.814 -0.3999  0.2892 -0.6168
 6781TIP3    H141978   1.407   4.949   8.828 -0.3382  0.2815 -1.0393
 6781TIP3    H241979   1.303   5.046   8.877 -0.2798 -0.0972 -0.1459
 6782TIP3   OH241980   2.346   4.472   8.896 -0.1563  0.3946 -0.2225
 6782TIP3    H141981   2.259   4.454   8.859 -0.5526  0.5040  0.6171
 6782TIP3    H241982   2.363   4.564   8.874 -0.5597  0.5729  0.1806
 6783TIP3   OH241983   6.401   6.284   8.447  0.2777 -0.1301  0.0283
 6783TIP3    H141984   6.416   6.304   8.354 -0.4356  1.7706  0.2733
 6783TIP3    H241985   6.472   6.330   8.493  0.2631 -0.5484  0.4749
 6784TIP3   OH241986   6.105   6.506   1.004  0.2787 -0.1449  0.2364
 6784TIP3    H141987   6.116   6.592   1.045 -1.0637  0.3914 -0.4368
 6784TIP3    H241988   6.124   6.443   1.073  3.2794  0.6178  0.2331
 6785TIP3   OH241989   4.481   5.720   2.881  1.1079  0.0053  0.3504
 6785TIP3    H141990   4.433   5.778   2.941  0.5141 -1.1136  1.0016
 6785TIP3    H241991   4.441   5.737   2.795  1.5569  1.1930  0.3621
 6786TIP3   OH241992   4.336   6.601   7.980 -1.1828 -0.3704 -0.3916
 6786TIP3    H141993   4.332   6.588   8.074 -1.6531 -1.5972 -0.5664
 6786TIP3    H241994   4.253   6.566   7.947 -1.1081  0.2106 -1.2455
 6787TIP3   OH241995   4.110   5.188   2.219  0.1995  0.7894  0.0729
 6787TIP3    H141996   4.039   5.164   2.159  0.0412  0.1686  0.4995
 6787TIP3    H241997   4.136   5.105   2.259  0.2072  1.2170  0.9671
 6788TIP3   OH241998   5.347   3.020   0.341  0.2949  0.2874  0.0562
 6788TIP3    H141999   5.388   2.983   0.263 -0.3101 -0.4277  0.0728
 6788TIP3    H242000   5.387   2.972   0.414  0.6994  0.8039  0.1860
 6789TIP3   OH242001   0.262   4.115   8.471 -0.3359  0.0857 -0.1750
 6789TIP3    H142002   0.187   4.137   8.417  0.5926  1.0297 -1.1208
 6789TIP3    H242003   0.224   4.075   8.549 -1.6978 -1.7441 -1.6723
 6790TIP3   OH242004   3.272   1.105   8.529  0.1883 -0.0820 -0.3613
 6790TIP3    H142005   3.302   1.185   8.571  0.1860 -0.4235  0.3179
 6790TIP3    H242006   3.304   1.110   8.439  0.3656  0.5777 -0.2612
 6791TIP3   OH242007   2.936   5.101   2.083 -0.3867 -0.2992 -0.3717
 6791TIP3    H142008   2.910   5.083   2.174 -0.8851  0.8560 -0.2632
 6791TIP3    H242009   2.898   5.028   2.033 -0.2392 -0.8683  0.3186
 6792TIP3   OH242010   6.768   3.515   1.897 -0.4754  0.5343 -0.0129
 6792TIP3    H142011   6.771   3.611   1.890 -0.8614  0.6133  0.7589
 6792TIP3    H242012   6.860   3.489   1.893 -0.3959  0.9024 -0.6688
 6793TIP3   OH242013   5.654   1.961   1.719 -0.0357  0.6389  0.3990
 6793TIP3    H142014   5.716   2.019   1.765 -0.0959 -0.0182  1.3436
 6793TIP3    H242015   5.672   1.976   1.626  2.1757 -0.1620  0.6170
 6794TIP3   OH242016   2.776   1.310   1.552  0.6547  0.1589 -0.4611
 6794TIP3    H142017   2.769   1.214   1.552  1.3979  0.0908 -1.1902
 6794TIP3    H242018   2.784   1.333   1.460 -1.2180  1.0810 -0.4264
 6795TIP3   OH242019   5.313   4.364   0.088 -0.3046 -0.2170 -0.2391
 6795TIP3    H142020   5.361   4.390   0.167  0.1492 -1.5807 -0.0502
 6795TIP3    H242021   5.361   4.289   0.054  0.5223  1.3524 -2.8034
 6796TIP3   OH242022   2.469   6.311   7.791  0.2328  0.7314  0.2631
 6796TIP3    H142023   2.518   6.258   7.728 -0.3188 -0.2682  0.6503
 6796TIP3    H242024   2.536   6.361   7.837  1.0196 -1.2225  1.3485
 6797TIP3   OH242025   2.462   0.470   2.302  0.1229 -0.1616 -0.6786
 6797TIP3    H142026   2.411   0.466   2.383  0.3375 -2.9016 -0.5810
 6797TIP3    H242027   2.508   0.554   2.307 -2.7314  1.5062  0.1944
 6798TIP3   OH242028   5.969   2.553   1.520 -0.1718  0.1393 -0.0402
 6798TIP3    H142029   5.943   2.616   1.452 -2.8982 -0.3940  0.3932
 6798TIP3    H242030   5.981   2.471   1.472 -2.0909 -0.2357  0.0316
 6799TIP3   OH242031   1.167   1.645   0.075 -0.3096 -0.1337 -0.3735
 6799TIP3    H142032   1.174   1.556   0.110  1.4933 -0.0610 -0.4610
 6799TIP3    H242033   1.190   1.635  -0.018 -0.7101  0.3360 -0.5242
 6800TIP3   OH242034   1.029   2.041   2.134 -0.2293 -0.1809  0.2368
 6800TIP3    H142035   0.934   2.032   2.134 -0.2933  0.3791  0.8788
 6800TIP3    H242036   1.054   2.025   2.225  0.4189 -1.4874 -0.1547
 6801TIP3   OH242037   2.542   3.318   8.749 -0.4904 -0.1831 -0.7240
 6801TIP3    H142038   2.613   3.354   8.802  0.1059 -2.9634  0.5912
 6801TIP3    H242039   2.574   3.323   8.659  1.0268 -0.5502 -0.2369
 6802TIP3   OH242040   3.256   1.884   2.242 -0.6851  0.4303  0.1219
 6802TIP3    H142041   3.229   1.803   2.200  0.0905  1.2720 -2.1566
 6802TIP3    H242042   3.176   1.917   2.283 -1.2248 -1.0065  0.2822
 6803TIP3   OH242043   0.641   5.333   7.481  0.4772  0.3284  0.4839
 6803TIP3    H142044   0.597   5.256   7.518 -0.6909 -0.1998 -1.7893
 6803TIP3    H242045   0.697   5.364   7.551 -0.0524 -1.7818  1.9641
 6804TIP3   OH242046   0.092   4.450   2.422  0.5881  0.5303 -0.2038
 6804TIP3    H142047   0.131   4.368   2.453  1.7161  0.4126 -1.8185
 6804TIP3    H242048   0.056   4.429   2.336 -0.3245  1.4143 -0.0538
 6805TIP3   OH242049   2.019   1.833   8.622  0.5409 -0.2522  0.6274
 6805TIP3    H142050   2.008   1.919   8.663  0.0883  0.2871 -0.5776
 6805TIP3    H242051   1.973   1.773   8.680 -0.1177  0.4971  0.8971
 6806TIP3   OH242052   0.261   4.990   7.411 -0.6445  0.5288  0.2270
 6806TIP3    H142053   0.204   4.914   7.407 -2.2157  1.6920 -0.2704
 6806TIP3    H242054   0.308   4.989   7.328 -0.2172 -0.1917  0.4630
 6807TIP3   OH242055   2.860   1.682   0.046 -0.2863  0.4146 -0.6375
 6807TIP3    H142056   2.916   1.670  -0.031  0.0747 -3.0678 -0.0045
 6807TIP3    H242057   2.772   1.664   0.015 -0.4159  1.0680 -0.6512
 6808TIP3   OH242058   4.869   4.569   8.652 -0.1766  0.1733  0.0229
 6808TIP3    H142059   4.866   4.484   8.695  0.1811 -0.2578 -0.7754
 6808TIP3    H242060   4.910   4.551   8.567 -0.9116  0.9784 -0.5178
 6809TIP3   OH242061   3.104   3.039   8.813 -0.4997  0.1995  0.6003
 6809TIP3    H142062   3.034   2.978   8.837  0.3780 -2.2107 -2.3162
 6809TIP3    H242063   3.061   3.104   8.757 -0.8989  0.4711  1.2163
 6810TIP3   OH242064   2.046   3.193   0.459 -0.2076  0.1115 -0.3225
 6810TIP3    H142065   2.080   3.202   0.370 -0.6938  1.9064 -0.3630
 6810TIP3    H242066   1.990   3.115   0.455  0.8794 -0.6574 -1.2092
 6811TIP3   OH242067   5.052   5.977   8.464  0.2020  0.3027  0.1841
 6811TIP3    H142068   5.116   6.033   8.507  2.1003 -2.7743  1.7080
 6811TIP3    H242069   5.099   5.937   8.391 -0.7242 -0.1377 -0.1993
 6812TIP3   OH242070   6.774   0.273   0.696  0.3266 -0.0064  0.0642
 6812TIP3    H142071   6.684   0.259   0.726  0.1328  0.5991 -0.2080
 6812TIP3    H242072   6.819   0.192   0.716 -0.5109 -0.6656 -0.6463
 6813TIP3   OH242073   1.354   6.478   1.346  0.2374  0.0672  0.1709
 6813TIP3    H142074   1.313   6.405   1.298 -0.0331 -0.8316  1.7025
 6813TIP3    H242075   1.429   6.503   1.292  1.3220 -2.4540  0.3805
 6814TIP3   OH242076   3.237   1.378   1.522  0.1263 -0.2559 -0.3877
 6814TIP3    H142077   3.163   1.335   1.565  0.4846  0.6478  1.2442
 6814TIP3    H242078   3.314   1.328   1.551  0.1831 -1.5228 -2.4984
 6815TIP3   OH242079   5.467   3.338   8.082 -0.1094  0.0675 -0.0718
 6815TIP3    H142080   5.515   3.345   8.000  1.4008  1.6860  0.8665
 6815TIP3    H242081   5.375   3.339   8.057  0.3215 -0.9592 -1.8101
 6816TIP3   OH242082   4.793   5.029   6.735  0.2594 -0.5210  0.4653
 6816TIP3    H142083   4.800   5.076   6.818  0.4814  3.1462 -1.4368
 6816TIP3    H242084   4.880   4.992   6.720  0.5452 -0.2035  1.3036
 6817TIP3   OH242085   1.142   1.420   0.229  0.5092  0.3234  0.7133
 6817TIP3    H142086   1.049   1.444   0.227  0.5899  0.7085  1.5079
 6817TIP3    H242087   1.172   1.446   0.315  1.4535  0.5348  0.3319
 6818TIP3   OH242088   5.788   5.144   7.644  0.3352  0.0511 -0.1488
 6818TIP3    H142089   5.783   5.061   7.691 -0.0141  0.0309 -0.2199
 6818TIP3    H242090   5.759   5.123   7.555  0.3150  0.2350 -0.1858
 6819TIP3   OH242091   1.520   5.992   1.066  0.1859  0.5761  0.2612
 6819TIP3    H142092   1.425   5.985   1.061  0.2332  0.7312 -0.9521
 6819TIP3    H242093   1.550   5.998   0.975  1.2392  2.1122  0.6542
 6820TIP3   OH242094   0.826   3.714   0.839  0.2152 -0.0366 -0.5372
 6820TIP3    H142095   0.814   3.744   0.929  1.6074 -0.0830 -0.3123
 6820TIP3    H242096   0.907   3.756   0.810  1.5934 -2.5797 -0.6235
 6821TIP3   OH242097   0.841   1.082   8.054  0.5537 -0.0893  0.1489
 6821TIP3    H142098   0.906   1.046   7.994  2.0269  2.2435  0.2306
 6821TIP3    H242099   0.794   1.147   8.001 -0.2991 -0.2564  0.6832
 6822TIP3   OH242100   6.020   2.205   8.662  1.0011 -0.4639  0.2380
 6822TIP3    H142101   5.956   2.193   8.592 -0.1980  1.3638  0.9372
 6822TIP3    H242102   5.968   2.236   8.736  2.5453 -0.1103  1.2141
 6823TIP3   OH242103   3.104   2.101   0.079 -0.3684 -0.3947 -0.4100
 6823TIP3    H142104   3.198   2.088   0.077 -0.4219 -1.0702  0.8639
 6823TIP3    H242105   3.087   2.167   0.012  1.2359  1.2484  0.7386
 6824TIP3   OH242106   6.145   2.234   8.128 -0.0718 -0.0099  0.0915
 6824TIP3    H142107   6.054   2.227   8.156  0.0524 -0.3825  0.4100
 6824TIP3    H242108   6.196   2.214   8.206  0.3247  2.7557  0.6477
 6825TIP3   OH242109   4.213   2.784   1.294 -0.2335  0.0635  0.5357
 6825TIP3    H142110   4.199   2.856   1.233 -0.4789 -0.5299 -0.1277
 6825TIP3    H242111   4.161   2.712   1.259  0.4990 -0.6348  0.8298
 6826TIP3   OH242112   3.543   0.509   8.057  0.0045  0.3264 -0.0831
 6826TIP3    H142113   3.586   0.444   8.001 -0.6792 -0.6434  0.4728
 6826TIP3    H242114   3.615   0.564   8.090  0.5034  0.3651 -1.2101
 6827TIP3   OH242115   5.751   3.409   7.858  0.4039 -0.4371  0.3238
 6827TIP3    H142116   5.760   3.483   7.798  0.5465  0.1458  1.0423
 6827TIP3    H242117   5.656   3.402   7.873  0.3571 -0.6823 -0.0894
 6828TIP3   OH242118   0.711   4.133   3.089 -0.2119  0.3984  0.2012
 6828TIP3    H142119   0.712   4.038   3.077  0.4221  0.4038  0.1705
 6828TIP3    H242120   0.630   4.162   3.046 -0.4038 -0.1240  0.2040
 6829TIP3   OH242121   3.571   1.261   2.633 -0.1549  0.0377  0.3431
 6829TIP3    H142122   3.475   1.254   2.637 -0.0875 -2.1967 -0.2678
 6829TIP3    H242123   3.589   1.288   2.543 -0.2195  1.7695  0.8245
 6830TIP3   OH242124   6.149   6.255   7.197 -0.5675 -0.1536  0.4393
 6830TIP3    H142125   6.121   6.331   7.248  0.1959 -1.0844  2.3694
 6830TIP3    H242126   6.238   6.237   7.228 -0.0329 -0.7301 -1.3274
 6831TIP3   OH242127   5.879   0.487   3.128  0.6675  0.0348  0.1814
 6831TIP3    H142128   5.933   0.560   3.159  2.3489 -1.3701  0.7076
 6831TIP3    H242129   5.909   0.472   3.038 -0.2144  0.4686 -0.1935
 6832TIP3   OH242130   4.950   5.244   1.459 -0.3776 -0.1526  0.3203
 6832TIP3    H142131   4.889   5.298   1.409 -0.2690 -1.0095 -0.7881
 6832TIP3    H242132   4.910   5.157   1.459  0.1266 -0.3946  0.8712
 6833TIP3   OH242133   5.465   4.805   1.205 -0.6322  0.1711  0.3845
 6833TIP3    H142134   5.460   4.764   1.119  1.9251 -0.4805  0.4676
 6833TIP3    H242135   5.525   4.878   1.194 -2.5065  1.9301  1.0400
 6834TIP3   OH242136   2.155   5.203   0.568 -0.1661  0.1816  0.6054
 6834TIP3    H142137   2.139   5.296   0.585 -0.7574 -0.3715  3.8177
 6834TIP3    H242138   2.220   5.178   0.634 -1.2217 -1.9962  0.9141
 6835TIP3   OH242139   6.459   4.284   0.542  0.1339  0.1256 -0.2533
 6835TIP3    H142140   6.487   4.373   0.563 -2.7140  1.9056 -3.0159
 6835TIP3    H242141   6.415   4.253   0.621  2.4242  0.4715  1.2571
 6836TIP3   OH242142   3.240   4.512   0.308 -0.5944  0.3741 -0.2493
 6836TIP3    H142143   3.321   4.537   0.262 -0.6635 -0.8031 -1.0649
 6836TIP3    H242144   3.268   4.446   0.371 -0.6076  1.5080  0.9783
 6837TIP3   OH242145   3.286   3.487   2.012 -0.1456 -0.1559 -0.4408
 6837TIP3    H142146   3.215   3.424   2.019  0.2743 -0.5051  1.2720
 6837TIP3    H242147   3.348   3.460   2.080  0.9833  0.9447 -0.9904
 6838TIP3   OH242148   3.712   0.698   1.428  0.0067  0.3300  0.1831
 6838TIP3    H142149   3.701   0.604   1.444  0.8324 -0.1346 -1.7550
 6838TIP3    H242150   3.659   0.740   1.496 -0.7935 -1.5346  0.7758
 6839TIP3   OH242151   0.374   4.926   8.238  0.5438 -0.6830  0.1914
 6839TIP3    H142152   0.410   4.887   8.158 -1.2891  0.5854 -1.3325
 6839TIP3    H242153   0.436   4.995   8.261  0.9236 -0.8407 -0.3303
 6840TIP3   OH242154   6.469   6.676   7.180  0.3718 -0.1193 -0.0005
 6840TIP3    H142155   6.379   6.651   7.160 -0.3323  1.5114  0.9565
 6840TIP3    H242156   6.515   6.670   7.096 -0.2749 -2.1695 -0.2746
 6841TIP3   OH242157   5.250   4.567   8.765 -0.3005 -0.3212  0.7737
 6841TIP3    H142158   5.344   4.553   8.755 -0.1814  0.3242  0.9307
 6841TIP3    H242159   5.211   4.525   8.688  0.1433 -0.2589  0.5129
 6842TIP3   OH242160   5.134   5.377   8.703 -0.3261  0.2485  0.0371
 6842TIP3    H142161   5.147   5.295   8.750  1.5073  0.4072 -0.1118
 6842TIP3    H242162   5.180   5.364   8.620 -0.8017  1.0947 -0.3661
 6843TIP3   OH242163   1.112   3.994   1.118  0.4461  0.0940 -0.2110
 6843TIP3    H142164   1.134   3.963   1.030 -0.3757 -2.8040  0.4956
 6843TIP3    H242165   1.063   4.075   1.103 -0.3398 -0.7261 -2.4959
 6844TIP3   OH242166   4.624   2.458   0.889 -0.7811  0.0483 -0.3471
 6844TIP3    H142167   4.661   2.485   0.805 -1.9186  0.3393 -0.7776
 6844TIP3    H242168   4.668   2.513   0.953 -1.6659  1.6053 -1.0206
 6845TIP3   OH242169   1.521   3.766   2.845 -0.4832 -0.1348 -0.0759
 6845TIP3    H142170   1.560   3.696   2.898  0.3955  0.9814  0.8322
 6845TIP3    H242171   1.568   3.845   2.873 -1.0039  0.7224 -1.5160
 6846TIP3   OH242172   1.247   1.877   7.883  0.4050  0.0751  0.1881
 6846TIP3    H142173   1.156   1.847   7.872  0.5681 -0.6964  0.9083
 6846TIP3    H242174   1.239   1.957   7.935  0.1883 -0.4561  0.9875
 6847TIP3   OH242175   1.737   2.281   0.050 -0.6476  0.0459 -0.1730
 6847TIP3    H142176   1.665   2.316  -0.002 -0.8817  1.7054  1.2147
 6847TIP3    H242177   1.725   2.186   0.044 -1.0976  0.1657 -2.4782
 6848TIP3   OH242178   2.599   3.753   2.322  0.1989  0.5942  0.1491
 6848TIP3    H142179   2.619   3.829   2.376  2.3261 -0.0702  0.4011
 6848TIP3    H242180   2.562   3.689   2.383 -0.2062  0.9043  0.2272
 6849TIP3   OH242181   6.737   0.182   1.559  0.1993 -0.1363  0.5323
 6849TIP3    H142182   6.805   0.133   1.513  0.5303 -0.4717  1.3555
 6849TIP3    H242183   6.707   0.122   1.628 -1.7401 -0.4457 -0.5078
 6850TIP3   OH242184   4.907   6.423   7.950  0.9855  0.2229 -0.1826
 6850TIP3    H142185   4.870   6.496   7.999  2.0336 -0.4087  1.6677
 6850TIP3    H242186   4.922   6.457   7.862 -2.0511  1.0545 -0.4580
 6851TIP3   OH242187   6.711   1.657   7.917  0.1968  0.0927 -0.0585
 6851TIP3    H142188   6.660   1.581   7.946 -2.0287  0.8215 -1.8120
 6851TIP3    H242189   6.655   1.701   7.853  3.2843  0.6464 -2.6349
 6852TIP3   OH242190   4.762   0.012   0.275  0.5214  0.2000 -0.1856
 6852TIP3    H142191   4.755   0.064   0.355 -1.6749  0.6954 -0.6339
 6852TIP3    H242192   4.719  -0.071   0.296  0.3346  0.1592 -0.7122
 6853TIP3   OH242193   6.527   1.272   2.445  0.6150 -0.6599  0.4382
 6853TIP3    H142194   6.530   1.305   2.535  1.0401  1.8480 -0.4383
 6853TIP3    H242195   6.441   1.297   2.413  0.3753 -1.7588  0.1767
 6854TIP3   OH242196   1.763   6.547   1.327  0.0236 -0.1383  0.2775
 6854TIP3    H142197   1.702   6.488   1.372 -0.1242 -0.2218 -0.0288
 6854TIP3    H242198   1.709   6.592   1.262  0.1527  0.2828  0.4597
 6855TIP3   OH242199   1.547   2.326   8.311 -0.1900 -0.1805  0.1176
 6855TIP3    H142200   1.626   2.291   8.269  1.4462  0.0907  2.7055
 6855TIP3    H242201   1.553   2.421   8.297 -1.0940 -0.2929 -1.2363
 6856TIP3   OH242202   1.728   0.347   6.754 -0.1035 -0.3783  0.1095
 6856TIP3    H142203   1.815   0.319   6.781  0.1026 -0.0228 -0.1790
 6856TIP3    H242204   1.669   0.304   6.816  0.2930 -0.3912  0.4820
 6857TIP3   OH242205   4.310   3.849   7.946 -0.4916  0.3584 -0.3352
 6857TIP3    H142206   4.218   3.839   7.971 -0.4082  1.2723  0.3695
 6857TIP3    H242207   4.313   3.929   7.894  0.0324  0.7802  0.3309
 6858TIP3   OH242208   1.508   6.294   1.604 -0.0529  0.0962 -0.0785
 6858TIP3    H142209   1.474   6.290   1.514  0.5139 -1.0477 -0.2649
 6858TIP3    H242210   1.437   6.335   1.654 -0.1269  1.3533 -1.1411
 6859TIP3   OH242211   5.712   6.403   6.651  0.4382 -0.1996 -0.8259
 6859TIP3    H142212   5.631   6.432   6.610 -0.6781 -1.7555  0.1307
 6859TIP3    H242213   5.763   6.483   6.665 -0.2869  0.6479 -2.7448
 6860TIP3   OH242214   5.236   5.760   0.927 -0.4797 -0.3228 -0.4362
 6860TIP3    H142215   5.170   5.825   0.902  0.2336  0.2935 -0.7664
 6860TIP3    H242216   5.188   5.695   0.978 -0.8472  1.5552  1.7699
 6861TIP3   OH242217   1.233   4.208   2.407 -0.1600  0.1487 -0.0757
 6861TIP3    H142218   1.320   4.182   2.437 -0.2282  0.3910  0.3368
 6861TIP3    H242219   1.175   4.186   2.479 -0.6634 -1.3589 -0.9069
 6862TIP3   OH242220   2.688   5.570   6.893 -0.1827 -0.1081 -0.2190
 6862TIP3    H142221   2.684   5.493   6.948  1.5945 -0.3120 -0.3032
 6862TIP3    H242222   2.720   5.538   6.808  2.3619  0.8865  0.2633
 6863TIP3   OH242223   4.624   3.007   8.173  0.6941 -0.2080  0.2430
 6863TIP3    H142224   4.625   2.949   8.096 -1.6588  0.3478 -0.2838
 6863TIP3    H242225   4.697   3.067   8.159  1.1594 -1.0013 -0.8481
 6864TIP3   OH242226   5.299   2.042   2.032  0.3856 -0.0665 -0.1790
 6864TIP3    H142227   5.274   2.114   1.974  0.6662 -0.0207 -0.2425
 6864TIP3    H242228   5.330   1.973   1.973 -2.0574 -1.1695 -0.3266
 6865TIP3   OH242229   1.274   2.811   0.548  0.7729 -0.0795 -0.7806
 6865TIP3    H142230   1.262   2.905   0.557  0.6321 -0.1205 -0.5385
 6865TIP3    H242231   1.207   2.784   0.484  1.2464  0.0853 -1.3546
 6866TIP3   OH242232   5.622   2.617   8.392  0.4867 -0.1929 -0.0340
 6866TIP3    H142233   5.674   2.687   8.433 -1.7361  0.7777  1.3081
 6866TIP3    H242234   5.598   2.652   8.306 -0.6160  0.7801  0.6303
 6867TIP3   OH242235   0.177   0.932   1.111 -0.4036 -0.5087 -0.1105
 6867TIP3    H142236   0.243   0.864   1.099  0.7626 -0.2074  3.3228
 6867TIP3    H242237   0.102   0.885   1.150 -1.0203 -0.3619 -1.0994
 6868TIP3   OH242238   4.151   2.212   2.724 -0.0189  0.0707  0.4789
 6868TIP3    H142239   4.137   2.178   2.813 -1.7249  0.5225  0.4301
 6868TIP3    H242240   4.177   2.136   2.673 -1.7938 -0.8049  0.7984
 6869TIP3   OH242241   6.769   3.364   7.168 -0.6800  0.1193  0.5761
 6869TIP3    H142242   6.856   3.367   7.208 -0.9309 -0.5502  1.1947
 6869TIP3    H242243   6.775   3.423   7.092  0.5832 -0.6753  0.0381
 6870TIP3   OH242244   6.482   2.598   8.415  0.0688 -0.3647  0.4201
 6870TIP3    H142245   6.572   2.629   8.400 -0.2325 -0.0819 -0.9380
 6870TIP3    H242246   6.430   2.678   8.423  0.1155 -0.4892  2.7603
 6871TIP3   OH242247   2.738   1.870   1.447 -0.1056 -0.2572 -0.0512
 6871TIP3    H142248   2.722   1.800   1.384  0.4130 -1.4579  1.0970
 6871TIP3    H242249   2.655   1.881   1.492  0.5659 -2.3895  1.9012
 6872TIP3   OH242250   6.467   3.794   2.222  0.1782  0.0425 -0.0107
 6872TIP3    H142251   6.385   3.806   2.270  1.1538  0.2817  1.6863
 6872TIP3    H242252   6.454   3.716   2.169 -0.8023 -0.5265  1.0344
 6873TIP3   OH242253   3.655   1.035   1.422 -0.0989 -0.2956  0.1913
 6873TIP3    H142254   3.656   0.971   1.351  1.3609  0.8138 -0.8430
 6873TIP3    H242255   3.747   1.054   1.438 -0.4790  0.8471  1.1284
 6874TIP3   OH242256   5.206   1.354   7.896 -0.5447  0.6837 -0.3568
 6874TIP3    H142257   5.124   1.362   7.945 -1.0272 -0.7467 -0.8725
 6874TIP3    H242258   5.179   1.330   7.808  0.4452 -1.2806 -0.1756
 6875TIP3   OH242259   1.349   3.036   8.818 -0.3888 -0.3995 -0.0281
 6875TIP3    H142260   1.354   2.977   8.893 -0.6133 -0.5472 -0.1278
 6875TIP3    H242261   1.372   2.981   8.743 -1.0648 -0.4749 -0.1785
 6876TIP3   OH242262   6.426   6.172   1.101 -0.4067 -0.0239  0.5833
 6876TIP3    H142263   6.498   6.208   1.154  0.7661  0.9783 -1.5654
 6876TIP3    H242264   6.347   6.207   1.142  0.5037  1.6536  1.0273
 6877TIP3   OH242265   5.215   2.014   2.293 -0.7938 -0.9112 -0.2826
 6877TIP3    H142266   5.290   1.963   2.324  0.5184  0.4266 -1.1311
 6877TIP3    H242267   5.233   2.029   2.200 -0.3781  2.2374  0.1930
 6878TIP3   OH242268   6.502   1.548   8.759 -0.1530  0.2490  0.6013
 6878TIP3    H142269   6.542   1.619   8.710  1.6653 -1.0188  0.1556
 6878TIP3    H242270   6.423   1.526   8.710 -0.0921  1.1580  0.0900
 6879TIP3   OH242271   1.232   0.694   1.800 -0.0152  0.0067  0.7319
 6879TIP3    H142272   1.175   0.617   1.797 -0.2971  0.2355 -0.0827
 6879TIP3    H242273   1.250   0.714   1.708  0.0096  0.9412  0.9300
 6880TIP3   OH242274   6.090   3.136   1.973  0.2030  0.3779  0.6471
 6880TIP3    H142275   6.033   3.142   2.050 -0.8243  0.2866 -0.0854
 6880TIP3    H242276   6.039   3.176   1.902  1.2613  0.7603  0.0786
 6881TIP3   OH242277   0.243   6.773   2.127  0.4226 -0.4049  0.1073
 6881TIP3    H142278   0.161   6.773   2.177  1.2251  0.1940  1.4984
 6881TIP3    H242279   0.307   6.735   2.187  1.6848  1.4871  0.0577
 6882TIP3   OH242280   5.792   3.438   1.537  0.3714  0.0047  0.3462
 6882TIP3    H142281   5.745   3.411   1.616 -2.0389 -0.7589 -1.2607
 6882TIP3    H242282   5.744   3.513   1.504  1.1555  0.1282 -0.5669
 6883TIP3   OH242283   3.890   2.461   1.850 -0.2153 -0.0752  0.9138
 6883TIP3    H142284   3.810   2.411   1.867  0.2799 -1.6598 -0.9805
 6883TIP3    H242285   3.956   2.419   1.907 -0.2024 -0.3972  0.6649
 6884TIP3   OH242286   0.623   2.106   1.956  0.5386  0.2870  0.2805
 6884TIP3    H142287   0.559   2.177   1.956 -1.9684 -1.8340  0.4200
 6884TIP3    H242288   0.688   2.132   1.891 -1.3003  1.8401 -1.0362
 6885TIP3   OH242289   4.436   4.914   0.853 -0.0498  0.3077 -0.3073
 6885TIP3    H142290   4.452   4.838   0.797  0.3078  0.9705 -1.1222
 6885TIP3    H242291   4.513   4.970   0.841 -0.3580  0.8464  0.1945
 6886TIP3   OH242292   3.814   1.299   7.297 -0.4485  0.5729  0.0662
 6886TIP3    H142293   3.752   1.248   7.245  1.5677  0.2087 -2.1228
 6886TIP3    H242294   3.878   1.235   7.329 -0.5226  1.0970  1.3152
 6887TIP3   OH242295   6.417   4.349   8.750  0.4140 -0.1904  0.1458
 6887TIP3    H142296   6.421   4.444   8.763 -1.1442 -0.2308  1.0912
 6887TIP3    H242297   6.324   4.329   8.745  0.7281 -1.6412 -0.4496
 6888TIP3   OH242298   6.461   0.488   6.905  0.2511 -0.2721 -0.2646
 6888TIP3    H142299   6.472   0.581   6.882  1.9841  0.1120  1.8537
 6888TIP3    H242300   6.523   0.442   6.849  1.1611  0.1523  0.3668
 6889TIP3   OH242301   2.804   4.730   8.574 -0.3091  0.2461 -0.7122
 6889TIP3    H142302   2.759   4.646   8.586 -0.8617  0.7723  1.2905
 6889TIP3    H242303   2.861   4.737   8.650 -0.6203  1.8887 -0.6039
 6890TIP3   OH242304   3.072   3.295   6.633  0.1138  0.7387 -0.3297
 6890TIP3    H142305   2.981   3.270   6.616  0.9446 -1.3029 -2.2051
 6890TIP3    H242306   3.122   3.216   6.616  2.2224  1.6442  1.2879
 6891TIP3   OH242307   3.129   6.073   8.870  0.1709  0.5579  0.4098
 6891TIP3    H142308   3.141   6.051   8.963  0.8141  0.5357  0.3198
 6891TIP3    H242309   3.175   6.156   8.859  0.5183  0.3087 -0.0105
 6892TIP3   OH242310   1.967   0.394   1.424  0.1116  0.0988  0.1440
 6892TIP3    H142311   1.974   0.304   1.392  1.7776 -0.3409  1.5848
 6892TIP3    H242312   2.057   0.420   1.443 -0.2720  2.3038 -0.7771
 6893TIP3   OH242313   1.894   4.337   0.678 -0.1494 -0.2577 -0.5194
 6893TIP3    H142314   1.976   4.314   0.636  0.2685 -0.1002  0.1960
 6893TIP3    H242315   1.871   4.423   0.640  1.3220  0.9063  1.0810
 6894TIP3   OH242316   5.143   6.621   0.952  0.1430  0.0588  0.1391
 6894TIP3    H142317   5.230   6.656   0.972  0.2648 -0.6382  0.8464
 6894TIP3    H242318   5.140   6.617   0.856  1.0497 -0.3071  0.1200
 6895TIP3   OH242319   0.385   6.778   6.883  0.0833 -0.0356  0.0365
 6895TIP3    H142320   0.375   6.796   6.790 -1.7434  0.6376  0.3138
 6895TIP3    H242321   0.337   6.849   6.927  1.4785  0.0567  1.5248
 6896TIP3   OH242322   1.520   3.647   0.064  0.6333 -0.0827  0.5920
 6896TIP3    H142323   1.442   3.676   0.016  0.0177 -0.6751  1.2205
 6896TIP3    H242324   1.502   3.669   0.155  0.8649 -0.9490  0.8516
 6897TIP3   OH242325   3.285   1.227   8.855 -0.2660 -0.2998 -0.1442
 6897TIP3    H142326   3.301   1.132   8.852 -1.5541 -0.5204 -0.9220
 6897TIP3    H242327   3.197   1.235   8.892  0.0452  0.6384  0.4178
 6898TIP3   OH242328   6.783   2.717   1.324 -0.3006 -0.4685  0.2646
 6898TIP3    H142329   6.734   2.758   1.396  2.3890 -0.9670  2.5586
 6898TIP3    H242330   6.867   2.764   1.323  0.0766 -1.1013 -1.9938
 6899TIP3   OH242331   1.827   5.733   1.137 -0.3733  0.2679  0.3853
 6899TIP3    H142332   1.787   5.752   1.052 -1.0650  1.3321  0.9134
 6899TIP3    H242333   1.766   5.671   1.178  0.1274 -0.5013  0.0016
 6900TIP3   OH242334   2.007   1.470   0.534 -0.1871  0.1048 -0.1207
 6900TIP3    H142335   2.008   1.457   0.629 -0.9250  1.1787  0.0459
 6900TIP3    H242336   1.937   1.533   0.519 -0.0959 -0.0697 -1.3923
 6901TIP3   OH242337   3.002   1.304   8.849 -0.6463 -0.3358  0.2106
 6901TIP3    H142338   2.952   1.237   8.896 -1.3686 -0.3146 -0.5046
 6901TIP3    H242339   2.947   1.327   8.775  1.1954 -1.6585 -1.6953
 6902TIP3   OH242340   6.627   2.519   7.285  0.1784  0.4231 -0.6475
 6902TIP3    H142341   6.564   2.460   7.242 -1.0637  1.6067 -0.5042
 6902TIP3    H242342   6.698   2.461   7.313 -0.9633 -0.9999 -0.5839
 6903TIP3   OH242343   1.807   4.869   2.790  0.3027  0.1827 -0.0161
 6903TIP3    H142344   1.820   4.902   2.701  1.0008 -0.8760 -0.3371
 6903TIP3    H242345   1.813   4.946   2.846  0.2925  0.8057 -0.8545
 6904TIP3   OH242346   2.030   0.403   7.494  0.1731  0.3101  0.1123
 6904TIP3    H142347   2.057   0.367   7.579 -0.1845  0.0444  0.1186
 6904TIP3    H242348   2.109   0.397   7.440  0.3674  0.3563  0.3862
 6905TIP3   OH242349   2.255   1.359   1.020 -0.2490 -0.2987  0.4377
 6905TIP3    H142350   2.180   1.351   0.960 -0.1908 -0.5669  0.3995
 6905TIP3    H242351   2.298   1.440   0.994  0.1346 -0.7177 -0.2979
 6906TIP3   OH242352   0.268   6.748   1.849  0.7789  0.2297  0.5173
 6906TIP3    H142353   0.323   6.820   1.818 -0.3674  0.6502 -0.6432
 6906TIP3    H242354   0.252   6.768   1.942  0.4007  1.5368  0.1845
 6907TIP3   OH242355   2.365   2.486   1.249 -0.1495  0.3793 -0.3111
 6907TIP3    H142356   2.365   2.393   1.270  3.1054 -0.2433 -2.3160
 6907TIP3    H242357   2.416   2.526   1.319  0.7292  0.1851 -0.8259
 6908TIP3   OH242358   2.885   1.970   0.158 -0.1945 -0.3741 -0.0995
 6908TIP3    H142359   2.904   1.947   0.249 -1.0697  0.5072  0.3391
 6908TIP3    H242360   2.967   2.006   0.124  0.1799 -0.8524  0.2921
 6909TIP3   OH242361   5.065   1.756   8.767  0.9260 -0.3039 -0.0271
 6909TIP3    H142362   4.973   1.784   8.768  0.1639 -2.5897  0.1756
 6909TIP3    H242363   5.115   1.837   8.774 -1.0511  1.0689 -0.8253
 6910TIP3   OH242364   2.392   0.005   0.443  0.1601  0.2094  0.8990
 6910TIP3    H142365   2.450  -0.035   0.378 -0.3236 -0.7921  1.0534
 6910TIP3    H242366   2.403  -0.049   0.521  1.1331  1.7130  1.8496
 6911TIP3   OH242367   1.929   2.012   1.012 -0.2947  0.1861  0.3291
 6911TIP3    H142368   1.885   1.931   0.990 -1.7552  0.6421  1.4290
 6911TIP3    H242369   1.918   2.068   0.935 -0.5638 -0.1358  0.1363
 6912TIP3   OH242370   3.980   3.925   8.478  0.0946  0.3233  0.1980
 6912TIP3    H142371   3.969   4.016   8.506  1.5443  1.0544 -1.3954
 6912TIP3    H242372   4.035   3.931   8.400 -2.2463 -1.6955 -1.7753
 6913TIP3   OH242373   0.314   1.373   8.843 -0.5570  0.2810  0.1056
 6913TIP3    H142374   0.254   1.333   8.780 -1.3452  2.3323 -0.5539
 6913TIP3    H242375   0.350   1.449   8.797  2.2117 -0.5775  0.6641
 6914TIP3   OH242376   3.056   4.937   7.614 -0.1146  0.2894 -0.4634
 6914TIP3    H142377   3.082   5.029   7.622 -2.6420  1.4782 -3.6820
 6914TIP3    H242378   3.021   4.929   7.525 -1.4694 -3.4355  0.1996
 6915TIP3   OH242379   0.582   0.641   1.719  0.2270 -0.1445 -0.1617
 6915TIP3    H142380   0.597   0.722   1.671 -1.7528  0.7948  0.6962
 6915TIP3    H242381   0.656   0.635   1.781 -0.1279  1.5674  0.4665
 6916TIP3   OH242382   3.287   3.780   2.032  0.2541 -0.0923  0.2989
 6916TIP3    H142383   3.192   3.775   2.034  0.1827  0.0525 -1.1236
 6916TIP3    H242384   3.315   3.691   2.007  0.5023 -0.1765  0.8690
 6917TIP3   OH242385   6.773   6.672   7.762 -0.2102  0.0632  0.2843
 6917TIP3    H142386   6.855   6.632   7.792  0.5244  0.7510 -0.7813
 6917TIP3    H242387   6.792   6.765   7.755 -1.0555  0.2188 -0.0869
 6918TIP3   OH242388   0.256   6.340   8.347 -0.7401  0.1445 -0.2450
 6918TIP3    H142389   0.252   6.307   8.257 -1.1471 -0.4350 -0.0190
 6918TIP3    H242390   0.306   6.273   8.394 -1.0606  0.1453  0.0918
 6919TIP3   OH242391   2.622   2.756   8.531 -0.2204 -0.7307  0.1811
 6919TIP3    H142392   2.660   2.775   8.445 -0.0159 -3.7298 -0.5247
 6919TIP3    H242393   2.529   2.741   8.514 -0.4791  0.1474  0.7679
 6920TIP3   OH242394   3.582   6.320   7.832  0.4779 -0.1530  1.0293
 6920TIP3    H142395   3.641   6.252   7.801  0.1607 -0.4201  1.0040
 6920TIP3    H242396   3.532   6.279   7.903  0.3481  0.0779  1.0725
 6921TIP3   OH242397   2.012   2.191   1.542  0.5662 -0.0260 -0.2137
 6921TIP3    H142398   1.966   2.109   1.554  1.0427 -0.2871 -0.1550
 6921TIP3    H242399   1.958   2.256   1.588 -1.0223  0.1146 -2.1543
 6922TIP3   OH242400   4.725   5.713   8.696 -0.2707  0.1946 -0.3007
 6922TIP3    H142401   4.729   5.774   8.622 -0.0299 -0.5042 -0.8767
 6922TIP3    H242402   4.815   5.680   8.705 -0.2678  0.3840  0.4023
 6923TIP3   OH242403   3.457   4.609   0.915 -0.1157  0.9605 -0.3286
 6923TIP3    H142404   3.364   4.589   0.926  0.3446 -0.7641  0.8612
 6923TIP3    H242405   3.460   4.704   0.902 -1.8421  1.5213  2.5277
 6924TIP3   OH242406   6.537   1.382   8.433  0.3266  0.0596  0.2896
 6924TIP3    H142407   6.559   1.472   8.412  2.3861 -0.4951 -0.2040
 6924TIP3    H242408   6.591   1.330   8.374 -0.1728 -1.5075  1.1476
 6925TIP3   OH242409   0.443   1.756   1.449  0.5136  0.0420 -0.1037
 6925TIP3    H142410   0.434   1.821   1.379  1.6098  0.4949  0.1379
 6925TIP3    H242411   0.354   1.739   1.479  0.1138  0.5358 -0.9917
 6926TIP3   OH242412   4.782   2.726   8.083  0.1323  0.1690 -0.4360
 6926TIP3    H142413   4.836   2.705   8.159  1.5131  1.0326 -1.1306
 6926TIP3    H242414   4.694   2.697   8.107  0.6955 -0.3384  1.1463
 6927TIP3   OH242415   3.367   5.287   7.507 -0.3288  0.1209  0.3828
 6927TIP3    H142416   3.427   5.361   7.499  0.7279 -0.6066  1.2870
 6927TIP3    H242417   3.379   5.237   7.426 -0.7124  0.6840 -0.0291
 6928TIP3   OH242418   5.875   2.421   7.502  0.0040  0.0879 -0.4208
 6928TIP3    H142419   5.890   2.330   7.527  0.6628  0.9543  2.7259
 6928TIP3    H242420   5.946   2.442   7.441  0.5874 -1.1443 -0.1856
 6929TIP3   OH242421   1.592   5.362   2.366 -0.4308 -0.3186  0.6733
 6929TIP3    H142422   1.614   5.445   2.323 -0.9691 -1.5039 -2.1465
 6929TIP3    H242423   1.614   5.376   2.458 -0.1722  2.8061  0.2573
 6930TIP3   OH242424   5.988   6.556   1.759 -0.2253  0.1183  0.1360
 6930TIP3    H142425   5.963   6.469   1.792 -0.4025  0.4748  0.9686
 6930TIP3    H242426   5.946   6.562   1.674 -1.9540  0.1843  0.9425
 6931TIP3   OH242427   2.286   5.764   2.274  0.1250  0.3717  0.6524
 6931TIP3    H142428   2.266   5.844   2.226  1.8521  0.5059  0.1176
 6931TIP3    H242429   2.330   5.794   2.354  2.8822 -0.0575 -0.6032
 6932TIP3   OH242430   0.730   2.214   1.338  0.2080  0.0710 -0.7948
 6932TIP3    H142431   0.804   2.179   1.386 -1.1871 -1.2475  0.4924
 6932TIP3    H242432   0.675   2.256   1.404 -1.5839 -1.4792 -1.2069
 6933TIP3   OH242433   5.734   2.604   2.330  0.0264  0.3145 -0.0395
 6933TIP3    H142434   5.790   2.627   2.404 -0.4097 -0.4902  0.5598
 6933TIP3    H242435   5.668   2.673   2.328  0.0231  0.3270  0.3464
 6934TIP3   OH242436   1.614   6.086   8.909 -0.0542  0.9042  0.5217
 6934TIP3    H142437   1.697   6.133   8.908 -0.1387  1.0764 -1.0210
 6934TIP3    H242438   1.558   6.137   8.968  0.9039  0.7912  1.5679
 6935TIP3   OH242439   6.160   3.021   8.755 -0.8320  0.2329  0.2856
 6935TIP3    H142440   6.242   3.066   8.775 -0.9172  0.6728 -0.3089
 6935TIP3    H242441   6.125   3.068   8.679 -1.5562 -0.0489  0.4336
 6936TIP3   OH242442   6.262   0.080   0.184 -0.2719 -0.1254  0.0743
 6936TIP3    H142443   6.277   0.132   0.263 -1.8310  0.0350  0.3002
 6936TIP3    H242444   6.211   0.137   0.127 -3.1020 -1.7092  0.8173
 6937TIP3   OH242445   5.143   3.332   0.492  0.0976  0.0751  0.3802
 6937TIP3    H142446   5.168   3.423   0.507 -0.1675  0.6983 -2.4150
 6937TIP3    H242447   5.225   3.287   0.472  0.0585  0.0477  0.2772
 6938TIP3   OH242448   0.916   6.301   7.748  0.0545  0.8741 -0.5283
 6938TIP3    H142449   0.940   6.218   7.708 -1.6585  0.6239 -1.1134
 6938TIP3    H242450   0.957   6.299   7.834 -0.6965 -1.0001 -0.1605
 6939TIP3   OH242451   3.193   5.677   1.998 -0.9087 -0.3435  0.1578
 6939TIP3    H142452   3.256   5.636   1.939 -0.4767  0.0958  0.3080
 6939TIP3    H242453   3.174   5.610   2.063 -0.0868 -0.2784  0.4901
 6940TIP3   OH242454   6.191   3.806   2.397  0.0452  0.1885 -0.1597
 6940TIP3    H142455   6.106   3.776   2.365  0.4174 -0.0416 -0.9678
 6940TIP3    H242456   6.185   3.901   2.398  0.5546  0.2888 -2.5126
 6941TIP3   OH242457   3.182   1.652   1.604 -0.4771  0.1446  0.4487
 6941TIP3    H142458   3.112   1.677   1.544 -0.1365  0.4869  0.1906
 6941TIP3    H242459   3.200   1.560   1.582  0.0056  0.4220 -0.3362
 6942TIP3   OH242460   4.061   3.511   7.637 -0.2189  0.3823 -0.0568
 6942TIP3    H142461   4.101   3.524   7.723  0.9967  2.1782 -0.8290
 6942TIP3    H242462   4.135   3.495   7.578 -0.9634 -0.0320 -0.9096
 6943TIP3   OH242463   1.551   3.043   0.212 -0.1868  0.0288  0.4635
 6943TIP3    H142464   1.632   3.069   0.169 -1.2611  0.7529 -1.2145
 6943TIP3    H242465   1.546   3.099   0.290  0.5210  0.5750  0.1229
 6944TIP3   OH242466   2.568   0.543   7.974 -0.2009  0.1048  0.3405
 6944TIP3    H142467   2.473   0.544   7.961 -0.2313 -1.3962  0.2213
 6944TIP3    H242468   2.580   0.553   8.069 -0.1889  5.6250  0.0835
 6945TIP3   OH242469   5.865   2.801   2.063 -0.1266 -0.2491  0.2554
 6945TIP3    H142470   5.841   2.851   2.141  0.7626  1.8671 -0.7446
 6945TIP3    H242471   5.783   2.762   2.034 -1.1588  1.7131  0.3795
 6946TIP3   OH242472   2.816   4.803   2.277  0.2422  0.3868 -0.6373
 6946TIP3    H142473   2.733   4.793   2.323  0.5136 -0.5848 -0.3262
 6946TIP3    H242474   2.841   4.895   2.290 -0.5696  0.5743 -0.3765
 6947TIP3   OH242475   5.521   0.742   1.911  0.0822 -0.1558 -0.1061
 6947TIP3    H142476   5.438   0.768   1.952 -0.1576  0.0899 -0.7428
 6947TIP3    H242477   5.583   0.810   1.939  0.2874 -0.8078  1.0804
 6948TIP3   OH242478   2.767   2.498   1.854 -0.2905  0.0803  0.4362
 6948TIP3    H142479   2.747   2.472   1.764  0.2040  1.6599 -0.1797
 6948TIP3    H242480   2.861   2.482   1.864 -0.6859 -1.8907  1.3525
 6949TIP3   OH242481   4.216   4.414   0.520 -0.8197 -0.0537 -0.3441
 6949TIP3    H142482   4.171   4.498   0.529 -2.4236 -0.8681 -0.3171
 6949TIP3    H242483   4.308   4.437   0.510 -1.1824  1.6890 -0.0696
 6950TIP3   OH242484   6.302   4.388   7.345  0.3766 -0.3643  0.4548
 6950TIP3    H142485   6.249   4.444   7.401  1.2477  1.3164 -0.3156
 6950TIP3    H242486   6.361   4.448   7.300  0.4734 -1.7492 -1.4232
 6951TIP3   OH242487   0.067   0.248   1.986 -0.3646 -0.0768  0.3585
 6951TIP3    H142488   0.004   0.184   1.953 -0.7390  0.2888  0.3533
 6951TIP3    H242489   0.048   0.328   1.937 -0.2835  0.1985  0.7682
 6952TIP3   OH242490   6.678   5.239   7.738  0.1621  0.3514  0.2025
 6952TIP3    H142491   6.624   5.161   7.732  0.3088  0.3497 -1.6709
 6952TIP3    H242492   6.759   5.216   7.691  1.8174  0.3778  2.8491
 6953TIP3   OH242493   6.751   6.280   8.565  0.1857  0.2936 -0.3479
 6953TIP3    H142494   6.832   6.304   8.610  0.9013  0.6529 -1.7700
 6953TIP3    H242495   6.706   6.363   8.552  0.8297  0.4612 -1.8120
 6954TIP3   OH242496   1.900   2.015   2.339  0.4431  0.3627 -0.0198
 6954TIP3    H142497   1.900   2.092   2.395  2.6697  1.0313 -0.8396
 6954TIP3    H242498   1.908   1.941   2.399  0.3588  0.8963  0.6529
 6955TIP3   OH242499   2.204   0.530   0.715  0.1716  0.1096 -0.0104
 6955TIP3    H142500   2.174   0.516   0.625  1.0203  0.0624 -0.2897
 6955TIP3    H242501   2.279   0.472   0.725  0.2425  0.3074  0.6486
 6956TIP3   OH242502   1.058   0.564   6.570  0.0117 -0.1900  0.1381
 6956TIP3    H142503   1.026   0.519   6.491  0.4636 -1.8025  0.8238
 6956TIP3    H242504   1.153   0.550   6.568 -0.0806 -1.1984  1.4977
 6957TIP3   OH242505   0.281   2.723   0.658  0.2430 -0.0581 -0.3307
 6957TIP3    H142506   0.298   2.815   0.641  0.0177  0.0156 -0.1578
 6957TIP3    H242507   0.185   2.715   0.655  0.2847 -0.4087 -0.9718
 6958TIP3   OH242508   1.258   4.458   0.389  0.9765 -0.6564 -0.4607
 6958TIP3    H142509   1.209   4.429   0.466  1.2216  0.3307  0.0881
 6958TIP3    H242510   1.341   4.491   0.425  0.1410  2.0921 -0.8390
 6959TIP3   OH242511   5.685   6.381   0.526 -0.1553 -0.3951  0.6882
 6959TIP3    H142512   5.682   6.468   0.485 -0.3899 -1.0936 -0.8620
 6959TIP3    H242513   5.761   6.339   0.487 -2.1274 -2.2037 -1.5348
 6960TIP3   OH242514   4.889   0.155   2.258  0.2810 -0.3529 -0.1027
 6960TIP3    H142515   4.822   0.141   2.325  0.0673  1.7220  0.2006
 6960TIP3    H242516   4.857   0.109   2.181 -1.9107  1.1800 -0.1862
 6961TIP3   OH242517   3.232   0.273   2.552 -0.2209  0.9752 -0.8140
 6961TIP3    H142518   3.213   0.233   2.467 -1.0833  0.7361 -0.5207
 6961TIP3    H242519   3.213   0.366   2.540 -1.4319  0.7717 -0.5857
 6962TIP3   OH242520   4.310   6.253   8.656 -0.3057 -0.4323  0.1223
 6962TIP3    H142521   4.327   6.159   8.664  0.6031 -0.2008  1.0320
 6962TIP3    H242522   4.316   6.287   8.745 -2.5813  0.2050  0.1032
 6963TIP3   OH242523   5.375   4.178   8.521 -0.2799  0.1361 -0.0378
 6963TIP3    H142524   5.314   4.178   8.595  0.5172 -0.1336  0.6304
 6963TIP3    H242525   5.433   4.104   8.537  0.4184  0.5686 -0.5060
 6964TIP3   OH242526   1.401   2.445   1.758 -0.3496  0.4052  0.3759
 6964TIP3    H142527   1.410   2.490   1.842  1.6454  0.1373  0.3514
 6964TIP3    H242528   1.458   2.368   1.766  1.0565  1.1418 -1.7187
 6965TIP3   OH242529   1.133   0.424   1.753  0.0281 -0.2947 -0.5522
 6965TIP3    H142530   1.072   0.371   1.701  0.3557 -1.4662  0.2092
 6965TIP3    H242531   1.112   0.402   1.844  0.8968  0.0723 -0.2552
 6966TIP3   OH242532   2.088   1.417   1.857  0.5732  0.5305 -0.4489
 6966TIP3    H142533   2.143   1.489   1.825 -0.2445  1.3489 -0.0833
 6966TIP3    H242534   2.003   1.432   1.815  0.5848 -0.6444 -0.9170
 6967TIP3   OH242535   2.193   0.199   1.524  0.0785 -0.4200  0.0315
 6967TIP3    H142536   2.201   0.118   1.573 -1.7023 -0.0538  1.0388
 6967TIP3    H242537   2.214   0.175   1.434 -0.3411 -1.9741  0.3178
 6968TIP3   OH242538   3.340   2.221   7.865  1.0679  0.5493 -0.1665
 6968TIP3    H142539   3.323   2.127   7.876  1.2599  0.3736 -1.2852
 6968TIP3    H242540   3.410   2.225   7.800  2.1091  1.4303  0.9698
 6969TIP3   OH242541   2.546   4.752   0.463 -0.5887  0.1103 -0.6013
 6969TIP3    H142542   2.590   4.799   0.534 -0.9360  2.0480 -1.6015
 6969TIP3    H242543   2.549   4.660   0.490  1.4580  0.4967  0.7472
 6970TIP3   OH242544   0.762   2.646   2.002 -0.1963  0.2960  0.1201
 6970TIP3    H142545   0.807   2.604   1.929  1.6708  1.4977  0.5367
 6970TIP3    H242546   0.776   2.586   2.076 -0.7957 -0.1767 -0.1401
 6971TIP3   OH242547   0.055   2.463   1.445  0.1423  0.6971 -0.3636
 6971TIP3    H142548   0.134   2.516   1.434 -0.1240  0.9892 -0.9478
 6971TIP3    H242549  -0.016   2.519   1.412 -0.6056  1.2414  1.9897
 6972TIP3   OH242550   5.643   0.923   1.147  0.1246 -0.5651 -0.3831
 6972TIP3    H142551   5.575   0.979   1.184 -0.1269 -0.9210 -0.2938
 6972TIP3    H242552   5.597   0.843   1.122  0.7208 -1.3924  1.0139
 6973TIP3   OH242553   3.572   6.190   1.105 -0.3834  0.1497  0.0650
 6973TIP3    H142554   3.632   6.137   1.157 -0.5605  0.7951  0.9546
 6973TIP3    H242555   3.607   6.279   1.112  0.7142  0.0024 -2.5497
 6974TIP3   OH242556   5.262   0.434   2.505 -0.0858 -0.1632 -0.2141
 6974TIP3    H142557   5.291   0.502   2.566  0.0188  0.3551 -0.8354
 6974TIP3    H242558   5.167   0.433   2.513  0.0355 -1.8085  1.7711
 6975TIP3   OH242559   0.234   0.692   8.776  0.1818 -0.1776 -0.4003
 6975TIP3    H142560   0.274   0.645   8.703 -1.6511 -0.6434 -1.1575
 6975TIP3    H242561   0.177   0.628   8.817 -1.7875  1.1200 -0.9788
 6976TIP3   OH242562   6.558   0.152   1.257 -0.1907 -0.2485 -0.1884
 6976TIP3    H142563   6.610   0.228   1.283 -0.9600  0.0708  0.4527
 6976TIP3    H242564   6.469   0.171   1.287 -1.1830  0.1432 -3.0427
 6977TIP3   OH242565   2.961   3.741   8.378  0.0186  0.7727 -0.2384
 6977TIP3    H142566   2.910   3.794   8.439  0.1551  0.9385 -0.2683
 6977TIP3    H242567   2.988   3.664   8.429 -2.6634 -0.7814 -0.9647
 6978TIP3   OH242568   0.331   0.427   7.449  0.5971  0.4614  0.1920
 6978TIP3    H142569   0.365   0.400   7.364 -1.6792  0.4503 -0.7820
 6978TIP3    H242570   0.240   0.452   7.432 -0.0572  0.0653  2.6996
 6979TIP3   OH242571   2.652   3.146   1.103  0.2953 -0.4117  0.6246
 6979TIP3    H142572   2.562   3.172   1.121  0.2951  1.0231 -1.1258
 6979TIP3    H242573   2.706   3.217   1.138  0.5390  0.1292 -0.7759
 6980TIP3   OH242574   5.462   1.840   1.893 -0.0484  0.3714  0.7169
 6980TIP3    H142575   5.407   1.772   1.855  0.3432  0.0242  0.7723
 6980TIP3    H242576   5.499   1.885   1.817 -0.0238  0.2939  0.6831
 6981TIP3   OH242577   2.508   3.654   1.226 -0.1721  0.2230  0.0299
 6981TIP3    H142578   2.417   3.638   1.250 -0.7511  1.7281 -1.0431
 6981TIP3    H242579   2.511   3.639   1.132  0.6789  0.2681  0.0412
 6982TIP3   OH242580   5.661   6.014   2.718 -0.2993  0.1474 -0.0879
 6982TIP3    H142581   5.734   6.069   2.746 -0.5355  1.2474 -1.5068
 6982TIP3    H242582   5.662   6.019   2.622 -1.5985 -0.6524 -0.1763
 6983TIP3   OH242583   2.363   1.034   8.087 -0.0758 -0.4790  0.5529
 6983TIP3    H142584   2.441   1.038   8.032 -0.8439 -1.4533 -0.6780
 6983TIP3    H242585   2.395   1.051   8.175  1.8951 -2.8702  0.4082
 6984TIP3   OH242586   4.287   5.707   2.154 -0.3115 -0.0950  0.6072
 6984TIP3    H142587   4.342   5.633   2.180 -0.1825  0.1202  0.9601
 6984TIP3    H242588   4.209   5.668   2.115 -0.2057 -0.4140  0.7186
 6985TIP3   OH242589   3.151   4.592   7.537 -0.5992 -0.4854  0.0796
 6985TIP3    H142590   3.069   4.630   7.569 -0.8940  0.6431 -1.8188
 6985TIP3    H242591   3.169   4.640   7.456  1.0632 -1.8751 -0.4343
 6986TIP3   OH242592   5.325   6.313   1.481 -0.0895 -0.0436  0.3836
 6986TIP3    H142593   5.392   6.267   1.430  0.3274 -0.1889  1.0435
 6986TIP3    H242594   5.254   6.328   1.419  0.8010  0.6782 -0.5018
 6987TIP3   OH242595   0.844   0.288   2.148  0.6053  0.6472  0.1452
 6987TIP3    H142596   0.750   0.295   2.161  0.4679  1.4210 -1.0639
 6987TIP3    H242597   0.870   0.211   2.199 -0.8668 -0.2697 -0.4080
 6988TIP3   OH242598   6.387   5.405   0.012  0.1226 -0.4813  0.3062
 6988TIP3    H142599   6.387   5.394   0.107  1.2541  1.0667  0.5213
 6988TIP3    H242600   6.473   5.442  -0.008  0.2340 -1.5463 -1.4409
 6989TIP3   OH242601   3.696   5.549   2.536 -0.1387 -0.2120 -0.4674
 6989TIP3    H142602   3.668   5.576   2.624  0.3760  0.7672 -0.5924
 6989TIP3    H242603   3.616   5.518   2.494 -0.1155 -2.4135  0.9294
 6990TIP3   OH242604   6.374   5.639   7.413  0.1328 -0.1984 -0.0699
 6990TIP3    H142605   6.336   5.724   7.434  1.3948  0.3474  0.0811
 6990TIP3    H242606   6.318   5.576   7.459 -0.3815  0.5977  0.4220
 6991TIP3   OH242607   4.401   2.150   7.170 -0.2623 -0.1563 -0.3777
 6991TIP3    H142608   4.413   2.200   7.089  0.3994  0.0159 -0.1801
 6991TIP3    H242609   4.464   2.187   7.231  0.2866 -1.2577 -0.2500
 6992TIP3   OH242610   2.065   3.914   1.225  0.0885  0.2552  0.0199
 6992TIP3    H142611   2.151   3.947   1.252  0.5453 -0.6585 -0.2750
 6992TIP3    H242612   2.017   3.904   1.308 -0.6030  2.9864  0.0347
 6993TIP3   OH242613   2.172   2.210   0.400  0.1301  0.4649 -0.4273
 6993TIP3    H142614   2.183   2.299   0.367 -0.2005  1.0019  0.8704
 6993TIP3    H242615   2.211   2.211   0.487  1.7452 -1.1461 -1.0612
 6994TIP3   OH242616   3.747   4.439   0.078  1.2768 -0.3182  0.1121
 6994TIP3    H142617   3.756   4.530   0.105  2.9556 -0.3709 -0.1292
 6994TIP3    H242618   3.737   4.390   0.159 -2.2865  0.2526  0.1511
 6995TIP3   OH242619   3.899   0.499   8.700  0.2444  0.4911  0.0068
 6995TIP3    H142620   3.994   0.486   8.696  0.2004  0.0861  0.2030
 6995TIP3    H242621   3.863   0.412   8.686 -0.1809  1.0254 -2.8650
 6996TIP3   OH242622   2.213   0.414   2.878  0.0181  0.0364 -0.0582
 6996TIP3    H142623   2.141   0.384   2.933  1.3241  0.5861  2.0420
 6996TIP3    H242624   2.268   0.337   2.866  0.1396  0.1049  0.0599
 6997TIP3   OH242625   4.322   2.501   8.400  0.1695 -0.3490 -0.3086
 6997TIP3    H142626   4.315   2.408   8.380 -0.0771 -0.6520  1.0604
 6997TIP3    H242627   4.241   2.522   8.447  0.6139  0.3279  0.1882
 6998TIP3   OH242628   2.718   4.177   0.075  0.0227  0.4313  0.6434
 6998TIP3    H142629   2.664   4.246   0.036  1.3633  1.6409  0.8399
 6998TIP3    H242630   2.657   4.128   0.131 -0.8738  1.7474  0.8710
 6999TIP3   OH242631   5.906   1.851   2.081  0.0442 -0.1967 -0.3623
 6999TIP3    H142632   5.914   1.946   2.087  0.2039 -0.1053 -1.6082
 6999TIP3    H242633   5.907   1.820   2.171  0.7932  0.9224  0.0268
 7000TIP3   OH242634   4.911   0.821   1.805 -0.1717 -0.3383  0.3756
 7000TIP3    H142635   4.930   0.732   1.834 -0.8656 -1.0386 -1.1482
 7000TIP3    H242636   4.970   0.835   1.731 -3.3344 -1.5373 -2.6649
 7001TIP3   OH242637   2.610   2.409   0.060 -0.1797 -0.0051 -0.1962
 7001TIP3    H142638   2.555   2.463   0.116 -0.0881 -0.8201  0.7117
 7001TIP3    H242639   2.613   2.456  -0.023 -1.8191  0.3204 -0.1101
 7002TIP3   OH242640   3.961   6.081   8.726  0.1504 -0.0496 -0.1772
 7002TIP3    H142641   4.055   6.073   8.743 -0.1001 -0.5896  1.0782
 7002TIP3    H242642   3.925   5.995   8.750 -0.3131 -0.8592 -3.3844
 7003TIP3   OH242643   6.626   6.498   0.024 -0.4551 -0.0568 -0.2588
 7003TIP3    H142644   6.579   6.538   0.097 -1.1644  0.3029 -0.9063
 7003TIP3    H242645   6.613   6.558  -0.049  0.9906  0.0373 -0.4623
 7004TIP3   OH242646   2.023   3.027   7.595  0.4438  0.3502 -0.6854
 7004TIP3    H142647   2.007   2.933   7.586  0.9190  0.1324  0.4961
 7004TIP3    H242648   2.079   3.049   7.521  2.9464 -0.9725  0.6885
 7005TIP3   OH242649   6.651   2.872   8.435  0.2363  0.0987 -0.2750
 7005TIP3    H142650   6.649   2.963   8.465  1.6730  0.0074  0.1650
 7005TIP3    H242651   6.602   2.873   8.353 -0.8598  1.0098  0.3618
 7006TIP3   OH242652   5.311   4.791   7.203  0.1391 -0.1758  0.3834
 7006TIP3    H142653   5.294   4.713   7.151 -0.2125  1.4346 -2.1274
 7006TIP3    H242654   5.383   4.767   7.261  0.6697 -2.0806 -0.9805
 7007TIP3   OH242655   3.036   6.766   1.067  0.4406 -0.5147  0.0936
 7007TIP3    H142656   2.980   6.691   1.044 -1.2698  1.0080 -1.0319
 7007TIP3    H242657   3.058   6.806   0.982  1.1732  0.3391  0.6723
 7008TIP3   OH242658   3.768   6.456   8.371 -0.4563 -0.3737 -0.3899
 7008TIP3    H142659   3.849   6.478   8.325 -0.2446 -1.9400 -0.8020
 7008TIP3    H242660   3.704   6.443   8.301 -0.1677 -2.6424 -0.2955
 7009TIP3   OH242661   2.821   6.221   0.999 -0.4356  0.2357  0.0096
 7009TIP3    H142662   2.784   6.146   0.954  1.3722  0.7678 -2.6375
 7009TIP3    H242663   2.916   6.209   0.992 -0.0659  3.0374 -1.1250
 7010TIP3   OH242664   3.716   3.176   0.787 -0.1430 -0.3557 -0.0233
 7010TIP3    H142665   3.672   3.258   0.765  0.8179 -0.3223 -1.9414
 7010TIP3    H242666   3.734   3.184   0.881 -1.0909  1.1150  0.0680
 7011TIP3   OH242667   1.504   3.601   8.393  0.4573  0.5923  0.1909
 7011TIP3    H142668   1.542   3.655   8.323 -0.1242  2.6517  1.3830
 7011TIP3    H242669   1.437   3.656   8.432  0.5858 -0.5899  2.2200
 7012TIP3   OH242670   5.212   0.230   8.771 -0.1395  0.3399  0.0062
 7012TIP3    H142671   5.242   0.317   8.743  1.2935 -0.6131 -1.6622
 7012TIP3    H242672   5.293   0.181   8.787 -0.9087 -0.8972  0.2464
 7013TIP3   OH242673   2.500   6.650   1.998  0.3525  0.2808 -0.1008
 7013TIP3    H142674   2.527   6.593   2.070 -0.0461  1.1718  0.7854
 7013TIP3    H242675   2.406   6.636   1.990  0.2657  0.7520  0.0713
 7014TIP3   OH242676   1.483   6.204   0.188 -0.1097 -0.3754 -0.3387
 7014TIP3    H142677   1.398   6.186   0.147  0.0681  0.2658 -1.0072
 7014TIP3    H242678   1.492   6.299   0.185 -1.0627 -0.0208  3.2065
 7015TIP3   OH242679   6.422   3.944   8.111 -0.8388  0.1314 -0.6114
 7015TIP3    H142680   6.403   3.929   8.019 -2.5605  3.2353 -0.9114
 7015TIP3    H242681   6.342   3.918   8.157 -0.6006  0.1397 -0.1844
 7016TIP3   OH242682   5.363   5.712   2.922  0.4112  0.8816 -0.3329
 7016TIP3    H142683   5.268   5.720   2.925  0.2148 -0.1501 -2.1203
 7016TIP3    H242684   5.394   5.800   2.903 -0.1307  1.3251  0.7556
 7017TIP3   OH242685   0.327   0.383   7.957  0.0079  0.0745  0.2657
 7017TIP3    H142686   0.336   0.406   7.865 -3.4458  1.3262  0.1254
 7017TIP3    H242687   0.338   0.466   8.004  0.1444 -0.2846  0.8811
 7018TIP3   OH242688   0.162   3.264   2.037 -0.0241  0.0675 -0.1156
 7018TIP3    H142689   0.154   3.358   2.053 -0.0296 -0.0650  0.7389
 7018TIP3    H242690   0.240   3.238   2.086 -1.6117 -0.8492  2.1225
 7019TIP3   OH242691   1.596   5.944   0.520  0.4134 -0.2163  0.1602
 7019TIP3    H142692   1.560   5.963   0.607  1.0992 -0.8465  0.6013
 7019TIP3    H242693   1.531   5.976   0.459 -0.8808 -1.2659  0.9271
 7020TIP3   OH242694   0.081   4.901   0.967 -0.4740 -0.2837 -0.3057
 7020TIP3    H142695   0.023   4.964   1.010  2.0053  1.0278  1.3397
 7020TIP3    H242696   0.115   4.947   0.891 -0.5582 -0.5793 -0.5268
 7021TIP3   OH242697   1.812   0.927   2.272  0.3640  0.1333  0.2000
 7021TIP3    H142698   1.768   0.852   2.312 -0.5983  0.6733  0.1903
 7021TIP3    H242699   1.904   0.901   2.266 -0.2056 -1.8025 -1.5070
 7022TIP3   OH242700   4.033   0.321   8.140  0.4384  0.4061  0.1966
 7022TIP3    H142701   4.006   0.267   8.215  0.1669 -0.0222 -0.2025
 7022TIP3    H242702   4.030   0.261   8.066  2.6492  0.2891  0.1407
 7023TIP3   OH242703   3.841   1.215   0.211 -0.1696 -0.0642 -0.0285
 7023TIP3    H142704   3.842   1.290   0.271 -0.9793 -0.6881  0.7860
 7023TIP3    H242705   3.752   1.181   0.216  0.5552 -2.0309  0.8370
 7024TIP3   OH242706   6.397   3.895   7.294 -0.0811 -0.1901 -0.2615
 7024TIP3    H142707   6.423   3.984   7.317 -0.8006 -0.4784  1.8852
 7024TIP3    H242708   6.475   3.842   7.310 -0.4046 -0.2975  1.1350
 7025TIP3   OH242709   5.816   1.830   7.203  0.3527 -0.2967  0.2354
 7025TIP3    H142710   5.762   1.909   7.197  0.1256 -0.5142 -0.7343
 7025TIP3    H242711   5.754   1.758   7.187  0.2847 -0.7919  2.3629
 7026TIP3   OH242712   1.345   5.498   8.199  0.3457 -0.4424 -0.4114
 7026TIP3    H142713   1.314   5.587   8.214 -1.7800 -0.7120 -2.5542
 7026TIP3    H242714   1.398   5.477   8.276 -0.7975  1.9237  1.1173
 7027TIP3   OH242715   1.456   0.804   2.353  0.3185  0.0868  0.0585
 7027TIP3    H142716   1.500   0.861   2.291 -0.9050  1.4559  0.3954
 7027TIP3    H242717   1.524   0.744   2.383  1.3718  0.6386 -1.1496
 7028TIP3   OH242718   5.620   3.653   8.580  0.4192  0.4970 -0.3812
 7028TIP3    H142719   5.607   3.698   8.664 -0.3244 -0.6229  0.1295
 7028TIP3    H242720   5.554   3.583   8.580  1.3747 -0.4374 -1.2560
 7029TIP3   OH242721   2.674   6.171   8.057  0.0838 -0.7144  0.5785
 7029TIP3    H142722   2.690   6.209   7.971 -1.0391  2.2550  1.5766
 7029TIP3    H242723   2.635   6.085   8.038  0.0475 -0.2321 -1.8428
 7030TIP3   OH242724   4.450   1.509   8.133 -0.2686  0.2175 -0.1090
 7030TIP3    H142725   4.517   1.533   8.197 -0.3571  0.1279  0.0163
 7030TIP3    H242726   4.500   1.481   8.056 -0.0415 -2.9592  1.0347
 7031TIP3   OH242727   0.329   2.172   0.633 -0.5075 -0.8729 -0.2233
 7031TIP3    H142728   0.273   2.102   0.600  0.7855 -2.6675  1.1710
 7031TIP3    H242729   0.268   2.239   0.666 -1.7712 -1.0723 -2.0138
 7032TIP3   OH242730   3.448   5.712   1.230 -0.1323 -0.5838 -0.0150
 7032TIP3    H142731   3.391   5.688   1.303  0.3055 -1.1749  0.1402
 7032TIP3    H242732   3.525   5.657   1.240  0.4378  0.1460 -0.2725
 7033TIP3   OH242733   1.928   3.882   0.368  0.5569 -0.4315  0.5693
 7033TIP3    H142734   1.976   3.883   0.452  2.2556  1.4062 -0.3286
 7033TIP3    H242735   1.988   3.837   0.308  0.9558  1.3778 -0.4416
 7034TIP3   OH242736   6.037   0.051   8.228  0.1507 -0.1923  0.3035
 7034TIP3    H142737   6.121   0.091   8.251  0.2979  0.6792 -1.6062
 7034TIP3    H242738   6.040  -0.035   8.271  1.1526  0.5837  1.9031
 7035TIP3   OH242739   6.296   5.491   2.921 -0.3360  0.5031  0.1079
 7035TIP3    H142740   6.324   5.557   2.984 -0.4238  1.4950 -0.8585
 7035TIP3    H242741   6.286   5.539   2.839  2.1500 -1.1795 -1.2907
 7036TIP3   OH242742   4.448   4.363   0.214  0.2993  0.2913  0.0498
 7036TIP3    H142743   4.471   4.409   0.294 -0.0338  0.2611  0.1666
 7036TIP3    H242744   4.503   4.284   0.215 -0.3468 -0.1680  0.7101
 7037TIP3   OH242745   2.312   1.524   6.841 -0.1041 -0.3600 -0.0204
 7037TIP3    H142746   2.364   1.520   6.921  0.3234 -0.2685 -0.2918
 7037TIP3    H242747   2.222   1.516   6.871  0.0110  0.3319  0.5301
 7038TIP3   OH242748   4.976   0.890   8.056 -0.7329 -0.0712 -0.6775
 7038TIP3    H142749   4.994   0.906   8.149 -1.7228 -0.0534 -0.4765
 7038TIP3    H242750   5.045   0.937   8.010 -1.3792  1.6290  0.0108
 7039TIP3   OH242751   3.022   4.253   7.714 -0.2674 -0.2244  0.3807
 7039TIP3    H142752   3.070   4.319   7.765 -1.3683 -0.6131  1.9973
 7039TIP3    H242753   2.970   4.206   7.779 -1.0231 -1.3744 -1.0093
 7040TIP3   OH242754   2.930   4.119   0.350 -0.0637  0.4997 -0.7916
 7040TIP3    H142755   2.920   4.193   0.289  0.3161 -0.5238 -2.1522
 7040TIP3    H242756   3.024   4.104   0.355 -0.1034  0.4591 -0.0671
 7041TIP3   OH242757   3.458   0.153   7.630 -0.1365  0.0424 -0.0464
 7041TIP3    H142758   3.373   0.128   7.594  0.8574 -2.4079 -0.8881
 7041TIP3    H242759   3.439   0.175   7.722 -1.6869 -0.3843 -0.2356
 7042TIP3   OH242760   6.683   5.735   8.639 -0.2996 -0.5550  0.3872
 7042TIP3    H142761   6.691   5.831   8.640 -0.5851 -0.5350  2.0944
 7042TIP3    H242762   6.591   5.718   8.659  0.0003 -1.2059  1.2549
 7043TIP3   OH242763   5.444   5.143   8.308  0.0090  0.1561  0.0078
 7043TIP3    H142764   5.520   5.127   8.365  1.3271 -1.2586 -2.0058
 7043TIP3    H242765   5.460   5.089   8.231 -2.0207  1.4621 -1.4425
 7044TIP3   OH242766   4.393   5.508   2.290  0.2852  0.0108  0.3726
 7044TIP3    H142767   4.470   5.462   2.255 -0.9493  0.4618 -3.4521
 7044TIP3    H242768   4.429   5.565   2.359  2.7549 -2.2431  1.1220
 7045TIP3   OH242769   1.866   2.369   1.706  0.4564 -0.0899 -0.0628
 7045TIP3    H142770   1.825   2.449   1.674  3.1220  1.7262  0.7910
 7045TIP3    H242771   1.844   2.367   1.799 -0.4015 -0.9362 -0.2607
 7046TIP3   OH242772   4.816   5.122   0.537  0.0866  0.2062 -0.0688
 7046TIP3    H142773   4.737   5.150   0.584 -1.3547 -1.4171 -1.3970
 7046TIP3    H242774   4.840   5.038   0.579  1.0930  0.6412  0.2666
 7047TIP3   OH242775   1.861   1.826   2.142 -0.1097  0.1322  0.3739
 7047TIP3    H142776   1.787   1.772   2.171 -0.7792  0.9907  0.3284
 7047TIP3    H242777   1.875   1.888   2.214 -0.2189  0.7314 -0.1062
 7048TIP3   OH242778   4.656   5.205   8.226 -0.2584  0.3594 -0.0028
 7048TIP3    H142779   4.608   5.157   8.159  0.8121 -0.9032  0.0998
 7048TIP3    H242780   4.633   5.162   8.308  0.3985  0.2530  0.1354
 7049TIP3   OH242781   6.401   1.193   7.117  0.8168 -0.5349  0.5786
 7049TIP3    H142782   6.318   1.153   7.142  1.1232 -1.7240 -0.2440
 7049TIP3    H242783   6.446   1.126   7.066  1.8566  0.4518  0.1560
 7050TIP3   OH242784   0.138   1.175   8.753 -0.0084  0.4810  0.4742
 7050TIP3    H142785   0.132   1.083   8.729 -2.3691  0.7090 -0.0844
 7050TIP3    H242786   0.047   1.205   8.758  0.6778  3.0539 -0.4806
 7051TIP3   OH242787   0.035   1.362   8.556 -0.8381 -0.3879 -0.3323
 7051TIP3    H142788   0.031   1.420   8.632 -0.3360  1.9459 -1.9826
 7051TIP3    H242789   0.123   1.323   8.561 -0.7781 -0.2010  0.2207
 7052TIP3   OH242790   5.832   2.653   7.664  0.2920  0.2338  0.2873
 7052TIP3    H142791   5.910   2.708   7.649  0.2599  0.2839  0.3050
 7052TIP3    H242792   5.844   2.579   7.604 -0.1385  0.7438 -0.4512
 7053TIP3   OH242793   1.114   5.015   7.128  0.3951 -0.3390 -0.0724
 7053TIP3    H142794   1.037   4.967   7.159  0.6498 -1.0639 -0.5309
 7053TIP3    H242795   1.171   4.947   7.091  1.1953  0.2032  0.1387
 7054TIP3   OH242796   5.827   5.900   8.739 -1.2057 -0.0098  0.0579
 7054TIP3    H142797   5.826   5.835   8.668  2.0960  0.7232 -0.8061
 7054TIP3    H242798   5.804   5.982   8.696  0.6457  0.4071 -0.2210
 7055TIP3   OH242799   1.904   4.949   8.061  0.2464  0.6264 -0.7341
 7055TIP3    H142800   1.836   4.883   8.055 -0.7595  1.7272 -2.5991
 7055TIP3    H242801   1.861   5.025   8.100  0.7934  0.8756 -0.5966
 7056TIP3   OH242802   4.336   2.038   0.446  0.6363 -0.4393 -0.4604
 7056TIP3    H142803   4.330   1.963   0.506  0.1837  0.4323  0.6036
 7056TIP3    H242804   4.284   2.106   0.487  3.0166  1.3093 -0.1797
 7057TIP3   OH242805   3.499   5.399   8.788  0.2468  0.0422  0.0052
 7057TIP3    H142806   3.575   5.399   8.845 -0.2234 -0.2477  0.6454
 7057TIP3    H242807   3.516   5.469   8.725  0.1780  1.2960  1.3189
 7058TIP3   OH242808   1.050   1.859   0.710 -0.0077 -0.4596 -0.2818
 7058TIP3    H142809   1.129   1.805   0.713  1.6281  1.7989 -0.2357
 7058TIP3    H242810   1.081   1.948   0.726 -2.6005  0.5147 -0.1616
 7059TIP3   OH242811   4.700   4.613   1.722  0.3705  0.3891 -0.1965
 7059TIP3    H142812   4.779   4.571   1.756 -0.1311  0.0089  0.5263
 7059TIP3    H242813   4.631   4.549   1.739  0.0304  0.3724 -1.5510
 7060TIP3   OH242814   5.299   5.496   1.515  0.5072 -0.1005  0.0042
 7060TIP3    H142815   5.256   5.558   1.574  2.0109 -0.4190  1.5335
 7060TIP3    H242816   5.285   5.411   1.557 -2.0175 -0.9831 -2.3504
 7061TIP3   OH242817   4.960   0.785   6.972  0.3271  0.0459  0.2869
 7061TIP3    H142818   5.007   0.842   7.032 -2.7368  1.0709  1.9104
 7061TIP3    H242819   4.889   0.839   6.937 -1.4959 -2.1654  0.3090
 7062TIP3   OH242820   1.899   1.705   1.602 -0.4807 -0.1337  0.2817
 7062TIP3    H142821   1.827   1.666   1.551  1.2629 -1.6659 -1.1718
 7062TIP3    H242822   1.928   1.634   1.659  0.9030 -0.0674 -0.3195
 7063TIP3   OH242823   5.428   2.595   7.646 -0.6432 -0.1694 -0.0987
 7063TIP3    H142824   5.494   2.556   7.590  0.7532  0.3280  1.1267
 7063TIP3    H242825   5.429   2.688   7.623 -2.6246 -0.4803 -1.6986
 7064TIP3   OH242826   4.557   0.989   8.613 -0.2049 -0.0291 -0.1322
 7064TIP3    H142827   4.592   0.920   8.670  0.3717 -0.4345 -0.9551
 7064TIP3    H242828   4.601   1.069   8.641 -0.3159 -0.1274  0.3314
 7065TIP3   OH242829   4.025   3.340   6.797  0.0217  0.2475 -0.1112
 7065TIP3    H142830   4.105   3.299   6.830 -0.2462 -0.0249  0.2131
 7065TIP3    H242831   4.037   3.434   6.813 -0.3826  0.0652  1.4032
 7066TIP3   OH242832   0.885   5.596   1.690 -0.5277 -0.0963  0.2043
 7066TIP3    H142833   0.793   5.616   1.672 -0.6297 -1.3264 -0.7137
 7066TIP3    H242834   0.896   5.504   1.664  0.2387 -0.8995  3.0109
 7067TIP3   OH242835   3.699   6.079   8.343  0.5152  0.5187  0.2167
 7067TIP3    H142836   3.679   6.171   8.362 -1.5357  0.3224 -0.7592
 7067TIP3    H242837   3.621   6.031   8.370  1.2173 -0.8509 -0.0836
 7068TIP3   OH242838   0.409   1.190   1.546  0.3085 -0.7048 -0.6515
 7068TIP3    H142839   0.322   1.212   1.576  0.5958  0.1303 -0.4068
 7068TIP3    H242840   0.420   1.097   1.567  0.0534 -0.4400  0.7173
 7069TIP3   OH242841   0.844   1.569   7.460  0.0324 -0.2316  0.1388
 7069TIP3    H142842   0.806   1.523   7.385  0.7502  0.4468 -0.6771
 7069TIP3    H242843   0.854   1.659   7.429  0.2126  0.0889  1.1126
 7070TIP3   OH242844   5.037   0.884   8.633 -0.3434 -0.6416 -0.8306
 7070TIP3    H142845   5.082   0.968   8.624 -1.9176 -0.0315 -4.5584
 7070TIP3    H242846   4.991   0.891   8.717  2.7083  0.4594  0.9502
 7071TIP3   OH242847   3.586   2.452   7.753  0.0318  0.0995 -0.0706
 7071TIP3    H142848   3.598   2.394   7.678  1.4011  1.6855 -1.1501
 7071TIP3    H242849   3.543   2.529   7.717  1.3177  1.1766  0.5919
 7072TIP3   OH242850   2.290   3.057   2.413  0.9338 -0.1506 -0.2496
 7072TIP3    H142851   2.285   3.093   2.502 -1.6991  1.8235 -1.0819
 7072TIP3    H242852   2.339   3.123   2.364 -1.6055  1.1722 -1.1902
 7073TIP3   OH242853   3.016   2.066   2.908 -0.1158 -0.6522 -0.0949
 7073TIP3    H142854   3.108   2.089   2.895 -0.2649  1.0045  1.3451
 7073TIP3    H242855   2.975   2.082   2.823  0.6426  0.1773 -0.3223
 7074TIP3   OH242856   2.268   3.729   7.541  0.4269 -0.0953 -0.0218
 7074TIP3    H142857   2.295   3.764   7.456  1.7070  0.3834  0.5537
 7074TIP3    H242858   2.330   3.658   7.558  0.5426  0.1815  0.7542
 7075TIP3   OH242859   6.365   6.306   8.189  0.0022 -0.1390 -0.0805
 7075TIP3    H142860   6.414   6.238   8.144  1.6471  0.1012  1.2509
 7075TIP3    H242861   6.274   6.295   8.159  0.6893 -1.1694 -1.9292
 7076TIP3   OH242862   0.739   2.411   0.440 -0.0355 -0.6002 -0.0153
 7076TIP3    H142863   0.694   2.326   0.441  1.8023 -1.6380  2.2922
 7076TIP3    H242864   0.741   2.439   0.531  3.2026 -0.2428 -0.0744
 7077TIP3   OH242865   3.375   0.515   1.765  0.2395  0.6014  0.0586
 7077TIP3    H142866   3.346   0.431   1.800  0.0038  0.5862 -0.1646
 7077TIP3    H242867   3.403   0.495   1.675  1.6605  0.4819  0.5105
 7078TIP3   OH242868   3.655   3.846   0.285  0.0263  0.6549  0.5464
 7078TIP3    H142869   3.559   3.842   0.279  0.1531 -0.4019 -1.4392
 7078TIP3    H242870   3.673   3.821   0.376 -1.5008 -1.4900  0.3351
 7079TIP3   OH242871   3.988   4.953   1.946  0.3223 -0.2468 -0.0572
 7079TIP3    H142872   3.957   4.862   1.948 -0.7054 -0.0356 -2.6830
 7079TIP3    H242873   4.078   4.946   1.913  0.9924 -0.3939  1.6750
 7080TIP3   OH242874   2.412   5.555   1.178  0.0573 -0.6715  0.2025
 7080TIP3    H142875   2.390   5.634   1.129  0.1738  0.1669  1.4402
 7080TIP3    H242876   2.382   5.483   1.123  0.1056  0.2183 -1.0386
 7081TIP3   OH242877   2.761   1.577   1.031 -0.7812  0.6441  0.9340
 7081TIP3    H142878   2.856   1.580   1.047 -0.6643  3.5429  0.2017
 7081TIP3    H242879   2.732   1.498   1.077  2.0260 -0.5836  0.8227
 7082TIP3   OH242880   5.656   0.979   1.982 -0.1554 -0.5249 -0.1074
 7082TIP3    H142881   5.596   1.052   1.966 -0.7185 -1.0413 -0.3936
 7082TIP3    H242882   5.743   1.018   1.974 -0.4147 -0.2273 -2.1126
 7083TIP3   OH242883   3.845   5.451   7.012 -0.2036  0.3270  0.2145
 7083TIP3    H142884   3.866   5.544   7.006  1.6099 -0.0831 -0.1617
 7083TIP3    H242885   3.771   5.439   6.952 -0.0955  1.4161 -0.1443
 7084TIP3   OH242886   4.623   0.159   8.418 -0.3191 -0.1211 -0.1764
 7084TIP3    H142887   4.630   0.069   8.387 -2.0884 -0.6887  0.9104
 7084TIP3    H242888   4.638   0.154   8.512  2.1304  1.1534 -0.4259
 7085TIP3   OH242889   1.223   0.171   1.264 -0.3568 -0.7337  0.6049
 7085TIP3    H142890   1.156   0.135   1.322  1.0468 -1.4299  1.8441
 7085TIP3    H242891   1.304   0.129   1.291  0.4718 -0.5871 -1.4603
 7086TIP3   OH242892   2.986   2.947   7.814  0.4431  0.1175 -0.0513
 7086TIP3    H142893   3.018   2.872   7.865 -0.1785 -0.0614  0.0868
 7086TIP3    H242894   3.065   2.989   7.781  0.7848 -1.4083 -1.3186
 7087TIP3   OH242895   4.794   3.842   1.124  0.1743  0.3288  0.6120
 7087TIP3    H142896   4.758   3.842   1.036  0.0813 -0.7255  0.6434
 7087TIP3    H242897   4.800   3.935   1.147  1.2596  0.6872 -0.9232
 7088TIP3   OH242898   6.802   0.277   6.895 -0.5109 -0.0590  0.0969
 7088TIP3    H142899   6.804   0.343   6.964 -0.2719  1.2958 -1.1645
 7088TIP3    H242900   6.710   0.250   6.890 -1.0578  1.7600 -0.7664
 7089TIP3   OH242901   4.377   6.299   2.890  0.6079 -0.6834 -0.0365
 7089TIP3    H142902   4.441   6.294   2.960 -1.4511 -1.2223  1.9203
 7089TIP3    H242903   4.293   6.285   2.933 -1.0673  1.8758 -2.1399
 7090TIP3   OH242904   3.337   0.935   7.847  0.6470  0.1143  0.1489
 7090TIP3    H142905   3.274   0.891   7.903  0.2551 -0.0921 -0.4428
 7090TIP3    H242906   3.371   0.867   7.789 -2.0983  0.9661 -2.7669
 7091TIP3   OH242907   2.029   5.529   1.178  0.1123  0.1890  0.0671
 7091TIP3    H142908   1.947   5.562   1.215  0.6548 -0.3601  1.9100
 7091TIP3    H242909   2.039   5.575   1.095 -0.9718  1.8613  0.8179
 7092TIP3   OH242910   1.240   2.405   6.951  0.4828  0.2307  0.1789
 7092TIP3    H142911   1.310   2.469   6.966  0.5908 -0.0987  1.1823
 7092TIP3    H242912   1.232   2.359   7.034 -1.7742  1.0744  0.5077
 7093TIP3   OH242913   1.313   4.005   1.297  0.2448  0.2169  0.2104
 7093TIP3    H142914   1.249   3.996   1.227 -0.2480 -2.1550  0.8883
 7093TIP3    H242915   1.359   4.087   1.277 -1.7830  1.0782 -1.2575
 7094TIP3   OH242916   3.628   1.264   8.239  0.2611 -0.2529  0.2434
 7094TIP3    H142917   3.721   1.241   8.239  0.6384  1.1383 -0.3146
 7094TIP3    H242918   3.603   1.264   8.331  1.0201  0.0984  0.4583
 7095TIP3   OH242919   1.940   3.228   0.822 -0.0247  0.6417 -0.0144
 7095TIP3    H142920   1.959   3.134   0.831  2.9936  1.0395 -1.3618
 7095TIP3    H242921   1.956   3.264   0.909 -0.6328  0.0153  0.3676
 7096TIP3   OH242922   0.540   2.576   0.319  0.0748 -0.5231  0.2443
 7096TIP3    H142923   0.592   2.518   0.374  1.1400  1.0530  0.9819
 7096TIP3    H242924   0.464   2.600   0.372  1.8360  2.1929  1.7995
 7097TIP3   OH242925   6.247   2.382   1.600 -0.7490 -0.6964 -0.0460
 7097TIP3    H142926   6.244   2.470   1.638  1.9782 -0.7052  0.4023
 7097TIP3    H242927   6.255   2.397   1.506 -0.1426 -0.4350  0.0404
 7098TIP3   OH242928   4.353   4.689   8.883  0.1112 -0.5346  0.0118
 7098TIP3    H142929   4.272   4.695   8.934  0.7001 -0.7248  0.9778
 7098TIP3    H242930   4.331   4.729   8.799 -1.2575 -1.3915 -0.0657
 7099TIP3   OH242931   1.473   5.237   2.690 -0.3945  0.5552 -0.3228
 7099TIP3    H142932   1.429   5.282   2.762  2.2357  0.7094  1.3148
 7099TIP3    H242933   1.551   5.290   2.673  0.3918 -0.9177 -1.4981
 7100TIP3   OH242934   0.382   3.613   1.495  0.6291  0.8625 -0.2467
 7100TIP3    H142935   0.419   3.582   1.577  1.7135  2.0563 -0.2647
 7100TIP3    H242936   0.331   3.690   1.520 -3.0049 -1.3747 -0.0199
 7101TIP3   OH242937   5.316   1.553   1.409 -0.2254 -0.3373  0.2637
 7101TIP3    H142938   5.402   1.594   1.408 -0.3106 -0.1014  1.0520
 7101TIP3    H242939   5.329   1.466   1.373  0.0261  0.2571 -1.1394
 7102TIP3   OH242940   6.035   2.616   0.645 -0.1830  0.1674  0.1175
 7102TIP3    H142941   6.001   2.703   0.623  0.0484  0.3340  0.4091
 7102TIP3    H242942   6.068   2.582   0.561  2.1067  1.4298  0.3993
 7103TIP3   OH242943   2.137   3.463   2.033  0.8402  0.1514 -0.1491
 7103TIP3    H142944   2.079   3.538   2.043 -0.9733 -1.1753 -0.3266
 7103TIP3    H242945   2.190   3.464   2.113  1.7882  2.3094 -0.7094
 7104TIP3   OH242946   0.442   2.299   1.974  0.3491  0.2236 -0.0429
 7104TIP3    H142947   0.421   2.375   2.028 -0.8819  0.2673 -0.5409
 7104TIP3    H242948   0.357   2.267   1.944  0.9644 -0.1300 -1.4964
 7105TIP3   OH242949   6.058   4.748   7.736  0.3979 -0.2565  0.3721
 7105TIP3    H142950   6.012   4.778   7.815 -0.2416  0.0598 -0.1173
 7105TIP3    H242951   6.006   4.675   7.704 -0.4463  0.8335 -0.8424
 7106TIP3   OH242952   1.192   3.686   0.970 -0.9877 -0.2969  0.3861
 7106TIP3    H142953   1.108   3.640   0.968 -1.4423  0.3834  2.3563
 7106TIP3    H242954   1.200   3.718   1.060  0.6264  1.0684 -0.2019
 7107TIP3   OH242955   4.134   1.194   0.795  0.2091 -0.0730  0.0314
 7107TIP3    H142956   4.176   1.176   0.879  0.0471  0.5345  0.2413
 7107TIP3    H242957   4.107   1.285   0.800  0.3486  0.0174 -0.7465
 7108TIP3   OH242958   2.849   0.384   6.956  0.6518  0.8856  0.2050
 7108TIP3    H142959   2.929   0.432   6.978  1.6399  0.3023 -1.8524
 7108TIP3    H242960   2.878   0.295   6.940  0.1580  1.2088 -3.2747
 7109TIP3   OH242961   5.237   1.837   0.069  0.0620 -0.5721 -0.3969
 7109TIP3    H142962   5.267   1.855   0.158  0.8660 -1.0638 -0.5580
 7109TIP3    H242963   5.318   1.832   0.017 -0.4588  1.4280 -1.5000
 7110TIP3   OH242964   1.728   2.033   8.831 -0.2721 -0.1799 -0.1499
 7110TIP3    H142965   1.634   2.049   8.841 -0.2929 -0.3898 -0.0257
 7110TIP3    H242966   1.735   1.978   8.753 -0.3133 -0.8191  0.2892
 7111TIP3   OH242967   4.096   6.638   2.101  0.0634  0.0107 -0.0350
 7111TIP3    H142968   4.144   6.597   2.173  1.1191 -0.3661 -0.9332
 7111TIP3    H242969   4.079   6.566   2.040  0.3719  0.5766 -0.8003
 7112TIP3   OH242970   4.527   3.922   8.146  0.1634 -0.3552  0.2790
 7112TIP3    H142971   4.457   3.906   8.083  0.1268 -0.8676  0.4443
 7112TIP3    H242972   4.514   3.855   8.214 -0.0014  0.3981  1.0101
 7113TIP3   OH242973   5.388   3.170   7.415  0.4174 -0.2121  0.1561
 7113TIP3    H142974   5.417   3.252   7.375 -0.2548 -1.1988 -2.5660
 7113TIP3    H242975   5.410   3.103   7.350 -0.2560 -2.0350  1.7204
 7114TIP3   OH242976   2.310   3.879   0.330 -0.1146 -0.7366  0.0433
 7114TIP3    H142977   2.250   3.885   0.404 -1.1795  1.5463 -0.9044
 7114TIP3    H242978   2.253   3.866   0.254  0.9636 -3.2167 -0.4384
 7115TIP3   OH242979   4.867   5.012   2.400  0.9008  0.3912  0.0610
 7115TIP3    H142980   4.808   4.938   2.412 -1.5043  2.3777  1.3034
 7115TIP3    H242981   4.822   5.069   2.338  1.3245  2.1355  1.2919
 7116TIP3   OH242982   1.164   5.989   1.433  0.5670 -0.1326  0.2326
 7116TIP3    H142983   1.139   5.910   1.482 -0.5393 -0.3789 -0.6871
 7116TIP3    H242984   1.258   5.978   1.416  0.2193 -1.8438 -0.8830
 7117TIP3   OH242985   4.591   6.761   1.997 -0.1565 -0.3245 -0.3055
 7117TIP3    H142986   4.668   6.817   1.986 -0.0037 -0.8039 -1.8643
 7117TIP3    H242987   4.517   6.821   1.987  0.0015 -0.0803 -0.0476
 7118TIP3   OH242988   2.618   1.992   1.693  0.2687 -0.3084 -0.3958
 7118TIP3    H142989   2.688   2.046   1.727 -1.2171  0.9272  0.8758
 7118TIP3    H242990   2.568   1.966   1.771 -0.5783 -1.2879 -1.2329
 7119TIP3   OH242991   3.724   6.740   8.409 -0.3891 -0.1425 -0.7617
 7119TIP3    H142992   3.678   6.661   8.381 -0.9612 -0.0885  0.0168
 7119TIP3    H242993   3.684   6.810   8.357 -2.0403  0.0839  0.7124
 7120TIP3   OH242994   2.579   6.729   1.707  0.1633  0.3028  0.2751
 7120TIP3    H142995   2.488   6.746   1.733  0.0355  0.8612 -0.5008
 7120TIP3    H242996   2.631   6.769   1.777 -0.1690  2.1728 -0.4853
 7121TIP3   OH242997   4.517   5.634   1.385  0.3781 -0.1623 -0.2334
 7121TIP3    H142998   4.606   5.670   1.386 -0.0157  0.9791 -2.1416
 7121TIP3    H242999   4.528   5.544   1.417  2.1782  0.0148 -0.2280
 7122TIP3   OH243000   2.954   3.111   2.197  0.2167  0.2029  0.0887
 7122TIP3    H143001   3.013   3.154   2.134  0.5263 -1.2616 -0.6738
 7122TIP3    H243002   2.867   3.120   2.158  0.5487 -1.8305 -1.3094
 7123TIP3   OH243003   6.141   1.280   1.858 -0.3147  0.4964 -0.4812
 7123TIP3    H143004   6.085   1.355   1.878 -2.1576 -1.1537  0.8477
 7123TIP3    H243005   6.226   1.303   1.896 -1.6310  0.7409  2.5494
 7124TIP3   OH243006   1.048   3.217   8.208  0.2320  0.2794  0.9611
 7124TIP3    H143007   1.122   3.269   8.238  0.1840  0.4051  0.8599
 7124TIP3    H243008   1.083   3.128   8.199  0.1691  0.1714  1.7052
 7125TIP3   OH243009   2.294   3.235   8.502 -0.4546  0.3610  0.1381
 7125TIP3    H143010   2.244   3.316   8.511 -2.0294 -0.7119  1.8936
 7125TIP3    H243011   2.334   3.222   8.588 -0.1651 -0.6642 -0.1343
 7126TIP3   OH243012   2.314   2.785   2.266 -0.1036 -0.0792 -0.1313
 7126TIP3    H143013   2.270   2.855   2.314  1.0619  1.6678 -1.4775
 7126TIP3    H243014   2.312   2.710   2.326 -1.2753  1.1310  1.4325
 7127TIP3   OH243015   5.600   4.430   8.217 -0.5954 -0.6740 -0.2123
 7127TIP3    H143016   5.619   4.345   8.177 -0.0447 -0.2581 -0.8638
 7127TIP3    H243017   5.646   4.427   8.301 -1.3007 -1.3429  0.1700
 7128TIP3   OH243018   4.545   4.142   0.980 -0.0589 -0.2578  0.0655
 7128TIP3    H143019   4.476   4.098   0.931  0.8890 -1.5979 -0.1207
 7128TIP3    H243020   4.500   4.187   1.051 -1.0298 -1.7828  0.4404
 7129TIP3   OH243021   3.161   5.021   1.498 -0.6615  0.0846 -0.4894
 7129TIP3    H143022   3.232   4.992   1.441  1.7176  1.2463  1.6328
 7129TIP3    H243023   3.136   4.943   1.548 -0.1942 -0.1521 -0.6178
 7130TIP3   OH243024   1.197   2.296   7.228 -0.1388  0.0994  0.0989
 7130TIP3    H143025   1.283   2.292   7.271  0.7851  1.9750 -1.3906
 7130TIP3    H243026   1.140   2.243   7.283  2.0623 -1.5878  0.9091
 7131TIP3   OH243027   1.497   6.290   7.134  0.4303 -0.3066  0.1075
 7131TIP3    H143028   1.469   6.212   7.088 -0.7613 -0.5771  1.2428
 7131TIP3    H243029   1.472   6.275   7.225  2.2048  0.4464  0.7705
 7132TIP3   OH243030   3.841   5.417   0.274 -0.5437 -0.2776 -0.0674
 7132TIP3    H143031   3.898   5.384   0.344 -1.2836  1.0306  1.2104
 7132TIP3    H243032   3.776   5.348   0.262 -0.8400 -0.2334  1.0894
 7133TIP3   OH243033   0.606   2.840   1.036  0.1345 -0.2731 -0.0195
 7133TIP3    H143034   0.573   2.914   0.987 -1.5246 -1.1357 -0.2914
 7133TIP3    H243035   0.556   2.765   1.003  0.2698 -1.1706  1.6696
 7134TIP3   OH243036   3.774   5.973   1.028  0.4758 -0.4516  0.1314
 7134TIP3    H143037   3.789   5.985   1.122  0.3453  1.8676 -0.0928
 7134TIP3    H243038   3.803   6.055   0.988  0.4663 -1.3614 -1.8725
 7135TIP3   OH243039   2.634   0.921   0.347  0.8111  0.0118  0.6621
 7135TIP3    H143040   2.616   0.914   0.253 -0.1229  0.7047  0.7764
 7135TIP3    H243041   2.627   0.832   0.380  0.0126 -0.0771  0.2585
 7136TIP3   OH243042   4.223   2.018   2.535  0.4396 -0.2941 -0.0956
 7136TIP3    H143043   4.227   1.922   2.535 -0.8169 -0.3610 -0.2865
 7136TIP3    H243044   4.269   2.043   2.454 -0.1135 -0.7829 -0.5716
 7137TIP3   OH243045   0.962   2.210   1.566 -0.3062  0.6539  0.0304
 7137TIP3    H143046   0.956   2.297   1.607 -0.9858  0.3305  0.6394
 7137TIP3    H243047   0.930   2.150   1.633 -1.3267  0.0900 -0.9293
 7138TIP3   OH243048   1.561   4.518   0.704  0.3401  0.0789  0.7603
 7138TIP3    H143049   1.605   4.496   0.622  0.8555  1.4637  0.6388
 7138TIP3    H243050   1.563   4.614   0.708  0.4567  0.0437  2.4605
 7139TIP3   OH243051   1.653   3.152   0.946 -0.7110 -0.1797  0.2204
 7139TIP3    H143052   1.690   3.174   0.860 -0.4939 -0.4162  0.2503
 7139TIP3    H243053   1.678   3.060   0.959 -1.2183 -0.3117  0.2909
 7140TIP3   OH243054   2.991   6.025   2.809 -0.2543 -0.0202  0.0605
 7140TIP3    H143055   2.993   6.100   2.869 -0.6026  0.2048 -0.2092
 7140TIP3    H243056   3.074   5.980   2.824 -0.3690 -0.0090  0.7696
 7141TIP3   OH243057   4.080   6.370   1.135 -0.3495 -0.3463 -0.1640
 7141TIP3    H143058   4.126   6.451   1.157 -0.9022  0.5578 -2.1117
 7141TIP3    H243059   4.135   6.330   1.068  0.7360 -2.4424  1.8560
 7142TIP3   OH243060   3.528   4.345   6.542  0.1183  0.6058  0.1216
 7142TIP3    H143061   3.518   4.330   6.636 -3.4114 -0.1614 -0.2470
 7142TIP3    H243062   3.444   4.382   6.514  0.8287  0.2350 -2.8552
 7143TIP3   OH243063   1.248   3.395   8.340 -0.6156  0.0677  0.0495
 7143TIP3    H143064   1.265   3.484   8.311 -1.3166 -0.0642 -0.8244
 7143TIP3    H243065   1.334   3.362   8.368 -0.0481  0.4851 -1.1328
 7144TIP3   OH243066   0.152   2.253   2.371 -0.0803  0.0669 -0.5033
 7144TIP3    H143067   0.116   2.338   2.397  0.9900  0.4680 -0.2556
 7144TIP3    H243068   0.077   2.194   2.371 -1.0865  1.2675 -1.9091
 7145TIP3   OH243069   3.948   5.683   0.173 -0.3289 -1.1261  0.0442
 7145TIP3    H143070   4.015   5.675   0.241 -1.2530 -1.2567  0.9769
 7145TIP3    H243071   3.911   5.595   0.166 -0.9156 -0.8888  0.1010
 7146TIP3   OH243072   1.669   6.423   1.031  0.3973  0.4107 -0.9692
 7146TIP3    H143073   1.600   6.358   1.016 -0.5036  0.0521  3.3324
 7146TIP3    H243074   1.623   6.500   1.064  1.8699  0.9026  0.0516
 7147TIP3   OH243075   2.734   2.706   7.170  0.0794  0.0560 -0.2086
 7147TIP3    H143076   2.719   2.717   7.077 -0.2693 -0.5027 -0.2211
 7147TIP3    H243077   2.822   2.740   7.185 -0.4976  1.7678 -0.4367
 7148TIP3   OH243078   3.206   5.943   1.652  0.0993  0.0056  0.1426
 7148TIP3    H143079   3.181   6.035   1.651 -0.1487 -0.0420  0.9132
 7148TIP3    H243080   3.214   5.922   1.745  0.3335 -0.7020 -0.0318
 7149LIG     O143081   6.162   2.311   7.109 -0.3576 -0.3104  0.1847
 7149LIG     O243082   6.249   2.175   7.280  0.1392  0.4161 -0.2830
 7149LIG     O343083   6.139   2.349   7.399  0.2363 -0.7374  0.5502
 7149LIG     O443084   6.191   2.007   6.961  0.4833 -0.0769 -0.4886
 7149LIG     O543085   6.343   2.199   6.821  0.2391  0.1773  0.3179
 7149LIG     O643086   6.317   2.060   7.546 -0.1232 -0.0610  0.3112
 7149LIG     O743087   6.479   2.268   7.400  0.2636  0.0859 -0.1929
 7149LIG     O843088   6.436   2.536   7.502 -0.3897  0.1164  0.9927
 7149LIG     O943089   6.049   1.982   7.237 -0.8296  0.2418  0.6488
 7149LIG    O1043090   6.380   2.520   7.070 -0.1545  0.3017  0.4481
 7149LIG    O1143091   6.091   2.635   7.469  0.0890 -0.1818 -0.2152
 7149LIG     C143092   6.175   2.178   7.155  0.4127  0.2708 -0.5701
 7149LIG     C243093   6.260   2.102   7.049 -0.3847 -0.5658 -0.9250
 7149LIG     C343094   6.326   2.224   6.965  0.4236 -0.0736  0.4281
 7149LIG     C443095   6.226   2.335   6.988 -0.7505  0.6795 -0.5826
 7149LIG     C543096   6.185   2.216   7.404  0.6739  0.1739 -0.1051
 7149LIG     C643097   6.277   2.197   7.527 -0.2436 -0.2806  0.1772
 7149LIG     C743098   6.395   2.290   7.517 -0.3360 -0.9735 -0.4059
 7149LIG     C843099   6.336   2.436   7.522  0.5532  0.3417  0.0164
 7149LIG     C943100   6.243   2.442   7.405 -0.2884  0.2277  0.2281
 7149LIG    C1043101   6.038   2.113   7.178  0.8117  0.4201 -0.1226
 7149LIG    C1143102   6.283   2.473   6.978 -0.5215 -0.0071 -0.6471
 7149LIG    C1243103   6.190   2.585   7.377  0.5607 -0.1374  0.4271
 7149LIG     H143104   6.346   2.051   7.096  0.5960  1.3641 -0.5103
 7149LIG     H243105   6.421   2.255   7.010  1.3180  1.2955 -2.2011
 7149LIG     H343106   6.148   2.325   6.911  0.0511  0.5855 -1.4011
 7149LIG     H443107   6.099   2.146   7.420  0.6695  0.3463  0.6748
 7149LIG     H543108   6.224   2.226   7.621 -1.3107  0.1110 -0.5258
 7149LIG     H643109   6.463   2.275   7.603 -1.4690 -0.1165  0.6590
 7149LIG     H743110   6.292   2.459   7.621  0.7005  1.9431 -0.2541
 7149LIG     H843111   6.303   2.425   7.313 -0.4485 -0.9413  0.3300
 7149LIG     H943112   5.975   2.182   7.238  2.9285  0.7786  1.7789
 7149LIG    H1043113   5.986   2.091   7.082  0.6039  0.5397 -0.0382
 7149LIG    H1143114   6.334   2.483   6.879 -1.3797  0.7121 -1.0355
 7149LIG    H1243115   6.197   2.544   6.976 -0.1295  0.5084  0.4133
 7149LIG    H1343116   6.283   2.647   7.374  0.6493 -0.2669  0.5087
 7149LIG    H1443117   6.138   2.597   7.279  1.8070 -0.6008 -0.3089
 7149LIG    H1543118   6.185   1.921   7.003 -0.1015 -0.4677 -1.3397
 7149LIG    H1643119   6.285   2.125   6.803  1.3809 -0.3024 -1.7208
 7149LIG    H1743120   6.364   2.033   7.467  0.0444 -2.4130  1.1352
 7149LIG    H1843121   6.496   2.175   7.383  0.7774  0.6232 -3.2903
 7149LIG    H1943122   6.505   2.486   7.458 -1.8402  0.5744 -2.0389
 7149LIG    H2043123   5.980   1.923   7.205 -0.9805  0.7240  0.0614
 7149LIG    H2143124   6.368   2.614   7.089 -1.1573 -0.2555  2.9427
 7149LIG    H2243125   6.090   2.731   7.463  2.2301 -0.1470 -1.0546
   6.80220   6.80220   8.92061
